/*--------------------------------*- C++ -*----------------------------------*\
| =========                 |                                                 |
| \\      /  F ield         | OpenFOAM: The Open Source CFD Toolbox           |
|  \\    /   O peration     | Version:  2406                                  |
|   \\  /    A nd           | Website:  www.openfoam.com                      |
|    \\/     M anipulation  |                                                 |
\*---------------------------------------------------------------------------*/
FoamFile
{
    version     2.0;
    format      ascii;
    arch        "LSB;label=32;scalar=64";
    class       volScalarField;
    location    "0.06";
    object      p;
}
// * * * * * * * * * * * * * * * * * * * * * * * * * * * * * * * * * * * * * //

dimensions      [1 -1 -2 0 0 0 0];

internalField   nonuniform List<scalar> 
2065
(
100306.3
100309.44
100311.62
100313.58
100316.53
100321.53
100329.37
100341.03
100359.24
100384.4
100418.93
100461.87
100511.99
100567.75
100626.06
100684.06
100739.19
100789.66
100833.73
100871.98
100904.7
100932.33
100956.08
100975.57
100992.82
101007.91
101021.19
101032.33
101042.37
101051.25
101059.25
101066.55
101073.46
101079.81
101085.86
101091.68
101097.14
101102.38
101106.89
101110.82
101113.73
101115.68
101116.49
101116.21
101114.87
101113.81
101112.12
101112.21
101112.43
101133.99
101156.5
101189.57
101226.57
101262.54
101287.98
101303.33
101315.19
101336.74
100306.01
100307.07
100307.68
100308.46
100310.7
100315.41
100323.49
100336.66
100356.18
100383.97
100420.89
100466.92
100520.1
100577.88
100637.44
100695.74
100750.44
100799.96
100842.61
100879.56
100911.04
100937.57
100960.34
100979
100995.65
101010.24
101022.96
101034.01
101043.71
101052.28
101060.25
101067.4
101074.18
101080.45
101086.42
101092.17
101097.58
101102.75
101107.2
101111.07
101113.92
101115.84
101116.61
101116.3
101114.97
101113.92
101112.25
101112.39
101113.38
101134.37
101156.79
101189.78
101226.66
101262.52
101287.86
101303.17
101315.02
101336.35
100296.92
100295.83
100294.98
100294.92
100296.19
100299.28
100305.02
100314.59
100329.86
100352.15
100383.53
100423.21
100472.16
100528.28
100587.68
100648.17
100706.59
100760.67
100809.15
100850.55
100886.36
100916.73
100942.26
100963.92
100982.34
100998.34
101012.41
101024.61
101035.61
101044.98
101053.35
101061.17
101068.2
101074.87
101081.05
101086.97
101092.65
101098.01
101103.11
101107.5
101111.31
101114.12
101116
101116.73
101116.41
101115.07
101114.05
101112.41
101112.57
101114.51
101134.77
101157.09
101189.99
101226.75
101262.49
101287.74
101303.01
101314.86
101335.97
100286.15
100284.35
100282.69
100281.92
100282.48
100284.38
100288.3
100295.23
100306.49
100323.87
100348.76
100382.71
100425.36
100476.91
100535.08
100595.85
100656.82
100715.23
100768.71
100816.15
100857.05
100891.93
100921.36
100946.12
100966.83
100985.2
101000.66
101014.28
101026.16
101036.91
101046.07
101054.3
101061.97
101068.9
101075.47
101081.58
101087.45
101093.08
101098.39
101103.43
101107.77
101111.54
101114.31
101116.17
101116.86
101116.53
101115.2
101114.21
101112.62
101112.76
101115.79
101135.17
101157.39
101190.2
101226.83
101262.46
101287.61
101302.85
101314.69
101335.58
100277.89
100276
100274.63
100274.31
100275.1
100277.28
100281.73
100289.63
100302.29
100321.27
100347.98
100383.73
100428.55
100481.83
100541.07
100602.79
100664.09
100722.36
100775.26
100821.83
100862.47
100896.6
100925.27
100949.41
100969.62
100987.55
101002.62
101015.94
101027.58
101038.05
101047.04
101055.14
101062.69
101069.51
101076.01
101082.06
101087.87
101093.46
101098.73
101103.72
101108.02
101111.76
101114.49
101116.34
101117
101116.67
101115.35
101114.4
101112.86
101112.96
101117.16
101135.56
101157.69
101190.39
101226.9
101262.41
101287.47
101302.68
101314.53
101335.18
100275.51
100273.68
100272.23
100271.44
100271.47
100272.53
100275.15
100280.13
100288.67
100302.32
100322.5
100350.44
100387.29
100433.4
100487.56
100547.19
100609.12
100670.48
100728.49
100780.81
100826.92
100867
100900.53
100928.65
100952.29
100972.12
100989.59
101004.36
101017.42
101028.83
101039.07
101047.9
101055.88
101063.3
101070.05
101076.47
101082.47
101088.25
101093.8
101099.04
101104
101108.26
101111.97
101114.69
101116.52
101117.16
101116.83
101115.53
101114.61
101113.15
101113.2
101118.54
101135.94
101157.98
101190.57
101226.95
101262.35
101287.32
101302.5
101314.35
101334.77
100274.64
100273.69
100272.89
100272.24
100271.94
100272.33
100273.9
100277.1
100282.84
100291.95
100306.04
100326.92
100355.4
100392.77
100439.55
100494.06
100553.65
100615.37
100676.4
100733.96
100785.69
100831.42
100870.9
100903.93
100931.58
100954.79
100974.29
100991.38
101005.88
101018.71
101029.89
101039.93
101048.62
101056.49
101063.82
101070.49
101076.85
101082.81
101088.57
101094.1
101099.32
101104.25
101108.5
101112.18
101114.88
101116.72
101117.33
101117.02
101115.74
101114.85
101113.48
101113.47
101119.85
101136.31
101158.28
101190.74
101226.99
101262.26
101287.16
101302.31
101314.17
101334.36
100275.48
100275.05
100274.7
100274.52
100274.71
100275.62
100277.63
100281.24
100287.36
100297.11
100311.95
100333.07
100361.79
100399.56
100446.67
100500.88
100560.26
100621.54
100681.99
100738.99
100790.09
100835.39
100874.27
100906.8
100934.04
100956.87
100976.08
100992.86
101007.14
101019.75
101030.74
101040.6
101049.17
101056.95
101064.2
101070.82
101077.15
101083.09
101088.84
101094.36
101099.57
101104.49
101108.72
101112.4
101115.09
101116.93
101117.53
101117.24
101115.98
101115.13
101113.85
101113.79
101121.05
101136.67
101158.57
101190.89
101227.01
101262.16
101286.99
101302.11
101313.99
101333.96
100278.12
100277.84
100277.75
100277.97
100278.62
100279.97
100282.36
100286.34
100292.71
100303.01
100318.11
100339.45
100368.78
100407.31
100454.15
100507.31
100566.92
100627.51
100687.23
100743.57
100793.93
100838.73
100877.02
100909.08
100935.94
100958.45
100977.42
100993.96
101008.05
101020.49
101031.32
101041.04
101049.53
101057.25
101064.45
101071.05
101077.36
101083.31
101089.07
101094.59
101099.81
101104.72
101108.95
101112.63
101115.32
101117.16
101117.76
101117.5
101116.24
101115.43
101114.25
101114.15
101122.13
101137.02
101158.85
101191.04
101227.02
101262.05
101286.81
101301.91
101313.8
101333.55
100282.16
100281.62
100281.34
100281.41
100281.87
100282.79
100284.43
100287.19
100291.54
100298.06
100308.38
100324.13
100345.9
100375.41
100413.83
100460.38
100513.96
100573.1
100632.78
100691.88
100747.49
100796.98
100841.25
100878.98
100910.59
100937.13
100959.4
100978.21
100994.59
101008.56
101020.89
101031.61
101041.24
101049.69
101057.4
101064.59
101071.19
101077.51
101083.48
101089.26
101094.8
101100.03
101104.95
101109.18
101112.86
101115.55
101117.41
101118
101117.79
101116.54
101115.77
101114.69
101114.57
101123.09
101137.37
101159.14
101191.17
101227.01
101261.91
101286.61
101301.69
101313.61
101333.14
100285.78
100285.24
100284.98
100285.09
100285.6
100286.61
100288.34
100291.21
100295.79
100302.72
100312.73
100328.54
100350.95
100380.56
100419
100465.58
100518.98
100577.82
100636.99
100695.34
100750.4
100798.91
100842.68
100879.9
100911.14
100937.48
100959.61
100978.37
100994.69
101008.63
101020.92
101031.62
101041.22
101049.68
101057.41
101064.62
101071.26
101077.61
101083.61
101089.43
101094.99
101100.25
101105.18
101109.43
101113.11
101115.81
101117.68
101118.28
101118.1
101116.87
101116.14
101115.16
101115.04
101123.94
101137.71
101159.41
101191.28
101226.98
101261.75
101286.41
101301.47
101313.41
101332.75
100288.48
100287.78
100287.54
100287.67
100288.19
100289.19
100290.91
100293.77
100298.42
100305.58
100315.78
100330.98
100353.23
100382.99
100421.78
100468.57
100521.99
100580.82
100639.44
100697.26
100751.77
100799.58
100842.87
100879.7
100910.71
100936.97
100959.11
100977.92
100994.29
101008.3
101020.64
101031.38
101041.02
101049.53
101057.31
101064.58
101071.28
101077.67
101083.72
101089.58
101095.18
101100.47
101105.42
101109.68
101113.38
101116.08
101117.98
101118.58
101118.45
101117.23
101116.54
101115.65
101115.57
101124.71
101138.06
101159.69
101191.39
101226.94
101261.57
101286.19
101301.24
101313.21
101332.36
100290.09
100289.23
100288.87
100288.93
100289.36
100290.23
100291.78
100294.44
100298.81
100305.37
100315.56
100331.03
100353.13
100383.12
100421.93
100469.1
100522.95
100581.48
100640.13
100697.63
100751.61
100799.06
100841.97
100878.57
100909.46
100935.79
100958.02
100977
100993.5
101007.65
101020.1
101030.95
101040.67
101049.27
101057.15
101064.49
101071.26
101077.71
101083.82
101089.74
101095.37
101100.7
101105.66
101109.95
101113.66
101116.38
101118.31
101118.91
101118.81
101117.61
101116.97
101116.16
101116.16
101125.42
101138.41
101159.96
101191.48
101226.88
101261.37
101285.96
101301.01
101313
101331.97
100290.59
100289.76
100289.29
100289.18
100289.39
100289.99
100291.18
100293.37
100297.09
100302.83
100312.53
100328.39
100350.61
100380.84
100419.55
100467.18
100521.88
100580.57
100639.3
100696.76
100750.3
100797.79
100840.34
100876.85
100907.73
100934.19
100956.59
100975.78
100992.47
101006.8
101019.41
101030.4
101040.24
101048.96
101056.94
101064.37
101071.22
101077.75
101083.92
101089.89
101095.56
101100.93
101105.92
101110.23
101113.96
101116.69
101118.65
101119.26
101119.2
101118.03
101117.42
101116.7
101116.81
101126.09
101138.76
101160.22
101191.56
101226.81
101261.15
101285.72
101300.76
101312.79
101331.58
100290.03
100289.42
100288.88
100288.54
100288.45
100288.66
100289.35
100290.93
100293.92
100299.23
100308.58
100323.7
100345.6
100376.08
100415.38
100463.98
100519.08
100578.23
100637.64
100695.08
100748.55
100796.07
100838.37
100874.89
100905.8
100932.44
100955.02
100974.43
100991.32
101005.86
101018.64
101029.8
101039.78
101048.63
101056.72
101064.25
101071.19
101077.79
101084.03
101090.05
101095.77
101101.18
101106.2
101110.53
101114.28
101117.03
101119.02
101119.64
101119.6
101118.47
101117.91
101117.25
101117.52
101126.74
101139.11
101160.48
101191.63
101226.72
101260.9
101285.47
101300.51
101312.57
101331.2
100289.27
100288.5
100287.78
100287.24
100286.91
100286.88
100287.71
100290.16
100295.02
100303.63
100317.84
100339.93
100370.96
100410.66
100459.38
100515.54
100575.55
100635.41
100693.11
100746.55
100794.12
100836.28
100872.89
100903.85
100930.68
100953.43
100973.06
100990.14
101004.89
101017.85
101029.18
101039.3
101048.29
101056.5
101064.13
101071.17
101077.84
101084.14
101090.23
101095.98
101101.44
101106.48
101110.84
101114.62
101117.38
101119.41
101120.04
101120.03
101118.94
101118.41
101117.83
101118.29
101127.37
101139.48
101160.73
101191.68
101226.62
101260.63
101285.21
101300.25
101312.35
101330.81
100290.14
100289
100287.75
100286.59
100285.55
100284.68
100284.72
100286.62
100291.01
100298.96
100312.3
100333.6
100364.95
100406.14
100455.72
100512.25
100572.8
100633.06
100690.89
100744.31
100791.95
100834.05
100870.85
100901.88
100928.93
100951.86
100971.7
100988.98
101003.92
101017.06
101028.56
101038.83
101047.97
101056.29
101064.02
101071.16
101077.91
101084.27
101090.41
101096.21
101101.7
101106.78
101111.16
101114.96
101117.75
101119.81
101120.46
101120.48
101119.43
101118.94
101118.42
101119.14
101127.99
101139.85
101160.97
101191.73
101226.5
101260.33
101284.94
101299.98
101312.12
101330.43
100292.5
100290.94
100289.09
100287.28
100285.68
100284.44
100283.68
100284.31
100287.85
100295.19
100308.34
100329.31
100360.44
100402.08
100452.4
100509.31
100570.14
100630.6
100688.41
100741.73
100789.43
100831.53
100868.64
100899.81
100927.13
100950.28
100970.34
100987.82
101002.97
101016.29
101027.95
101038.37
101047.65
101056.1
101063.92
101071.16
101077.98
101084.41
101090.61
101096.45
101101.98
101107.08
101111.5
101115.33
101118.13
101120.22
101120.9
101120.95
101119.93
101119.49
101119.02
101120.05
101128.61
101140.22
101161.21
101191.76
101226.37
101260.01
101284.66
101299.71
101311.88
101330.05
100295.45
100293
100290.56
100288.35
100286.53
100285.25
100285.15
100287.58
100294.52
100307.3
100327.95
100358.55
100399.78
100450.13
100506.92
100567.51
100627.77
100685.43
100738.6
100786.38
100828.54
100866.13
100897.49
100925.21
100948.63
100968.93
100986.64
101002
101015.5
101027.35
101037.92
101047.34
101055.91
101063.83
101071.16
101078.06
101084.56
101090.81
101096.69
101102.26
101107.4
101111.85
101115.7
101118.53
101120.64
101121.36
101121.44
101120.46
101120.05
101119.64
101121.01
101129.22
101140.61
101161.45
101191.78
101226.23
101259.66
101284.36
101299.43
101311.64
101329.67
101107.72
101112.2
101116.08
101118.93
101121.07
101121.83
101121.94
101121
101120.63
101120.26
101122
101129.84
101140.99
101161.67
101191.79
101226.07
101259.29
101284.06
101299.14
101311.4
101329.3
100191.38
100181.19
100289.71
100277.67
100263.89
100250.1
100237.22
100225.41
100214.81
100205.66
100304.92
100297.84
100288.95
100278.45
100267.44
100256.74
100246.68
100237.53
100229.55
100309.16
100304.77
100299.27
100292.3
100283.94
100275.55
100267.39
100259.8
100253.05
100313.29
100311.98
100309.08
100304.8
100299.75
100294.02
100287.91
100281.91
100276.38
100317.94
100319.31
100319.22
100318.01
100315.97
100312.77
100308.67
100304.21
100299.87
100323.92
100327.4
100330.65
100332.68
100333.31
100332.39
100330.15
100327.13
100323.88
100332.59
100338.71
100344.76
100349.41
100352.38
100353.5
100352.92
100351.2
100348.92
100344.53
100353.37
100361.87
100368.82
100373.87
100376.75
100377.6
100377
100375.52
100363.56
100373.45
100383.49
100392.12
100398.73
100402.94
100404.87
100405.1
100404.24
100388.26
100399.06
100410.36
100420.12
100427.69
100432.72
100435.32
100436.08
100435.63
100421.2
100431.98
100443.6
100453.62
100461.39
100466.62
100469.43
100470.39
100470.12
100462.58
100472.57
100483.54
100492.88
100500.05
100504.85
100507.41
100508.26
100507.97
100511.14
100519.77
100529.36
100537.32
100543.26
100547.12
100549.03
100549.51
100549.01
100565.44
100572.18
100579.81
100585.86
100590.15
100592.71
100593.73
100593.65
100592.84
100622.69
100627.4
100632.86
100636.82
100639.28
100640.41
100640.42
100639.7
100638.54
100680.05
100682.87
100686.24
100688.25
100689
100688.79
100687.86
100686.57
100685.11
100734.94
100736.17
100737.79
100738.19
100737.56
100736.26
100734.61
100732.91
100731.28
100785.5
100785.55
100785.84
100785.07
100783.46
100781.45
100779.36
100777.48
100775.83
100830
100829.38
100828.9
100827.49
100825.38
100823.01
100820.72
100818.77
100817.15
100868.71
100867.73
100866.8
100865.07
100862.75
100860.26
100857.94
100856
100854.42
100901.89
100900.78
100899.67
100897.89
100895.63
100893.24
100891.06
100889.27
100887.84
100929.96
100928.87
100927.77
100926.11
100924.06
100921.91
100919.96
100918.37
100917.12
100954.05
100953.02
100951.97
100950.48
100948.68
100946.82
100945.13
100943.76
100942.68
100973.94
100973.11
100972.24
100971.03
100969.54
100967.97
100966.53
100965.34
100964.4
100991.44
100990.74
100990.01
100988.99
100987.74
100986.41
100985.17
100984.12
100983.29
101006.75
101006.15
101005.54
101004.69
101003.64
101002.53
101001.47
101000.57
100999.85
101020.24
101019.71
101019.17
101018.44
101017.55
101016.61
101015.7
101014.92
101014.29
101031.53
101031.11
101030.68
101030.09
101029.36
101028.58
101027.82
101027.15
101026.6
101041.7
101041.32
101040.93
101040.42
101039.8
101039.12
101038.47
101037.88
101037.39
101050.74
101050.41
101050.05
101049.58
101049.04
101048.45
101047.88
101047.37
101046.94
101058.68
101058.37
101058.06
101057.65
101057.18
101056.67
101056.17
101055.72
101055.33
101066.13
101065.92
101065.64
101065.28
101064.85
101064.4
101063.96
101063.56
101063.22
101073.05
101072.8
101072.54
101072.22
101071.86
101071.46
101071.08
101070.73
101070.42
101079.42
101079.21
101079.03
101078.75
101078.42
101078.07
101077.73
101077.43
101077.16
101085.53
101085.31
101085.07
101084.8
101084.5
101084.19
101083.9
101083.63
101083.39
101091.37
101091.17
101090.95
101090.71
101090.44
101090.16
101089.89
101089.65
101089.45
101096.87
101096.71
101096.57
101096.38
101096.14
101095.88
101095.64
101095.43
101095.24
101102.14
101102
101101.82
101101.59
101101.37
101101.15
101100.93
101100.74
101100.59
101106.69
101106.56
101106.41
101106.26
101106.1
101105.9
101105.71
101105.54
101105.4
101110.66
101110.55
101110.41
101110.23
101110.06
101109.91
101109.74
101109.6
101109.48
101113.6
101113.5
101113.38
101113.23
101113.05
101112.88
101112.73
101112.6
101112.5
101115.56
101115.46
101115.34
101115.19
101115.02
101114.87
101114.73
101114.61
101114.51
101116.4
101116.3
101116.19
101116.06
101115.93
101115.8
101115.68
101115.57
101115.47
101116.13
101116.04
101115.94
101115.84
101115.73
101115.61
101115.5
101115.42
101115.35
101114.81
101114.72
101114.63
101114.53
101114.43
101114.34
101114.26
101114.18
101114.13
101113.72
101113.62
101113.51
101113.41
101113.31
101113.23
101113.16
101113.1
101113.05
101112.03
101111.95
101111.87
101111.8
101111.74
101111.69
101111.65
101111.62
101111.6
101112.07
101111.92
101111.73
101111.52
101111.32
101111.13
101110.99
101110.88
101110.81
101111.68
101111.1
101110.67
101110.4
101110.24
101110.18
101110.2
101110.25
101110.33
101133.73
101133.66
101133.61
101133.57
101133.54
101133.55
101133.59
101133.64
101133.68
101156.31
101156.34
101156.39
101156.46
101156.55
101156.65
101156.77
101156.88
101156.97
101189.43
101189.53
101189.66
101189.8
101189.96
101190.13
101190.3
101190.45
101190.57
101226.51
101226.65
101226.82
101227.01
101227.22
101227.42
101227.62
101227.78
101227.91
101262.55
101262.7
101262.88
101263.08
101263.29
101263.5
101263.69
101263.86
101263.98
101288.06
101288.21
101288.39
101288.59
101288.79
101288.99
101289.16
101289.31
101289.43
101303.43
101303.56
101303.72
101303.89
101304.06
101304.24
101304.39
101304.51
101304.61
101315.29
101315.42
101315.58
101315.75
101315.91
101316.07
101316.22
101316.33
101316.42
101337.08
101337.36
101337.65
101337.97
101338.3
101338.62
101338.92
101339.18
101339.4
100170.67
100159.86
100149.68
100140.72
100133.78
100129.03
100196.25
100186.55
100177.42
100169.39
100163.13
100158.83
100221.31
100212.74
100204.65
100197.51
100191.93
100188.05
100245.97
100238.49
100231.38
100225.09
100220.12
100216.63
100270.42
100263.96
100257.77
100252.24
100247.83
100244.7
100294.94
100289.41
100284.04
100279.19
100275.28
100272.47
100319.9
100315.17
100310.52
100306.26
100302.77
100300.24
100345.74
100341.7
100337.64
100333.87
100330.73
100328.43
100372.99
100369.49
100365.91
100362.53
100359.67
100357.54
100402.19
100399.11
100395.87
100392.78
100390.14
100388.15
100433.91
100431.09
100428.1
100425.2
100422.71
100420.82
100468.56
100465.89
100463.03
100460.26
100457.87
100456.06
100506.42
100503.79
100500.99
100498.29
100495.96
100494.21
100547.37
100544.71
100541.92
100539.26
100537
100535.31
100591.04
100588.32
100585.53
100582.9
100580.68
100579.06
100636.56
100633.79
100631
100628.41
100626.25
100624.67
100683.02
100680.26
100677.54
100675.06
100673.01
100671.51
100729.19
100726.59
100724.07
100721.83
100720.06
100718.82
100773.89
100771.57
100769.37
100767.45
100765.96
100765.03
100815.36
100813.28
100811.34
100809.64
100808.3
100807.48
100852.77
100850.91
100849.18
100847.68
100846.48
100845.71
100886.38
100884.77
100883.29
100881.99
100880.96
100880.3
100915.87
100914.52
100913.28
100912.22
100911.38
100910.86
100941.64
100940.51
100939.49
100938.61
100937.91
100937.46
100963.48
100962.51
100961.62
100960.85
100960.23
100959.82
100982.48
100981.62
100980.84
100980.16
100979.62
100979.26
100999.15
100998.42
100997.75
100997.18
100996.73
100996.45
101013.68
101013.06
101012.48
101011.99
101011.61
101011.39
101026.07
101025.53
101025.03
101024.6
101024.27
101024.08
101036.93
101036.45
101036.01
101035.62
101035.34
101035.17
101046.53
101046.1
101045.71
101045.37
101045.12
101044.97
101054.97
101054.59
101054.24
101053.94
101053.71
101053.58
101062.89
101062.55
101062.24
101061.96
101061.76
101061.65
101070.13
101069.84
101069.55
101069.31
101069.13
101069.03
101076.91
101076.65
101076.4
101076.19
101076.03
101075.95
101083.17
101082.95
101082.73
101082.55
101082.41
101082.33
101089.25
101089.05
101088.86
101088.7
101088.57
101088.51
101095.07
101094.89
101094.73
101094.58
101094.48
101094.42
101100.44
101100.28
101100.14
101100.02
101099.93
101099.88
101105.27
101105.14
101105.02
101104.92
101104.84
101104.81
101109.37
101109.26
101109.16
101109.07
101109.01
101108.98
101112.4
101112.31
101112.23
101112.16
101112.11
101112.08
101114.43
101114.35
101114.28
101114.23
101114.19
101114.17
101115.38
101115.29
101115.2
101115.12
101115.04
101114.99
101115.28
101115.23
101115.17
101115.13
101115.09
101115.07
101114.09
101114.05
101114.02
101113.99
101113.97
101113.96
101113
101112.97
101112.95
101112.93
101112.91
101112.91
101111.58
101111.56
101111.55
101111.54
101111.53
101111.52
101110.76
101110.71
101110.68
101110.65
101110.63
101110.62
101110.4
101110.46
101110.49
101110.5
101110.5
101110.49
101133.72
101133.73
101133.74
101133.74
101133.73
101133.73
101157.05
101157.09
101157.12
101157.15
101157.16
101157.16
101190.68
101190.74
101190.78
101190.82
101190.84
101190.85
101228.03
101228.09
101228.15
101228.19
101228.21
101228.22
101264.1
101264.17
101264.24
101264.28
101264.31
101264.32
101289.53
101289.6
101289.66
101289.71
101289.74
101289.74
101304.7
101304.76
101304.81
101304.86
101304.88
101304.89
101316.5
101316.56
101316.61
101316.65
101316.68
101316.69
101339.58
101339.71
101339.81
101339.88
101339.94
101339.98
)
;

boundaryField
{
    Side1
    {
        type            empty;
    }
    Inlet
    {
        type            totalPressure;
        rho             rho;
        psi             none;
        gamma           1;
        p0              nonuniform List<scalar> 0();
        value           nonuniform List<scalar> 0();
    }
    Side2
    {
        type            empty;
    }
    Outlet
    {
        type            freestreamPressure;
        freestreamValue uniform 101325;
        value           nonuniform List<scalar> 
35
(
101325
101325
101325
101325
101325
101325
101325
101325
101325
101325
101325
101325
101325
101325
101325
101325
101325
101325
101325
101325
101325
101325
101325
101325
101325
101325
101325
101325
101325
101325
101325
101325
101325
101325
101325
)
;
    }
    Botwall
    {
        type            zeroGradient;
    }
    Cyli
    {
        type            zeroGradient;
    }
    procBoundary1to0
    {
        type            processor;
        value           nonuniform List<scalar> 
44
(
100302.6
100299.55
100304.92
100304.92
100297.91
100297.91
100287.89
100279.93
100279.93
100276.79
100276.79
100275.05
100275.68
100278.33
100278.33
100283.89
100287.44
100290.21
100291.88
100292.55
100289.83
100291.91
100289.83
100290.78
100293.29
100297.48
100297.48
100167
100155.97
100279.83
100264.54
100247.62
100231.29
100216.5
100203.21
100203.21
100299.55
100299.55
100144.45
100132.61
100121.47
100111.7
100104.18
100099.06
)
;
    }
    procBoundary1to3
    {
        type            processor;
        value           nonuniform List<scalar> 
62
(
100302.46
100299.86
100297.25
100294.83
100292.78
100291.35
100291.03
100292.65
100298.33
100310.34
100330.31
100359.93
100399.95
100449.29
100505.01
100564.61
100624.28
100681.59
100734.66
100782.6
100825
100863.06
100894.72
100923.04
100946.82
100967.42
100985.41
101001
101014.7
101026.73
101037.47
101047.03
101055.72
101063.75
101071.17
101078.14
101084.71
101091.01
101096.93
101102.55
101102.55
101108.04
101112.55
101116.47
101119.35
101121.5
101122.31
101122.45
101121.56
101121.22
101120.89
101122.98
101130.45
101141.39
101161.89
101191.79
101225.9
101258.9
101283.74
101298.85
101311.15
101328.93
)
;
    }
}


// ************************************************************************* //
