/*--------------------------------*- C++ -*----------------------------------*\
| =========                 |                                                 |
| \\      /  F ield         | OpenFOAM: The Open Source CFD Toolbox           |
|  \\    /   O peration     | Version:  2406                                  |
|   \\  /    A nd           | Website:  www.openfoam.com                      |
|    \\/     M anipulation  |                                                 |
\*---------------------------------------------------------------------------*/
FoamFile
{
    version     2.0;
    format      ascii;
    arch        "LSB;label=32;scalar=64";
    class       volVectorField;
    location    "0.06";
    object      U;
}
// * * * * * * * * * * * * * * * * * * * * * * * * * * * * * * * * * * * * * //

dimensions      [0 1 -1 0 0 0 0];

internalField   nonuniform List<vector> 
2065
(
(39.857186 2.9724531 1.8478076e-20)
(40.283398 2.8093435 -3.4302435e-20)
(40.66371 2.6960705 0)
(40.991209 2.6552377 3.7680529e-18)
(41.252838 2.6811705 -7.0033285e-18)
(41.44528 2.7747156 6.5275909e-18)
(41.565993 2.9095918 -3.0096754e-18)
(41.58724 3.1608477 -2.613675e-18)
(41.517594 3.3696417 2.3864467e-18)
(41.332828 3.6737487 1.8235882e-20)
(40.975672 3.98306 -3.4130765e-20)
(40.49975 4.2285728 -2.0428572e-18)
(39.877756 4.4038471 3.6709216e-18)
(39.147281 4.4727683 -3.3770231e-18)
(38.338569 4.4237927 3.1808284e-18)
(37.492567 4.2616784 -1.4415701e-18)
(36.643971 4.0056759 -4.1562218e-20)
(35.825028 3.6702495 0)
(35.0696 3.3067129 1.1025194e-18)
(34.384615 2.9339646 -1.0887405e-18)
(33.786083 2.5702544 0)
(33.277141 2.2422834 -5.7201466e-20)
(32.858341 1.9423503 -5.3401499e-20)
(32.524642 1.7012556 -6.989129e-19)
(32.254968 1.4961168 7.939612e-19)
(32.048172 1.3200052 0)
(31.900215 1.1548448 -8.1968664e-20)
(31.799436 1.0107433 7.6850778e-20)
(31.740101 0.88067727 0)
(31.722962 0.75981406 0)
(31.739198 0.66532726 0)
(31.786938 0.57624403 -1.1884709e-19)
(31.87432 0.49022337 0)
(31.993657 0.40428195 -1.047234e-19)
(32.148996 0.33195552 0)
(32.333978 0.27304266 0)
(32.554311 0.2194719 0)
(32.804953 0.16821217 4.7838788e-19)
(33.094616 0.11694869 4.4421926e-19)
(33.426323 0.066994321 1.3705792e-19)
(33.796343 0.01939491 -2.5295874e-19)
(34.214885 -0.022066312 4.6556779e-19)
(34.661134 -0.0590176 -1.7855265e-19)
(35.160385 -0.090821099 1.4046588e-19)
(35.662348 -0.12431849 -1.7799347e-19)
(36.222638 -0.15310756 1.6199588e-19)
(36.752276 -0.17624197 1.9206435e-19)
(37.344956 -0.19612833 -4.0225621e-19)
(37.878517 -0.19158984 0)
(38.444079 -0.21821819 0)
(38.94606 -0.22363729 5.0778338e-20)
(39.57496 -0.21879233 -4.6504638e-20)
(40.051673 -0.21097829 2.9932888e-19)
(40.718552 -0.19860217 -1.2039778e-23)
(41.12471 -0.18617575 5.4781821e-20)
(41.792888 -0.15833812 -5.5994756e-19)
(42.060246 -0.13676644 -5.0497494e-19)
(42.71749 -0.096769569 0)
(31.22417 2.1211627 -4.0774243e-21)
(32.244287 2.1356931 1.2140025e-20)
(33.147932 2.2467005 4.1130938e-18)
(33.93714 2.3614471 -3.9498135e-18)
(34.613574 2.4980915 -1.4279187e-20)
(35.202161 2.6790062 0)
(35.693864 2.9035883 -1.2117397e-20)
(36.088877 3.1939158 2.2306258e-20)
(36.358886 3.489337 0)
(36.48213 3.8913382 -3.5876838e-20)
(36.425235 4.1765407 3.2161712e-20)
(36.241422 4.4278944 0)
(35.854357 4.6111131 2.905598e-20)
(35.36291 4.6548119 -2.6735258e-20)
(34.775987 4.5793936 -2.4528387e-20)
(34.149518 4.3854304 0)
(33.517463 4.0986268 1.3889983e-18)
(32.913205 3.73555 3.8767441e-20)
(32.371373 3.3524094 -1.12964e-18)
(31.896523 2.9629341 1.0472596e-18)
(31.503664 2.5869238 -1.9456859e-18)
(31.193287 2.2500206 1.8117969e-18)
(30.963565 1.9437155 -1.637456e-18)
(30.803801 1.6992323 8.3880789e-19)
(30.69895 1.4906587 -4.6144482e-20)
(30.647711 1.3102597 0)
(30.64308 1.1395416 7.9890426e-20)
(30.670806 0.99834637 -7.478424e-20)
(30.733113 0.86455907 0)
(30.826064 0.74421263 5.3358813e-19)
(30.945356 0.64699538 -1.0011825e-18)
(31.092022 0.55659107 4.693735e-19)
(31.271681 0.46954824 0)
(31.479314 0.38286452 1.0287406e-19)
(31.716477 0.31033326 -3.8494034e-19)
(31.981834 0.2510133 3.5955928e-19)
(32.278285 0.19681268 0)
(32.603479 0.14486353 0)
(32.96279 0.092811964 -4.334451e-19)
(33.359606 0.042306976 4.0073943e-19)
(33.787559 -0.0056699763 -2.4636008e-19)
(34.256814 -0.047109461 -2.2667017e-19)
(34.745984 -0.084190152 0)
(35.279944 -0.11547706 0)
(35.809678 -0.14865511 0)
(36.38871 -0.17672881 -3.1729802e-19)
(36.932691 -0.19905105 -1.4353267e-19)
(37.53185 -0.21775658 -1.6548771e-19)
(38.069796 -0.21200649 6.7322054e-20)
(38.634944 -0.23884032 -1.1020227e-19)
(39.134995 -0.24359069 0)
(39.756755 -0.23724648 -3.7101122e-19)
(40.228082 -0.22857694 -6.4094366e-19)
(40.885395 -0.21469595 2.7662014e-19)
(41.282832 -0.20166745 1.8324077e-20)
(41.94277 -0.17177334 2.5581309e-19)
(42.206614 -0.14805459 5.0846048e-19)
(42.85072 -0.10527338 0)
(17.626173 0.74178977 5.4659256e-18)
(19.319009 0.94889043 -5.0156307e-18)
(20.955426 1.1857078 -4.6292156e-18)
(22.532686 1.4365419 4.27975e-18)
(24.020098 1.6832454 -7.6809474e-21)
(25.404343 1.9536135 -1.4147924e-20)
(26.677207 2.2582553 0)
(27.822585 2.6035506 2.3999607e-20)
(28.833039 3.0022379 -2.8397245e-18)
(29.658868 3.410175 2.6026476e-18)
(30.305032 3.8554115 1.8698168e-20)
(30.729273 4.226751 0)
(30.954637 4.5321424 0)
(30.952203 4.7273039 -1.3964022e-20)
(30.843997 4.7623426 -1.6359021e-18)
(30.597641 4.6738473 3.1163224e-18)
(30.295969 4.4609386 -1.4243614e-18)
(29.975404 4.1527208 1.8623306e-24)
(29.671854 3.7681674 -1.2618749e-18)
(29.413726 3.3688389 1.0779783e-18)
(29.209009 2.9650528 6.4436972e-20)
(29.071027 2.5785072 0)
(28.99904 2.2336566 0)
(28.988926 1.9178317 -2.5570601e-20)
(29.027092 1.6812005 -8.0920245e-19)
(29.109602 1.4671905 4.5038296e-20)
(29.230848 1.2831189 6.7829596e-19)
(29.380174 1.1145654 3.9685979e-20)
(29.549504 0.96872503 -5.9475419e-19)
(29.742006 0.83604081 5.5726237e-19)
(29.952286 0.71651639 6.5289862e-20)
(30.181734 0.61990584 0)
(30.433447 0.52876379 5.1569797e-19)
(30.711019 0.44103816 -4.8232219e-19)
(31.01116 0.35436034 -4.0070728e-19)
(31.334112 0.28207509 -2.1486843e-23)
(31.682397 0.22279236 -1.9074815e-23)
(32.056606 0.16850593 3.245239e-19)
(32.4561 0.11635957 3.0119516e-19)
(32.883318 0.064089815 -5.5754587e-19)
(33.341711 0.013612998 2.5730478e-19)
(33.822962 -0.034152694 2.3699066e-19)
(34.337401 -0.075051106 -2.1785842e-19)
(34.863807 -0.11165165 0)
(35.426747 -0.14205821 -7.2786385e-20)
(35.979201 -0.17447272 -9.1595658e-25)
(36.572627 -0.20147708 -1.5262512e-19)
(37.127404 -0.2227191 1.1870344e-19)
(37.730119 -0.24002848 8.8938441e-20)
(38.269938 -0.23404965 -1.2525432e-19)
(38.833214 -0.25971513 -1.597209e-19)
(39.329849 -0.263726 1.4642348e-19)
(39.943366 -0.25586152 3.5904433e-19)
(40.408443 -0.24633862 2.8953004e-19)
(41.055311 -0.23089566 -3.0619752e-19)
(41.443678 -0.21721682 3.5494893e-20)
(42.094291 -0.18524152 2.4790238e-19)
(42.354269 -0.1593294 2.6193028e-19)
(42.985202 -0.11341503 0)
(7.5881337 -0.79456283 1.0264397e-20)
(8.850254 -0.59396296 0)
(10.241427 -0.34260069 -9.0992368e-21)
(11.780567 -0.034698682 -8.4967802e-21)
(13.360722 0.30361443 -7.879662e-21)
(14.970437 0.66283318 7.304143e-21)
(16.584901 1.0609217 2.0300036e-20)
(18.16419 1.5025896 0)
(19.670051 1.9929882 2.9549503e-18)
(21.079104 2.5242666 -2.7315462e-18)
(22.335353 3.0624645 -2.5225949e-18)
(23.431095 3.6163271 2.324722e-18)
(24.314638 4.0853659 -8.3951487e-21)
(24.984583 4.459413 -1.5433442e-20)
(25.448143 4.6833418 1.4164066e-20)
(25.7652 4.7490106 1.6634244e-18)
(25.95331 4.6676523 1.2817457e-20)
(26.060199 4.4462202 -1.3891564e-18)
(26.130902 4.1265576 1.2676266e-18)
(26.198924 3.725474 -1.1381487e-18)
(26.2799 3.3289035 0)
(26.395283 2.9144456 -3.1650683e-20)
(26.551557 2.5221581 -9.4295929e-19)
(26.748982 2.1751162 9.049323e-19)
(26.980034 1.8671289 5.1134567e-20)
(27.240194 1.6237867 -7.8756598e-19)
(27.52689 1.4129996 -4.4692598e-20)
(27.830488 1.232075 6.4615276e-19)
(28.143548 1.0659755 -7.8006556e-20)
(28.46208 0.92320262 -3.6506957e-20)
(28.791012 0.79265995 -5.8107327e-19)
(29.125052 0.67537439 -6.404143e-20)
(29.470322 0.58053398 2.9916338e-20)
(29.831642 0.49002416 3.9205549e-19)
(30.21094 0.40278599 -2.9611595e-25)
(30.60602 0.31718591 0)
(31.016527 0.24603323 3.6391815e-19)
(31.447818 0.18754084 1.8343324e-23)
(31.898622 0.13392221 -3.9297196e-19)
(32.369324 0.082320228 0)
(32.860007 0.030579314 0)
(33.374157 -0.019112783 0)
(33.902412 -0.066001042 -1.7118565e-19)
(34.45541 -0.10574451 1.0484434e-19)
(35.012812 -0.1413033 9.61406e-20)
(35.598908 -0.17037863 -9.1652463e-26)
(36.169127 -0.20162641 2.4146137e-19)
(36.772836 -0.2272286 -1.4714979e-19)
(37.335082 -0.24715444 3.6230673e-20)
(37.938631 -0.26283407 -3.0150549e-20)
(38.478069 -0.25738502 1.2485508e-19)
(39.03817 -0.28069362 1.0309776e-19)
(39.530001 -0.28387965 -1.8916062e-19)
(40.13431 -0.27442996 4.3513636e-20)
(40.592326 -0.26402891 4.0125348e-20)
(41.227941 -0.24699133 -3.7133954e-20)
(41.60694 -0.23265824 0)
(42.247247 -0.19863916 0)
(42.503032 -0.17048151 -2.3943217e-19)
(43.120773 -0.12129107 0)
(3.8465703 -1.6620618 4.8693265e-18)
(4.606703 -1.467139 -4.5783898e-18)
(5.4436475 -1.2447682 0)
(6.3969121 -0.97842097 0)
(7.4725963 -0.65183955 -3.7504643e-18)
(8.6741722 -0.28042924 3.0926998e-21)
(9.9651302 0.18365541 6.5354463e-18)
(11.318463 0.70679089 -3.0452642e-18)
(12.693732 1.2885623 2.8324572e-18)
(14.068967 1.9160016 -2.6355289e-18)
(15.403331 2.5615403 -9.526856e-21)
(16.674785 3.2109597 8.8159766e-21)
(17.824505 3.7655692 8.1441198e-21)
(18.840392 4.2025485 2.252299e-20)
(19.716143 4.4733091 1.7755643e-18)
(20.461126 4.5653975 -1.6241626e-18)
(21.100229 4.5077834 1.4812947e-18)
(21.65227 4.2982828 7.5985597e-22)
(22.15495 3.9835486 1.0500888e-20)
(22.627533 3.595343 -1.1835391e-18)
(23.087506 3.1946135 1.0784624e-18)
(23.55319 2.7856874 1.5938135e-20)
(24.026486 2.4020229 -9.2931668e-19)
(24.511716 2.0630779 -2.7042246e-20)
(25.000387 1.7641563 -2.5210787e-20)
(25.494103 1.5298426 2.3527794e-20)
(25.992475 1.3266328 -7.0321207e-19)
(26.485047 1.1524411 6.5707034e-19)
(26.967743 0.99314622 -5.7599632e-19)
(27.440038 0.8566588 3.585371e-20)
(27.909186 0.7311605 5.7090519e-19)
(28.371089 0.61857044 -3.1402304e-20)
(28.835509 0.52700602 1.9376398e-25)
(29.308541 0.43880333 2.7391554e-20)
(29.790656 0.35362594 5.1066598e-20)
(30.280346 0.27046625 3.8045785e-19)
(30.777069 0.20157421 1.9976537e-23)
(31.288205 0.14486073 -6.5741479e-19)
(31.811173 0.092866974 7.6135192e-20)
(32.347033 0.042730642 2.816597e-19)
(32.894236 -0.0075540554 -2.5991105e-19)
(33.456578 -0.055663812 5.3857011e-19)
(34.024343 -0.10091578 -2.7510836e-19)
(34.60874 -0.13888198 -5.0536222e-20)
(35.190732 -0.17286659 -9.2688335e-20)
(35.794318 -0.20016031 3.4904019e-19)
(36.377588 -0.22987551 -3.8843219e-19)
(36.987767 -0.25378333 7.1083287e-20)
(37.554417 -0.27229153 -4.296015e-20)
(38.156331 -0.28577322 0)
(38.693226 -0.28189149 0)
(39.249069 -0.30175138 5.0010844e-20)
(39.734838 -0.30403537 4.5906805e-20)
(40.329075 -0.29292811 4.2285808e-20)
(40.779293 -0.28160536 -3.8974803e-20)
(41.402914 -0.26292952 -9.0261653e-20)
(41.772316 -0.24793659 3.3492862e-20)
(42.401445 -0.21191329 -1.5598672e-20)
(42.652739 -0.18145941 -3.6391533e-21)
(43.257269 -0.12893095 3.4125464e-21)
(1.1911541 -2.3011618 -4.7273044e-18)
(1.5654485 -2.13501 8.8353254e-18)
(1.9611173 -1.9594323 -3.3740378e-21)
(2.4000576 -1.779167 0)
(2.9345596 -1.5488164 0)
(3.5447651 -1.2376778 0)
(4.2557223 -0.87922669 -3.2189442e-21)
(5.0826503 -0.4364338 3.0260155e-21)
(6.0329901 0.092721335 2.8341492e-21)
(7.0697447 0.70019515 0)
(8.1814156 1.3600488 2.5351015e-18)
(9.3483917 2.0458211 5.3400115e-21)
(10.564314 2.729818 -4.3615171e-18)
(11.787988 3.3231246 4.0385797e-18)
(12.989319 3.7947067 -9.8706699e-21)
(14.164302 4.097408 -3.4472688e-18)
(15.276845 4.2224443 1.5843383e-18)
(16.328145 4.1899112 -5.7028986e-21)
(17.309853 4.002251 -1.0517092e-20)
(18.24322 3.7101777 -4.8491342e-21)
(19.124361 3.3447285 0)
(19.970187 2.9645365 0)
(20.792522 2.5755778 -1.5419519e-20)
(21.588742 2.2114201 -7.1712644e-21)
(22.365948 1.8910379 0)
(23.116316 1.6106521 0)
(23.845827 1.3924938 0)
(24.556434 1.2033454 0)
(25.238901 1.0417499 2.0260826e-20)
(25.892346 0.89423893 0)
(26.519132 0.76739248 0)
(27.128978 0.6501905 0)
(27.719446 0.54486343 -4.6247856e-19)
(28.302823 0.45852184 -2.8791578e-20)
(28.88599 0.37452359 -1.3424379e-20)
(29.468192 0.29322386 3.9880844e-19)
(30.048383 0.21407959 -3.7068094e-19)
(30.626136 0.14874605 3.4415135e-19)
(31.21033 0.094947585 3.1898221e-19)
(31.797774 0.0456835 -5.9027702e-19)
(32.390122 -0.001937943 2.3848172e-19)
(32.985091 -0.049870911 0)
(33.586867 -0.095545335 -8.6703857e-20)
(34.186114 -0.13845212 -2.6564106e-20)
(34.794663 -0.17405963 -4.8795246e-20)
(35.394996 -0.20598867 0)
(36.010735 -0.23110546 0)
(36.602684 -0.25897373 7.5130393e-20)
(37.21585 -0.28094078 -3.4404634e-20)
(37.784091 -0.29792311 7.4225912e-20)
(38.382172 -0.30888097 -1.0377849e-20)
(38.914636 -0.30697599 0)
(39.465171 -0.32283173 -4.8596737e-20)
(39.943775 -0.32415618 -4.8398182e-24)
(40.527159 -0.31133348 -4.1137572e-20)
(40.968927 -0.29904928 1.8972761e-20)
(41.579878 -0.27869482 5.3215969e-24)
(41.939519 -0.26303483 -6.5217345e-20)
(42.556709 -0.22504613 -7.5933511e-21)
(42.803243 -0.1922577 -7.0875002e-21)
(43.394554 -0.13644108 0)
(-0.5756813 -2.7207468 4.8547704e-18)
(-0.39866231 -2.5158135 -9.0178532e-18)
(-0.25131785 -2.3388072 -1.00484e-21)
(-0.10334064 -2.1625996 1.0184053e-23)
(0.072973001 -1.983911 2.3049139e-18)
(0.29079488 -1.7782403 0)
(0.55977301 -1.5127781 -3.3482977e-18)
(0.89349564 -1.1850628 3.1422041e-18)
(1.3138162 -0.77910348 2.9490351e-18)
(1.8303781 -0.28777419 -5.5302088e-18)
(2.5044754 0.28963082 -4.4784341e-22)
(3.2966755 0.92534096 -5.3018567e-21)
(4.2050724 1.5805935 2.2494054e-18)
(5.2727255 2.2401016 -2.1063516e-18)
(6.4826232 2.8177237 1.9527842e-18)
(7.7621546 3.281958 -1.8088599e-18)
(9.1292538 3.5848183 3.3517942e-18)
(10.52047 3.7281563 -3.095876e-18)
(11.912124 3.7220307 1.4377342e-18)
(13.270006 3.5644662 -1.3220159e-18)
(14.594197 3.3087843 2.4387189e-18)
(15.85534 2.9804796 -2.2631852e-18)
(17.066691 2.6350659 1.0458922e-18)
(18.229513 2.2801109 -3.8130439e-21)
(19.336596 1.9481981 -9.014808e-19)
(20.396014 1.6575801 8.462001e-19)
(21.400566 1.405505 6.1632959e-21)
(22.358686 1.2105415 0)
(23.274614 1.0423452 0)
(24.141347 0.89932134 -6.4040619e-19)
(24.960939 0.76842467 -9.398643e-21)
(25.737986 0.65500423 5.5732386e-19)
(26.484352 0.54938655 8.1200969e-21)
(27.199253 0.45395681 4.9183107e-19)
(27.896433 0.3750781 -9.016266e-19)
(28.58323 0.29738954 8.2516247e-19)
(29.257987 0.22194599 -3.8913254e-19)
(29.920138 0.14852569 -3.6098914e-19)
(30.569687 0.088140876 3.3448584e-19)
(31.216764 0.03858234 9.6737689e-21)
(31.858315 -0.0068667073 -1.4303044e-19)
(32.496773 -0.05101658 1.6488476e-20)
(33.129595 -0.095673058 1.215358e-19)
(33.761644 -0.13815913 2.7949694e-20)
(34.384335 -0.17809314 2.568654e-20)
(35.010072 -0.21082371 1.1684433e-19)
(35.622869 -0.24030757 -6.4959369e-20)
(36.245853 -0.26290955 -1.5937978e-20)
(36.84251 -0.2886855 7.2793248e-20)
(37.455527 -0.30851237 -1.6682616e-20)
(38.022815 -0.32389281 2.8085437e-20)
(38.615135 -0.33213654 -4.9638417e-21)
(39.141685 -0.33164991 5.1474011e-20)
(39.685741 -0.34385722 2.3645578e-20)
(40.15622 -0.34418271 -2.1731918e-20)
(40.72806 -0.32960329 4.0085131e-20)
(41.16081 -0.31632843 0)
(41.75849 -0.29426716 5.1404783e-20)
(42.108268 -0.27793706 1.5898802e-20)
(42.712863 -0.23802536 0)
(42.9544 -0.20287788 -5.5292347e-20)
(43.532519 -0.14409043 0)
(-1.831067 -2.6842347 5.32035e-22)
(-1.8823951 -2.490129 -4.3358887e-18)
(-1.9405129 -2.3204883 4.0932983e-18)
(-1.9965115 -2.1632281 -3.8696319e-18)
(-2.0415973 -2.0020337 0)
(-2.0651801 -1.8139931 -3.4585202e-18)
(-2.0534446 -1.5741808 6.5263157e-18)
(-1.9866082 -1.272155 -3.0620011e-18)
(-1.8484579 -0.91039348 7.0014303e-22)
(-1.5995238 -0.46992079 -1.3132145e-21)
(-1.2419439 0.04212779 2.5242631e-18)
(-0.73468922 0.60867208 -2.3612187e-18)
(-0.049119925 1.1956203 -2.1999873e-18)
(0.84578917 1.7629227 4.0896921e-18)
(2.016199 2.2775685 -1.8991561e-18)
(3.3057102 2.6950353 0)
(4.8049456 2.967108 0)
(6.3955034 3.1138393 -1.517515e-18)
(8.0563377 3.1264231 2.8092897e-18)
(9.7209298 3.0003468 -1.3022172e-18)
(11.376868 2.7898305 -2.3568986e-21)
(12.969513 2.5096082 0)
(14.507816 2.2106626 4.0643981e-21)
(15.979239 1.9024476 -4.80175e-19)
(17.371518 1.6146591 4.5038334e-19)
(18.691013 1.3642757 -4.2285069e-19)
(19.930855 1.1494226 7.756337e-19)
(21.100577 0.98510011 -3.6705418e-19)
(22.206561 0.84453431 0)
(23.2443 0.72573557 3.1138434e-19)
(24.218389 0.61610223 -5.8016198e-19)
(25.1349 0.52003108 2.7869315e-19)
(26.007224 0.42930017 -1.1971326e-20)
(26.835998 0.34649195 -7.4217193e-21)
(27.635645 0.27747711 -6.8950712e-21)
(28.41386 0.2083496 -6.397473e-21)
(29.168529 0.14076198 5.9269074e-21)
(29.899827 0.07482829 5.4892937e-21)
(30.608456 0.020891262 -1.5746055e-19)
(31.305811 -0.0233295 1.3147001e-19)
(31.989549 -0.06388793 1.3869261e-19)
(32.662798 -0.10361305 -2.4771056e-19)
(33.323333 -0.14421424 1.1770334e-19)
(33.976683 -0.18286793 -6.7661168e-21)
(34.61518 -0.21930979 0)
(35.251649 -0.24874981 -2.2308028e-20)
(35.871549 -0.27547167 5.2464708e-20)
(36.497364 -0.29527861 -5.1273402e-20)
(37.095182 -0.31878559 7.9482664e-20)
(37.705257 -0.33631882 -8.1026094e-20)
(38.269319 -0.34998378 4.4600966e-20)
(38.854234 -0.35539705 -2.4872127e-20)
(39.373506 -0.35592938 5.0126836e-20)
(39.910042 -0.36475958 -2.3044781e-20)
(40.371585 -0.36405441 3.2978824e-24)
(40.931276 -0.34769136 -3.9106877e-20)
(41.354527 -0.33340585 0)
(41.938417 -0.30962331 1.6725179e-20)
(42.278287 -0.29262542 5.4311589e-20)
(42.869736 -0.25083723 -2.8911333e-20)
(43.106072 -0.21331901 2.3615142e-20)
(43.671035 -0.15151347 -1.9112149e-21)
(-2.8902772 -2.4177466 4.4632944e-18)
(-3.1092072 -2.2421592 -2.104332e-18)
(-3.3313433 -2.0933447 -2.4310098e-22)
(-3.5549399 -1.9572376 1.8872882e-18)
(-3.7763198 -1.816459 -1.7878091e-18)
(-3.9877728 -1.651117 0)
(-4.1774309 -1.4410939 1.5860645e-18)
(-4.3176577 -1.1901776 -1.4779755e-18)
(-4.3992572 -0.89042258 -6.8393197e-22)
(-4.3836107 -0.51131969 0)
(-4.2330574 -0.085122077 1.2429675e-18)
(-3.8907224 0.38318698 -1.1584201e-18)
(-3.3365906 0.86687423 0)
(-2.5626589 1.3205507 -9.9499848e-19)
(-1.582383 1.7152255 9.2565485e-19)
(-0.28630381 2.0441629 -8.650592e-19)
(1.3176674 2.2710855 8.0549494e-19)
(3.0273256 2.4038885 7.4625969e-19)
(4.900494 2.4244445 -1.38885e-18)
(6.8024924 2.3290851 6.4454959e-19)
(8.731675 2.1686768 6.0182e-19)
(10.602233 1.9437264 -5.5555911e-19)
(12.41916 1.7006568 5.1571947e-19)
(14.156106 1.4497644 1.4071725e-22)
(15.795699 1.2162722 -8.9436775e-19)
(17.341256 1.015471 4.1941075e-19)
(18.786022 0.84587529 -1.513281e-21)
(20.139737 0.71936892 2.8169702e-21)
(21.410762 0.6125951 0)
(22.59705 0.52322396 -3.0735419e-19)
(23.705235 0.43923655 2.903567e-19)
(24.742171 0.36432043 -4.2170907e-21)
(25.722094 0.29168851 -2.4677586e-19)
(26.646935 0.22421849 2.3082614e-19)
(27.531299 0.16742419 6.7391548e-21)
(28.383304 0.10910594 9.3635534e-21)
(29.20091 0.051480895 -5.7747579e-21)
(29.985405 -0.0054508742 -1.7624958e-19)
(30.738421 -0.051766039 1.5302945e-19)
(31.472226 -0.089509315 9.1174275e-21)
(32.185646 -0.12427428 4.2048206e-21)
(32.882481 -0.15881461 7.7491287e-21)
(33.561005 -0.19472477 0)
(34.227306 -0.22903691 6.5607277e-21)
(34.874631 -0.26158636 0)
(35.516024 -0.28743296 0)
(36.138246 -0.31114498 9.6768712e-20)
(36.762999 -0.32802555 -5.1077016e-20)
(37.358849 -0.34906015 -8.5852421e-21)
(37.963529 -0.36418903 0)
(38.522364 -0.37601699 4.3425611e-20)
(39.098453 -0.37861554 -5.0984621e-21)
(39.60932 -0.37957897 0)
(40.137352 -0.3854751 0)
(40.589282 -0.38371526 1.0345219e-20)
(41.136311 -0.36555455 9.5473446e-21)
(41.549666 -0.35024663 2.6439829e-20)
(42.119339 -0.32474098 1.634473e-20)
(42.449307 -0.30708277 -1.516227e-20)
(43.027155 -0.26346779 7.0634186e-21)
(43.258125 -0.2235778 2.4722991e-20)
(43.809979 -0.15864267 -5.3547123e-21)
(-3.3540823 -2.137636 -3.2572982e-22)
(-3.7155571 -1.9643415 2.183072e-18)
(-4.0622501 -1.8258816 -2.5208389e-22)
(-4.4108481 -1.7072974 1.9596766e-18)
(-4.7637953 -1.596035 1.2672759e-23)
(-5.1200342 -1.4788368 2.2337658e-23)
(-5.4734977 -1.3425884 -1.6691176e-18)
(-5.8102883 -1.1774103 0)
(-6.1089598 -0.97744763 -1.4854908e-18)
(-6.3554766 -0.72714712 1.3755017e-18)
(-6.4915331 -0.46065631 1.5769115e-22)
(-6.5032628 -0.1377373 -1.2270496e-18)
(-6.3113788 0.200069 -5.7136424e-22)
(-5.8795773 0.5484477 2.1387439e-18)
(-5.1467044 0.88106228 -9.9312254e-19)
(-4.1481544 1.1635026 0)
(-2.8139133 1.3855374 8.5442625e-19)
(-1.2842913 1.5163187 4.6885552e-22)
(0.54590747 1.6207641 -7.4071933e-19)
(2.5656468 1.639295 -6.724388e-22)
(4.6385551 1.5710344 -3.1273055e-22)
(6.7873986 1.4612677 5.9436403e-19)
(8.8793099 1.2968245 -5.5250097e-19)
(10.918571 1.1173143 1.0032688e-21)
(12.86782 0.93253351 0)
(14.704789 0.761975 4.4434207e-19)
(16.429912 0.6188753 -8.2438509e-19)
(18.036765 0.50158589 3.8497183e-19)
(19.535049 0.41924168 3.5575316e-19)
(20.935058 0.3516248 -3.3115824e-19)
(22.237098 0.29620815 0)
(23.449351 0.24154969 2.8549932e-19)
(24.579019 0.19123478 -2.6488126e-19)
(25.64066 0.13965354 -2.4561988e-19)
(26.637331 0.090028273 2.3021846e-19)
(27.583479 0.047855998 2.1142614e-19)
(28.487974 0.002169646 -3.0310402e-21)
(29.349343 -0.044072573 -1.8000794e-19)
(30.169715 -0.090627847 0)
(30.951647 -0.1282118 1.1995435e-21)
(31.708168 -0.15864418 0)
(32.439275 -0.18692996 -4.0827816e-21)
(33.149258 -0.21570588 -6.0184135e-20)
(33.836907 -0.24645473 5.5396784e-20)
(34.508683 -0.276059 0)
(35.158653 -0.30443516 0)
(35.799866 -0.32648511 4.1188822e-20)
(36.420225 -0.34701248 -4.9516446e-21)
(37.040537 -0.36093782 -3.2280613e-20)
(37.631702 -0.37930894 -3.1342618e-20)
(38.228861 -0.39196253 3.0719509e-20)
(38.780738 -0.40194874 -2.4696578e-20)
(39.346766 -0.40167799 -2.1372399e-25)
(39.848266 -0.40269322 2.3859905e-20)
(40.366953 -0.40594725 0)
(40.808725 -0.4031133 -1.0111083e-20)
(41.342672 -0.38315283 -2.3347711e-20)
(41.745816 -0.36681889 -4.3118116e-21)
(42.300944 -0.33960046 7.9932855e-21)
(42.621057 -0.32129331 -3.7081259e-21)
(43.184947 -0.27590403 1.3815686e-20)
(43.410423 -0.23365362 0)
(43.94924 -0.16553572 4.998736e-21)
(-3.8177993 -1.4910189 1.1398481e-18)
(-4.2664811 -1.3728503 1.0757177e-18)
(-4.6998109 -1.2784595 -1.0201108e-18)
(-5.1353577 -1.1942583 9.6953547e-19)
(-5.5776062 -1.1116392 -1.8426988e-18)
(-6.0267964 -1.0228531 8.7423218e-19)
(-6.4776771 -0.92150148 8.2787674e-19)
(-6.916721 -0.80356206 -7.8215819e-19)
(-7.3213394 -0.66720252 0)
(-7.6652897 -0.50654594 0)
(-7.9084435 -0.31973184 -2.332391e-22)
(-8.0093437 -0.14289459 0)
(-7.9117708 0.062517957 2.7828127e-22)
(-7.545733 0.24828777 5.3208344e-19)
(-6.8691098 0.41956722 4.5089054e-22)
(-5.8617179 0.55627236 -4.6074663e-19)
(-4.5089923 0.66539324 -4.2814027e-19)
(-2.827118 0.74095259 3.9567909e-19)
(-1.0028629 0.77939945 0)
(1.1811211 0.78993419 0)
(3.337647 0.74822151 1.5542179e-22)
(5.6558603 0.6841242 -5.7840241e-22)
(7.9069277 0.58618134 -2.7498561e-19)
(10.102891 0.47682881 5.1052617e-19)
(12.199318 0.36559634 6.7806307e-23)
(14.170524 0.2651314 -2.2032294e-19)
(16.015606 0.18633121 -2.0472574e-19)
(17.729168 0.12696543 3.7900259e-19)
(19.321191 0.09374697 7.1293333e-22)
(20.803931 0.069377224 -3.2608695e-19)
(22.179884 0.051338578 1.5119563e-19)
(23.458369 0.029406742 -1.4010551e-19)
(24.646535 0.0061514565 1.2977926e-19)
(25.758955 -0.022276459 1.2015539e-19)
(26.799583 -0.052272594 -1.1224175e-19)
(27.782569 -0.078405804 1.0197316e-19)
(28.717144 -0.10993249 -1.8987709e-19)
(29.602551 -0.14347429 8.7643751e-20)
(30.44175 -0.17874953 8.0581844e-20)
(31.237934 -0.20690048 -1.504788e-19)
(32.004486 -0.22944815 6.8870765e-20)
(32.742419 -0.25079386 6.3492291e-20)
(33.456278 -0.27342061 2.6603421e-24)
(34.145273 -0.29870436 -5.3848372e-20)
(34.816034 -0.3233724 0)
(35.463303 -0.34740672 -4.4872831e-20)
(36.099949 -0.36554505 7.9543044e-20)
(36.714839 -0.38278457 -1.988654e-20)
(37.327828 -0.39377074 -1.7625034e-20)
(37.911985 -0.40934674 -1.5276482e-21)
(38.499805 -0.41949077 9.3640587e-22)
(39.043243 -0.42760989 -1.7218254e-20)
(39.598172 -0.42444484 -1.1825088e-25)
(40.089554 -0.42513141 1.1658893e-20)
(40.598139 -0.42612141 0)
(41.029331 -0.4222001 -8.6565428e-21)
(41.549872 -0.40044902 2.2847723e-20)
(41.942574 -0.38309355 -3.1627984e-21)
(42.482931 -0.35418451 9.7815735e-22)
(42.793273 -0.3352424 4.5377957e-21)
(43.34294 -0.28813407 0)
(43.562835 -0.24354691 7.8901781e-22)
(44.088708 -0.17224108 -2.6003089e-22)
(-4.0154326 -0.75999721 -2.8429975e-19)
(-4.5013334 -0.71818689 -2.4979965e-28)
(-4.9766881 -0.67186939 -2.5446252e-19)
(-5.454719 -0.62204337 7.2596686e-19)
(-5.9417718 -0.56779412 -2.4642049e-23)
(-6.438537 -0.50777848 -4.3678703e-19)
(-6.9399822 -0.44234255 2.0694478e-19)
(-7.4325906 -0.37355412 -1.9555638e-19)
(-7.8920069 -0.30404756 0)
(-8.2860464 -0.23133064 1.7304898e-19)
(-8.5684448 -0.14177544 -3.1854514e-19)
(-8.7014393 -0.099290747 2.9937841e-19)
(-8.6376673 -0.086627938 -1.4250664e-19)
(-8.2787425 -0.061933502 -1.3298146e-19)
(-7.5969198 -0.055656993 -5.260752e-23)
(-6.5475281 -0.075310953 -1.6987813e-22)
(-5.1487031 -0.093277159 1.0705483e-19)
(-3.3874941 -0.097595211 -9.6800111e-23)
(-1.5007296 -0.10091768 0)
(0.76913678 -0.10635302 -6.3696344e-28)
(3.0037899 -0.11826035 1.5883466e-19)
(5.4075914 -0.13943282 -1.4734122e-19)
(7.7452739 -0.16578462 1.3671852e-19)
(10.020266 -0.19893939 -1.90013e-19)
(12.186295 -0.23099664 -1.6700843e-23)
(14.216991 -0.2562747 5.4359982e-20)
(16.112342 -0.26647941 -1.9674849e-22)
(17.868653 -0.26445737 -4.6846945e-20)
(19.496688 -0.2455898 8.6455089e-20)
(21.010425 -0.2244183 5.2333691e-24)
(22.414171 -0.2031867 -3.7082048e-20)
(23.717899 -0.1912171 3.4329281e-20)
(24.928476 -0.18574949 -3.1755356e-20)
(26.059755 -0.18960672 -2.9362508e-20)
(27.116239 -0.1987885 2.7343371e-20)
(28.111477 -0.20776258 2.5061175e-20)
(29.054882 -0.22431757 -2.3131612e-20)
(29.94618 -0.24452 2.5442221e-27)
(30.788764 -0.26802611 3.0763618e-22)
(31.586141 -0.28636542 -2.1652603e-27)
(32.351622 -0.30072444 3.9942545e-27)
(33.086982 -0.31489425 1.5443859e-20)
(33.79678 -0.33117341 -2.8458157e-20)
(34.480504 -0.35084248 2.6204594e-20)
(35.144753 -0.37047121 -2.4120588e-20)
(35.784801 -0.39009603 1.0405014e-20)
(36.413179 -0.40428657 9.626604e-21)
(37.019548 -0.41819969 5.8746426e-22)
(37.6228 -0.42617189 -5.6299307e-26)
(38.197994 -0.43900449 -8.4482684e-21)
(38.774954 -0.4466372 -9.1438746e-22)
(39.308708 -0.45283919 -6.7292889e-21)
(39.851687 -0.44688439 1.4989949e-21)
(40.332339 -0.44699663 0)
(40.83022 -0.4459465 0)
(41.250526 -0.44093098 -1.2105343e-21)
(41.75743 -0.41740906 -2.2380721e-21)
(42.139543 -0.39904414 1.032882e-21)
(42.665002 -0.36847802 -9.5831891e-22)
(42.96569 -0.3489167 -1.778388e-21)
(43.500961 -0.30014706 -1.1086543e-25)
(43.715229 -0.25325057 7.7277902e-22)
(44.228278 -0.178771 0)
(-3.9265701 0.00035501188 -5.7085829e-19)
(-4.4143653 -0.022754454 2.5148199e-28)
(-4.8909289 -0.024664057 -2.4502221e-19)
(-5.3691885 -0.010846234 4.8705009e-19)
(-5.8560159 0.012618935 -2.6770877e-23)
(-6.352141 0.041367214 5.6284136e-23)
(-6.8524881 0.067802932 4.3240593e-24)
(-7.3429422 0.082722257 -1.9666919e-19)
(-7.7983816 0.074688315 0)
(-8.1965222 0.023376042 1.7095343e-19)
(-8.4427387 -0.017250144 -3.1517457e-19)
(-8.5637195 -0.078003204 3.0125432e-19)
(-8.450766 -0.20346472 -1.4328709e-19)
(-8.0372832 -0.36008685 -1.3367906e-19)
(-7.2895755 -0.56050324 -5.3103616e-23)
(-6.1620304 -0.74099116 -1.7107772e-22)
(-4.6995769 -0.8859422 2.1481274e-19)
(-2.891888 -0.97059589 -9.8898207e-20)
(-0.94223816 -1.0081394 0)
(1.3650031 -1.0282615 8.3415324e-23)
(3.6293342 -1.0056345 -1.5452946e-22)
(6.0479677 -0.9796682 7.341843e-20)
(8.3825665 -0.93048024 2.6848379e-23)
(10.648719 -0.88390918 -1.2562124e-19)
(12.799634 -0.83377722 -1.6508349e-23)
(14.810596 -0.78203579 5.3675616e-20)
(16.684135 -0.72217534 0)
(18.418424 -0.65803169 -4.5909247e-20)
(20.025189 -0.58652809 8.4925198e-20)
(21.519466 -0.51960077 5.1837212e-24)
(22.906707 -0.45896442 -7.2670132e-20)
(24.19681 -0.41279731 -3.4291152e-24)
(25.395986 -0.37838901 -2.8214656e-24)
(26.516843 -0.35745253 2.2174552e-22)
(27.563899 -0.34560865 -1.9958512e-24)
(28.549661 -0.33715233 4.8892143e-20)
(29.48334 -0.33850012 3.5387631e-22)
(30.364869 -0.34519827 -2.047418e-20)
(31.197641 -0.35683943 0)
(31.985143 -0.36530001 2.1090377e-27)
(32.740237 -0.37141563 -1.631706e-20)
(33.465173 -0.3783765 3.0083711e-20)
(34.164317 -0.3882754 -2.7289063e-20)
(34.837286 -0.40231521 1.2766265e-20)
(35.490478 -0.41691048 2.802583e-27)
(36.119561 -0.4321456 0)
(36.736612 -0.44242357 9.9258353e-21)
(37.331932 -0.45302495 -9.1722693e-21)
(37.923494 -0.45801167 5.2766923e-22)
(38.488084 -0.46813089 -7.7673277e-21)
(39.052946 -0.47327855 7.1496924e-21)
(39.576003 -0.4776019 -6.5805328e-21)
(40.106351 -0.46895401 1.5966563e-21)
(40.575832 -0.46823591 0)
(41.062519 -0.46537383 6.4337582e-22)
(41.471744 -0.45926514 -1.1860075e-21)
(41.964875 -0.43400206 2.1933786e-21)
(42.336333 -0.41464691 7.0737794e-25)
(42.846866 -0.38246795 -2.8181767e-21)
(43.138049 -0.3623041 -8.718785e-22)
(43.658837 -0.31193332 1.6231977e-21)
(43.867477 -0.26276375 7.5745685e-22)
(44.367852 -0.18512878 0)
(-3.5639194 0.73086796 0)
(-4.0077193 0.63717331 0)
(-4.4379057 0.58433995 -1.0355207e-18)
(-4.8706715 0.56082883 9.837269e-19)
(-5.3107301 0.55469813 2.8532191e-23)
(-5.7578214 0.55330778 -5.415673e-23)
(-6.2056488 0.54256164 -2.0518104e-22)
(-6.6386566 0.50663774 0)
(-7.030998 0.42949293 7.4906116e-19)
(-7.3589567 0.29423253 -1.1679738e-22)
(-7.546221 0.13631259 -6.4263245e-19)
(-7.5758749 -0.087119269 2.2330113e-22)
(-7.3439029 -0.41179138 -2.8278785e-22)
(-6.8178736 -0.7488327 2.636914e-22)
(-5.9484417 -1.1109808 0)
(-4.6986923 -1.4516328 1.1340744e-22)
(-3.1695462 -1.7025637 5.2336566e-22)
(-1.4198614 -1.8345013 -4.8552078e-22)
(0.65780196 -1.9368104 0)
(2.8931151 -1.9503423 3.425489e-19)