/*--------------------------------*- C++ -*----------------------------------*\
| =========                 |                                                 |
| \\      /  F ield         | OpenFOAM: The Open Source CFD Toolbox           |
|  \\    /   O peration     | Version:  2406                                  |
|   \\  /    A nd           | Website:  www.openfoam.com                      |
|    \\/     M anipulation  |                                                 |
\*---------------------------------------------------------------------------*/
FoamFile
{
    version     2.0;
    format      ascii;
    arch        "LSB;label=32;scalar=64";
    class       volScalarField;
    location    "0.016";
    object      rho;
}
// * * * * * * * * * * * * * * * * * * * * * * * * * * * * * * * * * * * * * //

dimensions      [1 -3 0 0 0 0 0];

internalField   nonuniform List<scalar> 
23204
(
1.2017492
1.2017536
1.2017569
1.2017591
1.2017599
1.2016026
1.201619
1.2016344
1.201649
1.2016627
1.2016755
1.2016874
1.2016985
1.2017086
1.2017179
1.2017263
1.2017338
1.2017402
1.2017457
1.2017501
1.2017534
1.2017556
1.2017564
1.2010972
1.2011338
1.2011691
1.2012032
1.2012361
1.2012677
1.2012983
1.2013277
1.201356
1.2013832
1.2014093
1.2014343
1.2014583
1.2014813
1.2015032
1.2015242
1.2015442
1.2015633
1.2015814
1.2015987
1.2016151
1.2016306
1.2016452
1.2016589
1.2016718
1.2016837
1.2016948
1.201705
1.2017143
1.2017227
1.2017301
1.2017366
1.2017421
1.2017465
1.2017498
1.201752
1.2017528
1.1984525
1.1986346
1.1988127
1.1989864
1.1991551
1.1993182
1.1994754
1.1996259
1.1997695
1.1999061
1.2000346
1.2001542
1.2002659
1.2003693
1.2004641
1.2005506
1.2006284
1.2007017
1.2007638
1.200816
1.2008612
1.2008943
1.2009082
1.2008812
1.2008215
1.2007926
1.2008094
1.2008477
1.2008907
1.2009337
1.2009756
1.2010161
1.2010553
1.2010931
1.2011296
1.2011649
1.201199
1.2012319
1.2012635
1.2012941
1.2013235
1.2013518
1.201379
1.2014051
1.2014302
1.2014542
1.2014772
1.2014992
1.2015202
1.2015402
1.2015593
1.2015775
1.2015948
1.2016112
1.2016267
1.2016414
1.2016551
1.201668
1.20168
1.2016911
1.2017013
1.2017106
1.201719
1.2017265
1.201733
1.2017385
1.2017429
1.2017462
1.2017485
1.2017492
1.1919408
1.1921259
1.1923107
1.1924953
1.19268
1.1928648
1.1930501
1.1932359
1.1934223
1.1936095
1.1937975
1.1939864
1.1941761
1.1943669
1.1945585
1.1947511
1.1949446
1.195139
1.1953342
1.19553
1.1957266
1.1959236
1.1961211
1.1963188
1.1965166
1.1967143
1.1969117
1.1971086
1.1973047
1.1974997
1.1976934
1.1978853
1.1980751
1.1982623
1.1984466
1.1986276
1.1988049
1.1989778
1.1991459
1.1993086
1.1994654
1.1996159
1.1997594
1.199896
1.2000249
1.2001449
1.2002568
1.2003607
1.2004561
1.2005432
1.200622
1.2006959
1.2007584
1.2008113
1.200858
1.2008932
1.2009113
1.2008921
1.2008339
1.2007973
1.2008083
1.2008446
1.2008871
1.2009299
1.2009716
1.2010121
1.2010512
1.201089
1.2011256
1.2011608
1.2011949
1.2012277
1.2012594
1.2012899
1.2013193
1.2013476
1.2013749
1.201401
1.2014261
1.2014501
1.2014731
1.2014951
1.2015161
1.2015362
1.2015553
1.2015735
1.2015909
1.2016073
1.2016228
1.2016375
1.2016513
1.2016642
1.2016762
1.2016873
1.2016976
1.2017069
1.2017153
1.2017229
1.2017293
1.2017349
1.2017393
1.2017426
1.2017449
1.2017456
1.1920266
1.1922084
1.1923898
1.1925711
1.1927525
1.1929341
1.1931162
1.1932988
1.193482
1.193666
1.1938509
1.1940367
1.1942234
1.194411
1.1945997
1.1947893
1.1949798
1.1951713
1.1953636
1.1955567
1.1957505
1.1959449
1.1961397
1.1963349
1.1965302
1.1967256
1.1969207
1.1971154
1.1973095
1.1975026
1.1976944
1.1978846
1.1980729
1.1982587
1.1984418
1.1986218
1.1987981
1.1989703
1.1991377
1.1992999
1.1994564
1.1996066
1.19975
1.1998865
1.2000156
1.2001361
1.2002482
1.2003525
1.2004484
1.200536
1.2006153
1.2006873
1.2007531
1.2008085
1.2008548
1.2008918
1.2009135
1.200902
1.2008471
1.2008034
1.2008079
1.2008418
1.2008836
1.2009262
1.2009678
1.2010082
1.2010473
1.2010851
1.2011216
1.2011568
1.2011908
1.2012236
1.2012553
1.2012858
1.2013152
1.2013435
1.2013707
1.2013969
1.201422
1.201446
1.2014691
1.2014911
1.2015121
1.2015322
1.2015514
1.2015696
1.2015869
1.2016034
1.201619
1.2016337
1.2016475
1.2016604
1.2016724
1.2016836
1.2016938
1.2017032
1.2017117
1.2017192
1.2017257
1.2017312
1.2017357
1.201739
1.2017413
1.201742
1.1921147
1.192293
1.192471
1.192649
1.1928271
1.1930054
1.1931842
1.1933635
1.1935436
1.1937244
1.1939061
1.1940887
1.1942723
1.1944569
1.1946425
1.1948291
1.1950167
1.1952053
1.1953947
1.195585
1.195776
1.1959677
1.1961599
1.1963526
1.1965454
1.1967384
1.1969313
1.1971238
1.1973157
1.1975068
1.1976968
1.1978853
1.198072
1.1982565
1.1984383
1.1986172
1.1987925
1.1989637
1.1991304
1.1992921
1.1994481
1.199598
1.1997413
1.1998776
1.2000069
1.2001278
1.2002401
1.2003446
1.200441
1.2005291
1.2006089
1.2006807
1.2007482
1.2008045
1.2008511
1.2008902
1.2009149
1.2009106
1.2008607
1.200811
1.2008084
1.2008393
1.2008803
1.2009226
1.2009642
1.2010045
1.2010435
1.2010812
1.2011176
1.2011528
1.2011868
1.2012196
1.2012512
1.2012817
1.2013111
1.2013394
1.2013667
1.2013928
1.2014179
1.201442
1.201465
1.201487
1.2015081
1.2015282
1.2015474
1.2015656
1.201583
1.2015995
1.2016151
1.2016298
1.2016436
1.2016566
1.2016686
1.2016798
1.2016901
1.2016995
1.2017079
1.2017155
1.201722
1.2017275
1.201732
1.2017353
1.2017376
1.2017384
1.1922049
1.1923797
1.1925543
1.1927289
1.1929036
1.1930786
1.1932541
1.1934302
1.193607
1.1937846
1.1939631
1.1941426
1.194323
1.1945045
1.1946871
1.1948707
1.1950553
1.1952409
1.1954274
1.1956149
1.1958031
1.1959921
1.1961817
1.1963718
1.1965622
1.1967527
1.1969433
1.1971336
1.1973234
1.1975125
1.1977006
1.1978873
1.1980724
1.1982554
1.1984359
1.1986136
1.1987878
1.1989581
1.199124
1.199285
1.1994406
1.1995901
1.1997332
1.1998693
1.1999986
1.2001199
1.2002324
1.2003371
1.2004338
1.2005223
1.2006028
1.2006753
1.2007437
1.2008003
1.2008474
1.2008883
1.2009157
1.2009179
1.2008745
1.2008201
1.2008098
1.2008372
1.2008772
1.2009192
1.2009606
1.2010009
1.2010398
1.2010774
1.2011138
1.2011489
1.2011829
1.2012157
1.2012473
1.2012777
1.2013071
1.2013354
1.2013626
1.2013887
1.2014139
1.2014379
1.201461
1.201483
1.2015041
1.2015242
1.2015434
1.2015617
1.201579
1.2015955
1.2016112
1.2016259
1.2016398
1.2016527
1.2016648
1.201676
1.2016863
1.2016957
1.2017042
1.2017118
1.2017183
1.2017239
1.2017283
1.2017317
1.201734
1.2017347
1.1921256
1.1922972
1.1924685
1.1926396
1.1928107
1.1929819
1.1931536
1.1933258
1.1934985
1.1936721
1.1938465
1.1940218
1.1941981
1.1943754
1.1945538
1.1947332
1.1949138
1.1950954
1.1952781
1.1954617
1.1956463
1.1958318
1.196018
1.196205
1.1963924
1.1965803
1.1967685
1.1969567
1.1971447
1.1973324
1.1975195
1.1977056
1.1978906
1.1980739
1.1982554
1.1984345
1.1986109
1.198784
1.1989533
1.1991184
1.1992787
1.1994337
1.1995828
1.1997256
1.1998616
1.1999907
1.2001122
1.2002251
1.2003299
1.2004269
1.2005158
1.2005968
1.2006698
1.2007365
1.2007958
1.2008454
1.2008863
1.200916
1.200924
1.2008879
1.2008305
1.2008125
1.2008356
1.2008743
1.200916
1.2009573
1.2009974
1.2010362
1.2010738
1.2011101
1.2011451
1.201179
1.2012118
1.2012433
1.2012738
1.2013031
1.2013314
1.2013586
1.2013847
1.2014098
1.2014339
1.201457
1.201479
1.2015001
1.2015202
1.2015394
1.2015577
1.2015751
1.2015916
1.2016073
1.201622
1.2016359
1.2016489
1.201661
1.2016722
1.2016825
1.201692
1.2017005
1.201708
1.2017146
1.2017201
1.2017246
1.201728
1.2017303
1.201731
1.1922235
1.1923914
1.1925591
1.1927266
1.1928943
1.1930621
1.1932304
1.1933992
1.1935686
1.1937389
1.19391
1.1940821
1.1942552
1.1944293
1.1946046
1.1947809
1.1949584
1.195137
1.1953167
1.1954974
1.1956792
1.1958618
1.1960453
1.1962296
1.1964144
1.1965998
1.1967855
1.1969713
1.1971571
1.1973426
1.1975276
1.1977118
1.1978949
1.1980765
1.1982564
1.198434
1.198609
1.1987809
1.1989492
1.1991134
1.199273
1.1994274
1.1995761
1.1997186
1.1998544
1.1999832
1.2001049
1.2002181
1.200323
1.2004203
1.2005096
1.2005909
1.2006644
1.20073
1.2007914
1.2008429
1.2008841
1.2009158
1.2009288
1.2009007
1.2008423
1.2008163
1.2008345
1.2008717
1.2009129
1.200954
1.200994
1.2010327
1.2010702
1.2011064
1.2011414
1.2011753
1.2012079
1.2012395
1.2012699
1.2012992
1.2013274
1.2013546
1.2013807
1.2014058
1.2014299
1.2014529
1.201475
1.2014961
1.2015162
1.2015354
1.2015537
1.2015711
1.2015877
1.2016033
1.2016181
1.201632
1.201645
1.2016571
1.2016684
1.2016787
1.2016882
1.2016967
1.2017043
1.2017108
1.2017164
1.2017209
1.2017243
1.2017265
1.2017273
1.1923231
1.1924874
1.1926514
1.1928154
1.1929795
1.1931439
1.1933088
1.1934742
1.1936403
1.1938072
1.1939751
1.1941439
1.1943138
1.1944847
1.1946568
1.1948301
1.1950045
1.1951801
1.1953568
1.1955346
1.1957134
1.1958932
1.196074
1.1962555
1.1964377
1.1966205
1.1968037
1.1969871
1.1971706
1.1973539
1.1975368
1.197719
1.1979002
1.1980801
1.1982583
1.1984344
1.198608
1.1987787
1.1989459
1.1991091
1.1992679
1.1994216
1.1995699
1.199712
1.1998476
1.1999762
1.2000979
1.2002115
1.2003165
1.200414
1.2005036
1.2005853
1.2006592
1.2007254
1.2007877
1.2008394
1.2008814
1.2009152
1.2009324
1.2009125
1.2008553
1.2008215
1.200834
1.2008694
1.2009101
1.2009509
1.2009908
1.2010294
1.2010667
1.2011029
1.2011378
1.2011716
1.2012042
1.2012357
1.201266
1.2012953
1.2013235
1.2013507
1.2013768
1.2014018
1.2014259
1.201449
1.201471
1.2014921
1.2015122
1.2015315
1.2015498
1.2015672
1.2015837
1.2015994
1.2016142
1.2016281
1.2016411
1.2016533
1.2016645
1.2016749
1.2016844
1.2016929
1.2017005
1.2017071
1.2017126
1.2017172
1.2017205
1.2017228
1.2017236
1.1924243
1.1925849
1.1927454
1.1929058
1.1930664
1.1932273
1.1933887
1.1935507
1.1937135
1.1938771
1.1940416
1.1942072
1.1943738
1.1945416
1.1947105
1.1948806
1.195052
1.1952245
1.1953982
1.195573
1.195749
1.195926
1.1961039
1.1962827
1.1964623
1.1966425
1.1968232
1.1970042
1.1971853
1.1973663
1.1975471
1.1977272
1.1979065
1.1980846
1.1982611
1.1984356
1.1986078
1.1987772
1.1989433
1.1991055
1.1992635
1.1994165
1.1995642
1.1997059
1.1998413
1.1999697
1.2000912
1.2002051
1.2003104
1.200408
1.2004979
1.2005799
1.2006542
1.2007212
1.2007838
1.2008358
1.2008787
1.2009142
1.2009351
1.200923
1.200869
1.2008281
1.2008342
1.2008674
1.2009074
1.200948
1.2009877
1.2010262
1.2010634
1.2010995
1.2011343
1.201168
1.2012005
1.201232
1.2012623
1.2012915
1.2013196
1.2013468
1.2013728
1.2013979
1.2014219
1.201445
1.201467
1.2014881
1.2015083
1.2015275
1.2015458
1.2015632
1.2015798
1.2015955
1.2016103
1.2016242
1.2016373
1.2016494
1.2016607
1.2016711
1.2016805
1.2016891
1.2016967
1.2017033
1.2017089
1.2017134
1.2017167
1.2017191
1.2017198
1.1925269
1.1926839
1.1928407
1.1929975
1.1931546
1.193312
1.19347
1.1936286
1.193788
1.1939483
1.1941095
1.1942718
1.1944352
1.1945998
1.1947656
1.1949325
1.1951008
1.1952702
1.1954409
1.1956128
1.1957858
1.19596
1.1961351
1.1963112
1.196488
1.1966656
1.1968438
1.1970223
1.1972011
1.1973799
1.1975584
1.1977365
1.1979138
1.19809
1.1982648
1.1984378
1.1986085
1.1987765
1.1989414
1.1991026
1.1992597
1.199412
1.1995591
1.1997004
1.1998354
1.1999636
1.2000849
1.200199
1.2003046
1.2004023
1.2004924
1.2005747
1.2006494
1.2007167
1.2007773
1.2008323
1.2008775
1.200913
1.200937
1.2009323
1.2008832
1.2008362
1.2008353
1.2008657
1.2009049
1.2009452
1.2009847
1.2010231
1.2010602
1.2010961
1.2011309
1.2011645
1.2011969
1.2012283
1.2012585
1.2012877
1.2013158
1.2013429
1.2013689
1.201394
1.201418
1.201441
1.2014631
1.2014842
1.2015043
1.2015235
1.2015418
1.2015593
1.2015758
1.2015915
1.2016064
1.2016203
1.2016334
1.2016455
1.2016568
1.2016672
1.2016767
1.2016852
1.2016929
1.2016995
1.2017051
1.2017096
1.201713
1.2017153
1.2017161
1.1926308
1.192784
1.1929372
1.1930905
1.1932441
1.1933981
1.1935526
1.1937078
1.1938638
1.1940208
1.1941787
1.1943378
1.1944979
1.1946593
1.1948219
1.1949857
1.1951509
1.1953173
1.1954849
1.1956538
1.1958239
1.1959952
1.1961675
1.1963408
1.196515
1.19669
1.1968656
1.1970416
1.197218
1.1973945
1.1975708
1.1977468
1.1979221
1.1980964
1.1982694
1.1984407
1.1986099
1.1987766
1.1989403
1.1991004
1.1992565
1.1994081
1.1995545
1.1996953
1.19983
1.199958
1.2000791
1.2001931
1.2002991
1.2003969
1.2004871
1.2005698
1.2006448
1.2007124
1.2007727
1.2008294
1.2008753
1.2009114
1.2009381
1.2009401
1.2008975
1.2008457
1.2008374
1.2008644
1.2009026
1.2009426
1.2009819
1.2010201
1.2010571
1.2010929
1.2011276
1.2011611
1.2011934
1.2012247
1.2012549
1.201284
1.2013121
1.2013391
1.2013651
1.2013901
1.2014141
1.2014371
1.2014591
1.2014802
1.2015003
1.2015196
1.2015379
1.2015553
1.2015719
1.2015876
1.2016024
1.2016164
1.2016294
1.2016416
1.2016529
1.2016633
1.2016728
1.2016814
1.201689
1.2016956
1.2017013
1.2017058
1.2017092
1.2017115
1.2017123
1.1927356
1.1928852
1.1930348
1.1931846
1.1933347
1.1934852
1.1936363
1.1937882
1.1939408
1.1940945
1.1942491
1.1944049
1.1945618
1.19472
1.1948794
1.1950401
1.1952022
1.1953655
1.1955302
1.1956961
1.1958633
1.1960316
1.1962011
1.1963716
1.1965431
1.1967154
1.1968885
1.197062
1.197236
1.1974101
1.1975842
1.1977581
1.1979313
1.1981037
1.1982749
1.1984446
1.1986122
1.1987775
1.1989399
1.1990989
1.199254
1.1994047
1.1995505
1.1996908
1.1998251
1.1999528
1.2000737
1.2001876
1.2002939
1.2003918
1.2004822
1.200565
1.2006403
1.2007084
1.2007693
1.2008267
1.2008727
1.2009096
1.2009387
1.2009465
1.2009115
1.2008567
1.2008406
1.2008636
1.2009006
1.2009402
1.2009793
1.2010173
1.2010541
1.2010898
1.2011243
1.2011577
1.20119
1.2012212
1.2012513
1.2012803
1.2013083
1.2013353
1.2013613
1.2013862
1.2014102
1.2014332
1.2014552
1.2014763
1.2014964
1.2015156
1.2015339
1.2015514
1.2015679
1.2015837
1.2015985
1.2016124
1.2016255
1.2016377
1.201649
1.2016594
1.201669
1.2016775
1.2016852
1.2016918
1.2016974
1.201702
1.2017053
1.2017077
1.2017084
1.1928412
1.1929873
1.1931333
1.1932796
1.1934262
1.1935733
1.1937211
1.1938695
1.1940189
1.1941692
1.1943206
1.1944731
1.1946268
1.1947818
1.1949381
1.1950957
1.1952546
1.1954149
1.1955765
1.1957395
1.1959037
1.1960692
1.1962359
1.1964036
1.1965724
1.196742
1.1969125
1.1970835
1.1972551
1.1974268
1.1975987
1.1977703
1.1979415
1.198112
1.1982814
1.1984493
1.1986153
1.1987791
1.1989402
1.199098
1.1992522
1.199402
1.1995471
1.1996868
1.1998206
1.1999481
1.2000688
1.2001825
1.2002889
1.2003871
1.2004775
1.2005606
1.2006361
1.2007045
1.2007657
1.2008214
1.2008698
1.2009092
1.2009389
1.2009516
1.2009247
1.200869
1.2008451
1.2008633
1.2008989
1.2009379
1.2009768
1.2010146
1.2010513
1.2010868
1.2011212
1.2011545
1.2011867
1.2012178
1.2012478
1.2012768
1.2013047
1.2013316
1.2013575
1.2013824
1.2014064
1.2014293
1.2014513
1.2014724
1.2014925
1.2015117
1.20153
1.2015474
1.201564
1.2015797
1.2015945
1.2016085
1.2016216
1.2016338
1.2016451
1.2016555
1.2016651
1.2016736
1.2016813
1.2016879
1.2016936
1.2016981
1.2017015
1.2017038
1.2017046
1.1929473
1.1930899
1.1932325
1.1933753
1.1935185
1.1936623
1.1938066
1.1939518
1.1940979
1.1942449
1.194393
1.1945423
1.1946929
1.1948447
1.1949978
1.1951523
1.1953081
1.1954654
1.195624
1.195784
1.1959453
1.1961079
1.1962717
1.1964367
1.1966027
1.1967697
1.1969376
1.1971061
1.1972752
1.1974446
1.1976141
1.1977836
1.1979527
1.1981212
1.1982887
1.1984548
1.1986192
1.1987815
1.1989413
1.1990979
1.1992509
1.1993999
1.1995442
1.1996832
1.1998166
1.1999438
1.2000642
1.2001777
1.2002842
1.2003827
1.2004731
1.2005563
1.2006321
1.2007007
1.2007621
1.2008165
1.2008671
1.2009084
1.2009387
1.2009555
1.2009368
1.2008824
1.2008509
1.2008636
1.2008974
1.2009359
1.2009745
1.2010121
1.2010486
1.201084
1.2011182
1.2011514
1.2011835
1.2012144
1.2012444
1.2012732
1.2013011
1.2013279
1.2013538
1.2013787
1.2014025
1.2014255
1.2014474
1.2014685
1.2014886
1.2015077
1.201526
1.2015435
1.20156
1.2015757
1.2015906
1.2016046
1.2016176
1.2016298
1.2016412
1.2016516
1.2016611
1.2016697
1.2016774
1.201684
1.2016897
1.2016942
1.2016976
1.2016999
1.2017007
1.1930538
1.193193
1.1933322
1.1934716
1.1936115
1.1937519
1.193893
1.1940348
1.1941776
1.1943214
1.1944664
1.1946125
1.1947598
1.1949085
1.1950585
1.1952099
1.1953627
1.1955169
1.1956725
1.1958295
1.1959879
1.1961476
1.1963086
1.1964708
1.1966341
1.1967984
1.1969637
1.1971297
1.1972963
1.1974633
1.1976305
1.1977978
1.1979648
1.1981312
1.1982968
1.1984612
1.198624
1.1987847
1.1989431
1.1990984
1.1992504
1.1993984
1.1995418
1.1996803
1.1998131
1.1999399
1.2000601
1.2001734
1.2002798
1.2003785
1.2004691
1.2005523
1.2006283
1.2006971
1.2007588
1.2008137
1.2008651
1.2009065
1.200938
1.2009584
1.2009476
1.2008966
1.2008581
1.2008646
1.2008963
1.200934
1.2009723
1.2010097
1.2010461
1.2010813
1.2011154
1.2011484
1.2011803
1.2012112
1.201241
1.2012698
1.2012976
1.2013243
1.2013501
1.2013749
1.2013988
1.2014216
1.2014436
1.2014646
1.2014847
1.2015038
1.2015221
1.2015395
1.2015561
1.2015718
1.2015866
1.2016006
1.2016137
1.2016259
1.2016372
1.2016477
1.2016572
1.2016658
1.2016735
1.2016801
1.2016858
1.2016903
1.2016937
1.2016961
1.2016969
1.1931604
1.1932963
1.1934321
1.1935683
1.1937049
1.193842
1.1939798
1.1941185
1.1942581
1.1943987
1.1945404
1.1946834
1.1948276
1.1949731
1.1951201
1.1952684
1.1954181
1.1955693
1.195722
1.1958761
1.1960315
1.1961884
1.1963465
1.1965059
1.1966665
1.1968282
1.1969908
1.1971542
1.1973184
1.197483
1.1976479
1.1978129
1.1979778
1.1981422
1.1983058
1.1984684
1.1986295
1.1987887
1.1989456
1.1990997
1.1992505
1.1993974
1.1995401
1.1996778
1.1998101
1.1999364
1.2000564
1.2001694
1.2002757
1.2003746
1.2004653
1.2005486
1.2006247
1.2006937
1.2007558
1.2008112
1.2008631
1.2009046
1.2009371
1.2009604
1.200957
1.2009112
1.2008668
1.2008665
1.2008955
1.2009324
1.2009703
1.2010075
1.2010437
1.2010787
1.2011126
1.2011455
1.2011773
1.201208
1.2012377
1.2012664
1.2012941
1.2013208
1.2013465
1.2013712
1.201395
1.2014179
1.2014398
1.2014607
1.2014808
1.2014999
1.2015182
1.2015356
1.2015521
1.2015678
1.2015827
1.2015966
1.2016097
1.2016219
1.2016333
1.2016437
1.2016533
1.2016619
1.2016696
1.2016762
1.2016819
1.2016864
1.2016898
1.2016922
1.201693
1.1932669
1.1933995
1.1935322
1.1936651
1.1937985
1.1939325
1.1940671
1.1942026
1.194339
1.1944765
1.1946151
1.194755
1.1948961
1.1950386
1.1951824
1.1953277
1.1954745
1.1956227
1.1957724
1.1959235
1.1960761
1.1962301
1.1963854
1.1965421
1.1966999
1.1968589
1.1970189
1.1971798
1.1973414
1.1975036
1.1976662
1.197829
1.1979917
1.198154
1.1983157
1.1984764
1.1986358
1.1987934
1.1989488
1.1991016
1.1992512
1.1993971
1.1995388
1.1996758
1.1998075
1.1999334
1.200053
1.2001659
1.2002719
1.2003708
1.2004619
1.2005451
1.2006214
1.2006905
1.2007528
1.2008084
1.2008583
1.2009026
1.2009374
1.2009618
1.2009649
1.2009257
1.2008769
1.2008694
1.2008951
1.200931
1.2009686
1.2010055
1.2010414
1.2010762
1.20111
1.2011427
1.2011743
1.2012049
1.2012345
1.2012631
1.2012907
1.2013173
1.2013429
1.2013676
1.2013913
1.2014141
1.201436
1.2014569
1.2014769
1.201496
1.2015143
1.2015317
1.2015482
1.2015639
1.2015787
1.2015927
1.2016058
1.201618
1.2016293
1.2016398
1.2016493
1.2016579
1.2016656
1.2016723
1.2016779
1.2016825
1.2016859
1.2016882
1.201689
1.1933731
1.1935027
1.1936322
1.193762
1.1938923
1.1940231
1.1941547
1.1942871
1.1944204
1.1945548
1.1946904
1.1948272
1.1949652
1.1951047
1.1952455
1.1953878
1.1955316
1.1956768
1.1958236
1.1959718
1.1961215
1.1962727
1.1964252
1.1965791
1.1967343
1.1968906
1.1970479
1.1972063
1.1973654
1.1975252
1.1976854
1.1978459
1.1980065
1.1981667
1.1983264
1.1984853
1.1986429
1.1987989
1.1989528
1.1991042
1.1992525
1.1993974
1.1995382
1.1996744
1.1998054
1.1999308
1.2000501
1.2001627
1.2002685
1.2003673
1.2004586
1.2005419
1.2006182
1.2006875
1.2007499
1.2008057
1.2008551
1.2009012
1.2009368
1.2009624
1.2009714
1.2009398
1.2008885
1.2008734
1.2008952
1.2009299
1.200967
1.2010036
1.2010393
1.2010739
1.2011075
1.20114
1.2011715
1.201202
1.2012314
1.2012599
1.2012874
1.2013139
1.2013394
1.201364
1.2013877
1.2014104
1.2014322
1.2014531
1.2014731
1.2014922
1.2015104
1.2015278
1.2015443
1.2015599
1.2015748
1.2015887
1.2016018
1.201614
1.2016253
1.2016358
1.2016454
1.201654
1.2016617
1.2016683
1.201674
1.2016785
1.2016819
1.2016843
1.2016851
1.1934788
1.1936054
1.1937319
1.1938587
1.193986
1.1941138
1.1942424
1.1943718
1.1945021
1.1946335
1.194766
1.1948998
1.1950349
1.1951714
1.1953093
1.1954486
1.1955894
1.1957318
1.1958756
1.196021
1.1961678
1.1963162
1.1964659
1.196617
1.1967695
1.1969231
1.1970779
1.1972337
1.1973903
1.1975477
1.1977056
1.1978638
1.1980221
1.1981803
1.198338
1.1984949
1.1986507
1.198805
1.1989574
1.1991074
1.1992545
1.1993983
1.1995381
1.1996735
1.1998038
1.1999287
1.2000475
1.2001599
1.2002654
1.2003641
1.2004556
1.200539
1.2006153
1.2006847
1.2007472
1.2008033
1.2008531
1.2008999
1.2009358
1.2009627
1.2009765
1.2009531
1.2009012
1.2008786
1.2008958
1.2009291
1.2009656
1.2010019
1.2010374
1.2010718
1.2011051
1.2011374
1.2011688
1.2011991
1.2012284
1.2012567
1.2012841
1.2013105
1.201336
1.2013605
1.201384
1.2014067
1.2014285
1.2014493
1.2014692
1.2014883
1.2015065
1.2015238
1.2015403
1.201556
1.2015708
1.2015847
1.2015978
1.20161
1.2016214
1.2016318
1.2016414
1.20165
1.2016577
1.2016644
1.20167
1.2016746
1.201678
1.2016803
1.2016811
1.1935838
1.1937075
1.1938312
1.1939551
1.1940795
1.1942044
1.19433
1.1944565
1.1945839
1.1947124
1.194842
1.1949728
1.195105
1.1952385
1.1953735
1.1955099
1.1956479
1.1957873
1.1959283
1.1960708
1.1962149
1.1963604
1.1965074
1.1966558
1.1968055
1.1969565
1.1971087
1.1972619
1.1974161
1.197571
1.1977265
1.1978825
1.1980386
1.1981946
1.1983503
1.1985053
1.1986593
1.198812
1.1989628
1.1991113
1.1992572
1.1993997
1.1995385
1.199673
1.1998027
1.199927
1.2000454
1.2001574
1.2002628
1.2003612
1.2004527
1.2005364
1.2006126
1.2006821
1.2007447
1.2008009
1.200851
1.2008969
1.2009342
1.200963
1.2009804
1.2009651
1.200915
1.200885
1.200897
1.2009285
1.2009644
1.2010004
1.2010356
1.2010697
1.2011029
1.201135
1.2011661
1.2011963
1.2012255
1.2012537
1.2012809
1.2013072
1.2013326
1.201357
1.2013805
1.2014031
1.2014248
1.2014455
1.2014654
1.2014845
1.2015026
1.20152
1.2015364
1.2015521
1.2015668
1.2015808
1.2015938
1.201606
1.2016174
1.2016278
1.2016374
1.201646
1.2016537
1.2016604
1.201666
1.2016706
1.201674
1.2016764
1.2016772
1.1936879
1.1938089
1.1939298
1.194051
1.1941726
1.1942947
1.1944175
1.1945411
1.1946657
1.1947914
1.1949181
1.1950461
1.1951754
1.1953061
1.1954382
1.1955718
1.1957069
1.1958435
1.1959817
1.1961214
1.1962626
1.1964054
1.1965497
1.1966954
1.1968424
1.1969908
1.1971404
1.197291
1.1974427
1.1975952
1.1977483
1.197902
1.1980559
1.1982098
1.1983634
1.1985165
1.1986687
1.1988196
1.1989688
1.1991159
1.1992604
1.1994018
1.1995395
1.1996731
1.199802
1.1999257
1.2000436
1.2001553
1.2002604
1.2003587
1.2004501
1.200534
1.2006102
1.2006796
1.2007424
1.2007987
1.2008487
1.2008924
1.2009327
1.2009641
1.2009832
1.2009757
1.2009295
1.2008929
1.2008988
1.2009283
1.2009635
1.2009991
1.201034
1.2010679
1.2011008
1.2011327
1.2011636
1.2011936
1.2012226
1.2012507
1.2012778
1.201304
1.2013292
1.2013535
1.2013769
1.2013995
1.2014211
1.2014418
1.2014617
1.2014807
1.2014988
1.2015161
1.2015325
1.2015481
1.2015629
1.2015768
1.2015898
1.201602
1.2016134
1.2016238
1.2016334
1.201642
1.2016497
1.2016564
1.201662
1.2016666
1.20167
1.2016724
1.2016732
1.1937909
1.1939093
1.1940276
1.1941462
1.1942651
1.1943846
1.1945047
1.1946256
1.1947474
1.1948703
1.1949943
1.1951195
1.1952461
1.195374
1.1955033
1.1956341
1.1957664
1.1959002
1.1960356
1.1961726
1.1963111
1.1964511
1.1965926
1.1967357
1.1968801
1.1970258
1.1971728
1.197321
1.1974701
1.1976202
1.197771
1.1979223
1.198074
1.1982257
1.1983773
1.1985285
1.1986788
1.1988279
1.1989755
1.1991211
1.1992643
1.1994044
1.1995411
1.1996737
1.1998018
1.1999248
1.2000422
1.2001536
1.2002584
1.2003564
1.2004477
1.2005317
1.200608
1.2006774
1.2007402
1.2007965
1.2008467
1.2008904
1.2009321
1.2009639
1.2009851
1.2009847
1.2009443
1.2009025
1.2009016
1.2009285
1.2009628
1.200998
1.2010325
1.2010662
1.2010988
1.2011305
1.2011613
1.2011911
1.2012199
1.2012478
1.2012748
1.2013008
1.201326
1.2013502
1.2013735
1.2013959
1.2014175
1.2014381
1.2014579
1.2014769
1.201495
1.2015122
1.2015286
1.2015442
1.2015589
1.2015728
1.2015858
1.201598
1.2016094
1.2016198
1.2016294
1.201638
1.2016457
1.2016523
1.201658
1.2016626
1.201666
1.2016684
1.2016692
1.1938926
1.1940086
1.1941245
1.1942405
1.1943569
1.1944738
1.1945914
1.1947097
1.1948289
1.1949491
1.1950705
1.195193
1.1953168
1.195442
1.1955686
1.1956967
1.1958262
1.1959574
1.19609
1.1962243
1.1963601
1.1964974
1.1966363
1.1967766
1.1969184
1.1970616
1.197206
1.1973516
1.1974983
1.197646
1.1977944
1.1979434
1.1980928
1.1982425
1.198392
1.1985411
1.1986896
1.198837
1.1989829
1.199127
1.1992687
1.1994076
1.1995432
1.1996748
1.1998021
1.1999244
1.2000413
1.2001522
1.2002567
1.2003545
1.2004455
1.2005296
1.2006061
1.2006754
1.2007382
1.2007946
1.2008449
1.2008893
1.2009316
1.2009632
1.2009861
1.2009922
1.2009588
1.2009134
1.2009054
1.200929
1.2009623
1.200997
1.2010313
1.2010646
1.201097
1.2011285
1.201159
1.2011886
1.2012173
1.201245
1.2012718
1.2012977
1.2013227
1.2013468
1.2013701
1.2013924
1.2014139
1.2014345
1.2014542
1.2014731
1.2014911
1.2015083
1.2015247
1.2015403
1.201555
1.2015688
1.2015819
1.201594
1.2016053
1.2016158
1.2016253
1.201634
1.2016416
1.2016483
1.201654
1.2016585
1.201662
1.2016643
1.2016651
1.1939929
1.1941066
1.1942202
1.1943339
1.194448
1.1945624
1.1946775
1.1947933
1.19491
1.1950277
1.1951465
1.1952664
1.1953876
1.1955102
1.1956341
1.1957595
1.1958864
1.1960149
1.1961449
1.1962765
1.1964096
1.1965443
1.1966805
1.1968183
1.1969575
1.197098
1.1972399
1.197383
1.1975273
1.1976725
1.1978186
1.1979653
1.1981125
1.1982599
1.1984074
1.1985545
1.1987011
1.1988467
1.198991
1.1991335
1.1992738
1.1994114
1.1995458
1.1996765
1.1998028
1.1999244
1.2000407
1.2001511
1.2002553
1.2003529
1.2004436
1.2005276
1.2006043
1.2006736
1.2007364
1.2007928
1.2008432
1.2008878
1.2009283
1.2009622
1.2009878
1.2009982
1.2009726
1.2009256
1.2009103
1.2009301
1.2009621
1.2009963
1.2010302
1.2010632
1.2010954
1.2011266
1.2011569
1.2011862
1.2012147
1.2012423
1.201269
1.2012947
1.2013196
1.2013436
1.2013667
1.2013889
1.2014103
1.2014309
1.2014505
1.2014694
1.2014873
1.2015045
1.2015208
1.2015363
1.201551
1.2015649
1.2015779
1.20159
1.2016013
1.2016118
1.2016213
1.2016299
1.2016376
1.2016443
1.2016499
1.2016545
1.2016579
1.2016603
1.2016611
1.1940916
1.1942032
1.1943147
1.1944262
1.194538
1.1946502
1.1947629
1.1948764
1.1949907
1.1951059
1.1952222
1.1953396
1.1954583
1.1955783
1.1956997
1.1958225
1.1959469
1.1960727
1.1962001
1.1963291
1.1964596
1.1965917
1.1967253
1.1968605
1.1969971
1.1971351
1.1972745
1.1974152
1.1975569
1.1976998
1.1978435
1.1979879
1.1981329
1.1982781
1.1984235
1.1985687
1.1987133
1.1988571
1.1989997
1.1991406
1.1992795
1.1994158
1.199549
1.1996786
1.199804
1.1999248
1.2000405
1.2001504
1.2002542
1.2003516
1.2004421
1.2005259
1.2006027
1.200672
1.2007347
1.2007912
1.2008416
1.2008862
1.2009251
1.2009612
1.200989
1.2010029
1.2009853
1.2009388
1.2009165
1.2009317
1.2009621
1.2009957
1.2010293
1.201062
1.2010939
1.2011248
1.2011549
1.201184
1.2012123
1.2012397
1.2012662
1.2012918
1.2013165
1.2013404
1.2013634
1.2013855
1.2014068
1.2014273
1.2014469
1.2014656
1.2014836
1.2015007
1.201517
1.2015324
1.2015471
1.2015609
1.2015739
1.201586
1.2015973
1.2016077
1.2016173
1.2016259
1.2016335
1.2016402
1.2016458
1.2016504
1.2016539
1.2016562
1.201657
1.1941886
1.1942983
1.1944078
1.1945172
1.1946269
1.194737
1.1948475
1.1949587
1.1950707
1.1951836
1.1952976
1.1954126
1.1955289
1.1956464
1.1957653
1.1958857
1.1960075
1.1961308
1.1962556
1.196382
1.19651
1.1966395
1.1967706
1.1969032
1.1970373
1.1971729
1.1973097
1.1974479
1.1975873
1.1977277
1.1978691
1.1980112
1.1981539
1.198297
1.1984403
1.1985835
1.1987262
1.1988682
1.199009
1.1991484
1.1992857
1.1994207
1.1995526
1.1996812
1.1998057
1.1999257
1.2000406
1.20015
1.2002535
1.2003505
1.2004408
1.2005244
1.2006012
1.2006707
1.2007332
1.2007897
1.2008401
1.2008848
1.200924
1.200961
1.200989
1.2010061
1.2009965
1.2009528
1.2009238
1.2009338
1.2009625
1.2009954
1.2010285
1.201061
1.2010926
1.2011232
1.201153
1.2011819
1.20121
1.2012372
1.2012635
1.2012889
1.2013135
1.2013373
1.2013601
1.2013822
1.2014034
1.2014237
1.2014433
1.2014619
1.2014798
1.2014969
1.2015131
1.2015285
1.2015431
1.2015569
1.2015699
1.201582
1.2015933
1.2016037
1.2016132
1.2016218
1.2016295
1.2016361
1.2016418
1.2016464
1.2016498
1.2016521
1.201653
1.1942838
1.1943917
1.1944994
1.1946069
1.1947147
1.1948227
1.1949312
1.1950403
1.1951501
1.1952608
1.1953725
1.1954852
1.1955992
1.1957143
1.1958309
1.1959488
1.1960681
1.196189
1.1963114
1.1964353
1.1965608
1.1966878
1.1968164
1.1969465
1.1970781
1.1972111
1.1973456
1.1974813
1.1976183
1.1977563
1.1978953
1.1980352
1.1981757
1.1983167
1.1984578
1.198599
1.1987398
1.1988799
1.199019
1.1991567
1.1992926
1.1994261
1.1995568
1.1996842
1.1998078
1.1999269
1.2000412
1.20015
1.200253
1.2003497
1.2004398
1.2005232
1.2005998
1.2006694
1.200732
1.2007883
1.2008387
1.2008836
1.2009233
1.2009608
1.2009888
1.2010084
1.2010062
1.2009673
1.2009325
1.2009366
1.2009631
1.2009953
1.201028
1.2010601
1.2010914
1.2011218
1.2011513
1.2011799
1.2012078
1.2012348
1.2012609
1.2012862
1.2013106
1.2013342
1.2013569
1.2013789
1.2014
1.2014202
1.2014397
1.2014583
1.2014761
1.2014931
1.2015093
1.2015246
1.2015392
1.201553
1.2015659
1.201578
1.2015892
1.2015996
1.2016091
1.2016177
1.2016254
1.201632
1.2016377
1.2016423
1.2016457
1.201648
1.2016489
1.1943771
1.1944834
1.1945893
1.1946952
1.1948011
1.1949072
1.1950138
1.1951209
1.1952287
1.1953373
1.1954468
1.1955574
1.1956691
1.195782
1.1958962
1.1960118
1.1961288
1.1962473
1.1963673
1.1964888
1.1966118
1.1967364
1.1968625
1.1969902
1.1971193
1.1972499
1.197382
1.1975153
1.1976499
1.1977856
1.1979223
1.1980599
1.1981981
1.1983369
1.198476
1.1986151
1.198754
1.1988922
1.1990296
1.1991657
1.1993
1.1994321
1.1995615
1.1996878
1.1998103
1.1999286
1.2000421
1.2001503
1.2002528
1.2003492
1.200439
1.2005222
1.2005987
1.2006683
1.2007309
1.2007871
1.2008375
1.2008824
1.2009221
1.2009579
1.2009881
1.2010108
1.2010143
1.2009818
1.2009427
1.2009402
1.2009642
1.2009954
1.2010276
1.2010594
1.2010904
1.2011205
1.2011497
1.2011781
1.2012057
1.2012325
1.2012584
1.2012835
1.2013078
1.2013312
1.2013538
1.2013756
1.2013966
1.2014168
1.2014361
1.2014547
1.2014724