/*--------------------------------*- C++ -*----------------------------------*\
| =========                 |                                                 |
| \\      /  F ield         | OpenFOAM: The Open Source CFD Toolbox           |
|  \\    /   O peration     | Version:  2406                                  |
|   \\  /    A nd           | Website:  www.openfoam.com                      |
|    \\/     M anipulation  |                                                 |
\*---------------------------------------------------------------------------*/
FoamFile
{
    version     2.0;
    format      ascii;
    arch        "LSB;label=32;scalar=64";
    class       volVectorField;
    location    "0.016";
    object      U;
}
// * * * * * * * * * * * * * * * * * * * * * * * * * * * * * * * * * * * * * //

dimensions      [0 1 -1 0 0 0 0];

internalField   nonuniform List<vector> 
23204
(
(51.885637 0.25612143 8.9520953e-23)
(51.88007 0.20076282 -8.7034315e-23)
(51.876304 0.14467657 -1.7478061e-19)
(51.873703 0.087590561 0)
(51.873272 0.029069135 1.6784983e-19)
(52.087902 0.90586818 8.8769007e-27)
(52.064632 0.859391 2.2706433e-19)
(52.042825 0.81236132 2.2312194e-19)
(52.022458 0.76476972 -4.2737949e-22)
(52.003525 0.71658749 4.2007707e-22)
(51.985984 0.66785604 -2.104444e-19)
(51.969778 0.61853088 0)
(51.954872 0.56867194 -3.9527856e-22)
(51.94126 0.51814058 1.9885054e-19)
(51.92898 0.46705453 -1.9442582e-19)
(51.917989 0.4151568 1.9084178e-19)
(51.908354 0.36267662 -1.8732044e-19)
(51.900005 0.30922864 0)
(51.893144 0.25519133 7.5886438e-25)
(51.887554 0.20004639 0)
(51.883766 0.14415524 -1.7300985e-19)
(51.881156 0.087288021 2.0708769e-23)
(51.880708 0.028954212 1.6612821e-19)
(52.863036 1.680922 1.2963356e-21)
(52.804293 1.6448504 8.1395923e-20)
(52.747973 1.6081898 -1.6094612e-19)
(52.69402 1.5709588 2.4477109e-21)
(52.642339 1.5331635 -1.5486344e-19)
(52.592832 1.4948017 -1.5072818e-19)
(52.545449 1.4558951 -1.4782103e-19)
(52.500164 1.416464 1.4491488e-19)
(52.456864 1.3764842 -1.4206653e-19)
(52.415418 1.3359229 -6.8786363e-25)
(52.375803 1.2947931 1.3666299e-19)
(52.338027 1.2531211 1.3405351e-19)
(52.302043 1.2109173 -1.0272825e-21)
(52.26779 1.1681754 2.0152164e-21)
(52.235226 1.1249244 -1.9766116e-21)
(52.20431 1.0811806 9.6934513e-22)
(52.174984 1.0369785 -1.2169637e-19)
(52.147196 0.99230842 0)
(52.120919 0.94717507 1.1706466e-19)
(52.096118 0.90155117 0)
(52.072786 0.85540907 -2.2519954e-19)
(52.050922 0.80869527 -2.2128821e-19)
(52.030499 0.76140218 4.2303119e-22)
(52.011509 0.71350429 2.1199624e-19)
(51.99391 0.66504549 2.0911893e-19)
(51.977645 0.61598312 -3.9897681e-22)
(51.962683 0.56637614 0)
(51.949018 0.51608759 -1.9644486e-19)
(51.936692 0.46523483 1.9282658e-19)
(51.925659 0.41356533 -1.8447312e-22)
(51.915987 0.36130469 0)
(51.907604 0.30807561 0)
(51.900713 0.25424575 1.7810988e-19)
(51.895099 0.19931772 0)
(51.891291 0.14362525 1.7125127e-19)
(51.888671 0.086979891 0)
(51.888207 0.028837833 -6.9243587e-25)
(55.556987 1.3810243 -1.7146232e-20)
(55.619774 1.4865251 -3.6732533e-20)
(55.675875 1.5893182 9.5210217e-26)
(55.725107 1.6892826 1.5936969e-20)
(55.767257 1.7862711 1.041936e-21)
(55.802073 1.8801043 -1.7424235e-20)
(55.829259 1.9705657 1.7195382e-20)
(55.848462 2.0573926 -3.3062341e-20)
(55.859267 2.1402666 9.9633455e-22)
(55.861125 2.2188367 -3.1846848e-20)
(55.853416 2.2924517 3.6941541e-26)
(55.8355 2.3607826 0)
(55.806483 2.4230353 1.641313e-20)
(55.765239 2.4783038 -4.1204866e-26)
(55.710455 2.52553 0)
(55.640531 2.5633926 0)
(55.553462 2.5902215 1.8966036e-20)
(55.446362 2.6045651 2.0809039e-20)
(55.316001 2.6011782 -6.7997997e-22)
(55.158628 2.5815464 -7.4487758e-22)
(54.967828 2.5386389 5.4003824e-20)
(54.734127 2.4677925 0)
(54.444237 2.3620389 1.0977669e-21)
(54.09121 2.2106441 8.0660478e-20)
(53.731675 2.0399552 3.6346842e-25)
(53.49009 1.9376556 9.5728304e-20)
(53.366005 1.8943621 -1.8718252e-19)
(53.280035 1.8619141 -9.2032561e-20)
(53.204143 1.8307724 -9.1744957e-20)
(53.132287 1.7991589 -8.7250342e-20)
(53.063342 1.766806 8.5602253e-20)
(52.997057 1.7336989 -8.5316634e-20)
(52.933346 1.6998671 0)
(52.872143 1.6653453 0)
(52.813394 1.630166 8.1821471e-20)
(52.757058 1.5943539 1.5683148e-19)
(52.703083 1.5579302 1.550526e-19)
(52.651376 1.5209029 1.5209352e-19)
(52.601839 1.4832705 1.5035539e-19)
(52.554421 1.445053 1.4631868e-19)
(52.509095 1.4062757 -1.445687e-19)
(52.465759 1.3669202 2.8125586e-19)
(52.424278 1.3269542 -6.7721405e-25)
(52.384618 1.286388 -1.3421729e-19)
(52.346792 1.2452514 -1.3476263e-19)
(52.310755 1.2035589 1.3116913e-19)
(52.276445 1.1613063 0)
(52.243819 1.118522 -1.2521523e-19)
(52.212835 1.0752242 0)
(52.183438 1.0314479 1.2045755e-19)
(52.15558 0.98718315 1.1814296e-19)
(52.129235 0.94243323 0)
(52.104369 0.89716883 0)
(52.080979 0.85136558 2.2290263e-19)
(52.059061 0.80497148 2.1860378e-19)
(52.038587 0.7579809 -2.148031e-19)
(52.019543 0.71037149 -6.37437e-27)
(52.001887 0.66218954 -2.0577848e-19)
(51.985564 0.61339411 -3.9491155e-22)
(51.970548 0.56404305 7.7453307e-22)
(51.956833 0.5140012 1.9425114e-19)
(51.944461 0.46338531 1.9255789e-27)
(51.933387 0.41194759 -1.8715566e-19)
(51.923679 0.35991015 1.7904782e-22)
(51.915263 0.30690343 1.7960822e-19)
(51.908344 0.25328544 0)
(51.902708 0.1985774 -8.4406829e-23)
(51.898879 0.14308704 8.2764709e-23)
(51.896251 0.08666649 0)
(51.895769 0.02872004 -1.6277914e-19)
(49.631757 -3.5461439 0)
(49.926216 -3.379463 0)
(50.208402 -3.2139167 0)
(50.479563 -3.0495217 -1.5929541e-20)
(50.740715 -2.886304 1.9005433e-20)
(50.992699 -2.7242855 -3.6289936e-21)
(51.236206 -2.5634881 -3.4667855e-21)
(51.471802 -2.403936 2.9811729e-20)
(51.699955 -2.2456569 -1.5831324e-20)
(51.921045 -2.0886821 -9.0838239e-21)
(52.135384 -1.9330468 8.6881658e-21)
(52.343225 -1.7787902 -2.2171883e-20)
(52.544771 -1.6259547 5.3058484e-21)
(52.740187 -1.4745855 1.7782606e-20)
(52.929602 -1.3247303 -9.7332279e-21)
(53.113117 -1.1764381 6.9946876e-21)
(53.290811 -1.0297588 -8.9402375e-21)
(53.462741 -0.8847428 4.286256e-21)
(53.628948 -0.74143987 -2.055594e-21)
(53.789458 -0.59989904 1.3808781e-20)
(53.944286 -0.46016807 -1.3255601e-20)
(54.093435 -0.32229312 -2.909793e-20)
(54.236897 -0.18631869 1.3978377e-20)
(54.374656 -0.052287515 -1.3436953e-20)
(54.506688 0.079759251 3.490598e-25)
(54.632962 0.20978176 0)
(54.753438 0.33774141 0)
(54.86807 0.46360027 1.442784e-21)
(54.976804 0.58731975 -1.3913079e-21)
(55.079579 0.70885952 -1.3432892e-21)
(55.176324 0.82817632 1.1681545e-20)
(55.266961 0.94522225 8.78991e-21)
(55.351401 1.0599431 1.2162896e-21)
(55.42955 1.1722677 -9.3123115e-26)
(55.501314 1.2821272 3.6694817e-20)
(55.566532 1.3894352 1.786233e-20)
(55.625042 1.4940971 -1.6336435e-20)
(55.67667 1.5959955 -1.0648525e-21)
(55.721215 1.6949862 0)
(55.758438 1.7908952 1.6422005e-20)
(55.788057 1.8835128 0)
(55.809738 1.9725858 3.2066198e-20)
(55.823082 2.0578001 -5.0036528e-26)
(55.827596 2.1388263 1.5901559e-20)
(55.822649 2.2150616 -1.5949305e-20)
(55.80763 2.2860791 0)
(55.781733 2.3512523 -1.6338499e-20)
(55.743877 2.4096383 1.7742354e-20)
(55.692806 2.4602387 -1.9349767e-20)
(55.626996 2.5017868 1.6754653e-21)
(55.544529 2.5326508 3.2359408e-26)
(55.443004 2.5511693 -6.2213451e-22)
(55.318529 2.5523116 0)
(55.167763 2.5394546 4.6759409e-20)
(54.985419 2.5034167 -8.1192552e-22)
(54.761714 2.4404068 9.2025335e-22)
(54.483966 2.3439344 -6.7026445e-20)
(54.141501 2.2029308 -1.2404576e-21)
(53.776088 2.0322505 2.9071632e-25)
(53.51245 1.9182046 9.2965684e-20)
(53.377385 1.8717103 3.8446314e-25)
(53.28915 1.8398437 -9.1079226e-20)
(53.212934 1.8097973 0)
(53.141091 1.7793145 -1.3707403e-21)
(53.072204 1.7480598 -8.4723964e-20)
(53.005971 1.7159996 8.4440268e-20)
(52.942295 1.6831634 0)
(52.881113 1.6495858 -1.2699424e-21)
(52.822373 1.6153066 -4.3424393e-25)
(52.766037 1.58035 1.2221877e-21)
(52.712054 1.54474 -7.4362228e-25)
(52.660335 1.5084869 0)
(52.610781 1.4715902 -1.4881297e-19)
(52.563338 1.4340681 1.4595428e-19)
(52.517982 1.3959502 1.4199061e-19)
(52.47462 1.3572247 -1.3811081e-19)
(52.433112 1.31786 -1.3650554e-19)
(52.393418 1.2778643 -1.0460232e-21)
(52.355549 1.2372698 1.3133509e-19)
(52.319465 1.1960955 -1.2781717e-19)
(52.285104 1.1543393 -1.9743306e-21)
(52.252421 1.1120285 5.679999e-25)
(52.221375 1.0691831 9.4966858e-22)
(52.191912 1.0258384 -1.1969114e-19)
(52.163988 0.98198398 4.5622233e-22)
(52.13758 0.93762189 0)
(52.112655 0.8927238 0)
(52.089212 0.84726295 -4.4081238e-19)
(52.067245 0.80119222 -2.1678943e-19)
(52.046722 0.75450802 2.1177584e-19)
(52.027626 0.70719112 -2.0768419e-19)
(52.009915 0.65929009 -3.9857525e-22)
(51.993537 0.61076561 -1.9934023e-19)
(51.978469 0.56167432 1.9624891e-19)
(51.964705 0.51188295 -1.9282397e-19)
(51.952288 0.46150735 -1.8871804e-19)
(51.941175 0.41030485 1.8487737e-19)
(51.931432 0.35849408 1.7721172e-22)
(51.922984 0.30571295 -3.5588369e-19)
(51.916037 0.25230983 0)
(51.910378 0.19782503 -8.3541741e-23)
(51.906529 0.14254034 4.0958051e-23)
(51.903893 0.086347752 4.0161585e-23)
(51.903394 0.02860072 -1.6110932e-19)
(49.459961 -3.667268 -1.8280241e-20)
(49.75881 -3.5007562 0)
(50.04532 -3.3353316 0)
(50.320731 -3.1710164 1.5876863e-20)
(50.58606 -3.0078408 -1.5159702e-20)
(50.842145 -2.8458286 0)
(51.089678 -2.6850023 1.7296911e-20)
(51.32923 -2.5253858 -1.6532296e-20)
(51.56127 -2.3670053 1.264788e-20)
(51.786182 -2.20989 1.2097617e-20)
(52.004281 -2.0540725 2.8943348e-21)
(52.215823 -1.8995889 1.1081436e-20)
(52.421014 -1.7464781 3.5018112e-25)
(52.620019 -1.5947822 -1.2704556e-20)
(52.812971 -1.4445454 0)
(52.99997 -1.2958137 0)
(53.181095 -1.1486343 -2.2378108e-21)
(53.356404 -1.0030551 2.1461061e-21)
(53.525938 -0.85912373 0)
(53.689722 -0.71688774 -1.3835704e-20)
(53.847769 -0.57639364 -1.8977898e-21)
(54.000082 -0.43768686 1.4584734e-20)
(54.146651 -0.30081154 0)
(54.287462 -0.16581045 -1.3476175e-20)
(54.422488 -0.03272517 -2.5926337e-20)
(54.551698 0.098403725 1.4036807e-20)
(54.675052 0.22753628 -1.351851e-20)
(54.792504 0.35463312 1.447735e-21)
(54.904002 0.47965462 -1.3961732e-21)
(55.009484 0.60255935 0)
(55.108885 0.72330287 0)
(55.202127 0.84183606 -2.0161253e-20)
(55.289127 0.95810274 0)
(55.369798 1.0720349 -1.0537308e-25)
(55.444032 1.1835602 -3.796053e-20)
(55.511698 1.2926055 -1.6794993e-20)
(55.572632 1.3990705 0)
(55.626672 1.5028384 0)
(55.673627 1.6037681 0)
(55.713269 1.7016905 1.6445619e-20)
(55.745333 1.7964024 0)
(55.7695 1.8876584 -1.6037326e-20)
(55.785391 1.975154 -6.3057693e-26)
(55.792557 2.0585452 0)
(55.790378 2.1373817 0)
(55.778255 2.2110058 -1.0025864e-21)
(55.755457 2.279021 1.016663e-21)
(55.720964 2.3404542 1.6604382e-20)
(55.67357 2.3943489 3.4154253e-20)
(55.611826 2.439498 0)
(55.533917 2.4743747 0)
(55.437688 2.4972546 -1.2281799e-21)
(55.319049 2.5066383 1.2768664e-21)
(55.174979 2.4962035 -4.5888551e-20)
(55.000737 2.4668505 0)
(54.786766 2.4114272 -8.9613187e-22)
(54.520977 2.3239451 6.7058837e-20)
(54.19025 2.1936192 0)
(53.822735 2.0256828 1.7288108e-19)
(53.537622 1.9001559 1.4310711e-21)
(53.389266 1.849041 9.15469e-20)
(53.298146 1.8175898 9.0132736e-20)
(53.221497 1.7886078 8.8484574e-20)
(53.14967 1.759258 8.5466076e-20)
(53.080862 1.7291092 2.6619636e-21)
(53.0147 1.6981039 -1.6844782e-19)
(52.951081 1.6662715 -1.2811061e-21)
(52.889941 1.6336512 -5.4567039e-26)
(52.831227 1.600279 -7.7680555e-20)
(52.774907 1.5661846 0)
(52.720931 1.5313944 -1.1873244e-21)
(52.669213 1.4959213 1.1639042e-21)
(52.619655 1.4597663 2.9227876e-19)
(52.572199 1.4229457 -6.9230229e-25)
(52.526824 1.3854929 0)
(52.483444 1.3474027 0)
(52.441919 1.3086454 0)
(52.402199 1.2692266 0)
(52.364295 1.2291808 0)
(52.328171 1.1885314 0)
(52.293765 1.1472785 1.25061e-19)
(52.261032 1.1054479 1.2362322e-19)
(52.229928 1.0630611 -1.8798701e-21)
(52.200405 1.0201535 9.2243731e-22)
(52.172421 0.97671398 -1.1573466e-19)
(52.145954 0.93274373 0)
(52.120975 0.88821437 4.3485885e-22)
(52.097484 0.84309955 1.0186829e-24)
(52.075471 0.79735591 -2.1414224e-19)
(52.054901 0.75098207 6.8152656e-27)
(52.035756 0.70396182 2.0555016e-19)
(52.017993 0.65634589 3.944775e-22)
(52.001562 0.60809648 1.9806513e-19)
(51.986443 0.55926887 -1.9461099e-19)
(51.972632 0.50973186 1.9046969e-19)
(51.960172 0.4596001 3.7373724e-19)
(51.949022 0.40863633 -3.5772297e-22)
(51.939244 0.35705578 1.7538887e-22)
(51.930765 0.30450365 1.7611175e-19)
(51.923791 0.25131875 0)
(51.918111 0.19706044 1.693325e-19)
(51.914242 0.14198502 0)
(51.911597 0.086023682 0)
(51.911082 0.028479778 1.5945167e-19)
(49.286456 -3.7837661 3.6378089e-20)
(49.589676 -3.617658 1.7356701e-20)
(49.880503 -3.4525749 2.0709034e-20)
(50.160165 -3.2885491 -3.9544254e-21)
(50.429675 -3.1256144 1.1332962e-20)
(50.689867 -2.9637968 -1.0829609e-20)
(50.941434 -2.8031201 -1.7251589e-20)
(51.184949 -2.6436084 -3.9587286e-25)
(51.420883 -2.4852873 -2.2093045e-20)
(51.649623 -2.3281848 1.2080935e-20)
(51.871487 -2.1723314 1.1564308e-20)
(52.086734 -2.0177606 -8.3050442e-21)
(52.295571 -1.864509 -2.6515039e-21)
(52.498167 -1.7126156 2.5409752e-21)
(52.694654 -1.5621221 -2.4352065e-21)
(52.885135 -1.4130717 -9.3404787e-21)
(53.06969 -1.2655092 0)
(53.248376 -1.1194802 2.1489012e-21)
(53.421234 -0.97503078 -1.8560839e-20)
(53.588289 -0.83220692 -1.5840291e-20)
(53.749553 -0.69105412 0)
(53.905028 -0.55161721 1.4617628e-20)
(54.054706 -0.41394005 -1.7564336e-21)
(54.198568 -0.27806558 1.5200298e-20)
(54.33659 -0.1440358 1.6247175e-21)
(54.46874 -0.011892035 -1.4078362e-20)
(54.594978 0.11832475 2.4108286e-20)
(54.715258 0.24657357 0)
(54.829527 0.37281319 0)
(54.937728 0.49700099 9.4673114e-21)
(55.039794 0.61909121 1.306852e-21)
(55.135654 0.73903347 1.0114415e-20)
(55.225227 0.85677043 -9.7965101e-21)
(55.308425 0.97223524 -1.1765076e-25)
(55.385156 1.0853626 1.9614401e-20)
(55.455279 1.1960743 -1.1228941e-21)
(55.518653 1.3042749 0)
(55.575119 1.4098465 -1.7115939e-20)
(55.624497 1.5126508 0)
(55.666572 1.6125233 -1.6468157e-20)
(55.701091 1.7092667 1.6225564e-20)
(55.727753 1.802643 1.7043933e-20)
(55.7462 1.892359 1.3929788e-20)
(55.756008 1.978069 1.9833286e-21)
(55.756604 2.0593925 -9.9273145e-22)
(55.747375 2.1356032 0)
(55.727656 2.2063701 1.7209617e-20)
(55.6965 2.2707832 -3.405694e-20)
(55.652746 2.3278926 -1.6957855e-20)
(55.595016 2.3765544 0)
(55.52158 2.4153305 0)
(55.430315 2.4424593 1.2125925e-21)
(55.317732 2.4564328 5.9406455e-26)
(55.180416 2.4512986 -4.6462577e-20)
(55.01377 2.4288532 -4.9709786e-20)
(54.809308 2.3808882 -5.5881939e-20)
(54.555244 2.3021367 1.001036e-21)
(54.237065 2.1825075 7.3283023e-20)
(53.871024 2.0197847 -8.4888964e-20)
(53.565949 1.8838117 -3.6372604e-25)
(53.401875 1.8264512 8.909453e-20)
(53.307063 1.7951772 1.3935578e-21)
(53.229831 1.7672141 -8.7571708e-20)
(53.158019 1.7389984 -8.7270728e-20)
(53.089309 1.7099625 -8.4304202e-20)
(53.02324 1.6800199 1.2926485e-21)
(52.959698 1.6491988 0)
(52.898616 1.6175408 -8.0849028e-20)
(52.839947 1.5850826 7.8097022e-20)
(52.78366 1.5518569 1.1970831e-21)
(52.729705 1.5178924 -7.0451684e-25)
(52.678003 1.483205 1.4744226e-19)
(52.628453 1.4477975 -6.86942e-25)
(52.580999 1.4116847 -1.4185891e-19)
(52.535616 1.3749026 -1.0867275e-21)
(52.492227 1.3374532 1.065336e-21)
(52.450695 1.2993092 1.0447046e-21)
(52.410959 1.260474 -1.0246557e-21)
(52.373027 1.2209838 1.2865055e-19)
(52.33687 1.1808659 0)
(52.302426 1.1401229 -2.4754758e-19)
(52.269648 1.0987792 0)
(52.238493 1.0568572 -9.3026466e-22)
(52.208915 1.0143917 2.353971e-19)
(52.180876 0.97137175 -8.9484627e-22)
(52.154356 0.92779728 -4.3882514e-22)
(52.129328 0.88363991 4.3036621e-22)
(52.105792 0.83887465 2.1610311e-19)
(52.083738 0.79346181 9.780196e-25)
(52.063126 0.74740236 0)
(52.043934 0.70068296 0)
(52.026121 0.65335638 0)
(52.009638 0.60538616 1.9602003e-19)
(51.994471 0.55682622 3.7544425e-22)
(51.980614 0.50754747 -3.6816771e-22)
(51.968114 0.45766315 -1.8484954e-19)
(51.956926 0.40694167 0)
(51.947116 0.35559492 0)
(51.938607 0.30327525 1.7429252e-19)
(51.931607 0.25031205 1.7090605e-19)
(51.925906 0.19628349 -1.6758451e-19)
(51.922018 0.14142097 0)
(51.919365 0.085694309 0)
(51.918833 0.028357143 -1.5780359e-19)
(49.111461 -3.8954913 -1.8088167e-20)
(49.419018 -3.7300298 -1.7267286e-20)
(49.714141 -3.565516 1.6183553e-24)
(49.998042 -3.4019953 0)
(50.271723 -3.2395056 -1.5052099e-20)
(50.536016 -3.078076 3.2376656e-20)
(50.791614 -2.9177322 -1.720084e-20)
(51.03909 -2.7584996 -9.8728293e-21)
(51.278915 -2.6004038 9.4470935e-21)
(51.511481 -2.4434719 9.0144045e-25)
(51.737106 -2.2877333 -8.659554e-21)
(51.956053 -2.1332198 8.2953793e-21)
(52.168532 -1.9799657 1.0598935e-20)
(52.374712 -1.8280081 0)
(52.574728 -1.6773861 2.435307e-21)
(52.768684 -1.5281409 4.6709487e-21)
(52.956661 -1.3803151 8.963265e-21)
(53.138716 -1.2339527 -2.8758467e-25)
(53.31489 -1.0890981 2.0637273e-21)
(53.485209 -0.94579598 1.5862143e-20)
(53.649685 -0.80409113 -1.9050189e-21)
(53.808317 -0.66402784 -2.9291629e-20)
(53.961099 -0.52564987 1.7600001e-21)
(54.108011 -0.38900034 1.6931081e-21)
(54.249028 -0.25412182 2.2808617e-20)
(54.384119 -0.12105638 1.5684905e-21)
(54.513242 0.010153994 -1.208898e-20)
(54.636354 0.13946702 -1.1653931e-20)
(54.753402 0.26683962 0)
(54.864329 0.39222753 -1.0853969e-20)
(54.969071 0.51558374 0)
(55.067559 0.63685675 -8.8783531e-21)
(55.159717 0.75598921 8.5987715e-21)
(55.245459 0.87291546 8.3390189e-21)
(55.324689 0.98757065 1.1570346e-21)
(55.397286 1.0998803 3.7151495e-20)
(55.463113 1.209747 -1.8655938e-20)
(55.522019 1.3170547 1.7152034e-20)
(55.573833 1.421668 0)
(55.618351 1.5234263 1.0306682e-21)
(55.655334 1.6221376 -1.6238291e-20)
(55.6845 1.7175711 -1.6044457e-20)
(55.705507 1.8094447 -9.9447211e-22)
(55.717955 1.8974177 9.9049325e-22)
(55.721323 1.9811389 -9.9065843e-22)
(55.71499 2.0598974 0)
(55.698331 2.1333309 -1.6128266e-20)
(55.670484 2.2006557 -7.4802752e-26)
(55.630333 2.2609007 -1.6841767e-20)
(55.576566 2.3129863 0)
(55.507535 2.3555448 0)
(55.421182 2.3868283 1.9160044e-20)
(55.314648 2.4051004 1.2780443e-21)
(55.183789 2.4045186 4.2930033e-20)
(55.024344 2.3895099 -1.1328663e-25)
(54.82932 2.3488475 1.072663e-19)
(54.586718 2.2785593 -6.3172129e-20)
(54.281573 2.1694444 -7.095985e-20)
(53.920251 2.0140253 0)
(53.597645 1.869387 -1.7598769e-19)
(53.415499 1.8040777 -8.9453241e-20)
(53.315951 1.7726252 -1.3788766e-21)
(53.237935 1.7456182 0)
(53.166129 1.7185367 0)
(53.097535 1.6906198 8.3432906e-20)
(53.031581 1.6617473 8.1852662e-20)
(52.968136 1.6319452 0)
(52.907135 1.6012561 8.0011342e-20)
(52.848529 1.5697185 -7.9702638e-20)
(52.79229 1.5373677 2.3693761e-21)
(52.738374 1.5042349 -1.5107762e-19)
(52.6867 1.4703386 -1.4477367e-19)
(52.637174 1.4356844 -6.7024321e-25)
(52.589732 1.4002854 0)
(52.544353 1.3641799 1.3766548e-19)
(52.500967 1.3273768 -1.0544126e-21)
(52.459436 1.289852 1.0339016e-21)
(52.419693 1.2516072 0)
(52.381743 1.2126792 -6.0931753e-25)
(52.34556 1.1730995 9.7568815e-22)
(52.311084 1.132873 -1.9133964e-21)
(52.278267 1.0920226 9.3863365e-22)
(52.247066 1.0505712 -1.1784118e-19)
(52.217439 1.008553 -1.1467574e-19)
(52.189351 0.9659569 -1.7711987e-21)
(52.162784 0.92278199 4.3426644e-22)
(52.137713 0.87899996 4.2591199e-22)
(52.114138 0.83458776 0)
(52.092045 0.78950946 2.0973986e-19)
(52.071394 0.74376847 4.0174114e-22)
(52.052159 0.69735418 -3.9397319e-22)
(52.034298 0.65032121 1.9820238e-19)
(52.017766 0.60263434 -1.9474816e-19)
(52.002552 0.55434606 3.7154999e-22)
(51.988652 0.5053295 -1.8691386e-19)
(51.976112 0.45569626 3.572905e-22)
(51.96489 0.40522065 0)
(51.955047 0.35411129 0)
(51.94651 0.30202759 -3.4497326e-19)
(51.939484 0.24928965 -8.3328071e-23)
(51.933764 0.19549412 1.6196004e-22)
(51.929856 0.14084817 -7.9404413e-23)
(51.927196 0.085359636 -1.5949544e-19)
(51.926647 0.028232778 1.5620611e-19)
(48.609523 -4.1676899 -1.8829578e-20)
(48.935234 -4.002325 0)
(49.247071 -3.8377553 0)
(49.54645 -3.6740426 1.6373787e-24)
(49.834558 -3.511246 0)
(50.112386 -3.3494084 1.498946e-20)
(50.380761 -3.1885633 1.2837167e-24)
(50.640373 -3.0287394 1.3712732e-20)
(50.891794 -2.8699636 1.3123089e-20)
(51.135498 -2.7122622 -3.1410647e-21)
(51.371877 -2.5556624 -9.0232243e-21)
(51.601252 -2.4001927 0)
(51.823887 -2.2458839 0)
(52.039994 -2.092769 -2.1173358e-20)
(52.249746 -1.940883 0)
(52.453278 -1.7902636 -2.4342574e-21)
(52.650696 -1.6409501 -2.9832563e-25)
(52.842082 -1.4929834 4.4831592e-21)
(53.027494 -1.346406 2.8150189e-25)
(53.206973 -1.2012611 1.2397853e-20)
(53.380544 -1.0575925 1.9849048e-21)
(53.548221 -0.91544409 0)
(53.710002 -0.77485999 2.7505941e-20)
(53.86588 -0.63588392 1.7633363e-21)
(54.015836 -0.49855935 0)
(54.159845 -0.36292941 4.2821224e-25)
(54.297873 -0.22903707 -1.415304e-20)
(54.429882 -0.096925312 -2.1125381e-25)
(54.555826 0.033362317 1.1685968e-20)
(54.675656 0.1617812 -9.8656567e-21)
(54.789314 0.28828521 0)
(54.896739 0.41282591 0)
(54.997863 0.53535096 1.1449237e-20)
(55.092614 0.655803 -1.1088253e-20)
(55.18091 0.77411841 -1.194813e-21)
(55.262655 0.89023169 1.1601973e-21)
(55.337738 1.0040679 -1.9187255e-20)
(55.406028 1.1155307 1.869875e-20)
(55.467385 1.2245063 -1.611243e-20)
(55.521644 1.3308618 -1.0513677e-21)
(55.568614 1.4344404 1.031936e-21)
(55.60807 1.535055 -1.0155915e-21)
(55.639745 1.6324813 1.6047306e-20)
(55.663316 1.7264476 -1.6898735e-20)
(55.678403 1.8166222 9.8917193e-22)
(55.684537 1.9026596 -1.5818444e-20)
(55.681098 1.9839241 0)
(55.667483 2.059943 -1.6060107e-20)
(55.642914 2.1301046 3.2669922e-20)
(55.606331 2.193407 3.2411168e-20)
(55.556477 2.2488293 -1.6188966e-20)
(55.491791 2.2950712 0)
(55.410312 2.3304813 -1.8926767e-20)
(55.309579 2.3532492 1.259427e-21)
(55.184962 2.3609321 -1.30154e-21)
(55.032778 2.3490585 9.5310962e-20)
(54.846866 2.3154162 1.4934677e-25)
(54.615413 2.2532772 1.8883089e-21)
(54.323517 2.1543629 8.0510834e-26)
(53.969701 2.0078811 7.8991299e-20)
(53.632772 1.856973 3.6628368e-25)
(53.430501 1.7821189 -1.3807867e-21)
(53.324876 1.7499571 1.3642851e-21)
(53.245813 1.7238261 -8.7103753e-20)
(53.173994 1.6978767 0)
(53.105532 1.6710831 0)
(53.039715 1.6432879 0)
(52.976391 1.6145122 -7.8225506e-20)
(52.915489 1.5847986 -2.4362932e-21)
(52.856966 1.5541883 7.7678265e-20)
(52.800794 1.5227186 -1.1723851e-21)
(52.746931 1.4904231 -4.4747517e-26)
(52.695302 1.4573236 -4.2347293e-26)
(52.645811 1.4234283 -1.4053217e-19)
(52.598396 1.3887491 -1.3892996e-19)
(52.553033 1.3533259 -1.362418e-19)
(52.509658 1.3171746 0)
(52.468139 1.2802751 0)
(52.428398 1.2426271 0)
(52.390438 1.2042681 -2.5200469e-19)
(52.354236 1.1652332 9.6557196e-22)
(52.319735 1.1255295 1.2027769e-19)
(52.286887 1.0851787 1.1890009e-19)
(52.255647 1.0442037 1.1661903e-19)
(52.225977 1.0026375 0)
(52.197846 0.96046933 0)
(52.171237 0.91769761 1.1002095e-19)
(52.146129 0.87429438 0)
(52.122518 0.8302387 -4.1337015e-22)
(52.100392 0.78549865 4.0538687e-22)
(52.079705 0.74008021 0)
(52.060429 0.69397532 -1.9922906e-19)
(52.042523 0.64724025 -1.9614304e-19)
(52.025944 0.5998409 0)
(52.010686 0.55182826 -1.8825655e-19)
(51.996744 0.50307783 8.3131728e-25)
(51.984167 0.45369934 -1.8085426e-19)
(51.972911 0.40347321 -1.73358e-22)
(51.963038 0.35260479 -1.7407297e-19)
(51.954473 0.30076059 3.4138536e-19)
(51.947422 0.2482515 -3.345884e-19)
(51.941683 0.1946923 -1.6027497e-22)
(51.937757 0.14026656 1.6092847e-19)
(51.93509 0.085019622 3.9217788e-23)
(51.934524 0.028106679 1.545045e-19)
(48.428123 -4.2683094 4.6741094e-21)
(48.758035 -4.1041854 1.7862135e-20)
(49.074084 -3.9407433 0)
(49.377659 -3.7780621 -1.2233697e-20)
(49.669923 -3.6162085 -3.8991352e-21)
(49.951856 -3.4552314 -1.4917311e-20)
(50.224278 -3.295169 -3.2114514e-20)
(50.487874 -3.1360537 3.4149376e-21)
(50.743214 -2.9779145 1.307912e-20)
(50.990771 -2.8207789 1.2526043e-20)
(51.23094 -2.6646747 1.2000223e-20)
(51.464042 -2.5096304 -2.8750871e-21)
(51.690344 -2.3556761 5.5119358e-21)
(51.91006 -2.2028438 5.2851257e-21)
(52.123363 -2.0511676 -7.6052631e-21)
(52.330392 -1.9006837 2.4323757e-21)
(52.531253 -1.7514301 -2.334226e-21)
(52.726029 -1.6034466 -8.9641944e-21)
(52.91478 -1.4567743 0)
(53.097547 -1.3114556 0)
(53.274356 -1.1675333 1.788049e-20)
(53.445219 -1.0250513 1.3367981e-20)
(53.610137 -0.88405313 -2.9379829e-20)
(53.7691 -0.74458287 0)
(53.922091 -0.60668435 0)
(54.069082 -0.47040141 -1.3090344e-20)
(54.210043 -0.33577792 -3.98875e-25)
(54.344933 -0.20285798 0)
(54.473709 -0.071686395 -1.4646171e-21)
(54.596321 0.057690888 1.271768e-20)
(54.712713 0.18522612 0)
(54.822825 0.31086928 -1.3188125e-21)
(54.926592 0.43456721 1.2756156e-21)
(55.023943 0.5562626 8.6479637e-21)
(55.114798 0.67589283 1.1978798e-21)
(55.199068 0.79339156 -1.1633391e-21)
(55.276645 0.90868253 1.1312982e-21)
(55.347408 1.021671 1.8739747e-20)
(55.411224 1.1322453 1.506664e-20)
(55.467937 1.2402754 -1.2687468e-25)
(55.517367 1.3456078 -1.2043098e-25)
(55.559303 1.4480599 -1.140549e-25)
(55.593491 1.5474138 -3.1095065e-20)
(55.619628 1.6434064 -1.0600749e-25)
(55.637355 1.7357176 -9.8802727e-22)
(55.646242 1.8239823 1.7763313e-20)
(55.645696 1.90772 -9.9031297e-22)
(55.635112 1.986259 1.4993993e-20)
(55.613791 2.0591614 -1.5232654e-20)
(55.58074 2.1254467 -1.5578863e-20)
(55.534749 2.1841187 -1.0705071e-21)
(55.474344 2.2339458 1.7807992e-20)
(55.397647 2.2733789 0)
(55.302303 2.3005785 0)
(55.184194 2.3142786 -4.2177157e-20)
(55.039348 2.3071764 -9.3389141e-20)
(54.861986 2.2805207 1.6117889e-25)
(54.641342 2.2263322 5.8743798e-20)
(54.362694 2.1372539 0)
(54.018663 2.0008686 -1.5576472e-19)
(53.671197 1.8465011 8.6722e-20)
(53.447304 1.7608375 -2.7268943e-21)
(53.333924 1.7271999 1.3495402e-21)
(53.253474 1.7018469 8.6194633e-20)
(53.181607 1.6770231 8.1981801e-20)
(53.113291 1.6513554 -1.2767375e-21)
(53.047634 1.6246442 -7.7655442e-20)
(52.984452 1.5969019 7.6182598e-20)
(52.923672 1.5681705 1.2054252e-21)
(52.86525 1.538494 -7.5685867e-20)
(52.809163 1.5079116 0)
(52.755371 1.4764592 1.1380626e-21)
(52.703801 1.4441619 -1.1162899e-21)
(52.654361 1.4110308 -1.4015893e-19)
(52.606986 1.3770776 2.7496156e-19)
(52.56165 1.3423425 0)
(52.518297 1.3068486 1.0327145e-21)
(52.4768 1.2705801 1.2859981e-19)
(52.437071 1.2335355 9.9316607e-22)
(52.399109 1.1957521 -1.9477161e-21)
(52.362897 1.1572684 9.5549903e-22)
(52.328378 1.1180938 -1.1996256e-19)
(52.295505 1.0782485 -9.1980738e-22)
(52.264232 1.0377552 1.1630576e-19)
(52.234526 0.99664561 8.842875e-22)
(52.206359 0.95490928 -1.734549e-21)
(52.179715 0.91254418 -1.0887493e-19)
(52.154573 0.86952315 4.1708628e-22)
(52.130934 0.82582742 4.090528e-22)
(52.108778 0.78142933 -2.0539523e-19)
(52.088059 0.73633756 0)
(52.068745 0.69054639 3.8672916e-22)
(52.050795 0.64411353 5.5448325e-27)
(52.034172 0.59700582 -3.7103366e-22)
(52.018872 0.54927283 3.7294954e-19)
(52.004891 0.50079241 3.6501096e-19)
(51.992277 0.45167236 3.5828475e-19)
(51.980989 0.40169931 1.7566657e-19)
(51.971087 0.35107538 1.722571e-19)
(51.962496 0.29947421 -1.6891159e-19)
(51.955421 0.24719756 1.6546758e-19)
(51.949664 0.19387798 1.625671e-19)
(51.94572 0.13967611 -1.5924921e-19)
(51.943047 0.084674182 3.123006e-19)
(51.942464 0.027978878 -1.529292e-19)
(48.246136 -4.3636428 -2.3194367e-20)
(48.58014 -4.2010004 -1.3299602e-20)
(48.900309 -4.0389219 0)
(49.208 -3.8774998 2.0267217e-20)
(49.504355 -3.7168069 -1.5509568e-20)
(49.790337 -3.5568982 -1.4841001e-20)
(50.066755 -3.3978171 7.1021057e-21)
(50.33429 -3.2395996 3.4003077e-21)
(50.593508 -3.0822774 -2.931358e-20)
(50.844883 -2.92588 -2.1844668e-20)
(51.088807 -2.7704361 -1.1963063e-20)
(51.325605 -2.6159747 8.6024684e-21)
(51.555542 -2.4625258 2.7496766e-21)
(51.778837 -2.310121 -1.0551833e-20)
(51.995664 -2.1587939 1.0124417e-20)
(52.206162 -2.0085796 -1.214803e-20)
(52.410441 -1.8595154 -2.839034e-25)
(52.608583 -1.7116401 1.3441169e-20)
(52.80065 -1.564994 1.5064555e-20)
(52.986683 -1.4196188 0)
(53.166708 -1.275557 -1.7888901e-20)
(53.340739 -1.132852 4.5311648e-25)
(53.508776 -0.9915475 1.6543433e-20)
(53.67081 -0.85168779 -1.23807e-20)
(53.826821 -0.71331725 1.1916909e-20)
(53.976786 -0.57648051 -1.311415e-20)
(54.120669 -0.44122241 1.2633215e-20)
(54.258435 -0.30758825 -1.217689e-20)
(54.390037 -0.17562407 0)
(54.515428 -0.045377154 -1.416629e-21)
(54.634552 0.083103445 1.367863e-21)
(54.747353 0.20976629 1.1899338e-20)
(54.853765 0.33455714 -2.5580416e-21)
(54.95372 0.45741838 2.4772752e-21)
(55.047141 0.57828771 1.5840707e-25)
(55.133941 0.69709765 -1.1659897e-21)
(55.214019 0.81377079 1.8142799e-20)
(55.287262 0.92821376 -1.7673059e-20)
(55.353544 1.0403171 -1.7249676e-20)
(55.412718 1.1499531 1.6873413e-20)
(55.464615 1.2569717 0)
(55.509035 1.3611946 0)
(55.54574 1.4624097 1.6049758e-20)
(55.574446 1.5603623 -1.1593904e-25)
(55.594813 1.6547439 -1.5787522e-20)
(55.606437 1.7451876 0)
(55.608778 1.8312816 -1.5798346e-20)
(55.60122 1.9123125 -1.5928393e-20)
(55.583116 1.9878622 1.010198e-21)
(55.553559 2.0570555 -1.031778e-21)
(55.511384 2.1188897 3.3979135e-20)
(55.455193 2.172201 -1.8736447e-20)
(55.383191 2.2155169 1.84818e-20)
(55.29308 2.2469945 1.2240378e-21)
(55.181386 2.2649433 8.4073989e-20)
(55.043746 2.263729 9.1548387e-20)
(54.874613 2.2441609 -1.0135671e-19)
(54.664509 2.1977764 0)
(54.398964 2.1181541 -2.0485682e-21)
(54.066481 1.9925696 2.360029e-21)
(53.712584 1.8377312 -8.6198692e-20)
(53.466375 1.7405512 2.6907974e-21)
(53.343208 1.7043879 0)
(53.260936 1.6796942 0)
(53.188962 1.6559822 -1.6482826e-19)
(53.120804 1.6314407 0)
(53.05533 1.6058197 2.9920019e-25)
(52.992314 1.5791172 7.7818605e-20)
(52.931676 1.5513746 1.1928772e-21)
(52.873377 1.5226382 -1.1701944e-21)
(52.817393 1.4929491 -1.4694221e-19)
(52.763688 1.4623454 0)
(52.712194 1.4308556 0)
(52.662819 1.3984942 1.386915e-19)
(52.615497 1.3652729 -1.3604181e-19)
(52.570201 1.3312319 1.334196e-19)
(52.526881 1.296401 -1.3081057e-19)
(52.485415 1.2607692 -2.5652551e-19)
(52.445708 1.2243344 0)
(52.407754 1.1871332 1.2242639e-19)
(52.371538 1.1492068 9.4552286e-22)
(52.33701 1.1105673 1.1963776e-19)
(52.304118 1.0712332 -1.1734346e-19)
(52.272821 1.0312268 -1.141989e-19)
(52.243084 0.99057798 0)
(52.214887 0.94927711 0)
(52.188214 0.90732186 -8.4169714e-22)
(52.163047 0.8646863 1.0648569e-19)