/*--------------------------------*- C++ -*----------------------------------*\
| =========                 |                                                 |
| \\      /  F ield         | OpenFOAM: The Open Source CFD Toolbox           |
|  \\    /   O peration     | Version:  2406                                  |
|   \\  /    A nd           | Website:  www.openfoam.com                      |
|    \\/     M anipulation  |                                                 |
\*---------------------------------------------------------------------------*/
FoamFile
{
    version     2.0;
    format      ascii;
    arch        "LSB;label=32;scalar=64";
    class       volScalarField;
    location    "0.004";
    object      Ma;
}
// * * * * * * * * * * * * * * * * * * * * * * * * * * * * * * * * * * * * * //

dimensions      [0 0 0 0 0 0 0];

internalField   nonuniform List<scalar> 
92813
(
0.14934856
0.15007769
0.1508471
0.15159968
0.15226982
0.15288291
0.15346077
0.15401463
0.15455632
0.15509704
0.15564648
0.15621223
0.15679993
0.15741427
0.15805166
0.15871293
0.15939244
0.1600746
0.16074845
0.16140878
0.16205009
0.16267608
0.16329339
0.16390354
0.16450625
0.16510031
0.16568393
0.16625484
0.16681036
0.16734746
0.16786267
0.16835214
0.16881159
0.16923625
0.16962087
0.16995963
0.17024573
0.17047399
0.17063894
0.17071656
0.17070523
0.17060872
0.1704039
0.17007902
0.16962387
0.16903081
0.16829737
0.16743281
0.16646843
0.16547014
0.16453728
0.16376292
0.16317786
0.16274752
0.16241643
0.16214061
0.16189386
0.1616631
0.16144286
0.16123116
0.16102675
0.16082842
0.160636
0.16044952
0.16026856
0.16009319
0.15992328
0.1597585
0.15959873
0.15944366
0.1592924
0.15914511
0.15900247
0.15886341
0.15872761
0.1585957
0.15846734
0.15834232
0.15822075
0.15810257
0.15798798
0.15787702
0.15776949
0.15766524
0.15756426
0.15746636
0.15737118
0.15727847
0.15718808
0.15709985
0.15701369
0.15692965
0.15684773
0.15676788
0.15669013
0.15661447
0.15654092
0.15646949
0.15640023
0.15633316
0.15626832
0.15620572
0.1561454
0.1560874
0.15603173
0.15597842
0.15592747
0.15587885
0.15583255
0.15578851
0.15574677
0.15570737
0.15567037
0.15563587
0.15560386
0.15557432
0.15554723
0.15552263
0.15550046
0.15548083
0.15546339
0.15544851
0.15543544
0.15542553
0.15541707
0.15541333
0.15540669
0.14672264
0.14764297
0.14856255
0.14943035
0.15023963
0.15100283
0.15173192
0.15243519
0.15312049
0.15379581
0.15446871
0.15514584
0.15583247
0.15653163
0.15724236
0.15796241
0.15868646
0.15940617
0.16011524
0.16080982
0.16148811
0.16215179
0.16280347
0.16344413
0.16407355
0.1646907
0.16529398
0.1658813
0.16645013
0.16699753
0.16752013
0.16801416
0.16847534
0.16889891
0.16927959
0.16961151
0.16988804
0.17010311
0.17024909
0.17030661
0.17027605
0.17015135
0.16991363
0.16955357
0.1690606
0.1684287
0.16765896
0.16676727
0.16579606
0.1648245
0.16395597
0.16326623
0.16275884
0.1623852
0.16209138
0.16184036
0.16161166
0.16139552
0.1611881
0.16098824
0.16079497
0.16060708
0.16042451
0.16024742
0.16007537
0.15990843
0.15974657
0.15958942
0.1594369
0.15928882
0.15914422
0.15900322
0.15886668
0.15873346
0.15860316
0.15847657
0.15835331
0.15823312
0.15811617
0.1580024
0.15789199
0.15778505
0.15768135
0.15758076
0.15748327
0.15738873
0.15729678
0.15720718
0.15711978
0.15703442
0.15695102
0.15686963
0.15679026
0.15671285
0.15663744
0.15656403
0.15649262
0.15642324
0.15635595
0.15629076
0.15622772
0.15616684
0.15610815
0.15605169
0.15599749
0.15594557
0.1558959
0.1558485
0.15580333
0.15576035
0.15571958
0.15568107
0.15564488
0.15561113
0.15557979
0.15555086
0.15552432
0.1555002
0.15547845
0.1554592
0.15544208
0.15542747
0.1554146
0.15540489
0.15539652
0.15539293
0.15538621
0.14377506
0.14481927
0.14591369
0.14694936
0.1479231
0.14884695
0.14973144
0.15058394
0.15141117
0.15221983
0.15301637
0.15380657
0.15459514
0.15538495
0.15617621
0.15696715
0.15775388
0.15853101
0.15929385
0.16003941
0.16076647
0.16147579
0.16216889
0.16284659
0.1635089
0.16415506
0.16478372
0.16539301
0.16598058
0.16654365
0.16707895
0.16758278
0.16805092
0.16847863
0.16886058
0.16919087
0.16946286
0.1696698
0.16980237
0.16984645
0.16980133
0.16965354
0.16938929
0.16900021
0.16847617
0.16781327
0.16701678
0.16611023
0.16514773
0.16421917
0.16342397
0.16281435
0.16237155
0.16204169
0.16177656
0.16154577
0.16133306
0.16113067
0.16093568
0.16074744
0.16056519
0.16038765
0.16021479
0.16004699
0.15988371
0.15972507
0.1595711
0.15942144
0.15927602
0.15913481
0.15899679
0.15886193
0.15873133
0.15860387
0.15847895
0.15835751
0.15823925
0.15812377
0.15801129
0.15790177
0.15779539
0.15769231
0.1575923
0.15749521
0.15740107
0.15730975
0.1572209
0.15713428
0.15704975
0.15696716
0.1568864
0.15680756
0.15673063
0.15665557
0.1565824
0.15651114
0.1564418
0.15637441
0.15630903
0.15624569
0.15618441
0.15612523
0.15606817
0.15601328
0.15596057
0.15591006
0.15586175
0.15581562
0.15577167
0.15572985
0.15569017
0.15565267
0.15561743
0.15558455
0.15555403
0.15552585
0.15549999
0.1554765
0.15545531
0.15543655
0.15541986
0.15540563
0.15539308
0.15538363
0.15537543
0.15537203
0.15536527
0.14104563
0.14220239
0.14343615
0.14461841
0.1457387
0.14680599
0.14782926
0.14881498
0.14976902
0.15069722
0.15160517
0.15249792
0.15337958
0.15425286
0.15511859
0.15597597
0.15682259
0.15765494
0.15846967
0.15926432
0.16003776
0.16079035
0.16152304
0.16223646
0.16293061
0.16360488
0.16425811
0.16488858
0.16549411
0.16607203
0.16661918
0.1671319
0.16760602
0.16803678
0.16841884
0.16874621
0.16901219
0.16920963
0.16932748
0.16935666
0.169295
0.16912224
0.16883017
0.16841069
0.16785499
0.16716185
0.16634192
0.16542803
0.16448683
0.1636154
0.1629013
0.16237041
0.16198679
0.16169623
0.16145728
0.16124566
0.1610486
0.16085993
0.16067742
0.16050089
0.16032981
0.16016275
0.15999973
0.15984135
0.15968702
0.15953681
0.15939088
0.15924884
0.15911065
0.15897645
0.15884515
0.15871658
0.15859206
0.1584705
0.1583511
0.15823496
0.15812185
0.1580112
0.15790334
0.15779824
0.15769602
0.15759693
0.15750076
0.15740731
0.15731662
0.15722865
0.15714302
0.15705948
0.15697793
0.1568982
0.15682019
0.15674399
0.1566696
0.15659698
0.15652614
0.15645713
0.15638994
0.15632462
0.15626122
0.15619979
0.15614035
0.15608293
0.15602756
0.15597428
0.15592311
0.15587407
0.15582714
0.15578232
0.15573961
0.15569895
0.15566037
0.1556239
0.15558961
0.15555761
0.15552791
0.15550047
0.1554753
0.15545242
0.15543178
0.1554135
0.15539724
0.15538337
0.15537112
0.15536194
0.15535389
0.15535067
0.15534389
0.13850922
0.13976897
0.141116
0.1424216
0.14366941
0.14486365
0.14601077
0.14711594
0.14818408
0.14922021
0.15022918
0.15121542
0.15218258
0.15313325
0.15406866
0.15498875
0.15589225
0.15677704
0.15764086
0.15848188
0.15929915
0.16009282
0.16086341
0.16161125
0.16233627
0.16303789
0.16371505
0.16436614
0.16498909
0.16558131
0.1661397
0.16666066
0.16713999
0.16757294
0.16795408
0.16827732
0.16853587
0.16872239
0.1688242
0.16883724
0.16875634
0.16855637
0.16823486
0.16778353
0.16719563
0.16647362
0.16563502
0.16472369
0.16381845
0.16301781
0.16238982
0.16193434
0.16160433
0.16134896
0.16113401
0.16094066
0.16075905
0.16058415
0.16041425
0.16024957
0.16008985
0.15993347
0.15978045
0.15963168
0.15948649
0.15934487
0.15920714
0.15907288
0.15894205
0.15881499
0.15869057
0.1585684
0.15845007
0.15833454
0.15822076
0.15811002
0.15800216
0.15789646
0.15779329
0.15769269
0.15759473
0.1574997
0.15740744
0.15731768
0.15723051
0.15714594
0.15706357
0.15698316
0.15690463
0.15682781
0.15675259
0.15667906
0.15660726
0.1565371
0.15646864
0.1564019
0.15633689
0.15627367
0.1562123
0.1561528
0.15609523
0.1560396
0.15598595
0.15593431
0.15588471
0.15583716
0.15579164
0.15574816
0.15570672
0.15566726
0.15562981
0.1555944
0.15556108
0.15552999
0.15550113
0.15547447
0.15544999
0.15542775
0.15540768
0.15538991
0.15537409
0.1553606
0.15534867
0.15533975
0.15533188
0.15532884
0.15532204
0.13613116
0.1375059
0.13895411
0.14036423
0.14172045
0.14302362
0.14427791
0.14548723
0.14665559
0.1477872
0.14888621
0.14995646
0.15100123
0.15202295
0.15302309
0.1540021
0.15495951
0.15589416
0.15680461
0.15768955
0.15854828
0.15938081
0.16018738
0.16096808
0.16172272
0.16245071
0.16315097
0.16382199
0.16446172
0.16506763
0.16563666
0.1661652
0.16664905
0.16708337
0.16746267
0.1677807
0.16803049
0.16820455
0.16829015
0.16828601
0.16818185
0.16795319
0.16760114
0.16711707
0.16649733
0.16574924
0.16489895
0.16400269
0.1631493
0.16243097
0.16189047
0.16150511
0.161223
0.16099918
0.16080642
0.16063068
0.16046441
0.16030339
0.16014623
0.15999355
0.15984536
0.15969985
0.15955697
0.15941799
0.15928212
0.15914924
0.15901984
0.15889351
0.15877015
0.15865034
0.15853294
0.15841729
0.15830522
0.15819586
0.15808782
0.15798255
0.15788005
0.1577794
0.15768101
0.15758501
0.15749139
0.15740051
0.15731225
0.15722626
0.15714267
0.15706156
0.15698252
0.1569053
0.15682985
0.15675599
0.15668361
0.15661282
0.15654365
0.15647602
0.15640998
0.15634556
0.15628278
0.15622171
0.15616239
0.15610488
0.15604922
0.15599542
0.15594352
0.15589356
0.15584556
0.15579953
0.15575546
0.15571334
0.15567318
0.15563495
0.15559864
0.15556431
0.15553199
0.15550182
0.15547381
0.15544793
0.15542417
0.15540258
0.15538308
0.15536582
0.15535045
0.15533735
0.15532574
0.15531708
0.15530939
0.15530652
0.15529971
0.13394189
0.13542637
0.13696209
0.13845855
0.13990387
0.14129726
0.14264129
0.14393879
0.14519291
0.14640707
0.14758474
0.14872916
0.1498432
0.15092911
0.15198841
0.15302187
0.15402953
0.15501088
0.15596506
0.15689114
0.15778862
0.15865745
0.15949771
0.16030929
0.16109187
0.16184477
0.1625669
0.16325674
0.16391226
0.16453093
0.16510967
0.16564486
0.16613224
0.16656689
0.1669432
0.16725476
0.16749439
0.16765418
0.1677232
0.16770002
0.16756874
0.16731046
0.16692676
0.16640961
0.1657594
0.16498986
0.16413762
0.16327174
0.16248636
0.16185859
0.16140334
0.1610815
0.16084176
0.1606463
0.16047427
0.16031561
0.16016464
0.16001765
0.15987338
0.15973282
0.15959634
0.1594619
0.1593293
0.15920025
0.15907391
0.15894992
0.15882897
0.15871072
0.15859495
0.1584825
0.15837227
0.15826325
0.15815754
0.15805447
0.15795229
0.15785257
0.15775554
0.15766004
0.15756652
0.15747521
0.15738602
0.15729937
0.15721519
0.15713305
0.1570531
0.15697551
0.15689986
0.15682588
0.15675356
0.15668273
0.15661324
0.15654524
0.15647875
0.15641369
0.15635011
0.15628807
0.15622756
0.15616867
0.15611146
0.15605597
0.15600225
0.15595031
0.15590021
0.15585196
0.15580559
0.15576111
0.15571851
0.15567778
0.15563893
0.15560194
0.15556681
0.15553357
0.15550227
0.15547304
0.1554459
0.15542082
0.15539779
0.15537686
0.15535795
0.15534121
0.15532629
0.15531358
0.1553023
0.15529391
0.15528641
0.1552837
0.1552769
0.13196279
0.13353952
0.13514615
0.13671084
0.13822642
0.13969176
0.1411084
0.14247831
0.14380385
0.14508769
0.14633258
0.14754118
0.14871591
0.14985873
0.15097112
0.15205395
0.15310758
0.15413189
0.15512638
0.1560904
0.15702359
0.15792588
0.15879722
0.15963737
0.16044583
0.16122185
0.16196426
0.16267149
0.16334147
0.16397164
0.16455888
0.16509949
0.16558913
0.16602278
0.16639469
0.16669832
0.16692628
0.16706987
0.16712054
0.16707597
0.16691533
0.16662623
0.16620962
0.16565965
0.16498168
0.16419764
0.16335638
0.16253844
0.16183588
0.16130263
0.1609274
0.16066193
0.16045954
0.16028983
0.16013737
0.15999539
0.15985975
0.15972697
0.15959575
0.15946742
0.15934282
0.15921964
0.15909746
0.15897849
0.15886187
0.1587469
0.15863453
0.15852451
0.15841645
0.15831145
0.15820854
0.15810629
0.158007
0.15791034
0.15781414
0.15772004
0.15762859
0.15753835
0.15744977
0.15736326
0.1572786
0.15719624
0.15711622
0.15703801
0.15696177
0.15688777
0.15681558
0.15674489
0.15667576
0.156608
0.15654146
0.1564763
0.15641254
0.1563501
0.15628903
0.1562294
0.15617121
0.15611455
0.15605949
0.15600606
0.15595432
0.15590429
0.15585601
0.15580951
0.1557648
0.1557219
0.1556808
0.15564148
0.15560397
0.15556825
0.15553431
0.15550219
0.15547192
0.15544365
0.1554174
0.15539314
0.15537085
0.15535058
0.15533227
0.15531606
0.15530162
0.1552893
0.15527836
0.15527023
0.15526293
0.15526038
0.15525359
0.13019928
0.13184627
0.13350582
0.13512119
0.13668941
0.13820964
0.13968281
0.14111021
0.14249346
0.14383451
0.14513543
0.14639829
0.14762501
0.14881724
0.14997626
0.15110296
0.15219779
0.15326084
0.15429181
0.15529024
0.15625582
0.15718848
0.15808805
0.15895415
0.15978616
0.16058318
0.16134397
0.16206684
0.16274966
0.16338979
0.16398402
0.16452855
0.16501892
0.16544998
0.16581582
0.16610978
0.16632434
0.16644936
0.16647959
0.16641172
0.16621946
0.16589808
0.16544774
0.1648662
0.16416507
0.16337652
0.1625626
0.16181132
0.16120305
0.16076364
0.160461
0.16024482
0.16007545
0.15992941
0.15979565
0.15967004
0.15954978
0.15943139
0.15931339
0.1591974
0.15908482
0.1589731
0.15886148
0.15875271
0.15864601
0.1585402
0.15843651
0.15833488
0.15823466
0.15813718
0.15804173
0.15794638
0.15785359
0.15776346
0.15767336
0.15758496
0.15749919
0.15741432
0.15733075
0.15724914
0.15716909
0.15709111
0.15701534
0.15694114
0.15686866
0.15679832
0.15672964
0.1566623
0.15659641
0.15653179
0.15646825
0.15640597
0.15634501
0.15628523
0.15622673
0.15616955
0.15611372
0.15605933
0.15600645
0.15595513
0.15590541
0.15585733
0.15581091
0.15576618
0.15572318
0.15568189
0.15564231
0.15560443
0.15556828
0.15553385
0.15550112
0.15547014
0.15544093
0.15541364
0.15538829
0.15536486
0.15534334
0.15532375
0.15530605
0.15529037
0.1552764
0.15526448
0.15525388
0.15524602
0.15523893
0.15523653
0.15522976
0.12865633
0.13034295
0.13203559
0.13368512
0.1352902
0.13685011
0.13836532
0.13983655
0.14126478
0.1426513
0.14399754
0.14530499
0.1465751
0.14780913
0.14900813
0.15017286
0.15130375
0.15240094
0.15346423
0.15449322
0.15548762
0.1564473
0.15737201
0.15826121
0.15911415
0.15992979
0.16070674
0.16144322
0.16213696
0.16278521
0.16338463
0.1639313
0.1644206
0.16484719
0.16520498
0.16548718
0.16568624
0.16579023
0.16579858
0.16570462
0.16547832
0.16512349
0.16463948
0.16402913
0.16331208
0.16253277
0.16176573
0.16109891
0.16059137
0.16024078
0.16000217
0.1598287
0.15968872
0.15956481
0.15944911
0.15933961
0.15923476
0.15913099
0.15902639
0.15892282
0.15882238
0.15872232
0.1586214
0.15852293
0.15842634
0.15832983
0.1582349
0.15814184
0.15804959
0.1579597
0.15787184
0.15778354
0.15769731
0.15761382
0.15752994
0.15744731
0.15736729
0.15728792
0.15720944
0.15713281
0.15705749
0.15698394
0.15691251
0.15684241
0.15677376
0.15670713
0.15664203
0.1565781
0.1565155
0.15645407
0.15639358
0.15633424
0.15627612
0.15621906
0.15616316
0.1561085
0.15605507
0.156003
0.15595235
0.15590317
0.15585551
0.15580941
0.15576489
0.15572198
0.1556807
0.15564105
0.15560302
0.15556661
0.15553185
0.15549872
0.15546724
0.15543742
0.15540929
0.15538299
0.15535857
0.15533599
0.15531523
0.15529633
0.15527925
0.15526412
0.15525063
0.15523912
0.15522887
0.15522128
0.15521439
0.15521215
0.15520541
0.1273101
0.12901588
0.13072558
0.13239518
0.13402369
0.13561017
0.13715471
0.13865757
0.14011921
0.14154033
0.14292182
0.14426463
0.14556973
0.14683802
0.14807025
0.14926698
0.15042853
0.151555
0.15264616
0.1537016
0.15472101
0.15570416
0.15665067
0.15755989
0.15843089
0.15926249
0.16005314
0.16080089
0.16150334
0.16215758
0.16276013
0.16330686
0.16379297
0.16421291
0.16456037
0.16482829
0.16500909
0.16509091
0.16507594
0.16495048
0.16468896
0.16430025
0.16378386
0.16314968
0.16242751
0.1616754
0.16097665
0.16040854
0.16000213
0.15973217
0.15954879
0.15941227
0.15929878
0.15919586
0.15909783
0.15900421
0.15891477
0.15882583
0.15873484
0.15864377
0.15855554
0.15846736
0.15837729
0.15828917
0.15820287
0.1581158
0.1580297
0.15794539
0.15786125
0.15777899
0.15769885
0.15761775
0.15753815
0.15746138
0.15738388
0.15730707
0.1572329
0.15715914
0.15708582
0.15701426
0.15694378
0.15687473
0.15680771
0.15674179
0.15667703
0.15661419
0.15655274
0.15649226
0.15643301
0.15637483
0.15631744
0.15626109
0.15620586
0.15615158
0.15609833
0.15604622
0.15599525
0.15594553
0.15589715
0.15585016
0.1558046
0.15576052
0.15571793
0.15567687
0.15563735
0.15559937
0.15556292
0.155528
0.15549465
0.15546286
0.15543264
0.155404
0.15537698
0.1553517
0.15532821
0.15530649
0.15528652
0.15526833
0.15525188
0.1552373
0.1552243
0.1552132
0.15520332
0.15519599
0.15518932
0.15518723
0.15518053
0.12614172
0.12785258
0.12956659
0.13124423
0.13288445
0.13448602
0.13604867
0.13757226
0.13905683
0.1405026
0.14190995
0.14327937
0.14461141
0.14590658
0.14716531
0.14838794
0.14957462
0.1507253
0.15183967
0.15291726
0.15395764
0.1549605
0.1559253
0.15685124
0.15773721
0.15858186
0.15938346
0.16013989
0.16084857
0.16150639
0.16210967
0.16265409
0.16313461
0.16354545
0.16388004
0.16413102
0.16429029
0.16434887
0.1643078
0.16414601
0.16384922
0.16342665
0.16288103
0.16223115
0.16151915
0.16081616
0.16020643
0.15974513
0.15943459
0.15923525
0.15909884
0.15899444
0.15890519
0.15882251
0.15874196
0.158664
0.15858987
0.158516
0.15843882
0.15836036
0.15828437
0.15820829
0.15812923
0.15805148
0.15797562
0.15789814
0.15782093
0.15774554
0.15766968
0.15759509
0.15752277
0.15744904
0.15737612
0.15730615
0.15723516
0.15716425
0.15709598
0.15702796
0.15695988
0.15689347
0.15682793
0.15676345
0.15670092
0.15663927
0.15657845
0.15651947
0.15646174
0.15640476
0.15634891
0.15629404
0.15623981
0.15618651
0.15613422
0.15608275
0.15603221
0.15598271
0.15593422
0.15588691
0.15584085
0.15579608
0.15575267
0.15571064
0.15567002
0.15563084
0.15559311
0.15555683
0.15552199
0.1554886
0.15545668
0.15542625
0.1553973
0.15536988
0.15534398
0.15531973
0.1552972
0.15527636
0.15525719
0.15523972
0.15522391
0.15520989
0.1551974
0.15518672
0.15517719
0.15517014
0.15516369
0.15516174
0.15515509
0.1251378
0.12684255
0.12855019
0.13022533
0.13186689
0.13347335
0.13504411
0.13657868
0.1380767
0.139538
0.14096253
0.14235038
0.14370167
0.14501658
0.14629522
0.14753767
0.14874386
0.14991357
0.15104636
0.15214162
0.1531988
0.15421743
0.15519681
0.15613596
0.15703361
0.15788817
0.15869774
0.15945998
0.16017211
0.1608308
0.16143214
0.16197156
0.16244378
0.16284275
0.16316168
0.16339296
0.16352731
0.16356001
0.16348978
0.16328939
0.16295705
0.16250191
0.16193296
0.16127985
0.16059838
0.15996874
0.15946451
0.15911056
0.15888637
0.15874722
0.15865052
0.15857438
0.15850766
0.15844472
0.1583817
0.15831922
0.15826017
0.15820157
0.15813844
0.15807271
0.15800894
0.15794518
0.15787733
0.15780992
0.15774461
0.1576769
0.15760861
0.15754229
0.1574749
0.15740801
0.15734358
0.1572774
0.15721125
0.15714811
0.15708378
0.15701885
0.15695653
0.15689438
0.1568316
0.15677041
0.15670993
0.15665009
0.15659211
0.15653483
0.15647802
0.15642295
0.15636902
0.15631559
0.1562632
0.15621169
0.15616067
0.15611046
0.15606118
0.15601257
0.15596479
0.15591793
0.15587199
0.15582712
0.15578342
0.15574092
0.15569969
0.15565975
0.15562115
0.15558388
0.15554797
0.15551342
0.15548022
0.15544837
0.15541791
0.15538886
0.15536123
0.15533503
0.15531028
0.15528709
0.15526553
0.15524558
0.15522723
0.15521048
0.15519533
0.15518189
0.1551699
0.15515964
0.15515049
0.15514371
0.1551375
0.15513568
0.15512909
0.12428699
0.12597581
0.12766781
0.12933124
0.13096499
0.13256731
0.13413728
0.13567408
0.13717702
0.13864555
0.14007926
0.14147788
0.14284117
0.14416897
0.1454611
0.14671737
0.14793747
0.149121
0.15026731
0.15137566
0.15244532
0.15347564
0.15446574
0.15541443
0.15632023
0.15718135
0.15799566
0.1587606
0.15947312
0.16012968
0.16072609
0.16125752
0.16171837
0.16210235
0.16240242
0.16261082
0.16271665
0.16272144
0.16261877
0.16237791
0.16201076
0.16152689
0.16094447
0.16030609
0.1596801
0.15914692
0.15875695
0.15850375
0.15835422
0.15826537
0.15820233
0.15815153
0.15810606
0.15806245
0.15801726
0.15797021
0.15792583
0.15788261
0.15783381
0.15778095
0.15772934
0.15767811
0.15762169
0.15756458
0.15750984
0.15745209
0.15739281
0.15733565
0.15727695
0.15721779
0.15716128
0.15710284
0.15704357
0.15698723
0.15692973
0.15687088
0.15681453
0.15675839
0.15670098
0.15664508
0.15658978
0.15653463
0.15648126
0.15642845
0.15637571
0.15632461
0.15627455
0.15622474
0.15617584
0.15612776
0.15608
0.15603293
0.15598671
0.15594102
0.15589604
0.15585188
0.15580853
0.15576615
0.15572485
0.15568467
0.15564565
0.15560785
0.15557128
0.15553597
0.15550192
0.15546912
0.15543759
0.15540731
0.15537834
0.15535069
0.15532439
0.15529945
0.15527586
0.15525374
0.15523318
0.15521415
0.15519662
0.15518062
0.15516613
0.15515327
0.1551418
0.15513197
0.1551232
0.1551167
0.15511072
0.15510904
0.15510251
0.12357729
0.12524173
0.1269102
0.12855405
0.13017212
0.13176245
0.13332379
0.13485504
0.13635521
0.13782343
0.13925898
0.14066125
0.1420297
0.14336387
0.14466331
0.14592754
0.14715603
0.14834816
0.14950308
0.15061986
0.15169758
0.15273539
0.15373219
0.15468657
0.15559684
0.15646095
0.15727654
0.15804078
0.15875038
0.15940149
0.15998967
0.16050975
0.16095586
0.16132134
0.16159885
0.16178044
0.16185609
0.1618313
0.16168957
0.16140918
0.16101008
0.1605051
0.15992451
0.15932487
0.15878144
0.15836187
0.15808535
0.15792159
0.15783493
0.15778712
0.15775305
0.15772558
0.15770046
0.15767564
0.15764874
0.15761744
0.1575873
0.15755905
0.15752497
0.15748531
0.15744572
0.15740711
0.1573624
0.15731557
0.15727133
0.15722375
0.15717359
0.15712564
0.15707584
0.15702449
0.15697586
0.15692537
0.1568731
0.15682352
0.156773
0.15672036
0.15666997
0.15661996
0.15656802
0.15651745
0.15646745
0.15641706
0.15636835
0.15632011
0.15627151
0.15622443
0.15617833
0.15613218
0.15608683
0.15604224
0.15599779
0.15595392
0.1559108
0.15586808
0.15582595
0.15578454
0.15574382
0.15570397
0.15566512
0.15562729
0.15559053
0.1555549
0.15552042
0.15548708
0.15545492
0.15542392
0.15539408
0.1553654
0.15533794
0.15531172
0.15528677
0.1552631
0.1552407
0.15521969
0.15520014
0.15518203
0.15516534
0.15515011
0.15513629
0.15512403
0.15511307
0.15510369
0.1550953
0.15508907
0.15508334
0.15508179
0.15507533
0.12299582
0.12462909
0.12626767
0.12788547
0.12948124
0.13105282
0.1325987
0.13411753
0.13560805
0.13706913
0.13849978
0.1398991
0.14126632
0.14260068
0.14390148
0.14516799
0.14639946
0.14759502
0.14875364
0.14987415
0.15095545
0.15199644
0.15299581
0.15395189
0.15486275
0.15572608
0.15653924
0.15729914
0.15800219
0.15864424
0.15922054
0.15972562
0.16015327
0.16049652
0.16074769
0.16089791
0.16094234
0.16088479
0.16069925
0.16038269
0.15995724
0.15944411
0.15888743
0.15835535
0.15791878
0.15761977
0.15744725
0.15736049
0.15732559
0.15730979
0.1573017
0.15729651
0.15729117
0.15728445
0.15727583
0.15726141
0.15724557
0.1572305
0.15721185
0.15718619
0.15715841
0.15713204
0.15709948
0.15706313
0.1570291
0.15699192
0.1569511
0.15691228
0.15687159
0.15682818
0.15678732
0.15674499
0.15669989
0.15665697
0.1566136
0.15656733
0.15652287
0.15647907
0.15643271
0.15638751
0.15634293
0.15629738
0.15625335
0.15620979
0.1561654
0.1561224
0.15608033
0.15603791
0.15599615
0.1559551
0.15591402
0.15587339
0.15583344
0.15579374
0.1557545
0.1557159
0.15567785
0.15564058
0.15560422
0.15556879
0.15553432
0.15550091
0.15546854
0.15543722
0.15540698
0.15537779
0.15534967
0.15532262
0.15529669
0.15527193
0.15524835
0.15522599
0.1552048
0.1551849
0.15516638
0.15514922
0.1551334
0.15511893
0.1551058
0.15509414
0.15508372
0.15507478
0.15506678
0.15506083
0.15505534
0.15505393
0.15504754
0.12253014
0.12412715
0.1257308
0.12731726
0.12888518
0.13043225
0.13195673
0.13345705
0.13493175
0.13637948
0.13779905
0.13918933
0.1405493
0.14187801
0.1431745
0.14443782
0.14566699
0.14686092
0.14801834
0.1491379
0.15021825
0.15125805
0.15225573
0.15320938
0.15411677
0.15497534
0.15578213
0.15653377
0.15722634
0.15785539
0.15841583
0.15890188
0.15930701
0.15962398
0.15984498
0.15995966
0.15997098
0.15987691
0.15964754
0.15929986
0.15885851
0.15835734
0.15785337
0.15741831
0.15710423
0.1569215
0.15683816
0.15681765
0.15682175
0.15683074
0.15684793
0.15686469
0.15687879
0.15688965
0.15689803
0.15690259
0.15690117
0.15689687
0.15689429
0.15688392
0.15686791
0.15685247
0.15683284
0.15680768
0.15678322
0.15675658
0.15672553
0.15669559
0.15666417
0.15662892
0.15659568
0.15656171
0.15652398
0.15648759
0.15645153
0.15641181
0.15637323
0.1563357
0.15629506
0.15625527
0.15621621
0.15617559
0.15613626
0.15609746
0.15605738
0.1560185
0.15598054
0.15594191
0.15590378
0.15586634
0.15582869
0.15579134
0.15575461
0.15571797
0.15568167
0.15564593
0.1556106
0.15557595
0.15554214
0.15550914
0.15547701
0.15544584
0.15541562
0.15538635
0.15535806
0.15533072
0.15530435
0.15527896
0.15525459
0.15523131
0.15520913
0.15518808
0.15516813
0.15514937
0.1551319
0.1551157
0.15510075
0.15508707
0.15507464
0.15506359
0.15505371
0.15504523
0.15503762
0.15503196
0.15502672
0.15502544
0.15501913
0.12216917
0.12372589
0.12529057
0.12684134
0.12837676
0.12989437
0.13139224
0.13286865
0.13432198
0.13575072
0.13715352
0.13852909
0.13987623
0.14119376
0.14248055
0.14373543
0.14495718
0.14614451
0.14729592
0.14840985
0.14948469
0.15051886
0.1515105
0.15245744
0.15335714
0.15420675
0.155003
0.15574216
0.15642002
0.15703178
0.15757203
0.15803467
0.15841286
0.158699
0.15888535
0.15896296
0.15893981
0.15880319
0.15853493
0.15816582
0.15772645
0.15726541
0.15684659
0.1565315
0.15634378
0.15626471
0.15625609
0.15628342
0.15631577
0.1563518
0.15639287
0.15643068
0.15646384
0.15649236
0.15651705
0.15653889
0.15655234
0.15656131
0.15657227
0.15657797
0.15657463
0.1565682
0.15656246
0.15654976
0.15653392
0.15651772
0.15649711
0.15647564
0.15645345
0.15642681
0.15640099
0.15637554
0.1563454
0.15631542
0.15628679
0.15625382
0.15622108
0.15618983
0.15615507
0.15612075
0.15608727
0.1560517
0.15601705
0.15598311
0.15594743
0.15591272
0.15587893
0.15584417
0.15580972
0.15577594
0.15574178
0.15570775
0.15567429
0.15564076
0.15560746
0.15557462
0.15554206
0.15551008
0.15547885
0.15544832
0.15541857
0.15538968
0.15536165
0.15533446
0.15530815
0.15528269
0.1552581
0.15523439
0.15521161
0.15518983
0.15516907
0.15514937
0.15513068
0.15511308
0.15509668
0.15508146
0.1550674
0.15505451
0.1550428
0.15503237
0.15502303
0.15501501
0.15500781
0.15500244
0.15499745
0.1549963
0.15499007
0.12190168
0.12341533
0.124938
0.12644966
0.12794873
0.12943263
0.13089931
0.13234696
0.13377387
0.13517846
0.13655926
0.13791487
0.13924392
0.1405451
0.14181707
0.14305847
0.14426787
0.14544376
0.14658443
0.14768808
0.14875286
0.14977689
0.15075805
0.15169385
0.15258146
0.15341769
0.15419894
0.15492114
0.15557972
0.15616955
0.15668492
0.15711949
0.15746623
0.15771709
0.15786376
0.15790411
0.15784472
0.15766291
0.15736674
0.15699216
0.15658184
0.15619559
0.15589098
0.15570608
0.15563857
0.15564482
0.15568752
0.15574891
0.15580983
0.15587448
0.15593728
0.15599476
0.15604638
0.15609249
0.15613372
0.15617021
0.15619946
0.1562245
0.15624744
0.15626705
0.1562767
0.15628125
0.15628877
0.15628909
0.15628149
0.15627531
0.15626604
0.15625269
0.15623923
0.15622195
0.15620342
0.15618643
0.15616415
0.15614052
0.15611936
0.15609339
0.15606646
0.1560414
0.15601276
0.15598395
0.15595609
0.1559257
0.15589573
0.1558667
0.15583555
0.15580504
0.15577548
0.15574469
0.15571395
0.15568389
0.15565327
0.15562262
0.15559246
0.1555621
0.15553184
0.15550196
0.15547222
0.15544295
0.15541434
0.15538634
0.15535899
0.15533243
0.15530661
0.15528154
0.15525724
0.15523369
0.1552109
0.1551889
0.15516773
0.15514748
0.15512817
0.15510983
0.15509243
0.15507601
0.15506069
0.15504647
0.15503332
0.15502124
0.15501025
0.15500045
0.15499168
0.15498412
0.15497733
0.15497225
0.15496753
0.1549665
0.15496036
0.12171721
0.12318638
0.12466488
0.12613463
0.12759401
0.1290404
0.13047172
0.13188615
0.13328199
0.13465766
0.13601162
0.13734238
0.13864847
0.13992842
0.14118073
0.14240386
0.14359617
0.14475592
0.1458812
0.14696996
0.14802009
0.14902944
0.14999557
0.15091567
0.1517866
0.1526048
0.15336632
0.15406674
0.15470112
0.15526401
0.15574946
0.15615103
0.15646177
0.15667324
0.15677614
0.15677925
0.15668228
0.15646172
0.15615462
0.15579989
0.15545436
0.15517758
0.15500506
0.15494951
0.15497678
0.15504212
0.15512594
0.1552171
0.1553091
0.15539757
0.1554806
0.15555696
0.15562658
0.15568985
0.15574731
0.15579904
0.15584412
0.15588414
0.1559204
0.15595176
0.15597495
0.15599313
0.15601147
0.15602331
0.15602634
0.1560301
0.15603219
0.15602707
0.1560215
0.15601446
0.15600342
0.15599416
0.15598018
0.15596314
0.15594914
0.15593049
0.15590947
0.15589036
0.15586813
0.15584494
0.15582264
0.15579761
0.15577232
0.15574819
0.15572174
0.15569546
0.15567016
0.15564344
0.15561648
0.15559017
0.15556318
0.15553593
0.15550913
0.15548198
0.1554548
0.15542793
0.15540106
0.15537453
0.1553486
0.15532315
0.15529826
0.15527405
0.15525049
0.15522756
0.1552053
0.15518369
0.15516274
0.15514246
0.15512294
0.15510424
0.1550864
0.15506945
0.15505335
0.15503814
0.15502393
0.15501073
0.15499849
0.15498724
0.15497699
0.15496783
0.15495962
0.15495254
0.15494616
0.15494137
0.15493692
0.15493602
0.15492997
0.12160699
0.12303157
0.12446453
0.12588957
0.12730582
0.12871087
0.13010276
0.13147974
0.13284019
0.13418251
0.13550515
0.13680655
0.13808515
0.13933933
0.14056743
0.14176773
0.14293839
0.14407746
0.14518279
0.14625208
0.14728299
0.14827304
0.14921946
0.15011914
0.15096857
0.15176384
0.15250061
0.1531741
0.15377901
0.15430962
0.1547598
0.15512322
0.15539333
0.15556128
0.15562083
0.15558902
0.15545265
0.15521161
0.15491997
0.1546212
0.1543793
0.15423599
0.15419964
0.15424734
0.15433937
0.15445046
0.15457187
0.15469379
0.15481053
0.15492042
0.15502288
0.15511764
0.15520488
0.15528502
0.15535852
0.15542553
0.15548589
0.1555405
0.1555901
0.1556341
0.15567089
0.15570232
0.15573079
0.15575312
0.15576872
0.15578254
0.15579428
0.1557983
0.15580137
0.15580432
0.15580127
0.15579846
0.15579347
0.15578375
0.1557759
0.15576508
0.15575034
0.1557366
0.1557212
0.15570381
0.15568688
0.15566741
0.15564683
0.15562756
0.155606
0.15558398
0.15556293
0.15554042
0.15551729
0.15549478
0.15547148
0.15544769
0.15542427
0.15540038
0.15537634
0.15535252
0.15532856
0.15530483
0.15528162
0.15525877
0.15523636
0.15521454
0.15519327
0.15517252
0.15515232
0.15513267
0.15511359
0.15509508
0.15507722
0.15506009
0.15504375
0.15502821
0.15501344
0.15499945
0.15498637
0.1549742
0.1549629
0.1549525
0.15494299
0.15493448
0.15492685
0.15492025
0.15491429
0.1549098
0.15490562
0.15490484
0.15489889
0.12156066
0.12294015
0.12432798
0.12570609