/*--------------------------------*- C++ -*----------------------------------*\
| =========                 |                                                 |
| \\      /  F ield         | OpenFOAM: The Open Source CFD Toolbox           |
|  \\    /   O peration     | Version:  2406                                  |
|   \\  /    A nd           | Website:  www.openfoam.com                      |
|    \\/     M anipulation  |                                                 |
\*---------------------------------------------------------------------------*/
FoamFile
{
    version     2.0;
    format      ascii;
    arch        "LSB;label=32;scalar=64";
    class       volVectorField;
    location    "0.004";
    object      U;
}
// * * * * * * * * * * * * * * * * * * * * * * * * * * * * * * * * * * * * * //

dimensions      [0 1 -1 0 0 0 0];

internalField   nonuniform List<vector> 
92813
(
(42.228646 30.684312 -4.3236138e-21)
(43.251207 29.895148 1.5951319e-20)
(44.225897 29.142703 -9.4984759e-21)
(45.139868 28.417817 -9.5152039e-21)
(45.985731 27.694096 -7.7776456e-21)
(46.773889 26.977088 6.0872739e-21)
(47.510499 26.274651 4.5669695e-21)
(48.200717 25.592038 0)
(48.851018 24.932873 -2.1777319e-21)
(49.468372 24.299031 -8.8986697e-25)
(50.059368 23.690848 -8.4966194e-22)
(50.629847 23.107526 -4.4108586e-22)
(51.185918 22.54711 0)
(51.729645 22.007099 0)
(52.261218 21.485229 4.0117371e-22)
(52.776678 20.979442 -4.8462867e-25)
(53.270897 20.488415 -4.4753269e-21)
(53.739007 20.012268 -3.446302e-21)
(54.179699 19.551617 2.3341787e-25)
(54.59068 19.108318 -1.0804402e-20)
(54.973585 18.682953 0)
(55.333147 18.273808 0)
(55.671394 17.879762 0)
(55.989404 17.499734 5.0173385e-21)
(56.287805 17.132585 -9.8974332e-21)
(56.566939 16.777144 -4.8880639e-21)
(56.826938 16.432215 0)
(57.067759 16.096579 0)
(57.289221 15.768993 4.7689687e-21)
(57.491004 15.448172 -1.4251215e-20)
(57.672605 15.132851 -9.4887181e-21)
(57.833647 14.82187 4.7511745e-21)
(57.974534 14.512906 -1.4311999e-20)
(58.09267 14.205739 0)
(58.183343 13.898211 0)
(58.248163 13.591325 -1.4717902e-20)
(58.29177 13.27783 1.003922e-20)
(58.308586 12.958928 -1.0304776e-20)
(58.295581 12.632827 1.0620254e-20)
(58.250862 12.295887 -2.7546393e-20)
(58.171798 11.945508 -4.0333412e-20)
(58.055087 11.578208 1.2163484e-20)
(57.896548 11.189759 3.2466511e-20)
(57.690804 10.774965 2.8096226e-20)
(57.430913 10.327388 7.7177537e-21)
(57.108109 9.8393071 2.591924e-20)
(56.713134 9.3025225 0)
(56.246345 8.7136022 0)
(55.751455 8.1068727 0)
(55.345239 7.5946253 5.5426346e-20)
(55.104894 7.2362662 5.6628485e-20)
(54.966094 6.9658663 5.6211138e-20)
(54.861806 6.7288669 1.3802547e-20)
(54.767333 6.5074542 -1.3503572e-20)
(54.676167 6.2967344 5.2756028e-20)
(54.586959 6.0949415 -6.4325923e-20)
(54.499568 5.9013443 -3.1334382e-20)
(54.413971 5.7155195 4.6262432e-25)
(54.330003 5.5369699 -1.0076062e-19)
(54.247407 5.3650414 0)
(54.16581 5.199051 8.4171983e-20)
(54.084881 5.0383994 -8.7635981e-20)
(54.004546 4.8826924 5.3599769e-21)
(53.924982 4.7318202 8.9378456e-20)
(53.846526 4.5858208 7.7467921e-20)
(53.769651 4.4447407 5.0770091e-21)
(53.694649 4.3085953 6.9888959e-20)
(53.621627 4.1772817 1.5706905e-19)
(53.550682 4.0506333 9.6524549e-21)
(53.481875 3.9284635 -4.7429552e-21)
(53.415301 3.8105323 7.9239324e-20)
(53.350936 3.6967018 -9.1596484e-21)
(53.288732 3.5867414 7.6483584e-20)
(53.228781 3.4804074 7.5122055e-20)
(53.171149 3.377475 1.6527653e-25)
(53.115844 3.2777702 1.3635649e-19)
(53.062877 3.1810622 -4.1834293e-21)
(53.012242 3.0871958 1.2731413e-19)
(52.963923 2.9959749 8.0626127e-21)
(52.917865 2.9072685 -3.9567645e-21)
(52.874018 2.8209133 -1.2427002e-19)
(52.8323 2.7367973 0)
(52.792631 2.6547886 -1.2342341e-19)
(52.754919 2.5747914 -1.1377515e-19)
(52.719062 2.4967014 9.042027e-25)
(52.685004 2.4204144 0)
(52.652709 2.3458424 -1.0747537e-19)
(52.622152 2.2728952 -3.4013624e-21)
(52.593317 2.2014822 7.3252617e-25)
(52.566186 2.1315069 0)
(52.540736 2.0628729 0)
(52.516931 1.9954858 -2.0159449e-19)
(52.494735 1.9292579 -1.2562957e-24)
(52.474113 1.8641125 -3.0305738e-21)
(52.45503 1.7999806 5.9448574e-21)
(52.43745 1.7367979 1.8075225e-19)
(52.421329 1.6745044 1.8299561e-19)
(52.406618 1.6130468 -1.7666935e-19)
(52.393259 1.5523743 0)
(52.38119 1.4924486 -1.7262116e-19)
(52.370352 1.4332344 0)
(52.360683 1.3747069 1.6342646e-19)
(52.352132 1.3168467 2.5438958e-21)
(52.34466 1.2596389 0)
(52.33823 1.2030719 -1.5657791e-19)
(52.332816 1.1471391 0)
(52.32838 1.0918317 1.5058011e-19)
(52.324886 1.0371293 -1.4882108e-19)
(52.322279 0.98300869 2.262677e-21)
(52.32049 0.92942369 -1.1094178e-21)
(52.319434 0.87631553 0)
(52.319005 0.82362645 0)
(52.319199 0.77131778 2.6678844e-19)
(52.319972 0.71912821 -6.0918065e-26)
(52.321143 0.66710588 -2.564892e-19)
(52.322691 0.61508739 0)
(52.324608 0.56307435 2.3571517e-24)
(52.326819 0.51103535 0)
(52.329165 0.45891826 -2.3810614e-19)
(52.331604 0.40664343 -2.3496094e-24)
(52.333944 0.35417726 0)
(52.336223 0.30129831 -2.2426118e-19)
(52.338166 0.24817125 2.1989859e-19)
(52.340019 0.19409534 0)
(52.341333 0.14027716 0)
(52.342684 0.083717955 2.0751949e-19)
(52.342481 0.029790885 -2.0322204e-19)
(41.496199 30.156734 -5.3015012e-21)
(42.577325 29.395268 -1.5340663e-20)
(43.563905 28.711217 0)
(44.482278 28.046422 -9.2762152e-21)
(45.343768 27.385094 1.7704153e-20)
(46.154544 26.729909 -8.4715664e-21)
(46.918827 26.086294 6.8217963e-24)
(47.640508 25.45813 0)
(48.32401 24.848285 7.5139903e-21)
(48.974276 24.25864 1.4480915e-20)
(49.596425 23.689987 -2.4066614e-24)
(50.195333 23.141991 1.3534319e-20)
(50.775117 22.613003 0)
(51.337685 22.100586 -6.3672348e-21)
(51.882871 21.602482 1.238019e-20)
(52.408552 21.116985 -3.1424677e-24)
(52.911836 20.643243 5.8749132e-21)
(53.390084 20.181569 5.7385818e-21)
(53.842143 19.732862 0)
(54.267423 19.298209 0)
(54.666749 18.878261 5.4007797e-21)
(55.042127 18.472716 1.3793205e-24)
(55.395029 18.080862 -5.2272121e-21)
(55.726455 17.701747 -5.1530137e-21)
(56.037041 17.334323 1.0179298e-20)
(56.327159 16.977506 -5.0390113e-21)
(56.596969 16.630178 4.9955998e-21)
(56.846459 16.291191 9.9290703e-21)
(57.075473 15.959363 -4.9427234e-21)
(57.283721 15.63347 1.4796416e-20)
(57.470781 15.312267 -4.9342144e-21)
(57.636237 14.994503 4.9497318e-21)
(57.779908 14.678305 -9.9552586e-21)
(57.899763 14.362883 5.0225868e-21)
(57.992488 14.044233 -1.5197011e-20)
(58.057946 13.728529 2.056538e-20)
(58.100291 13.404053 0)
(58.11452 13.073425 1.0837532e-20)
(58.097797 12.734431 5.5938717e-21)
(58.047898 12.383172 2.3255975e-20)
(57.961952 12.016907 -1.2182903e-20)
(57.836356 11.631825 6.4395278e-21)
(57.666506 11.223252 -2.0656499e-20)
(57.446473 10.785388 -7.4598125e-21)
(57.168675 10.311052 3.2824684e-20)
(56.824033 9.7918175 0)
(56.40565 9.2195999 0)
(55.926843 8.5982051 3.55541e-20)
(55.460832 7.9921692 6.5728939e-20)
(55.13235 7.5286102 -1.3849814e-20)
(54.959962 7.2161275 -4.1907195e-20)
(54.853191 6.9661993 -5.5204913e-20)
(54.762402 6.7366305 0)
(54.675325 6.518421 0)
(54.589681 6.309601 -5.1724687e-20)
(54.505306 6.1092535 3.7846313e-20)
(54.422382 5.9169134 6.1462364e-20)
(54.340931 5.7321691 0)
(54.260754 5.5544094 1.164084e-20)
(54.1816 5.382858 -1.1328803e-20)
(54.103148 5.2168058 1.1043905e-20)
(54.025153 5.0557386 7.5528066e-20)
(53.947645 4.8994053 -8.982265e-20)
(53.870873 4.7478332 5.1867163e-21)
(53.795185 4.6011462 -1.5789968e-19)
(53.721031 4.4594207 8.0113842e-20)
(53.648658 4.3226647 -1.575296e-19)
(53.578138 4.1907613 -8.2274519e-20)
(53.509564 4.0635325 -7.6117057e-20)
(53.442989 3.9407939 7.948527e-20)
(53.378518 3.8222973 -9.1886791e-21)
(53.316133 3.7079103 4.5136849e-21)
(53.25578 3.5974085 0)
(53.197558 3.4905461 0)
(53.141548 3.3870974 -1.3684274e-19)
(53.087762 3.2868931 -1.3436022e-19)
(53.036214 3.1896974 4.1222661e-21)
(52.98691 3.0953579 -1.3353758e-19)
(52.93984 3.0036728 1.2710759e-19)
(52.894957 2.9145144 3.8987147e-21)
(52.852214 2.8277163 -3.8262975e-21)
(52.811537 2.7431661 0)
(52.77285 2.6607295 -1.2161012e-19)
(52.736067 2.5803107 1.1571893e-19)
(52.701088 2.5018074 -1.1000168e-19)
(52.667863 2.4251158 0)
(52.636359 2.3501504 -8.4996837e-25)
(52.606555 2.2768216 0)
(52.578432 2.2050403 -1.0522663e-19)
(52.551975 2.1347105 0)
(52.527159 2.0657364 1.0127048e-19)
(52.503952 1.9980243 9.9341701e-20)
(52.48232 1.931487 3.8979088e-19)
(52.462229 1.8660483 2.9871245e-21)
(52.443646 1.8016394 1.8458894e-19)
(52.426537 1.7381955 -3.6785569e-19)
(52.410858 1.675656 2.8200335e-21)
(52.39656 1.6139672 1.7141095e-19)
(52.383586 1.5530775 -1.7083181e-19)
(52.371874 1.492949 1.7020654e-19)
(52.361368 1.4335468 0)
(52.352006 1.3748463 1.1751946e-24)
(52.343739 1.3168287 0)
(52.336527 1.2594787 0)
(52.330337 1.2027841 0)
(52.325141 1.1467372 1.5146934e-19)
(52.320906 1.0913276 1.1605809e-21)
(52.317592 1.0365344 -1.1381627e-21)
(52.315147 0.98233361 1.4399856e-19)
(52.313499 0.92868042 -2.8135313e-19)
(52.312567 0.87551844 1.0736876e-21)
(52.312246 0.82277936 2.6955825e-19)
(52.312502 0.77040858 -1.0326105e-21)
(52.313322 0.71822542 0)
(52.314552 0.66623921 2.5519066e-19)
(52.316129 0.61422328 -1.9478603e-21)
(52.31806 0.56222889 -4.8805742e-19)
(52.320277 0.51021113 0)
(52.322622 0.45813724 -2.3980998e-24)
(52.325049 0.40591187 2.3104215e-19)
(52.327374 0.35350753 -4.4164926e-22)
(52.329633 0.30070357 2.2175225e-19)
(52.331556 0.24765922 -4.3492438e-19)
(52.333396 0.19368256 0)
(52.33468 0.1399504 0)
(52.336037 0.083528697 -4.7835919e-23)
(52.335806 0.029712105 4.9038501e-23)
(40.720752 29.471076 -1.3813034e-23)
(41.774883 28.805704 -9.4820028e-21)
(42.768465 28.210574 -4.5391992e-21)
(43.704792 27.619864 4.3482308e-21)
(44.589501 27.026469 8.3555239e-21)
(45.426788 26.435327 -8.0344396e-21)
(46.220121 25.851583 -7.7378561e-21)
(46.972834 25.278605 -7.4609962e-21)
(47.688512 24.718891 3.113849e-24)
(48.371057 24.174221 0)
(49.024522 23.645515 1.7112228e-24)
(49.65281 23.132744 -6.079317e-25)
(50.259181 22.634852 1.2173152e-24)
(50.845383 22.150099 -6.2030494e-21)
(51.411565 21.676697 1.2090895e-20)
(51.956535 21.213262 -1.180026e-20)
(52.47841 20.759155 1.1534553e-20)
(52.975335 20.314614 0)
(53.446291 19.880365 -5.5335439e-21)
(53.890898 19.457273 -5.4322281e-21)
(54.309548 19.046092 -6.9437468e-25)
(54.703348 18.647014 -5.2581083e-21)
(55.073465 18.259678 5.1862576e-21)
(55.420818 17.8834 -1.02525e-20)
(55.746049 17.517332 0)
(56.049555 17.160538 0)
(56.331529 16.812017 9.9923253e-21)
(56.591995 16.470716 -9.9425764e-21)
(56.830824 16.135526 -4.9596025e-21)
(57.047757 15.805287 -4.9567928e-21)
(57.242401 15.47878 9.9353557e-21)
(57.414298 15.154707 -9.9834475e-21)
(57.562965 14.831395 1.5092842e-20)
(57.686802 14.508053 5.0882768e-21)
(57.783519 14.179676 1.5421255e-20)
(57.85148 13.854315 2.7302949e-24)
(57.894478 13.518721 5.375424e-21)
(57.908019 13.176082 -5.5374933e-21)
(57.889366 12.823763 -5.733078e-21)
(57.836007 12.457634 -2.3906295e-20)
(57.744836 12.07474 2.5128134e-20)
(57.611945 11.670936 -2.6674093e-20)
(57.432329 11.241105 2.8639337e-20)
(57.199592 10.778928 0)
(56.905802 10.276805 4.3048403e-20)
(56.542597 9.7265572 8.875042e-25)
(56.108826 9.1234533 4.3844317e-20)
(55.637077 8.489836 -1.1115518e-19)
(55.226922 7.9277591 -9.3914108e-20)
(54.975998 7.5364367 1.19641e-24)
(54.842282 7.2563729 -1.3831238e-20)
(54.747933 7.0118021 4.0832452e-20)
(54.663878 6.7815523 6.6666099e-20)
(54.582708 6.5616599 0)
(54.50257 6.3509328 5.0906307e-20)
(54.423339 6.1486243 2.4136806e-24)
(54.345233 5.9543384 1.2094607e-20)
(54.268244 5.7676739 8.2409689e-20)
(54.192115 5.5880238 0)
(54.116599 5.4146284 0)
(54.04145 5.2468217 1.0885676e-20)
(53.966519 5.08414 -1.0643829e-20)
(53.891942 4.9263615 1.5646775e-19)
(53.818031 4.7735146 -7.167603e-20)
(53.745133 4.6256923 1.0059503e-20)
(53.673682 4.4829248 -9.8884003e-21)
(53.603898 4.345177 -1.894097e-24)
(53.535831 4.2123088 0)
(53.469573 4.0841287 -4.6978185e-21)
(53.40517 3.9604576 -6.9247613e-20)
(53.342746 3.841038 -4.5361177e-21)
(53.282291 3.7257443 4.4560904e-21)
(53.223736 3.6143645 7.441043e-20)
(53.167188 3.5066506 1.6441784e-25)
(53.112742 3.4023752 1.3507285e-19)
(53.060414 3.3013751 -4.1442746e-21)
(53.010228 3.2034095 -4.0686524e-21)
(52.962195 3.108329 3.993769e-21)
(52.916315 3.0159247 -1.2544348e-19)
(52.872547 2.9260723 0)
(52.830852 2.838602 -3.7760888e-21)
(52.791159 2.7533999 -9.388261e-26)
(52.7534 2.670329 3.6353023e-21)
(52.717492 2.5892919 -1.1061993e-19)
(52.683337 2.5101888 -3.5013606e-21)
(52.650889 2.4329158 3.4355768e-21)
(52.620119 2.3573884 1.0786464e-19)
(52.591004 2.2835178 -6.6142109e-21)
(52.563527 2.2112155 -1.0057977e-19)
(52.537673 2.1403864 0)
(52.51342 2.0709346 -9.9916612e-20)
(52.490736 2.0027671 0)
(52.469591 1.935797 -3.0031665e-21)
(52.449953 1.8699476 2.947055e-21)
(52.431794 1.80515 -1.8500476e-19)
(52.415077 1.7413383 3.6292338e-19)
(52.399763 1.6784515 -1.8076253e-19)
(52.385803 1.6164348 5.455192e-21)
(52.373141 1.5552357 1.6853673e-19)
(52.361718 1.4948167 -1.6792129e-19)
(52.35148 1.4351427 -2.5733297e-21)
(52.342367 1.3761894 -1.6151983e-19)
(52.334331 1.3179384 -1.5346055e-19)
(52.327337 1.2603737 -4.8549752e-21)
(52.321353 1.2034822 2.380667e-21)
(52.316353 1.1472548 -1.4942966e-19)
(52.312304 1.0916795 0)
(52.309169 1.0367347 1.1228956e-21)
(52.306894 0.98239593 -1.4205778e-19)
(52.305409 0.92861929 -2.444957e-24)
(52.304632 0.8753508 0)
(52.304459 0.82251981 -2.6592245e-19)
(52.304833 0.77005481 2.6074195e-19)
(52.305761 0.71782833 2.5567368e-19)
(52.307105 0.66580555 -2.5077945e-19)
(52.308779 0.61375198 -2.4500425e-19)
(52.310796 0.56174129 -2.3730197e-24)
(52.313093 0.50971796 -1.3859899e-21)
(52.315513 0.45764796 2.319695e-19)
(52.318004 0.40544092 4.4428924e-22)
(52.320387 0.35306316 0)
(52.322693 0.30030248 0)
(52.324658 0.24730874 2.1452719e-19)
(52.326538 0.19339868 2.1037728e-19)
(52.327835 0.13973777 0)
(52.329227 0.083396258 -4.0463879e-19)
(52.328989 0.029664856 0)
(40.075165 28.747961 8.983111e-21)
(41.101701 28.173605 -8.8124792e-21)
(42.087933 27.664099 4.2398316e-21)
(43.028881 27.150985 0)
(43.925251 26.628851 -7.885271e-21)
(44.778975 26.103449 1.5239577e-20)
(45.592253 25.580214 7.3676256e-21)
(46.367491 25.062579 -7.1392875e-21)
(47.107392 24.553026 0)
(47.814929 24.053378 6.7207492e-21)
(48.4932 23.564728 0)
(49.145178 23.087376 -6.3586623e-21)
(49.773355 22.62084 1.2173905e-24)
(50.379247 22.164085 -6.045217e-21)
(50.963262 21.715925 0)
(51.524816 21.275403 0)
(52.062728 20.842079 1.229373e-24)
(52.575728 20.416108 -5.5510715e-21)
(53.062967 19.998039 5.4540506e-21)
(53.524055 19.588584 5.3656753e-21)
(53.959156 19.188423 -7.9557677e-25)
(54.368953 18.797906 0)
(54.75428 18.416941 -5.1541781e-21)
(55.11588 18.045115 5.0976455e-21)
(55.45431 17.681804 5.0591897e-21)
(55.769939 17.326245 5.023474e-21)
(56.062954 16.977578 -1.9997541e-20)
(56.333386 16.634855 0)
(56.581115 16.297057 -4.9816592e-21)
(56.805886 15.963086 4.9885714e-21)
(57.007308 15.631764 -1.5029282e-20)
(57.184875 15.301784 5.0428526e-21)
(57.337943 14.971606 0)
(57.465166 14.640526 -1.5479476e-20)
(57.564959 14.302842 -5.2266007e-21)
(57.634758 13.967659 -5.326038e-21)
(57.677888 13.620626 -2.1960772e-20)
(57.690028 13.265658 2.2697087e-20)
(57.668625 12.899508 8.0665284e-25)
(57.610891 12.517885 -3.0809561e-20)
(57.513448 12.117573 0)
(57.372031 11.694083 2.7709759e-20)
(57.181187 11.24188 -2.9886754e-20)
(56.934052 10.754229 0)
(56.622589 10.223432 -4.534831e-20)
(56.240452 9.6425044 1.020523e-20)
(55.79643 9.0140212 -5.7681145e-20)
(55.347531 8.3885184 7.6822739e-20)
(55.007572 7.8878743 9.5122131e-20)
(54.822344 7.5476858 0)
(54.718071 7.2821717 4.0986645e-20)
(54.636991 7.0412597 1.3414086e-20)
(54.561076 6.812351 -1.3125397e-20)
(54.486302 6.5928998 1.282801e-20)
(54.41181 6.3821922 1.2523131e-20)
(54.337805 6.1796856 -1.2208717e-20)
(54.264603 5.9850569 0)
(54.192162 5.7978743 4.0868559e-24)
(54.120169 5.6174848 1.1275407e-20)
(54.048391 5.443122 -1.0988484e-20)
(53.976662 5.2741866 0)
(53.904931 5.1103159 1.0501189e-20)
(53.833425 4.9513699 -1.7504388e-19)
(53.762514 4.7974214 -1.011107e-20)
(53.692539 4.6485685 9.9335658e-21)
(53.623914 4.5048257 -6.8370773e-20)
(53.556833 4.3661351 -9.6036255e-21)
(53.491328 4.2323464 -7.5507609e-20)
(53.427491 4.103259 0)
(53.365364 3.9787026 0)
(53.305084 3.85841 0)
(53.246656 3.7422592 -6.598012e-20)
(53.189997 3.630053 1.3558412e-24)
(53.135215 3.5215406 -4.2425727e-21)
(53.082424 3.4164913 0)
(53.031643 3.3147486 -1.3088117e-19)
(52.9829 3.216066 -4.0151414e-21)
(52.936219 3.120296 1.3005903e-19)
(52.891605 3.0272229 -3.8683462e-21)
(52.849025 2.9367247 -1.176929e-19)
(52.808446 2.8486295 -1.1922818e-19)
(52.769802 2.7628209 0)
(52.73303 2.6791595 2.3321491e-19)
(52.698055 2.5975459 1.0561889e-19)
(52.66478 2.5178833 3.4544532e-21)
(52.633162 2.4400673 -1.0846262e-19)
(52.603177 2.3640144 -1.0641606e-19)
(52.574803 2.2896365 0)
(52.548023 2.2168456 9.922416e-20)
(52.522821 2.1455476 3.139982e-21)
(52.499178 2.0756468 0)
(52.477064 2.0070507 9.3668438e-20)
(52.45645 1.9396729 -1.8375959e-19)
(52.43731 1.8734365 6.4118518e-26)
(52.419614 1.8082723 1.8250231e-19)
(52.40333 1.7441138 -3.6080589e-19)
(52.388418 1.6808992 0)
(52.374831 1.618573 1.7220059e-19)
(52.362514 1.5570821 0)
(52.351411 1.4963891 1.6305397e-19)
(52.341469 1.4364592 5.0767323e-21)
(52.33263 1.3772682 -2.4894523e-21)
(52.324851 1.3187982 -1.2091872e-24)
(52.318095 1.2610327 -1.5324965e-19)
(52.312334 1.2039577 -1.4794821e-19)
(52.307544 1.1475625 -2.3030654e-21)
(52.303693 1.0918335 0)
(52.300745 1.0367485 0)
(52.298646 0.98228257 -1.3904083e-19)
(52.297326 0.92839247 2.7271918e-19)
(52.296703 0.87502669 0)
(52.296674 0.82211316 0)
(52.297165 0.7695605 -2.5819489e-19)
(52.298193 0.71730253 -5.0342125e-19)
(52.299639 0.66524561 9.6634655e-22)
(52.3014 0.61317134 4.8522962e-19)
(52.303493 0.56115353 4.7491831e-19)
(52.305856 0.50913127 -2.3332442e-19)
(52.308338 0.45707464 0)
(52.310881 0.40489375 -4.382591e-22)
(52.313308 0.35255246 -2.1961173e-19)
(52.31565 0.29984323 0)
(52.317646 0.24691001 0)
(52.319555 0.19307656 -2.0730689e-19)
(52.32086 0.13949339 -2.9808237e-22)
(52.322278 0.083246949 1.9966021e-19)
(52.322034 0.02961135 0)
(39.530082 28.013548 4.1654188e-21)
(40.529619 27.521222 8.2138702e-21)
(41.500767 27.089566 -3.9753374e-21)
(42.437089 26.650552 7.69673e-21)
(43.336555 26.198283 -7.4597371e-21)
(44.198966 25.737949 -7.2371675e-21)
(45.025044 25.274792 0)
(45.816086 24.812218 -1.2118289e-24)
(46.573845 24.352724 6.6496087e-21)
(47.300398 23.898214 3.5034565e-24)
(47.997984 23.449973 6.3168432e-21)
(48.668785 23.008632 6.1631359e-21)
(49.314653 22.574207 1.7429796e-24)
(49.936825 22.146258 5.8942696e-21)
(50.535795 21.72416 5.7728794e-21)
(51.111348 21.307378 -2.2830021e-25)
(51.662804 20.895681 -5.5587204e-21)
(52.189336 20.48922 1.2365427e-24)
(52.6903 20.088439 1.1537766e-24)
(53.165356 19.693922 -5.3033149e-21)
(53.61454 19.306254 -3.5738435e-25)
(54.038227 18.925822 5.1760007e-21)
(54.436951 18.552706 -5.1819444e-25)
(54.811242 18.186701 1.5243569e-20)
(55.16153 17.827378 -1.5143184e-20)
(55.48811 17.474148 -1.0049389e-20)
(55.791131 17.126286 1.5023745e-20)
(56.070597 16.782961 0)
(56.326376 16.443244 0)
(56.558196 16.106109 1.5082314e-20)
(56.765646 15.770421 -5.0593351e-21)
(56.948168 15.4349 -5.1028998e-21)
(57.105019 15.098114 -2.0654077e-20)
(57.234972 14.759387 5.2426506e-21)
(57.336965 14.412435 1.5962195e-20)
(57.40788 14.06738 5.43877e-21)
(57.450462 13.708542 -1.1244843e-20)
(57.460364 13.340843 -5.8251266e-21)
(57.435237 12.960225 -2.4276845e-20)
(57.372023 12.562312 3.1850308e-20)
(57.267038 12.143583 6.7480563e-21)
(57.115628 11.699179 -7.223043e-21)
(56.911883 11.223148 0)
(56.648594 10.708435 8.6035009e-21)
(56.318304 10.147627 -9.5878827e-21)
(55.919327 9.5365324 0)
(55.47664 8.8922874 4.8404523e-20)
(55.074452 8.3006069 -1.3159913e-20)
(54.815929 7.8700651 -2.7304258e-20)
(54.683227 7.5681454 -1.3674223e-20)
(54.598923 7.3129387 0)
(54.526814 7.0742485 -6.6063968e-20)
(54.457386 6.8455441 -2.5841598e-20)
(54.388538 6.625714 2.5246369e-20)
(54.319618 6.4144249 -3.6957518e-20)
(54.250865 6.211231 -4.8040178e-20)
(54.182596 6.0158372 0)
(54.114709 5.8277803 4.1174091e-24)
(54.046842 5.6463864 1.1097532e-20)
(53.978797 5.4708976 -8.6593976e-20)
(53.910515 5.3007758 -1.0578186e-20)
(53.842042 5.1357365 -8.288181e-20)
(53.773686 4.9756891 8.1308209e-20)
(53.70586 4.8207236 -7.9863091e-20)
(53.638886 4.6709237 1.569761e-19)
(53.573155 4.526281 -7.715473e-20)
(53.508836 4.3867124 7.5840033e-20)
(53.445943 4.2520607 7.4541413e-20)
(53.384576 4.122116 -6.4098678e-20)
(53.32477 3.996719 -8.9970478e-21)
(53.266675 3.875593 -7.071286e-20)
(53.210315 3.7586174 6.9457962e-20)
(53.155591 3.6456132 -7.6743979e-20)
(53.10261 3.5363274 4.1865424e-21)
(53.051507 3.4305256 4.1107529e-21)
(53.002304 3.3280586 1.2914417e-19)
(52.955035 3.2286754 0)
(52.909731 3.1322306 -1.2443511e-19)
(52.866405 3.0385013 3.8166479e-21)
(52.825036 2.947368 1.1986059e-19)
(52.785592 2.8586575 1.1762615e-19)
(52.748016 2.7722512 -3.6070832e-21)
(52.712247 2.6880073 -2.2653093e-19)
(52.67822 2.6058239 1.1113944e-19)
(52.64584 2.5256075 0)
(52.615067 2.4472535 1.069919e-19)
(52.58588 2.3706794 1.0169078e-19)
(52.558257 2.2957971 3.2182537e-21)
(52.532184 2.2225196 9.787542e-20)
(52.507644 2.1507535 3.097233e-21)
(52.484618 2.0804037 0)
(52.46308 2.0113783 7.2074737e-25)
(52.443004 1.9435917 2.923459e-21)
(52.424366 1.8769669 -1.863899e-19)
(52.407138 1.8114341 -3.6001607e-19)
(52.39129 1.7469263 1.7931551e-19)
(52.376783 1.6833813 -2.7057394e-21)
(52.363571 1.6207428 -3.3968746e-19)
(52.351602 1.5589571 1.6397672e-19)
(52.34082 1.4979873 5.1054554e-21)
(52.331176 1.4377985 8.583024e-26)
(52.322615 1.3783671 9.0450976e-26)
(52.315093 1.3196756 1.5170896e-19)
(52.308578 1.2617068 1.5350916e-19)
(52.303043 1.2044458 -2.3173462e-21)
(52.298467 1.1478805 1.4537842e-19)
(52.294817 1.0919955 -1.1138994e-21)
(52.29206 1.0367679 1.420125e-19)
(52.290142 0.98217257 2.7212059e-19)
(52.288993 0.92816656 2.1013748e-21)
(52.288531 0.87470091 -2.0608564e-21)
(52.288651 0.82170274 -6.0065102e-26)
(52.289269 0.76906007 -2.5365917e-19)
(52.290406 0.71677493 2.4971766e-19)
(52.291958 0.66467314 -2.4398847e-19)
(52.293815 0.61258192 -2.392794e-19)
(52.29599 0.56055509 2.4446791e-24)
(52.298429 0.50853496 2.3011492e-19)
(52.300981 0.45649184 0)
(52.303581 0.40433748 2.2129991e-19)
(52.306061 0.35203312 2.1743794e-19)
(52.308445 0.29937678 1.6688197e-26)
(52.310478 0.24650474 -2.0910602e-19)
(52.312419 0.19274991 0)
(52.313738 0.1392457 -2.0069615e-19)
(52.315183 0.083095859 4.8052178e-23)
(52.314935 0.029559166 -4.7063535e-23)
(39.071947 27.276719 0)
(40.04474 26.860015 -3.8409516e-21)
(40.997177 26.49934 7.4718493e-21)
(41.923109 26.129199 -7.2691033e-21)
(42.818984 25.743272 -1.4142959e-20)
(43.683117 25.345639 2.0668076e-20)
(44.515083 24.940917 6.7137566e-21)
(45.315238 24.532273 -1.3100455e-20)
(46.084484 24.122139 6.3935216e-21)
(46.824099 23.712462 -1.249705e-20)
(47.535569 23.304684 -1.2223673e-20)
(48.220398 22.899719 5.9848058e-21)
(48.879902 22.497988 -1.1726442e-20)
(49.515018 22.099535 0)
(50.126191 21.704198 0)
(50.713387 21.311812 0)
(51.276218 20.922361 0)
(51.814144 20.536048 0)
(52.326685 20.153273 -1.0620413e-20)
(52.813557 19.774539 -1.0493297e-20)
(53.274717 19.400351 -5.1905002e-21)
(53.710325 19.031101 -5.139813e-21)
(54.120676 18.666965 -1.0202001e-20)
(54.506103 18.30788 0)
(54.866889 17.953575 -5.0441958e-21)
(55.203229 17.603605 1.5085369e-20)
(55.515202 17.257378 0)
(55.802764 16.91417 0)
(56.065743 16.573142 5.0447687e-21)
(56.303833 16.233339 -5.0693851e-21)
(56.516584 15.893675 1.0226082e-20)
(56.703386 15.552912 1.0339017e-20)
(56.863409 15.209725 -2.2825715e-24)
(56.995403 14.863358 0)
(57.098808 14.507016 -1.0857319e-20)
(57.170168 14.151979 0)
(57.211448 13.780933 1.7311761e-20)
(57.218255 13.39998 7.5224176e-25)
(57.188409 13.004107 -9.2443398e-25)
(57.118566 12.588918 3.3039001e-20)
(57.004695 12.150531 -2.8117976e-20)
(56.841726 11.683685 -3.0243594e-20)
(56.623325 11.182024 0)
(56.342231 10.638362 0)
(55.992929 10.046347 0)
(55.582735 9.4083342 -3.4213574e-20)
(55.159634 8.7672295 -6.3014216e-20)
(54.82758 8.2366037 -1.3388296e-20)
(54.645157 7.8703566 -4.087534e-20)
(54.548278 7.5915999 0)
(54.478119 7.3412836 0)
(54.414231 7.1037668 5.2025117e-20)
(54.351449 6.8754767 0)
(54.288663 6.655711 -6.2080748e-20)
(54.225399 6.4442819 1.2111716e-20)
(54.161966 6.2407782 1.1810392e-20)
(54.098685 6.0449133 3.4516276e-20)
(54.035394 5.8561905 -8.9648472e-20)
(53.97169 5.6739387 8.73874e-20)
(53.907428 5.4974386 7.4641049e-20)
(53.842666 5.3262394 1.0429748e-20)
(53.777542 5.1601446 9.1991988e-20)
(53.712431 4.9991082 8.0257646e-20)
(53.647779 4.8432281 -9.8575221e-21)
(53.583885 4.6925671 -7.7488051e-20)
(53.521116 4.5470947 1.5233709e-19)
(53.459617 4.4067057 8.4226378e-20)
(53.399393 4.2712422 -9.1970991e-21)
(53.340549 4.1404846 1.5364156e-19)
(53.283115 4.0142881 3.7435604e-25)
(53.227253 3.8923668 5.2335808e-20)
(53.17301 3.7745979 7.7108777e-20)
(53.120269 3.6608248 0)
(53.069136 3.5507931 0)
(53.019765 3.444263 0)
(52.972182 3.3410944 0)
(52.926426 3.2410322 0)
(52.882536 3.1439325 0)
(52.840535 3.049566 1.1671782e-19)
(52.80041 2.9578144 3.694927e-21)
(52.762132 2.8685047 1.1603227e-19)
(52.725652 2.7815157 0)
(52.690914 2.6967039 1.1172282e-19)
(52.657862 2.6139638 1.0937042e-24)
(52.626401 2.5332061 3.3612335e-21)
(52.596497 2.4543259 -3.2977371e-21)
(52.568131 2.3772414 -1.0676963e-19)
(52.541283 2.3018643 6.3482988e-21)
(52.515938 2.2281083 -6.2269983e-21)
(52.49208 2.1558814 6.1094016e-21)
(52.469693 2.0850887 -9.588844e-20)
(52.44875 2.0156394 7.9137366e-25)
(52.429231 1.9474489 -2.8831324e-21)
(52.411112 1.8804397 1.7816377e-19)
(52.394369 1.8145418 1.80299e-19)
(52.378972 1.7496877 0)
(52.364885 1.6858147 1.7077996e-19)
(52.352062 1.6228659 1.648806e-19)
(52.340453 1.5607871 2.5680592e-21)
(52.330005 1.4995418 0)
(52.32067 1.4390955 -2.4690297e-21)
(52.312397 1.3794249 -1.5255101e-19)
(52.305143 1.3205131 0)
(52.298878 1.2623419 -1.5138672e-19)
(52.293577 1.2048959 4.5670094e-21)
(52.28922 1.1481612 -2.9121155e-19)
(52.285779 1.0921209 2.1968467e-21)
(52.283217 1.0367513 -1.3789026e-19)
(52.281485 0.98202698 -1.3523168e-19)
(52.280511 0.92790522 -2.6525089e-19)
(52.280213 0.87433971 0)
(52.280482 0.82125574 0)
(52.281236 0.76852367 2.4916322e-19)
(52.282483 0.71621929 2.4626598e-19)
(52.284137 0.66406498 2.4155072e-19)
(52.286091 0.61195889 2.3412064e-19)
(52.28835 0.55992505 -2.3049486e-19)
(52.290863 0.50790939 8.8644943e-22)
(52.293484 0.45588257 -4.3460573e-22)
(52.296142 0.40375648 -4.3645855e-19)
(52.298673 0.35149182 -4.1796886e-22)
(52.301098 0.2988914 -2.0986477e-19)
(52.303167 0.24608322 4.1140426e-19)
(52.30514 0.19241095 2.0201786e-19)
(52.306473 0.13898845 3.9582358e-19)
(52.307942 0.082939465 1.9413959e-19)
(52.307692 0.02950652 1.9005618e-19)
(38.691476 26.534506 0)
(39.64053 26.19632 -3.6080347e-21)
(40.572958 25.902535 1.4088603e-20)
(41.484475 25.596223 -1.0318661e-20)
(42.371286 25.272377 6.7225319e-21)
(43.231023 24.934074 -6.5708856e-21)
(44.062567 24.585155 -6.427193e-21)
(44.865586 24.228449 1.2579651e-20)
(45.640293 23.866254 -6.1617524e-21)
(46.387293 23.500502 6.0384426e-21)
(47.107425 23.132731 1.7766785e-20)
(47.801612 22.76406 -1.7441072e-20)
(48.470699 22.395215 1.7136809e-20)
(49.115313 22.026604 -5.6184465e-21)
(49.735777 21.658433 0)
(50.332094 21.290842 0)
(50.904013 20.924014 1.200518e-24)
(51.45115 20.558237 5.3094683e-21)
(51.973127 20.193908 5.2481844e-21)
(52.469687 19.831488 5.1943173e-21)
(52.94073 19.471431 5.1490053e-21)
(53.386269 19.114119 5.1122777e-21)
(53.806412 18.759781 -1.0167508e-20)
(54.201314 18.408449 1.5180901e-20)
(54.571113 18.059967 5.0474607e-21)
(54.915884 17.714009 5.0410405e-21)
(55.235619 17.370093 0)
(55.530202 17.027593 0)
(55.799402 16.685752 1.5264482e-20)
(56.04286 16.343676 -1.5378062e-20)
(56.260074 16.000331 0)
(56.450378 15.654522 5.2495479e-21)
(56.612842 15.305054 1.6006922e-20)
(56.746033 14.950937 0)
(56.850001 14.585024 -5.5526972e-21)
(56.9211 14.219744 -7.6351012e-25)
(56.960123 13.835999 1.7819992e-20)
(56.962831 13.441093 1.8584003e-20)
(56.927134 13.028986 -6.4989356e-21)
(56.849361 12.595297 3.9217066e-24)
(56.72509 12.135727 -3.9088075e-24)
(56.54883 11.644591 3.1778865e-20)
(56.313936 11.115215 0)
(56.013781 10.54072 -9.6406214e-21)
(55.647422 9.9176724 5.3886167e-20)
(55.237525 9.2626483 1.1992413e-20)
(54.859253 8.6540098 9.3162142e-25)
(54.611829 8.20063 -1.3486575e-20)
(54.48926 7.8815286 6.7624448e-20)
(54.416369 7.6157395 8.9100056e-25)
(54.357055 7.3684483 -1.3082834e-20)
(54.300416 7.1318455 -5.1197863e-20)
(54.243934 6.9038823 5.0027718e-20)
(54.187117 6.6841692 4.8843323e-20)
(54.129507 6.4726455 9.5293126e-20)
(54.07141 6.2688878 0)
(54.01312 6.0725966 -4.5249658e-20)
(53.95442 5.8832423 0)
(53.894882 5.7001762 -1.7205276e-19)
(53.834431 5.5227306 -8.4052889e-20)
(53.773248 5.3505456 -1.0284964e-20)
(53.711555 5.183505 1.0084653e-20)
(53.649777 5.0215927 -7.9209741e-20)
(53.588385 4.8649025 8.7554467e-20)
(53.527641 4.7134699 -1.912307e-20)
(53.467896 4.567242 -6.5785565e-20)
(53.409275 4.4260948 -7.389261e-20)
(53.351771 4.2898758 0)
(53.295501 4.1583548 -6.2430375e-20)
(53.240488 4.0314043 -7.8858685e-20)
(53.186903 3.9087302 0)
(53.134823 3.7902034 -7.6077577e-20)
(53.084112 3.6756934 1.6602324e-20)
(53.034868 3.5649457 -8.1507035e-21)
(52.987269 3.4577137 0)
(52.941345 3.3538673 -1.2569085e-19)
(52.897138 3.2531487 -7.7109684e-21)
(52.854696 3.155415 7.5680081e-21)
(52.81405 3.0604312 -1.1883866e-19)
(52.775197 2.9680785 1.2026895e-19)
(52.738115 2.8781859 1.4426399e-24)
(52.702756 2.7906294 -7.0186036e-21)
(52.669073 2.7052644 1.1363193e-19)
(52.637017 2.6219808 -1.0811347e-19)
(52.606498 2.5406942 0)
(52.577484 2.4612997 1.0407225e-19)
(52.549959 2.3837153 9.8911327e-20)
(52.523904 2.3078529 3.1301919e-21)
(52.499305 2.2336264 -9.8264407e-20)
(52.476147 2.1609456 9.3383044e-20)
(52.454413 2.0897161 1.0046689e-19)
(52.434081 2.0198479 -9.5650237e-20)