/*--------------------------------*- C++ -*----------------------------------*\
| =========                 |                                                 |
| \\      /  F ield         | OpenFOAM: The Open Source CFD Toolbox           |
|  \\    /   O peration     | Version:  2406                                  |
|   \\  /    A nd           | Website:  www.openfoam.com                      |
|    \\/     M anipulation  |                                                 |
\*---------------------------------------------------------------------------*/
FoamFile
{
    version     2.0;
    format      ascii;
    arch        "LSB;label=32;scalar=64";
    class       volScalarField;
    location    "0.03";
    object      p;
}
// * * * * * * * * * * * * * * * * * * * * * * * * * * * * * * * * * * * * * //

dimensions      [1 -1 -2 0 0 0 0];

internalField   nonuniform List<scalar> 
2065
(
101088.8
100988.72
100929.71
100859.44
100794.92
100746.92
100718.91
100710.44
100720.28
100745.93
100787.49
100841.79
100907.44
100977.23
101051.72
101126.82
101184
101218.56
101250.96
101277.49
101301.41
101322.63
101342.46
101361.77
101382.48
101403.5
101429.53
101454.64
101481.75
101509.9
101504.5
101280.43
101192.35
101106.66
101015.36
100935.2
100873.08
100830.32
100807.79
100803.8
100816.64
100846.46
100890.73
100947.01
101010.07
101074.84
101143.43
101193.75
101227.76
101258.63
101283.41
101306.07
101326.32
101345.38
101364.13
101384.45
101405.18
101431.08
101456.01
101483.02
101512.11
101506.44
101408.25
101327.75
101234.64
101135.56
101047.7
100976.57
100923.53
100890.44
100876.25
100877.54
100897.64
100933.48
100982.19
101040.73
101098.78
101163.17
101205.94
101239.43
101267.67
101290.35
101311.52
101330.63
101348.79
101366.88
101386.74
101407.15
101432.89
101457.6
101484.53
101514.5
101508.96
101513.17
101437.68
101345.54
101244.72
101152.57
101074.92
101013.6
100970.63
100946.24
100938.45
100949.49
100977.16
101018.7
101072.81
101125.06
101185.04
101220.37
101252.94
101277.92
101298.27
101317.74
101335.56
101352.7
101370.04
101389.37
101409.41
101434.96
101459.42
101486.29
101517.03
101509.22
101603.46
101533.08
101445.51
101347.04
101254.11
101172.94
101105.76
101054.8
101021.31
101005.06
101007.21
101026.51
101060.6
101109.36
101155.4
101209.18
101237.55
101268.27
101289.56
101307.29
101324.83
101341.19
101357.16
101373.64
101392.35
101412
101437.3
101461.49
101488.35
101519.73
101510.85
101677.54
101611.71
101530.98
101438.65
101348.83
101267.66
101197.71
101141.46
101100.91
101077.02
101070.85
101081.93
101108.51
101151.11
101190.4
101235.68
101258.45
101285.39
101302.73
101317.56
101332.9
101347.59
101362.24
101377.75
101395.74
101414.97
101439.95
101463.85
101490.73
101522.58
101513.3
101734.62
101673.92
101600.82
101517.52
101434.27
101356.5
101286.97
101228.37
101183.18
101153.18
101139.78
101143.18
101162.53
101198.41
101230.2
101264.44
101283.7
101304.4
101317.58
101329.24
101342.07
101354.87
101368.03
101382.44
101399.58
101418.36
101442.93
101466.54
101493.44
101525.6
101516.21
101776.57
101721.77
101658.14
101585.15
101510.44
101438.64
101372.38
101314.26
101266.98
101232.84
101213.65
101210.31
101223.01
101251.67
101274.65
101296.13
101312.82
101325.56
101334.26
101342.47
101352.48
101363.12
101374.63
101387.77
101403.94
101422.25
101446.28
101469.61
101496.48
101528.77
101520.03
101808.68
101758.59
101704.09
101642.28
101577.82
101514.17
101453.61
101398.55
101351.66
101315.51
101292.23
101283.42
101290.36
101310.92
101323.3
101333.11
101344.63
101349.13
101352.9
101357.41
101364.25
101372.46
101382.13
101393.85
101408.9
101426.69
101450.07
101473.1
101499.83
101532.1
101527.74
101832.07
101790.51
101743.73
101692.27
101638.95
101584.85
101531.65
101481.57
101437.16
101400.96
101375.37
101362.69
101364.92
101375.25
101375.69
101376.55
101378.32
101375.16
101373.61
101374.17
101377.52
101383.02
101390.64
101400.76
101414.56
101431.76
101454.37
101477.06
101503.53
101535.58
101527.01
101846.7
101824.57
101791.88
101749.41
101703.29
101656.33
101609.77
101565.09
101524.26
101489.51
101463.27
101448.51
101446.57
101443.38
101432.55
101423.6
101413.7
101403.46
101396.51
101392.86
101392.38
101394.95
101400.26
101408.63
101421.02
101437.52
101459.26
101481.54
101507.64
101539.2
101519.24
101884.54
101866.14
101837.49
101803.86
101766.57
101727.87
101688.83
101650.56
101614.56
101582.64
101557.21
101541.14
101532.42
101515.3
101491.4
101469.99
101450.56
101433.95
101421.66
101413.34
101408.93
101408.33
101411.1
101417.52
101428.4
101444.03
101464.83
101486.58
101512.19
101543.03
101527.99
101917.71
101909.17
101894.64
101867.91
101837.1
101805.73
101774.3
101743.15
101712.96
101684.53
101659.01
101636.53
101612.64
101581.02
101546.56
101514.87
101487.89
101465.82
101448.44
101435.66
101427.18
101423.13
101423.2
101427.49
101436.76
101451.34
101471.13
101492.2
101517.19
101547.09
101529.69
102000.51
101991.12
101967.56
101937.17
101908.5
101884.08
101860.68
101836.32
101810.44
101782.29
101751.08
101715.73
101676.3
101634.9
101594.05
101556.83
101524.87
101498.2
101476.39
101459.38
101446.91
101439.35
101436.53
101438.54
101446.15
101459.48
101478.22
101498.46
101522.61
101551.36
101547.01
102048.28
102049.53
102046.99
102034.5
102010.6
101981.26
101950.57
101918.56
101883.62
101845.83
101807.18
101766.62
101723.51
101679.38
101636.42
101596.16
101560.22
101529.82
101504.48
101483.87
101467.85
101456.8
101451.02
101450.7
101456.57
101468.52
101486.12
101505.4
101528.5
101555.89
101553.02
102042.63
102031.98
102017.02
102003.35
101992.66
101981.05
101967.89
101952.23
101925.76
101886.19
101843.23
101801.09
101760.2
101717.24
101674.29
101632.95
101594.3
101560.34
101531.97
101508.43
101489.49
101475.36
101466.64
101463.94
101468.01
101478.54
101494.88
101513.1
101534.81
101560.62
101573.65
102040.69
102031.51
102020.29
102007.86
101993.96
101976.8
101955.3
101930
101906.42
101887.94
101860.7
101821.93
101782.57
101743.33
101704.02
101665.21
101626.83
101590.29
101558.71
101532.58
101511.32
101494.77
101483.39
101478.17
101480.43
101489.59
101504.58
101521.61
101541.61
101565.48
101583.58
102005.58
101998.38
101989.69
101979.62
101967.96
101954.55
101939.05
101921.26
101902.49
101881.96
101862.07
101836.77
101798.08
101758.96
101722.41
101686.75
101652.56
101618.1
101584.79
101555.98
101532.62
101514.41
101501.02
101493.48
101493.71
101501.58
101515.18
101530.98
101549.16
101570.46
101595.92
101971.94
101965.97
101958.78
101950.65
101941.43
101930.67
101918.11
101903.74
101887.34
101868.51
101846.96
101827.09
101807.86
101776.89
101739.52
101703.02
101669.68
101638.33
101607.51
101578.04
101552.86
101533.33
101518.88
101509.67
101507.91
101514.35
101526.46
101541.11
101557.53
101574.85
101603.6
101932.61
101927.93
101922.28
101915.85
101908.49
101899.99
101890.23
101879.03
101866.15
101851.38
101834.75
101815.2
101794.82
101778.14
101756.47
101723.56
101686.9
101653.76
101624.67
101597.05
101571.75
101551.18
101535.99
101526.3
101523
101527.64
101538.17
101551.72
101566.57
101579.02
101609.91
101897.36
101893.58
101889
101883.82
101877.91
101871.14
101863.33
101854.34
101844.01
101832.22
101818.79
101803.85
101786.61
101765.23
101745.62
101728.18
101702.59
101671.83
101640.17
101612.21
101588.49
101568.25
101552.54
101542.76
101538.46
101541.31
101550.09
101562.35
101576.02
101581.72
101616.51
101859.31
101856.36
101852.78
101848.71
101844.05
101838.67
101832.5
101825.42
101817.31
101807.99
101797.31
101785.01
101771.11
101755.91
101737.28
101717.57
101701.91
101682.68
101656.11
101627.16
101603.03
101584.33
101568.78
101558.71
101553.97
101555.04
101561.88
101572.69
101585.34
101582.59
101584.35
101824.89
101822.54
101819.71
101816.52
101812.9
101808.72
101803.87
101798.23
101791.67
101784.07
101775.32
101765.3
101753.85
101741.18
101727.52
101712.31
101692.73
101675.01
101660.74
101638.69
101617.38
101598.91
101584.05
101573.78
101568.92
101568.61
101573.27
101582.23
101594.06
101592.23
101596.73
101789.46
101787.64
101785.45
101782.97
101780.13
101776.84
101773.03
101768.63
101763.57
101757.76
101751.16
101743.65
101735.12
101725.26
101713.88
101701.3
101689.06
101674.86
101656.03
101640.86
101626.59
101610.17
101596.94
101587.4
101582.57
101581.57
101584.09
101590.47
101601.49
101607.13
101612.27
101758.06
101756.71
101755.1
101753.29
101751.23
101748.86
101746.14
101742.99
101739.35
101735.13
101730.17
101724.37
101717.64
101709.95
101701.23
101691.32
101680.03
101667.48
101655.95
101644.76
101630.7
101617.26
101606.95
101599.35
101594.94
101593.56
101594.31
101597.68
101607
101616.85
101573.26
101728.31
101727.3
101726.11
101724.76
101723.23
101721.46
101719.42
101717.06
101714.33
101711.17
101707.54
101703.38
101698.59
101693.08
101686.81
101679.74
101671.76
101662.98
101654.79
101645.01
101633.39
101624.34
101616.52
101610.49
101606.57
101604.83
101604.68
101605.68
101611.31
101622.56
101585.73
101702.78
101702
101701.06
101700.02
101698.84
101697.48
101695.92
101694.13
101692.07
101689.71
101687
101683.87
101680.29
101676.19
101671.58
101666.41
101660.76
101654.67
101648.23
101642.58
101638.01
101631.97
101625.92
101621.59
101618.43
101616.21
101615.43
101615.86
101619.17
101621.62
101619.7
101678.01
101677.39
101676.67
101675.86
101674.94
101673.88
101672.68
101671.31
101669.77
101668.05
101666.16
101664.1
101661.91
101659.63
101657.29
101654.91
101652.44
101649.62
101645.78
101641.68
101638.78
101636.99
101635.27
101633.08
101630.93
101629.13
101627.64
101627.17
101630.85
101631.9
101664.27
101657.16
101656.82
101656.42
101655.97
101655.47
101654.9
101654.27
101653.56
101652.79
101651.96
101651.09
101650.2
101649.33
101648.54
101647.87
101647.39
101647.26
101646.61
101646.28
101646.55
101645.39
101643.96
101643.91
101644.19
101644.66
101644.53
101643.85
101642.84
101646.66
101652.7
101661.28
101650.67
101650.58
101650.46
101650.34
101650.19
101650.02
101649.82
101649.61
101649.37
101649.12
101648.86
101648.6
101648.34
101648.09
101647.8
101647.47
101646.99
101647.25
101646.28
101642.92
101642.58
101645.52
101649.11
101652.09
101655.32
101656.98
101657.7
101659.03
101664.03
101677.15
101663.65
101642.11
101641.77
101641.4
101641.04
101640.68
101640.31
101639.94
101639.56
101639.18
101638.8
101638.42
101638.05
101637.68
101637.27
101636.87
101636.24
101634.92
101632.68
101633.84
101638.04
101644.26
101649.15
101647.56
101645.06
101643.96
101644.18
101645.24
101647.19
101652.94
101673.34
101674.25
100321.17
100304.04
100292.01
100280.56
100268.09
100259.94
100264.33
100283.19
100312.54
100357.08
100415.5
100485.65
100565.35
100651.86
100741.55
100838.05
100923.31
101014.69
101073.65
101125.57
101177.39
101220.31
101258.47
101291.8
101322.44
101350.39
101379.83
101408.82
101437.32
101458.15
101480.2
100332.74
100313.83
100288.91
100268.32
100253.36
100248.72
100258.9
100284.78
100323.16
100374.6
100437.67
100510.61
100591.44
100677.22
100764.92
100858.08
100941.24
101025.81
101076.14
101131.98
101183.08
101225.07
101262.38
101295.05
101325.22
101352.84
101382.1
101410.89
101439.41
101460.64
101485.28
100284.69
100254.01
100225.39
100209.06
100204.76
100212.4
100234.43
100271.37
100318.77
100377.64
100446.54
100523.63
100607.01
100693.62
100781.39
100872.79
100957.37
101035.52
101081.07
101139.42
101189.08
101229.99
101266.39
101298.37
101328.04
101355.33
101384.38
101412.96
101441.51
101463.02
101489.16
100208.75
100182.97
100163.16
100156.34
100161.81
100179.84
100211.8
100257.17
100312.63
100378.32
100452.52
100533.41
100619.22
100706.93
100795.93
100885.27
100971.01
101044.45
101088.19
101146.98
101194.99
101234.87
101270.38
101301.68
101330.87
101357.82
101386.68
101415.05
101443.61
101465.36
101491.66
100110.89
100094.92
100087.11
100093.54
100112.84
100144.48
100188.5
100243.68
100307.8
100380.31
100459.54
100543.92
100631.85
100720.54
100811.06
100898.64
100983.92
101053.31
101096.38
101154.51
101200.86
101239.72
101274.35
101304.99
101333.69
101360.31
101388.97
101417.13
101445.71
101467.68
101492.74
99994.599
99994.083
100003.77
100027.81
100063.66
100110.11
100166.65
100232.06
100304.71
100383.75
100467.7
100555.26
100645.04
100734.57
100826.62
100913.1
100995.74
101061.61
101104.85
101161.91
101206.66
101244.52
101278.29
101308.27
101336.51
101362.8
101391.27
101419.22
101447.8
101469.97
101494.02
99862.552
99884.753
99917.213
99961.801
100015.63
100077.47
100146.7
100222.37
100303.21
100388.36
100476.63
100567.07
100658.41
100748.62
100841.85
100927.58
101006.69
101069.02
101113.49
101169.17
101212.4
101249.28
101282.2
101311.54
101339.31
101365.28
101393.56
101421.31
101449.89
101472.21
101496.16
99728.585
99776.971
99833.821
99899.296
99971.078
100048.04
100129.6
100215.07
100303.48
100394.19
100486.32
100579.26
100671.83
100762.64
100856.37
100941
101018.19
101076.06
101122.24
101176.27
101218.08
101253.97
101286.07
101314.78
101342.09
101367.74
101395.84
101423.39
101451.95
101474.37
101498.01
99602.681
99677.93
99757.986
99842.859
99931.783
100023.15
100116.11
100210.53
100305.72
100401.33
100496.81
100591.84
100685.35
100777.04
100870.24
100953.31
101030.23
101083.3
101131.08
101183.21
101223.69
101258.62
101289.89
101317.99
101344.85
101370.19
101398.11
101425.46
101454
101476.44
101499.42
99490.219
99591.214
99693.54
99794.973
99899.756
100004.13
100106.9
100209.11
100310.07
100409.86
100508.1
100604.83
100699.17
100792.24
100883.5
100965.11
101041.63
101091.19
101139.92
101190.01
101229.24
101263.2
101293.67
101321.16
101347.58
101372.62
101400.36
101427.52
101456.01
101478.43
101500.3
99400.317
99520.88
99640.91
99759.244
99877.075
99991.923
100102.58
100211.14
100316.66
100419.81
100520.23
100618.4
100713.81
100807.06
100896.56
100977.64
101052.21
101099.67
101148.68
101196.66
101234.71
101267.72
101297.41
101324.29
101350.28
101375.01
101402.59
101429.56
101457.99
101480.31
101500.57
99337.27
99473.468
99606.911
99736.986
99863.547
99986.104
100104.01
100217.12
100325.76
100431.41
100533.54
100633.04
100729.76
100821.66
100908.4
100989.5
101062.17
101108.46
101157.3
101203.18
101240.11
101272.18
101301.08
101327.38
101352.94
101377.37
101404.79
101431.58
101459.93
101482.11
101500.05
99306.471
99452.314
99593.108
99729.422
99861.343
99988.457
100110.75
100227.56
100338.36
100445.48
100548.76
100648.9
100743.2
100833.27
100920.63
101001.95
101071.79
101117.4
101165.76
101209.59
101245.43
101276.56
101304.7
101330.41
101355.55
101379.7
101406.96
101433.57
101461.83
101483.82
101500.37
99307.372
99458.278
99600.434
99737.574
99870.879
99999.779
100124.55
100243.67
100355.77
100462.84
100565.28
100661.91
100754.72
100845.59
100933.18
101013.54
101081.24
101126.46
101174.05
101215.89
101250.65
101280.87
101308.26
101333.4
101358.13
101381.99
101409.1
101435.54
101463.68
101485.47
101500.32
99323.723
99480.509
99623.687
99760.22
99892.616
100021.05
100145.85
100263.43
100374.27
100478.53
100576.32
100672.61
100768.34
100858.01
100944.89
101023.97
101090.72
101135.58
101182.13
101222.07
101255.78
101285.11
101311.75
101336.32
101360.65
101384.23
101411.2
101437.47
101465.51
101487.01
101499.69
99355.522
99507.407
99650.839
99788.806
99920.8
100046.85
100167.83
100279.3
100384.88
100489.04
100590.71
100687.85
100782.52
100870.25
100955.92
101034.14
101100.23
101144.74
101189.98
101228.13
101260.82
101289.26
101315.17
101339.19
101363.11
101386.42
101413.26
101439.38
101467.31
101488.43
101498.25
99456.01
99580.909
99703.28
99827.303
99950.763
100070.17
100182.58
100293.25
100404.3
100508.78
100608.32
100703.99
100796.81
100882.34
100966.62
101044.75
101109.73
101153.85
101197.56
101234.07
101265.75
101293.33
101318.53
101341.99
101365.53
101388.56
101415.28
101441.25
101469.07
101489.97
101497.51
99620.845
99721.681
99815.478
99913.518
100016.35
100120.69
100223.19
100326.71
100431.38
100531.6
100627.26
100720.38
100811.22
100894.39
100977.25
101055.53
101119.13
101162.85
101204.89
101239.89
101270.58
101297.32
101321.81
101344.73
101367.88
101390.65
101417.25
101443.08
101470.8
101492
101498
99790.165
99872.103
99943.056
100018.23
100100.15
100186.59
100274.82
100366.77
100462.92
100556.32
100647.25
100737.17
100825.74
100906.47
100987.74
101065.99
101128.44
101171.69
101212.01
101245.61
101275.31
101301.23
101325.01
101347.39
101370.17
101392.68
101419.17
101444.87
101472.48
101494.44
101498.42
99978.253
100036.6
100082.2
100133.48
100193.6
100260.34
100331.73
100411.59
100498.05
100583.02
100668.33
100754.34
100840.29
100918.56
100998.06
101076.22
101137.65
101180.33
101218.91
101251.19
101279.92
101305.02
101328.12
101349.97
101372.38
101394.63
101421.03
101446.62
101474.11
101497.11
101498.58
100190.18
100220.15
100236.79
100261.2
100297.07
100341.48
100394.91
100461.8
100535.92
100612.11
100690.63
100771.87
100854.79
100930.65
101008.25
101086.54
101146.73
101188.63
101225.53
101256.58
101284.34
101308.66
101331.09
101352.43
101374.49
101396.5
101422.81
101448.3
101475.7
101499.82
101498.24
100425.82
100422.7
100407.97
100402.8
100411.79
100432.29
100468.27
100518.94
100578.01
100644.7
100715.3
100790.68
100869.85
100943.08
101018.64
101096.74
101155.33
101196.17
101231.7
101261.68
101288.55
101312.13
101333.92
101354.77
101376.5
101398.28
101424.52
101449.95
101477.26
101502.46
101498.85
100693.6
100657.37
100612.98
100574.38
100552.71
100548.47
100561.11
100589.38
100631.3
100685.33
100745.94
100813.67
100887.57
100957.18
101030.1
101104.8
101162.77
101202.51
101237.43
101266.6
101292.62
101315.5
101336.69
101357.06
101378.47
101400.03
101426.23
101451.58
101478.83
101504.98
101500.83
100971.43
100919.76
100864.7
100800.7
100743.17
100703.19
100684.14
100685
100704.42
100738.87
100785.78
100843.21
100909.72
100974.61
101043.49
101112.96
101170.02
101208.59
101243.46
101271.77
101296.88
101319.02
101339.57
101359.44
101380.52
101401.83
101427.97
101453.24
101480.43
101507.44
101502.82
100370.75
100362.44
100349.17
100336.99
100326.14
100319.2
100320.78
100333.81
100356.84
100394.66
100446.23
100509.87
100583.48
100664.44
100748.51
100838.26
100918.44
101000.64
101066.13
101118.33
101172.08
101216.08
101255.01
101288.92
101319.99
101348.24
101377.84
101407.02
101435.49
101455.88
101474.93
100381.41
100377.93
100366.53
100353.74
100342.59
100336.8
100338.75
100347.65
100368.3
100403.29
100451.83
100512.59
100583.71
100662.79
100745.82
100834.31
100917.48
100995.67
101064.58
101115.63
101169.31
101213.57
101252.83
101287.03
101318.32
101346.74
101376.44
101405.72
101434.11
101454.12
101470.28
100376.62
100373.12
100365.62
100358.09
100351.48
100348.42
100351.68
100361.12
100381.44
100414.62
100460.63
100518.66
100587.12
100663.92
100745.44
100831.89
100916.21
100993.81
101062.61
101113.31
101167.03
101211.46
101250.93
101285.35
101316.79
101345.34
101375.1
101404.45
101432.71
101452.41
101465.53
100372.08
100369.61
100366.2
100363.07
100360.7
100360.78
100365.81
100376.81
100397.16
100428.79
100472.37
100527.55
100593.11
100667.22
100746.69
100830.34
100914.26
100991.84
101059.67
101110.47
101164.47
101209.18
101248.9
101283.54
101315.14
101343.84
101373.64
101403.07
101431.2
101450.67
101460.47
100369.9
100370.27
100370.07
100369.81
100370.32
100373.07
100380
100392.48
100413.03
100443.5
100484.98
100537.5
100600.19
100671.5
100748.68
100829.27
100912.3
100989.64
101056.51
101107.23
101161.61
101206.64
101246.64
101281.54
101313.31
101342.17
101372.04
101401.55
100368.14
100370.84
100373.21
100375.58
100378.77
100384.09
100393.08
100407.09
100428.12
100457.9
100497.68
100366.73
100367.35
100366.91
100365.53
100363.35
100355.5
100366.8
101335.01
101331.32
100344.67
100347.6
100349.12
100339.15
100338.54
100340.06
100338.04
100335.71
100334.52
100322.81
100329.23
100322.34
100310.69
100303.36
100296.64
100257.87
100283.65
100261.06
100239.45
100226.97
100220.8
100086.76
100135.53
100117.39
100102.34
100103.08
100111.4
99807.992
99894.848
99906.028
99922.019
99949.078
99978.186
99474.797
99617.774
99662.523
99711.913
99768.414
99823.008
99128.75
99335.615
99415.197
99496.51
99582.681
99664.394
98814.716
99080.08
99185.998
99290.232
99404.385
99509.814
98553.102
98863.441
98983.128
99111.081
99248.166
99375.015
98307.798
98692.688
98823.426
98966.838
99121.866
99266.837
98064.395
98567.995
98714.23
98868.357
99034.091
99191.832
97901.006
98470.279
98651.127
98819.98
98991.297
99156.07
97881.538
98382.25
98598.682
98800.155
98983.308
99155.218
98021.002
98412.835
98568.517
98772.951
98972.003
99165.339
98215.501
98573.515
98687.796
98864.449
99027.718
99213.826
98371.18
98744.256
98889.144
99046.508
99220.677
99366.059
98552.629
98908.932
99065.485
99228.447
99390.108
99545.715
98794.059
99132.471
99282.953
99433.64
99583.976
99732.808
99081.787
99398.673
99544.985
99678.176
99812.534
99949.362
99415.866
99708.967
99845.535
99958.991
100074.46
100195.67
99789.778
100057.13
100179.41
100271.31
100366
100469.43
100434.61
100541.43
100612.82
100688.08
100775.64
100921.99
100972.92
101024.31
101085.6
101508.61
101616.37
101710.16
101796.35
101869.36
101924.07
101957.71
101975.44
101980.99
101972.15
101959.63
101974.43
102014.84
102000.94
102067.89
102060.37
102087.4
102082.11
102070.94
102063.64
102057.72
102051.59
102016.4
102012.21
101980.24
101976.94
101938.89
101936.38
101902.33
101900.31
101863.11
101861.55
101827.9
101826.64
101791.77
101790.78
101759.84
101759.05
101729.69
101729.05
101703.98
101703.39
101679.04
101678.51
101657.83
101657.47
101650.87
101650.76
101642.54
101642.34
)
;

boundaryField
{
    Side1
    {
        type            empty;
    }
    Inlet
    {
        type            totalPressure;
        rho             rho;
        psi             none;
        gamma           1;
        p0              uniform 102920.87;
        value           nonuniform List<scalar> 
92
(
101313.55
101321.31
101288.6
101314.37
101314.69
102920.87
102920.87
102920.87
101291.1
101291.65
102920.87
101293.33
102920.87
101295.29
101322.09
102920.87
101299.39
101301.15
102920.87
101304.55
101306.45
102920.87
101308.84
102920.87
101336.2
101338.35
101341.4
101319.39
101345.14
101345.65
101328.54
101328.54
101328.54
101328.54
101328.54
101328.54
101328.54
101328.54
101328.54
101328.54
101328.54
101328.54
101328.54
101328.54
101328.54
101328.54
101328.54
101328.54
101328.54
101328.54
101328.54
101328.54
101328.54
101328.54
101328.54
101328.54
101328.54
101328.54
101328.54
101328.54
101347.72
101328.54
102920.87
101279.34
101279.81
101280.29
102920.87
102920.87
101281.6
101282.01
101282.42
101282.83
101283.24
102920.87
101283.98
101284.33
101284.7
102920.87
102920.87
101285.74
101286.09
101286.45
102920.87
102920.87
101287.45
101287.77
101304.39
101304.14
101303.85
101303.53
101328.54
101328.54
)
;
    }
    Side2
    {
        type            empty;
    }
    Outlet
    {
        type            freestreamPressure;
        freestreamValue nonuniform List<scalar> 0();
        value           nonuniform List<scalar> 0();
    }
    Botwall
    {
        type            zeroGradient;
    }
    Cyli
    {
        type            zeroGradient;
    }
    procBoundary2to0
    {
        type            processor;
        value           nonuniform List<scalar> 
55
(
100365.75
100363.32
100361.7
100359.1
100355.45
100358.67
100369.9
100346.38
100349.16
100349.16
101309.59
101333.07
101333.07
101678.55
101638.15
100343.6
100343.6
100334.69
100334.69
100200.21
100200.21
100832.5
100832.5
101754.37
101805.11
101870.67
101929.72
101972.88
102000
102014.5
102017.54
102007.33
101990.13
101977.78
101984.4
101984.4
102041.03
102087.24
102100.23
102081.16
102064.48
102020.78
101983.76
101941.53
101904.48
101864.75
101829.21
101792.77
101760.66
101730.34
101704.58
101679.58
101658.19
101650.99
101642.72
)
;
    }
    procBoundary2to3
    {
        type            processor;
        value           nonuniform List<scalar> 
35
(
101429.54
101448.84
101455.31
100547.83
100607.81
100676.36
100751.15
100828.87
100910.99
100987.49
101053.89
101103.88
101158.61
101203.92
101244.21
101279.37
101311.34
101340.36
101370.31
101429.54
101399.91
100365.42
100360.33
100369.94
100374.63
100379.74
100385.78
100393.79
100405.04
100420.76
100442.57
100472.05
100547.83
100510.52
100360.33
)
;
    }
}


// ************************************************************************* //
