/*--------------------------------*- C++ -*----------------------------------*\
| =========                 |                                                 |
| \\      /  F ield         | OpenFOAM: The Open Source CFD Toolbox           |
|  \\    /   O peration     | Version:  2406                                  |
|   \\  /    A nd           | Website:  www.openfoam.com                      |
|    \\/     M anipulation  |                                                 |
\*---------------------------------------------------------------------------*/
FoamFile
{
    version     2.0;
    format      ascii;
    arch        "LSB;label=32;scalar=64";
    class       volScalarField;
    location    "0.06";
    object      omega;
}
// * * * * * * * * * * * * * * * * * * * * * * * * * * * * * * * * * * * * * //

dimensions      [0 0 -1 0 0 0 0];

internalField   nonuniform List<scalar> 
2065
(
128598.84
117384.93
107888.77
99620.245
92257.886
127090.43
121418.3
115197.98
108851.99
102434.22
94786.068
90713.664
88178.754
86482.604
45397.557
42999.449
42806.178
23486.092
23072.315
23395.879
16626.665
16447.775
14174.28
13228.135
12894.274
13006.844
13430.457
14687.052
18232.645
18055.988
29194.683
28579.146
64344.44
61597.486
60331.236
110705.21
105019.68
99723.488
94560.721
124467.74
115567.99
107488.75
99931.221
92717.031
96790.017
75974.942
59247.937
47012.114
39084.376
34929.391
33751.885
34702.849
37491.699
91045.388
72129.137
57222.358
46092.93
38696.249
34874.963
33819.403
34883.729
37778.743
85677.785
68606.165
55172.53
45024.49
38214.385
34778.814
33875.194
35053.995
38043.727
80657.123
65344.075
53216.941
43973.133
37728.251
34641.946
33907.644
35201.774
38265.893
76003.637
62295.099
51342.24
42935.09
37237.312
34459.76
33902.219
71686.343
42191.317
49533.53
61888.58
85530.255
144578.71
400795.12
42462.697
49809.128
62159.16
85575.772
143461.93
394537.25
42750.635
50092.345
62378.973
85480.77
141948.26
387806.43
42990.352
50307.694
62482.107
85249.428
140463.91
380648.82
14560.496
17718.646
23665.277
36948.558
78513.361
332480.82
16701.56
20483.39
27527.249
42989.963
89881.393
370183.25
19028.227
23461.933
31619.408
49259.02
101795.89
411118.11
21505.428
26617.234
35914.764
55728.076
113396.64
454762.36
24095.946
29914.454
40408.134
62588.531
126984.62
498751.52
26739.566
33262.829
44926.936
69323.853
138887.58
543576.24
29419.366
36678.547
49595.084
76496.84
153125.12
584557.44
32083.047
40069.345
54186.835
83301.007
164646.36
620613.02
34669.397
43361.648
58638.255
89924.305
176786.37
651309.44
37094.257
46417.316
62688.752
95671.765
185715.4
675223.44
39290.203
49140.876
66236.693
100689.48
194435.69
691471.25
41266.396
51565.782
69326.836
104786.76
199749.72
699889.06
42920.441
53515.555
71686.174
107773.92
203982.18
700604.93
44366.038
55203.868
73668.491
109974.07
205309.43
693124.36
45422.404
56342.171
74848.106
111009.7
205354.49
678730.7
46114.776
56976.165
75290.377
110897.8
203188.58
658271.97
46501.12
57198.417
75186.379
109990.85
199502.43
632933.45
46560.294
56972.533
74406.531
108000.86
193951.06
604139.28
46369.392
56464.378
73332.902
105721.48
187955.09
573047.85
45889.043
55508.395
71532.607
102223.91
180044.67
540995.39
45292.379
54518.335
69915.471
99353.502
173339.92
508706.68
44367.057
52937.072
67208.814
94514.733
163615
477328.41
43649.731
51919.128
65758.506
92194.93
158075.48
446783.09
42078.971
49419.692
61767.561
85512.57
146103.36
419506.63
26976.175
21977.738
17917
14851.88
12783.641
11639.044
11302.383
11682.325
12734.391
29184.51
23713.82
19324.455
16079.141
13934.872
12803.376
12557.818
13125.902
14468.937
31360.563
25474.474
20785.937
17365.443
15150.479
14041.623
13905.91
14686.743
16351.745
33527.763
27255.324
22287.729
18699.756
16420.999
15342.373
15331.876
16345.633
18357.978
35679.168
29042.052
23810.717
20064.399
17728.908
16686.066
16814.189
18076.095
20454.432
37802.496
30817.949
25335.837
21439.452
19052.754
18051.56
18326.53
19845.323
22598.688
39857.622
32558.94
26845.291
22806.879
20372.107
19416.809
19843.66
21625.624
24762.456
41890.565
34264.042
28322.434
24149.257
21668.878
20761.243
21340.491
23386.897
26910.463
43755.667
35884.542
29746.496
25448.364
22925.726
22065.825
22790.669
25092.475
28992.659
45793.837
37553.507
31160.709
26710.92
24133.534
23313.534
24171.466
26709.615
30958.296
47495.517
39047.046
32475.338
27901.133
25272.316
24486.316
25461.659
28209.281
32761.872
48962.655
40365.208
33659.16
28994.409
26331.361
25575.898
26650.578
29580.461
34399.389
50462.51
41691.519
34829.885
30050.751
27333.64
26590.122
27735.874
30801.237
35815.747
52190.386
43145.692
36055.256
31110.275
28299.332
27537.351
28721.76
31890.824
37065.922
54059.353
44706.82
37344.467
32190.578
29244.572
28418.263
29587.436
32789.883
38040.483
56079.559
46383.958
38706.968
33298.474
30175.531
29243.624
30348.354
33512.262
38755.509
58312.488
48220.001
40167.033
34447.329
31093.621
30014.203
31015.614
34070.514
39239.707
60915.898
50308.053
41776.358
35664.01
32017.754
30737.237
31595.848
34468.438
39497.079
63918.497
52679.366
43560.142
36964.513
32957.106
31419.331
32098.287
34718.756
39529.834
67678.908
55534.094
45626.476
38402.355
33934.771
32075.181
32547.621
34878.772
39387.982
72180.412
58752.949
47874.812
39928.873
34931.715
32691.18
32892.411
34916.668
39110.025
78525.158
63355.057
50927.803
41844.128
36082.024
33314.992
33158.912
34864.748
38647.127
84184.241
67094.6
53442.683
43465.02
37069.828
33985.314
33375.735
34774.189
38215.339
100598.01
78319.275
60270.885
47369.041
39205.14
34834.8
33643.997
34565.698
37340.037
750205.87
212842.32
106365.16
66462.494
46284.806
34289.629
771679.24
219999.62
111657.02
70459.974
49394.556
36833.991
793476.74
227138.36
116765.22
74408.869
52548.608
39440.04
814954.04
234925.49
121833.49
78308.34
55691.04
42047.505
835913.83
243343.16
126876.28
82119.079
58774.195
44621.427
854452.6
252255.52
132176.5
85989.956
61842.344
47161.027
871115.06
259307.86
136585.55
89432.704
64692.721
49579.538
882681.87
269111.23
142350.71
93398.929
67710.152
52025.64
891214.02
271816.9
144830.55
95900.857
70052.116
54139.1
892274.3
283029.15
151779.43
100432.89
73304.854
56659.52
888387.41
284020.54
153523.7
102477.8
75329.912
58552.177
880979.25
275946.28
152962.41
103643.57
76890.604
60128.173
867147.99
279778.89
154586.59
105340.85
78614.342
61767.9
844960.59
295271.85
160918.18
108843.07
81115.465
63802.34
813171.39
297893.47
164992.82
112064.39
83716.343
65992.15
775350.32
297822.03
168254.66
115197.87
86436.205
68347.393
734319.08
297773.47
171378.85
118478.16
89396.043
70951.396
683205.64
296851.85
175096.65
122432.22
92958.879
74050.818
622788.47
299416.16
179934.35
126958.87
97056.306
77659.216
553610.56
300999.89
188657.31
134393.3
102932.98
82440.617
482692.85
311446.69
198382.09
143393.5
110532.95
88519.819
378239.09
312478.48
222825.89
157432.56
120438.85
96687.57
234361.97
265057.06
239092.4
184854.73
136350.79
106495.38
152944.6
191664.29
209676.98
195072.93
163076.53
125904.14
146605.66
97200.007
128890.28
166040.65
159198.51
143166.3
150228.3
53784.163
60519.727
84772.887
128459.31
132932.2
149945.07
46746.838
34933.99
40185.537
58671.909
97520.631
152982.15
48148.466
30572
27085.847
31544.912
46692.89
158366.1
50581.206
29462.119
22821.708
21519.741
23157.067
164791.34
49911.25
28150.685
20739.508
17744.894
16890.714
171591.33
49156.711
27139.486
19526.974
16176.464
14725.356
178817.32
49701.473
26604.339
18855.006
15447.073
13867.131
184660.02
50056.367
26342.394
18536.262
15135.481
13544.126
189331.47
50442.838
26299.971
18440.562
15045.28
13453.117
192140.63
50601.652
26269.513
18403.102
15031.375
13446.987
194980.93
50402.58
26153.823
18353.778
15021.609
13455.342
191867.29
50250.333
26176.072
18379.482
15040.14
13474.318
188451.05
50141.074
26162.444
18373.556
15031.413
13474.44
185015.91
49645.84
26036.943
18334.151
15015.593
13480.119
179454.43
49102.296
26044.422
18426.362
15119.346
13599.186
171934.75
48505.666
26334.363
18801.402
15495.084
14003.941
164523.65
47913.093
26866.886
19549.719
16384.03
15132.833
157541
50398.163
28300.108
21057.269
18526.384
18338.953
151257.44
49915.492
29178.998
23496.454
24116.283
29371.155
145707.14
48285.71
31340.1
30657.894
40951.941
66294.17
141998.04
46171.08
42942.265
57041.039
91461.976
113952.32
138917.28
65974.464
96266.755
136241.28
143219.8
134023.18
141105.87
155245.64
181707.26
173281.8
770772.4
211909.09
102052.82
62142.754
770351.62
210281.81
100687.6
61158.729
41654.993
30241.648
768947.27
208710.37
99470.422
60250.86
40970.236
29722.264
767272.73
207034.14
98258.988
59395.083
40346.056
29254.399
765565.85
205246.02
97060.122
58611.095
39807.572
28868.91
763406.16
203424.9
95965.374
57964.533
39386.319
28574.304
755833.52
201646.58
95245.699
57566.098
39119.143
28376.354
750049.4
200470.8
94795.856
57298.632
38926.699
28236.509
743077.68
199105.33
94326.089
57041.618
38769.219
28135.73
735251.66
197884.32
93911.635
56835.101
38654.831
28073.135
730187.45
196565.56
93389.36
56604.924
38557.791
28041.027
735885.12
195478.47
92847.13
56431.807
38527.38
28062.999
719193.86
195681.13
93435.51
56767.199
38729.793
28203.361
721498.88
196320.95
93952.199
57128.249
38985.225
28394.218
726153.71
197193.28
94360.096
57446.312
39241.285
28603.879
730900.03
198142.02
94775.118
57761.186
39516.931
28840.663
734391.46
199310.29
95362.333
58144.587
39823.97
29108.366
736898.75
200239.25
95991.344
58616.493
40202.959
29428.482
741679.24
201897.73
96894.158
59247.731
40694.219
29831.677
741480.12
203442.76
98072.231
60074.114
41319.965
30334.639
741194.28
204801.36
99264.518
60987.556
42039.726
30923.818
741867.33
206214.96
100475.96
61953.522
42824.701
31579.609
741715.88
207600.23
101737.17
62948.491
43615.225
32233.575
744146.65
207185.71
101559.19
63097.151
43922.85
32564.403
206948.37
233809.79
330700.16
769569.65
770553.32
213387.54
26102.4
25535.378
24802.261
24111.572
23508.04
22997.032
22576.926
22237.168
21951.571
21710.07
21510.626
21349.051
21242.827
21215.601
21242.661
21314.679
21433.363
21601.022
21829.62
22136.506
22530.401
23014.969
23573.656
21556.716
20688.16
19867.262
19153.212
18544.834
18031.771
17607.668
17259.23
16968.577
16731.062
16543.606
16404.019
16320.093
16297.856
16328.78
16410.471
16543.624
16729.834
16978.086
17299.302
17702.561
18201.095
18806.902
17568.18
16655.388
15866.468
15196.566
14629.465
14153.162
13760.123
13433.254
13163.703
12947.435
12780.597
12661.944
12593.48
12575.184
12604.659
12682.202
12808.841
12986.625
13219.728
13518.344
13890.801
14348.993
14911.017
14153.54
13313.353
12606.565
12010.068
11507.109
11087.455
10738.539
10448.354
10211.182
10022.736
9879.1875
9779.5353
9722.8181
9707.5102
9733.2524
9801.0015
9911.9924
10068.45
10273.617
10533.22
10856.751
11253.356
11738.39
11281.068
10555
9947.1233
9435.2295
9005.9428
8647.4583
8347.8184
8099.8269
7898.3705
7739.0739
7618.6897
7535.9899
7488.946
7476.0212
7497.3282
7553.7765
7646.5343
7777.5813
7949.7233
8166.9134
8435.9716
8765.3918
9166.3123
8894.182
8289.2281
7782.214
7356.5963
6999.9592
6700.9395
6451.6247
6246.1623
6079.7816
5948.5524
5849.7245
5781.8207
5743.137
5732.171
5749.0241
5794.4005
5869.2629
5975.2283
6114.6282
6290.5917
6507.5086
6772.1911
7093.2157
6931.7788
6441.5306
6030.3901
5685.5199
5395.8673
5153.339
4951.6556
4785.7628
4651.5344
4545.7954
4466.1766
4411.0895
4379.5733
4370.1742
4382.8726
4418.1646
4476.7658
4559.9071
4669.4023
4807.7241
4978.1243
5185.102
5435.184
5338.3417
4951.3154
4626.4004
4353.4358
4124.3091
3932.6573
3773.3497
3642.2515
3536.1164
3452.424
3389.2355
3345.1371
3319.4845
3311.2732
3320.2384
3346.7236
3391.2281
3454.6376
3538.2766
3643.9816
3774.1845
3932.0688
4121.9509
4065.6231
3767.9951
3517.3994
3306.6614
3129.5935
2981.2574
2857.711
2755.8263
2673.1228
2607.6649
2557.9766
2522.9687
2501.9677
2494.5101
2500.1504
2519.1244
2551.7629
2598.6773
2660.7926
2739.3986
2836.2239
2953.53
3094.2424
3072.1561
2848.2332
2658.8836
2499.0645
2364.2708
2250.9205
2156.1472
2077.6604
2013.6393
1962.6545
1923.6039
1895.6614
1878.2378
1871.0966
1873.7894
1886.468
1909.3339
1942.7916
1987.4666
2044.2354
2114.2768
2199.1413
2300.8131
2318.2335
2151.3634
2009.3246
1888.7149
1786.4131
1699.9077
1627.1691
1566.5607
1516.7705
1476.7569
1445.7042
1422.9895
1408.1579
1400.919
1401.0799
1408.6163
1423.6395
1446.4009
1477.3051
1516.9282
1566.0494
1625.6954
1697.1783
1761.4976
1636.1655
1528.5248
1436.4524
1357.8295
1290.9061
1234.2502
1186.6942
1147.2869
1115.2577
1089.9894
1070.9969
1057.9127
1050.476
1048.5604
1052.0392
1060.9803
1075.517
1095.8893
1122.4538
1155.7022
1196.2856
1245.0389
1357.7355
1260.8304
1176.9958
1104.807
1042.7949
989.70704
944.49808
906.29685
874.37669
848.13455
827.07543
810.80023
798.99624
791.42992
787.94249
788.44365
792.91395
801.40487
814.04082
831.02467
852.64745
879.302
1061.9049
984.34906
917.03863
858.89458
808.80809
765.81066
729.07392
697.89266
671.66872
649.89864
632.16332
618.11908
607.49
600.06173
595.67658
594.22993
595.66802
599.98713
607.23401
617.50799
630.96556
647.82706
833.98786
771.13303
716.65683
669.62267
629.11755
594.33784
564.58916
539.27659
517.89385
500.01351
485.27798
473.39152
464.11318
457.25093
452.6568
450.22311
449.87975
451.59238
455.36158
461.22309
469.24952
479.55318
646.66472
596.87946
553.8816
516.83754
484.98568
457.66029
434.28749
414.3769
397.5124
383.34324
371.57584
361.96648
354.31497
348.45926
344.27101
341.652
340.53136
340.86348
342.62671
345.82262
350.47638
356.63755
487.5665
450.02155
417.71729
389.95538
366.12862
345.71295
328.26
313.38892
300.77817
290.15762
281.30147
274.02208
268.16459
263.60248
260.23388
257.97854
256.7754
256.58077
257.36688
259.12102
261.84519
265.55614
353.93812
327.36968
304.57654
285.02829
268.27739
253.94229
241.69901
231.27392
222.43696
214.99542
208.78836
203.68188
199.56515
196.34701
193.95327
192.3244
191.41373
191.18598
191.61613
192.68858
194.39668
196.74249
246.41666
228.80196
213.73192
200.83211
189.79792
180.37231
172.3383
165.51339
159.7446
154.90402
150.88485
147.59815
144.97008
142.93963
141.45673
140.48075
139.97918
139.92667
140.30416
141.0983
142.30104
143.90926
164.41434
153.38891
144.00121
135.99266
129.1663
123.35802
118.43035
114.26826
110.77569
107.87246
105.49168
103.5776
102.08381
100.97187
100.21002
99.772279
99.637605
99.789229
100.21411
100.90252
101.84774
103.04581
104.78981
98.227217
92.68536
87.985763
84.005783
80.646871
77.826107
75.473844
73.531814
71.951347
70.691831
69.719443
69.006069
68.528374
68.267055
68.206215
68.332862
68.636492
69.108759
69.743239
70.535245
71.481561
64.563578
60.311552
56.800086
53.902366
51.520087
49.569978
47.985224
46.712104
45.707173
44.935165
44.367307
43.980075
43.75419
43.673877
43.726374
43.901302
44.190083
44.585534
45.081614
45.673254
46.357687
47.133718
42.958135
39.427772
36.543436
34.212693
32.312351
30.765004
29.514256
28.513775
27.726738
27.123534
26.680174
26.376697
26.196256
26.12394
26.149127
26.264492
26.463898
26.742645
27.096971
27.523869
28.019223
28.578547
34.783977
31.317441
28.558584
26.250063
24.334142
22.750255
21.44411
20.369047
19.486327
18.766612
18.187358
17.730231
17.381841
17.133091
16.970219
16.878734
16.849017
16.87657
16.957832
17.089723
17.26936
17.493851
32.678908
29.073892
26.139938
23.741317
21.777004
20.166503
18.835233
17.72352
16.787203
15.999071
15.339044
14.79112
14.339663
13.969645
13.670267
13.433049
13.250825
13.116942
13.025728
12.972176
12.949963
12.955302
29.900105
26.6984
24.109165
21.993206
20.247421
18.795171
17.579015
16.554952
15.688413
14.95171
14.322766
13.784205
13.322521
12.929943
12.599764
12.326361
12.10496
11.931425
11.799883
11.697898
11.6158
11.55152
26.230606
23.377424
21.097498
19.257556
17.761188
16.536947
15.530813
14.701169
14.015448
13.447779
12.977288
12.586884
12.262403
11.992029
11.765952
11.576098
11.415894
11.280628
11.167281
11.073208
10.995877
10.932881
23.162269
20.682462
18.72436
17.160432
15.899718
14.875856
14.039496
13.35331
12.788632
12.323141
11.939233
11.622835
11.362556
11.149049
10.974541
10.833296
10.720277
10.630608
10.559535
10.503269
10.4588
10.423752
19.310617
17.392042
15.90209
14.731523
13.803775
13.063621
12.47035
11.993394
11.60931
11.299864
11.051257
10.852481
10.694337
10.569229
10.470936
10.393703
10.332984
10.285219
10.247606
10.217922
10.1944
10.175629
15.613224
14.270858
13.267782
12.511181
11.936573
11.49816
11.162847
10.906255
10.710103
10.56051
10.446313
10.358752
10.291076
10.238672
10.19811
10.166712
10.14236
10.123452
10.108713
10.097048
10.087622
10.079824
11.498959
11.115094
10.840492
10.640275
10.492231
10.381603
10.298295
10.235228
10.187322
10.15089
10.123218
10.102358
10.087044
10.075893
10.067779
10.061859
10.057505
10.054246
10.05172
10.049635
10.047793
10.04602
11530.652
10646.646
10348.319
10676.934
11729.598
13589.636
16300.108
19784.96
23630.544
10794.312
9917.5681
9583.4366
9798.4434
10629.281
12109.305
14226.33
16876.939
19829.694
9990.6474
9138.1476
8775.7553
8889.1342
9521.1875
10672.459
12301.127
14297.083
16475.398
9147.9855
8322.8338
7936.1318
7959.9991
8415.5688
9282.4367
10502.753
11969.012
13515.821
8295.6772
7493.7586
7080.8163
7027.7781
7328.9185
7953.5132
8837.0226
9881.7752
10945.925
7462.8608
6675.4447
6234.4125
6113.2647
6282.243
6705.5062
7318.4189
8036.965
8749.6102
6684.2739
5896.974
5425.0118
5241.4221
5299.7819
5560.3733
5962.4015
6436.3115
6899.6594
5990.6602
5188.7304
4681.8
4438.7256
4406.747
4539.1229
4781.2656
5076.2305
5366.5692
5407.4972
4577.1902
4031.3813
3731.518
3625.5853
3658.8685
3782.7343
3950.3569
4121.6364
4938.0228
4075.2321
3490.6608
3140.7171
2972.2131
2930.7367
2968.8422
3047.6812
3137.5038
4553.8741
3673.0921
3059.9616
2671.2509
2453.8391
2355.7066
2332.4112
2349.8345
2384.3831
4191.672
3327.5127
2711.5446
2303.5846
2054.4622
1916.9633
1851.2734
1827.376
1825.172
3771.3514
2969.2832
2388.2989
1991.5405
1735.6177
1579.8519
1490.5066
1442.2299
1417.8226
3255.3304
2559.665
2050.6699
1695.6956
1458.3627
1305.5786
1210.3215
1152.2953
1117.475
2702.4564
2122.7289
1698.6234
1400.603
1197.7329
1063.1158
975.49531
919.13959
883.08455
2134.1538
1674.075
1340.3341
1106.1734
945.77335
837.79115
765.9536
718.47919
687.16798
1598.6541
1252.3477
1004.1219
831.00836
712.52599
632.40947
578.6171
542.62538
518.54182
1128.901
883.81284
710.79018
591.23401
509.74565
454.65071
417.5647
392.63847
375.85444
776.87894
600.58943
481.75862
401.61507
347.86206
311.894
287.83218
271.71216
260.86715
565.44488
413.81077
321.37438
264.46849
228.52523
205.30331
190.1117
180.0939
173.42335
472.09773
317.39618
228.29443
177.42361
148.13813
130.99699
120.67803
114.2778
110.18746
445.97412
281.33639
186.48996
133.16797
103.55594
86.920664
77.343537
71.749558
68.335942
441.61644
277.07938
175.91277
118.5018
86.016721
67.566171
56.872371
50.425105
46.524429
413.19501
262.81995
171.12491
115.29358
81.697406
61.845435
50.135512
43.015489
38.593739
388.76305
245.3997
158.29386
107.15702
77.14207
59.106561
47.997564
41.025128
36.578944
348.10254
220.25844
142.86932
96.853816
69.563211
53.25942
43.364023
37.232422
33.353855
305.3205
193.2361
125.14998
84.801824
60.97473
46.741169
38.080544
32.705995
29.308473
262.07429
165.38449
107.223
72.922023
52.699188
40.628107
33.285132
28.724591
25.836292
196.38415
125.17914
82.221686
56.741549
41.624827
32.553195
27.014342
23.568022
21.384908
138.6204
89.41186
59.586087
41.832982
31.274135
24.925051
21.040427
18.62107
17.096896
54.031533
36.771458
26.349044
20.168727
16.532245
14.397833
13.143986
12.401418
11.950143
13107.223
12321.837
11430.087
10499.406
9571.0952
8679.847
7872.1267
7177.6586
6618.3114
6176.521
5797.8766
5398.2684
4886.6593
4222.5602
3513.5159
2787.1282
2099.6304
1492.2555
1057.8145
828.95545
744.84212
732.15477
709.44034
670.94062
630.89232
568.6389
497.98545
431.27207
322.12213
225.65026
84.984339
15836.396
14951.738
13879.718
12774.11
11695.341
10682.866
9811.079
9102.1719
8570.1567
8153.772
7764.2652
7299.2921
6652.0888
5765.8304
4822.4185
3864.7475
2952.6313
2141.2241
1612.2656
1381.252
1313.2075
1310.0066
1239.5832
1198.4516
1128.9667
1034.8207
908.68516
802.40877
607.21523
426.55599
160.50423
20957.192
19896.805
18452.562
16992.035
15615.066
14353.657
13356.402
12613.34
12115.788
11709.232
11272.231
10695.138
9838.602
8593.2988
7257.6398
5933.815
4674.9376
3586.1851
2988.0424
2749.8091
2685.445
2605.5906
2509.5283
2437.834
2337.5662
2183.8508
1943.2259
1755.1698
1379.1365
984.20778
387.44696
32385.249
30913.345
28644.457
26353.94
24292.832
22433.265
21127.425
20264.968
19751.93
19268.1
18697.179
17937.781
16764.539
14930.625
12860.982
10937.171
9315.2484
8055.1826
7330.8989
6925.1389
6646.4403
6415.1671
6238.6141
6100.2217
5978.9289
5722.3039
5309.5685
4869.5836
4139.3599
3116.0887
1401.3271
68460.387
65099.871
60748.069
55948.333
51658.521
47873.705
45321.477
43662.414
42578.512
41593.89
40680.252
39611.09
37967.848
35470.485
32380.635
29735.308
28421.669
28060.715
26164.281
24033.909
22701.187
21895.145
21327.09
21020.177
20913.76
20667.478
20156.089
19416.291
18056.252
15421.414
9635.9162
305830.26
287371.65
269888.09
248918.64
229101.07
209937.81
195159.76
184458.98
177209.84
171164.43
165561.35
159722.99
153446.62
146683.46
140229.75
134522.19
130452.9
128129.91
127055.31
126683.29
126464.27
126349.58
126303.89
126264.81
126230.1
126190.57
126147.62
126134.3
126167.48
126353.9
127147.05
)
;

boundaryField
{
    Side1
    {
        type            empty;
    }
    Inlet
    {
        type            inletOutlet;
        inletValue      uniform 10;
        value           uniform 10;
    }
    Side2
    {
        type            empty;
    }
    Outlet
    {
        type            zeroGradient;
    }
    Botwall
    {
        type            omegaWallFunction;
        blending        binomial;
        n               2;
        value           nonuniform List<scalar> 
59
(
400795.12
394537.25
387806.43
380648.82
332480.82
370183.25
411118.11
454762.36
498751.52
543576.24
584557.44
620613.02
651309.44
675223.44
691471.25
699889.06
700604.93
693124.36
678730.7
658271.97
632933.45
604139.28
573047.85
540995.39
508706.68
477328.41
446783.09
419506.63
305830.26
287371.65
269888.09
248918.64
229101.07
209937.81
195159.76
184458.98
177209.84
171164.43
165561.35
159722.99
153446.62
146683.46
140229.75
134522.19
130452.9
128129.91
127055.31
126683.29
126464.27
126349.58
126303.89
126264.81
126230.1
126190.57
126147.62
126134.3
126167.48
126353.9
127147.05
)
;
    }
    Cyli
    {
        type            omegaWallFunction;
        blending        binomial;
        n               2;
        value           nonuniform List<scalar> 
76
(
750205.87
771679.24
793476.74
814954.04
835913.83
854452.6
871115.06
882681.87
891214.02
892274.3
888387.41
880979.25
867147.99
844960.59
813171.39
775350.32
734319.08
683205.64
622788.47
553610.56
482692.85
378239.09
234361.97
152944.6
146605.66
150228.3
149945.07
152982.15
158366.1
164791.34
171591.33
178817.32
184660.02
189331.47
192140.63
194980.93
191867.29
188451.05
185015.91
179454.43
171934.75
164523.65
157541
151257.44
145707.14
141998.04
138917.28
141105.87
770772.4
770351.62
768947.27
767272.73
765565.85
763406.16
755833.52
750049.4
743077.68
735251.66
730187.45
735885.12
719193.86
721498.88
726153.71
730900.03
734391.46
736898.75
741679.24
741480.12
741194.28
741867.33
741715.88
744146.65
206948.37
330700.16
769569.65
770553.32
)
;
    }
    procBoundary0to1
    {
        type            processor;
        value           nonuniform List<scalar> 
44
(
85747.139
85747.139
96088.037
84867.1
84867.1
43588.783
43588.783
24464.285
16810.998
16810.998
14043.646
14043.646
13096.31
12723.575
12780.112
12780.112
12756.926
12765.65
12792.189
12820.069
12865.246
12865.246
12899.924
13363.678
14600.903
14600.903
18411.042
35319.693
38444.457
59450.291
49549.705
41913.854
36734.643
34238.276
35319.693
33865.314
59450.291
67693.675
43176.457
50447.574
62448.344
84741.288
138349.57
373138.56
)
;
    }
    procBoundary0to2
    {
        type            processor;
        value           nonuniform List<scalar> 
55
(
116665.69
105540.28
96378.14
88522.625
81633.541
158588.82
132547.06
217356.65
158588.82
182766.19
103311.49
42324.285
63000.811
42324.285
30651.056
217356.65
283466.19
283466.19
416774.68
767442.77
214753.72
214753.72
103311.49
24098.246
19504.257
15594.765
12334.563
9656.6144
7482.6522
5736.4809
4349.4425
3261.9064
2421.4936
1781.9013
1302.8388
911.45614
911.45614
668.35464
492.27058
364.36996
270.27988
199.73444
145.92504
104.4978
72.584104
48.004603
29.202638
17.763589
12.986945
11.503823
10.882
10.395956
10.160785
10.073997
10.04517
)
;
    }
    procBoundary0to3
    {
        type            processor;
        value           nonuniform List<scalar> 7(28793.806 28793.806 60319.892 60319.892 90152.825 90152.825 86044.085);
    }
}


// ************************************************************************* //
