/*--------------------------------*- C++ -*----------------------------------*\
| =========                 |                                                 |
| \\      /  F ield         | OpenFOAM: The Open Source CFD Toolbox           |
|  \\    /   O peration     | Version:  2406                                  |
|   \\  /    A nd           | Website:  www.openfoam.com                      |
|    \\/     M anipulation  |                                                 |
\*---------------------------------------------------------------------------*/
FoamFile
{
    version     2.0;
    format      ascii;
    arch        "LSB;label=32;scalar=64";
    class       volScalarField;
    location    "0.092";
    object      Ma;
}
// * * * * * * * * * * * * * * * * * * * * * * * * * * * * * * * * * * * * * //

dimensions      [0 0 0 0 0 0 0];

internalField   nonuniform List<scalar> 
8260
(
0.14452708
0.14567197
0.14685934
0.14811955
0.14938299
0.15062795
0.15186241
0.15307888
0.15437131
0.15582863
0.15729731
0.15880381
0.16029254
0.16161695
0.16226912
0.1616964
0.15903687
0.15560714
0.15375973
0.15267509
0.15185458
0.15113757
0.15041623
0.14982093
0.14935281
0.14892141
0.14855469
0.14825258
0.14799882
0.14784645
0.14772701
0.14082504
0.14232554
0.14392731
0.14554802
0.14715669
0.14873935
0.1502944
0.15182677
0.15338767
0.15501908
0.15665114
0.15827918
0.1598443
0.16119129
0.16179941
0.16110588
0.15833699
0.15505836
0.15341735
0.15242616
0.15165957
0.15098163
0.15029348
0.14972408
0.14927638
0.14885878
0.1485026
0.14820899
0.14796124
0.14781331
0.14769835
0.13655991
0.13840656
0.14044646
0.14248465
0.14448804
0.14644926
0.14836404
0.15023452
0.15209082
0.153954
0.15578325
0.15756189
0.15922836
0.16061616
0.16120431
0.16040956
0.15755155
0.15449838
0.15305724
0.15215178
0.15144102
0.15080739
0.15015679
0.14961504
0.14918994
0.14878802
0.14844366
0.14815959
0.14791859
0.14777567
0.14766311
0.1324745
0.13460969
0.13697816
0.13936436
0.14171971
0.14403071
0.14628729
0.14848297
0.15063052
0.1527397
0.15477604
0.15671524
0.15849047
0.15991715
0.16047818
0.15956077
0.15663296
0.15387373
0.15264283
0.15183396
0.15118752
0.15060447
0.14999725
0.14948847
0.14908983
0.14870625
0.14837576
0.14810276
0.1478698
0.14773267
0.14762373
0.1286904
0.13103354
0.13362836
0.13627789
0.13892326
0.14153853
0.14410401
0.14660261
0.14902973
0.15138199
0.15362668
0.15572999
0.15761617
0.15907524
0.15959134
0.1585234
0.15556953
0.15319729
0.15217712
0.15147315
0.15089914
0.15037365
0.14981592
0.14934459
0.14897588
0.14861333
0.14829864
0.14803813
0.14781439
0.14768377
0.14757842
0.12530836
0.12777789
0.13050506
0.13332645
0.13618221
0.13903581
0.14185737
0.1446187
0.14729888
0.14987915
0.1523235
0.15458632
0.15657895
0.15805728
0.1584995
0.15725827
0.15435824
0.15246441
0.15165128
0.15106288
0.1505703
0.15010983
0.14960837
0.14918004
0.14884546
0.14850713
0.1482107
0.14796436
0.14775138
0.14762805
0.14752718
0.1224344
0.12495969
0.1277315
0.13062863
0.13360082
0.1366075
0.13961131
0.14257435
0.14546143
0.1482381
0.15085914
0.1532644
0.1553475
0.15681948
0.15714487
0.15571404
0.15303032
0.15166998
0.15106016
0.15059806
0.15019557
0.1498093
0.1493723
0.14899289
0.1486968
0.14838618
0.1481107
0.14788038
0.14767985
0.14756459
0.1474688
0.12022636
0.12270476
0.12542433
0.12829718
0.13128412
0.13434579
0.13744135
0.14052613
0.14355364
0.14647489
0.14923113
0.15174421
0.1538836
0.15530482
0.15545547
0.1538354
0.1516257
0.15080398
0.15039759
0.1500735
0.14976743
0.14946662
0.14910349
0.14878013
0.14852734
0.14824824
0.14799673
0.14778458
0.14759859
0.14749217
0.14740252
0.11871751
0.12106614
0.12364995
0.12640792
0.12931277
0.13232938
0.13541762
0.13853038
0.14161402
0.14460741
0.14743629
0.14999999
0.15213408
0.15343799
0.15334153
0.15162436
0.15020933
0.14985965
0.14966006
0.14948242
0.14927909
0.14907711
0.1487968
0.14853867
0.14833461
0.14809113
0.14786673
0.14767518
0.14750622
0.14740942
0.14732704
0.11788091
0.12004283
0.12243065
0.12500062
0.12773532
0.13060966
0.13358889
0.1366279
0.13967003
0.14264479
0.14546177
0.1479922
0.15002228
0.15110031
0.15066924
0.14926536
0.14880802
0.14882729
0.14884335
0.14881483
0.14872916
0.14863622
0.14844471
0.1482638
0.14811506
0.14791203
0.14771803
0.14754986
0.14740094
0.14731479
0.14724102
0.11761683
0.11955457
0.1217038
0.1240299
0.12652599
0.12917534
0.13195281
0.13481882
0.13771625
0.14056694
0.14326328
0.14564019
0.14741192
0.14807291
0.14747988
0.14708684
0.14738628
0.14770939
0.14794297
0.14806554
0.1481211
0.14813866
0.14804087
0.14795009
0.14786408
0.14770757
0.14754784
0.14740621
0.14728075
0.14720667
0.14714279
0.11789377
0.11952992
0.12137198
0.12339182
0.12558338
0.12793679
0.13043268
0.13303404
0.13568049
0.13828278
0.14070852
0.1427364
0.14403564
0.14432365
0.14444269
0.14513766
0.1459331
0.1465148
0.14695071
0.1472412
0.14745007
0.14758152
0.14758217
0.14759207
0.1475756
0.14747384
0.14735341
0.14724211
0.14714342
0.14708356
0.14703075
0.1182315
0.11956315
0.12108972
0.12278165
0.12463276
0.12664119
0.12879088
0.13104006
0.13331678
0.1355189
0.13751428
0.13908503
0.13999166
0.14073934
0.14203124
0.14336895
0.14441008
0.14524427
0.14588361
0.14634699
0.14670599
0.14696186
0.1470763
0.14718583
0.14724519
0.14720673
0.14713269
0.14705608
0.14698678
0.14694412
0.14690321
0.11822062
0.11929143
0.12051627
0.12189563
0.12343049
0.125098
0.12686688
0.12869996
0.13053137
0.13227385
0.13383276
0.13521658
0.13663501
0.13836962
0.14011367
0.14159841
0.14288344
0.14392273
0.14475724
0.14538272
0.14589195
0.14628584
0.1465199
0.1467339
0.14687093
0.1469033
0.14688403
0.14684683
0.14680885
0.14678705
0.14675879
0.1179087
0.1186016
0.11947833
0.12054605
0.12182055
0.12321143
0.12464911
0.12616322
0.1277501
0.12937974
0.13104171
0.13279699
0.13472993
0.13661422
0.13836185
0.13996472
0.14137584
0.14258924
0.14359238
0.14437736
0.14501601
0.14553786
0.14592032
0.14624612
0.1464571
0.14656046
0.14660464
0.14661259
0.14660839
0.14661088
0.14659608
0.11903659
0.11955905
0.12012903
0.12075239
0.12149125
0.12242471
0.12354493
0.12484064
0.12627272
0.12781579
0.12952167
0.13139952
0.13329719
0.13510609
0.13684079
0.13844776
0.13996208
0.14128918
0.14242181
0.1433523
0.14410206
0.14473012
0.14526887
0.1457216
0.14601004
0.14617786
0.1462897
0.14635091
0.14638475
0.14641398
0.14641367
0.12042144
0.12095101
0.12155251
0.12221997
0.12291353
0.1236524
0.12444996
0.1252152
0.12609522
0.12728732
0.12879221
0.1303304
0.13198105
0.13383009
0.13553657
0.13708938
0.1386403
0.14007518
0.141289
0.14233435
0.14318307
0.14388399
0.14456497
0.14514853
0.14552939
0.14575843
0.14593424
0.14605916
0.14613616
0.14619452
0.14620988
0.12184021
0.1221752
0.12256596
0.12302482
0.12356938
0.12422429
0.12503115
0.12601674
0.12699454
0.12790406
0.12873117
0.12988112
0.13123574
0.13274983
0.13439014
0.13595669
0.13745407
0.13894339
0.1402306
0.14134574
0.14228168
0.14303391
0.14382379
0.14451767
0.14500225
0.14530501
0.14553986
0.14573392
0.14585984
0.14595071
0.14598304
0.1236477
0.12395865
0.12431495
0.1247163
0.12516272
0.12565083
0.12616992
0.12671931
0.12736157
0.12818821
0.12920602
0.13011548
0.13102327
0.13219471
0.13356444
0.13509008
0.13649146
0.13791386
0.13925048
0.14041974
0.14141468
0.14221361
0.14308639
0.14384423
0.14441589
0.14481974
0.14511189
0.14537442
0.1455543
0.14567972
0.14573099
0.12514091
0.12534432
0.12557936
0.12585182
0.12617163
0.12655137
0.12700881
0.12755748
0.12818209
0.12883874
0.12951741
0.13040132
0.13137175
0.13209154
0.13318557
0.13442961
0.13571185
0.13702598
0.1383341
0.13956442
0.14060483
0.14146225
0.14240037
0.14316747
0.14378245
0.14430208
0.14465853
0.14498349
0.14521845
0.14537941
0.14545108
0.12685056
0.12703508
0.12724655
0.12748665
0.12775814
0.12806309
0.12840008
0.12876838
0.12918246
0.12967749
0.13027415
0.13088212
0.13157028
0.13248294
0.13317675
0.13414595
0.13514549
0.13625723
0.13744796
0.13871697
0.1398588
0.14080522
0.14177335
0.14253532
0.14313751
0.1437518
0.14418685
0.14456329
0.14485061
0.1450477
0.14514072
0.12826501
0.12838412
0.1285216
0.12868072
0.12886696
0.12908704
0.12934902
0.12966189
0.13002935
0.13044396
0.13090243
0.13145562
0.13208798
0.132735
0.13353785
0.13416314
0.13497347
0.13588254
0.13687085
0.13794857
0.13912216
0.14020285
0.14116249
0.14193607
0.14251883
0.14316687
0.14369063
0.14411773
0.14445019
0.1446828
0.14479835
0.12983922
0.12994791
0.13007258
0.13021474
0.13037645
0.13055949
0.13076536
0.13099421
0.13124854
0.13153831
0.13187465
0.13224591
0.13266782
0.13319203
0.13372
0.134405
0.13517049
0.13583592
0.13664794
0.13753263
0.13849243
0.13955507
0.14049385
0.14127698
0.14192889
0.14257061
0.14316325
0.14364586
0.14402121
0.14428519
0.14442382
0.13109503
0.13115862
0.131232
0.13131701
0.13141671
0.13153549
0.13167988
0.13185159
0.13205584
0.13229815
0.13258338
0.13292409
0.13332017
0.13374118
0.13426763
0.13480019
0.13530756
0.13602083
0.1366547
0.13736962
0.13815649
0.13898856
0.13977753
0.14055889
0.14134584
0.14200195
0.14262488
0.14315289
0.14356904
0.14385919
0.14401912
0.13248929
0.13255265
0.13262502
0.13270705
0.13279907
0.1329004
0.13300958
0.13313313
0.13327614
0.1334428
0.13363712
0.13385855
0.13410677
0.13440661
0.13470951
0.1351059
0.13563937
0.13610372
0.13670612
0.1372973
0.13799489
0.13870214
0.13935321
0.14003042
0.14079665
0.14149162
0.14211958
0.1426558
0.14310171
0.14341184
0.14358748
0.1334439
0.13347373
0.13350905
0.13355189
0.13360497
0.13366946
0.13374739
0.13384039
0.13395005
0.13407847
0.13422917
0.1344091
0.13463174
0.13489714
0.13522102
0.13553372
0.13584448
0.13631898
0.13671893
0.13720584
0.13779291
0.13850693
0.13912585
0.13973696
0.14038442
0.14105164
0.14165814
0.14217654
0.14262726
0.14294869
0.14313335
0.13457839
0.13461408
0.13465361
0.13469642
0.13474222
0.13479309
0.13485088
0.1349172
0.13499351
0.13508122
0.13518173
0.1352964
0.13542138
0.13555841
0.13571818
0.13594442
0.1362146
0.1364852
0.13692722
0.13727461
0.1377066
0.13821505
0.13883458
0.1394854
0.1400789
0.14063974
0.1412091
0.14171177
0.14214273
0.14247456
0.14266543
0.13527264
0.13529065
0.13531219
0.13533786
0.13536843
0.13540454
0.13544689
0.13549633
0.13555386
0.1356206
0.13569761
0.13578633
0.13589209
0.13603798
0.1362296
0.13644196
0.13666916
0.13689382
0.13710873
0.13749357
0.13776149
0.13812078
0.13858641
0.13912926
0.13970993
0.14023523
0.14075311
0.14124274
0.14166115
0.14199759
0.14219448
0.13606065
0.13607472
0.13609068
0.13610902
0.13613038
0.13615556
0.13618549
0.1362213
0.13626429
0.1363159
0.13637755
0.13644995
0.13653067
0.13660374
0.13668213
0.13679681
0.13695536
0.13715777
0.13738389
0.13760764
0.13791909
0.13819737
0.13855048
0.138973
0.13941171
0.13987773
0.14034494
0.14080447
0.1412149
0.14153927
0.14173743
0.13647494
0.13648504
0.13649697
0.13651118
0.13652826
0.13654885
0.13657373
0.13660381
0.13664017
0.13668414
0.13673741
0.13680222
0.13688084
0.13697233
0.13707535
0.13718339
0.13730915
0.13745699
0.13762908
0.13783068
0.13806355
0.1383357
0.13862099
0.13891373
0.1392672
0.13967089
0.14008816
0.14049897
0.14087648
0.14118353
0.14137212
0.13682379
0.13683254
0.1368431
0.13685579
0.13687094
0.13688896
0.13691029
0.13693545
0.13696507
0.13699987
0.13704066
0.13708917
0.13714898
0.13722025
0.13729854
0.13738842
0.13749358
0.13761879
0.13776595
0.13793935
0.13814297
0.13837036
0.13861711
0.13889228
0.13921347
0.13957458
0.13996119
0.1403482
0.14070932
0.14100683
0.1411902
0.079256796
0.095680952
0.10665537
0.11486938
0.12176797
0.12798324
0.13366664
0.13847342
0.14316906
0.14753753
0.15153816
0.15517557
0.15846638
0.16139371
0.16392449
0.1658654
0.16680383
0.16633293
0.16359122
0.15969784
0.1571084
0.15535397
0.15389031
0.1526872
0.15170714
0.15091126
0.15025505
0.14972406
0.14931075
0.14903599
0.14884386
0.10122067
0.10962242
0.11605859
0.12168117
0.12708726
0.13235584
0.13723267
0.14170663
0.14594296
0.14984543
0.15341986
0.15668723
0.15966022
0.16231077
0.16459327
0.16625538
0.16688804
0.16608679
0.16300557
0.15919498
0.15681037
0.15514384
0.15372408
0.1525552
0.15160221
0.15082563
0.15018368
0.14966344
0.14925765
0.1489882
0.14879963
0.10776752
0.11388792
0.1197183
0.12533163
0.13068467
0.13566274
0.14019154
0.14431991
0.14815359
0.15167665
0.15491454
0.15788979
0.16060831
0.16303333
0.1651088
0.16652234
0.16689788
0.16579038
0.16244086
0.15878394
0.15656371
0.15495623
0.15357062
0.15243061
0.15150138
0.1507422
0.1501136
0.14960352
0.14920483
0.14894047
0.14875662
0.11381594
0.11963498
0.12508688
0.13014405
0.13484613
0.13919052
0.14316899
0.14682791
0.15022933
0.15337324
0.15628481
0.15898185
0.16146021
0.16367271
0.16554623
0.16670696
0.16685094
0.16543247
0.16187696
0.15838235
0.15630783
0.15475949
0.15341042
0.15230148
0.1513975
0.15065661
0.15004198
0.14954251
0.14915128
0.1488923
0.14871589
0.12035453
0.12550461
0.13023387
0.13461952
0.13870539
0.14248061
0.14595009
0.14915658
0.15214467
0.1549286
0.15753307
0.15996986
0.16222343
0.16423539
0.16590733
0.166832
0.16676743
0.16503134
0.16130563
0.15800543
0.15606391
0.15456841
0.15325359
0.15217434
0.1512946
0.1505713
0.14997032
0.14948129
0.14909741
0.14884382
0.14867322
0.12728109
0.1314766
0.13538501
0.13904317
0.14245925
0.14562828
0.14856876
0.15131417
0.15389863
0.15633986
0.15865653
0.16085129
0.16289583
0.16472011
0.16619472
0.16690365
0.16664683
0.16457914
0.16073845
0.15764914
0.15582346
0.15437737
0.15309623
0.15204656
0.15119099
0.15048522
0.14989795
0.14941943
0.14904302
0.14879495
0.14862855
0.13415389
0.13739464
0.14044253
0.14331889
0.14602997
0.14858311
0.15099439
0.15328754
0.15548648
0.15760554
0.1596546
0.16162569
0.16347741
0.16512877
0.1664163
0.16693905
0.16647015
0.16407578
0.16018555
0.15731299
0.15558854
0.15418878
0.15294036
0.15191963
0.1510877
0.15039908
0.14982533
0.14935726
0.14898826
0.14874576
0.14858262
0.1410448
0.14322552
0.14532838
0.14737914
0.1493784
0.15132127
0.15321514
0.15507328
0.1569084
0.1587272
0.16052915
0.16229492
0.16397041
0.1654644
0.1665761
0.16693124
0.16623991
0.16352902
0.15965514
0.15699362
0.15535713
0.1540016
0.15278526
0.15179299
0.15098438
0.15031265
0.14975235
0.1492947
0.14893311
0.14869624
0.14853631
0.1475821
0.14870344
0.1498842
0.15114056
0.15245768
0.15381559
0.15521785
0.15666672
0.15816356
0.15970571
0.16128168
0.16286065
0.16437624
0.16572174
0.16665987
0.16687327
0.16595495
0.16295735
0.15915249
0.1566886
0.15512924
0.15381625
0.1526314
0.15166705
0.15088135
0.1502262
0.14967918
0.14923188
0.14887767
0.14864644
0.1484897
0.15351895
0.15367652
0.15403272
0.15455517
0.15523194
0.15604457
0.15699188
0.15806354
0.15925077
0.16054152
0.16191331
0.16332423
0.16469605
0.16589604
0.16668214
0.16677727
0.16562177
0.16237861
0.15867823
0.15639507
0.15490418
0.15363258
0.15247871
0.15154176
0.15077861
0.15013974
0.14960587
0.14916884
0.14882195
0.14859639
0.14844283
0.15879872
0.15811101
0.15771688
0.15757002
0.15766314
0.15798852
0.15852733
0.15925947
0.16016887
0.16123512
0.16242503
0.16368633
0.16492845
0.16598558
0.16664989
0.16664194
0.1652469
0.16179975
0.15823121
0.15611083
0.15468185
0.15345069
0.15232736
0.15141728
0.15067629
0.15005341
0.14953251
0.14910567
0.14876603
0.14854612
0.14839573
0.16330034
0.16190735
0.16086352
0.16013984
0.15973323
0.15963495
0.15981222
0.16024958
0.16091639
0.16178663
0.16281703
0.16394608
0.16506798
0.16600609
0.16658584
0.16646713
0.16483939
0.16122942
0.15780973
0.15583409
0.15446198
0.15327061
0.15217743
0.15129368
0.15057451
0.14996728
0.14945918
0.14904243
0.14870993
0.14849566
0.14834841
0.16689816
0.16496506
0.16341769
0.1622403
0.1614276
0.16096669
0.16084221
0.16102613
0.1614885
0.16219299
0.16308643
0.16409875
0.1651233
0.16598463
0.16648556
0.16624912
0.16440507
0.16067351
0.15741127
0.15556347
0.15424456
0.1530924
0.15202903
0.15117106
0.15047336
0.14988148
0.14938597
0.1489792
0.14865373
0.14844505
0.14830089
0.16953642
0.1672388
0.16534743
0.16384312
0.16272251
0.16197981
0.1616059
0.16157721
0.16186742
0.16243448
0.16321919
0.16415011
0.16512214
0.16591815
0.16633441
0.16598205
0.16394755
0.16013491
0.15703369
0.155298
0.15402955
0.15291617
0.15188228
0.15104954
0.15037298
0.14979611
0.14931297
0.14891603
0.14859748
0.14839432
0.14825317
0.17128611
0.16872647
0.16660825
0.16489018
0.16356088
0.16261564
0.16205226
0.16186576
0.16203548
0.16251458
0.16324712
0.16413713
0.16505886
0.16579556
0.16613925
0.16567729
0.16347121
0.15961627
0.1566749
0.15503712
0.15381701
0.15274202
0.15173732
0.15092922
0.15027345
0.14971128
0.14924027
0.14885301
0.14854122
0.14834349
0.14820527
0.1723315
0.16961281
0.16732334
0.16544756
0.1639769
0.16290195
0.16221724
0.16195398
0.16207439
0.16250379
0.16319276
0.16404466
0.16492114
0.16561667
0.16590242
0.16534013
0.16298663
0.15911963
0.15633316
0.1547806
0.15360704
0.15257004
0.15159425
0.15081022
0.15017487
0.14962707
0.14916793
0.14879018
0.14848501
0.14829262
0.1481572
0.1727772
0.17004619
0.16767571
0.1657035
0.16414342
0.16299316
0.16224865
0.16193644
0.16200688
0.16238568
0.16302559
0.16384889
0.16470699
0.16538228
0.16562576
0.16497479
0.16250172
0.15864588
0.15600571
0.15452828
0.15339967
0.15240026
0.15145315
0.15069259
0.15007732
0.14954358
0.14909604
0.14872762
0.1484289
0.14824171
0.14810899
0.1719775
0.16956826
0.16738938
0.1655085
0.16397708
0.1628273
0.16207929
0.16173531
0.16175835
0.16210922
0.16273308
0.16355165
0.16441554
0.16509342
0.16531244
0.16458962
0.16202222
0.15819474
0.15569085
0.15428016
0.15319489
0.15223268
0.15131408
0.15057639
0.14998088
0.14946091
0.14902469
0.14866541
0.14837298
0.14819084
0.14806066
0.17009591
0.16804401
0.16619284
0.16457879
0.16324038
0.16221851
0.16155289
0.16125398
0.16130226
0.16167307
0.16231457
0.16315371
0.16404625
0.16475089
0.16496542
0.16419033
0.16155316
0.15776617
0.1553871
0.15403615
0.15299276
0.15206735
0.15117721
0.1504618
0.14988571
0.14937922
0.148954
0.14860364
0.14831732
0.14814003
0.1480122
0.16750934
0.16582911
0.16433234
0.16304352
0.16198188
0.16118131
0.16068716
0.16050566
0.16063847
0.16107741
0.16177063
0.16265555
0.16359888
0.16435509
0.16458737
0.16378176
0.16109802
0.15735927
0.15509329
0.15379673
0.15279382
0.1519048
0.15104301
0.15034921
0.14979212
0.14929877
0.14888416
0.14854244
0.148262
0.14808932
0.14796369
0.16417546
0.16296408
0.16189961
0.16100062
0.16027829
0.15977034
0.15951274
0.15950332
0.15977298
0.16032372
0.16110258
0.16205861
0.16307379
0.16390636
0.1641806
0.16336926
0.16065979
0.15697477
0.15481053
0.15356362
0.15259959
0.15174615
0.15091237
0.15023925
0.1497005
0.14921981
0.14881533
0.14848186
0.14820705
0.14803869
0.14791518
0.16007739
0.15943139
0.1589014
0.15847738
0.1581708
0.15801559
0.15803231
0.15825195
0.15871092
0.15941237
0.16030951
0.16136243
0.16246994
0.16340356
0.16374653
0.16296057
0.16024364
0.15661889
0.15454267
0.15333954
0.15241194
0.15159257
0.15078598
0.15013227
0.14961097
0.14914238
0.14874743
0.14842182
0.14815238
0.14798806
0.14786643
0.15514906
0.15512107
0.15523248
0.15539895
0.15560225
0.15586396
0.15622389
0.1567293
0.15743342
0.15832893
0.15937958
0.16055813
0.16177993
0.16284052
0.16328368
0.16256141
0.15985954
0.15629974
0.15429235
0.15312434
0.15222994
0.15144281
0.15066268
0.15002728
0.14952278
0.1490659
0.14868004
0.14836204
0.14809776
0.14793735
0.14781684
0.14952804
0.14985148
0.15052807
0.15134608
0.15218523
0.15301254
0.15386
0.15475035
0.15579553
0.15697108
0.15823586
0.159586
0.16095612
0.16218007
0.16276996
0.1621683
0.15952043
0.15601091
0.15404908
0.15290899
0.15204622
0.1512912
0.15053826
0.14992123
0.14943395
0.14898916
0.1486125
0.14830226
0.14804314
0.1478867
0.1477664
0.073207108
0.091305331
0.10313193
0.11199778
0.11928836
0.1257116
0.13158308
0.13677684
0.14167097
0.14624002
0.15044603
0.1542786
0.15774742
0.16083626
0.16351259
0.16561826
0.16673562
0.1664506
0.16390241
0.16001487
0.15731832
0.15551485
0.15402203
0.1527949
0.1517943
0.15098285
0.1503146
0.14977438
0.1493546
0.149075
0.14887871
0.072234111
0.091098416
0.10305179
0.11184338
0.11905122
0.12537288
0.13113076
0.13632411
0.1411877
0.14575528
0.14999404
0.15388079
0.15741252
0.16056682
0.16330102
0.16547549
0.16664997
0.16646956
0.16404113
0.16017089
0.1574244
0.15560264
0.15409925
0.15286203
0.15185126
0.15103158
0.15035666
0.14981098
0.14938745
0.14910467
0.14890846
0.072015531
0.09121335
0.10318975
0.11182677
0.11885278
0.12501764
0.13064441
0.13577743
0.14060584
0.14517515
0.14945109
0.15339923
0.15700355
0.16023458
0.16304055
0.16529772
0.16655365
0.16647111
0.16419448
0.16034039
0.15753114
0.15568749
0.1541743
0.15292815
0.15190815
0.15108097
0.15039995
0.14984915
0.1494221
0.14913617
0.14893968
0.071752566
0.091125772
0.10315433
0.11173524
0.11861494
0.12464399
0.13015096
0.13521984
0.14001345
0.14457862
0.14888425
0.15288847
0.15656331
0.15987179
0.16275396
0.16509733
0.16644572
0.16646691
0.16434829
0.16052585
0.15765053
0.15578116
0.15425663
0.15300044
0.15197025
0.15113473
0.15044698
0.14989054
0.14945957
0.14917009
0.14897956
0.071304204
0.090826266
0.10300005
0.11154243
0.11835676
0.12428157
0.12968072
0.13468452
0.1394368
0.14398645
0.14830945
0.15236003
0.15609961
0.15948324
0.16244325
0.16487285
0.16632059
0.16645402
0.16449511
0.16072176
0.15778066
0.1558835
0.15434667
0.15307945
0.152038
0.15119326
0.15049801
0.14993533
0.14949994
0.14920652
0.14901436
0.070874368
0.090392088
0.10277394
0.11136024
0.11812194
0.12395068
0.129246
0.13417781
0.13887923
0.14340194
0.14773
0.15181648
0.15561393
0.15906918
0.16210709
0.16462032
0.1661754
0.16642857
0.1646318
0.16092181
0.15791716
0.15599129
0.15444211
0.1531636
0.15211037
0.15125579
0.15055255
0.1499832
0.14954306
0.14924543
0.14904871
0.070624542
0.089982376
0.1025466
0.111188
0.11790454
0.12364179
0.1288362
0.13368996
0.13833302
0.14282025
0.14714328
0.15125625
0.1551048
0.15862778
0.16174267
0.16433489
0.16601112
0.16638952
0.16476159
0.16112442
0.15805799
0.15610238
0.15454123
0.15325162
0.15218648
0.1513217
0.15061021
0.15003396
0.14958888
0.14928689
0.14907856
0.070632513
0.089569393
0.10227018
0.11098647
0.11767604
0.12333353
0.12843403
0.13320831
0.13778919
0.1422355
0.14654604
0.15067752
0.15457082
0.15815743
0.16134757
0.16401445
0.16581276
0.16633323
0.16487534
0.16133451
0.15820277
0.15621613
0.15464351
0.15334318
0.15226609
0.15139103
0.15067109
0.15008773
0.14963751
0.14933099
0.14912482
0.070752266
0.089181011
0.10194876
0.11073502
0.11741136
0.1230034
0.12802044
0.13271847
0.13723745
0.14164079
0.14593408
0.15007792
0.15401033
0.15765657
0.16091992
0.16366126
0.16557866
0.16625425
0.16496719
0.16154677
0.15835171
0.15633277
0.15474911
0.15343845
0.15234946
0.15146384
0.15073529
0.15014465
0.14968912
0.14937789
0.14917259
0.071078307
0.088857237
0.10158573
0.11041656
0.11708614
0.12262674
0.1275734
0.13220317
0.13666483
0.14102721
0.145302
0.14945443
0.1534216
0.15712384
0.16045846
0.16327702
0.1653118
0.16615043
0.16504441
0.16175726
0.15850461
0.15645198
0.15485795
0.15353748
0.15243666
0.15154032
0.15080301
0.1502049
0.1497439
0.14942772
0.14922654
0.071663204
0.088592478
0.10115705
0.10999917
0.11666645
0.1221718
0.12706542
0.13164065
0.136055
0.14038308
0.14464216
0.14880244
0.15280185
0.15655739
0.15996171
0.16286038
0.16500708
0.16600048
0.16509889
0.1619666
0.15866115
0.15657328
0.15496979
0.15364022
0.15252775
0.15162059
0.15087439
0.15026864
0.14980199
0.14948064
0.14927614
0.072436176
0.088362047
0.10062398
0.10943563
0.11610704
0.12159887
0.12646352
0.13100512
0.13538886
0.13969486
0.1439455
0.14811643
0.15214785
0.15595529
0.15942827
0.1624094
0.16466783
0.16582105
0.1651204
0.16216476
0.15882059
0.15669606
0.15508418
0.15374642
0.15262263
0.15170461
0.15094948
0.15033597
0.14986352
0.14953682
0.14932691
0.07326428
0.088094673
0.099929326
0.10866933
0.11535555
0.12086306
0.12573098
0.13026797
0.13464486
0.13894705
0.14320158
0.14738984
0.15145575
0.15531527
0.15885665
0.16192228
0.16429364
0.16560697
0.16511044
0.16234117
0.15898193
0.15681914
0.15520051
0.15385576
0.15272117
0.15179243
0.15102833
0.15040699
0.1499286
0.14959642
0.14938102
0.074060882
0.087768294
0.099060136
0.10766814
0.11436911
0.11992271
0.12483227
0.12940095
0.13380169
0.13812386
0.14239952
0.14661577
0.15072146
0.154635
0.15824544
0.16139744
0.16388234
0.16534736
0.16506525
0.16250331
0.15914475
0.15694201
0.15531802
0.15396777
0.15282294
0.1518838
0.15111092
0.15048177
0.14999733
0.14965961
0.14943967
0.074518896
0.087112188
0.097844226
0.10632974
0.11308444
0.11873362
0.12373466
0.12837939
0.13284087
0.1372119
0.14152982
0.14578796
0.14994119
0.15391229
0.15759335
0.16083352
0.16343261
0.16503966
0.16497247
0.16264548
0.15930733
0.15706257
0.15543604
0.15408191
0.15292803
0.15197882
0.15119724
0.15056034
0.15006983
0.14972649
0.14950308
0.07448006
0.086052297
0.096249549
0.10463137
0.11148134
0.11727959
0.12242427
0.12719122
0.13175223
0.13620306
0.14058643
0.14490215
0.1491123
0.15314564
0.15689938
0.16022931
0.16294379
0.1646864
0.16482578
0.16275714
0.15946961
0.15718137
0.15555302
0.15419756
0.15303522
0.15207697
0.15128719
0.15064279
0.15014615
0.14979724
0.14957068
0.07402605
0.084686582
0.09437968
0.10265596
0.10961297
0.11558924
0.12091592
0.12584359
0.13053853
0.13509771
0.13956862
0.14395756
0.1482342
0.15233473
0.15616294
0.1595829
0.16241058
0.16428655
0.16463232
0.16283092
0.15962526
0.15729362
0.15566933
0.15431399
0.1531453
0.15217837
0.15138066
0.15072896
0.15022641
0.14987188
0.14964187
0.072891383
0.082828825
0.092149473
0.10038846
0.10749891
0.11369317
0.11923844
0.12435953
0.12921649
0.1339072
0.13848339
0.14295834
0.1473094
0.15148082
0.15538393
0.15889104
0.16182162
0.16384346
0.16441254
0.16287664
0.15978093
0.15740253
0.15578006
0.15442984
0.15325578
0.15228234
0.15147754
0.15081907
0.15031058
0.14995061
0.14971679
0.0712699
0.080610419
0.089645072
0.097898055
0.10520107
0.11164902
0.11744299
0.12278106
0.12781826
0.13265468
0.13734678
0.14191495
0.14634449
0.15058769
0.15456376
0.15815226
0.1611738
0.16331942
0.16411632
0.16287666
0.1599184
0.15749857
0.15589109
0.15454511
0.15336793
0.15238844
0.15157731
0.15091256
0.15039872
0.15003337
0.14979573
0.069340327
0.07818534
0.086991779
0.095289406
0.10281054
0.1095359
0.11559709
0.12116452
0.1263888
0.1313742
0.13618339
0.14084431
0.14535039
0.14966223
0.15370666
0.15737042
0.16048046
0.16276375
0.16379098
0.16284454
0.16002678
0.15758922
0.1559876
0.15465621
0.15347965
0.15249684
0.15168026
0.15101002
0.1504907
0.15012037
0.14987899
0.067348789
0.075761451
0.084353848
0.092686437
0.1004235
0.10743428
0.1137707
0.11957039
0.12497862
0.13010586
0.13502327
0.13976816
0.1443422
0.14871432
0.15281931
0.15655159
0.15974796
0.16216099
0.16339743
0.16274558
0.16012728
0.15766303
0.15608649
0.15476395
0.15358811
0.15260464
0.15178483
0.15111011
0.15058649
0.15021142
0.14996636
0.065641737
0.073625492
0.081962971
0.090262862
0.098160379
0.10542932
0.11203154
0.11805602
0.12363645
0.12888973
0.13389797
0.13870977
0.14333659
0.1477558
0.15191004
0.15570178
0.15897895
0.16151356
0.16294304
0.16256356
0.16021587
0.15772244
0.15616641
0.1548667
0.15369909
0.15271519
0.15189223
0.15121403
0.15068591
0.15030665
0.1500581
0.064523105
0.072066451
0.080078283
0.08823545
0.096178817
0.10362483
0.11044671
0.11666911
0.12240011
0.12775726
0.13283348
0.13768988
0.14234921
0.14679823
0.15098741
0.15482727
0.15817681
0.16082585
0.16244345
0.1623412
0.16022709
0.15777585
0.156232
0.15495258
0.15379832
0.15282164
0.15199974
0.1513197
0.15078869
0.15040585
0.1501539
0.064216448
0.07133111
0.078951967
0.086837565
0.094672708
0.10215535
0.10909576
0.11545352
0.12129547
0.12672662
0.13184468
0.13672157
0.14139131
0.14585061
0.15005852
0.15393356
0.157345
0.16009958
0.16189517
0.16209238
0.16020609
0.15777654
0.15629826
0.15503892
0.15389782
0.15292784
0.15210818
0.15142812
0.15089465
0.15050882
0.15025412
0.064773249
0.071448388
0.078652045
0.08616106
0.093738506
0.1011016
0.10803416
0.11443869
0.12033383
0.12580034
0.13093162
0.1358052
0.14046497
0.14491652
0.14912728
0.15302393
0.15648553
0.15933159
0.16127974
0.16179113
0.16015242
0.1577809
0.15632817
0.15511081
0.15399491
0.15303418
0.15221711
0.15153827
0.15100318
0.15061556
0.15035802
0.066400126
0.072457925
0.079104833
0.086177944
0.093375458
0.10047441
0.10726716
0.11361629
0.11949623
0.12495589
0.13007402
0.1349259
0.13956072
0.14399116
0.14819244
0.15209915
0.15559939
0.15852219
0.16059988
0.16134527
0.16007295
0.15780407
0.15632255
0.1551269
0.15406447
0.15312283
0.15232137
0.15164767
0.15111419
0.15072513
0.15046597
0.068898321
0.074378702
0.080376844
0.086799084
0.093503837
0.10021954
0.10674769
0.1129411
0.11873741
0.12415014
0.12923456
0.13405475
0.13865846
0.14306264
0.14724848
0.15115797
0.1546881
0.15767902
0.15988385
0.16087444
0.15997514
0.15779331
0.15628887
0.1551302
0.15413794
0.15322519
0.15242811
0.15176027
0.15122661
0.15083814
0.15057698
0.07180094
0.076705311
0.082099428
0.087910891
0.094008829
0.10024163
0.10640516
0.11235474
0.11800484
0.12333486
0.1283705
0.13315643
0.13773174
0.14211325
0.14628542
0.15019648
0.1537523
0.15680529
0.15912941
0.16034719
0.15979675
0.15773349
0.15619208
0.15515522
0.15421343
0.15330258
0.15252736
0.15186723
0.15134041
0.15095257
0.1506913
0.074725438
0.07907031
0.083867876
0.089074467
0.094599044
0.10031358
0.10607965
0.1117488
0.11722252
0.12245342
0.12743768
0.13219655
0.13675517
0.14112513
0.1452921
0.14920936
0.15279098
0.15590132
0.15833365
0.1597485
0.159478
0.15761384
0.15614637
0.15515888
0.15423299
0.15336116
0.15261935
0.15197643
0.15145389
0.15106952
0.15080766
0.07730737
0.081143813
0.085397669
0.090048261
0.095038253
0.10027452
0.10564933
0.11103572
0.1163307
0.12146445
0.1264059
0.13115213
0.13571145
0.1400868
0.14426222
0.14819435
0.15180491
0.15497006
0.15750172
0.15909694
0.15917278
0.15751514
0.15609064
0.15512235
0.15423386
0.15345685
0.15271662
0.15208093
0.15156735
0.15118661
0.15092615
0.079291101
0.082694181
0.086484951
0.090658519
0.09518075
0.10001086
0.10503434
0.11016219
0.11529387
0.12034573
0.12526229
0.13001619
0.13459714
0.1389971
0.1431968
0.14715463
0.15079889
0.15401759
0.1566409
0.15839682
0.15876033
0.15736145
0.15593537
0.15503136
0.15424539
0.1535058
0.1527861
0.15217803
0.15167771