/*--------------------------------*- C++ -*----------------------------------*\
| =========                 |                                                 |
| \\      /  F ield         | OpenFOAM: The Open Source CFD Toolbox           |
|  \\    /   O peration     | Version:  2406                                  |
|   \\  /    A nd           | Website:  www.openfoam.com                      |
|    \\/     M anipulation  |                                                 |
\*---------------------------------------------------------------------------*/
FoamFile
{
    version     2.0;
    format      ascii;
    arch        "LSB;label=32;scalar=64";
    class       volScalarField;
    location    "0.01";
    object      Ma;
}
// * * * * * * * * * * * * * * * * * * * * * * * * * * * * * * * * * * * * * //

dimensions      [0 0 0 0 0 0 0];

internalField   nonuniform List<scalar> 
2065
(
0.11478208
0.1161689
0.11738302
0.11846977
0.11941924
0.1201393
0.12045683
0.12029696
0.11960949
0.11829758
0.11637387
0.11387984
0.11094121
0.10770371
0.10430829
0.10103935
0.098235103
0.096127771
0.094862544
0.094425596
0.094606896
0.095002658
0.095011206
0.094359626
0.092758038
0.090264358
0.086906574
0.083267346
0.0802286
0.078330297
0.077823513
0.078308236
0.080053139
0.081386881
0.081804718
0.081781161
0.081725274
0.081960888
0.082727876
0.084098866
0.085529062
0.087091666
0.088774182
0.090642549
0.092595545
0.094673891
0.096680199
0.098813546
0.10070036
0.10297493
0.10472538
0.10730294
0.10913199
0.11210948
0.1138176
0.11739853
0.11886528
0.1234779
0.092299278
0.095526899
0.098380837
0.10095842
0.10322703
0.10512424
0.10655215
0.10735592
0.10733982
0.1067653
0.10529167
0.10313164
0.10042063
0.097336205
0.094072922
0.09104139
0.088605762
0.086987144
0.086302871
0.086478765
0.087313481
0.08834207
0.088981279
0.088868712
0.087878177
0.085894953
0.083014871
0.079890217
0.077325347
0.07577939
0.075467695
0.076123536
0.078004854
0.079465029
0.080172211
0.080609496
0.080939849
0.081440157
0.0824606
0.083988464
0.08561258
0.0873832
0.089237811
0.091222164
0.093251828
0.095375645
0.097412977
0.099553332
0.10144679
0.10369764
0.10543784
0.1079663
0.10977555
0.11269545
0.1143818
0.11789866
0.11935351
0.12390552
0.053692393
0.059115453
0.064432042
0.069503648
0.074354018
0.078891304
0.082969237
0.08643461
0.089062554
0.090681021
0.091210016
0.090790885
0.089502043
0.087376157
0.084783972
0.082002829
0.079562091
0.077791681
0.076893298
0.076952084
0.0778666
0.079473748
0.081192977
0.082552107
0.083100565
0.082737233
0.081402882
0.079084391
0.076525333
0.074456187
0.073262971
0.073150882
0.074016169
0.076023446
0.077634649
0.078682868
0.079595877
0.08030895
0.081090057
0.082360812
0.084046477
0.085851668
0.087806916
0.089808306
0.091887475
0.093978105
0.096134238
0.09819226
0.10033134
0.10222504
0.10444693
0.10617281
0.10864863
0.11043518
0.1132949
0.11495709
0.1184069
0.11984816
0.1243372
0.023522189
0.027344063
0.031638909
0.036659689
0.041878245
0.047280988
0.052792937
0.058143044
0.063129646
0.067413693
0.070687602
0.07276879
0.073622401
0.073410149
0.07233997
0.070603834
0.068692285
0.067144291
0.06623618
0.066212019
0.067077921
0.068900029
0.071235232
0.073697911
0.07582667
0.077147885
0.077455919
0.076833494
0.075177489
0.073222685
0.071667492
0.070832636
0.070928002
0.072067698
0.074164281
0.075956509
0.077383399
0.078769972
0.079857312
0.080929179
0.082440427
0.084278864
0.086244945
0.088357918
0.090479586
0.092632885
0.094769276
0.096945449
0.099014554
0.10114476
0.1030327
0.10522085
0.10692848
0.10934876
0.11110976
0.11390685
0.11554253
0.11892284
0.12034924
0.12477268
0.013483601
0.01548564
0.017798217
0.020564087
0.023778904
0.02771712
0.03214206
0.036794155
0.041637032
0.046320292
0.050419374
0.053575025
0.055618808
0.056512068
0.056485113
0.055890915
0.055010607
0.05443708
0.054472991
0.05532749
0.057156523
0.059752862
0.062808144
0.066029015
0.068954404
0.071091104
0.072189052
0.072240167
0.071357433
0.070040687
0.069014314
0.068551219
0.068892689
0.070345986
0.072501467
0.074494384
0.076316718
0.078157743
0.079606908
0.080969609
0.08270396
0.084684035
0.086786504
0.089028772
0.091244722
0.093452498
0.09562019
0.097805115
0.099876342
0.1019909
0.10386726
0.10601742
0.107703
0.11006538
0.11179803
0.11453024
0.11613722
0.11944596
0.12085646
0.1252113
0.008839662
0.0091327952
0.0095767683
0.010206039
0.011106129
0.012414766
0.014359126
0.016999981
0.020263135
0.024152264
0.028331665
0.032420034
0.03598381
0.038722876
0.040474677
0.04137639
0.041703021
0.041781514
0.042088721
0.043008303
0.044787476
0.047412254
0.05070038
0.054438834
0.058390573
0.062105421
0.065069064
0.066994272
0.067796332
0.067658399
0.067044449
0.066557103
0.066490039
0.067152003
0.068915367
0.071113461
0.073310832
0.075519679
0.077782363
0.079574071
0.081216118
0.083148674
0.085254422
0.087467179
0.089810324
0.092096294
0.094340243
0.096525606
0.098709088
0.10077411
0.10286692
0.10472618
0.10683468
0.10849454
0.11079712
0.11249875
0.11516407
0.11674031
0.11997583
0.12136958
0.12565265
0.0090607152
0.0083956534
0.0078412473
0.007304148
0.0067198456
0.00605338
0.0054038131
0.0050393661
0.0056145488
0.0076097502
0.010665763
0.01424959
0.018099883
0.021706305
0.024656086
0.026799946
0.028163488
0.02902766
0.029683503
0.030649007
0.032314195
0.034841193
0.038151214
0.042050322
0.046396268
0.051006345
0.055460967
0.059230451
0.061986322
0.063565938
0.064205752
0.064293017
0.064367749
0.064727868
0.065816844
0.067832144
0.070073482
0.072460814
0.075022297
0.077660224
0.079765559
0.081666603
0.083766994
0.085978126
0.088275718
0.090692626
0.093026557
0.095289931
0.097480258
0.099653237
0.10170438
0.10376989
0.10560694
0.10767051
0.10930131
0.11154251
0.11321056
0.11580734
0.11735098
0.12051195
0.12188828
0.12609639
0.0099722475
0.0093701311
0.0088439781
0.0083292674
0.0077506465
0.0070228128
0.0060685028
0.0048215117
0.0034771697
0.002885856
0.0043042959
0.0068194609
0.0097093695
0.012630011
0.015059639
0.01679418
0.017839762
0.018533729
0.019184616
0.020439
0.022636558
0.025800918
0.029717768
0.034131052
0.038963473
0.044110493
0.049209058
0.053724347
0.057279311
0.059646375
0.061071454
0.061864814
0.062521746
0.063388872
0.064935668
0.067149578
0.069443733
0.07198505
0.074843744
0.077798339
0.080184468
0.082311497
0.084547664
0.086840879
0.089199716
0.091665562
0.094027562
0.096295263
0.09847897
0.10063338
0.10266364
0.1046968
0.10650702
0.1085227
0.11012148
0.11229997
0.11393215
0.11645902
0.11796841
0.12105383
0.12241227
0.12654229
0.01099893
0.010837913
0.010782712
0.010787228
0.010807127
0.010794938
0.01070837
0.010529717
0.01029578
0.010125064
0.010176577
0.01053744
0.011247326
0.012087136
0.012618036
0.012643013
0.012065829
0.011287148
0.010811549
0.011700331
0.014248184
0.018025586
0.022493601
0.027288659
0.032430921
0.037938989
0.043537644
0.048698381
0.052989335
0.056130624
0.058327057
0.059835729
0.061116294
0.062537403
0.064521169
0.06690729
0.069251808
0.071902298
0.074988346
0.078198882
0.080821928
0.08313671
0.085476434
0.087827588
0.090226345
0.092719074
0.095091299
0.097349845
0.099516697
0.10164526
0.10364831
0.10564454
0.10742383
0.10938898
0.11095319
0.11306787
0.1146622
0.11711808
0.11859178
0.12160097
0.12294128
0.12698997
0.011707596
0.011930847
0.012267808
0.012700433
0.013197731
0.013727231
0.014261454
0.014772109
0.015230539
0.015615389
0.015956403
0.016273181
0.016437906
0.01633176
0.016177308
0.015568917
0.014335415
0.012305869
0.0094695539
0.0062332128
0.0048265151
0.007504369
0.01199278
0.016926957
0.021882688
0.027090103
0.032725756
0.038631902
0.044297317
0.049232455
0.053106665
0.056046017
0.058284399
0.060217096
0.062201208
0.064574482
0.067109127
0.069495762
0.072208497
0.075449675
0.078853332
0.081663443
0.084125397
0.0865377
0.088923189
0.09134284
0.093843229
0.096209807
0.098447217
0.10058851
0.10268452
0.10465472
0.10660996
0.1083547
0.11026704
0.11179451
0.11384453
0.11539936
0.11778343
0.11922026
0.12215289
0.12347471
0.12743911
0.011857149
0.01257503
0.01335426
0.014193577
0.015073471
0.015981097
0.016902901
0.017818079
0.018698751
0.019510442
0.020232195
0.020840287
0.021178621
0.021163723
0.020741811
0.019750947
0.017972694
0.015257129
0.011678782
0.0071703078
0.0022875158
0.0031591378
0.0083942153
0.013498683
0.018291275
0.02322269
0.028697337
0.034673999
0.040664104
0.046124549
0.050667288
0.054311534
0.057272691
0.059859442
0.062379061
0.065083762
0.067737395
0.070152012
0.072879942
0.076209612
0.079741224
0.08269071
0.085259382
0.087715419
0.090113123
0.092536774
0.095028198
0.097375194
0.09958105
0.10168947
0.10374678
0.10567915
0.10758985
0.10929691
0.11115453
0.11264349
0.11462824
0.11614214
0.11845397
0.11985299
0.12270915
0.12401147
0.12788958
0.011742821
0.012860786
0.01397479
0.015100415
0.016245024
0.017409387
0.018588967
0.019769811
0.020926546
0.022019304
0.022998469
0.023823333
0.024330582
0.024467673
0.024033529
0.02294447
0.020980277
0.018039271
0.014170138
0.0094482234
0.004774671
0.0031923636
0.0075346477
0.012292333
0.016681181
0.02107001
0.02606432
0.031837301
0.037938492
0.043777868
0.048898081
0.053203519
0.056840669
0.060044216
0.063045599
0.066014605
0.068750022
0.071175043
0.073878928
0.077237592
0.080838561
0.083882894
0.086520072
0.088993696
0.091383519
0.093796083
0.096264316
0.098579716
0.10074522
0.10281445
0.10482762
0.10671785
0.10858094
0.11024768
0.11204908
0.11349812
0.11541728
0.11688909
0.11912854
0.12048906
0.12326942
0.12455017
0.12834119
0.01143797
0.012785265
0.014086432
0.015369207
0.016655455
0.017957248
0.019276188
0.020602486
0.021911686
0.023162689
0.024294224
0.025253735
0.025814392
0.026035495
0.025646875
0.024519773
0.022420518
0.019302754
0.015220562
0.010418973
0.0060988374
0.0049943514
0.0085759066
0.012850124
0.016759086
0.020579648
0.024955897
0.030263584
0.036245316
0.042291541
0.047868131
0.052757363
0.056994465
0.060750324
0.064156036
0.06732044
0.070097459
0.072511428
0.075160981
0.078499439
0.082118914
0.085217768
0.087889017
0.090357099
0.092721173
0.095109121
0.09754218
0.099815829
0.10193371
0.10395816
0.10592257
0.10776701
0.10957996
0.1112042
0.11294829
0.11435636
0.11620989
0.11763877
0.11980601
0.12112754
0.12383359
0.12509026
0.12879373
0.010987576
0.012354193
0.013677826
0.014987983
0.016300177
0.017626845
0.018971549
0.020326664
0.021669981
0.022961636
0.024134389
0.02511289
0.025670899
0.025917647
0.025537004
0.024304285
0.022061262
0.018756065
0.014473369
0.0097124145
0.0060599329
0.0067126969
0.010626113
0.014724948
0.018290557
0.021592352
0.025310744
0.030021374
0.035669921
0.041734701
0.047619018
0.05296729
0.057714823
0.061941489
0.065655227
0.068949424
0.071729545
0.074108159
0.076680532
0.0799599
0.083555224
0.086672642
0.089348275
0.091790765
0.094113444
0.096464767
0.098852661
0.10107615
0.10314056
0.1051153
0.10702718
0.10882282
0.11058361
0.11216365
0.11384977
0.1152162
0.11700432
0.11838972
0.12048521
0.12176751
0.12440181
0.12563129
0.12924695
0.010393794
0.011587843
0.012775173
0.013977653
0.015198455
0.016441871
0.017708339
0.018990147
0.020266507
0.021499506
0.02262811
0.023558856
0.024096088
0.024263688
0.023785412
0.022390367
0.019948489
0.016410222
0.011958143
0.007549119
0.0057938471
0.009084636
0.013602756
0.017685862
0.021018128
0.023907991
0.027025994
0.031074076
0.036225617
0.042119025
0.048136428
0.053818629
0.058981969
0.063554925
0.067485664
0.070849634
0.073598073
0.075916656
0.078394289
0.0815842
0.08512061
0.088224969
0.090880668
0.093280425
0.095548228
0.097852427
0.10018691
0.10235347
0.10435978
0.10628064
0.10813701
0.10988147
0.1115886
0.11312321
0.11475111
0.11607558
0.11779882
0.11914049
0.121165
0.12240804
0.124973
0.12617277
0.12970068
0.010568169
0.011459426
0.012421675
0.013434657
0.014486619
0.015568304
0.016667547
0.017762962
0.018818791
0.01977849
0.020538768
0.020924857
0.020947635
0.020293833
0.018707688
0.016053658
0.012316023
0.0079369206
0.0050238873
0.0076093374
0.012803234
0.017667493
0.021689106
0.024793878
0.027324219
0.029910603
0.033301809
0.037863316
0.043420836
0.049419364
0.055294928
0.060722081
0.065528863
0.069591702
0.07297172
0.075658131
0.077893271
0.080262229
0.083338573
0.086789463
0.08985329
0.092469694
0.094812374
0.097013954
0.099262008
0.10153637
0.10364075
0.10558541
0.10744903
0.10924768
0.1109392
0.1125917
0.11408008
0.11564993
0.11693249
0.11859167
0.11988964
0.12184423
0.12304824
0.12554562
0.1267142
0.13015474
0.0093656098
0.0098413028
0.010450249
0.011151699
0.011915643
0.012718774
0.013540352
0.014355709
0.015130711
0.015815516
0.01629583
0.016455275
0.016223821
0.015328907
0.013493578
0.010575449
0.0066650958
0.0033147374
0.0063723716
0.012236514
0.018018293
0.02288474
0.026702874
0.029513795
0.03167062
0.033766588
0.036532063
0.040459919
0.04557461
0.051401763
0.0573066
0.062867273
0.067802678
0.071920924
0.075269707
0.077868218
0.079998945
0.08224763
0.085191615
0.088536222
0.091537867
0.094099189
0.0963734
0.098499583
0.1006839
0.10289279
0.10493116
0.1068116
0.10861545
0.11035486
0.1119923
0.1135897
0.11503149
0.11654389
0.11778494
0.11938117
0.1206358
0.12252178
0.12368726
0.12611804
0.1272551
0.13060894
0.0081306144
0.008117244
0.0082756151
0.0085668859
0.0089507708
0.0093904579
0.0098531312
0.010306642
0.010715419
0.011026271
0.01115026
0.010998197
0.010447973
0.0092395483
0.0070703371
0.0037842973
0.00073021665
0.0062998257
0.012539045
0.018894581
0.024596393
0.029193406
0.032646908
0.035069685
0.036801988
0.038414312
0.040582707
0.043862381
0.048447293
0.053975261
0.059774417
0.065345438
0.070316419
0.074423576
0.07770104
0.080190907
0.082200253
0.084317621
0.087114202
0.090335981
0.093260398
0.095753634
0.097950734
0.099994608
0.10210899
0.10424828
0.10621808
0.10803264
0.10977502
0.11145437
0.11303717
0.11457948
0.11597474
0.11743068
0.11863096
0.12016568
0.1213776
0.12319654
0.12432429
0.12668952
0.12779507
0.13106308
0.0066373165
0.0063157824
0.0061279857
0.0060548068
0.0060672058
0.0061302857
0.0062089529
0.0062696215
0.0062703955
0.0061304658
0.0058824523
0.0053907688
0.0046230512
0.0040816536
0.0053849452
0.0092245722
0.014710801
0.020930639
0.027058297
0.032364789
0.036469016
0.039393319
0.04132367
0.042573867
0.04368573
0.04527684
0.047908008
0.051905438
0.057034787
0.062615989
0.068087926
0.073012759
0.077053654
0.080226067
0.08259069
0.084465891
0.086442017
0.08907989
0.092165829
0.095002661
0.097418552
0.099532316
0.10148927
0.10352866
0.10559531
0.1074952
0.10924306
0.11092309
0.11254217
0.11407033
0.11555805
0.1169072
0.118308
0.11946859
0.12094349
0.12211366
0.12386738
0.12495848
0.12725925
0.12833347
0.13151663
0.099080005
0.10110645
0.10297406
0.10493479
0.10692678
0.10875641
0.11043758
0.11205514
0.11361438
0.11508844
0.11652251
0.11782635
0.11917371
0.12029599
0.12171305
0.12284268
0.12453328
0.12558905
0.12782651
0.12886993
0.1319694
0.16963282
0.17220622
0.13581127
0.14343707
0.15024633
0.15620227
0.16120729
0.16525762
0.16844552
0.17091116
0.12772625
0.13624432
0.14356215
0.1500209
0.15564601
0.16037623
0.16421707
0.1672525
0.16961151
0.1283661
0.13656506
0.14358677
0.14973953
0.15505158
0.15951775
0.163155
0.16604237
0.16829609
0.128904
0.13678476
0.14352832
0.14937185
0.15438808
0.15860672
0.16205163
0.16479774
0.16695127
0.12932612
0.13683755
0.14332439
0.14886165
0.15361237
0.1576102
0.16088176
0.16349842
0.16555872
0.12951189
0.13669257
0.14286664
0.14815769
0.15268613
0.15649385
0.15961528
0.16211865
0.16409582
0.12936424
0.13622614
0.14213211
0.14722185
0.15157056
0.15522402
0.15822229
0.16063091
0.16253644
0.12880936
0.13533011
0.14106292
0.14600659
0.15022564
0.1537664
0.15667193
0.15900745
0.16085497
0.12770838
0.13400824
0.13961661
0.14447401
0.14862019
0.15209388
0.154939
0.15722385
0.15902882
0.1261134
0.13223116
0.13777192
0.14260797
0.14673966
0.15019251
0.15301114
0.15526802
0.1570455
0.12398545
0.12999526
0.13554008
0.14042095
0.14459427
0.14807022
0.15089415
0.15314475
0.15490909
0.12137566
0.12735885
0.13297751
0.13796333
0.14222746
0.14576401
0.14862004
0.15088249
0.15264571
0.11839921
0.12443033
0.13018434
0.13532604
0.13972048
0.14334612
0.14625378
0.14854071
0.15031071
0.11519488
0.12134485
0.12729065
0.13263128
0.13718545
0.14091855
0.14388901
0.14620638
0.14798601
0.11188203
0.11822262
0.124425
0.13001302
0.13475667
0.13861278
0.14165454
0.1440081
0.14580287
0.10867674
0.11523321
0.12173061
0.12760519
0.13256562
0.1365604
0.13968066
0.14207352
0.1438847
0.10585242
0.11258579
0.11936043
0.12552694
0.13071743
0.13486115
0.13806586
0.14050241
0.14233517
0.10361232
0.1104394
0.11743013
0.12386265
0.12928044
0.1335767
0.13686756
0.13934511
0.14119204
0.10209508
0.10888472
0.11596388
0.12257421
0.12817965
0.13261918
0.13600032
0.13852865
0.14040289
0.10128204
0.10786844
0.11486454
0.12152389
0.12724847
0.13180903
0.13528112
0.13786727
0.13977404
0.10102162
0.10727244
0.11400882
0.12053374
0.12624446
0.13085737
0.13439678
0.13703932
0.13898454
0.10088772
0.10666836
0.11297144
0.11919069
0.12475056
0.12933031
0.13289674
0.13558612
0.13757986
0.10037417
0.10560471
0.11138598
0.11720476
0.12252823
0.12701191
0.13056636
0.13327661
0.13529418
0.099148285
0.10380397
0.10902323
0.11437875
0.11939076
0.12370739
0.12719516
0.12989249
0.13192162
0.097026862
0.10114387
0.10582126
0.11070625
0.11537343
0.11948051
0.12286317
0.12552064
0.12754589
0.094072719
0.097714905
0.10192051
0.10639671
0.11076269
0.1146834
0.11797083
0.12059082
0.12260783
0.090305272
0.093542003
0.097355688
0.10150559
0.10564509
0.10943698
0.11266428
0.115261
0.11727063
0.08625691
0.089143769
0.092609424
0.096468313
0.10041617
0.10412074
0.10733665
0.10996164
0.11201452
0.082844251
0.085438461
0.088607121
0.092211529
0.095991987
0.099635482
0.10288175
0.10559512
0.10776256
0.080681787
0.083099602
0.086090682
0.089550038
0.093252919
0.09690556
0.10023939
0.10309154
0.10541785
0.080047034
0.082402935
0.085336899
0.088754917
0.092443778
0.096121228
0.099522819
0.10246815
0.10488987
0.080434374
0.082743895
0.085630818
0.089005523
0.092660244
0.096315489
0.099708853
0.10266418
0.10511343
0.082065496
0.084267907
0.087041966
0.090304762
0.093851084
0.097403918
0.10070824
0.1035996
0.10601165
0.083260741
0.085274982
0.087816429
0.090838275
0.094180118
0.097594281
0.10081923
0.1036533
0.10601637
0.083428759
0.085196685
0.087493461
0.09027557
0.09339311
0.096610271
0.099674593
0.10239694
0.10468748
0.082985704
0.084297007
0.086024388
0.088173954
0.090661009
0.093315592
0.095935268
0.098349252
0.10045673
0.082562494
0.083499006
0.08476695
0.086390003
0.088326723
0.090464072
0.092646431
0.094727732
0.096610086
0.082583924
0.083314276
0.084334048
0.085674249
0.087306311
0.089136975
0.091033138
0.092869195
0.094556453
0.083140739
0.083704058
0.084569102
0.085778134
0.087299452
0.089019238
0.090795723
0.092507736
0.094075548
0.084365981
0.084770974
0.085435481
0.08642484
0.087737253
0.08928923
0.090941965
0.092571033
0.094084267
0.085612887
0.085827328
0.086252667
0.086969017
0.088010707
0.089329445
0.090834975
0.092377785
0.093844491
0.086969179
0.086961273
0.087092778
0.087450492
0.088100191
0.089023851
0.090156917
0.091409873
0.09268282
0.088476726
0.08827956
0.088154682
0.088189008
0.088469686
0.089057323
0.089867412
0.090829416
0.091870111
0.0902235
0.089892885
0.089579137
0.089360729
0.089328371
0.089556947
0.090095094
0.090861145
0.091738459
0.092095355
0.091675829
0.09123378
0.090839327
0.090583407
0.090549441
0.090777314
0.091262692
0.091951706
0.094122362
0.093644498
0.093112893
0.092586879
0.092150876
0.091892425
0.091871406
0.092099334
0.092539922
0.096093375
0.095576094
0.094982048
0.094360734
0.093787805
0.093348944
0.093114891
0.093119018
0.093349601
0.098214704
0.097682434
0.097059556
0.096387599
0.095733435
0.095176133
0.094785993
0.094605923
0.094642156
0.10009279
0.099552241
0.098912054
0.098208219
0.097501347
0.096865166
0.096367724
0.096054463
0.095940409
0.1023858
0.10186315
0.10123992
0.10054737
0.099839753
0.099184018
0.098642883
0.098259526
0.098050207
0.10414507
0.10363386
0.10302151
0.1023365
0.10162959
0.10096428
0.10040088
0.099981694
0.099723787
0.10676422
0.10629434
0.1057301
0.10509647
0.10443861
0.10381333
0.10327489
0.10286151
0.1025885
0.10861115
0.10816197
0.10762186
0.10701442
0.10638279
0.10578154
0.10526287
0.1048635
0.10459777
0.11163719
0.11123482
0.1107502
0.11020352
0.10963239
0.10908498
0.10860764
0.10823299
0.10797394
0.11336443
0.11298357
0.11252406
0.11200474
0.11146089
0.11093798
0.11048033
0.11011993
0.10987018
0.11699779
0.11666581
0.1162651
0.11581195
0.115337
0.11487974
0.11447852
0.1141606
0.1139368
0.11847456
0.11815604
0.11777123
0.11733587
0.11687954
0.1164402
0.11605467
0.11574922
0.11553442
0.12314153
0.12286696
0.12253536
0.12216037
0.12176718
0.12138777
0.12105328
0.12078637
0.12059683
0.17435517
0.17639047
0.17836682
0.18034387
0.18235883
0.18361481
0.17297678
0.17493648
0.17684423
0.17875826
0.18071709
0.18196099
0.17159349
0.17347785
0.17531709
0.17716641
0.17906531
0.18029473
0.17019655
0.17200721
0.17377865
0.17556386
0.17740169
0.1786148
0.168774
0.17051433
0.17221991
0.17394106
0.17571698
0.17691056
0.16730894
0.16898333
0.17062605
0.17228467
0.17399848
0.17517011
0.16578051
0.16739442
0.16897816
0.17057696
0.17223004
0.17337798
0.1641639
0.16572395
0.16725365
0.16879604
0.17039057
0.17151666
0.16243463
0.16394836
0.16542982
0.16692044
0.16846036
0.16956954
0.16057113
0.16204643
0.16348578
0.1649296
0.16642002
0.1675242
0.15856079
0.16000559
0.16140935
0.16281224
0.16425992
0.16537829
0.15640694
0.15782853
0.15920334
0.16057262
0.16198885
0.16314524
0.15413363
0.15553725
0.15688768
0.15822737
0.15961618
0.1608467
0.15179271
0.15318046
0.15450933
0.15582601
0.15721284
0.15871448
0.14946174
0.15083118
0.15213692
0.15343347
0.15483989
0.15671782
0.14727743
0.14863509
0.14992988
0.15122722
0.15267806
0.15472703
0.145357
0.14669891
0.14797418
0.14924966
0.15067136
0.15256976
0.14381224
0.1451489
0.14641995
0.14769517
0.14912171
0.15102293
0.14266279
0.14397705
0.14521589
0.14644614
0.14780538
0.1496086
0.14188609
0.14320412
0.14444491
0.14567744
0.14704117
0.14888206
0.14127455
0.14259979
0.14383939
0.14506251
0.14640754
0.14822738
0.14051297
0.14185731
0.14310117
0.14430948
0.14561341
0.14736796
0.13916332
0.14057454
0.14189592
0.14320117
0.14462473
0.14650754
0.13690169
0.13833277
0.139654
0.14093212
0.14232255
0.14430197
0.13355991
0.13504132
0.13642969
0.13780454
0.13933524
0.14133328
0.12920374
0.13072645
0.13217963
0.13366668
0.13546676
0.13881039
0.12426927
0.12579795
0.12724483
0.12868062
0.13024223
0.1318884
0.11892974
0.12045921
0.12191631
0.12339593
0.12516233
0.12834449
0.1137195
0.11530283
0.11684701
0.11849557
0.12069026
0.12561367
0.10958595
0.11129953
0.11301386
0.1149115
0.11756724
0.12380341
0.10739751
0.10927449
0.11117769
0.11329879
0.11622984
0.12271792
0.10695573
0.10891718
0.11091108
0.11312934
0.11615481
0.12261227
0.10721736
0.10922946
0.11128922
0.11358768
0.11669706
0.12315947
0.10809771
0.11010602
0.11216675
0.11446292
0.11754794
0.12373469
0.10806329
0.11003913
0.11206851
0.11433695
0.11739817
0.12355276
0.10669438
0.10865489
0.1106833
0.11297529
0.11613472
0.12263284
0.10237709
0.10433637
0.10646184
0.10900987
0.11277612
0.12109427
0.098384868
0.10026754
0.10241324
0.10514026
0.10941752
0.11922332
0.096170035
0.097910266
0.099939873
0.10259656
0.10691128
0.11727486
0.095572745
0.097188833
0.099079112
0.10156668
0.10564886
0.11568113
0.09554166
0.097123543
0.098978337
0.1014222
0.10543199
0.11524338
0.095280216
0.096859714
0.098731389
0.10122355
0.10535715
0.11544412
0.094001714
0.095535426
0.097446188
0.10010141
0.10459275
0.11524031
0.093003698
0.09438592
0.096191083
0.098825716
0.10347636
0.11482598
0.09273016
0.093986987
0.095692885
0.098269994
0.1029456
0.1145121
0.092814982
0.093974737
0.095603862
0.098152384
0.10289059
0.1145957
0.093187049
0.094173357
0.09570004
0.098217334
0.10300927
0.11492175
0.093799105
0.094595016
0.09596312
0.098408149
0.1032779
0.11534724
0.09488725
0.095455808
0.096581846
0.098831351
0.10363463
0.11577501
0.096016912
0.096384604
0.097286145
0.09930289
0.10393346
0.11611919
0.097999803
0.098178581
0.098792775
0.10039112
0.10455857
0.11645177
0.099607953
0.099687353
0.10014012
0.10145655
0.10520304
0.11674583
0.10243365
0.10243011
0.10271112
0.1036501
0.10658693
0.11736333
0.10444281
0.10442749
0.10467134
0.10550425
0.10816435
0.11809701
0.10780721
0.10775007
0.10789656
0.108501
0.11054722
0.1193301
0.10970929
0.10965675
0.10980929
0.11042845
0.11253085
0.1207637
0.11378619
0.11371908
0.11380817
0.11423825
0.11574404
0.12293082
0.11539042
0.11532874
0.11542595
0.11588484
0.11756362
0.12451988
0.12046464
0.12040244
0.12046909
0.12081109
0.12197635
0.12776602
)
;

boundaryField
{
    Side1
    {
        type            empty;
    }
    Inlet
    {
        type            calculated;
        value           nonuniform List<scalar> 0();
    }
    Side2
    {
        type            empty;
    }
    Outlet
    {
        type            calculated;
        value           nonuniform List<scalar> 
35
(
0.1234779
0.12390552
0.1243372
0.12477268
0.1252113
0.12565265
0.12609639
0.12654229
0.12698997
0.12743911
0.12788958
0.12834119
0.12879373
0.12924695
0.12970068
0.13015474
0.13060894
0.13106308
0.13151663
0.1319694
0.12314153
0.12286696
0.12253536
0.12216037
0.12176718
0.12138777
0.12105328
0.12078637
0.12059683
0.12046464
0.12040244
0.12046909
0.12081109
0.12197635
0.12776602
)
;
    }
    Botwall
    {
        type            calculated;
        value           nonuniform List<scalar> 
59
(
0.14986153
0.14985168
0.14984194
0.1498323
0.14982272
0.14981315
0.14980353
0.14979375
0.14978375
0.14977343
0.14976274
0.14975175
0.14974024
0.1497295
0.14971907
0.14970814
0.14969665
0.1496878
0.14967846
0.14967168
0.14966417
0.14965551
0.14964735
0.14963677
0.14962461
0.14961632
0.14960333
0.14959911
0.14959671
0.14959483
0.14959311
0.14958949
0.14957983
0.14956169
0.14955126
0.14955347
0.1495578
0.14955795
0.14955232
0.14952913
0.1495014
0.14948911
0.14948802
0.14948528
0.1494808
0.14948285
0.14949791
0.14952954
0.14956514
0.14959395
0.14961421
0.14962525
0.14963389
0.14963677
0.14964233
0.14964516
0.14966176
0.14966183
0.14969523
)
;
    }
    Cyli
    {
        type            calculated;
        value           nonuniform List<scalar> 0();
    }
    procBoundary1to0
    {
        type            processor;
        value           nonuniform List<scalar> 
44
(
0.1133073
0.12699072
0.088641286
0.088641286
0.048278676
0.048278676
0.020120258
0.011732015
0.011732015
0.0087336311
0.0087336311
0.0098393309
0.01067154
0.011292379
0.011292379
0.011703022
0.011287437
0.01067334
0.010090597
0.0096428783
0.0097464149
0.0093061595
0.0097464149
0.0090347501
0.0083203027
0.0070994086
0.0070994086
0.17082489
0.17350261
0.13533156
0.14327224
0.15044777
0.15674699
0.16203198
0.16629298
0.16629298
0.12699072
0.12699072
0.17573342
0.17784194
0.17988275
0.18191635
0.18397963
0.18525111
)
;
    }
    procBoundary1to3
    {
        type            processor;
        value           nonuniform List<scalar> 
62
(
0.0059597376
0.0054903977
0.0051012791
0.0048254951
0.0046955595
0.0047197875
0.0049054813
0.0052564852
0.0057798662
0.0064431453
0.0073394309
0.008444673
0.00987606
0.011937059
0.015048032
0.019363702
0.024812069
0.030765282
0.036435587
0.041121734
0.044547195
0.046793231
0.048120977
0.048832312
0.04942303
0.050447178
0.052434801
0.055808904
0.060468136
0.065745349
0.071029102
0.075836873
0.079769589
0.082809771
0.085036012
0.086767738
0.088592458
0.091063036
0.094004414
0.096746256
0.096746256
0.10072499
0.10266276
0.10444025
0.10631948
0.10823591
0.10999605
0.11161133
0.11316697
0.11466733
0.11608833
0.11747012
0.1187298
0.12002587
0.12111135
0.1224728
0.12356341
0.12519319
0.1262152
0.12839052
0.12940389
0.13242092
)
;
    }
}


// ************************************************************************* //
