/*--------------------------------*- C++ -*----------------------------------*\
| =========                 |                                                 |
| \\      /  F ield         | OpenFOAM: The Open Source CFD Toolbox           |
|  \\    /   O peration     | Version:  2406                                  |
|   \\  /    A nd           | Website:  www.openfoam.com                      |
|    \\/     M anipulation  |                                                 |
\*---------------------------------------------------------------------------*/
FoamFile
{
    version     2.0;
    format      ascii;
    arch        "LSB;label=32;scalar=64";
    class       volScalarField;
    location    "0.006";
    object      p;
}
// * * * * * * * * * * * * * * * * * * * * * * * * * * * * * * * * * * * * * //

dimensions      [1 -1 -2 0 0 0 0];

internalField   nonuniform List<scalar> 
35803
(
101245.67
101163.94
101115.96
101056.62
100997.49
100947.69
100910.71
100887.59
100877.91
100878.69
100890.13
100918.69
100958.39
101011.47
101068.29
101138.69
101206.78
101279.59
101313.02
101345.4
101370.67
101392.18
101413.04
101428.11
101443.77
101454.43
101472.44
101481.62
101494.85
101513.89
101470.37
101405.91
101335.11
101264.92
101188.45
101116.93
101055.98
101008.23
100975.12
100957.55
100948.31
100950.02
100969.64
101001.97
101047.85
101098.47
101161.63
101221.69
101289.4
101320.19
101351.85
101375.64
101396.1
101416.15
101430.59
101445.77
101455.99
101473.71
101482.74
101495.9
101516.11
101473.91
101499.38
101440.94
101367.58
101285.99
101209.37
101142.43
101087.74
101048.09
101021.95
101005.22
100997.2
101009.32
101035.4
101075.55
101122.59
101182.23
101238.22
101300.67
101329.54
101359.53
101381.52
101400.72
101419.79
101433.5
101448.11
101457.83
101475.14
101484.01
101497.16
101518.32
101478.17
101586.04
101531.93
101459.86
101376.73
101296.76
101225.07
101164
101116.1
101081.02
101057.08
101043.43
101048.64
101068.64
101103.26
101147.18
101203.86
101256.8
101313.06
101340.83
101368.31
101388.28
101406.04
101423.99
101436.87
101450.81
101459.98
101476.87
101485.5
101498.64
101520.26
101483.03
101671.83
101620.07
101550.33
101467.54
101385.8
101310.65
101244.31
101189.05
101145.92
101114.75
101095.57
101093.73
101107.3
101135.92
101176.2
101228.92
101278.08
101326.77
101354.08
101378.31
101396.05
101412.18
101428.82
101440.76
101453.9
101462.51
101479.39
101487.38
101500.39
101521.7
101488.35
101748.78
101700.14
101634.12
101553.89
101472.72
101396.26
101326.66
101266.15
101216.51
101178.7
101153.57
101144.72
101151.66
101173.98
101210.24
101257.92
101302.36
101342.4
101369.43
101389.7
101404.98
101419.25
101434.36
101445.26
101457.45
101465.47
101483.26
101489.84
101502.43
101523.16
101493.98
101812.53
101767.03
101706.17
101631.04
101553.31
101478.24
101407.97
101344.65
101290.51
101247.3
101216.58
101201.15
101201.55
101217.5
101249.58
101291.09
101329.81
101360.8
101386.94
101402.74
101415.21
101427.39
101440.73
101450.47
101461.5
101468.9
101487.92
101492.81
101504.78
101525.01
101499.73
101862.39
101817.75
101762.14
101695.32
101624.56
101554.08
101486.03
101422.64
101366.35
101319.48
101284.17
101262.98
101257.18
101266.97
101294.75
101328.67
101360.64
101383.31
101406.56
101417.68
101426.91
101436.74
101448.04
101456.48
101466.13
101472.87
101491.82
101496.02
101507.48
101527.17
101505.47
101899.08
101857.32
101807.67
101749.5
101687.02
101623.15
101559.74
101498.84
101442.87
101394.38
101355.93
101330.12
101318.81
101322.88
101345.92
101371.57
101394.72
101410.93
101428.25
101434.74
101440.29
101447.46
101456.43
101463.41
101471.43
101477.44
101494.88
101499.43
101510.55
101529.65
101511.47
101928.64
101889.48
101846.01
101796.12
101742.19
101686.05
101628.98
101572.66
101519.25
101471.27
101431.4
101402.4
101386.58
101385.65
101403.7
101420.18
101432.11
101443.37
101452.21
101454.1
101455.58
101459.68
101466.09
101471.37
101477.51
101482.68
101498.12
101503.18
101514.04
101532.5
101520.19
101951.82
101917.19
101878.98
101836.23
101791.12
101743.88
101694.59
101644.48
101595.46
101549.86
101510.33
101479.68
101460.64
101455.77
101468.51
101474.22
101474.78
101479.28
101478.92
101475.86
101472.99
101473.58
101477.18
101480.49
101484.53
101488.66
101502.15
101507.18
101518.02
101535.71
101527.59
101962.33
101947.65
101920.19
101883.03
101843.71
101803.26
101760.76
101716.81
101672.84
101630.78
101592.97
101562.17
101541.41
101533.8
101539.89
101533.42
101523.25
101517.3
101508.58
101500.04
101492.71
101489.32
101489.85
101490.92
101492.64
101495.51
101507.06
101511.62
101522.55
101539.3
101532.46
101989.03
101979.06
101962.19
101937.35
101905.29
101869.12
101831.21
101792.35
101753.3
101715.39
101680.52
101651.17
101630.33
101620.19
101615.62
101596.29
101574.38
101557.08
101540.73
101526.64
101514.82
101507.08
101504.18
101502.8
101501.99
101503.35
101512.94
101516.97
101527.73
101543.28
101537.63
102032.68
102023.17
102003.54
101978.85
101954.22
101927.67
101898.96
101868.44
101836.76
101805.19
101775.6
101749.8
101729.13
101711.41
101689.19
101657.45
101625.36
101597.98
101574.81
101555.53
101539.21
101526.99
101520.27
101516.21
101512.72
101512.34
101519.87
101523.29
101533.62
101547.62
101545.62
102081.57
102078.83
102068.42
102047.3
102020.18
101994.97
101973.34
101951.75
101927.81
101901.94
101875.54
101849.28
101822.33
101790.42
101752.31
101711.91
101673.11
101639.15
101610.44
101586.22
101565.67
101548.86
101538.25
101531.19
101524.98
101522.64
101527.93
101530.63
101540.28
101552.4
101552.78
102156.52
102159.41
102159.13
102153.6
102138.91
102113.8
102084.18
102053.98
102023.24
101992.02
101959.79
101924.96
101886.97
101845.24
101801.79
101758.87
101717.58
101679.5
101646.29
101618.12
101593.43
101572.71
101558.26
101547.61
101538.83
101534.36
101537.24
101539.05
101547.74
101557.95
101558.41
102159.79
102154.1
102143.89
102130.49
102119.84
102113.27
102106.41
102097.46
102079.11
102048.96
102013.91
101977.18
101935.85
101889.51
101843.55
101799.82
101757.67
101717.65
101681.5
101649.9
101621.99
101598.16
101579.98
101565.67
101554.15
101547.46
101547.91
101548.51
101556.07
101564.44
101566.96
102156.98
102150.64
102142.28
102132
102120.15
102105.93
102088.54
102068.26
102050.16
102034.92
102017.51
101998.17
101969.83
101927.34
101880.89
101835.85
101793.01
101752.57
101715.03
101681.11
101650.36
101624.18
101603.34
101585.31
101570.73
101561.89
101559.99
101558.96
101565.36
101572.12
101575.61
102129.64
102124.68
102118.57
102111.32
102102.82
102092.83
102081.01
102067.18
102052.08
102035.99
102016.43
101990.7
101964.73
101941.72
101909.87
101868.61
101824.97
101783.77
101745.96
101711.24
101678.34
101650.14
101627.28
101606.37
101588.67
101577.5
101573.39
101570.28
101575.68
101581.1
101595.14
102095.39
102091.26
102086.24
102080.38
102073.58
102065.67
102056.49
102045.86
102033.57
102019.21
102002.4
101983.08
101961.08
101939.41
101919.98
101892.21
101853.17
101812.46
101773.66
101738.87
101705.84
101675.9
101650.92
101628.36
101607.94
101594.22
101587.93
101582.3
101586.98
101591.1
101615.35
102062.45
102059.28
102055.42
102050.92
102045.69
102039.6
102032.5
102024.21
102014.54
102003.24
101990.12
101974.88
101957.74
101937.81
101913.29
101889.42
101868.2
101836.31
101798.65
101763.03
101731.43
101701.62
101673.9
101650.31
101628.59
101612.18
101603.47
101594.97
101599.09
101600.46
101629.52
102024.51
102022.02
102018.99
102015.48
102011.43
102006.7
102001.19
101994.76
101987.24
101978.48
101968.28
101956.51
101942.78
101927.04
101909.8
101890.5
101870.76
101850.28
101819.48
101784.99
101753.5
101725.59
101696.23
101671.58
101650.17
101631.87
101620.07
101608.22
101611.33
101609.25
101641.69
101991.77
101989.9
101987.63
101985.01
101981.96
101978.4
101974.25
101969.39
101963.7
101957.06
101949.28
101940.16
101929.54
101917.13
101902.4
101886.2
101867.51
101847.6
101830.94
101803.95
101772.97
101745.13
101717.45
101691.76
101671.34
101653
101638.31
101623.06
101623.67
101621.09
101648.71
101958.69
101957.24
101955.48
101953.44
101951.09
101948.35
101945.14
101941.4
101937.03
101931.92
101925.94
101918.96
101910.83
101901.35
101890.54
101877.64
101863.22
101847.38
101831.2
101816.01
101789.52
101760.87
101735.08
101710.45
101690.9
101673.41
101657.01
101639.81
101637.91
101633.68
101658.26
101926.56
101925.53
101924.27
101922.83
101921.15
101919.2
101916.92
101914.24
101911.11
101907.42
101903.08
101897.98
101891.98
101884.91
101876.46
101866.8
101855.23
101842.65
101828.11
101812.32
101800.01
101776.18
101750.1
101727.4
101708.43
101690.92
101673.77
101657.42
101654.45
101647.2
101676.9
101895.78
101895.04
101894.16
101893.14
101891.96
101890.58
101888.97
101887.07
101884.84
101882.22
101879.12
101875.46
101871.1
101865.97
101860.04
101852.95
101844.9
101835.28
101824.09
101810.8
101798.53
101787.13
101766.36
101745.29
101724.07
101706.54
101687.92
101674.26
101670.01
101660.64
101689.43
101871.28
101870.73
101870.06
101869.3
101868.41
101867.37
101866.15
101864.73
101863.07
101861.11
101858.79
101856.05
101852.84
101849.05
101844.55
101839.43
101833.45
101826.14
101817.41
101808.57
101798.82
101785.4
101774.91
101761.42
101740.28
101721.06
101702.92
101693.59
101686.12
101676.04
101691.7
101852.43
101851.99
101851.45
101850.84
101850.12
101849.29
101848.3
101847.15
101845.79
101844.2
101842.33
101840.13
101837.54
101834.53
101831.04
101827
101822.31
101816.98
101810.8
101802.77
101792.15
101782.78
101773.67
101764.02
101750.16
101734.46
101723.22
101714.48
101702.88
101692.35
101692.16
101831.89
101831.02
101830.11
101829.17
101828.17
101827.12
101825.99
101824.75
101823.41
101821.96
101820.44
101818.93
101817.52
101816.19
101814.79
101813.08
101810.85
101808.2
101803.93
101797.07
101789.05
101780.93
101775
101770.25
101763.96
101752.08
101741.51
101730.75
101719.38
101709.31
101695.07
101835.06
101834.58
101834.08
101833.54
101832.97
101832.33
101831.62
101830.83
101829.92
101828.88
101827.66
101826.22
101824.47
101822.32
101819.69
101816.56
101813.01
101808.79
101805.02
101802.47
101799.07
101795.84
101788.36
101774.39
101763.27
101754.32
101745.16
101736.84
101726.92
101719.96
101707.84
101828.06
101827.64
101827.21
101826.76
101826.29
101825.78
101825.2
101824.54
101823.76
101822.83
101821.71
101820.37
101818.76
101816.86
101814.63
101812.05
101809.06
101805.56
101801.86
101797.68
101793.74
101786.86
101779.41
101772.51
101761.05
101741.44
101733.16
101724.27
101715.3
101716.77
101708.23
100219.73
100224.25
100235.92
100245.28
100256.84
100269.83
100285.07
100300.18
100319.88
100348.17
100387.58
100439.08
100502.46
100576.77
100661.42
100751.74
100849.97
100945.96
101044.57
101126.32
101180.32
101239.02
101286.92
101324.77
101357.78
101384.46
101410.25
101426.47
101439.54
101446.32
101460.78
100228.37
100242.51
100263.31
100273.91
100285.68
100295.34
100303.44
100314.26
100333.31
100362.72
100403.9
100456.93
100521.4
100596.14
100680.35
100769.04
100865.22
100955.19
101053.85
101128.03
101183.53
101242.24
101289.58
101326.92
101359.55
101385.91
101411.51
101427.53
101440.41
101447.02
101460.73
100239.71
100258.34
100268.49
100272.09
100279.64
100289.49
100299.6
100313.54
100335.64
100367.71
100411.25
100466.01
100531.66
100607.02
100691.26
100779.41
100875.56
100964.36
101061.9
101130.99
101187.59
101245.76
101292.37
101329.15
101361.36
101387.38
101412.79
101428.6
101441.32
101447.71
101460.62
100248.87
100265.57
100266.55
100269.21
100276.4
100285.1
100295.44
100311.21
100335.49
100369.84
100415.45
100471.85
100538.74
100614.88
100699.47
100787.57
100884.33
100973.51
101069.04
101134.34
101191.92
101249.27
101295.16
101331.38
101363.18
101388.86
101414.08
101429.67
101442.31
101448.42
101460.52
100251.28
100262.03
100261.19
100263.83
100270.81
100279.26
100290.85
100308.82
100335.41
100372.19
100419.87
100477.97
100546.14
100623.12
100708.07
100796.16
100893.34
100982.84
101075.31
101137.68
101196.31
101252.76
101297.95
101333.61
101365
101390.35
101415.38
101430.76
101443.41
101449.15
101460.44
100247.6
100252.49
100253.14
100257.29
100264.11
100272.99
100286.3
100306.6
100335.65
100374.94
100424.7
100484.52
100553.96
100631.73
100716.97
100805.01
100902.42
100992.06
101081.32
101141
101200.75
101256.23
101300.73
101335.84
101366.83
101391.84
101416.68
101431.86
101444.63
101449.91
101460.38
100241.88
100242.52
100244.28
100249.29
100256.17
100266.1
100281.49
100304.26
100335.96
100377.78
100429.63
100491.17
100561.83
100640.35
100725.83
100813.83
100911.27
101001.12
101087.94
101144.34
101205.23
101259.68
101303.51
101338.07
101368.66
101393.33
101417.98
101432.96
101446.01
101450.71
101460.36
100234.62
100233.34
100234.78
100239.69
100247.11
100258.66
100276.4
100301.8
100336.3
100380.64
100434.6
100497.86
100569.7
100648.94
100734.63
100822.58
100919.82
101010.12
101095.18
101147.71
101209.74
101263.1
101306.29
101340.31
101370.49
101394.83
101419.29
101434.08
101447.54
101451.55
101460.35
100223.7
100221.52
100222.94
100228.36
100237.09
100250.74
100271.06
100299.29
100336.7
100383.56
100439.66
100504.61
100577.6
100657.53
100743.39
100831.28
100928.41
101018.47
101102.22
101151.31
101214.27
101266.51
101309.06
101342.54
101372.33
101396.33
101420.61
101435.21
101449.17
101452.46
101460.37
100209.78
100207.43
100209.3
100215.74
100226.26
100242.36
100265.5
100296.78
100337.13
100386.55
100444.82
100511.44
100585.54
100666.13
100752.11
100839.94
100937
101025.93
101108.79
101155.35
101218.78
101269.9
101311.84
101344.77
101374.16
101397.83
101421.93
101436.34
101450.84
101453.41
101460.4
100192.79
100190.9
100193.83
100201.86
100214.65
100233.55
100259.76
100294.29
100337.63
100389.67
100450.1
100518.36
100593.52
100674.74
100760.8
100848.62
100945.52
101033.26
101114.88
101159.78
101223.27
101273.27
101314.6
101347
101376
101399.33
101423.25
101437.48
101452.49
101454.38
101460.45
100172.77
100172.06
100176.61
100186.76
100202.28
100224.33
100253.92
100291.84
100338.22
100392.92
100455.5
100525.36
100601.55
100683.35
100769.46
100857.42
100953.63
101040.69
101120.54
101164.46
101227.74
101276.63
101317.37
101349.23
101377.84
101400.83
101424.58
101438.63
101454.07
101455.3
101460.52
100149.83
100150.86
100157.62
100170.47
100189.2
100214.78
100248.04
100289.45
100338.96
100396.33
100461.04
100532.45
100609.62
100691.97
100778.09
100866.23
100961.01
101048.23
101125.84
101169.26
101232.16
101279.97
101320.12
101351.46
101379.68
101402.34
101425.9
101439.79
101455.59
101456.11
101460.61
100123.88
100127.28
100136.9
100153.07
100175.52
100204.99
100242.16
100287.17
100339.88
100399.93
100466.74
100539.64
100617.75
100700.6
100786.69
100874.94
100968.37
101055.81
101130.87
101174.2
101236.55
101283.3
101322.87
101353.69
101381.52
101403.84
101427.23
101440.95
101457.07
101456.8
101460.71
100094.9
100101.36
100114.56
100134.67
100161.33
100195.06
100236.35
100285.07
100341.02
100403.74
100472.59
100546.93
100625.92
100709.23
100795.27
100883.96
100975.75
101063.13
101135.72
101179.25
101240.9
101286.61
101325.62
101355.91
101383.36
101405.35
101428.57
101442.11
101458.51
101457.44
101460.82
100062.89
100073.22
100090.74
100115.44
100146.77
100185.13
100230.67
100283.21
100342.44
100407.78
100478.62
100554.34
100634.15
100717.86
100803.88
100893.16
100982.82
101070.34
101140.46
101184.4
101245.2
101289.91
101328.35
101358.13
101385.2
101406.85
101429.9
101443.28
101459.92
101458.06
101460.94
100027.98
100043.05
100065.68
100095.58
100132.05
100175.3
100225.26
100281.68
100344.16
100412.09
100484.85
100561.87
100642.44
100726.5
100812.6
100902.47
100990.32
101077.47
101145.15
101189.59
101249.46
101293.2
101331.08
101360.34
101387.04
101408.35
101431.23
101444.45
101461.3
101458.7
101461.08
99990.413
100011.16
100039.68
100075.36
100117.37
100165.73
100220.22
100280.56
100346.25
100416.68
100491.28
100569.53
100650.79
100735.15
100821.49
100911.23
100998.08
101084.54
101149.82
101194.81
101253.68
101296.48
101333.8
101362.56
101388.88
101409.86
101432.56
101445.62
101462.66
101459.37
101461.23
99950.634
99978.016
100013.14
100055.09
100102.96
100156.59
100215.69
100279.91
100348.75
100421.59
100497.93
100577.32
100659.2
100743.8
100830.12
100919.44
101005.73
101091.49
101154.48
101200.05
101257.85
101299.75
101336.51
101364.76
101390.71
101411.35
101433.89
101446.79
101464
101460.06
101461.38
99909.355
99944.242
99986.554
100035.16
100089.1
100148.09
100211.78
100279.83
100351.71
100426.84
100504.82
100585.25
100667.66
100752.5
100838.87
100927.51
101013.59
101098.11
101159.15
101205.31
101261.98
101303.01
101339.21
101366.97
101392.54
101412.85
101435.22
101447.97
101465.32
101460.76
101461.55
99867.565
99910.636
99960.514
100015.99
100076.08
100140.43
100208.65
100280.39
100355.17
100432.46
100511.95
100593.32
100676.19
100761.37
100847.81
100935.3
101021.77
101104.41
101163.87
101210.59
101266.07
101306.25
101341.9
101369.16
101394.37
101414.34
101436.55
101449.14
101466.62
101461.49
101461.71
99826.458
99878.142
99935.649
99998.018
100064.22
100133.86
100206.42
100281.69
100359.2
100438.48
100519.36
100601.54
100684.83
100770.62
100856.17
100942.77
101029.38
101110.83
101168.66
101215.88
101270.12
101309.49
101344.58
101371.35
101396.19
101415.83
101437.88
101450.31
101467.92
101462.22
101461.87
99787.385
99847.818
99912.587
99981.681
100053.86
100128.59
100205.23
100283.79
100363.83
100444.93
100527.02
100609.92
100693.76
100779.79
100864.04
100950.45
101036.32
101117.52
101173.52
101221.17
101274.12
101312.71
101347.25
101373.54
101398.01
101417.32
101439.2
101451.48
101469.2
101462.89
101462.02
99751.672
99820.517
99891.978
99967.473
100045.34
100124.88
100205.23
100286.79
100369.13
100451.81
100534.97
100618.61
100703.34
100788.31
100872
100958.09
101043.05
101124.56
101178.46
101226.45
101278.09
101315.91
101349.9
101375.71
101399.82
101418.8
101440.52
101452.66
101470.46
101463.52
101462.16
99719.804
99796.282
99874.968
99956.017
100039
100122.84
100206.56
100290.79
100375.11
100459.15
100543.29
100627.97
100712.76
100796.21
100880.4
100965.64
101049.85
101131.76
101183.49
101231.71
101282.02
101319.11
101352.55
101377.88
101401.63
101420.27
101441.84
101453.83
101471.71
101464.19
101462.27
99693.525
99777.055
99861.694
99947.748
100034.96
100122.5
100209.42
100295.9
100381.85
100467.02
100552.34
100638.19
100721.16
100804.36
100888.75
100973.11
101056.7
101138.81
101188.62
101236.95
101285.91
101322.28
101355.18
101380.04
101403.43
101421.74
101443.15
101455
101472.95
101464.95
101462.36
99673.765
99763.33
99852.683
99942.869
100033.68
100124.28
100213.67
100302.09
100389.48
100475.77
100562.69
100647.08
100728.79
100813.18
100897.03
100980.5
101063.54
101145.68
101193.88
101242.16
101289.77
101325.45
101357.79
101382.19
101405.23
101423.2
101444.46
101456.17
101474.17
101465.82
101462.4
99661.204
99755.629
99848.449
99941.733
100035.34
100128.3
100219.49
100309.43
100398.42
100486.18
100572.74
100654.96
100737.92
100822.04
100905.27
100987.81
101070.37
101152.39
101199.25
101247.32
101293.59
101328.59
101360.39
101384.34
101407.02
101424.66
101445.77
101457.34
101475.38
101466.8
101462.42
99656.444
99754.419
99849.361
99944.599
100040.1
100134.69
100227.24
100318.72
100409.43
100497.71
100581.07
100663.48
100747.23
100830.87
100913.5
100995.03
101077.16
101158.97
101204.69
101252.45
101297.39
101331.72
101362.98
101386.47
101408.8
101426.11
101447.07
101458.5
101476.57
101467.9
101462.39
99660.046
99760.125
99855.746
99951.746
100048.32
100144.16
100238.13
100331.2
100421.66
100506.62
100588.85
100673.32
100756.54
100839.73
100921.71
101002.19
101083.9
101165.44
101210.18
101257.53
101301.15
101334.83
101365.55
101388.59
101410.57
101427.56
101448.37
101459.66
101477.75
101469.13
101462.35
99672.599
99773.404
99868.318
99964.032
100061.02
100158.15
100253.78
100344.98
100429.73
100514.55
100599.3
100683.41
100765.94
100848.63
100929.93
101009.35
101090.58
101171.82
101215.7
101262.56
101304.88
101337.92
101368.1
101390.7
101412.33
101428.99
101449.65
101460.82
101478.89
101470.52
101462.27
99694.469
99795.238
99888.523
99983.363
100079.87
100176.2
100269.06
100354.22
100438.36
100526.02
100610.35
100693.63
100775.45
100857.59
100938.15
101016.62
101097.23
101178.1
101221.24
101267.53
101308.58
101340.98
101370.64
101392.8
101414.09
101430.42
101450.94
101461.98
101480
101472.1
101462.18
99723.566
99823.257
99913.959
100006.88
100101.31
100193.54
100279.04
100363.74
100451.59
100538.54
100621.68
100704.08
100785.09
100866.6
100946.38
101023.44
101103.93
101184.31
101226.77
101272.43
101312.24
101344.03
101373.15
101394.88
101415.83
101431.84
101452.21
101463.13
101481.05
101473.91
101462.07
99754.048
99852.855
99940.288
100029.11
100119.73
100205.78
100290.9
100379.18
100466.15
100551.64
100633.42
100714.78
100794.85
100875.66
100954.48
101030.01
101110.68
101190.45
101232.27
101277.26
101315.87
101347.05
101375.65
101396.95
101417.57
101433.25
101453.48
101464.28
101482.05
101475.97
101461.95
99785.714
99882.345
99965.591
100050.58
100136.07
100221.86
100310.74
100396.72
100481.57
100565.48
100645.68
100725.75
100804.72
100884.76
100962.52
101036.88
101117.29
101196.52
101237.74
101282.01
101319.48
101350.05
101378.14
101399.01
101419.29
101434.65
101454.74
101465.42
101482.97
101478.22
101461.83
99838.661
99930.119
100006.71
100085.52
100166.59
100249.85
100333.92
100415.8
100498.11
100580.16
100658.47
100736.99
100814.72
100893.9
100970.52
101043.76
101123.76
101202.49
101243.16
101286.69
101323.05
101353.02
101380.6
101401.06
101421
101436.04
101455.98
101466.56
101483.81
101480.53
101461.7
99906.088
99990.839
100059.33
100130.4
100204.82
100281.68
100359.54
100436.63
100515.92
100595.7
100671.81
100748.51
100824.84
100903.08
100978.48
101050.6
101130.09
101208.38
101248.54
101291.29
101326.6
101355.96
101383.04
101403.08
101422.7
101437.41
101457.22
101467.69
101484.56
101482.84
101461.58
99978.875
100057.4
100117.31
100179.9
100246.58
100316.2
100387.6
100459.29
100535.04
100612.09
100685.72
100760.32
100835.09
100912.28
100986.38
101057.42
101136.28
101214.18
101253.86
101295.81
101330.11
101358.88
101385.46
101405.1
101424.39
101438.78
101458.45
101468.81
101485.23
101485.14
101461.47
100059.74
100130.87
100180.93
100233.98
100291.95
100353.73
100418.09
100483.76
100555.51
100629.32
100700.22
100772.43
100845.46
100921.5
100994.23
101064.24
101142.33
101219.88
101259.12
101300.25
101333.6
101361.77
101387.86
101407.09
101426.07
101440.14
101459.67
101469.92
101485.85
101487.47
101461.38
100149.44
100211.51
100250.26
100292.66
100341.05
100394.32
100450.93
100510
100577.42
100647.4
100715.34
100784.87
100855.96
100930.74
101002.02
101071.07
101148.22
101225.47
101264.31
101304.61
101337.05
101364.63
101390.23
101409.07
101427.73
101441.49
101460.88
101471.03
101486.47
101489.83
101461.32
100246.38
100298.11
100324.46
100355.41
100393.62
100437.82
100486
100538.06
100600.82
100666.32
100731.1
100797.66
100866.6
100939.97
101009.74
101077.93
101153.92
101230.94
101269.44
101308.88
101340.47
101367.46
101392.58
101411.03
101429.38
101442.82
101462.08
101472.13
101487.11
101492.2
101461.31
100347.45
100388.69
100402.37
100421.62
100449.39
100484.09
100523.2
100568.17
100625.69
100686.07
100747.49
100810.8
100877.36
100949.18
101017.37
101084.82
101159.47
101236.28
101274.48
101313.08
101343.86
101370.26
101394.91
101412.98
101431.01
101444.15
101463.26
101473.22
101487.82
101494.62
101461.36
100449.65
100481.43
100483.13
100490.97
100508.28
100533.04
100562.6
100600.9
100651.63
100706.65
100764.54
100824.32
100888.26
100958.34
101024.88
101091.76
101165
101241.48
101279.42
101317.19
101347.22
101373.03
101397.21
101414.9
101432.63
101445.46
101464.44
101474.3
101488.57
101497.12
101461.52
100551.89
100575.67
100566.67
100563.55
100570.35
100584.55
100604.92
100636.09
100678.1
100728.14
100782.24
100838.2
100899.28
100967.44
101032.23
101098.77
101170.63
101246.52
101284.28
101321.22
101350.55
101375.77
101399.48
101416.8
101434.24
101446.76
101465.6
101475.37
101489.36
101499.57
101461.8
100655.91
100672.25
100653.69
100639.81
100635.72
100638.73
100651.11
100672.82
100705.3
100750.31
100800.6
100852.51
100910.46
100976.46
101039.39
101105.87
101176.31
101251.41
101289.03
101325.18
101353.84
101378.48
101401.74
101418.69
101435.83
101448.04
101466.75
101476.43
101490.2
101501.92
101462.26
100766.27
100773.26
100745.48
100720.42
100704.4
100697.86
100701.02
100710.8
100734.08
100773.37
100819.89
100867.56
100922.09
100985.63
101046.51
101113.1
101181.91
101256.04
101293.65
101329.05
101357.09
101381.14
101403.95
101420.54
101437.4
101449.31
101467.88
101477.47
101491.06
101504.39
101462.97
100890.82
100883.33
100845.59
100808.62
100781.25
100764.2
100755.11
100753.74
100767.66
100799.37
100841.39
100884.49
100935.15
100995.76
101054.29
101120.71
101187.47
101260.17
101297.96
101332.73
101360.24
101383.73
101406.1
101422.36
101438.94
101450.55
101468.99
101478.5
101491.97
101506.86
101464.01
101038.44
101012.05
100965.13
100915.23
100873.81
100842.83
100821.01
100808.35
100813.75
100833.73
100867.74
100905.36
100951.35
101008.25
101063.98
101129.21
101193.17
101263.68
101301.69
101336.17
101363.29
101386.24
101408.21
101424.14
101440.46
101451.79
101470.11
101479.54
101492.92
101509.06
101465.47
101190.31
101153.7
101107.11
101045.73
100986.8
100938.14
100901.68
100878.48
100872.89
100880.56
100899.66
100930.3
100970.72
101023.17
101075.89
101138.96
101199.57
101267.94
101305.25
101339.75
101366.44
101388.85
101410.38
101425.97
101442.02
101453.06
101471.26
101480.59
101493.91
101511.4
101467.53
100253.89
100268.11
100282.45
100293.71
100299.16
100305.36
100314.43
100326.1
100343.91
100370.79
100408.5
100457.87
100518.99
100590.89
100672.73
100760.12
100853.39
100948.03
101033.91
101119.2
101174.75
101235.36
101284.22
101322.63
101356.03
101383.03
101408.99
101425.43
101438.74
101445.66
101460.6
100246.48
100257.88
100272.99
100291.29
100300.75
100306.95
100314.71
100325.87
100343.39
100369.77
100406.76
100455.41
100515.88
100587.25
100668.66
100756.08
100849.05
100946.71
101029.36
101117.84
101172.84
101233.35
101282.42
101321.09
101354.72
101381.94
101408.01
101424.59
101438.12
101445.22
101460.59
100243.35
100252.63
100266.78
100286.21
100297.24
100304.22
100313.3
100325.64
100343.74
100370.15
100406.73
100454.72
100514.45
100585.1
100665.87
100753.07
100845.56
100944.41
101026.96
101116.21
101170.96
101231.55
101280.78
101319.67
101353.49
101380.91
101407.06
101423.76
101437.51
101444.77
101460.58
100244.74
100253.81
100267.18
100284.54
100295.56
100303.88
100314.42
100327.79
100346.41
100372.84
100409.01
100456.26
100515.08
100584.82
100664.67
100751.33
100842.99
100941.97
101024.6
101113.98
101168.71
101229.56
101279.06
101318.18
101352.2
101379.82
101406.07
101422.9
101436.9
101444.29
101460.55
100246.34
100255.52
100268.38
100284.18
100295.49
100304.88
100316.3
100330.41
100349.48
100375.98
100411.84
100458.43
100516.41
100585.24
100664.15
100750.16
100840.92
100939.66
101022.02
101111.54
101166.36
101227.46
101277.26
101316.63
101350.87
101378.7
101405.05
101422.01
101436.27
101443.79
101460.5
100247.06
100256.19
100268.44
100283.48
100295.5
100305.71
100317.72
100332.53
100352.1
100378.79
100414.45
100460.53
100517.78
100585.79
100663.8
100749.17
100839.07
100937.44
101019.37
101109.04
101164.05
101225.36
101275.44
101315.07
101349.53
101377.56
101404.01
101421.12
101435.63
101443.28
101460.41
100247.12
100256.08
100267.74
100282.28
100295.02
100306
100318.54
100334.11
100354.27
100381.23
100416.81
100462.49
100519.11
100586.38
100663.53
100748.26
100837.37
100935.32
101016.77
101106.46
101161.8
101223.27
101273.64
101313.51
101348.18
101376.42
101402.97
101420.22
101434.99
101442.77
101460.29
100246.72
100255.48
100266.68
100280.77
100294.14
100305.89
100318.97
100335.32
100356.11
100383.42
100419.01
100464.38
100520.45
100587.02
100663.35
100747.45
100835.8
100933.27
101014.25
101103.86
101159.59
101221.2
101271.85
101311.95
101346.84
101375.28
101401.93
101419.32
101434.34
101442.25
101460.12
100245.98
100254.58
100265.39
100279.08
100292.97
100305.49
100319.1
100336.26
100357.7
100385.42
100421.09
100466.24
100521.82
100587.74
100663.28
100746.74
100834.35
100931.3
101011.82
101101.27
101157.41
101219.14
101270.07
101310.39
101345.49
101374.13
101400.88
101418.42
101433.68
101441.73
101459.89
100245
100253.46
100263.92
100277.19
100291.52
100304.83
100319.02
100336.96
100359.07
100387.25
100423.08
100468.08
100523.23
100588.55
100663.34
100746.15
100833.02
100929.41
101009.49
101098.69
101155.24
101217.09
101268.29
101308.83
101344.13
101372.98
101399.82
101417.5
101433.01
101441.19
101459.59
100243.91
100252.18
100262.31
100275.14
100289.82
100303.86
100318.72
100337.44
100360.25
100388.93
100424.98
100469.9
100524.69
100589.46
100663.51
100745.67
100831.82
100927.6
101007.26
101096.11
101153.07
101215.05
101266.52
101307.27
101342.78
101371.82
101398.75
101416.58
101432.34
101440.64
101459.22
100242.77
100250.82
100260.67
100273.07
100287.96
100302.62
100318.26
100337.74
100361.27
100390.49
100426.82
100471.72
100526.21
100590.45
100663.81
100745.31
100830.75
100925.86
101005.16
101093.48
101150.92
101213.03
101264.76
101305.71
101341.42
101370.66
101397.68
101415.66
101431.65
101440.07
101458.76
100241.63
100249.45
100259.02
100271.05
100286.08
100301.26
100317.68
100337.91
100362.17
100391.95
100428.61
100473.54
100527.78
100591.55
100664.23
100745.07
100829.81
100924.19
101003.21
101090.83
101148.78
101211.02
101263
101304.15
101340.05
101369.48
101396.6
101414.73
101430.94
101439.5
101458.21
100240.52
100248.09
100257.39
100269.13
100284.24
100299.92
100317.04
100337.99
100362.98
100393.35
100430.37
100475.39
100529.42
100592.75
100664.77
100744.95
100828.99
100922.62
101001.45
101088.31
101146.65
101209.03
101261.25
101302.59
101338.69
101368.31
101395.52
101413.79
101430.23
101438.91
101457.56
100239.46
100246.77
100255.8
100267.34
100282.46
100298.64
100316.4
100338.01
100363.73
100394.71
100432.13
100477.27
100531.14
100594.05
100665.45
100744.95
100828.32
100921.33
100999.94
101086.04
101144.55
101207.05
101259.52
101301.03
101337.32
101367.13
101394.43