/*--------------------------------*- C++ -*----------------------------------*\
| =========                 |                                                 |
| \\      /  F ield         | OpenFOAM: The Open Source CFD Toolbox           |
|  \\    /   O peration     | Version:  2406                                  |
|   \\  /    A nd           | Website:  www.openfoam.com                      |
|    \\/     M anipulation  |                                                 |
\*---------------------------------------------------------------------------*/
FoamFile
{
    version     2.0;
    format      ascii;
    arch        "LSB;label=32;scalar=64";
    class       surfaceScalarField;
    location    "0.095";
    object      phi;
}
// * * * * * * * * * * * * * * * * * * * * * * * * * * * * * * * * * * * * * //

dimensions      [1 0 -1 0 0 0 0];

oriented        oriented;

internalField   nonuniform List<scalar> 
16284
(
0.010476409
-0.014614615
0.015059813
-0.010921585
0.010035182
-0.017160273
0.01760152
0.0095726719
-0.020081432
0.020543954
0.009092105
-0.023457247
0.023937821
0.0086006721
-0.02735681
0.027848242
0.0081086444
-0.031846399
0.032338411
0.0076279881
-0.037000966
0.037481596
0.0071683442
-0.042910491
0.043370104
0.0067354854
-0.049697857
0.050130689
0.0063316772
-0.057504198
0.057907989
0.0059573816
-0.066457392
0.066831686
0.0056080358
-0.076722843
0.077072208
0.0052732933
-0.088465947
0.08880073
0.0049355066
-0.10181425
0.1021521
0.004566012
-0.116609
0.11697857
0.0040984367
-0.1325041
0.13297172
0.0035202429
-0.14870253
0.14928075
0.0030000846
-0.16602859
0.16654874
0.002618664
-0.18689025
0.18727167
0.0022962824
-0.21104807
0.21137049
0.0020040979
-0.23860921
0.23890149
0.0017369156
-0.26986104
0.27012835
0.0014885605
-0.30529839
0.30554682
0.0012645348
-0.34553799
0.34576204
0.0010595846
-0.39115982
0.39136477
0.00087113983
-0.44297456
0.44316301
0.00069226576
-0.5016785
0.50185742
0.00052079881
-0.56843442
0.5686059
0.00035229393
-0.64418308
0.64435161
0.00018123782
-0.73045978
0.73063078
-0.82841898
0.82860015
0.011612054
-0.014224606
-0.012002052
0.011173978
-0.016722188
0.010709264
-0.019616715
0.010221715
-0.022969704
0.0097160703
-0.02685118
0.0092015705
-0.031331924
0.0086900285
-0.036489455
0.0081932142
-0.04241371
0.007717336
-0.049222007
0.0072655876
-0.057052466
0.0068405512
-0.066032353
0.006439006
-0.076321272
0.0060506383
-0.088077526
0.005651996
-0.10141553
0.0052120936
-0.11616901
0.0046556075
-0.13194755
0.0039800733
-0.14802697
0.0033971261
-0.16544565
0.0029700263
-0.18646316
0.0026054263
-0.21068344
0.0022742634
-0.23827793
0.0019714103
-0.26955805
0.001689602
-0.30501648
0.0014355007
-0.34528384
0.001203023
-0.39092733
0.00098902177
-0.44276055
0.00078598059
-0.50147541
0.00059117136
-0.56823958
0.00039990091
-0.64399177
0.00020557276
-0.73026552
-0.82821349
0.012746606
-0.013883744
-0.013087472
0.012349058
-0.016324647
0.011908122
-0.019175791
0.01143184
-0.022493439
0.010926708
-0.026346072
0.010401791
-0.030807037
0.0098686925
-0.035956392
0.0093403079
-0.04188536
0.0088250126
-0.048706739
0.0083259637
-0.05655343
0.0078481773
-0.065554559
0.0073896361
-0.075862696
0.006940274
-0.087628101
0.0064714251
-0.10094658
0.0059476074
-0.11564509
0.0052834266
-0.13128331
0.0044990448
-0.14724256
0.003857022
-0.16480365
0.0033792031
-0.18598537
0.0029659046
-0.21027011
0.0025893736
-0.23790128
0.0022447494
-0.26921326
0.0019236526
-0.30469527
0.0016341686
-0.34499431
0.0013693885
-0.39066255
0.0011254705
-0.44251663
0.00089431136
-0.5012442
0.00067243544
-0.56801768
0.00045493906
-0.64377422
0.00023381175
-0.73004446
-0.82797979
0.013896487
-0.013600895
-0.014179357
0.01355495
-0.015983134
0.013158819
-0.018779686
0.012714149
-0.022048799
0.012227635
-0.025859592
0.011708016
-0.030287455
0.011166537
-0.035414952
0.010616145
-0.041335003
0.010066917
-0.048157538
0.0095236982
-0.056010221
0.0089925694
-0.065023417
0.0084728815
-0.075342966
0.0079547642
-0.087109908
0.0074047705
-0.10039648
0.0067800602
-0.11502026
0.0059856994
-0.13048887
0.0050803953
-0.14633723
0.0043797238
-0.16410301
0.0038425155
-0.1854482
0.003373537
-0.20980111
0.0029455326
-0.23747316
0.0025535909
-0.26882114
0.0021881216
-0.30432966
0.0018587196
-0.34466485
0.001557546
-0.39036138
0.0012798107
-0.4422389
0.0010169044
-0.50098123
0.00076435911
-0.56776509
0.00051719138
-0.64352699
0.00026565509
-0.72979301
-0.82771426
0.015058254
-0.013384683
-0.015274504
0.014783456
-0.015708376
0.014448471
-0.018444742
0.014055086
-0.021655455
0.013607461
-0.025412011
0.013112416
-0.029792456
0.012579708
-0.034882286
0.012021277
-0.040776609
0.011447925
-0.04758421
0.010866574
-0.055428876
0.010283812
-0.064440634
0.0097000675
-0.074759168
0.0091053232
-0.086515075
0.0084612584
-0.099752294
0.0077134778
-0.11427235
0.0067636173
-0.12953893
0.0057309136
-0.14530451
0.0049723662
-0.16334452
0.0043683382
-0.18484422
0.0038370108
-0.20926976
0.0033512651
-0.23698729
0.0029058023
-0.26837548
0.0024900443
-0.30391375
0.002115207
-0.34428994
0.0017725305
-0.39001872
0.0014560852
-0.44192247
0.0011569333
-0.50068201
0.00086928003
-0.56747739
0.00058831499
-0.64324595
0.00030200694
-0.72950679
-0.82741242
0.016222233
-0.013242383
-0.016364584
0.016024137
-0.01551033
0.015764369
-0.018185024
0.015440305
-0.02133144
0.01505199
-0.025023745
0.014602616
-0.029343129
0.01409887
-0.034378584
0.013550362
-0.040228137
0.01296722
-0.047001088
0.012357399
-0.054819054
0.011727584
-0.06381079
0.011078549
-0.074110069
0.010399232
-0.085835656
0.0096454436
-0.098998365
0.008746063
-0.11337282
0.0076135499
-0.12840632
0.0064595844
-0.14415054
0.00564182
-0.16252682
0.0049634192
-0.1841659
0.0043619454
-0.20866827
0.0038113959
-0.23643661
0.0033054278
-0.2678693
0.002832933
-0.30344107
0.0024066447
-0.34386357
0.0020169186
-0.38962902
0.0016564423
-0.44156202
0.0013161504
-0.50034164
0.0009885039
-0.56714968
0.00066918235
-0.64292653
0.00034323596
-0.72918094
-0.82706939
0.017384672
-0.013178845
-0.017448268
0.017270561
-0.015396274
0.017097365
-0.018011878
0.016857775
-0.021091899
0.01654706
-0.024713078
0.016163789
-0.028959902
0.015710209
-0.033925043
0.015192032
-0.039709988
0.014616869
-0.046425937
0.013991811
-0.054193986
0.013322476
-0.063141413
0.012608555
-0.073396071
0.011835965
-0.085062949
0.010952684
-0.098114926
0.0098650256
-0.11228499
0.0085269674
-0.12706815
0.0072780905
-0.14290167
0.0063943492
-0.16164316
0.0056349823
-0.18340662
0.0049554669
-0.20798876
0.0043328912
-0.23581391
0.0037589545
-0.26729514
0.0032228446
-0.30290476
0.0027384106
-0.34337904
0.0022953045
-0.38918596
0.0018846799
-0.44115144
0.0014976008
-0.49995446
0.0011242953
-0.56677629
0.00076138088
-0.6425635
0.00039015284
-0.72880981
-0.8266795
0.018558785
-0.013194381
-0.018543297
0.018530802
-0.015368336
0.018448285
-0.017929406
0.018301196
-0.020944852
0.018080601
-0.024492523
0.017779874
-0.02865921
0.017395616
-0.033540813
0.016927988
-0.039242377
0.016379919
-0.045877869
0.015755114
-0.053569158
0.015055882
-0.062442128
0.014278082
-0.072618181
0.013400522
-0.084185258
0.012361585
-0.097075816
0.011041219
-0.11096445
0.0094933063
-0.12552013
0.0081950369
-0.14160343
0.0072361431
-0.16068438
0.0063893824
-0.18255998
0.0056240584
-0.20722345
0.0049217822
-0.23511151
0.0042719714
-0.2666451
0.0036650018
-0.30229756
0.0031151369
-0.34282906
0.0026116335
-0.38868252
0.0021441334
-0.44068399
0.0017039801
-0.49951419
0.0012786983
-0.56635091
0.00086628099
-0.64215093
0.00044340422
-0.72838704
-0.82623643
0.019754851
-0.013282325
-0.019666931
0.019809066
-0.015422574
0.019816224
-0.017936587
0.019763823
-0.020892474
0.019639499
-0.02436822
0.019431627
-0.028451356
0.01913073
-0.033239927
0.01873029
-0.038841937
0.018226547
-0.04537411
0.017616955
-0.052959527
0.016897227
-0.061722335
0.016054461
-0.071775314
0.01505067
-0.083181324
0.013820394
-0.09584535
0.012228771
-0.10937263
0.010512395
-0.12380365
0.0092125097
-0.1403036
0.0081729658
-0.15964498
0.0072314189
-0.18161859
0.0063740421
-0.2063661
0.0055842386
-0.23432157
0.00485092
-0.26591155
0.0041656292
-0.30161203
0.0035426256
-0.34220594
0.0029709019
-0.38811089
0.0024390698
-0.44015224
0.001938753
-0.49901373
0.0014543754
-0.56586641
0.00098566679
-0.64168204
0.00050395437
-0.72790544
-0.82573288
0.020985189
-0.013430763
-0.02083675
0.021109228
-0.015546613
0.021197781
-0.018025143
0.021235384
-0.02093008
0.021205319
-0.024338157
0.021091561
-0.028337596
0.020879118
-0.033027477
0.020554504
-0.038517306
0.020105724
-0.0449253
0.019521041
-0.052374796
0.018785463
-0.060986683
0.017870949
-0.070860695
0.01671571
-0.082025934
0.015224507
-0.094353946
0.013354502
-0.10750242
0.01159589
-0.12204496
0.010321906
-0.13902971
0.0092079489
-0.1585312
0.0081630077
-0.18057382
0.0072110754
-0.20541422
0.0063252231
-0.23343561
0.0055016077
-0.26508772
0.0047300808
-0.30084027
0.0040262807
-0.34150201
0.0033778068
-0.38746254
0.0027735589
-0.43954808
0.0022052823
-0.49844529
0.0016540109
-0.56531498
0.0011212431
-0.64114903
0.00057271704
-0.72735701
-0.82516067
0.022256569
-0.013637168
-0.022050146
0.022442058
-0.015732097
0.022593979
-0.018177061
0.022699945
-0.021036041
0.022744532
-0.024382736
0.022709625
-0.028302676
0.02257552
-0.032893353
0.02232143
-0.038263189
0.021925209
-0.044529041
0.021362208
-0.051811742
0.020601497
-0.060225901
0.019589119
-0.069848216
0.018218658
-0.080655325
0.016400246
-0.092535329
0.014427825
-0.1055298
0.012825982
-0.12044306
0.011540781
-0.13774467
0.010319862
-0.15731049
0.0091876702
-0.17944179
0.0081195653
-0.20434619
0.0071475711
-0.23246354
0.0062297812
-0.26416973
0.0053633754
-0.29997363
0.0045718331
-0.34071033
0.0038376227
-0.3867285
0.0031520962
-0.43886266
0.0025074137
-0.4978004
0.0018807551
-0.56468813
0.0012750149
-0.64054301
0.00065084949
-0.72673292
-0.82451042
0.023404811
-0.013872935
-0.023169024
0.023629485
-0.015956753
0.023831991
-0.018379551
0.023996041
-0.021200074
0.024103526
-0.024490204
0.024133955
-0.028333088
0.024063586
-0.032822962
0.023864309
-0.038063887
0.02350201
-0.04416671
0.022934133
-0.051243828
0.022105136
-0.059396853
0.020927666
-0.068670665
0.019298351
-0.079025882
0.017300719
-0.090537518
0.015532033
-0.10376093
0.014119637
-0.11903064
0.012778472
-0.13640371
0.01152255
-0.15605482
0.010296319
-0.17821571
0.0091546896
-0.20320462
0.008059309
-0.23136816
0.0070255177
-0.26313583
0.0060696565
-0.29901753
0.0051842853
-0.33982482
0.0043552433
-0.38589965
0.0035787333
-0.43808626
0.0028487173
-0.49707015
0.0021376521
-0.56397682
0.0014489731
-0.63985398
0.00073944365
-0.72602343
-0.82377168
0.024323071
-0.014108318
-0.024087691
0.02454964
-0.016183323
0.02475606
-0.018585977
0.02492849
-0.021372511
0.025049095
-0.024610818
0.025095353
-0.028379353
0.025039004
-0.032766618
0.024843052
-0.037867936
0.02445827
-0.043781925
0.023818451
-0.050603998
0.022840684
-0.058419066
0.021463368
-0.067293301
0.019789475
-0.077351902
0.018188367
-0.088936298
0.016780798
-0.10235323
0.01544462
-0.11769444
0.014129065
-0.13508836
0.012788039
-0.15471406
0.011481801
-0.17690962
0.010230035
-0.20195291
0.0090577424
-0.23019595
0.0079310088
-0.26200906
0.0068488569
-0.29793515
0.0058594066
-0.33883524
0.0049304327
-0.38497088
0.0040581744
-0.43721409
0.0032326816
-0.4962444
0.0024277222
-0.56317156
0.0016453819
-0.63907122
0.00083969246
-0.72521771
-0.82293279
0.024252556
-0.014308176
-0.02405273
0.024438831
-0.016369635
0.024603784
-0.01875097
0.024743606
-0.021512376
0.024848196
-0.024715451
0.024887491
-0.028418687
0.024819
-0.032698162
0.02459569
-0.037644654
0.024168484
-0.043354736
0.023485914
-0.049921433
0.022532548
-0.057465699
0.021383
-0.066143742
0.020238132
-0.07620701
0.019162289
-0.087860432
0.018036425
-0.10122732
0.016783663
-0.11644168
0.015446511
-0.13375136
0.014090566
-0.15335827
0.012727616
-0.17554679
0.011417578
-0.20064297
0.010125036
-0.22890342
0.0088747697
-0.2607588
0.007708311
-0.29676859
0.0066188058
-0.33774556
0.0055857451
-0.38393797
0.004595974
-0.43622441
0.0036596171
-0.49530776
0.0027534537
-0.56226503
0.0018663315
-0.63818357
0.00095255789
-0.72430381
-0.82198111
0.023133239
-0.014556026
-0.022885432
0.023366118
-0.016602564
0.023561736
-0.018946644
0.023689401
-0.021640106
0.023723222
-0.024749345
0.023662264
-0.028357809
0.023506256
-0.032542235
0.023265519
-0.037403991
0.022957727
-0.043047006
0.022562231
-0.04952598
0.022090057
-0.056993556
0.021555098
-0.065608815
0.020945697
-0.075597664
0.020177164
-0.087091985
0.019195681
-0.10024588
0.018037249
-0.11528323
0.016761279
-0.13247547
0.015405477
-0.1520025
0.01401209
-0.17415338
0.012622084
-0.19925301
0.011263975
-0.22754532
0.0099311862
-0.25942612
0.0086487829
-0.29548614
0.0074410467
-0.33653767
0.0062967156
-0.38279369
0.0051931373
-0.43512088
0.0041382949
-0.49425266
0.0031174011
-0.5612437
0.0021134588
-0.63717896
0.0010790583
-0.72326915
-0.82090298
0.02076559
-0.014860365
-0.020461297
0.021099404
-0.01693643
0.021463982
-0.019311277
0.021855314
-0.022031501
0.022246274
-0.025140371
0.022597101
-0.028708707
0.022851724
-0.032796937
0.022904593
-0.037456958
0.022737739
-0.042880257
0.02245674
-0.049245078
0.02219371
-0.056730628
0.021921632
-0.065336866
0.021515277
-0.07519148
0.020915926
-0.086492874
0.020141343
-0.099471424
0.019148327
-0.11429009
0.017963685
-0.13129086
0.01667731
-0.15071612
0.015300019
-0.17277587
0.01388331
-0.19783623
0.012459045
-0.2261211
0.01102623
-0.25799345
0.0096496464
-0.29410951
0.0083493549
-0.33523731
0.0070870898
-0.38153143
0.0058503694
-0.43388415
0.0046715988
-0.49307368
0.003521413
-0.56009302
0.0023875507
-0.6360443
0.001220354
-0.7221015
-0.81968353
0.019236886
-0.01510142
-0.018995874
0.01949748
-0.017197072
0.019778045
-0.019591896
0.020076412
-0.022329929
0.020396865
-0.025460895
0.020739519
-0.029051446
0.021131496
-0.033189013
0.021636241
-0.037961813
0.022126053
-0.043370195
0.022412682
-0.049531864
0.022350858
-0.056668967
0.022076055
-0.065062233
0.02175501
-0.074870698
0.021359117
-0.086097391
0.020801401
-0.098914017
0.020035412
-0.11352379
0.019031551
-0.13028677
0.017855917
-0.1495406
0.016553941
-0.17147359
0.015132613
-0.19641456
0.013654338
-0.22464273
0.012172836
-0.25651207
0.010731761
-0.29266853
0.0093083323
-0.333814
0.007933074
-0.38015622
0.0065782474
-0.43252929
0.0052552233
-0.49175045
0.0039663978
-0.55880367
0.0026926766
-0.63476966
0.0013780141
-0.72078612
-0.81830632
0.019012224
-0.0153456
-0.018768102
0.019274676
-0.017459588
0.019554931
-0.019872224
0.01985286
-0.022627939
0.020171205
-0.025779331
0.02050761
-0.029387951
0.020842713
-0.033524224
0.021151185
-0.038270404
0.021489631
-0.043708781
0.021946595
-0.049989001
0.02237172
-0.057094312
0.022430135
-0.065120938
0.022079294
-0.074520169
0.021626272
-0.085644861
0.021151935
-0.098440223
0.020610228
-0.11298196
0.019845582
-0.12952123
0.018859752
-0.14855462
0.017687351
-0.17030094
0.016329043
-0.19505555
0.014853859
-0.22316727
0.013325376
-0.2549837
0.011833152
-0.29117632
0.01034643
-0.33232772
0.0088417337
-0.3786518
0.0073501696
-0.43103762
0.0058980342
-0.49029804
0.0044563698
-0.55736145
0.0030247106
-0.633337
0.001550368
-0.71931077
-0.81675646
0.018158701
-0.015575405
-0.017928967
0.018410975
-0.017711939
0.018685547
-0.020146882
0.018981064
-0.022923553
0.019293243
-0.026091619
0.019613277
-0.029708108
0.019927262
-0.033838348
0.02021479
-0.038558088
0.020468954
-0.043963118
0.020639688
-0.050159916
0.020857156
-0.057311965
0.021374836
-0.065638827
0.021805658
-0.074951171
0.02166916
-0.085508369
0.021317405
-0.098089351
0.020916239
-0.11258165
0.020379976
-0.1289841
0.019607869
-0.14778164
0.018623723
-0.1693166
0.017395686
-0.1938269
0.015955916
-0.221727
0.014467105
-0.25349475
0.012967515
-0.28967664
0.011390158
-0.33075092
0.0097924974
-0.37705471
0.0081772362
-0.42942217
0.0065724375
-0.48869272
0.0049795817
-0.555768
0.0033874127
-0.63174391
0.0017412253
-0.71766327
-0.81501517
0.017831286
-0.015791593
-0.017615153
0.018068382
-0.017949095
0.018327348
-0.020405914
0.018608603
-0.023204877
0.018912558
-0.026395645
0.019240141
-0.030035764
0.019593749
-0.034192027
0.019976757
-0.038941161
0.020382941
-0.044369354
0.020798052
-0.050575066
0.021148473
-0.057662418
0.021257466
-0.065747809
0.021412678
-0.0751064
0.021654266
-0.085749647
0.021414547
-0.097849644
0.021006225
-0.11217484
0.020606216
-0.12858538
0.020057974
-0.14723316
0.019283177
-0.16854177
0.018263534
-0.19280719
0.016961575
-0.22042455
0.015530975
-0.25206361
0.014067281
-0.28821278
0.01246137
-0.32914556
0.010751115
-0.37534509
0.0090118802
-0.42768269
0.007289754
-0.48696979
0.0055388581
-0.55401646
0.0037684061
-0.62997278
0.0019416817
-0.7158351
-0.8130726
0.016843708
-0.015994252
-0.016641102
0.017068219
-0.018173663
0.01731551
-0.020653267
0.01758606
-0.023475494
0.017879306
-0.026688962
0.018192956
-0.030349486
0.018521689
-0.034520832
0.01885694
-0.03927648
0.019190615
-0.044703088
0.019518785
-0.050903273
0.01985486
-0.057998483
0.020231895
-0.066124767
0.020528955
-0.075403307
0.020912573
-0.086133436
0.021322414
-0.098258579
0.021156023
-0.11200806
0.020719324
-0.12815092
0.020246899
-0.1467622
0.019643292
-0.16793875
0.018816056
-0.19198022
0.017748107
-0.21935617
0.01651162
-0.25082696
0.015099697
-0.28680098
0.013456736
-0.32750301
0.011709276
-0.37359824
0.0098640106
-0.42583711
0.0079940606
-0.4850989
0.0061087505
-0.55213061
0.0041668975
-0.62803061
0.0021541668
-0.71382108
-0.81091669
0.016347937
-0.016183901
-0.016158343
0.016558203
-0.01838399
0.01679083
-0.020885964
0.017047268
-0.023732008
0.017328903
-0.026970681
0.017637071
-0.030657749
0.017973485
-0.03485735
0.018340139
-0.039643252
0.018736376
-0.045099458
0.019153901
-0.05132095
0.01957113
-0.058415892
0.019959303
-0.066513171
0.020333841
-0.075778066
0.020557719
-0.086357515
0.020825218
-0.098526501
0.021200361
-0.11238205
0.021097249
-0.12804718
0.02051922
-0.14618386
0.019795298
-0.16721371
0.019058909
-0.19124317
0.018309598
-0.21860798
0.017323702
-0.24984266
0.01601703
-0.28549548
0.014370938
-0.32585695
0.012564123
-0.37179179
0.010651435
-0.42392432
0.0086889956
-0.48313576
0.0066772912
-0.55011856
0.0045687411
-0.62592215
0.0023681753
-0.71161977
-0.80854629
0.015132265
-0.016357617
-0.014958597
0.01532566
-0.018577438
0.015540023
-0.021100384
0.015776509
-0.023968556
0.016035893
-0.027230132
0.016318177
-0.030940103
0.016621638
-0.035160884
0.016942385
-0.039964075
0.017275144
-0.045432296
0.01761604
-0.051661932
0.017965231
-0.05876518
0.018320387
-0.066868427
0.018661003
-0.076118836
0.018997955
-0.086694487
0.019251057
-0.098779977
0.019413438
-0.1125454
0.019844207
-0.12847599
0.020216116
-0.14655282
0.019914445
-0.16690622
0.019380692
-0.19070387
0.018717743
-0.21794788
0.017869101
-0.24899677
0.016642377
-0.28427085
0.015053571
-0.32426762
0.013289439
-0.37002758
0.011379208
-0.42201425
0.0093215457
-0.48107789
0.0071925348
-0.5479893
0.0049522463
-0.62368217
0.0025759286
-0.70924335
-0.80596831
0.014625204
-0.016517979
-0.0144649
0.014804063
-0.018756361
0.015003171
-0.021299561
0.015223953
-0.024189413
0.015467515
-0.027473775
0.015734759
-0.031207433
0.016027048
-0.035453267
0.016346355
-0.040283486
0.016695001
-0.045781058
0.017074014
-0.052041083
0.017481045
-0.059172395
0.017911759
-0.067299374
0.018353032
-0.076560309
0.018767719
-0.087109322
0.019127748
-0.099139602
0.01950191
-0.11291839
0.019574874
-0.12854713
0.019550943
-0.1465231
0.019782338
-0.16711801
0.019541657
-0.19045317
0.018886243
-0.21731635
0.017929361
-0.2480435
0.016734224
-0.28307588
0.015384703
-0.32291905
0.013728964
-0.36837124
0.01187506
-0.42016035
0.0098243617
-0.47902738
0.0076357092
-0.54580029
0.0052960643
-0.62134258
0.0027643944
-0.706712
-0.80320263
0.013177172
-0.016656116
-0.013039063
0.013331946
-0.018911161
0.013504881
-0.021472526
0.013697519
-0.024382085
0.013911135
-0.02768743
0.014146616
-0.031442961
0.014404522
-0.035711225
0.014684041
-0.04056306
0.014982315
-0.046079387
0.015294022
-0.052352831
0.015611742
-0.059490115
0.015931216
-0.067618787
0.016248449
-0.076877444
0.016572576
-0.087433278
0.016901696
-0.099468366
0.017152629
-0.11316804
0.017487105
-0.12887826
0.017691121
-0.14671999
0.017729296
-0.16716099
0.017909271
-0.19064638
0.017880168
-0.2172913
0.017351259
-0.2475226
0.016418991
-0.28214457
0.015245048
-0.32174418
0.013792404
-0.366916
0.01211454
-0.41848207
0.010149152
-0.47706261
0.0079408291
-0.54359141
0.0055436685
-0.61894483
0.0029135408
-0.70408236
-0.80028907
0.012622049
-0.016770056
-0.012507999
0.012749721
-0.019038715
0.012892508
-0.021615179
0.013051972
-0.024541403
0.013229936
-0.027865233
0.013428319
-0.031641169
0.01364858
-0.035931291
0.01389213
-0.040806391
0.014160266
-0.046347269
0.014453722
-0.052645975
0.014770796
-0.059806772
0.0151007
-0.067948111
0.015433591
-0.077209615
0.01575174
-0.087750643
0.016042986
-0.09975908
0.016327983
-0.1134538
0.016465439
-0.12902014
0.01655854
-0.14682555
0.016573809
-0.1671945
0.016267015
-0.19034273
0.01600468
-0.21700547
0.015910289
-0.24741821
0.015436147
-0.28167095
0.014647506
-0.32095738
0.013478704
-0.36574721
0.011997658
-0.4170014
0.010214626
-0.47528069
0.0080994156
-0.5414759
0.0056910225
-0.61653543
0.0030081313
-0.70140013
-0.79728262
0.011756995
-0.016872544
-0.011654472
0.011872416
-0.019154102
0.01200207
-0.021744799
0.012147384
-0.024686687
0.01230971
-0.028027531
0.012490071
-0.031821508
0.012689102
-0.036130313
0.012907323
-0.041024623
0.01314493
-0.046584909
0.013401779
-0.052902891
0.013677939
-0.060083043
0.013971282
-0.068241612
0.014276375
-0.077514796
0.014590895
-0.088065077
0.014912498
-0.10008037
0.015230077
-0.11377107
0.015593385
-0.12938404
0.015887983
-0.14712333
0.016076069
-0.16738871
0.016166222
-0.19043591
0.015677443
-0.21651274
0.014980581
-0.24671851
0.014572965
-0.28126312
0.013954555
-0.32034147
0.013077712
-0.364872
0.011736362
-0.41566013
0.010057589
-0.4736025
0.0080289831
-0.53944724
0.0056717844
-0.61417758
0.0030176016
-0.69874692
-0.79426805
0.011550918
-0.016951338
-0.011472103
0.011638712
-0.019241869
0.011736354
-0.02184241
0.011844719
-0.024795013
0.011964839
-0.028147606
0.012098133
-0.031954755
0.012246494
-0.036278631
0.012411904
-0.041190006
0.012596481
-0.046769501
0.01280261
-0.053109117
0.013033305
-0.060313987
0.013295395
-0.068504213
0.013594264
-0.077814606
0.013923079
-0.088395442
0.014259501
-0.10041906
0.014571085
-0.11408551
0.014815419
-0.12963122
0.015039882
-0.14734958
0.015104757
-0.1674528
0.015107092
-0.19043728
0.015307329
-0.21671217
0.014939147
-0.24634987
0.014064863
-0.2803884
0.013233982
-0.31950571
0.012350614
-0.3639883
0.011132889
-0.41444094
0.0095705996
-0.47203695
0.0076842429
-0.5375602
0.0054562976
-0.61195067
0.0029133855
-0.6962057
-0.79135755
0.010443138
-0.017008323
-0.010386274
0.010507317
-0.019306187
0.010579657
-0.021914907
0.010661042
-0.02487658
0.010752362
-0.028239136
0.010854431
-0.032057063
0.010967871
-0.036392347
0.011093029
-0.04131548
0.011229815
-0.04690665
0.011377399
-0.053257121
0.011533688
-0.060470762
0.011694764
-0.068665863
0.011856411
-0.077976944
0.012015592
-0.088555486
0.012172849
-0.10057745
0.012333007
-0.11424717
0.012494778
-0.12979489
0.012621509
-0.14747821
0.012786323
-0.16761923
0.012856994
-0.19050824
0.012734338
-0.21658928
0.012764503
-0.24637758
0.012606785
-0.2802161
0.01194608
-0.31883277
0.010996095
-0.36304125
0.0099194941
-0.41336156
0.0085504479
-0.47066674
0.0068955213
-0.5359072
0.0049415885
-0.61000012
0.0026612715
-0.69392784
-0.7886969
0.0095858843
-0.017032665
-0.0095616181
0.0096128828
-0.019333274
0.0096423307
-0.021944457
0.0096741915
-0.024908558
0.0097083058
-0.028273384
0.009744346
-0.032093255
0.0097817743
-0.036429944
0.0098198198
-0.041353708
0.0098574965
-0.046944519
0.0098936966
-0.053293513
0.0099272232
-0.060504466
0.0099572016
-0.068695988
0.0099845351
-0.078004381
0.010011641
-0.088582626
0.01003994
-0.10060573
0.01006517
-0.1142723
0.010081265
-0.12981072
0.010093551
-0.14748998
0.010084655
-0.16760915
0.010097412
-0.19051797
0.01014116
-0.21662526
0.010127982
-0.24635138
0.010137236
-0.28022325
0.0099705085
-0.31867052
0.00929709
-0.36237652
0.0084049985
-0.41248259
0.0073151897
-0.46958215
0.005943072
-0.53453977
0.0042695355
-0.60832902
0.0022926403
-0.69195182
-0.78640424
0.0095826404
-0.0095789597
0.0095868244
0.0095920778
0.0095987224
0.0096071688
0.0096179136
0.0096315341
0.0096486515
0.0096698507
0.0096955215
0.0097257412
0.0097601482
0.0097976651
0.0098367486
0.0098721041
0.0099003555
0.0099173673
0.0099127938
0.0098744431
0.009780626
0.0095972472
0.0092994816
0.0088584318
0.0083755957
0.0079211052
0.007257335
0.0063371947
0.0051611879
0.0037192165
0.0020012244
0.011418785
-0.011217823
0.0088171693
-0.0090180564
0.013229114
-0.014485745
0.012675461
0.014572837
-0.017761742
0.016418011
0.015639418
-0.021369281
0.020302731
0.016571163
-0.025494349
0.024562673
0.017435828
-0.030256605
0.02939202
0.018237831
-0.03573187
0.034929954
0.018993333
-0.041994333
0.041238919
0.019702436
-0.049192581
0.048483562
0.020341825
-0.057440504
0.056801187
0.020892362
-0.066867399
0.066316913
0.021342644
-0.077630815
0.077180553
0.021683511
-0.089908658
0.089567775
0.021903255
-0.10387652
0.10365674
0.021984689
-0.11970999
0.11962852
0.02186783
-0.13743868
0.13755555
0.02149167
-0.15685999
0.15723623
0.020752568
-0.17750365
0.17824283
0.019574413
-0.19816479
0.19934305
0.0183194
-0.21990357
0.22115874
0.017187097
-0.24602651
0.24715889
0.016048773
-0.27655595
0.27769428
0.014845238
-0.31140078
0.31260427
0.013557427
-0.35093468
0.35222242
0.01216332
-0.39597263
0.39736673
0.010641232
-0.44724183
0.44876399
0.0089617369
-0.50559225
0.50727186
0.0070965901
-0.57203454
0.57389974
0.0050088261
-0.64762911
0.64971677
0.002658819
-0.73388709
0.73623696
-0.83207716
0.83473611
0.01267668
-0.012723655
-0.011170793
0.013698037
-0.015507068
0.014535242
-0.018598907
0.015313321
-0.0221473
0.016081747
-0.026262695
0.01684315
-0.031017917
0.017578991
-0.036467618
0.018280341
-0.042695588
0.018928568
-0.049840719
0.019501519
-0.058013378
0.019987853
-0.067353679
0.020380052
-0.078022996
0.02067013
-0.090198753
0.020846654
-0.10405309
0.020891525
-0.11975489
0.020738273
-0.13728542
0.020333058
-0.1564547
0.019564601
-0.17673513
0.018388295
-0.19698834
0.017204914
-0.21872005
0.01614295
-0.24496445
0.015065996
-0.27547898
0.013926863
-0.31026169
0.012710642
-0.34971853
0.011396686
-0.39465867
0.0099650343
-0.44581009
0.0083877956
-0.50401489
0.006639007
-0.5702857
0.0046837319
-0.64567393
0.0024857262
-0.73168921
-0.82959137
0.01229299
-0.013551686
-0.011464907
0.013021095
-0.016235113
0.01375741
-0.019335154
0.014523008
-0.022912824
0.015294677
-0.027034281
0.016041235
-0.031764382
0.016746585
-0.037172872
0.017405414
-0.04335432
0.017999242
-0.050434455
0.01851669
-0.058530747
0.018950318
-0.067787257
0.019294644
-0.078367306
0.019542559
-0.090446688
0.019683195
-0.10419376
0.019697746
-0.11976946
0.01951591
-0.13710357
0.019090915
-0.15602965
0.018300033
-0.17594419
0.017145086
-0.19583321
0.016042924
-0.21761768
0.015048552
-0.24396997
0.014033398
-0.2744638
0.012961071
-0.30918941
0.011819591
-0.34857712
0.010589628
-0.39342871
0.0092529406
-0.44447331
0.007783336
-0.50254517
0.0061569728
-0.56865929
0.0043413481
-0.64385841
0.0023029263
-0.72965093
-0.8272884
0.011416565
-0.014291998
-0.010676197
0.012181257
-0.016999742
0.012955634
-0.020109459
0.013722717
-0.023679831
0.014466312
-0.027777788
0.015171712
-0.032469687
0.01582991
-0.037830969
0.016434784
-0.04395909
0.016972432
-0.050972004
0.017435088
-0.058993322
0.017817758
-0.068169874
0.018116383
-0.078665916
0.018324415
-0.090654737
0.018430988
-0.10430037
0.018411386
-0.11974988
0.018204438
-0.13689661
0.017769529
-0.15559468
0.016964559
-0.17513915
0.015844829
-0.19471326
0.014823391
-0.21659601
0.013895471
-0.24304194
0.012944872
-0.27351317
0.011943141
-0.30818772
0.010880811
-0.34751487
0.0097398386
-0.39228773
0.0085036349
-0.44323701
0.0071477456
-0.50118916
0.0056505215
-0.56716203
0.0039819683
-0.64218996
0.0021114092
-0.7277805
-0.82517695
0.010520684
-0.015081463
-0.0097311928
0.011305871
-0.017784874
0.012076482
-0.020880002
0.012824222
-0.024427491
0.013537397
-0.028490871
0.014204216
-0.033136406
0.014817137
-0.038443782
0.01536975
-0.044511593
0.015853356
-0.051455507
0.016263588
-0.059403471
0.016597741
-0.068503975
0.016853019
-0.078921179
0.017023349
-0.090825084
0.017097575
-0.10437462
0.017045318
-0.11969763
0.016819239
-0.13667051
0.016377614
-0.15515301
0.015564468
-0.17432591
0.014492265
-0.1936408
0.013553334
-0.21565684
0.012692638
-0.24218112
0.011809189
-0.27262968
0.010881259
-0.30725983
0.0099016573
-0.34653534
0.0088536999
-0.39123975
0.0077224678
-0.44210567
0.0064853244
-0.49995191
0.0051228649
-0.56579953
0.0036076608
-0.64067485
0.0019119262
-0.7260849
-0.823265
0.0095888717
-0.015884993
-0.0087852915
0.010373377
-0.018569319
0.01113232
-0.021638874
0.011856388
-0.025151477
0.012534216
-0.029168605
0.013157313
-0.033759396
0.013720646
-0.039006999
0.014219691
-0.045010521
0.014649891
-0.051885598
0.0150094
-0.059762893
0.015297132
-0.068791653
0.015511232
-0.079135264
0.015646086
-0.090959953
0.015690461
-0.10441903
0.015609778
-0.11961696
0.015371388
-0.13643209
0.014923235
-0.15470481
0.014107193
-0.17350977
0.013094481
-0.1926278
0.012237509
-0.21479962
0.011444039
-0.24138752
0.010629815
-0.27181541
0.0097785314
-0.30640859
0.008884966
-0.34564185
0.0079338326
-0.3902886
0.0069118333
-0.44108356
0.0057981879
-0.49883815
0.0045757804
-0.5645771
0.003219789
-0.63931896
0.0017053445
-0.72457059
-0.82155965
0.0086224521
-0.016696554
-0.0078108124
0.0094018518
-0.019348656
0.01014064
-0.02237759
0.010830596
-0.02584135
0.011464685
-0.029802596
0.012038204
-0.034332803
0.012548286
-0.039516958
0.012992816
-0.045454925
0.013370196
-0.052262863
0.013680374
-0.060072981
0.013923447
-0.069034671
0.014098294
-0.079310095
0.01419994
-0.091061611
0.014217688
-0.1044368
0.014115462
-0.11951474
0.013874345
-0.13619092
0.01341929
-0.15424969
0.012601109
-0.17269146
0.011657568
-0.19168394