/*--------------------------------*- C++ -*----------------------------------*\
| =========                 |                                                 |
| \\      /  F ield         | OpenFOAM: The Open Source CFD Toolbox           |
|  \\    /   O peration     | Version:  2406                                  |
|   \\  /    A nd           | Website:  www.openfoam.com                      |
|    \\/     M anipulation  |                                                 |
\*---------------------------------------------------------------------------*/
FoamFile
{
    version     2.0;
    format      ascii;
    arch        "LSB;label=32;scalar=64";
    class       volVectorField;
    location    "0.095";
    object      U;
}
// * * * * * * * * * * * * * * * * * * * * * * * * * * * * * * * * * * * * * //

dimensions      [0 1 -1 0 0 0 0];

internalField   nonuniform List<vector> 
8260
(
(40.156648 29.021246 0)
(41.535424 27.73081 -2.4748852e-20)
(42.850614 26.440966 2.1385828e-20)
(44.123811 25.148154 -3.6583203e-20)
(45.352256 23.813332 1.5514107e-20)
(46.517912 22.454456 -2.6186114e-20)
(47.609897 21.107948 -1.0967643e-20)
(48.61924 19.806811 -1.4688666e-23)
(49.580924 18.575508 4.9734728e-21)
(50.534366 17.414683 0)
(51.424956 16.339707 4.623805e-20)
(52.27359 15.342796 0)
(53.072385 14.404858 0)
(53.787382 13.488526 -7.1012476e-20)
(54.256931 12.53629 1.8649681e-23)
(54.316597 11.455678 0)
(53.718724 9.9533946 0)
(52.831278 8.3135028 6.8366413e-19)
(52.369313 7.1684733 5.7428229e-21)
(52.09158 6.2755746 -6.9864003e-19)
(51.88301 5.4415322 -1.2695557e-18)
(51.694669 4.7210935 -1.1400279e-18)
(51.524579 4.0235678 -2.0646565e-18)
(51.377343 3.415165 1.8490714e-18)
(51.242071 2.8543574 1.6442283e-18)
(51.127251 2.3575745 0)
(51.016064 1.8936219 2.5882642e-18)
(50.930157 1.456066 2.2842764e-18)
(50.853554 1.0432004 4.033006e-18)
(50.80824 0.62919381 0)
(50.770504 0.2163061 5.9131474e-18)
(39.158423 28.247291 2.4241665e-20)
(40.597081 27.079811 -1.746118e-23)
(41.964201 25.972924 -1.8854397e-20)
(43.294495 24.831672 4.9615675e-20)
(44.589029 23.632628 0)
(45.832038 22.392878 2.4708562e-20)
(47.009778 21.14269 4.237816e-20)
(48.115672 19.913091 2.7153074e-20)
(49.165798 18.729384 -3.1030896e-20)
(50.179418 17.598008 1.336162e-20)
(51.133311 16.530172 -5.2402291e-20)
(52.033075 15.526664 0)
(52.868327 14.571835 0)
(53.600764 13.633594 1.4616194e-19)
(54.070628 12.627786 -1.5273576e-19)
(54.098133 11.506455 1.8951093e-19)
(53.482887 9.9162518 2.6477209e-24)
(52.645668 8.2826103 -2.1487065e-20)
(52.253142 7.161045 2.2380947e-20)
(52.007154 6.273709 -6.6936741e-19)
(51.816447 5.4398677 -9.5482034e-21)
(51.641396 4.7211666 1.1042254e-18)
(51.481254 4.0237733 1.9824468e-18)
(51.343229 3.4154811 -3.4669223e-21)
(51.214816 2.8553973 6.2069815e-21)
(51.105389 2.3582932 -2.7436295e-21)
(50.997977 1.8943516 -2.4890496e-18)
(50.915095 1.4563849 -2.2009814e-18)
(50.840695 1.043319 -3.8935234e-18)
(50.796867 0.62896358 3.4376705e-18)
(50.760781 0.21603366 -6.0666662e-18)
(38.118183 27.198753 -2.0345246e-20)
(39.537099 26.257392 1.826238e-20)
(40.949199 25.355175 0)
(42.343709 24.388065 -3.0187824e-20)
(43.711011 23.34465 2.6960623e-20)
(45.036049 22.242351 0)
(46.304228 21.106872 -4.1714782e-20)
(47.506484 19.966262 -9.1037033e-21)
(48.648468 18.846 3.9678953e-20)
(49.739067 17.756201 0)
(50.764947 16.707018 4.908892e-20)
(51.724343 15.704601 0)
(52.604357 14.736754 0)
(53.360999 13.776417 -7.4715753e-20)
(53.839312 12.720067 -5.2528515e-21)
(53.84505 11.549859 -2.0936003e-19)
(53.219497 9.8617149 2.8146788e-19)
(52.453164 8.2699349 -1.3671503e-18)
(52.128167 7.1773056 0)
(51.912162 6.2938022 6.3308288e-19)
(51.740444 5.4578165 0)
(51.580445 4.7378746 -8.0680446e-21)
(51.431549 4.037923 1.4433195e-20)
(51.304102 3.4267561 -1.2884379e-20)
(51.183604 2.8649845 -1.4611083e-18)
(51.080397 2.3653597 0)
(50.977366 1.8998511 0)
(50.897917 1.4601437 1.9883398e-21)
(50.826057 1.0458736 -1.7565942e-21)
(50.783929 0.63057054 -3.1763904e-18)
(50.748683 0.21669491 -4.3116899e-23)
(37.249266 26.010932 6.7740398e-20)
(38.622237 25.290317 -4.6765808e-20)
(40.029909 24.590796 2.9374311e-20)
(41.44777 23.810541 2.7244946e-20)
(42.857414 22.938817 -7.4881849e-20)
(44.240907 21.990433 -2.2596218e-20)
(45.581139 20.987171 2.0273109e-20)
(46.864882 19.953175 -1.8057176e-20)
(48.089376 18.912197 1.6044624e-20)
(49.256319 17.877521 0)
(50.353002 16.859946 5.1233434e-20)
(51.372741 15.86779 0)
(52.29889 14.892217 -8.7645833e-20)
(53.079111 13.910482 0)
(53.563371 12.805432 -1.8368555e-19)
(53.542239 11.57516 6.9445767e-21)
(52.91338 9.7864354 4.3998868e-23)
(52.237772 8.2612656 6.6189793e-19)
(51.984605 7.1902124 -6.4726382e-19)
(51.802699 6.3090921 0)
(51.652974 5.4709048 -1.0662303e-18)
(51.510306 4.749824 -7.4600873e-21)
(51.374356 4.0480667 6.6528869e-21)
(51.259101 3.4346998 -1.5166887e-18)
(51.147741 2.8720064 0)
(51.051659 2.3704737 0)
(50.953708 1.903907 0)
(50.878221 1.462834 -1.8646666e-18)
(50.809331 1.0476432 0)
(50.769159 0.63153593 2.9075115e-18)
(50.735172 0.21701625 5.1302853e-18)
(36.56508 24.726575 -1.3980676e-20)
(37.871409 24.204647 0)
(39.238189 23.694025 -2.549576e-20)
(40.641744 23.099695 2.4324599e-20)
(42.06085 22.406915 2.2848415e-20)
(43.474789 21.624269 4.2335317e-20)
(44.863616 20.768071 1.9417705e-20)
(46.210041 19.857359 -1.7677006e-20)
(47.503698 18.912425 -1.6007855e-20)
(48.738731 17.948053 8.7018098e-20)
(49.901012 16.975932 -1.3188911e-20)
(50.978606 16.004645 0)
(51.949618 15.028213 1.743251e-19)
(52.750818 14.026538 -4.561701e-24)
(53.235024 12.873026 2.1133304e-19)
(53.180982 11.565532 1.5002028e-20)
(52.559992 9.6911669 -3.2159291e-19)
(52.004648 8.2527473 6.2259376e-19)
(51.823689 7.2005874 6.3994443e-19)
(51.678808 6.32372 2.3723176e-24)
(51.55369 5.484885 9.6440346e-19)
(51.430644 4.7630197 8.7450908e-19)
(51.309355 4.0600837 6.0788599e-21)
(51.207926 3.4445673 1.3773376e-18)
(51.10696 2.8807924 1.2259875e-18)
(51.018951 2.3770216 0)
(50.926833 1.9091313 -3.7461541e-21)
(50.855817 1.466395 1.6974908e-18)
(50.790332 1.0500251 -2.9917441e-18)
(50.752363 0.6329429 -2.641154e-18)
(50.719657 0.2175535 5.6871638e-22)
(36.080522 23.36945 2.3020674e-20)
(37.302175 23.024814 -2.215828e-20)
(38.600382 22.68523 -2.1948507e-20)
(39.957038 22.266332 4.288779e-20)
(41.352366 21.750101 -4.12555e-20)
(42.765202 21.137514 0)
(44.174118 20.437785 0)
(45.558755 19.66362 0)
(46.902535 18.830352 3.1574128e-20)
(48.192198 17.951718 3.5032323e-23)
(49.410556 17.039144 -5.3961554e-20)
(50.53979 16.100228 1.1410245e-19)
(51.551234 15.131 -2.0776077e-19)
(52.368251 14.110769 -1.1099917e-19)
(52.842662 12.90714 2.6682119e-20)
(52.75189 11.500156 -1.5934734e-20)
(52.159144 9.5769953 1.878733e-20)
(51.752293 8.2423377 -6.2200706e-19)
(51.642475 7.2063812 -1.7324104e-20)
(51.53836 6.3350715 -4.9907049e-19)
(51.440907 5.4968018 -8.7864556e-19)
(51.340043 4.7742493 -1.5890276e-18)
(51.235387 4.0710101 -1.422067e-18)
(51.149637 3.453803 -8.2293995e-25)
(51.060483 2.8891247 8.6920718e-21)
(50.981615 2.3832712 1.9603623e-18)
(50.896222 1.9141912 0)
(50.830275 1.4698484 1.5322928e-18)
(50.768725 1.0523054 2.6972494e-18)
(50.733231 0.6342369 0)
(50.702083 0.21802819 0)
(35.810566 21.962352 8.6925478e-21)
(36.934253 21.77881 -3.708562e-20)
(38.142792 21.590884 3.7599503e-20)
(39.424503 21.330243 -1.8761167e-20)
(40.764043 20.979169 -1.8480409e-20)
(42.142637 20.532005 0)
(43.539453 19.990454 0)
(44.932717 19.360139 0)
(46.301584 18.650179 -3.0777275e-20)
(47.626577 17.870694 -5.7859942e-20)
(48.886027 17.030799 0)
(50.055643 16.135622 -1.0418466e-19)
(51.098358 15.181994 1.2743765e-19)
(51.921802 14.142486 -3.5665316e-23)
(52.371715 12.885228 1.7009955e-19)
(52.243531 11.352655 3.3134778e-20)
(51.719449 9.451137 -3.629375e-20)
(51.47943 8.2257305 5.9252713e-19)
(51.439558 7.2053201 0)
(51.379518 6.3419551 4.5281133e-19)
(51.313195 5.5063313 8.073399e-19)
(51.237251 4.7837284 1.4342681e-18)
(51.15141 4.0814836 -1.0000794e-20)
(51.083474 3.4633844 8.799861e-21)
(51.007704 2.8978643 3.3371296e-23)
(50.939111 2.3899683 -1.7613819e-18)
(50.86144 1.9197127 0)
(50.801206 1.4736913 2.5425576e-23)
(50.744197 1.0548491 0)
(50.711439 0.63570738 0)
(50.682092 0.21858877 1.886693e-18)
(35.766983 20.57438 -2.395771e-23)
(36.780183 20.513132 -2.3335717e-20)
(37.881875 20.446944 8.035912e-21)
(39.065811 20.319555 1.6379892e-20)
(40.32172 20.113163 1.6456271e-20)
(41.634801 19.817063 0)
(42.986682 19.426176 0)
(44.356161 18.938936 0)
(45.720386 18.357394 0)
(47.055463 17.685922 -2.8533673e-20)
(48.334835 16.928946 2.7396276e-20)
(49.527219 16.087133 0)
(50.585278 15.156351 -2.6410796e-20)
(51.400457 14.090006 2.7270231e-20)
(51.804903 12.776293 -4.7638753e-19)
(51.641563 11.098951 3.3485052e-20)
(51.254399 9.3191679 -3.4243212e-20)
(51.183519 8.1982446 -5.090975e-19)
(51.21256 7.1943208 0)
(51.200219 6.3420095 0)
(51.169074 5.5113431 0)
(51.120701 4.7898115 2.0169146e-20)
(51.056095 4.0899907 1.1312779e-18)
(51.008421 3.4722432 5.1457509e-25)
(50.947851 2.9060681 -1.7909334e-18)
(50.890728 2.3963628 1.5696205e-18)
(50.821868 1.9251481 1.3965642e-18)
(50.768063 1.4775366 -2.4555091e-18)
(50.716336 1.0573762 0)
(50.686574 0.6371426 0)
(50.659382 0.21913163 -1.6864452e-18)
(35.935769 19.225657 -6.1931742e-21)
(36.833807 19.252992 2.6226708e-20)
(37.818295 19.280214 -3.4515967e-20)
(38.88887 19.258317 -1.4320581e-20)
(40.039969 19.170984 1.467792e-20)
(41.261102 19.004363 -2.9674252e-20)
(42.537658 18.748096 2.9657364e-20)
(43.850901 18.394283 0)
(45.17824 17.937945 0)
(46.493421 17.376424 0)
(47.76551 16.707339 0)
(48.955673 15.924668 1.08151e-19)
(50.003821 15.020394 -1.3629356e-19)
(50.792556 13.90145 2.8200137e-20)
(51.119998 12.543785 2.4451622e-19)
(50.949498 10.729301 0)
(50.784723 9.1882588 0)
(50.862639 8.15491 4.6060221e-19)
(50.959683 7.1692077 2.5717562e-20)
(50.998542 6.3323382 -2.2887097e-20)
(51.007015 5.5097568 0)
(50.988806 4.7917074 -5.5762122e-19)
(50.948234 4.0957816 8.8050043e-25)
(50.923331 3.4801878 -9.00409e-19)
(50.880078 2.9137603 -3.3653191e-23)
(50.835739 2.4024814 -1.4157322e-18)
(50.776833 1.9306047 -1.2398413e-18)
(50.730232 1.481495 1.0940578e-18)
(50.684666 1.0599838 -1.8854233e-21)
(50.65817 0.63863402 8.3168842e-22)
(50.63353 0.21970284 7.3364353e-22)
(36.289943 17.936046 0)
(37.077791 18.015939 -4.4617274e-20)
(37.943648 18.108244 4.7948326e-20)
(38.891993 18.164537 0)
(39.922581 18.167378 -7.9140319e-20)
(41.030173 18.102947 2.2326961e-23)
(42.204957 17.957528 5.526586e-20)
(43.431854 17.718495 2.7819457e-20)
(44.690075 17.374698 0)
(45.952694 16.916056 -2.3660816e-23)
(47.18519 16.332003 -6.6416114e-24)
(48.340266 15.607921 -1.6510871e-19)
(49.341746 14.726193 5.6211314e-20)
(50.066309 13.541392 5.864196e-20)
(50.294608 12.089629 6.2080918e-20)
(50.221232 10.281419 2.4870661e-19)
(50.321389 9.0498452 -5.7300703e-20)
(50.513793 8.0893003 9.0591333e-23)
(50.679663 7.125087 0)
(50.772751 6.3089099 -3.4612033e-19)
(50.82531 5.4986838 -5.6143955e-19)
(50.840167 4.787955 0)
(50.826664 4.0971032 0)
(50.826695 3.4859015 7.8858702e-19)
(50.803066 2.9201891 7.1851986e-19)
(50.773207 2.407641 1.2489747e-18)
(50.725518 1.9356505 -8.6102912e-21)
(50.686967 1.4852526 3.7981709e-21)
(50.648576 1.0624657 1.7191187e-18)
(50.625697 0.64004759 0)
(50.604069 0.22023319 1.3351859e-18)
(36.789177 16.701413 -2.8523426e-20)
(37.459496 16.824501 3.4525323e-20)
(38.2094 16.949628 -4.2800767e-20)
(39.037032 17.049171 -4.5800071e-20)
(39.943064 17.108256 1.211796e-20)
(40.926798 17.111334 5.0622799e-20)
(41.982975 17.044445 0)
(43.100435 16.892276 -2.6777645e-20)
(44.260933 16.6383 0)
(45.437963 16.264736 -4.2102235e-23)
(46.593916 15.751924 0)
(47.671523 15.074122 -5.6619748e-20)
(48.574854 14.191438 5.8418782e-20)
(49.174197 12.898521 6.0218428e-20)
(49.350255 11.371387 -2.4211685e-19)
(49.540286 9.896407 -5.1289809e-19)
(49.842203 8.9460394 5.1527614e-20)
(50.146702 7.9462024 -4.1620843e-19)
(50.369884 7.0852619 -2.8751763e-19)
(50.524386 6.2439338 -3.6456376e-20)
(50.622753 5.4724564 4.8213718e-19)
(50.673775 4.7768986 4.832254e-19)
(50.689976 4.092425 2.5165966e-20)
(50.716951 3.488035 6.8897812e-19)
(50.715062 2.9249482 0)
(50.702013 2.4114464 -2.216083e-18)
(50.667082 1.9401162 -7.6376577e-21)
(50.637513 1.4886859 6.7377657e-21)
(50.607348 1.0647681 4.0106572e-23)
(50.588618 0.64139045 1.3109302e-21)
(50.57044 0.22072247 -1.185219e-18)
(37.447953 15.438428 0)
(38.00414 15.555981 0)
(38.622512 15.702185 0)
(39.315879 15.826127 0)
(40.08696 15.91815 0)
(40.935861 15.964241 -1.1023868e-19)
(41.858934 15.949585 1.0275764e-19)
(42.846698 15.856774 0)
(43.881792 15.664847 -1.099519e-19)
(44.936816 15.348833 1.1271301e-19)
(45.96892 14.879232 5.7778407e-20)
(46.906189 14.212889 0)
(47.648071 13.266634 1.8224721e-19)
(48.106909 11.941616 -6.0475859e-20)
(48.47929 10.537864 1.70548e-19)
(48.913047 9.6281821 5.1635403e-20)
(49.386899 8.6558719 -1.8558289e-19)
(49.744867 7.829503 -3.7084667e-19)
(50.038089 6.9706378 6.2090444e-19)
(50.247519 6.1974863 5.1740184e-19)
(50.396299 5.4498355 0)
(50.489312 4.7394038 -2.5168236e-20)
(50.536497 4.0797116 2.2236431e-20)
(50.592931 3.4843622 -6.2861768e-19)
(50.614355 2.9269072 0)
(50.620822 2.4131298 1.9628207e-18)
(50.600618 1.9434488 0)
(50.581173 1.4913825 -5.9666683e-21)
(50.560193 1.0666137 -2.6895596e-18)
(50.546414 0.64252493 0)
(50.532116 0.22110091 0)
(38.105919 14.098558 0)
(38.555031 14.203263 0)
(39.068673 14.321302 0)
(39.643508 14.436329 8.8688012e-20)
(40.285238 14.525811 -1.794029e-19)
(40.99741 14.576145 2.1731535e-19)
(41.778349 14.57311 -1.3535151e-19)
(42.618182 14.498055 2.8391944e-20)
(43.497464 14.325927 1.4749157e-19)
(44.386896 14.025536 -7.3767788e-23)
(45.248778 13.55138 -6.2061471e-20)
(46.014455 12.849369 -2.4862083e-19)
(46.602883 11.869927 1.212047e-19)
(47.127062 10.809568 0)
(47.754968 10.001621 0)
(48.382753 9.1826157 9.2938751e-20)
(48.890036 8.4419561 3.3030853e-19)
(49.328173 7.6269973 7.3208977e-19)
(49.679788 6.8485797 -3.2406039e-19)
(49.951696 6.0945718 -5.728767e-20)
(50.150313 5.3740618 5.0670642e-20)
(50.280643 4.7261573 -3.8030136e-19)
(50.365248 4.0566043 1.9747532e-20)
(50.454985 3.4712351 0)
(50.500511 2.9178709 0)
(50.528373 2.4123076 -8.6758952e-19)
(50.525137 1.9451358 0)
(50.517403 1.4930181 0)
(50.506375 1.0677472 1.1916494e-18)
(50.498617 0.64336578 -1.0512235e-18)
(50.488555 0.22133885 -9.2723636e-19)
(38.718232 12.338823 -2.2540001e-23)
(39.087141 12.398266 -1.7837341e-19)
(39.5025 12.488234 9.1436589e-20)
(39.974025 12.568259 0)
(40.503032 12.635561 9.9221943e-24)
(41.085405 12.679244 1.3598642e-19)
(41.718608 12.672551 -4.6232405e-23)
(42.395237 12.59567 -3.2634251e-20)
(43.097929 12.424007 -3.3076112e-20)
(43.80023 12.137457 -6.5957312e-20)
(44.475219 11.696509 -6.4468532e-20)
(45.114196 11.122252 0)
(45.770012 10.479385 0)
(46.501522 9.9191838 0)
(47.217477 9.3714398 0)
(47.842322 8.7806883 -1.6539233e-19)
(48.418592 8.0783577 -1.4657533e-19)
(48.896216 7.3881844 -2.5960096e-19)
(49.306051 6.6606666 0)
(49.635197 5.9813369 -2.0297497e-19)
(49.879583 5.3030339 0)
(50.05464 4.6438423 3.1659502e-19)
(50.178432 4.0214928 0)
(50.301788 3.4528643 0)
(50.373218 2.9139546 0)
(50.423663 2.4121609 0)
(50.439673 1.9408624 0)
(50.445695 1.4930609 -9.326169e-21)
(50.445358 1.0676856 8.2261913e-21)
(50.444789 0.64365263 1.8594639e-18)
(50.43929 0.22135396 8.1765793e-19)
(39.220495 10.293899 2.6236985e-23)
(39.445966 10.359971 0)
(39.730859 10.447314 2.1360634e-21)
(40.085922 10.525601 1.2423718e-19)
(40.529295 10.547395 -2.6161742e-19)
(41.014737 10.557778 -3.6054845e-20)
(41.532236 10.515273 -2.1685779e-19)
(42.089833 10.42499 5.6742808e-19)
(42.686424 10.281208 -2.7505473e-19)
(43.298765 10.134572 -6.6186421e-20)
(43.935506 9.9209744 -2.2680414e-23)
(44.606244 9.690294 5.7742618e-20)
(45.337705 9.4392446 0)
(46.058375 9.1273512 0)
(46.731108 8.7412115 0)
(47.372776 8.2340404 2.9335285e-19)
(47.957667 7.6912343 0)
(48.473696 7.0770577 -2.2987872e-19)
(48.921648 6.4407609 0)
(49.305584 5.8121573 0)
(49.595416 5.1760377 0)
(49.808005 4.5734772 -2.4473417e-19)
(49.974723 3.9724693 -3.0850182e-20)
(50.136418 3.4222077 -4.6266547e-19)
(50.234445 2.8906067 2.4005555e-20)
(50.306206 2.4028866 0)
(50.34393 1.9354319 0)
(50.365391 1.4909765 5.2705321e-19)
(50.376885 1.0660011 9.3702035e-19)
(50.384458 0.6430684 -3.1722215e-21)
(50.383803 0.2210889 -2.825519e-21)
(40.14798 8.0210295 0)
(40.308962 8.1229476 -1.0761912e-20)
(40.478644 8.2618255 1.0960853e-20)
(40.66524 8.4064129 -1.0987233e-20)
(40.878896 8.6097719 -2.1025604e-20)
(41.174917 8.7440556 2.0341188e-20)
(41.536011 8.8792388 -3.8931702e-20)
(41.96726 8.9797001 -3.6497604e-20)
(42.495087 8.8678546 0)
(43.0509 8.7938469 -2.4288283e-19)
(43.677793 8.6463784 5.013141e-19)
(44.347398 8.5959863 -5.164034e-20)
(45.033891 8.480183 -9.2972174e-20)
(45.697674 8.2778805 1.6528269e-19)
(46.340563 8.0008553 -2.9332614e-19)
(46.944593 7.6457731 8.3786482e-24)
(47.541236 7.1988718 -1.1496879e-19)
(48.075295 6.7129624 4.0648423e-19)
(48.546152 6.1587073 0)
(48.96607 5.6072285 0)
(49.299241 5.0323519 6.9974444e-20)
(49.54938 4.461827 -7.1227286e-24)
(49.756311 3.8914131 -2.7238848e-20)
(49.957727 3.3769943 -2.4067654e-20)
(50.084491 2.8707787 -3.3902641e-19)
(50.177238 2.3814605 0)
(50.236516 1.9262033 0)
(50.275638 1.4852555 -4.5784944e-19)
(50.300729 1.0624425 -1.6410121e-18)
(50.317042 0.64188455 -7.2939667e-19)
(50.321594 0.21992533 0)
(40.914912 6.4519659 0)
(41.086378 6.5269772 1.1924131e-20)
(41.277731 6.6299952 -4.1134706e-19)
(41.49121 6.7358077 4.3726169e-23)
(41.711063 6.8581341 3.8289681e-19)
(41.946546 6.982011 -2.1033034e-20)
(42.207679 7.0820796 3.9056684e-20)
(42.454344 7.1953705 3.5717212e-20)
(42.699251 7.5278783 0)
(43.087645 7.6645338 5.586147e-20)
(43.616647 7.6338008 -4.8723383e-20)
(44.166712 7.5468417 1.7713445e-19)
(44.762848 7.4109452 -3.2330235e-19)
(45.406845 7.3569526 1.4594709e-19)
(46.029082 7.2217265 0)
(46.591716 6.9731617 1.1489156e-19)
(47.156914 6.6574613 2.3488995e-23)
(47.711616 6.2811256 -1.795204e-19)
(48.194814 5.8333542 2.3789967e-19)
(48.631288 5.3547727 6.998795e-20)
(48.995672 4.8400077 -3.0886239e-19)
(49.279351 4.3118053 -2.1798463e-19)
(49.527021 3.8024049 0)
(49.765824 3.311878 3.3912541e-19)
(49.923346 2.8240056 2.6169905e-19)
(50.036391 2.3592118 3.297306e-20)
(50.117294 1.9080722 0)
(50.175534 1.4733186 0)
(50.216086 1.0568327 -5.6932078e-21)
(50.241945 0.63863859 4.9880877e-21)
(50.252136 0.21925487 0)
(41.538589 5.5517223 -8.8979749e-19)
(41.64367 5.6299495 8.4322324e-19)
(41.76647 5.7194061 7.8767316e-19)
(41.912047 5.8129214 -7.2689526e-19)
(42.086259 5.9110707 -6.8451896e-19)
(42.297313 6.0152079 6.4802994e-19)
(42.559786 6.1233138 -6.0757838e-19)
(42.88574 6.2207512 5.1685965e-19)
(43.206124 6.340678 -4.6027465e-19)
(43.515585 6.3758838 -5.1509473e-20)
(43.755125 6.6835894 4.0317722e-19)
(44.138532 6.7798022 3.5845697e-19)
(44.635239 6.5999202 -4.1716054e-19)
(45.180992 6.4340192 0)
(45.777929 6.3621711 2.2866805e-19)
(46.324837 6.2696377 -4.0625486e-19)
(46.836746 6.0396647 8.9800754e-20)
(47.379857 5.7789612 0)
(47.878324 5.4513049 -2.0994922e-19)
(48.314753 5.0511415 1.294625e-23)
(48.693153 4.6097367 4.3598385e-19)
(49.004365 4.1400228 2.4034904e-19)
(49.289477 3.6672787 4.2397707e-20)
(49.559897 3.2280217 -3.7395098e-19)
(49.747497 2.773897 2.968006e-19)
(49.884334 2.3159121 2.0357493e-19)
(49.986136 1.8830773 1.2823846e-20)
(50.064391 1.458481 3.7320619e-19)
(50.122056 1.0457917 6.4831332e-19)
(50.158594 0.63325806 5.5429331e-19)
(50.174733 0.21695156 0)
(42.277706 4.5932451 -6.5335948e-21)
(42.377118 4.6607809 -2.4070995e-20)
(42.490887 4.7385659 -7.2402871e-19)
(42.619606 4.8200349 1.3449274e-18)
(42.763155 4.9059803 -1.2365882e-18)
(42.920483 4.9956903 5.8139513e-19)
(43.08853 5.0859067 0)
(43.267498 5.1734185 0)
(43.480072 5.2484595 -2.5774983e-20)
(43.753858 5.3379692 4.6063607e-20)
(44.102812 5.3420594 2.8726622e-19)
(44.420398 5.3273065 -6.201461e-19)
(44.675909 5.8051392 3.1404691e-19)
(45.095419 5.6736842 0)
(45.595921 5.4833971 0)
(46.132516 5.4890001 0)
(46.600304 5.4103603 -1.5846747e-19)
(47.096253 5.2088859 2.0993535e-19)
(47.595189 4.9970263 0)
(48.029404 4.7056321 -1.0898819e-19)
(48.406106 4.3292365 9.616067e-20)
(48.736243 3.9187369 -3.391945e-19)
(49.050293 3.5277545 1.4957209e-19)
(49.341763 3.1093164 -9.8963267e-20)
(49.556892 2.6926366 -2.035348e-19)
(49.720456 2.2682363 -2.0513183e-19)
(49.844881 1.8444463 3.392204e-19)
(49.942243 1.4311357 -2.9913748e-19)
(50.017972 1.0311202 0)
(50.066124 0.62608614 -4.9647209e-19)
(50.088505 0.21477797 0)
(42.8578 3.9087458 7.6391195e-19)
(42.921896 3.9666422 2.9481078e-24)
(42.996054 4.0320067 1.0155421e-20)
(43.082697 4.1003374 0)
(43.185093 4.1734028 -1.7232606e-20)
(43.307447 4.2521658 5.0168038e-19)
(43.455693 4.3373272 -4.5363934e-19)
(43.634153 4.4295627 0)
(43.837222 4.5298379 2.2851499e-20)
(44.051386 4.6268423 3.4680712e-19)
(44.271693 4.7354219 3.6284032e-20)
(44.559617 4.8548766 -5.161209e-19)
(44.917211 4.6599347 5.7236914e-20)
(45.131304 5.0434606 1.9719805e-19)
(45.514685 4.8966077 0)
(45.974744 4.714708 0)
(46.440296 4.7337925 -6.9441504e-20)
(46.884753 4.6129846 9.7268682e-24)
(47.34255 4.4818014 1.0892843e-19)
(47.771554 4.2903106 -2.0750159e-23)
(48.14301 4.0224054 -2.5432667e-19)
(48.490783 3.6691451 7.4764878e-20)
(48.826661 3.3452881 6.5947081e-20)
(49.122165 2.9752407 2.9072272e-19)
(49.354431 2.5923339 -5.9010349e-24)
(49.54613 2.1878724 -2.2611522e-20)
(49.695094 1.7978825 -6.3799068e-19)
(49.809593 1.3982496 -1.7583282e-20)
(49.903222 1.0084715 0)
(49.963776 0.61423723 0)
(49.99263 0.21054323 0)
(43.507934 3.1708628 1.3639488e-18)
(43.567413 3.2198474 1.2564969e-18)
(43.635578 3.2751216 -1.1722956e-18)
(43.71327 3.333046 1.074169e-18)
(43.801307 3.3953265 -9.6804287e-19)
(43.900378 3.4628338 8.7941981e-19)
(44.009927 3.5347582 -8.0639614e-19)
(44.129652 3.6092745 0)
(44.264808 3.6841426 0)
(44.427159 3.7597941 5.5940184e-19)
(44.62388 3.8321735 -4.8149987e-19)
(44.8252 3.8835608 0)
(45.040354 4.0620931 -5.049983e-20)
(45.356414 3.9110409 0)
(45.548841 4.3284276 0)
(45.913725 4.1794665 -6.6713388e-20)
(46.305539 4.1290568 2.9901788e-19)
(46.70363 4.0006027 -4.2990468e-19)
(47.118758 3.9423384 -9.5661554e-20)
(47.525234 3.8155754 2.5404864e-19)
(47.899577 3.6501555 -2.6533975e-23)
(48.278351 3.3940714 -6.5931041e-20)
(48.62835 3.1475013 0)
(48.915241 2.803986 0)
(49.151068 2.4630569 0)
(49.359999 2.0981799 0)
(49.536643 1.7286358 3.1635194e-19)
(49.668843 1.3517437 -1.5501743e-20)
(49.777302 0.97834249 -1.367101e-20)
(49.850732 0.59833025 -6.029062e-21)
(49.886205 0.20591809 3.4567298e-19)
(44.030212 2.6406975 1.2168989e-18)
(44.068311 2.6822997 -1.1176953e-18)
(44.112396 2.7285878 8.1195262e-21)
(44.163745 2.7771453 9.6456457e-19)
(44.224124 2.8298873 -8.738503e-19)
(44.295706 2.8878553 7.9210407e-19)
(44.381195 2.9513644 -1.4278493e-18)
(44.483746 3.0207256 -1.9976857e-20)
(44.60456 3.0962551 5.5462245e-19)
(44.741027 3.1769123 0)
(44.892153 3.2609413 -4.818645e-19)
(45.07563 3.354274 2.5188189e-20)
(45.29051 3.3886827 3.7877632e-19)
(45.50633 3.5330262 -3.1542586e-19)
(45.775851 3.4222585 2.4404203e-19)
(45.950766 3.671904 2.235955e-24)
(46.258997 3.708425 2.1285507e-19)
(46.597898 3.5481771 -2.3222174e-19)
(46.943074 3.4440312 3.3306232e-19)
(47.299326 3.2924414 -7.4247611e-20)
(47.671732 3.2503077 6.5900539e-20)
(48.07897 3.082804 1.7214754e-23)
(48.443368 2.9167035 1.0251274e-19)
(48.714071 2.6171183 0)
(48.952761 2.3088079 -1.5940883e-19)
(49.167684 1.9703807 1.4056597e-19)
(49.367136 1.6422453 3.0986081e-20)
(49.519793 1.2951237 -2.7328474e-20)
(49.640495 0.93881604 1.2050524e-20)
(49.726427 0.57711648 3.2420948e-19)
(49.7687 0.19857384 -2.9531616e-19)
(44.603356 2.0628141 2.1864393e-18)
(44.638795 2.0971308 -1.9886995e-18)
(44.679522 2.1350509 -1.4425245e-20)
(44.726187 2.1747863 -6.6330736e-21)
(44.779477 2.2179538 -6.0482411e-21)
(44.839943 2.2653328 1.4136701e-18)
(44.907847 2.3169268 -4.9073233e-23)
(44.983265 2.3721648 -1.1239548e-18)
(45.067085 2.4301299 2.9761414e-24)
(45.162564 2.4900174 0)
(45.273228 2.5510962 -2.5019756e-20)
(45.394888 2.6100406 -4.4385337e-20)
(45.534062 2.6865989 -1.9656312e-20)
(45.712597 2.7250831 2.7821185e-19)
(45.91152 2.8052771 -2.4595969e-19)
(46.125894 2.8752621 2.7160429e-20)
(46.343885 2.7679937 0)
(46.592101 3.0819403 -4.1309829e-20)
(46.868418 3.0239926 -7.2370303e-20)
(47.182681 2.8501984 -6.4537762e-20)
(47.519262 2.877104 0)
(47.868553 2.7364149 -1.0230996e-19)
(48.228842 2.6280508 0)
(48.500028 2.385419 0)
(48.75321 2.1269446 1.4050762e-19)
(48.973733 1.8306121 -2.4781002e-19)
(49.186294 1.5346088 1.0926813e-19)
(49.361364 1.2183945 0)
(49.494095 0.88932199 -1.805939e-19)
(49.590689 0.54844373 -2.904504e-19)
(49.640294 0.19007956 0)
(45.047331 1.6835486 -1.948174e-18)
(45.067556 1.7122063 3.4530188e-21)
(45.09102 1.7435912 1.2805217e-20)
(45.118557 1.7766605 1.5050718e-18)
(45.151619 1.8127215 -1.3655666e-18)
(45.191652 1.8523092 -2.0938046e-24)
(45.239146 1.8960945 0)
(45.295693 1.9440745 1.5526049e-24)
(45.363454 1.9965123 8.9266868e-19)
(45.444468 2.0536619 -7.8243648e-19)
(45.540742 2.1153988 2.2069377e-20)
(45.65495 2.1850966 1.9577462e-20)
(45.790344 2.2497885 0)
(45.93311 2.3251889 0)
(46.098792 2.3940436 4.8798567e-19)
(46.280683 2.4005152 2.3908471e-20)
(46.459521 2.581751 -3.3829426e-19)
(46.695198 2.3728334 3.7150058e-19)
(46.869457 2.6430243 -2.258922e-19)
(47.14199 2.4895286 -5.7098362e-20)
(47.438897 2.5063092 0)
(47.715003 2.3902247 -9.0210706e-20)
(47.991681 2.2428809 7.9523959e-20)
(48.271255 2.0986013 -8.2038892e-24)
(48.550513 1.9090981 -6.1940549e-20)
(48.786506 1.6557031 1.0922045e-19)
(49.003287 1.3986104 -9.6312438e-20)
(49.194522 1.1248053 -1.6988781e-19)
(49.340311 0.82881457 1.8713936e-20)
(49.444994 0.51363016 -2.4779053e-20)
(49.501638 0.17777211 7.2852828e-21)
(45.550492 1.2347633 -1.7243217e-18)
(45.571252 1.2570379 -6.0983558e-21)
(45.5947 1.2813283 1.4444187e-18)
(45.620781 1.3069043 0)
(45.649101 1.3351251 -1.2113983e-18)
(45.679774 1.3667881 -8.5387719e-21)
(45.714635 1.4014945 2.1359044e-23)
(45.754983 1.4394035 1.7722887e-18)
(45.801955 1.4803724 -2.079571e-23)
(45.856769 1.5240292 -7.1237971e-19)
(45.921095 1.5700641 0)
(45.997897 1.6130037 0)
(46.081269 1.6619467 0)
(46.181027 1.7068431 0)
(46.290891 1.7519991 -2.3907441e-20)
(46.425612 1.8409282 3.3782752e-19)
(46.596592 1.7608663 -2.60985e-19)
(46.738158 2.0141289 -2.9609032e-19)
(46.953684 1.8225301 2.0267294e-19)
(47.156207 2.0174816 -6.703865e-25)
(47.409849 1.9498911 0)
(47.643493 1.9738454 1.592783e-19)
(47.866605 1.8818754 -1.4030998e-19)
(48.105721 1.7672599 6.1889362e-20)
(48.364673 1.6345816 0)
(48.617398 1.4586525 -1.4443692e-19)
(48.832744 1.2471178 4.2457394e-20)
(49.02567 1.0102793 1.871877e-19)
(49.181927 0.75221996 9.90505e-20)
(49.291988 0.46946913 0)
(49.353706 0.16371084 -2.0551832e-19)
(45.8718 0.96582724 0)
(45.882052 0.98277358 2.7053095e-21)
(45.89404 1.0009656 0)
(45.908255 1.0201762 0)
(45.925466 1.0414608 -4.1793437e-21)
(45.946839 1.0652533 -1.9345629e-18)
(45.973156 1.0916854 1.739548e-18)
(46.004202 1.1211604 6.08408e-21)
(46.040251 1.1537561 1.0860985e-20)
(46.081824 1.1896454 -1.2275546e-18)
(46.129711 1.2294915 2.1981457e-18)
(46.189142 1.2720746 -9.7462882e-19)
(46.264113 1.314429 0)
(46.352302 1.3593209 0)
(46.457129 1.4050788 0)
(46.565405 1.4157974 0)
(46.679493 1.5253696 -1.6437032e-20)
(46.834887 1.4333185 2.6105679e-19)
(46.984342 1.5351651 -2.5607593e-20)
(47.168838 1.5657586 -1.5589565e-19)
(47.372753 1.4227003 1.570974e-19)
(47.605844 1.5086589 -2.795936e-19)
(47.806398 1.4742419 2.4766066e-19)
(48.017981 1.4373269 -1.091936e-19)
(48.234659 1.343714 1.4440637e-19)
(48.472054 1.2319959 8.4883651e-20)
(48.679665 1.0729155 0)
(48.863498 0.88379923 3.3005187e-20)
(49.020664 0.66500649 -2.1890169e-24)
(49.133472 0.41886073 -1.2838573e-19)
(49.198313 0.1457991 1.8116691e-19)
(46.256526 0.70319913 -2.7095246e-18)
(46.269242 0.71688589 2.445306e-18)
(46.283703 0.73159357 0)
(46.29996 0.74727722 0)
(46.317915 0.76466344 7.3754403e-21)
(46.3371 0.78421394 0)
(46.357369 0.80615468 0)
(46.37988 0.83027874 -1.379272e-18)
(46.405573 0.85677574 1.226032e-18)
(46.435037 0.88569112 -1.2085085e-24)
(46.467949 0.91621318 7.5715657e-21)
(46.499566 0.95007632 0)
(46.532002 0.9865099 0)
(46.573401 1.0238017 0)
(46.630873 1.0599677 0)
(46.715834 1.1139239 0)
(46.814415 1.1228002 -1.4491615e-20)
(46.906498 1.2297744 -1.2788964e-20)
(47.059094 1.167945 -3.158696e-19)
(47.170607 1.2991556 6.2931167e-19)
(47.327705 1.2849672 -3.1217013e-19)
(47.511283 1.1563711 -3.0463664e-20)
(47.72182 1.1628377 -1.0832701e-19)
(47.936602 1.1399638 9.5937684e-20)
(48.141253 1.1135423 -4.2438791e-20)
(48.33629 1.0141581 -7.4841153e-20)
(48.53203 0.89908069 5.8463263e-24)
(48.705639 0.74553464 5.8204302e-20)
(48.85604 0.56456748 2.5668058e-20)
(48.971374 0.35848822 1.1318394e-19)
(49.038356 0.12626917 7.9871011e-20)
(46.514814 0.5425754 -2.3929028e-18)
(46.520107 0.55233234 2.1562554e-18)
(46.526397 0.56270024 -1.9491019e-21)
(46.533899 0.57370273 1.8298096e-18)
(46.542934 0.58585715 -1.6677949e-18)
(46.553941 0.59943517 -1.5074563e-18)
(46.567423 0.61459485 1.1730914e-23)
(46.583787 0.631541 2.4224953e-18)
(46.603444 0.65046813 -1.0808423e-18)
(46.626993 0.67157296 -3.7580075e-21)
(46.655477 0.69520367 -7.6171841e-25)
(46.690434 0.72182885 5.9166338e-21)
(46.73169 0.75288525 0)
(46.77912 0.78829017 9.271667e-21)
(46.833345 0.82595737 -5.24415e-19)
(46.890922 0.8579625 4.5593977e-19)
(46.964467 0.90658319 0)
(47.056702 0.89965002 -3.7208087e-19)
(47.128045 1.0007205 2.984305e-19)
(47.252701 0.89129701 1.7548135e-20)
(47.336931 1.0343994 1.5476444e-20)
(47.474828 1.0304285 2.7006071e-20)
(47.63055 0.95490141 0)
(47.81211 0.87791426 1.6809262e-19)
(48.015715 0.88516766 -1.8691695e-19)
(48.198168 0.80579402 -3.2990908e-20)
(48.379262 0.71138675 -5.8190699e-20)
(48.546834 0.59873741 0)
(48.692384 0.45480803 4.1227828e-24)
(48.808777 0.29151859 -7.9845102e-20)
(48.87716 0.10187586 6.4620606e-24)
(46.780423 0.33142154 -4.232073e-18)
(46.785252 0.33816331 9.4084167e-22)