/*--------------------------------*- C++ -*----------------------------------*\
| =========                 |                                                 |
| \\      /  F ield         | OpenFOAM: The Open Source CFD Toolbox           |
|  \\    /   O peration     | Version:  2406                                  |
|   \\  /    A nd           | Website:  www.openfoam.com                      |
|    \\/     M anipulation  |                                                 |
\*---------------------------------------------------------------------------*/
FoamFile
{
    version     2.0;
    format      ascii;
    arch        "LSB;label=32;scalar=64";
    class       volScalarField;
    location    "0.07";
    object      k;
}
// * * * * * * * * * * * * * * * * * * * * * * * * * * * * * * * * * * * * * //

dimensions      [0 2 -2 0 0 0 0];

internalField   nonuniform List<scalar> 
2065
(
789.02244
764.08662
729.71187
687.35739
638.02158
582.63635
522.58672
459.61798
395.6777
332.56203
271.87908
214.99191
162.92707
116.41557
75.856097
41.919923
16.590622
4.7002792
1.8669771
1.2085413
0.90990362
0.74331058
0.62856902
0.55254255
0.50535856
0.47152799
0.45813691
0.43546171
0.43094688
0.40337948
0.39416559
770.54842
742.37644
706.38513
663.80103
615.25633
561.45888
503.5291
442.94746
381.45182
320.71738
262.17806
207.14806
156.6476
111.45092
71.960826
39.039953
14.816464
4.1653137
1.7681579
1.1764944
0.89534808
0.7341898
0.62293534
0.54931167
0.503546
0.47053268
0.45727828
0.43510625
0.43071689
0.4032503
0.39417484
743.18313
713.67069
677.56991
635.73258
588.66798
536.99185
481.6415
423.88207
365.22532
307.18476
251.09623
198.19886
149.49811
105.81253
67.566574
35.795907
12.958664
3.7024261
1.6882987
1.1607982
0.88764504
0.72930606
0.61991879
0.54756515
0.50257778
0.46988973
0.45676029
0.43474711
0.43047014
0.40317839
0.39418539
705.85549
676.42316
641.48131
601.54612
556.95371
508.21749
456.13276
401.78504
346.4847
291.58503
238.33817
187.91391
141.30127
99.365936
62.575928
32.141636
11.030329
3.2762773
1.6164313
1.136869
0.8744842
0.72065177
0.61460074
0.54450254
0.50091046
0.4688733
0.45588335
0.43435895
0.43019418
0.40306655
0.39419657
659.08823
631.01557
598.19676
561.07115
519.80717
474.78537
426.65365
376.32578
324.9265
273.6581
223.6833
176.10874
131.9071
91.993973
56.902672
28.045501
9.0720104
2.8801426
1.5506697
1.1147956
0.86262088
0.71281765
0.60993382
0.54186563
0.49932452
0.46791252
0.45509194
0.43392348
0.42987515
0.40297072
0.39420846
603.48744
577.81264
547.97238
514.41599
477.19454
436.56019
393.00897
347.28168
300.32241
253.18351
206.93081
162.60691
121.16753
83.581496
50.467361
23.511579
7.1937044
2.5204585
1.483239
1.0878746
0.84719205
0.7023701
0.60367597
0.53830803
0.49730662
0.46668048
0.45404741
0.43342832
0.4295013
0.40284531
0.39422057
540.06319
517.56909
491.4005
462.01348
429.38634
393.66506
355.20346
314.5735
272.54088
230.00264
187.91546
147.25079
108.94466
74.02257
43.207776
18.618924
5.6315611
2.2085829
1.4188338
1.0602628
0.83141754
0.69160646
0.59743345
0.53484244
0.49521576
0.46537592
0.45299047
0.43285819
0.42905411
0.40273023
0.3942318
470.56794
451.69229
429.60835
404.74893
377.04532
346.5591
313.51928
278.33977
241.61182
204.07032
166.54742
129.9318
95.135118
63.241026
35.106586
13.59577
4.290422
1.9421253
1.3529837
1.0282003
0.81238562
0.67848078
0.58978198
0.53057046
0.49262725
0.46380346
0.45170555
0.43218937
0.42850791
0.40259083
0.39424061
397.26689
382.10469
364.19862
343.93903
321.22777
296.05982
268.55779
238.99163
207.78546
175.50953
142.85963
110.63046
79.706448
51.225291
26.257347
8.9009044
3.208938
1.7241597
1.2876285
0.99392066
0.79208012
0.66449874
0.58178904
0.52619736
0.48986404
0.4620776
0.45034734
0.43139065
0.42782411
0.40246124
0.39424524
322.60893
310.98098
297.07748
281.23331
263.33646
243.33288
221.25533
197.24611
171.57663
144.6607
117.05799
89.466622
62.75087
38.091646
17.044909
5.7685155
2.4586508
1.5689037
1.2183347
0.95442903
0.76825057
0.6482246
0.57239286
0.52100947
0.48656508
0.46003386
0.44874451
0.43041895
0.42695072
0.40231188
0.39424427
249.18103
240.67643
230.4203
218.609
205.12903
189.90114
172.89221
154.14101
133.79082
112.12185
89.576788
66.772219
44.569548
24.235455
9.0610969
3.6064913
1.9568133
1.4414963
1.1440541
0.91122433
0.74237621
0.63100561
0.56251491
0.5155565
0.48299828
0.45775305
0.44703273
0.42923068
0.42581767
0.40218298
0.39423756
179.41189
173.49265
166.33055
158.01147
148.4086
137.41273
124.93994
110.94933
95.49339
78.767425
61.155665
43.23857
25.819523
11.778976
4.7671921
2.4331527
1.675045
1.314491
1.0633408
0.86248536
0.71239141
0.61165618
0.55133258
0.50910915
0.47880176
0.45505111
0.44506604
0.42778657
0.42435222
0.40205533
0.3942276
115.40098
111.57205
106.92019
101.45465
95.0621
87.629173
79.040417
69.154092
57.999006
45.795507
33.042626
20.662657
11.181044
5.2090401
2.7302046
1.8878885
1.5096073
1.1856666
0.97996388
0.80891747
0.68044614
0.59176383
0.53982899
0.50206734
0.47439617
0.45204173
0.44295727
0.42609429
0.42253483
0.40198365
0.39422026
59.294785
57.020642
54.249699
50.987867
47.138461
42.641339
37.480037
31.787974
25.636587
19.291521
13.239188
8.0363396
4.4955909
2.6073515
1.9048669
1.6100993
1.29841
1.0598987
0.8892421
0.75601193
0.64348387
0.56946076
0.52725981
0.49370858
0.46941845
0.44850181
0.44051816
0.42423791
0.42051683
0.40193987
0.39422468
22.541773
21.598443
20.498994
19.211685
17.643429
15.775954
13.652031
11.34522
8.9980606
6.7994017
4.8370179
3.2248634
2.2010043
1.705569
1.5231858
1.3148512
1.1089053
0.91335632
0.79772454
0.70268479
0.60719634
0.54634296
0.51497858
0.48480191
0.46423725
0.44469231
0.43789807
0.42236182
0.41859353
0.40192196
0.39425352
7.3273148
7.0831067
6.7659538
6.3787482
5.9086168
5.3570601
4.7280424
4.0230553
3.3056353
2.650556
2.0905315
1.649273
1.4306489
1.3137186
1.1599787
1.0224627
0.89231648
0.79990714
0.71274845
0.65261681
0.56547791
0.52450294
0.50105116
0.47506008
0.45812487
0.44042147
0.43481748
0.42051377
0.4169214
0.40192994
0.3943171
2.5948798
2.549288
2.4736564
2.3730872
2.246608
2.095195
1.9287074
1.7403277
1.5443797
1.3730129
1.2227374
1.1179507
1.0864624
1.0153839
0.90133178
0.8240436
0.75874452
0.6973959
0.63766187
0.5985493
0.53428285
0.50307392
0.48827117
0.46578268
0.45118191
0.43619445
0.43152541
0.41864568
0.41540356
0.40193203
0.39443901
1.2551512
1.2448421
1.2264439
1.2012929
1.1704113
1.1327506
1.0869884
1.0376775
0.9902991
0.95488722
0.92664065
0.88067192
0.82618956
0.7903407
0.75821152
0.71442127
0.68023702
0.64223453
0.59608899
0.5557543
0.50750776
0.48477225
0.47432564
0.45591454
0.4433125
0.43166532
0.42791282
0.41666576
0.4138409
0.40190891
0.39459923
0.86125683
0.85625819
0.84998264
0.84164699
0.83172963
0.81943728
0.80630058
0.7958195
0.7924412
0.78203547
0.76651284
0.74634657
0.70621438
0.67327375
0.63825192
0.62784163
0.6175632
0.5867172
0.56058499
0.52163719
0.49288992
0.47104551
0.45847053
0.44632779
0.43659574
0.42712705
0.4244491
0.41444122
0.41234393
0.40176295
0.39466998
0.69220457
0.6910078
0.6902948
0.69004919
0.69097818
0.69084836
0.6906517
0.68761196
0.67441077
0.66198926
0.6409489
0.63114537
0.63188625
0.6099388
0.57654714
0.55040411
0.53903582
0.54226851
0.53754987
0.50377361
0.4766664
0.45611087
0.44596511
0.43817121
0.42964304
0.4224139
0.42073322
0.41192521
0.41051204
0.40149655
0.39461868
0.59437522
0.59315464
0.58993088
0.58382599
0.57535816
0.56940791
0.565059
0.56120046
0.55791431
0.5529184
0.55366269
0.54952735
0.53607884
0.53221459
0.53014903
0.51342636
0.49893439
0.48921632
0.49184588
0.48295205
0.4652944
0.4481622
0.43754529
0.43092444
0.42420934
0.41768009
0.41701766
0.40912816
0.40777875
0.40140901
0.39408942
0.51150683
0.51144441
0.51075676
0.50931247
0.50917306
0.51041546
0.5115321
0.51141845
0.50911087
0.50282563
0.49004937
0.48277195
0.47811084
0.47556452
0.47313956
0.47630883
0.47426048
0.46485826
0.45575154
0.4537994
0.45512251
0.43849121
0.4272002
0.42628454
0.41862249
0.41286695
0.41313996
0.4054292
0.4044571
0.40153462
0.39459892
0.47101033
0.47094817
0.47009005
0.46832347
0.46606434
0.46315066
0.4609147
0.45917461
0.45742205
0.4556262
0.45354899
0.45078372
0.44732167
0.44644825
0.44266078
0.44084935
0.44456067
0.44617631
0.43738902
0.43464731
0.43402133
0.4289738
0.42135707
0.41880739
0.41304544
0.40944726
0.40936999
0.4029741
0.4023015
0.40171886
0.39512697
0.43532605
0.43564716
0.43555088
0.43512021
0.43467612
0.43472822
0.43510553
0.43530846
0.43529926
0.4346286
0.43285215
0.43078998
0.42829724
0.42524287
0.42370822
0.42433521
0.42189305
0.42410538
0.41982388
0.42307032
0.41805114
0.41683591
0.41321176
0.41038426
0.40844408
0.40616386
0.40555395
0.40154627
0.40131096
0.4014944
0.39538536
0.4187865
0.41902893
0.41887788
0.41842398
0.41785627
0.41716795
0.41656141
0.41614727
0.41574802
0.4152978
0.41486653
0.41439879
0.41384391
0.4138138
0.41369601
0.41187382
0.40997653
0.40848865
0.40707832
0.40983941
0.41062303
0.40699029
0.40692692
0.40497971
0.40449265
0.40249123
0.40282734
0.40057034
0.40085337
0.40122702
0.39502296
0.40662995
0.40686224
0.40685837
0.40673106
0.40661008
0.40653447
0.40648705
0.40645486
0.40645527
0.40665006
0.40714469
0.40754257
0.4071722
0.40602549
0.40527225
0.40451837
0.40299746
0.40185858
0.40157539
0.40371354
0.40641252
0.40237236
0.40151223
0.40194455
0.40094318
0.39998226
0.40029956
0.39946369
0.40002386
0.40101672
0.39496248
0.40121229
0.40136039
0.40134696
0.40126878
0.40120935
0.40118254
0.40117708
0.40118369
0.40120162
0.40124133
0.40128422
0.40122329
0.40098084
0.40071752
0.40061527
0.40042141
0.39971246
0.39893822
0.39911428
0.40053325
0.40336647
0.4001439
0.39888427
0.39969179
0.39928101
0.39868837
0.39893125
0.39802695
0.39864618
0.40012385
0.39536224
0.39844569
0.39851015
0.39850388
0.39847437
0.39845403
0.39844753
0.39845292
0.3984696
0.3985012
0.39855845
0.39863727
0.39868705
0.39862307
0.39842258
0.39828164
0.39817761
0.39785124
0.39780788
0.39795292
0.398953
0.40048164
0.39875929
0.39777247
0.39845209
0.39835197
0.39791954
0.39797272
0.39723554
0.39797694
0.39892196
0.39575313
0.39755312
0.39756976
0.39756094
0.39754459
0.39753223
0.3975257
0.39752584
0.39753488
0.39755515
0.39758798
0.39761854
0.39761055
0.39757999
0.39755856
0.39754233
0.39751762
0.39734078
0.39755408
0.39760095
0.39804387
0.39889665
0.39808025
0.39735447
0.39758474
0.3974644
0.39722146
0.39714067
0.39678321
0.39708796
0.39835283
0.39672411
0.39728015
0.39727667
0.39726839
0.39725887
0.39725021
0.39724333
0.39724049
0.39724733
0.39726824
0.39730017
0.39732486
0.39731426
0.39730406
0.39734329
0.39737358
0.3973945
0.39750213
0.39758455
0.39778281
0.39771905
0.39803508
0.3978632
0.39725616
0.39727428
0.39715852
0.39702293
0.39694073
0.39674685
0.39676343
0.3975735
0.39716229
0.39760508
0.39760386
0.39760311
0.39760313
0.39760396
0.39760583
0.3976091
0.39761371
0.3976177
0.39761711
0.39761264
0.39760992
0.39761257
0.3976159
0.39762718
0.39765223
0.39766681
0.3978086
0.39797028
0.39772225
0.39755205
0.39768825
0.39748434
0.39746433
0.39742006
0.39748429
0.39747625
0.39743323
0.39745154
0.39811159
0.3975001
101.29428
181.27579
281.97184
375.40408
446.4755
489.86628
505.96868
499.26205
474.64425
431.20737
378.8793
321.68601
263.33261
206.8442
154.44447
107.59703
67.038805
34.323793
13.135579
3.9768954
1.5347257
0.95209369
0.73843552
0.61722068
0.54456187
0.49712721
0.47311455
0.44719356
0.43655606
0.40926462
0.39600945
213.72078
319.71645
403.12436
463.43698
501.78967
518.43888
515.80801
499.58771
463.75005
416.57939
363.00756
306.2848
249.42592
194.92043
144.63236
99.801835
61.067583
30.237781
10.956042
3.3516733
1.3784516
0.91167011
0.72293813
0.60912755
0.54014121
0.49483845
0.47183673
0.44645637
0.43619283
0.40866282
0.3958302
310.91341
390.07425
453.96804
499.72235
524.89433
530.44575
519.73392
492.68835
451.79252
402.55527
348.4376
292.34966
236.88763
184.16423
135.76343
92.747334
55.689302
26.667026
9.2836279
2.8310599
1.286117
0.89430715
0.71581928
0.60529483
0.53796906
0.49362691
0.47111535
0.44602976
0.43600031
0.40811624
0.39565327
393.86432
457.88851
504.88001
533.27429
543.19631
537.87333
518.8518
484.23099
439.99067
389.29348
334.97244
279.61904
225.48737
174.39374
127.69886
86.3273
50.813195
23.532103
7.9021262
2.4993381
1.2033527
0.8719704
0.70492124
0.59951522
0.53450084
0.49175172
0.47007662
0.44540622
0.4356987
0.40760018
0.39548346
456.90011
505.52045
537.94444
553.77718
554.21306
541.36599
513.6671
474.9594
428.43275
376.76038
322.49462
267.9455
215.08423
165.49007
120.34504
80.468698
46.379178
20.778503
6.7462518
2.1912773
1.145194
0.85704236
0.69776167
0.59568382
0.53214589
0.49042456
0.46931056
0.44493181
0.43547529
0.40713041
0.39532279
505.90285
542.52634
563.31759
568.71821
561.80345
540.83827
507.60465
465.66957
417.35474
365.03383
310.9879
257.26476
205.5991
157.37774
113.63769
75.112952
42.348167
18.332143
5.7792521
1.9712202
1.0992553
0.84113897
0.68920142
0.59091804
0.52924361
0.48880166
0.46841405
0.44436633
0.43519653
0.40669139
0.39517208
544.55026
570.85174
581.92264
579.77291
565.19939
537.95566
500.99059
456.58029
406.91866
354.19412
300.46033
247.54266
196.98063
150.00319
107.52736
70.215467
38.688931
16.149948
4.9725561
1.783337
1.0627182
0.82861054
0.68259179
0.58729588
0.52696592
0.48747392
0.46765946
0.44386983
0.43494233
0.40629668
0.39503171
575.0317
592.65664
595.91592
587.94317
566.38655
534.56475
494.43107
447.99162
397.28611
344.31101
290.92113
238.75479
189.19
143.32424
101.97406
65.755551
35.370827
14.222598
4.3110993
1.6430834
1.0332354
0.81630205
0.67562684
0.58327809
0.52449058
0.48602887
0.46685775
0.44332615
0.43465601
0.40592493
0.39490192
599.51494
609.83026
607.21075
592.95376
566.43155
530.92924
488.19651
440.1089
388.57549
335.43333
282.37375
230.87962
182.19502
137.3061
96.944536
61.696776
32.366235
12.540751
3.7937419
1.5293783
1.0088426
0.80587036
0.66975744
0.57991788
0.52240758
0.48475987
0.46613487
0.44280981
0.43437623
0.40558414
0.39478288
619.86828
624.05937
616.49113
596.37497
566.00979
527.47853
482.5741
433.10345
380.87454
327.59302
274.81615
223.89699
175.96847
131.92095
92.428313
58.017702
29.664452
11.091664
3.373816
1.4442002
0.98868289
0.79603237
0.66384656
0.57651992
0.52030494
0.48346044
0.46540016
0.44226392
0.43407372
0.40526692
0.39467473
637.47714
636.56878
623.98876
599.28901
565.69374
524.56272
477.7777
427.09878
374.24368
320.80903
268.24241
217.78802
170.48693
127.14566
88.400438
54.721633
27.24454
9.8581675
3.0477788
1.3764665
0.97150963
0.78740431
0.65866293
0.57355622
0.51844198
0.48227999
0.46471215
0.44172576
0.43376836
0.4049822
0.39457764
652.81857
647.74511
630.39162
602.22175
565.81817
522.40633
473.95833
422.1833
368.72389
315.09161
262.64469
212.53527
165.73033
122.97554
84.842237
51.788709
25.08138
8.8219823
2.7856125
1.325768
0.95704411
0.77945855
0.65398225
0.57070057
0.51658131
0.48111539
0.46402527
0.44117113
0.43345415
0.40472448
0.39449176
666.95228
657.95509
636.68188
605.51989
566.49039
521.15543
471.22837
418.41968
364.34425
310.44604
258.01464
208.12388
161.68709
119.38419
81.744498
49.20251
23.167459
7.9642253
2.5856575
1.2876081
0.94460835
0.77248317
0.65006577
0.56814577
0.51489544
0.48004358
0.4633671
0.44062519
0.43314488
0.40449882
0.3944173
680.30573
667.63546
643.21497
609.42053
567.9329
520.9831
469.6628
415.85431
361.13651
306.89143
254.35762
204.56461
158.33954
116.33793
79.070946
46.943751
21.490326
7.2650608
2.4326781
1.2606969
0.93409299
0.76627525
0.64620749
0.56571713
0.51336425
0.47900995
0.46271459
0.44008419
0.43284148
0.40430417
0.3943539
693.69863
677.52583
650.37551
614.24038
570.82718
521.86095
469.39894
414.59405
359.16603
304.49195
251.70912
201.84498
155.67568
113.83926
76.820343
45.001135
20.039086
6.7049901
2.3210638
1.23952
0.92518888
0.76089578
0.64282016
0.56354448
0.51204781
0.47804787
0.46209222
0.43956147
0.43257033
0.40412976
0.39430047
707.72504
688.53726
658.8531
620.48199
575.15074
524.57788
470.48547
414.74194
358.50762
303.22252
250.04391
199.94014
153.69339
111.8866
74.990949
43.362711
18.802778
6.2724716
2.243083
1.2229832
0.91779806
0.75624136
0.63984041
0.56153819
0.51081476
0.47712318
0.46149864
0.43905417
0.43232187
0.40398002
0.39425678
721.29382
700.2258
668.54859
628.21158
581.03437
528.81696
473.25544
416.13369
358.96878
303.01559
249.31372
198.85513
152.39134
110.48122
73.583952
42.025106
17.794227
5.9289628
2.1742596
1.2082885
0.91180361
0.7523225
0.63717319
0.55975494
0.50973068
0.47626395
0.460947
0.43857256
0.43210837
0.40384728
0.39422242
730.70901
709.11711
676.74252
635.47534
587.23941
533.87794
477.17836
418.9002
360.67148
303.81509
249.49866
198.59214
151.77484
109.62841
72.604737
40.998297
17.002734
5.656668
2.1175435
1.1971778
0.90719177
0.74907604
0.63491063
0.55815755
0.50875309
0.47545612
0.46043936
0.4381101
0.43191897
0.40373513
0.39419662
739.54985
716.70579
683.73813
642.11924
593.42132
539.4129
481.92295
422.75785
363.57842
305.83131
250.71567
199.13447
151.83963
109.33674
72.061483
40.29765
16.416031
5.4431241
2.068641
1.1889051
0.90390661
0.74649358
0.63299165
0.55676796
0.50788042
0.47471469
0.45998395
0.4376634
0.43174631
0.40364025
0.39417824
750.24658
725.88263
691.8955
649.65651
600.47386
545.91978
487.74633
427.75479
367.64076
308.93591
252.92792
200.57915
152.63521
109.60031
71.963509
39.938475
16.02671
5.278256
2.0266392
1.184221
0.90195224
0.74454537
0.63143243
0.55556868
0.50709714
0.47403032
0.45957936
0.43722312
0.43158664
0.40356261
0.39416579
760.81984
735.65768
701.01859
658.29025
608.66727
553.60907
494.79636
433.98374
372.90823
313.17189
256.15728
202.89568
154.16294
110.48232
72.325116
39.933536
15.834232
5.1522802
1.989121
1.1834705
0.90136285
0.74324125
0.63023218
0.55457056
0.50640584
0.4734053
0.45921221
0.43679958
0.43143744
0.40349964
0.39415762
770.86475
745.52803
710.77114
667.90258
618.03674
562.57655
503.15795
441.5285
379.43925
318.58878
260.44263
206.11767
156.44404
111.97262
73.161397
40.302142
15.845209
5.0548657
1.9547571
1.1865755
0.90220787
0.74258809
0.62939513
0.55377606
0.50587683
0.47283401
0.45887599
0.43640762
0.43129788
0.40345068
0.39415286
779.90263
754.6961
720.3615
677.93412
628.37113
572.80327
512.8665
450.41888
387.28249
325.22852
265.82337
210.28156
159.50654
114.0954
74.486362
41.066249
16.096096
4.9728502
1.9247128
1.1929405
0.90442276
0.7425867
0.62892571
0.55320204
0.50553025
0.47232362
0.45858737
0.43604447
0.43116808
0.40341342
0.39415062
786.43368
761.60474
727.90047
686.12986
637.10707
581.82821
521.7893
458.85147
394.94909
331.89591
271.35969
214.66413
162.80037
116.43784
75.997188
41.983628
16.485943
4.8760024
1.8960363
1.2009409
0.90729759
0.74292599
0.62880563
0.55285463
0.50537905
0.47188226
0.45834362
0.43571068
0.43104679
0.40338668
0.39415157
101.4235
171.78607
265.53803
355.50361
427.27478
474.4725
495.76302
493.81528
472.95845
432.80722
382.6161
326.63232
268.63274
211.94205
159.00659
111.45314
70.144574
36.458502
14.219782
4.2454159
1.5744051
0.96336666
0.74307643
0.61993644
0.5461335
0.49796717
0.47362797
0.44747502
0.43668444
0.40976951
0.39613083
102.26773
168.18906
257.70593
344.97104
415.75263
463.53621
486.53538
486.65787
468.11415
430.44761
381.54719
326.50405
269.25794
213.01855
160.27707
112.73464
71.347342
37.434705
14.801846
4.4241338
1.6078351
0.97064248
0.74619654
0.62187198
0.54730527
0.49862088
0.47406607
0.44770846
0.43679208
0.41011645
0.39624927
104.17243
165.2437
249.87133
334.17324
403.85462
452.15148
476.79919
479.0184
462.40006
427.0699
379.98037
326.22285
269.83012
214.09284
161.57728
114.06403
72.598569
38.464607
15.423955
4.6218397
1.6475615
0.97859556
0.74960556
0.62391248
0.5485852
0.49935212
0.47452769
0.44797695
0.43689996
0.41058406
0.39637802
106.60195
162.64306
242.2444
323.31158
391.72073
440.38726
466.57846
470.87916
456.2797
423.32025
378.1472
325.77827
270.32277
215.14756
162.89726
115.43722
73.896566
39.552969
16.081652
4.842101
1.685388
0.9870607
0.75307043
0.62598302
0.54986223
0.50005311
0.47504542
0.4482299
0.43705318
0.41088567
0.39652211
109.74799
161.05011
235.24099
312.71168
379.52806
428.32226
455.90272
462.23993
449.71604
419.17928
376.01638
325.13985
270.71057
216.16475
164.22563
116.8481
75.242428
40.699513
16.780084
5.0865161
1.7370196
0.99681783
0.75719466
0.62833737
0.55130561
0.5008778
0.47557327
0.44854296
112.95431
159.67623
228.41381
302.16253
367.2231
415.97283
444.8001
453.11425
442.69914
414.62664
373.56014
39.512134
45.26367
52.125664
59.662914
67.416352
24.143525
32.461506
815.53504
816.13864
6.9144414
15.868232
46.026166
52.312046
5.2205693
14.443698
36.736302
91.597517
112.18396
7.5392494
18.664133
42.381649
92.89202
152.75341
216.38921
32.416767
48.573952
89.243785
159.54794
244.75149
316.95792
59.578128
78.567382
144.7535
246.48295
330.94895
396.03741
81.765596
111.57042
217.32831
319.10693
397.84967
456.79892
100.28514
144.96137
276.32514
378.253
452.64566
505.21259
118.25289
179.80216
327.80785
427.7983
497.31183
543.84746
135.46888
214.8636
372.13339
470.70843
535.01957
575.51992
145.52242
248.84083
410.20491
505.56673
565.92372
601.67795
158.29235
282.79262
445.81181
538.00542
593.7642
624.5717
169.78638
315.32438
476.14213
565.44657
617.69466
644.48227
180.09275
347.53306
505.29918
591.3603
639.93099
662.80419
188.16251
371.22136
529.09684
614.51101
660.36645
679.84528
195.13746
398.86477
553.20836
636.72551
680.07326
696.51521
200.42317
412.71299
572.23876
657.39773
699.01914
713.3088
205.83564
429.37835
588.8299
674.53581
715.55575
728.5739
211.61829
450.36686
607.30662
688.93461
727.60359
738.98521
216.6601
466.91501
625.23566
705.22982
740.83499
749.84055
221.17853
484.27595
642.50064
721.2689
755.12664
762.45359
224.94222
499.71076
658.24224
735.761
768.09449
774.21255
227.98119
514.53112
673.22539
749.54415
780.30756
785.20975
527.52467
687.19654
762.73606
791.93611
795.2902
699.87221
775.23026
803.20142
804.45165
803.14967
785.88053
758.51968
720.30195
671.82698
613.81338
547.63052
475.39768
399.63022
322.97612
248.12962
177.52811
103.912
113.15507
50.894048
57.557321
18.29579
21.62459
5.9016421
6.9850466
2.1966008
2.4933949
1.1665027
1.2348184
0.85196528
0.86319222
0.69271484
0.69470877
0.59509969
0.59609814
0.51305378
0.51249744
0.4723837
0.47170809
0.43614151
0.4354762
0.41941196
0.41884005
0.4067906
0.40654277
0.40125556
0.40112782
0.39843526
0.39839479
0.39754553
0.3975367
0.39728192
0.39728307
0.39760966
0.39760755
)
;

boundaryField
{
    Side1
    {
        type            empty;
    }
    Inlet
    {
        type            inletOutlet;
        inletValue      uniform 0.39740317;
        value           nonuniform List<scalar> 
92
(
0.39740317
0.39740317
0.39740317
0.39740317
0.39740317
0.39740317
0.39740317
0.39740317
0.39740317
0.39740317
0.39740317
0.39740317
0.39740317
0.39740317
0.39740317
0.39740317
0.39740317
0.39740317
0.39740317
0.39740317
0.39408942
0.39459892
0.39740317
0.39538536
0.39740317
0.39496248
0.39740317
0.39740317
0.39740317
0.39716229
0.39740317
0.39740317
0.39740317
0.39740317
0.39740317
0.39740317
0.39740317
0.39740317
0.39740317
0.39740317
0.39740317
0.39740317
0.39740317
0.39740317
0.39740317
0.39740317
0.39740317
0.39740317
0.39740317
0.39740317
0.39740317
0.39740317
0.39740317
0.39740317
0.39740317
0.39740317
0.39740317
0.39740317
0.39740317
0.39740317
0.39740317
0.39740317
0.39740317
0.39740317
0.39740317
0.39740317
0.39740317
0.39740317
0.39740317
0.39740317
0.39740317
0.39740317
0.39740317
0.39740317
0.39740317
0.39740317
0.39740317
0.39740317
0.39740317
0.39740317
0.39740317
0.39740317
0.39740317
0.39740317
0.39740317
0.39740317
0.39740317
0.39740317
0.39740317
0.39740317
0.39740317
0.39740317
)
;
    }
    Side2
    {
        type            empty;
    }
    Outlet
    {
        type            zeroGradient;
    }
    Botwall
    {
        type            kqRWallFunction;
        value           nonuniform List<scalar> 0();
    }
    Cyli
    {
        type            kqRWallFunction;
        value           nonuniform List<scalar> 
20
(
7.5392494
32.416767
59.578128
81.765596
100.28514
118.25289
135.46888
145.52242
158.29235
169.78638
180.09275
188.16251
195.13746
200.42317
205.83564
211.61829
216.6601
221.17853
224.94222
227.98119
)
;
    }
    procBoundary2to0
    {
        type            processor;
        value           nonuniform List<scalar> 
55
(
27.193024
30.65546
36.660825
44.260854
52.930902
22.135462
24.738013
9.2941592
13.277753
13.277753
710.95253
786.90177
786.90177
826.38912
827.64804
2.6149305
2.6149305
1.2536757
1.2536757
230.30953
230.30953
538.79847
538.79847
813.57342
793.51783
762.54807
720.67709
668.40803
606.87527
537.88109
463.74859
387.01494
310.27424
236.07153
166.6566
166.6566
95.47291
44.995697
15.629674
5.0891873
1.9798346
1.1126353
0.83830261
0.6843526
0.59036482
0.5109639
0.47129211
0.43582333
0.41941871
0.40676737
0.40125165
0.39842481
0.39753016
0.39726528
0.39760918
)
;
    }
    procBoundary2to3
    {
        type            processor;
        value           nonuniform List<scalar> 
35
(
0.43716908
0.41143058
0.39670064
324.28687
270.98042
217.13976
165.56324
118.29929
76.642775
41.90569
17.542128
5.3608763
1.7840446
1.0068746
0.76116677
0.63063719
0.5527279
0.50162647
0.4761593
0.43716908
0.44881267
117.21046
76.34032
159.78221
222.88596
292.46377
355.29924
403.61287
433.40787
443.55657
435.23714
409.64729
324.28687
370.76191
76.34032
)
;
    }
}


// ************************************************************************* //
