/*--------------------------------*- C++ -*----------------------------------*\
| =========                 |                                                 |
| \\      /  F ield         | OpenFOAM: The Open Source CFD Toolbox           |
|  \\    /   O peration     | Version:  2406                                  |
|   \\  /    A nd           | Website:  www.openfoam.com                      |
|    \\/     M anipulation  |                                                 |
\*---------------------------------------------------------------------------*/
FoamFile
{
    version     2.0;
    format      ascii;
    arch        "LSB;label=32;scalar=64";
    class       volScalarField;
    location    "0.07";
    object      p;
}
// * * * * * * * * * * * * * * * * * * * * * * * * * * * * * * * * * * * * * //

dimensions      [1 -1 -2 0 0 0 0];

internalField   nonuniform List<scalar> 
2065
(
101143.38
101044.03
100985.52
100915.8
100851.79
100804.14
100776.31
100767.78
100777.3
100802.4
100843.33
100896.8
100961.55
101029.86
101102.72
101175.53
101231.03
101263.13
101291.3
101311.99
101327.72
101337.89
101343.14
101341.7
101337.05
101323.65
101310.17
101288.65
101268.78
101261.28
101206.69
101333.87
101246.42
101161.35
101070.72
100991.13
100929.47
100887.02
100864.61
100860.44
100872.85
100902.16
100945.72
101001.16
101062.82
101125.96
101192.7
101241.01
101272.61
101299.24
101318.25
101332.77
101342.01
101346.54
101344.49
101339.46
101325.56
101311.84
101289.94
101269.89
101262.27
101209.84
101460.92
101380.99
101288.53
101190.12
101102.85
101032.2
100979.52
100946.66
100932.42
100933.37
100953.06
100988.31
101036.26
101093.48
101149.96
101212.61
101253.4
101284.55
101308.6
101325.58
101338.65
101346.81
101350.46
101347.72
101342.19
101327.75
101313.74
101291.41
101271.17
101263.3
101213.07
101565.18
101490.21
101398.67
101298.5
101206.95
101129.79
101068.85
101026.13
101001.8
100993.82
101004.58
101031.78
101072.64
101125.53
101176.29
101234.61
101268.04
101298.37
101319.21
101333.94
101345.36
101352.29
101354.93
101351.4
101345.23
101330.26
101315.88
101293.07
101272.62
101264.39
101216.34
101654.83
101584.93
101497.92
101400.06
101307.7
101227.03
101160.25
101109.57
101076.23
101059.93
101061.94
101080.93
101114.44
101162.08
101206.7
101258.97
101285.44
101314.05
101331.27
101343.47
101353.02
101358.56
101360.03
101355.63
101348.66
101333.15
101318.31
101294.97
101274.29
101265.55
101219.69
101728.32
101662.91
101582.68
101490.92
101401.64
101320.95
101251.42
101195.5
101155.17
101131.38
101125.22
101136.15
101162.27
101203.85
101241.78
101285.74
101306.62
101331.55
101344.95
101354.32
101361.74
101365.72
101365.85
101360.47
101352.54
101336.48
101321.05
101297.16
101276.2
101266.78
101223.13
101784.84
101724.52
101651.86
101569.06
101486.3
101409
101339.89
101281.66
101236.77
101207.02
101193.78
101197.22
101216.24
101251.21
101281.71
101314.81
101332.21
101351
101360.39
101366.66
101371.67
101373.89
101372.49
101366.03
101356.96
101340.33
101324.16
101299.68
101278.4
101268.14
101226.69
101826.26
101771.79
101708.54
101635.97
101561.7
101490.34
101424.49
101366.78
101319.89
101286.13
101267.31
101264.2
101276.73
101304.58
101326.37
101346.84
101361.79
101372.67
101377.77
101380.63
101382.94
101383.17
101380.07
101372.4
101362.01
101344.75
101327.69
101302.58
101280.95
101269.7
101230.41
101857.83
101808.04
101753.86
101692.4
101628.32
101565.07
101504.91
101450.29
101403.88
101368.26
101345.57
101337.23
101344.16
101364.03
101375.36
101384.2
101394.23
101396.91
101397.28
101396.43
101395.7
101393.71
101388.72
101379.67
101367.8
101349.84
101331.72
101305.95
101283.89
101271.56
101234.34
101880.78
101839.43
101792.91
101741.69
101688.67
101634.94
101582.15
101532.55
101488.69
101453.2
101428.47
101416.54
101418.9
101428.68
101428.2
101428.1
101428.65
101423.82
101419.09
101414.23
101410.15
101405.65
101398.59
101387.97
101374.47
101355.7
101336.36
101309.87
101287.33
101273.8
101238.55
101895.31
101873.28
101840.34
101797.75
101752.01
101705.55
101659.49
101615.34
101575.16
101541.32
101516.28
101502.57
101500.87
101497.23
101485.56
101475.73
101464.73
101453.23
101443.22
101434.2
101426.51
101419.16
101409.78
101397.4
101382.19
101362.44
101341.72
101314.45
101291.33
101276.5
101243.15
101933.01
101914.7
101885.91
101852.53
101815.43
101777
101738.3
101700.44
101665.06
101634.26
101610.5
101595.81
101587.37
101569.76
101545.09
101522.79
101502.5
101484.62
101469.43
101456.35
101444.92
101434.39
101422.45
101408.1
101391.1
101370.2
101347.95
101319.8
101296.03
101279.77
101248.24
101968.96
101956.6
101938.43
101912.77
101883.76
101853.8
101823.33
101792.8
101763.29
101736.33
101713.16
101692.59
101669.16
101636.87
101601.47
101568.88
101540.89
101517.26
101497.38
101480.31
101465.33
101451.49
101436.77
101420.23
101401.31
101379.09
101355.19
101326.05
101301.54
101283.72
101253.96
102042.68
102036.59
102016.68
101986.75
101959.02
101935.88
101913.1
101888.25
101861.79
101834.4
101805.54
101772.78
101734.52
101692.74
101651.17
101613.04
101579.72
101551.04
101526.58
101505.72
101487.4
101470.33
101452.89
101434
101412.91
101389.21
101363.6
101333.34
101308.01
101288.47
101260.39
102101.52
102104.22
102102.88
102090.47
102065.52
102035.2
102004.19
101971.48
101936.77
101901.07
101862.91
101822.14
101779.89
101737.06
101694.86
101654.82
101618.14
101585.4
101556.73
101532.14
101510.76
101490.7
101470.72
101449.5
101426.09
101400.66
101373.32
101341.81
101315.55
101294.15
101267.48
102097.11
102087.24
102073.13
102060.68
102052.04
102043.13
102032.13
102012.4
101981.51
101945.64
101905.07
101860.15
101815.34
101772.1
101730.84
101691.58
101654.29
101619.51
101587.67
101559.39
101535.07
101512.47
101489.95
101466.62
101441
101413.6
101384.47
101351.62
101324.26
101300.86
101273.92
102091.93
102082.97
102071.92
102059.43
102044.84
102026.61
102004.87
101985.18
101968.79
101950.54
101925.35
101890.08
101848.26
101803.09
101760.11
101721.73
101685.55
101651.09
101618.37
101587.59
101560.13
101535.11
101510.53
101485.21
101457.61
101428.22
101397.18
101362.95
101334.19
101308.62
101278.06
102060.6
102053.67
102045.31
102035.66
102024.48
102011.48
101996.41
101979.6
101960.97
101937.86
101914.01
101894.8
101869.82
101832.55
101789.46
101748.88
101712.09
101678.26
101646.52
101615.6
101586.05
101558.7
101532.1
101505.09
101475.88
101444.57
101411.72
101376.03
101345.4
101317.48
101280.65
102026.62
102020.92
102014.02
102006.16
101997.19
101986.9
101975.14
101961.82
101946.66
101929.75
101910.29
101886.47
101863.74
101843.09
101813.12
101777.45
101738.88
101702.76
101670.76
101641.32
101612.11
101583.08
101554.61
101526.2
101495.72
101462.68
101428.41
101391.11
101358.05
101327.14
101289.52
101990.49
101986.14
101980.87
101974.86
101967.98
101960.05
101950.9
101940.33
101928.14
101914.07
101898.19
101880.67
101859.64
101835.67
101817.22
101796.37
101764.86
101728.7
101694.01
101664.11
101636.41
101607.63
101578.23
101548.36
101516.95
101482.83
101447.38
101408.58
101372.53
101337.61
101311.71
101956.04
101952.6
101948.43
101943.69
101938.28
101932.04
101924.83
101916.5
101906.89
101895.81
101882.99
101868.17
101851.64
101835.87
101817.33
101796.56
101777.48
101748.25
101716.39
101686.52
101658.59
101631.01
101602.09
101571.35
101539.46
101505.01
101468.83
101428.85
101389.61
101348.85
101326.28
101920.8
101918.24
101915.12
101911.57
101907.48
101902.77
101897.34
101891.13
101884
101875.79
101866.38
101855.61
101843.38
101829.68
101814.41
101796.34
101775.21
101754.77
101731.23
101707.05
101679.31
101651.94
101624.73
101594.7
101562.79
101528.76
101492.77
101452.19
101410.25
101360.53
101345.47
101888.57
101886.62
101884.25
101881.59
101878.57
101875.1
101871.07
101866.35
101860.83
101854.42
101846.98
101838.37
101828.47
101817.1
101803.97
101789.29
101776.15
101761.22
101740.92
101719.81
101696.56
101671.04
101644.94
101617.11
101586.28
101553.44
101518.59
101478.66
101436.69
101378.33
101387.08
101855.69
101854.28
101852.56
101850.61
101848.39
101845.83
101842.86
101839.43
101835.5
101831
101825.84
101819.85
101812.92
101804.91
101795.66
101785.1
101773.6
101762.04
101746.83
101726.83
101706.9
101685.57
101661.89
101637.08
101609
101578.13
101545.22
101507.76
101470.56
101415.44
101386.61
101825.77
101824.74
101823.5
101822.12
101820.54
101818.72
101816.61
101814.16
101811.31
101807.95
101804.01
101799.45
101794.21
101788.17
101781.24
101773.26
101763.89
101755.48
101747.66
101732.71
101713.68
101695.33
101675.96
101653.91
101629.43
101601.58
101571.32
101537.72
101507.95
101464.72
101428.67
101795.2
101794.47
101793.58
101792.58
101791.44
101790.12
101788.58
101786.79
101784.7
101782.3
101779.54
101776.41
101772.85
101768.75
101763.97
101758.33
101751.64
101743.48
101735.68
101729.37
101716.78
101700.79
101684.97
101666.42
101645.95
101622.29
101595.61
101566.49
101544.16
101513.23
101537.56
101767.37
101766.88
101766.28
101765.63
101764.88
101764.03
101763.03
101761.88
101760.54
101758.98
101757.14
101754.93
101752.27
101749.14
101745.5
101741.2
101736.24
101730.95
101724.23
101714.75
101705.7
101697.26
101685.9
101672.75
101657.53
101639.11
101617.6
101594.3
101578.68
101562.24
101590.48
101737.07
101736.77
101736.4
101735.99
101735.52
101734.97
101734.33
101733.58
101732.7
101731.64
101730.34
101728.79
101727
101724.97
101722.66
101719.82
101716.13
101711.29
101705.58
101700.5
101698.22
101693.24
101683.77
101674.99
101664.57
101652.33
101637.84
101623.06
101614.26
101608.3
101646.92
101709.22
101709.02
101708.79
101708.54
101708.26
101707.95
101707.6
101707.21
101706.78
101706.27
101705.53
101704.53
101703.33
101701.78
101699.73
101697.33
101696.13
101695.05
101692.31
101690.3
101686.61
101682.33
101679.41
101674.93
101669.87
101664.14
101657.35
101650.41
101649.91
101657.22
101675.25
101691.49
101691.26
101691.01
101690.72
101690.4
101690.03
101689.61
101689.11
101688.52
101687.87
101687.29
101686.83
101686.39
101685.87
101685.04
101684.48
101682.99
101681.05
101680.22
101678.29
101675.62
101673.12
101670.91
101669.28
101668.59
101669.8
101671.89
101673.66
101680.28
101693.82
101715.88
101674.48
101674.12
101673.72
101673.31
101672.87
101672.39
101671.87
101671.29
101670.65
101669.92
101669.08
101668.19
101667.54
101667.06
101666.94
101666.42
101665.27
101663.74
101661.4
101658.67
101655.87
101652.8
101648.1
101646.23
101648.04
101651.39
101658.74
101674.36
101694.97
101721.73
101712.58
100385.28
100367.54
100355.65
100344.38
100331.7
100323.35
100327.17
100345.13
100373.5
100416.97
100474.17
100542.93
100621
100705.59
100792.93
100886.37
100967.74
101055.11
101107.79
101152.34
101194.53
101225.02
101247.59
101260.85
101267.81
101266.07
101259.69
101247.75
101232.31
101226.47
101154.99
100399.47
100379.84
100354.83
100333.97
100318.4
100312.73
100322.05
100346.82
100384.1
100434.37
100496.17
100567.67
100646.85
100730.67
100816
100906.17
100985.27
101065.86
101109.84
101158.32
101199.8
101229.36
101251.09
101263.96
101270.13
101267.92
101261.34
101249.12
101233.65
101228.06
101156.61
100353.79
100323
100293.66
100276.09
100270.48
100277.03
100297.89
100333.59
100379.76
100437.36
100504.89
100580.46
100662.12
100746.74
100832.08
100920.67
101001.08
101075.19
101114.26
101165.4
101205.42
101233.92
101254.77
101267.12
101272.55
101269.86
101263.07
101250.55
101235.02
101229.64
101158.53
100280.12
100253.3
100232.25
100224.05
100228.16
100244.86
100275.51
100319.52
100373.63
100437.94
100510.69
100589.99
100674.03
100759.7
100846.14
100932.81
101014.43
101083.67
101120.97
101172.66
101211.01
101238.51
101258.5
101270.2
101275.02
101271.85
101264.84
101252
101236.43
101231.15
101160.61
100183.69
100166.35
100157.08
100161.96
100179.73
100209.84
100252.38
100306.09
100368.76
100439.81
100517.52
100600.26
100686.38
100773
100860.96
100945.63
101027
101092.15
101128.92
101179.94
101216.64
101243.15
101262.29
101273.26
101277.55
101273.92
101266.66
101253.5
101237.87
101232.59
101162.86
100068.55
100066.42
100074.41
100096.7
100130.84
100175.65
100230.6
100294.45
100365.59
100443.11
100525.48
100611.37
100699.31
100786.77
100876.33
100959.67
101038.77
101100.27
101137.23
101187.17
101222.28
101247.82
101266.12
101276.33
101280.13
101276.04
101268.52
101255.03
101239.32
101233.97
101165.25
99936.94
99957.511
99988.168
100030.9
100082.95
100143.06
100210.64
100284.7
100363.98
100447.56
100534.22
100622.95
100712.43
100800.62
100891.47
100973.96
101049.32
101107.53
101145.76
101194.32
101227.95
101252.53
101269.99
101279.48
101282.77
101278.22
101270.44
101256.6
101240.78
101235.31
101167.74
99802.544
99849.753
99904.822
99968.42
100038.39
100113.59
100193.45
100277.28
100364.1
100453.22
100543.72
100634.92
100725.64
100814.38
100905.69
100986.76
101060.35
101114.5
101154.48
101201.4
101233.63
101257.27
101273.89
101282.7
101285.46
101280.46
101272.4
101258.19
101242.27
101236.65
101170.33
99677.7
99751.213
99828.742
99911.791
99998.968
100088.55
100179.8
100272.59
100366.18
100460.2
100554.02
100647.3
100738.93
100828.28
100918.82
100998.83
101072.62
101121.64
101163.36
101208.4
101239.33
101262.03
101277.86
101285.99
101288.2
101282.74
101274.41
101259.82
101243.77
101238
101172.97
99566.405
99665.367
99762.933
99863.408
99966.684
100069.3
100170.37
100270.98
100370.37
100468.55
100565.12
100660.1
100752.54
100843.21
100931.89
101010.76
101084.29
101129.47
101172.31
101215.32
101245.05
101266.82
101281.95
101289.32
101290.98
101285.08
101276.45
101261.48
101245.28
101239.35
101175.65
99474.62
99593.142
99710.768
99827.493
99943.674
100056.82
100165.79
100272.79
100376.78
100478.33
100577.09
100673.51
100766.97
100857.78
100944.73
101023.38
101095.07
101138.04
101181.24
101222.17
101250.78
101271.64
101286.09
101292.7
101293.83
101287.47
101278.54
101263.17
101246.8
101240.69
101178.35
99410.579
99544.892
99676.427
99804.771
99929.691
100050.67
100166.95
100278.51
100385.68
100489.76
100590.24
100688.02
100782.79
100872.34
100956.31
101035.19
101105.2
101147.02
101190.09
101228.98
101256.51
101276.48
101290.19
101296.12
101296.77
101289.9
101280.67
101264.89
101248.33
101242.04
101181.04
99378.685
99522.64
99661.712
99796.486
99926.939
100052.59
100173.4
100288.74
100398.07
100503.68
100605.35
100703.78
100796.19
100884.09
100968.52
101047.71
101115.03
101156.25
101198.85
101235.75
101262.24
101281.33
101294.27
101299.57
101299.78
101292.37
101282.83
101266.64
101249.86
101243.42
101183.71
99378.225
99527.21
99667.878
99803.815
99935.903
100063.49
100186.88
100304.61
100415.28
100520.91
100621.8
100716.73
100807.67
100896.52
100981.23
101060.03
101124.74
101165.64
101207.48
101242.48
101267.96
101286.19
101298.39
101303.06
101302.82
101294.88
101285.02
101268.41
101251.42
101244.81
101186.35
99394.652
99549.824
99691.187
99826.234
99957.331
100084.47
100207.94
100324.2
100433.7
100536.47
100632.74
100727.39
100821.31
100909.08
100993.33
101071.26
101134.42
101175.16
101215.99
101249.16
101273.67
101291.05
101302.52
101306.58
101305.89
101297.43
101287.25
101270.2
101252.98
101246.22
101188.94
99423.475
99575.239
99718.106
99854.86
99985.485
100110.18
100229.79
100339.94
100444.21
100546.89
100647.06
100742.6
100835.55
100921.47
101004.77
101081.58
101144.14
101184.74
101224.32
101255.79
101279.34
101295.91
101306.67
101310.13
101309.03
101300.02
101289.5
101272.01
101254.56
101247.66
101191.48
99525.15
99648.804
99770.115
99892.983
100015.2
100133.3
100244.39
100353.76
100463.49
100566.53
100664.62
100758.74
100849.93
100933.72
101015.76
101091.86
101153.87
101194.31
101232.44
101262.35
101284.98
101300.76
101310.83
101313.71
101312.23
101302.64
101291.78
101273.85
101256.15
101249.11
101193.92
99687.867
99788.219
99881.312
99978.45
100080.23
100183.38
100284.62
100386.94
100490.4
100589.26
100683.53
100775.15
100864.45
100945.93
101026.51
101102.44
101163.57
101203.8
101240.38
101268.86
101290.58
101305.59
101314.99
101317.29
101315.47
101305.28
101294.08
101275.7
101257.75
101250.59
101196.21
99855.153
99936.916
100007.56
100082.16
100163.27
100248.69
100335.8
100426.69
100521.75
100613.88
100703.5
100791.97
100879.11
100958.18
101037.15
101113.13
101173.21
101213.15
101248.14
101275.29
101296.14
101310.4
101319.14
101320.87
101318.7
101307.95
101296.41
101277.58
101259.36
101252.09
101198.28
100041.02
100099.5
100145.15
100196.19
100255.79
100321.69
100392.19
100471.2
100556.64
100640.48
100724.56
100809.18
100893.81
100970.47
101047.71
101123.85
101182.81
101222.32
101255.74
101281.64
101301.62
101315.17
101323.27
101324.45
101321.88
101310.64
101298.75
101279.48
101260.99
101253.62
101199.99
100250.96
100281.2
100298.12
100322.57
100358.17
100401.96
100454.79
100521
100594.23
100669.45
100746.84
100826.78
100908.47
100982.75
101058.25
101134.94
101192.31
101231.17
101263.09
101287.85
101306.99
101319.86
101327.38
101328.02
101324.98
101313.35
101301.12
101281.4
101262.63
101255.19
101201.19
100484.72
100481.98
100467.68
100462.79
100471.66
100491.87
100527.56
100577.62
100636.02
100701.9
100771.52
100845.69
100923.72
100995.38
101069.1
101145.38
101201.32
101239.27
101270.05
101293.85
101312.21
101324.46
101331.43
101331.58
101328.04
101316.07
101303.5
101283.32
101264.26
101256.79
101201.98
100750.63
100714.88
100671.02
100632.9
100611.43
100607.23
100619.71
100647.6
100689.02
100742.43
100802.2
100868.84
100941.69
101009.7
101080.88
101153.27
101209.21
101246.2
101276.6
101299.68
101317.33
101328.98
101335.45
101335.11
101331.15
101318.77
101305.86
101285.22
101265.86
101258.37
101202.65
101026.69
100975.54
100921.03
100857.65
100800.63
100760.95
100742.03
100742.83
100761.97
100795.89
100842.1
100898.58
100964.1
101027.41
101094.64
101161.5
101216.87
101252.84
101283.37
101305.7
101322.54
101333.55
101339.46
101338.6
101334.28
101321.4
101308.18
101287.07
101267.43
101259.9
101203.87
100433.38
100424.95
100411.73
100399.2
100388.1
100381.14
100382.44
100394.92
100417.29
100454.29
100504.86
100567.28
100639.4
100718.52
100800.3
100886.96
100963.45
101041.33
101100.5
101145.38
101189.5
101221.06
101244.41
101258.1
101265.71
101264.43
101258.23
101246.57
101231.2
101224.83
101153.34
100443.59
100439.03
100427.57
100414.71
100403.72
100397.91
100399.63
100408.14
100428.29
100462.58
100510.22
100569.85
100639.53
100716.82
100797.57
100882.98
100962.6
101036.33
101098.86
101142.56
101186.62
101218.4
101242.06
101256
101263.91
101262.89
101256.85
101245.41
101230.18
101223.12
101151.61
100436.67
100433.69
100426.26
100418.24
100411.81
100408.75
100411.83
100421.01
100440.95
100473.55
100518.77
100575.75
100642.84
100717.88
100797.14
100880.51
100961.24
101034.42
101096.71
101140.03
101184.08
101215.97
101239.8
101253.99
101262.03
101261.17
101255.35
101244.12
101229.08
101221.32
101149.63
100430.82
100428.68
100425.65
100422.42
100420.06
100420.2
100425.19
100436.08
100456.19
100487.37
100530.27
100584.5
100648.75
100721.14
100798.37
100878.96
100959.22
101032.42
101093.65
101137
101181.29
101213.38
101237.4
101251.87
101260.02
101259.31
101253.76
101242.76
101227.91
101219.69
101147.74
100427.47
100427.76
100427.85
100427.92
100428.59
100431.53
100438.6
100451.14
100471.59
100501.75
100542.65
100594.3
100655.76
100725.4
100800.37
100877.93
100957.33
101030.2
101090.5
101133.59
101178.23
101210.56
101234.81
101249.56
101257.89
101257.38
101252.09
101241.33
100424.19
100426.67
100429.47
100432.34
100435.94
100441.64
100450.96
100465.18
100486.24
100515.82
100555.14
100429.78
100429.12
100426.94
100424.1
100420.41
100421.23
100431.15
101387.76
101384.17
100411.6
100415.1
100416.21
100404.46
100411.48
100410.6
100407.39
100404.04
100402.19
100397.92
100404.13
100396.11
100382.94
100374.35
100366.62
100337.02
100361.58
100338.7
100315.97
100301.73
100293.76
100170.28
100219.3
100199.81
100182.19
100180.28
100186.19
99905.2
99982.716
99990.448
100003.43
100027.8
100054.31
99562.042
99704.448
99746.608
99794.148
99848.683
99899.688
99213.348
99417.921
99497.184
99579.599
99664.477
99739.894
98904.892
99165.695
99269.617
99371.916
99483.426
99586.542
98639.338
98945.944
99065.084
99191.436
99326.327
99451.133
98396.399
98774.516
98904.386
99046.317
99199.459
99342.675
98157.421
98649.205
98793.999
98946.656
99110.884
99266.912
97994.092
98553.133
98732.892
98898.458
99067.385
99230.165
97969.114
98462.141
98685.051
98880.643
99059.118
99228.18
98096.736
98492.891
98651.195
98846.489
99044.913
99237.315
98258.862
98681.286
98785.218
98924.992
99090.899
99281.18
98457.536
98812.562
98933.848
99127.185
99298.486
99437.138
98621.932
98977.066
99132.917
99296.369
99458.164
99612.904
98860.879
99197.258
99347.82
99499.025
99649.563
99797.88
99147.384
99462.549
99608.345
99741.238
99875.377
100011.86
99479.86
99771.259
99907.108
100020.2
100135.33
100256.13
99851.756
100117.47
100238.99
100330.51
100424.85
100527.89
100492.78
100598.89
100669.94
100744.88
100832.07
100977.17
101027.83
101079.02
101140.1
101560.49
101667.59
101760.82
101846.46
101918.98
101973.26
102006.53
102023.92
102029.2
102020.23
102007.73
102022.74
102063.82
102051.13
102112.68
102103.9
102139.59
102135.01
102123.74
102117.3
102108.72
102102.71
102070.97
102066.99
102034.57
102031.42
101996.24
101994
101960.4
101958.69
101923.92
101922.7
101890.85
101889.97
101857.19
101856.63
101826.81
101826.41
101795.87
101795.61
101767.73
101767.6
101737.19
101737.16
101709.37
101709.29
101691.91
101691.67
101675.01
101674.72
)
;

boundaryField
{
    Side1
    {
        type            empty;
    }
    Inlet
    {
        type            totalPressure;
        rho             rho;
        psi             none;
        gamma           1;
        p0              uniform 102920.87;
        value           nonuniform List<scalar> 
92
(
101309.03
101309.13
101309.26
101309.41
101309.56
101309.72
101309.88
101310.05
101310.22
101310.4
101310.57
101310.74
101310.89
101310.99
101311.05
101311.1
101311
101310.83
101313.77
101295.83
102920.87
102920.87
101303.16
102920.87
101312.62
102920.87
101345.48
101348.39
101359.55
102920.87
101328.54
101328.54
101328.54
101328.54
101328.54
101328.54
101328.54
101328.54
101328.54
101328.54
101328.54
101328.54
101328.54
101328.54
101328.54
101328.54
101328.54
101328.54
101328.54
101328.54
101328.54
101328.54
101328.54
101328.54
101328.54
101328.54
101328.54
101328.54
101328.54
101328.54
101351.72
101328.54
101304.71
101305.02
101305.39
101305.76
101306.12
101306.45
101306.75
101307.04
101307.3
101307.53
101307.74
101307.92
101308.08
101308.21
101308.34
101308.45
101308.57
101308.67
101308.77
101308.85
101308.91
101308.95
101308.97
101309.01
101304.47
101304.31
101304.13
101303.94
101328.54
101328.54
)
;
    }
    Side2
    {
        type            empty;
    }
    Outlet
    {
        type            freestreamPressure;
        freestreamValue nonuniform List<scalar> 0();
        value           nonuniform List<scalar> 0();
    }
    Botwall
    {
        type            zeroGradient;
    }
    Cyli
    {
        type            zeroGradient;
    }
    procBoundary2to0
    {
        type            processor;
        value           nonuniform List<scalar> 
55
(
100426.98
100423.54
100420.89
100416.95
100411.69
100422.54
100432.31
100412.3
100414.7
100414.7
101362.37
101385.75
101385.75
101729.14
101689.07
100411.1
100411.1
100406.43
100406.43
100259.88
100259.88
100888.28
100888.28
101804.72
101855.17
101920.32
101978.99
102021.83
102048.68
102062.91
102065.71
102055.33
102038.01
102025.61
102032.36
102032.36
102089.02
102133.18
102152.08
102133.23
102115.4
102075.12
102037.89
101998.57
101962.21
101925.19
101891.78
101857.77
101827.24
101796.11
101767.86
101737.22
101709.45
101692.15
101675.31
)
;
    }
    procBoundary2to3
    {
        type            processor;
        value           nonuniform List<scalar> 
35
(
101226.69
101218.22
101145.94
100604.5
100663.32
100730.25
100802.85
100877.64
100956.13
101027.97
101088.02
101130.08
101175.04
101207.59
101232.07
101247.11
101255.65
101255.37
101250.32
101226.69
101239.83
100419.99
100415.77
100424.71
100429.83
100435.41
100441.99
100450.56
100462.28
100478.33
100500.28
100529.68
100604.5
100567.78
100415.77
)
;
    }
}


// ************************************************************************* //
