/*--------------------------------*- C++ -*----------------------------------*\
| =========                 |                                                 |
| \\      /  F ield         | OpenFOAM: The Open Source CFD Toolbox           |
|  \\    /   O peration     | Version:  2406                                  |
|   \\  /    A nd           | Website:  www.openfoam.com                      |
|    \\/     M anipulation  |                                                 |
\*---------------------------------------------------------------------------*/
FoamFile
{
    version     2.0;
    format      ascii;
    arch        "LSB;label=32;scalar=64";
    class       surfaceScalarField;
    location    "0.01";
    object      phi;
}
// * * * * * * * * * * * * * * * * * * * * * * * * * * * * * * * * * * * * * //

dimensions      [1 0 -1 0 0 0 0];

oriented        oriented;

internalField   nonuniform List<scalar> 
16284
(
0.01143134
-0.016012061
0.016506515
-0.011925777
0.010941796
-0.018806343
0.019295904
0.010428166
-0.022011751
0.022525396
0.0098938981
-0.025714349
0.026248631
0.0093464681
-0.029989165
0.030536608
0.0087972958
-0.03490718
0.035456362
0.0082606898
-0.040549701
0.041086315
0.0077474964
-0.047013396
0.047526597
0.0072646862
-0.054428441
0.054911258
0.006815238
-0.062949079
0.063398535
0.0063998568
-0.072718749
0.073134143
0.0060142298
-0.083922838
0.084308487
0.0056482341
-0.096748609
0.097114638
0.0052860421
-0.11138277
0.11174501
0.0049046967
-0.12770672
0.12808811
0.0044354908
-0.14547328
0.14594253
0.0038180438
-0.16372967
0.16434708
0.0032016396
-0.18240992
0.18302619
0.0027475135
-0.20457349
0.20502743
0.0023780529
-0.23057075
0.23094001
0.0020457568
-0.26003735
0.26036941
0.0017461047
-0.29345724
0.29375656
0.0014723709
-0.33114538
0.33141863
0.0012190747
-0.37388045
0.37413304
0.00098017681
-0.42231599
0.42255389
0.00075654024
-0.47743838
0.47766058
0.00054174093
-0.53955072
0.53976398
0.00034268611
-0.61090246
0.61110222
0.00014091619
-0.69059092
0.69079775
-1.2288415e-05
-0.78032014
0.78047135
-0.84386803
0.843952
0.012669081
-0.01557939
-0.013101733
0.012182744
-0.018319986
0.011666014
-0.021495003
0.011123042
-0.025171361
0.010559141
-0.029425251
0.0099848819
-0.034332909
0.0094135163
-0.039978324
0.0088583452
-0.046458213
0.0083273143
-0.053897399
0.0078245206
-0.062446273
0.0073530097
-0.07224722
0.0069100001
-0.083479801
0.0064860346
-0.096324604
0.0060600611
-0.11095675
0.0056072245
-0.12725384
0.00504867
-0.14491468
0.0043218443
-0.16300289
0.0036222344
-0.18171047
0.0031151532
-0.20406661
0.0026974893
-0.23015332
0.002321077
-0.25966121
0.0019812761
-0.29311783
0.0016712731
-0.33083593
0.0013836021
-0.37359357
0.0011128307
-0.42204632
0.000858132
-0.47718527
0.00061504386
-0.53930932
0.00038704819
-0.61067362
0.0001593386
-0.69035738
-1.5490287e-05
-0.78014987
-0.84378882
0.013901206
-0.015201404
-0.014279173
0.013459584
-0.017878344
0.012968867
-0.021004269
0.012437981
-0.024640458
0.011874262
-0.028861519
0.011288102
-0.033746738
0.010692452
-0.039382663
0.010101823
-0.045867572
0.0095265742
-0.053322137
0.0089710964
-0.061890782
0.0084413357
-0.07171744
0.0079359485
-0.082974383
0.0074463473
-0.095834958
0.0069470354
-0.11045738
0.0064094981
-0.12671624
0.0057414684
-0.14424661
0.0048889089
-0.1621504
0.0041076854
-0.18092942
0.0035453257
-0.20350448
0.0030721235
-0.22968036
0.0026442994
-0.25923369
0.0022572427
-0.2927312
0.0019045152
-0.33048383
0.0015762287
-0.37326618
0.0012680207
-0.42173935
0.00097674128
-0.47689576
0.00070095213
-0.53903538
0.00043848404
-0.61041009
0.0001810372
-0.69009338
-2.0033955e-05
-0.77995525
-0.84370676
0.015144838
-0.014887819
-0.015458406
0.014765302
-0.017498792
0.014324252
-0.020563204
0.01382841
-0.024144602
0.013285287
-0.028318385
0.012704815
-0.033166257
0.012099645
-0.038777486
0.011484416
-0.045252334
0.010871304
-0.052709015
0.01026683
-0.061286296
0.0096784505
-0.071129041
0.0091065912
-0.08240249
0.0085434992
-0.095271815
0.0079599466
-0.10987376
0.0073210718
-0.12607731
0.0065193239
-0.14344482
0.0055223596
-0.16115352
0.0046586752
-0.18006593
0.0040322368
-0.20287828
0.0034949895
-0.22914338
0.0030088575
-0.25874789
0.0025682855
-0.29229111
0.0021675672
-0.33008383
0.0017933661
-0.372893
0.0014431726
-0.42139052
0.0011101185
-0.47656465
0.00079817583
-0.53872545
0.00049523721
-0.61010592
0.00020517856
-0.68979653
-2.6414215e-05
-0.77973203
-0.84361446
0.016395363
-0.014648272
-0.016634898
0.016090041
-0.017193458
0.015717092
-0.020190244
0.01527845
-0.023705953
0.014778734
-0.027818662
0.014225666
-0.032613185
0.013630314
-0.038182132
0.01300633
-0.044628347
0.012366662
-0.052069341
0.011720304
-0.060639926
0.011075712
-0.070484427
0.01043495
-0.08176169
0.0097908288
-0.094627635
0.009110658
-0.10919353
0.0083495725
-0.12531617
0.0073843813
-0.14247959
0.0062244904
-0.15999372
0.0052835399
-0.17912518
0.0045850344
-0.20218003
0.0039763199
-0.22853495
0.0034249676
-0.25819691
0.0029239177
-0.2917906
0.0024688364
-0.32962956
0.0020420406
-0.37246735
0.0016439976
-0.420994
0.0012626277
-0.47618542
0.00090991049
-0.53837493
0.00056006116
-0.60975493
0.00023246542
-0.68946306
-3.2802023e-05
-0.77947539
-0.84350394
0.017641052
-0.014490928
-0.017798393
0.017421338
-0.016973741
0.017132464
-0.019901368
0.016771371
-0.023344861
0.016338063
-0.027385356
0.015836216
-0.032111341
0.015273547
-0.037619467
0.014661233
-0.044016036
0.014011509
-0.051419616
0.013334669
-0.059963076
0.012639802
-0.069789536
0.011930038
-0.081051881
0.011198076
-0.093895606
0.010406995
-0.10840237
0.0094972106
-0.12440632
0.0083329878
-0.14131534
0.0069990783
-0.15865991
0.0059907619
-0.17811708
0.0052105422
-0.20140008
0.0045213442
-0.22784606
0.0038968139
-0.25757278
0.0033275658
-0.29122196
0.0028111098
-0.32911403
0.0023245728
-0.37198212
0.0018722862
-0.42054341
0.0014357592
-0.47575124
0.001036998
-0.53797856
0.00063405681
-0.60935092
0.00026290275
-0.68908714
-4.0043512e-05
-0.7791809
-0.84337099
0.01887875
-0.01442145
-0.018948235
0.018752624
-0.016847625
0.018560295
-0.01970905
0.018293571
-0.023078149
0.017947161
-0.027038961
0.017519603
-0.031683798
0.01701371
-0.03711359
0.016436398
-0.043438737
0.01579717
-0.050780394
0.015105578
-0.059271478
0.014370143
-0.069054077
0.013593866
-0.080275553
0.012767886
-0.09306955
0.01184846
-0.10748286
0.010755726
-0.12331353
0.0093525302
-0.13991213
0.0078542699
-0.15716176
0.0067871887
-0.17705022
0.0059165613
-0.20052974
0.0051377822
-0.2270676
0.0044319904
-0.25686742
0.0037866767
-0.29057731
0.0032010394
-0.32852946
0.0026468141
-0.37142938
0.0021326692
-0.42003113
0.0016331947
-0.47525433
0.001182014
-0.53752998
0.00071934514
-0.60888708
0.00029687087
-0.68865893
-4.9719002e-05
-0.77884249
-0.84320914
0.020123753
-0.014439699
-0.020105524
0.020093273
-0.01681717
0.020001784
-0.019617589
0.01983822
-0.022914615
0.019592755
-0.026793526
0.019258189
-0.031349264
0.018831055
-0.036686487
0.018312124
-0.042919832
0.017705784
-0.05017407
0.017018129
-0.058583824
0.016254854
-0.068290778
0.015416508
-0.079437152
0.014489802
-0.092142759
0.013418852
-0.10641183
0.012097794
-0.1219924
0.010422323
-0.13823667
0.0088050403
-0.1555446
0.0076765264
-0.17592191
0.0067095319
-0.19956304
0.0058320939
-0.22619049
0.0050363556
-0.25607213
0.0043068779
-0.28984858
0.0036434588
-0.32786725
0.0030131139
-0.37080071
0.0024283393
-0.41944842
0.0018577358
-0.47468651
0.0013467592
-0.53702179
0.00081721873
-0.60835592
0.00033472666
-0.68817039
-6.016402e-05
-0.77845539
-0.8430258
0.021386365
-0.014537904
-0.021288198
0.021447085
-0.016877935
0.021455745
-0.019626298
0.0213983
-0.022857223
0.021261295
-0.026656576
0.021032057
-0.031120081
0.020700377
-0.036354859
0.020259647
-0.042479148
0.01970699
-0.049621446
0.019042007
-0.057918854
0.018264243
-0.067512997
0.017367895
-0.078540748
0.016329787
-0.09110456
0.015073264
-0.10515521
0.013458224
-0.12037731
0.011520615
-0.13629908
0.0098716232
-0.15389572
0.0086632216
-0.1747137
0.0075940517
-0.19849416
0.0066107221
-0.22520749
0.0057165472
-0.25517844
0.0048951827
-0.28902804
0.0041449414
-0.3271184
0.0034295892
-0.37008726
0.0027638956
-0.41878501
0.0021137194
-0.47403936
0.0015338855
-0.53644491
0.00093037103
-0.60774993
0.00037818867
-0.68761249
-7.1234181e-05
-0.77801296
-0.84282898
0.022683643
-0.014703042
-0.022518571
0.022822189
-0.017016553
0.022922156
-0.019726343
0.02296638
-0.022901529
0.022936738
-0.026627017
0.022815599
-0.030999027
0.022586633
-0.036125975
0.022235631
-0.042128219
0.021750914
-0.049136789
0.021122523
-0.057290496
0.020339446
-0.066729917
0.019383195
-0.077584448
0.018210761
-0.089932037
0.01671583
-0.10366019
0.014745777
-0.11840721
0.01264589
-0.13419922
0.011044512
-0.15229443
0.0097496066
-0.17341895
0.0085713399
-0.19731617
0.0074781729
-0.22411465
0.0064775027
-0.25417827
0.0055569045
-0.28810835
0.0047107774
-0.32627385
0.0039013201
-0.36927997
0.0031431327
-0.41802935
0.0024049302
-0.47330444
0.001745568
-0.53578863
0.0010597027
-0.60706075
0.0004284478
-0.68697598
-8.5697624e-05
-0.7775027
-0.84261583
0.024027374
-0.014931758
-0.023798758
0.024235499
-0.017224789
0.024408892
-0.019899853
0.024534129
-0.023026885
0.024593111
-0.026686122
0.024565734
-0.030971776
0.024430781
-0.035991146
0.024166544
-0.041864099
0.023751102
-0.048721445
0.023161436
-0.0567009
0.022369815
-0.065938324
0.021334677
-0.076549284
0.019968991
-0.088566279
0.018169355
-0.10186049
0.015911912
-0.11614974
0.013825852
-0.13211318
0.01229618
-0.1507648
0.010933645
-0.17205654
0.0096383114
-0.19602111
0.0084387359
-0.22291539
0.0073236389
-0.2530637
0.0062970216
-0.28708274
0.0053463509
-0.32532495
0.0044338355
-0.36836989
0.0035707647
-0.41716908
0.002735785
-0.47247305
0.0019847737
-0.53504079
0.0012065016
-0.60627837
0.00048504999
-0.68624912
-9.934244e-05
-0.77691764
-0.8424027
0.025303945
-0.015200794
-0.025035047
0.025560344
-0.017481337
0.025790406
-0.020130082
0.025978571
-0.023215231
0.026106749
-0.026814484
0.02615379
-0.031019005
0.026094938
-0.035932479
0.025901453
-0.041670791
0.025540224
-0.048360374
0.024971793
-0.056132594
0.024143301
-0.065109908
0.022975599
-0.075381597
0.021331569
-0.086922222
0.019146756
-0.099675649
0.016932445
-0.11393542
0.015192147
-0.13037287
0.013646696
-0.14921934
0.012178697
-0.17058865
0.010795524
-0.19463824
0.0094657005
-0.22158591
0.0082547917
-0.25185335
0.0071187016
-0.28594777
0.0060550861
-0.32426333
0.0050306156
-0.36734815
0.0040505285
-0.41619209
0.0031098111
-0.47153629
0.0022539742
-0.5341882
0.0013740504
-0.60539313
0.00055024174
-0.68541815
-0.00011233862
-0.77624898
-0.84222045
0.02630736
-0.015475577
-0.026032781
0.026576761
-0.01775095
0.02683097
-0.020384509
0.027051146
-0.023435639
0.027216976
-0.026980558
0.027305372
-0.031107654
0.027286955
-0.035914318
0.027124151
-0.041508236
0.026769793
-0.048006249
0.026163841
-0.055526845
0.025221159
-0.064167383
0.023834149
-0.073994689
0.02197839
-0.085066529
0.019886682
-0.09758398
0.018030693
-0.11207941
0.016451213
-0.12879332
0.014978671
-0.14774674
0.013503291
-0.1691134
0.012040408
-0.19317575
0.010617561
-0.22016347
0.009257748
-0.25049416
0.0080272757
-0.28471853
0.0068402376
-0.3230785
0.0056941805
-0.36620514
0.0045863014
-0.41508761
0.0035306662
-0.47048509
0.00255612
-0.53321699
0.0015650293
-0.60439502
0.00062576044
-0.68446759
-0.00012847736
-0.77548295
-0.84209739
0.026573378
-0.015713986
-0.026335225
0.026799216
-0.017977058
0.027008312
-0.020593893
0.027197266
-0.023624901
0.027346507
-0.027130127
0.027423414
-0.031184907
0.027387013
-0.035878273
0.027190169
-0.041311751
0.026773246
-0.047589678
0.026065277
-0.054819209
0.025007265
-0.063109676
0.023607491
-0.07259518
0.022048532
-0.083507783
0.020625053
-0.096160607
0.019309371
-0.1107637
0.017913337
-0.12739719
0.016402896
-0.14623621
0.014851258
-0.16756192
0.013308764
-0.1916338
0.011809835
-0.21866516
0.010386538
-0.2490717
0.0090031045
-0.28333643
0.0076940679
-0.32177166
0.0064255016
-0.36494004
0.005183683
-0.41384948
0.0040008177
-0.46930727
0.0028932379
-0.53211296
0.0017813889
-0.60327399
0.00071401424
-0.68338107
-0.0001444847
-0.77460741
-0.8421422
0.025310102
-0.015971325
-0.025053151
0.025547687
-0.018215064
0.025740131
-0.02078678
0.025863891
-0.023749117
0.025909486
-0.027176192
0.025871146
-0.031147054
0.025744092
-0.03575172
0.025527437
-0.041095617
0.025181285
-0.047244064
0.024678123
-0.054316576
0.024040186
-0.062472239
0.023297117
-0.071852572
0.022506046
-0.082717093
0.021604171
-0.095258985
0.020464786
-0.10962444
0.019135096
-0.12606747
0.017704384
-0.1448054
0.016190407
-0.16604808
0.014640672
-0.19008474
0.013065317
-0.21709075
0.011540385
-0.24754837
0.010087712
-0.28188462
0.0086222839
-0.32030812
0.0072272216
-0.36354925
0.0058465248
-0.41247278
0.0045231195
-0.4679898
0.0032675724
-0.53086146
0.0020242173
-0.60201929
0.00081640588
-0.68214168
-0.00016209938
-0.77360846
-0.84257706
0.022840634
-0.016316624
-0.022495843
0.023214546
-0.018589536
0.023613859
-0.021186709
0.024016753
-0.024152686
0.024390004
-0.027550174
0.024679272
-0.031437107
0.024802143
-0.035875425
0.024718965
-0.041013298
0.024482539
-0.047008503
0.024154027
-0.053988911
0.02383127
-0.06215029
0.023494575
-0.071516633
0.023045158
-0.082268362
0.022353243
-0.094567665
0.021451108
-0.1087228
0.020341649
-0.12495834
0.019001738
-0.1434656
0.017496018
-0.16454251
0.015929941
-0.18851939
0.014335601
-0.21549767
0.012759701
-0.24597383
0.011200829
-0.28032723
0.0096423689
-0.3187527
0.0080856002
-0.36199602
0.006571073
-0.41096258
0.0050991581
-0.46652508
0.0036795978
-0.52944692
0.0022930411
-0.60062027
0.00093217019
-0.68073256
-0.00020257537
-0.77244797
-0.8415706
0.020395007
-0.016598995
-0.020113334
0.020703053
-0.018898356
0.021037866
-0.021522378
0.021405434
-0.024521192
0.021811738
-0.027957499
0.022278801
-0.031905277
0.022845984
-0.0364438
0.023418897
-0.04158749
0.023886933
-0.047477892
0.024098518
-0.054201906
0.023939701
-0.061992913
0.023595527
-0.071173894
0.023213337
-0.081887525
0.022768188
-0.094123832
0.02211491
-0.10807074
0.021192726
-0.12403726
0.020048166
-0.14232179
0.018683912
-0.16317867
0.01719561
-0.1870321
0.015599895
-0.21390355
0.01397516
-0.2443509
0.012375107
-0.27872931
0.010680215
-0.31706058
0.0090061798
-0.36032516
0.0073517392
-0.40931303
0.0057292518
-0.46491112
0.0041277307
-0.52785212
0.0025865343
-0.59906782
0.0010627106
-0.67914241
-0.00023369442
-0.77109016
-0.84128497
0.019932457
-0.016860438
-0.019671986
0.020212682
-0.019179664
0.020514277
-0.021825178
0.02083776
-0.024846009
0.021178048
-0.028299259
0.021522523
-0.032251365
0.021854418
-0.036777452
0.022212935
-0.04194791
0.022603706
-0.047870716
0.023155754
-0.054756176
0.023699527
-0.062539086
0.023804313
-0.071281235
0.023439404
-0.081525221
0.022962981
-0.093649954
0.022441992
-0.10755234
0.021806922
-0.12340472
0.020919781
-0.14143668
0.019736053
-0.16199615
0.018314473
-0.18561239
0.016782339
-0.21237383
0.015180603
-0.24275166
0.013485025
-0.27703652
0.011766852
-0.31534485
0.0099893884
-0.3585507
0.0081709645
-0.40749981
0.0063936301
-0.46314292
0.0046006235
-0.52606872
0.002902003
-0.59736215
0.0012059584
-0.67736552
-0.00025055496
-0.76953154
-0.84084213
0.018901684
-0.017121617
-0.018641867
0.019186667
-0.019466173
0.019496592
-0.022136813
0.019828972
-0.025180296
0.020177517
-0.028649925
0.020530603
-0.032606802
0.020872661
-0.037122107
0.021207365
-0.042285474
0.021535527
-0.048202017
0.021738283
-0.054962355
0.021947639
-0.062752156
0.022513746
-0.071851364
0.022999013
-0.082014838
0.022875874
-0.093531373
0.022508985
-0.10719009
0.021981967
-0.12288269
0.021321862
-0.14078115
0.020459063
-0.16113656
0.019249671
-0.18440628
0.017829647
-0.21095796
0.016304331
-0.24123039
0.014599038
-0.27533484
0.012786339
-0.31353425
0.010938253
-0.35670486
0.0089991454
-0.40556602
0.0071139227
-0.46126778
0.0051266603
-0.52409359
0.0032217048
-0.59545581
0.001352708
-0.67541064
-0.00022273737
-0.76782287
-0.83968426
0.018299502
-0.017359658
-0.018063357
0.018559195
-0.019727998
0.018843898
-0.022423911
0.019154994
-0.025494079
0.019494623
-0.028992559
0.019866244
-0.032981778
0.020273594
-0.037533195
0.020711672
-0.042727703
0.021163276
-0.048658217
0.021631548
-0.055435696
0.022043211
-0.063169388
0.02216255
-0.071976788
0.022319335
-0.082178316
0.022597023
-0.093816496
0.022380326
-0.10698136
0.021965839
-0.1224769
0.021446821
-0.14027117
0.020823737
-0.16052168
0.019852849
-0.18344123
0.018613748
-0.20972548
0.017233949
-0.23985782
0.015539666
-0.27364568
0.01373787
-0.31173491
0.011889981
-0.35485822
0.0098616814
-0.40354214
0.0077838516
-0.45920011
0.0056620108
-0.52198585
0.0035548024
-0.59335309
0.0014900564
-0.67326541
-8.3885653e-05
-0.76606719
-0.8401085
0.017033503
-0.017587484
-0.016808284
0.0172828
-0.019980239
0.017556946
-0.02270138
0.017856049
-0.025796923
0.018178611
-0.029319328
0.018520547
-0.033328437
0.018875287
-0.037893228
0.019235867
-0.043094207
0.019596778
-0.049025744
0.019952124
-0.055798418
0.020319742
-0.06354521
0.020750566
-0.07241671
0.021073316
-0.08251108
0.021432091
-0.094186196
0.021818669
-0.10737999
0.021579803
-0.12225106
0.021144494
-0.1398512
0.020663872
-0.16005737
0.02003121
-0.18282201
0.019094959
-0.20880009
0.017862648
-0.23863747
0.016306618
-0.27209799
0.01455207
-0.30998413
0.012721236
-0.35302803
0.010655108
-0.40147832
0.0084703503
-0.45702452
0.0061988479
-0.51972986
0.0038646756
-0.59102923
0.0015895029
-0.67092632
-0.0002818015
-0.76397703
-0.83996057
0.016158868
-0.017797671
-0.015952195
0.016388429
-0.020213773
0.016642886
-0.022960332
0.016924074
-0.02608319
0.017233902
-0.029634891
0.017574615
-0.03367562
0.017948405
-0.038274308
0.01835554
-0.043509546
0.01879127
-0.049470687
0.019241828
-0.056259303
0.019675619
-0.063990543
0.020047745
-0.072801707
0.020409432
-0.082887103
0.020560108
-0.094352854
0.020744766
-0.10758237
0.021122292
-0.12264748
0.020852589
-0.13960172
0.020319806
-0.15954905
0.019822715
-0.18234946
0.019179286
-0.20817692
0.018126841
-0.23760274
0.016767671
-0.27075261
0.015144081
-0.30836763
0.013371506
-0.35125615
0.011391142
-0.39949755
0.0090657576
-0.45470523
0.0067028588
-0.51738256
0.0041966022
-0.58853893
0.0016974177
-0.66839263
-0.00045502336
-0.76167829
-0.83866195
0.014556328
-0.017993176
-0.014365323
0.014769038
-0.020431587
0.015004801
-0.023201877
0.015264758
-0.026349695
0.015549491
-0.029927035
0.015858381
-0.033992893
0.016189291
-0.038614696
0.016539184
-0.043870145
0.01690496
-0.049848542
0.017285848
-0.056653794
0.017686148
-0.064406126
0.018108254
-0.07324093
0.01850593
-0.083303881
0.018959545
-0.094827691
0.019277371
-0.10792356
0.019573759
-0.12296999
0.020015588
-0.14007057
0.019786138
-0.1593478
0.019356343
-0.18195236
0.018866104
-0.20771854
0.01800959
-0.23677162
0.01684944
-0.26961169
0.015488841
-0.30701989
0.013779872
-0.34954884
0.011884574
-0.39759846
0.0095861801
-0.45240588
0.0071336091
-0.51493911
0.0045077999
-0.58592632
0.001797405
-0.66568806
-0.00067244256
-0.75912352
-0.8367679
0.013524599
-0.018168405
-0.013354889
0.013713971
-0.020627208
0.013924961
-0.023419949
0.014159459
-0.026592213
0.01441948
-0.030196128
0.014707522
-0.03429119
0.015026603
-0.038945368
0.015379472
-0.044236125
0.015767307
-0.050251202
0.016186823
-0.057090052
0.01662836
-0.064866527
0.017080009
-0.073713764
0.017540601
-0.08378814
0.017924971
-0.095238278
0.018300119
-0.10832741
0.018547271
-0.12324816
0.018789208
-0.14034695
0.01913851
-0.15973237
0.01889759
-0.18174723
0.018290863
-0.20714755
0.017516001
-0.23602501
0.016592346
-0.26870943
0.015380169
-0.30582167
0.013870621
-0.34804075
0.012130715
-0.39584834
0.0099044274
-0.45016702
0.0074103417
-0.51243886
0.0047324219
-0.58323792
0.0018286784
-0.66282067
-0.00078268336
-0.75638433
-0.83591246
0.011700955
-0.018322614
-0.01155317
0.011866241
-0.020799779
0.01205043
-0.023612381
0.012254878
-0.026805983
0.012480499
-0.030432293
0.012727804
-0.034550423
0.012996656
-0.039227702
0.013285875
-0.044540555
0.013594357
-0.050576817
0.013922857
-0.057437826
0.014274062
-0.065239372
0.014648629
-0.074112532
0.01503933
-0.084205754
0.015476137
-0.095704786
0.015898039
-0.10878178
0.016306499
-0.12369146
0.01658981
-0.14066658
0.016933785
-0.16011331
0.017271499
-0.18212166
0.017106496
-0.20701303
0.01647974
-0.23541412
0.01581512
-0.26805498
0.014849395
-0.30485671
0.013539664
-0.34672096
0.011922699
-0.39420278
0.0099464026
-0.44815682
0.0074536648
-0.50992065
0.0047535037
-0.58049234
0.0016996046
-0.65980802
-0.0011270492
-0.75340913
-0.83476546
0.010599811
-0.018448119
-0.010481729
0.010732038
-0.020940381
0.010880112
-0.023769914
0.011045789
-0.026982337
0.011231206
-0.030629756
0.01143866
-0.034771451
0.011670664
-0.039474974
0.011930296
-0.044817321
0.012220458
-0.050886151
0.012542187
-0.057780934
0.012893109
-0.065614034
0.013266764
-0.074512378
0.013651105
-0.084618735
0.014005677
-0.09609028
0.014319165
-0.10912799
0.014527414
-0.12393325
0.01463019
-0.14080132
0.014493394
-0.16000369
0.014255937
-0.18190095
0.014291325
-0.20705655
0.014475928
-0.23560034
0.014260956
-0.26781747
0.01373496
-0.30429593
0.012650562
-0.34559214
0.011280171
-0.39276468
0.009558255
-0.44635817
0.0071865808
-0.50749423
0.0045224787
-0.57774113
0.0015890514
-0.6567881
-0.0016038657
-0.75025469
-0.8334752
0.0086019379
-0.018555745
-0.0085031474
0.0087135673
-0.021061911
0.0088391689
-0.023906621
0.0089800656
-0.027135665
0.0091374509
-0.030801031
0.0093122575
-0.03496174
0.009504898
-0.039684826
0.0097149761
-0.045046467
0.0099410133
-0.051133226
0.010180143
-0.058043149
0.010429374
-0.065888433
0.010686504
-0.074796762
0.010953096
-0.08491462
0.011242095
-0.09641043
0.011560328
-0.10947857
0.011949673
-0.12435394
0.012386554
-0.14126303
0.012871541
-0.16049681
0.013262525
-0.18226259
0.013140725
-0.20689613
0.012656234
-0.23509732
0.012318684
-0.26740893
0.011856198
-0.3037343
0.01109535
-0.34472472
0.010087553
-0.39162835
0.0086042691
-0.44473106
0.0064631283
-0.50524429
0.0040448831
-0.5752222
0.0013272026
-0.65385483
-0.002174636
-0.74669962
-0.83278819
0.0072450699
-0.018624251
-0.007185353
0.0073119638
-0.02113862
0.007386538
-0.02399212
0.0074695849
-0.027230844
0.0075619621
-0.030906845
0.0076646481
-0.035079255
0.0077788069
-0.039815282
0.0079058084
-0.045191285
0.0080473634
-0.051294132
0.0082063275
-0.058222931
0.008386771
-0.066090833
0.0085941092
-0.075026501
0.0088355081
-0.085177728
0.0091142829
-0.096708319
0.0094208496
-0.10979882
0.0097183612
-0.12465702
0.0099978387
-0.14153872
0.010199714
-0.16068551
0.010313162
-0.18236028
0.010447863
-0.20697514
0.010313259
-0.23484201
0.0099543472
-0.26694422
0.0096406264
-0.30329423
0.0091931864
-0.34410276
0.0083550424
-0.39059497
0.0071029105
-0.44326077
0.0053306538
-0.50328462
0.00325923
-0.57302854
0.00097695458
-0.65127859
-0.002503517
-0.74322082
-0.83126026
0.0063594518
-0.018668696
-0.0063227459
0.0064011841
-0.021188984
0.0064491382
-0.024049744
0.0065044377
-0.027296885
0.00656844
-0.030982682
0.0066427654
-0.035166473
0.0067292429
-0.039915633
0.0068298534
-0.04530659
0.0069466244
-0.051426148
0.00708104
-0.058372763
0.0072330929
-0.066258104
0.007401127
-0.075208882
0.0075801458
-0.085369264
0.0077665539
-0.0969041
0.0079674096
-0.11000425
0.0082041481
-0.12489101
0.0084852801
-0.14180634
0.0087916503
-0.1609651
0.009098131
-0.18262575
0.0092648298
-0.20707986
0.0090968208
-0.234581
0.008567985
-0.26629162
0.00800011
-0.30256934
0.0074379157
-0.34336167
0.0067443318
-0.3896867
0.0056810255
-0.44195779
0.0043228035
-0.5017295
0.0024243325
-0.5710291
-5.8815361e-06
-0.64857324
-0.0027052691
-0.73999573
-0.83113632
0.0050874411
-0.018681234
-0.005076565
0.0050991285
-0.021202854
0.0051113983
-0.02406472
0.0051239743
-0.027312754
0.0051364886
-0.030999117
0.0051484341
-0.035183014
0.005159181
-0.039931693
0.0051680481
-0.045321521
0.0051742293
-0.051439164
0.0051768577
-0.058382999
0.0051750987
-0.066264682
0.0051683418
-0.075211058
0.0051562757
-0.085366469
0.0051379087
-0.096894987
0.0051083907
-0.10998348
0.0050549925
-0.12484501
0.0049726733
-0.14172924
0.0049027693
-0.16089572
0.0048374586
-0.18255643
0.005158257
-0.20738445
0.0058579645
-0.23524829
0.0061776098
-0.2665644
0.0061413671
-0.30246479
0.005873687
-0.342996
0.0054152315
-0.38909736
0.0046804172
-0.44106707
0.0035733935
-0.50049688
0.0016156052
-0.56909428
-0.00034318622
-0.64651492
-0.0028081315
-0.73714009
-0.8315949
0.0033767621
-0.0033988862
0.0033506681
0.0033183115
0.0032791557
0.0032326002
0.0031779377
0.0031142918
0.0030406321
0.0029555881
0.0028573244
0.0027436362
0.0026116563
0.0024573873
0.0022753371
0.0020575854
0.0017920436
0.0014542874
0.0010280949
0.00058928618
-0.00011034495
-0.00080623213
-0.0011738898
-0.0015126253
-0.0015944307
-0.0014646639
-0.00070620285
0.00040952833
0.00071525092
0.00046094055
-0.002883916
0.012677139
-0.01244521
0.0098365362
-0.01006839
0.014635538
-0.016028453
0.014070132
0.016087979
-0.019618896
0.018166533
0.017241971
-0.023575178
0.02242126
0.018251026
-0.028099672
0.027090684
0.019186424
-0.033323135
0.032387792
0.020052958
-0.039330306
0.038463808
0.020866144
-0.0461981
0.045384931
0.021625342
-0.054083092
0.053323889
0.022305278
-0.063108947
0.062428986
0.02288584
-0.073416331
0.07283573
0.023355584
-0.085177684
0.084707889
0.023706146
-0.098590178
0.098239562
0.02392637
-0.11385466
0.11363439
0.023999883
-0.13116699
0.13109345
0.023869915
-0.1506207
0.15075065
0.023475388
-0.17200469
0.17239919
0.022708231
-0.19492652
0.19569365
0.021420634
-0.2178896
0.21917709
0.019955751
-0.2411298
0.2425945
0.018631909
-0.26869049
0.27001396
0.017322936
-0.3011636
0.302472
0.015954961
-0.33811516
0.33948226
0.014501962
-0.38026629
0.38171789
0.012943439
-0.42813374
0.42969003
0.011248328
-0.48276749
0.48446009
0.0093906774
-0.54446083
0.54631796
0.0073428208
-0.61554858
0.61760253
0.0050653446
-0.69544732
0.69775043
0.0025710529
-0.7834518
0.78603028
-0.84931474
0.85218422
0.014017017
-0.014074206
-0.012387961
0.015118789
-0.017130158
0.016022818
-0.020522855
0.0168636
-0.024415892
0.01769571
-0.028931719
0.018521008
-0.034148384
0.019316585
-0.040125852
0.020070813
-0.046952318
0.020763827
-0.054776118
0.02137204
-0.063717191
0.021883619
-0.073927956
0.022291257
-0.085585379
0.022587809
-0.09888679
0.022762194
-0.1140291
0.022796727
-0.13120156
0.022629336
-0.15045333
0.022208097
-0.17158347
0.02141259
-0.19413105
0.020116278
-0.21659342
0.018722497
-0.23973634
0.017482166
-0.26745052
0.016244949
-0.29992696
0.014950719
-0.33682181
0.013578027
-0.37889503
0.0121081
-0.42666608
0.01051243
-0.48117443
0.0087664179
-0.54271558
0.0068453859
-0.61362096
0.0047104275
-0.69328462
0.0023824802
-0.78103942
-0.8466136
0.013566995
-0.014971215
-0.012669932
0.014354906
-0.017918013
0.015152616
-0.021320507
0.01598309
-0.025246311
0.016819904
-0.029768487
0.017628957
-0.034957402
0.018390829
-0.040887706
0.019098879
-0.047660371
0.019733242
-0.055410502
0.020281757
-0.064265744
0.020736839
-0.074383088
0.021093384
-0.085941983
0.021345191
-0.099138656
0.021481725
-0.11416569
0.021485758
-0.13120562
0.021290039
-0.15025765
0.020849007
-0.17114245
0.020030464
-0.19331257
0.018746549
-0.21530965
0.017439346
-0.23842938
0.016280844
-0.26629241
0.015115373
-0.29876209
0.013897236
-0.33560458
0.012607812
-0.37760705
0.011230449
-0.42529103
0.0097387171
-0.47968539
0.0081102668
-0.5410881
0.0063218733
-0.61182581
0.0043371236
-0.6912697
0.0021838143
-0.77880305
-0.84410335
0.012587159
-0.015774246
-0.011784084
0.0134167
-0.018747507
0.014257337
-0.022161098
0.015090703
-0.026079637
0.015898263
-0.030576014
0.01666287
-0.035721987
0.017373647
-0.041598479
0.01802341
-0.048310146
0.018597134
-0.055984252
0.019086655
-0.064755307
0.019487065
-0.074783551
0.019794817
-0.086249794
0.020004329
-0.099348226
0.020105329
-0.11426674
0.020077967
-0.13117828
0.019857292
-0.15003702
0.019404516
-0.1706897
0.018567723
-0.19247587
0.017310153
-0.21405222
0.016094978
-0.23721446
0.015015828
-0.26521368
0.013924832
-0.2976717
0.012787052
-0.3344677
0.011585891
-0.37640735
0.010306642
-0.42401412
0.0089249559
-0.47830648
0.0074207641
-0.5395851
0.0057722275
-0.61017042
0.0039459287
-0.68941113
0.0019760499
-0.77675291
-0.84178564
0.011583685
-0.016633978
-0.010723912
0.012438804
-0.019602588
0.013278157
-0.023000419
0.014092303
-0.026893754
0.014867742
-0.031351434
0.015590802
-0.036445039
0.016252576
-0.042260257
0.0168458
-0.048903388
0.017361147
-0.056499631
0.017794206
-0.065188409
0.018142559
-0.075131957
0.018404033
-0.086511326
0.018573578
-0.099517827
0.018640763
-0.11433396
0.018580476
-0.131118
0.018339204
-0.14979577
0.017881095
-0.17023162
0.017033476
-0.19162836
0.015817195
-0.2128361
0.014696791
-0.23609437
0.013697462
-0.26421478
0.012684013
-0.29665887
0.011630116
-0.33341472
0.010521093
-0.3752998
0.0093442565
-0.42283965
0.0080774418
-0.4770425
0.006702914
-0.53821197
0.0052000951
-0.60866079
0.0035390371
-0.68771688
0.0017606312
-0.77489838
-0.83967293
0.010545701
-0.017512013
-0.0096676351
0.01140233
-0.020459191
0.012230609
-0.023828677
0.013019899
-0.02768303
0.013757276
-0.032088803
0.014432961
-0.037120726
0.01504093
-0.042868238
0.015576123
-0.049438605
0.016033742
-0.056957285
0.016412163
-0.065566875
0.016710711
-0.075430557
0.016928224
-0.086728896
0.017060076
-0.099649731
0.017095453
-0.11436938
0.017004176
-0.13102674
0.01674838
-0.14953998
0.016288173
-0.16977148
0.015435825
-0.19077613
0.014273713
-0.21167417
0.013249929
-0.23507089
0.012329927
-0.26329521
0.011396266
-0.29572583
0.010429365
-0.33244874
0.0094161403
-0.37428806
0.0083458611
-0.42177174
0.0071985662
-0.47589811
0.0059588531
-0.53697385
0.0046074897
-0.60730274
0.0031181037
-0.68619413
0.0015383679
-0.77324782
-0.83776167
0.0094735407
-0.018399522
-0.0085860251
0.010325624
-0.021311264
0.011132851
-0.024635897
0.011885423
-0.028435597
0.01257534
-0.032778722
0.013197125
-0.03774252
0.013747204
-0.043418336
0.014223275
-0.049914703
0.014623772
-0.057357819
0.014949054
-0.065892201
0.015199695
-0.075681249
0.015375305
-0.086904558
0.015471728
-0.099746202
0.015477902