/*--------------------------------*- C++ -*----------------------------------*\
| =========                 |                                                 |
| \\      /  F ield         | OpenFOAM: The Open Source CFD Toolbox           |
|  \\    /   O peration     | Version:  2406                                  |
|   \\  /    A nd           | Website:  www.openfoam.com                      |
|    \\/     M anipulation  |                                                 |
\*---------------------------------------------------------------------------*/
FoamFile
{
    version     2.0;
    format      ascii;
    arch        "LSB;label=32;scalar=64";
    class       volVectorField;
    location    "0.01";
    object      U;
}
// * * * * * * * * * * * * * * * * * * * * * * * * * * * * * * * * * * * * * //

dimensions      [0 1 -1 0 0 0 0];

internalField   nonuniform List<vector> 
8260
(
(44.09629 31.853059 -1.2646221e-20)
(45.617435 30.438389 -1.4008037e-23)
(47.064704 29.019745 9.6624591e-21)
(48.464577 27.595079 8.2461942e-21)
(49.811471 26.120663 -6.9883372e-21)
(51.081617 24.61395 -5.884267e-21)
(52.265503 23.118568 1.979714e-20)
(53.353596 21.671318 0)
(54.378852 20.30081 0)
(55.38785 19.011849 1.4860908e-21)
(56.329025 17.819462 -1.274847e-21)
(57.227802 16.715844 -3.5656352e-20)
(58.077237 15.686134 -3.3051313e-20)
(58.864795 14.686211 6.2075237e-20)
(59.425227 13.681122 -9.4760861e-22)
(59.616623 12.577103 0)
(59.119886 11.082878 1.5197023e-21)
(58.024641 9.1776508 -2.232665e-21)
(57.298041 7.7695219 0)
(56.876987 6.7302587 -3.2195299e-19)
(56.504059 5.7769659 -1.1832136e-18)
(56.172908 4.9387039 -5.3717211e-19)
(55.841649 4.1696423 0)
(55.544885 3.4705806 1.7263441e-18)
(55.274607 2.8206139 -1.4965021e-21)
(55.0549 2.1940834 1.359361e-18)
(54.814623 1.6470402 -5.874929e-22)
(54.682014 1.0476005 1.0643115e-18)
(54.445729 0.62976668 0)
(54.206926 -0.032303505 5.6558239e-19)
(51.657771 -0.096438414 2.6451355e-25)
(42.97368 30.989932 -2.1270344e-23)
(44.561099 29.712104 -4.8446795e-24)
(46.066847 28.496326 7.4180172e-24)
(47.529216 27.239089 7.467877e-21)
(48.948289 25.914791 1.2953054e-20)
(50.305342 24.541768 1.1138311e-20)
(51.585308 23.154626 -3.8076205e-20)
(52.780652 21.787828 -4.0594544e-21)
(53.906614 20.470984 -1.0398684e-20)
(54.986564 19.214582 2.9713837e-21)
(56.00042 18.030983 -2.5725277e-21)
(56.958343 16.921424 0)
(57.8516 15.873853 -2.06369e-21)
(58.663453 14.85359 -2.7142953e-20)
(59.232697 13.795553 -1.9671631e-21)
(59.399957 12.653513 0)
(58.865162 11.068137 -2.0166851e-19)
(57.799366 9.1367396 4.5410922e-21)
(57.154911 7.7564766 -5.0953173e-21)
(56.775638 6.726303 0)
(56.423972 5.7736507 2.1889947e-21)
(56.109165 4.9371264 -4.0190825e-21)
(55.790338 4.1689277 1.8046932e-21)
(55.503244 3.4712194 -1.6482027e-18)
(55.240394 2.8202718 7.322642e-19)
(55.026943 2.1944577 -1.269152e-21)
(54.791116 1.6459924 1.1239283e-21)
(54.662836 1.0460893 -2.0373818e-18)
(54.425207 0.62667653 -1.5001568e-18)
(54.193999 -0.033418028 -4.9222144e-19)
(51.652862 -0.10257352 -5.6454294e-25)
(41.807395 29.823777 -9.1919182e-21)
(43.371386 28.795382 9.9628918e-24)
(44.926338 27.805894 -7.5491165e-21)
(46.459594 26.741791 6.8190347e-21)
(47.95939 25.590485 -1.2141638e-20)
(49.408059 24.371019 -1.0708189e-20)
(50.789328 23.112288 3.7488613e-20)
(52.092664 21.845428 0)
(53.322853 20.600031 1.4169011e-20)
(54.491339 19.390206 3.0867951e-21)
(55.587492 18.228261 -2.7096574e-21)
(56.613981 17.121561 4.1079783e-20)
(57.560333 16.061011 3.5366464e-20)
(58.404176 15.020388 3.1677389e-20)
(58.991552 13.912755 0)
(59.141433 12.72553 0)
(58.577991 11.033095 -1.4756276e-23)
(57.564433 9.1060477 0)
(57.007118 7.7724734 0)
(56.666648 6.7499664 2.927441e-19)
(56.337546 5.7950794 1.067634e-18)
(56.040755 4.9566493 -4.8288806e-19)
(55.7357 4.1857489 0)
(55.458636 3.4858818 7.5980865e-19)
(55.203513 2.8308369 -6.7270254e-19)
(54.996447 2.20321 -1.1711888e-21)
(54.76521 1.6511156 0)
(54.641241 1.0490543 9.3853946e-19)
(54.39279 0.62708328 -4.1358493e-23)
(54.181022 -0.03518011 -5.4254794e-19)
(51.647595 -0.1102818 -1.8672259e-21)
(40.833316 28.501756 7.6335921e-21)
(42.344481 27.716652 -7.0381811e-21)
(43.892992 26.951427 1.3245838e-20)
(45.451248 26.094796 -1.2296216e-20)
(46.997819 25.13468 1.1248962e-20)
(48.511849 24.087059 -1.0167882e-20)
(49.973999 22.97622 -1.8183308e-20)
(51.369099 21.829105 0)
(52.693139 20.673165 7.1545867e-21)
(53.949199 19.525564 -6.3373047e-21)
(55.126709 18.399958 2.2594636e-20)
(56.222963 17.306734 -5.0843249e-21)
(57.224568 16.239758 4.7240649e-21)
(58.100813 15.18021 -3.6496089e-20)
(58.70499 14.025318 0)
(58.831423 12.783169 -2.7441822e-21)
(58.242101 10.972162 1.1842006e-19)
(57.298836 9.0764483 4.5941495e-21)
(56.836941 7.7854729 3.0090123e-19)
(56.539314 6.7670193 -2.8107369e-19)
(56.236209 5.8094386 -4.8824862e-19)
(55.960039 4.9695909 4.4490045e-19)
(55.6711 4.1969169 3.6691731e-25)
(55.405777 3.4960447 -7.0469343e-19)
(55.160146 2.8375672 6.2427703e-19)
(54.960481 2.2091893 -2.1418876e-21)
(54.735303 1.6538981 0)
(54.615802 1.0507314 0)
(54.355623 0.62629708 1.1735469e-18)
(54.166885 -0.037223927 6.1082804e-19)
(51.641765 -0.12353219 0)
(40.064482 27.071457 6.3042841e-21)
(41.500093 26.505385 0)
(43.001735 25.949234 -5.7505391e-21)
(44.543003 25.299058 -1.093833e-20)
(46.099555 24.538224 1.0408391e-23)
(47.64757 23.675626 1.9014119e-20)
(49.164388 22.729323 -8.7138617e-21)
(50.630359 21.720702 5.3927687e-24)
(52.033435 20.673234 1.8334541e-24)
(53.368039 19.605332 1.2853597e-20)
(54.62158 18.531955 -3.4904597e-20)
(55.785447 17.464615 -3.7318308e-20)
(56.841723 16.399646 0)
(57.74907 15.324205 3.912126e-20)
(58.365537 14.123068 0)
(58.460219 12.814209 9.5336953e-20)
(57.849974 10.87513 -1.1662256e-19)
(57.007765 9.045452 -2.9393525e-19)
(56.648668 7.7958849 -2.6717542e-19)
(56.395824 6.7840292 1.1756268e-24)
(56.122153 5.8254976 -7.0463413e-21)
(55.869207 4.9852708 3.1493519e-21)
(55.59876 4.2112684 3.065279e-25)
(55.346314 3.5092852 6.3324592e-19)
(55.111501 2.8466907 -5.625594e-19)
(54.919759 2.2173395 0)
(54.701978 1.6581615 0)
(54.586139 1.0540033 0)
(54.323843 0.62611412 9.0923565e-19)
(54.151238 -0.039569127 1.716213e-22)
(51.63578 -0.13104357 4.5741725e-25)
(39.517405 25.559016 5.1914086e-21)
(40.858109 25.189519 -9.970462e-21)
(42.282403 24.822818 1.4821193e-20)
(43.770364 24.367358 9.632905e-21)
(45.299656 23.803012 -1.8526258e-20)
(46.846234 23.130186 8.0485586e-24)
(48.385812 22.358977 4.110317e-20)
(49.89538 21.503783 -2.2857546e-20)
(51.356288 20.582472 0)
(52.754655 19.612 0)
(54.074123 18.607207 0)
(55.299468 17.579372 -3.8632228e-20)
(56.406564 16.526377 3.675585e-20)
(57.341297 15.439289 -8.3105265e-20)
(57.962054 14.191042 0)
(58.015363 12.799798 -1.0861281e-19)
(57.391924 10.733691 1.2704156e-19)
(56.69343 9.0139816 2.7889477e-19)
(56.43755 7.8015059 0)
(56.232732 6.7971832 -2.2916641e-19)
(55.992309 5.838801 -4.1637492e-19)
(55.765265 4.9989677 -3.5390109e-19)
(55.516025 4.2242759 -6.5363551e-19)
(55.277974 3.5217051 -5.7418521e-19)
(55.055859 2.8548936 0)
(54.87276 2.2250766 0)
(54.664382 1.6618852 0)
(54.551589 1.0572516 0)
(54.295404 0.62548775 -6.7356762e-19)
(54.133332 -0.042193344 3.9848274e-22)
(51.629252 -0.13540086 -4.2479361e-21)
(39.210603 23.994966 -1.5651622e-20)
(40.441256 23.802683 3.3324222e-20)
(41.764652 23.60339 -3.3744552e-20)
(43.168048 23.323147 1.6840553e-20)
(44.634351 22.942215 1.6544712e-20)
(46.142461 22.453759 -4.0116917e-20)
(47.668872 21.859527 2.5480455e-24)
(49.189098 21.166026 -7.5316102e-24)
(50.679977 20.384121 -1.365273e-20)
(52.1208 19.526567 -1.2765019e-20)
(53.49006 18.605805 3.5883086e-20)
(54.765372 17.631196 4.5214103e-20)
(55.914689 16.600815 -8.7334914e-20)
(56.868644 15.506532 8.7551311e-20)
(57.480475 14.207075 0)
(57.482862 12.711937 -1.3501498e-20)
(56.867464 10.546597 1.5713793e-20)
(56.359326 8.981281 -2.5206145e-19)
(56.2021 7.7998393 0)
(56.048402 6.8054574 2.0757071e-19)
(55.845655 5.849677 3.7012251e-19)
(55.647565 5.011914 -2.6845788e-23)
(55.422527 4.2375927 -3.8265209e-23)
(55.200478 3.5350102 5.1574324e-19)
(54.992948 2.8636707 -4.5923372e-19)
(54.819106 2.2337189 3.1443477e-21)
(54.622209 1.6661329 0)
(54.512982 1.0610213 5.7615823e-19)
(54.270658 0.62435618 6.5183049e-19)
(54.110661 -0.044897849 -3.6664873e-22)
(51.622077 -0.14465469 2.1891184e-24)
(39.155742 22.457818 0)
(40.262455 22.398056 3.4820634e-21)
(41.466009 22.332168 0)
(42.759785 22.198908 0)
(44.132488 21.978295 -1.4691913e-20)
(45.567592 21.658047 1.4551653e-20)
(47.044453 21.232441 -1.157283e-23)
(48.539377 20.699943 0)
(50.027242 20.063472 1.316522e-20)
(51.482679 19.32932 0)
(52.878879 18.504964 -4.7827392e-20)
(54.1861 17.595601 5.7486062e-20)
(55.362672 16.597648 -2.6124339e-23)
(56.320681 15.498648 -1.0300209e-19)
(56.903395 14.137978 1.1020573e-19)
(56.846713 12.513079 -2.7986793e-20)
(56.291385 10.32879 1.5121478e-20)
(56.00457 8.9404097 2.3139083e-19)
(55.939715 7.7874679 -2.0923777e-19)
(55.840213 6.8058801 0)
(55.679895 5.8556485 3.3240394e-19)
(55.514078 5.0219141 5.8058885e-19)
(55.316179 4.2491794 8.1168288e-21)
(55.112118 3.5475191 3.6038441e-21)
(54.921293 2.8716047 -6.3847801e-21)
(54.757615 2.2421973 2.809373e-21)
(54.574536 1.6700772 0)
(54.469539 1.0647853 -1.0120569e-21)
(54.25156 0.62151959 9.1384099e-22)
(54.085404 -0.047882846 6.8766266e-19)
(51.614225 -0.15156005 5.7738795e-21)
(39.335888 20.965176 0)
(40.314338 21.001995 8.7613683e-21)
(41.387264 21.038983 -1.2297501e-20)
(42.55468 21.022243 0)
(43.810829 20.933718 6.5212075e-21)
(45.144023 20.757948 6.5794551e-21)
(46.537873 20.483426 1.3115829e-20)
(47.97163 20.101557 -1.2926261e-20)
(49.420819 19.607428 8.6616028e-24)
(50.857899 18.999588 3.6772182e-20)
(52.251744 18.278266 3.5675166e-20)
(53.565517 17.441963 -5.8104243e-20)
(54.746202 16.483098 5.7839593e-20)
(55.683524 15.374972 5.9510136e-20)
(56.20793 13.933774 -1.2770709e-19)
(56.081854 12.153027 -9.8501382e-20)
(55.690688 10.115561 -1.4189495e-20)
(55.624486 8.8846364 1.3122844e-20)
(55.648176 7.7599915 -3.7423625e-23)
(55.606045 6.7954473 1.0465557e-20)
(55.493231 5.854992 -9.2487592e-21)
(55.363642 5.0282561 -2.6326196e-19)
(55.195653 4.2587956 4.6551445e-19)
(55.011781 3.5593173 4.0472441e-19)
(54.839763 2.8789254 3.6853327e-19)
(54.687615 2.2508178 0)
(54.520485 1.6740176 0)
(54.420099 1.0687113 -4.985426e-19)
(54.22747 0.6204089 -8.7914323e-19)
(54.057271 -0.051064086 -6.2625627e-19)
(51.606068 -0.1540339 0)
(39.720305 19.543192 -1.9185915e-20)
(40.576587 19.638433 -2.4701318e-21)
(41.518789 19.74586 -2.6491712e-21)
(42.551216 19.816547 -2.23769e-20)
(43.674528 19.82856 1.1649206e-20)
(44.882652 19.767461 2.3919394e-20)
(46.164615 19.618128 -2.4290396e-20)
(47.504059 19.366716 0)
(48.879055 19.001571 -3.6351658e-20)
(50.261998 18.513237 1.520318e-23)
(51.618787 17.893002 -4.7295847e-20)
(52.905801 17.130248 4.701263e-20)
(54.056665 16.21036 -4.750588e-20)
(54.937949 15.070025 -2.4726371e-20)
(55.361933 13.528257 0)
(55.213908 11.63094 -4.8686635e-23)
(55.09973 9.9100124 -2.6083473e-20)
(55.218559 8.8054031 2.3602931e-20)
(55.325685 7.7112409 -3.7061154e-23)
(55.343988 6.7699998 0)
(55.28351 5.8445968 -2.6478937e-19)
(55.19458 5.0286508 0)
(55.059067 4.264492 0)
(54.897577 3.5688396 -3.5972727e-19)
(54.746402 2.8844886 -1.0076493e-20)
(54.607967 2.2587066 -5.6013961e-19)
(54.458456 1.6773678 -3.920974e-21)
(54.362567 1.0722966 1.7294453e-21)
(54.18628 0.62268829 -7.8371153e-19)
(54.02564 -0.054258886 1.1099827e-21)
(51.597286 -0.15994022 0)
(40.267931 18.186684 0)
(40.997985 18.333438 2.1633078e-21)
(41.815093 18.477881 2.1001113e-20)
(42.714719 18.599162 -2.0048003e-20)
(43.700083 18.675649 1.0576323e-20)
(44.770769 18.692175 0)
(45.921467 18.633229 -2.2761888e-20)
(47.140737 18.48221 4.6468334e-20)
(48.410176 18.222052 -3.5253752e-20)
(49.703454 17.835356 2.3627877e-20)
(50.984309 17.303181 -1.1855931e-23)
(52.201625 16.603584 -2.0857085e-24)
(53.272437 15.708833 -2.4525066e-20)
(54.053988 14.463793 2.5323133e-20)
(54.323883 12.881895 1.5753855e-19)
(54.333864 11.027249 7.7113665e-20)
(54.534196 9.6945776 2.3464626e-20)
(54.783876 8.692883 1.2592958e-19)
(54.972408 7.6336613 1.86378e-20)
(55.053053 6.7248566 -1.1587054e-19)
(55.048945 5.8211871 -2.9400244e-20)
(55.005476 5.0210075 -2.1993541e-26)
(54.905306 4.2648913 1.1479685e-20)
(54.768054 3.5751372 -3.2417649e-19)
(54.639299 2.8878564 0)
(54.517596 2.2655623 -3.2882495e-23)
(54.386856 1.6800356 -4.4492843e-19)
(54.29662 1.0755104 -3.0657148e-21)
(54.135758 0.62509073 6.9322873e-19)
(53.988352 -0.057001367 1.0036893e-21)
(51.587331 -0.16277113 0)
(40.982025 16.858444 3.0982251e-20)
(41.588018 16.99472 0)
(42.260327 17.165857 -3.4451709e-20)
(43.016721 17.308797 4.6722592e-21)
(43.857091 17.420419 3.4825266e-20)
(44.782484 17.483603 3.6782367e-20)
(45.789801 17.482878 -4.3978013e-20)
(46.870166 17.40034 -5.6902383e-20)
(48.007514 17.214999 5.8437732e-20)
(49.176256 16.902311 -2.3865166e-20)
(50.336676 16.432803 -2.3296583e-23)
(51.426674 15.770982 -1.1979381e-23)
(52.339511 14.85572 -3.1362755e-24)
(52.954518 13.471115 -7.7436146e-20)
(53.221221 11.854368 -9.9957141e-20)
(53.550103 10.557973 1.1640965e-19)
(53.958948 9.5186784 -2.1096951e-20)
(54.336531 8.4807918 -1.5035216e-19)
(54.588366 7.5578317 -3.4629675e-23)
(54.736752 6.6275425 1.1764049e-19)
(54.788582 5.775652 0)
(54.794803 5.001831 0)
(54.733188 4.2573662 1.0168713e-20)
(54.621826 3.5761302 2.7808228e-19)
(54.516309 2.8877589 0)
(54.414909 2.2702191 4.4657945e-19)
(54.304256 1.6813613 7.8763211e-19)
(54.220745 1.078087 -3.4729795e-19)
(54.074721 0.62821809 6.1235065e-19)
(53.946756 -0.059620149 0)
(51.577675 -0.15726224 0)
(41.746266 15.416827 3.1143481e-20)
(42.235665 15.544259 1.9240165e-21)
(42.787124 15.699377 -3.6352226e-20)
(43.407116 15.843569 -4.6436619e-21)
(44.103103 15.962603 0)
(44.879231 16.041637 -3.7330643e-20)
(45.733056 16.065459 9.01284e-20)
(46.655575 16.014651 -2.4882978e-23)
(47.630779 15.864436 -6.1194404e-20)
(48.631623 15.583491 5.0472144e-20)
(49.612845 15.132442 2.5870926e-20)
(50.514622 14.454654 2.6333783e-20)
(51.23865 13.466221 -2.3330887e-23)
(51.732397 12.170049 5.0762824e-20)
(52.281431 10.977416 9.4128038e-20)
(52.897014 10.03279 -4.2341247e-20)
(53.429611 9.1454419 3.7680275e-20)
(53.851568 8.2967812 -1.0019386e-19)
(54.183257 7.3812132 2.3647259e-19)
(54.389179 6.5782161 5.2294389e-20)
(54.504511 5.6893622 2.0738852e-19)
(54.561553 4.967412 0)
(54.541325 4.2392183 0)
(54.458263 3.5699122 0)
(54.376183 2.8834091 0)
(54.298504 2.271678 3.9490144e-19)
(54.208692 1.681028 -3.4817422e-19)
(54.133925 1.0798845 6.1404425e-19)
(54.003586 0.63198589 -5.4131653e-19)
(53.900547 -0.061425328 -4.1558512e-19)
(51.566371 -0.1560008 -1.4042659e-22)
(42.449886 13.70536 -3.6599983e-20)
(42.848281 13.786377 3.0899955e-20)
(43.305714 13.889738 -3.6522776e-20)
(43.816311 13.999992 4.2418871e-20)
(44.383484 14.10004 -4.5972923e-20)
(45.011975 14.164085 1.0458497e-19)
(45.70245 14.175331 -1.0377579e-19)
(46.44819 14.116206 1.2135384e-19)
(47.233708 13.961686 -1.2433129e-19)
(48.034698 13.674736 8.3640066e-20)
(48.807372 13.212113 -5.5266343e-20)
(49.509408 12.551504 5.3766489e-20)
(50.151823 11.717807 -5.1107725e-20)
(50.843984 10.90648 4.2068454e-23)
(51.608095 10.257869 -8.4774807e-20)
(52.279025 9.5776095 -3.7719734e-20)
(52.859916 8.8318991 -6.6858539e-20)
(53.363286 7.9993402 1.1835715e-19)
(53.754188 7.2005152 -1.3084549e-19)
(54.026674 6.3977583 2.3154098e-20)
(54.195888 5.6425088 -1.4294781e-19)
(54.307553 4.903976 -1.5865111e-24)
(54.327114 4.1964896 -1.5872795e-20)
(54.27682 3.5534464 0)
(54.218905 2.8734373 6.1816154e-21)
(54.167204 2.2683622 -7.031488e-19)
(54.099851 1.6778934 0)
(54.035813 1.0803524 -2.7542101e-19)
(53.920744 0.63621839 -4.7442987e-19)
(53.848098 -0.061948533 7.4602577e-19)
(51.553168 -0.1553956 1.1036965e-22)
(43.009585 11.458438 1.4798277e-21)
(43.258573 11.53213 0)
(43.57627 11.617174 0)
(43.986199 11.67136 0)
(44.461961 11.732865 0)
(44.977354 11.743833 -7.3819512e-21)
(45.538714 11.711781 0)
(46.147767 11.62165 -1.354518e-19)
(46.787815 11.508416 1.496169e-19)
(47.443997 11.313576 0)
(48.115288 11.038512 -2.7643787e-20)
(48.802425 10.725315 0)
(49.541018 10.340605 0)
(50.32679 9.9964085 4.2414227e-20)
(51.051112 9.5376195 -4.6538411e-23)
(51.733217 8.9684388 -3.3465581e-20)
(52.347289 8.3334806 0)
(52.871357 7.6668803 0)
(53.316435 6.9304806 0)
(53.640897 6.2516624 -1.0219404e-19)
(53.876163 5.4855484 1.6240508e-19)
(54.031602 4.8532696 -1.5890247e-20)
(54.090492 4.1349598 1.3999638e-20)
(54.076599 3.5227593 1.9786756e-19)
(54.045835 2.8564564 -1.7465686e-19)
(54.020499 2.2590898 -9.6556364e-21)
(53.97682 1.6712052 8.4849931e-21)
(53.926876 1.078972 0)
(53.825964 0.64022125 4.2535638e-19)
(53.788073 -0.062265717 -3.3669625e-19)
(51.541153 -0.14171429 0)
(43.906761 9.0331397 0)
(44.069178 9.1441399 1.3873441e-19)
(44.244357 9.2913057 -1.4294772e-19)
(44.440509 9.4871756 4.4368667e-21)
(44.70579 9.6391089 -1.418469e-19)
(45.041107 9.7812073 1.4842665e-19)
(45.452198 9.8919413 1.6875004e-20)
(45.969468 9.8433002 3.110323e-20)
(46.517298 9.774806 1.0305458e-19)
(47.10467 9.6898139 -4.1474789e-23)
(47.759896 9.5089238 -7.5957324e-20)
(48.451385 9.4106365 -1.1725027e-19)
(49.185906 9.288161 4.2370853e-20)
(49.884806 9.0547959 0)
(50.580627 8.7408878 3.3448379e-20)
(51.24525 8.3365834 0)
(51.853046 7.854299 -5.2395918e-20)
(52.403894 7.2537483 9.2605554e-20)
(52.882081 6.6359021 -4.0901432e-20)
(53.250607 5.9863094 -1.0831296e-19)
(53.53926 5.3571529 -9.5554945e-20)
(53.745587 4.7179764 2.810092e-20)
(53.832406 4.0802308 -2.475028e-20)
(53.857154 3.4644339 -1.7458872e-19)
(53.857896 2.8295244 1.5410246e-19)
(53.857838 2.2424472 3.9911474e-19)
(53.83979 1.6596492 7.4866429e-21)
(53.807608 1.0747302 -3.3002449e-21)
(53.719382 0.64246709 -3.6949756e-19)
(53.715782 -0.064576384 2.9955683e-19)
(51.498925 -0.17157126 1.0443911e-20)
(44.897361 7.0445909 -2.9102416e-21)
(45.067327 7.1331735 3.5549818e-19)
(45.250234 7.2503712 -2.0357e-23)
(45.444408 7.3839323 -1.6796188e-19)
(45.653734 7.5213725 1.5028894e-19)
(45.872563 7.6628541 -1.5125513e-19)
(46.08204 7.8098805 -1.7571615e-20)
(46.287239 8.1448082 -1.5494076e-20)
(46.645692 8.2736234 1.4037769e-20)
(47.079127 8.4727193 2.5577546e-20)
(47.643228 8.3722649 -2.2319828e-20)
(48.225738 8.2830923 2.0233891e-20)
(48.858716 8.1226651 -3.6872437e-20)
(49.532305 8.0427266 6.6607328e-20)
(50.201675 7.8901166 0)
(50.847294 7.6077064 5.2401401e-20)
(51.441292 7.2369888 0)
(51.974713 6.7900378 -4.0910838e-20)
(52.47655 6.2628511 3.6107214e-20)
(52.862949 5.7311077 3.1842848e-20)
(53.19715 5.120961 -2.8114062e-20)
(53.447636 4.5987882 -2.4791333e-20)
(53.560571 3.9698799 2.1863251e-20)
(53.62107 3.3887202 0)
(53.653878 2.7900542 0)
(53.679455 2.2165476 -1.1979191e-19)
(53.687776 1.6423601 6.601036e-21)
(53.677772 1.0665258 1.8046289e-19)
(53.601162 0.6412359 3.2582477e-19)
(53.630409 -0.062376446 -2.6395441e-19)
(51.459806 -0.17320986 -4.3330596e-20)
(45.487696 6.0221861 3.1980531e-21)
(45.60155 6.1047686 -5.9327894e-21)
(45.736107 6.2004753 0)
(45.898453 6.3010453 -5.2758348e-21)
(46.098536 6.406955 9.7848392e-21)
(46.350301 6.5142906 -8.9860623e-21)
(46.655305 6.612318 2.6178431e-19)
(46.943492 6.7429127 -2.3468684e-19)
(47.213322 6.8954039 -1.3134859e-20)
(47.544585 6.8445619 -2.3710451e-20)
(47.779938 7.2939802 -1.2288733e-19)
(48.190021 7.4071206 3.3890993e-23)
(48.71351 7.2035065 2.2210797e-19)
(49.286548 7.0357221 -1.1554197e-19)
(49.897644 6.9477408 0)
(50.50486 6.8323557 -9.2545074e-20)
(51.064391 6.6158877 4.0861643e-20)
(51.58463 6.2621679 -3.2572959e-23)
(52.100086 5.8647003 -9.5567324e-20)
(52.504653 5.3728915 5.6208154e-20)
(52.855265 4.8959267 -2.4792091e-20)
(53.144208 4.3835605 -6.5603495e-20)
(53.282339 3.8393233 0)
(53.367392 3.2990832 -1.5298491e-19)
(53.431856 2.7311841 2.9968453e-20)
(53.488204 2.1779864 -1.3209864e-20)
(53.519069 1.6137829 -1.8050481e-19)
(53.535652 1.0534763 -1.6421705e-19)
(53.470688 0.63456147 -4.524035e-21)
(53.531266 -0.05738638 -2.3688817e-19)
(51.425731 -0.17057317 0)
(46.354152 4.9819583 0)
(46.449666 5.0586177 5.6301175e-21)
(46.556724 5.1465573 0)
(46.675256 5.2381056 -3.1643687e-19)
(46.803659 5.3338435 2.7656149e-19)
(46.939925 5.4327934 0)
(47.0877 5.5334207 0)
(47.266984 5.6275709 2.1099423e-19)
(47.494968 5.7104111 -3.095847e-23)
(47.784501 5.8479068 -1.6863124e-19)
(48.168003 5.8210258 -1.8755871e-20)
(48.490255 5.7956234 0)
(48.754926 6.3361331 -1.1455218e-19)
(49.196794 6.176703 1.2453852e-19)
(49.694949 6.0119086 0)
(50.239774 5.9621042 4.0670799e-20)
(50.774859 5.8662687 -3.6068853e-20)
(51.247396 5.6692176 9.5546328e-20)
(51.742178 5.3759449 0)
(52.168319 5.0114576 4.9570578e-20)
(52.539461 4.5854102 -4.3732891e-20)
(52.832031 4.1684338 -1.5953213e-23)
(52.99557 3.6603114 0)
(53.104844 3.1673542 2.3976539e-19)
(53.194377 2.631253 0)
(53.284937 2.1322667 1.1645061e-20)
(53.333387 1.5856512 -1.0286454e-20)
(53.378464 1.0329024 0)
(53.3261 0.61616583 -1.2763049e-19)
(53.420865 -0.048151102 4.2129813e-19)
(51.379461 -0.16222919 0)
(46.944072 4.2119731 0)
(47.009394 4.2752335 -3.2421778e-19)
(47.08629 4.3468345 1.7690865e-23)
(47.177514 4.421496 2.8696654e-19)
(47.287155 4.5017213 2.2662174e-24)
(47.420477 4.5896406 2.3092641e-19)
(47.580026 4.686108 -2.0838557e-19)
(47.761575 4.7917021 0)
(47.958339 4.906399 -1.0459597e-20)
(48.157915 5.0035901 0)
(48.353419 5.1363395 1.160901e-19)
(48.640746 5.2791772 -1.177522e-19)
(49.010572 5.0317779 -5.2132372e-20)
(49.233603 5.4692448 -2.2448727e-20)
(49.612932 5.300881 9.7616224e-20)
(50.04512 5.1457602 1.0564789e-19)
(50.529765 5.0872843 -9.4998518e-20)
(50.995236 5.0333909 0)
(51.406222 4.8435466 -1.074134e-23)
(51.844726 4.5401119 -4.3727111e-20)
(52.24964 4.2739408 -3.855515e-20)
(52.524646 3.8549148 3.3974586e-20)
(52.707364 3.457515 -5.6644742e-24)
(52.838889 2.9994005 -1.3208901e-19)
(52.941258 2.5338308 2.3288316e-20)
(53.068347 2.0519782 6.1594196e-20)
(53.134498 1.5318419 1.5381944e-19)
(53.203701 1.0124598 -7.9757703e-21)
(53.165006 0.58686188 1.1248519e-19)
(53.300756 -0.030629072 -3.7423098e-19)
(51.36694 -0.067255574 2.8263727e-20)
(47.691758 3.4048464 6.3707353e-19)
(47.746402 3.4591671 -2.2982461e-21)
(47.80806 3.5203315 -1.0864694e-18)
(47.877221 3.5839804 4.939286e-19)
(47.953986 3.6521097 4.6109163e-19)
(48.037632 3.7251969 6.3935601e-21)
(48.128627 3.802159 -3.701655e-19)
(48.231807 3.8812032 -3.3178373e-19)
(48.356925 3.9598811 9.2932748e-21)
(48.51972 4.0440793 2.6389188e-19)
(48.728482 4.1181155 2.9303931e-20)
(48.932252 4.1618505 2.0789928e-19)
(49.129895 4.3939579 -3.9131654e-19)
(49.454882 4.1784888 1.4255448e-19)
(49.646976 4.6226379 -1.5801265e-19)
(49.966429 4.5087257 9.1555824e-20)
(50.36137 4.2896708 2.7297245e-20)
(50.818403 4.3138635 2.4600961e-20)
(51.172554 4.2497256 4.3689372e-20)
(51.547574 4.0434345 3.8531877e-20)
(51.98087 3.8703274 -6.5619523e-24)
(52.233803 3.5359709 2.9951472e-20)
(52.418365 3.1926002 2.6412319e-20)
(52.580682 2.8152479 -1.3972358e-19)
(52.681557 2.3814444 2.0528735e-20)
(52.836634 1.959649 -7.2372031e-20)
(52.926516 1.4742125 1.5950122e-20)
(53.012873 0.97451254 -1.1950544e-19)
(52.987827 0.54911223 -2.5975441e-25)
(53.166905 -0.026192813 3.2690967e-19)
(51.349321 -0.17234087 -2.0791652e-22)
(48.22435 2.8025095 5.714376e-19)
(48.259628 2.8475768 4.0698891e-21)
(48.301098 2.8978253 4.8608122e-19)
(48.350166 2.9503063 -4.4586334e-19)
(48.408579 3.0072515 -3.1449283e-21)
(48.478674 3.0701001 3.5266295e-19)
(48.5629 3.1394133 -2.0880457e-23)
(48.662077 3.2153661 -5.7744393e-19)
(48.774051 3.2978081 2.6182501e-19)
(48.89319 3.3833258 0)
(49.018318 3.4713719 -2.3144262e-24)
(49.181202 3.5747935 0)
(49.388631 3.565304 0)
(49.567964 3.7723201 1.5774078e-24)
(49.849519 3.5257747 1.5860384e-20)
(49.992185 3.9258135 -2.7436952e-20)
(50.288069 3.8032936 2.3732351e-20)
(50.645279 3.6210782 6.3842829e-20)
(51.022899 3.6165219 -2.1315648e-23)
(51.355016 3.544391 -3.3986769e-20)
(51.712604 3.4104032 -2.9961409e-20)
(51.963096 3.1614322 0)
(52.149362 2.9020456 0)
(52.334067 2.5745905 1.2313014e-19)
(52.430176 2.2269091 7.2368638e-20)
(52.592378 1.8286379 -1.5946008e-20)
(52.711759 1.3967644 -8.4349263e-20)
(52.811659 0.93367187 8.6720822e-20)
(52.803567 0.51510607 9.2842958e-20)
(53.024165 -0.041852492 -1.5580506e-19)
(51.306027 -0.20549161 3.1673208e-22)
(48.878534 2.1681462 0)
(48.908264 2.2054751 -1.8094721e-21)
(48.941704 2.2467665 3.3447675e-21)
(48.978991 2.2897469 7.8464564e-19)
(49.020165 2.3362934 -7.1346959e-19)
(49.064999 2.3872882 6.4957554e-19)
(49.113308 2.4425347 -2.9253625e-23)
(49.166143 2.5014373 -4.081899e-21)
(49.227172 2.5632989 -4.6243651e-19)
(49.303384 2.6281623 0)
(49.399852 2.6959303 -1.1413747e-20)
(49.504883 2.7560938 0)
(49.620151 2.866442 0)
(49.78922 2.8475 1.583528e-20)
(49.940348 3.0924356 -1.3991886e-20)
(50.197939 2.8672511 2.4710955e-20)
(50.324902 3.236193 -2.1302148e-20)
(50.581772 3.1663585 0)
(50.891697 2.9690492 0)
(51.223779 3.0454757 -3.2995612e-24)
(51.473623 2.9479616 -2.6397932e-20)
(51.706549 2.7284878 0)
(51.921055 2.5749254 0)
(52.098985 2.3299262 -3.6168426e-20)
(52.203891 2.0132909 -9.564898e-20)
(52.340974 1.6792515 5.6213644e-20)
(52.489192 1.3021191 7.4317769e-20)
(52.606192 0.87735687 8.7364712e-20)
(52.618371 0.48208822 8.6327632e-24)
(52.840135 -0.059420207 -1.301464e-19)
(51.237067 -0.23178319 -5.3568262e-22)
(49.325845 1.7268664 -1.8107154e-18)
(49.341767 1.7566692 8.2187059e-19)
(49.360723 1.7894691 7.5614986e-19)
(49.383458 1.8237067 5.4086656e-21)
(49.411136 1.8609629 -1.2589813e-18)
(49.444441 1.9025334 1.1386123e-18)
(49.484593 1.9489964 -5.114181e-19)
(49.533415 2.0001922 -7.1482781e-21)
(49.590452 2.0568103 0)
(49.653927 2.1186324 -5.6686487e-21)
(49.723457 2.1847226 3.2203883e-19)
(49.807965 2.2581038 -2.8540278e-19)
(49.911765 2.3104952 0)
(50.01893 2.4286337 0)
(50.16865 2.3846522 -1.9730875e-19)
(50.29822 2.5669328 1.7424715e-19)
(50.504133 2.423092 0)
(50.602752 2.7205016 1.5006532e-19)
(50.842498 2.5868644 -2.315003e-19)
(51.099939 2.5094055 1.3128991e-19)
(51.311913 2.4914138 1.3948897e-19)
(51.498727 2.3135945 -1.2298104e-19)
(51.711577 2.2037791 3.6163606e-20)
(51.882396 2.0258557 3.1877795e-20)
(51.995191 1.8032505 0)
(52.096249 1.497541 0)
(52.256425 1.1811599 0)
(52.395313 0.79685743 -7.6977928e-20)
(52.430714 0.44407937 7.2951666e-24)
(52.603162 -0.073161314 1.8317038e-19)
(51.170471 -0.2045924 3.2372019e-20)
(49.875524 1.251953 1.5658836e-21)
(49.889118 1.275305 -7.2747955e-19)
(49.904063 1.3007024 6.6979218e-19)
(49.920264 1.3271839 -6.1846743e-19)
(49.937611 1.3562727 5.5920669e-19)
(49.956873 1.3883431 0)
(49.978581 1.4232784 4.5484318e-19)
(50.002448 1.4613882 6.2924238e-21)
(50.02954 1.5022231 -3.5981505e-19)
(50.06192 1.5457917 9.9984401e-21)
(50.102151 1.592311 0)
(50.149298 1.6405686 0)
(50.203998 1.7016327 0)
(50.275893 1.7327366 -6.1513617e-21)
(50.353672 1.843377 1.739086e-19)
(50.478337 1.8303767 -1.5356893e-19)
(50.580751 1.9773842 0)
(50.743126 1.865906 -2.9892201e-20)
(50.862853 2.1277857 0)
(51.047599 2.0174595 -2.3165555e-20)
(51.228437 1.9660898 -1.0244425e-19)
(51.38879 1.9474123 1.1843124e-23)
(51.524163 1.796854 9.5604213e-20)
(51.673745 1.7097068 -2.8088165e-20)
(51.781409 1.5350951 0)
(51.872616 1.3018515 -4.3656391e-20)
(52.018329 1.0309975 0)
(52.171106 0.69139881 8.4803212e-20)
(52.229208 0.38529339 -8.222787e-20)
(52.381672 -0.10847383 -5.7267941e-20)
(51.112803 -0.21930651 -6.9338404e-20)
(50.202479 0.94624591 -1.4114346e-18)
(50.206796 0.96291557 1.2496979e-21)
(50.212533 0.98139602 1.1576511e-21)
(50.219827 1.0004696 2.1161259e-21)
(50.228999 1.0215457 -1.9201445e-21)
(50.24052 1.0452737 8.8664865e-19)
(50.255041 1.0719067 -7.9902503e-19)
(50.273445 1.1017421 -2.7803251e-21)
(50.296748 1.1353808 0)
(50.326376 1.172698 -8.8141461e-21)
(50.362107 1.2139895 5.0056383e-19)
(50.404378 1.2590807 -8.8703566e-19)
(50.452847 1.3029543 2.0676417e-23)
(50.505978 1.3609203 6.9942834e-19)
(50.56977 1.3770796 9.5578315e-21)
(50.624217 1.4439982 -3.9755801e-19)
(50.717744 1.4326856 1.1944663e-19)
(50.814753 1.462465 1.317233e-20)
(50.927594 1.4750682 -1.1562369e-20)
(51.032852 1.3760797 2.0190941e-20)
(51.186836 1.4630474 0)
(51.328316 1.5021686 1.5928229e-20)
(51.407744 1.4373467 -5.6164641e-20)
(51.480564 1.3378991 0)
(51.575965 1.2532097 0)
(51.665198 1.0698366 3.8463161e-20)
(51.774322 0.86506149 -3.3912587e-20)
(51.930211 0.55289734 -5.9779708e-20)
(52.005174 0.33148576 -1.3175165e-20)
(52.193201 -0.14451609 5.8071676e-20)
(51.036496 -0.2406607 1.6423097e-20)
(50.606959 0.59936624 6.1116747e-22)
(50.611301 0.61220468 -1.1069123e-21)
(50.615952 0.62607222 0)
(50.620957 0.64064078 0)
(50.626531 0.65676547 0)
(50.632873 0.67485418 0)
(50.640217 0.69499498 0)
(50.648889 0.71714646 0)
(50.659232 0.74097755 0)
(50.670813 0.76672385 3.8851467e-21)
(50.684275 0.7937676 0)
(50.699836 0.82145083 -3.9092238e-19)
(50.717271 0.85188567 3.4594669e-19)
(50.73806 0.87790332 0)
(50.766701 0.91961784 -8.4367042e-21)
(50.814847 0.95010302 -7.4501149e-21)
(50.863252 1.0141817 -6.5743987e-21)
(50.925776 1.0499004 1.7993024e-19)
(50.952149 1.1194618 1.0187478e-20)
(51.020159 1.1886897 -1.5170363e-19)
(51.111271 1.0419896 -1.5894759e-20)
(51.273903 1.090588 8.4217993e-20)
(51.330322 1.0787574 -7.4255697e-20)
(51.338648 0.96675622 0)
(51.403173 0.93554017 0)
(51.454573 0.82910697 3.3901832e-20)
(51.517687 0.65873031 0)
(51.670459 0.40465883 -2.6345547e-20)
(51.755529 0.26789625 0)
(51.991448 -0.18369702 0)
(50.986894 -0.23333725 0)
(50.838153 0.37647023 -1.0978096e-18)
(50.839884 0.38410301 1.9853872e-18)
(50.841909 0.39198193 -9.1677915e-19)
(50.844211 0.40001381 0)
(50.846816 0.40887893 0)
(50.849787 0.41882403 0)
(50.853211 0.42994725 -6.1520948e-19)
(50.857325 0.44232043 1.0814875e-21)
(50.862434 0.45612775 4.9051303e-19)
(50.869067 0.47157417 -1.7042742e-21)
(50.878017 0.48864455 3.0260483e-21)
(50.890775 0.50684267 3.4325717e-19)
(50.907495 0.528941 -6.0771254e-19)
(50.926953 0.55808886 2.7296678e-19)
(50.946045 0.59161253 0)
(50.966035 0.62800516 3.2760424e-21)
(50.992454 0.6469236 -1.7930034e-19)