/*--------------------------------*- C++ -*----------------------------------*\
| =========                 |                                                 |
| \\      /  F ield         | OpenFOAM: The Open Source CFD Toolbox           |
|  \\    /   O peration     | Version:  2406                                  |
|   \\  /    A nd           | Website:  www.openfoam.com                      |
|    \\/     M anipulation  |                                                 |
\*---------------------------------------------------------------------------*/
FoamFile
{
    version     2.0;
    format      ascii;
    arch        "LSB;label=32;scalar=64";
    class       volScalarField;
    location    "0.02";
    object      rho;
}
// * * * * * * * * * * * * * * * * * * * * * * * * * * * * * * * * * * * * * //

dimensions      [1 -3 0 0 0 0 0];

internalField   nonuniform List<scalar> 
23203
(
1.1968071
1.196733
1.1968922
1.1970409
1.1970764
1.1970895
1.1971198
1.1972084
1.1972938
1.1973504
1.19743
1.197526
1.1976089
1.1976972
1.1977953
1.1978879
1.1979793
1.198075
1.1981686
1.1980629
1.1979441
1.1980091
1.197992
1.1979542
1.1978887
1.1978631
1.1979264
1.1979477
1.1979383
1.1979895
1.1980531
1.198089
1.1981447
1.1982169
1.1982781
1.1983416
1.1984148
1.1984854
1.1990055
1.1988442
1.1988098
1.1987416
1.1986574
1.1985839
1.1985595
1.198552
1.1985061
1.1984714
1.1985226
1.1985487
1.1985382
1.1985746
1.1986285
1.1986587
1.1986967
1.1987514
1.198801
1.1998796
1.1996999
1.1996279
1.1995174
1.1993959
1.199293
1.1992115
1.1991448
1.1990872
1.1990618
1.1990532
1.1990155
1.1989807
1.1990152
1.1990412
1.1990343
1.1990513
1.1990911
1.1991176
1.2006652
1.2004588
1.2003477
1.2002033
1.2000525
1.1999214
1.1998127
1.1997203
1.1996414
1.1995753
1.1995206
1.1994739
1.1994507
1.1994409
1.1994196
1.1993919
1.1994037
1.1994262
1.1994258
1.2013797
1.2011558
1.201018
1.2008502
1.200677
1.2005222
1.2003871
1.2002683
1.2001644
1.2000752
1.1999983
1.1999324
1.1998772
1.1998327
1.1997955
1.1997711
1.1997598
1.1997451
1.1997238
1.2020226
1.2017856
1.2016251
1.2014381
1.2012471
1.2010733
1.2009188
1.2007804
1.2006562
1.2005452
1.2004468
1.200361
1.2002878
1.2002248
1.2001702
1.2001241
1.2000865
1.2000556
1.2000331
1.2026001
1.2023557
1.2021784
1.2019777
1.2017739
1.201586
1.2014158
1.2012608
1.2011194
1.2009913
1.2008759
1.2007728
1.2006809
1.2005994
1.2005282
1.200467
1.2004143
1.2003687
1.2003299
1.2031165
1.2028686
1.2026786
1.2024679
1.2022551
1.2020568
1.2018748
1.201707
1.2015522
1.2014099
1.20128
1.201162
1.2010554
1.2009595
1.2008737
1.2007972
1.2007292
1.2006696
1.2006185
1.203576
1.2033278
1.2031293
1.2029125
1.2026942
1.202489
1.2022985
1.2021211
1.2019558
1.2018025
1.2016609
1.2015308
1.2014116
1.2013028
1.2012041
1.2011149
1.2010347
1.2009628
1.2008989
1.2039828
1.203737
1.2035335
1.2033136
1.2030926
1.2028834
1.2026874
1.2025033
1.2023304
1.2021686
1.2020178
1.2018778
1.2017484
1.2016291
1.2015196
1.2014194
1.201328
1.201245
1.2011701
1.2043412
1.2041
1.2038943
1.2036741
1.2034529
1.2032422
1.2030432
1.2028549
1.2026767
1.2025088
1.2023511
1.2022036
1.202066
1.201938
1.2018195
1.20171
1.2016091
1.2015166
1.2014319
1.2046554
1.2044204
1.204215
1.2039965
1.2037772
1.203567
1.2033672
1.2031768
1.2029956
1.2028237
1.2026611
1.202508
1.2023641
1.2022293
1.2021035
1.2019862
1.2018774
1.2017766
1.2016836
1.2049292
1.2047016
1.2044985
1.2042835
1.2040677
1.2038599
1.203661
1.2034704
1.203288
1.2031139
1.2029483
1.2027913
1.2026428
1.2025029
1.2023713
1.2022478
1.2021324
1.2020247
1.2019246
1.2051664
1.204947
1.2047477
1.2045376
1.2043268
1.2041226
1.2039262
1.203737
1.2035549
1.2033803
1.2032132
1.2030539
1.2029024
1.2027587
1.2026228
1.2024946
1.2023739
1.2022606
1.2021545
1.2053703
1.2051599
1.2049655
1.2047615
1.2045566
1.2043573
1.2041645
1.203978
1.2037976
1.2036237
1.2034566
1.2032963
1.2031432
1.2029971
1.2028582
1.2027265
1.2026017
1.2024839
1.202373
1.2055446
1.2053434
1.205155
1.2049577
1.2047595
1.2045659
1.2043778
1.2041949
1.2040172
1.2038452
1.2036792
1.2035192
1.2033656
1.2032184
1.2030777
1.2029435
1.2028159
1.2026948
1.2025801
1.2056927
1.2055007
1.2053187
1.2051287
1.2049377
1.2047504
1.2045676
1.2043892
1.2042152
1.204046
1.203882
1.2037233
1.2035702
1.2034229
1.2032815
1.203146
1.2030165
1.2028931
1.2027757
1.2058161
1.2056338
1.2054588
1.2052765
1.2050931
1.2049126
1.2047357
1.2045623
1.2043927
1.2042271
1.2040659
1.2039094
1.2037578
1.2036114
1.2034701
1.2033343
1.203204
1.2030791
1.2029598
1.2059181
1.2057455
1.2055779
1.2054034
1.2052277
1.2050542
1.2048836
1.2047159
1.2045512
1.2043898
1.2042323
1.2040787
1.2039293
1.2037845
1.2036443
1.203509
1.2033785
1.2032531
1.2031327
1.2060016
1.2058383
1.2056779
1.2055111
1.2053431
1.205177
1.205013
1.2048513
1.204692
1.2045355
1.2043821
1.204232
1.2040856
1.2039431
1.2038047
1.2036705
1.2035407
1.2034154
1.2032947
1.2060649
1.2059116
1.2057595
1.2056011
1.2054412
1.2052825
1.2051255
1.2049701
1.2048167
1.2046654
1.2045166
1.2043706
1.2042276
1.2040879
1.2039518
1.2038194
1.2036909
1.2035663
1.2034459
1.2061128
1.205968
1.2058247
1.2056753
1.2055238
1.2053728
1.2052228
1.205074
1.2049266
1.2047808
1.2046369
1.2044953
1.2043561
1.2042197
1.2040864
1.2039562
1.2038294
1.2037062
1.2035866
1.2061556
1.2060146
1.2058769
1.2057358
1.2055928
1.2054496
1.2053067
1.2051644
1.2050229
1.2048827
1.2047439
1.2046068
1.2044718
1.204339
1.2042088
1.2040813
1.2039568
1.2038352
1.2037169
1.2062052
1.2060682
1.205928
1.2057892
1.2056517
1.205515
1.2053786
1.2052424
1.2051067
1.2049719
1.2048382
1.2047059
1.2045752
1.2044464
1.2043197
1.2041952
1.2040733
1.2039539
1.2038373
1.2061964
1.2060774
1.205961
1.2058326
1.2057001
1.2055687
1.2054385
1.2053083
1.2051784
1.2050491
1.2049206
1.2047932
1.2046671
1.2045424
1.2044195
1.2042984
1.2041794
1.2040626
1.2039481
1.2062358
1.2061005
1.2059667
1.2058469
1.2057302
1.2056097
1.2054864
1.2053625
1.2052386
1.205115
1.2049919
1.2048696
1.2047483
1.204628
1.2045091
1.2043916
1.2042758
1.2041617
1.2040496
1.2062184
1.2061361
1.2060106
1.2058755
1.2057515
1.2056358
1.2055217
1.205406
1.2052888
1.205171
1.2050534
1.2049363
1.2048198
1.204704
1.2045892
1.2044754
1.2043629
1.2042518
1.2041424
1.2061842
1.2060917
1.2060257
1.2059265
1.2057918
1.2056639
1.2055507
1.2054413
1.2053309
1.2052191
1.2051067
1.2049945
1.2048826
1.2047712
1.2046604
1.2045504
1.2044413
1.2043334
1.2042269
1.2061885
1.206092
1.2059843
1.2058969
1.2058159
1.2056988
1.2055789
1.20547
1.2053651
1.2052593
1.2051523
1.2050447
1.2049372
1.20483
1.2047232
1.204617
1.2045114
1.2044068
1.2043033
1.2061671
1.2060761
1.2059846
1.205887
1.2058011
1.2057187
1.2056084
1.2054973
1.2053928
1.2052914
1.2051898
1.205087
1.2049838
1.2048806
1.2047777
1.2046753
1.2045735
1.2044725
1.2043723
1.2061476
1.2060635
1.2059754
1.205884
1.2057895
1.2057118
1.2056326
1.2055235
1.2054153
1.2053147
1.2052178
1.2051204
1.2050221
1.2049233
1.2048245
1.2047262
1.2046283
1.204531
1.2044344
1.2061219
1.2060428
1.2059602
1.2058749
1.2057882
1.2056986
1.2056249
1.2055529
1.2054453
1.2053362
1.2052382
1.2051439
1.2050515
1.2049583
1.2048645
1.2047705
1.2046768
1.2045834
1.2044903
1.2060932
1.2060188
1.2059408
1.2058604
1.2057783
1.2056947
1.2056073
1.2055339
1.2054703
1.2053746
1.2052645
1.2051631
1.2050744
1.2049873
1.204899
1.2048097
1.20472
1.2046302
1.2045406
1.2060619
1.2059918
1.205918
1.205842
1.2057643
1.2056849
1.2056035
1.2055173
1.2054353
1.2053777
1.2053004
1.2051957
1.2051019
1.2050161
1.2049309
1.2048451
1.2047586
1.204672
1.2045853
1.2060283
1.2059621
1.2058922
1.2058201
1.2057465
1.2056714
1.2055944
1.2055159
1.2054437
1.2053678
1.2052792
1.2052041
1.2051296
1.2050454
1.2049603
1.2048761
1.2047921
1.2047081
1.2046242
1.2059927
1.2059302
1.205864
1.2057958
1.2057262
1.2056555
1.2055836
1.2055106
1.2054372
1.2053645
1.2052989
1.2052259
1.2051397
1.2050579
1.2049794
1.2048998
1.2048192
1.2047383
1.2059558
1.2058968
1.2058344
1.2057701
1.2057046
1.2056383
1.205571
1.2055024
1.2054314
1.2053584
1.2053063
1.2052479
1.2051553
1.2050659
1.2049888
1.2049145
1.2048397
1.2047632
1.2059179
1.2058623
1.2058032
1.2057425
1.2056807
1.2056178
1.2055539
1.2054887
1.205422
1.2053532
1.2052819
1.2052255
1.205176
1.2050974
1.2050103
1.2049298
1.204856
1.2047834
1.2058792
1.2058267
1.2057709
1.2057135
1.2056551
1.2055956
1.205535
1.2054734
1.2054106
1.2053464
1.2052802
1.2052084
1.2051422
1.2050986
1.2050398
1.2049564
1.204874
1.2047993
1.2058396
1.20579
1.2057372
1.2056829
1.2056275
1.2055711
1.2055134
1.2054547
1.2053947
1.2053334
1.2052708
1.2052082
1.2051494
1.2050846
1.2050286
1.2049792
1.2049008
1.2048157
1.2057994
1.2057525
1.2057025
1.2056511
1.2055987
1.2055452
1.2054906
1.2054349
1.2053782
1.2053205
1.2052618
1.2052019
1.2051414
1.2050809
1.2050171
1.2049627
1.2049165
1.2048442
1.2057586
1.2057143
1.2056669
1.2056182
1.2055686
1.2055179
1.2054661
1.2054133
1.2053594
1.2053046
1.2052489
1.2051923
1.2051349
1.2050761
1.2050172
1.2049568
1.2048938
1.2048323
1.2057173
1.2056753
1.2056304
1.2055843
1.2055373
1.2054892
1.20544
1.2053897
1.2053384
1.2052862
1.205233
1.2051788
1.2051236
1.2050674
1.2050095
1.2049499
1.2048876
1.2048368
1.2056756
1.2056358
1.2055932
1.2055495
1.2055049
1.2054593
1.2054126
1.2053649
1.2053161
1.2052664
1.2052158
1.2051642
1.2051118
1.2050583
1.2050033
1.2049462
1.204903
1.2048581
1.2056336
1.2055959
1.2055555
1.205514
1.2054717
1.2054284
1.2053841
1.2053388
1.2052925
1.2052453
1.2051971
1.2051481
1.2050982
1.2050474
1.2049955
1.204942
1.2048881
1.2048437
1.2055915
1.2055558
1.2055174
1.205478
1.2054378
1.2053968
1.2053547
1.2053117
1.2052678
1.2052229
1.205177
1.2051303
1.2050827
1.2050342
1.2049848
1.2049344
1.2048826
1.2048273
1.2055495
1.2055155
1.2054791
1.2054417
1.2054035
1.2053645
1.2053246
1.2052837
1.205242
1.2051993
1.2051558
1.2051114
1.2050661
1.20502
1.2049731
1.2049254
1.2048768
1.2048277
1.2055076
1.2054753
1.2054406
1.2054051
1.2053688
1.2053318
1.2052938
1.205255
1.2052153
1.2051747
1.2051333
1.2050911
1.205048
1.205004
1.2049593
1.2049137
1.2048672
1.2048198
1.2054657
1.2054351
1.2054021
1.2053684
1.205334
1.2052987
1.2052627
1.2052257
1.205188
1.2051494
1.20511
1.2050699
1.2050289
1.2049871
1.2049446
1.2049014
1.2048574
1.2048127
1.205424
1.2053949
1.2053636
1.2053315
1.2052988
1.2052654
1.2052311
1.205196
1.2051601
1.2051234
1.2050859
1.2050477
1.2050087
1.2049689
1.2049284
1.2048872
1.2048452
1.2048026
1.2053824
1.2053548
1.205325
1.2052946
1.2052635
1.2052317
1.2051991
1.2051658
1.2051316
1.2050967
1.205061
1.2050246
1.2049874
1.2049494
1.2049107
1.2048713
1.2048311
1.2047902
1.205341
1.2053147
1.2052864
1.2052574
1.2052279
1.2051977
1.2051667
1.205135
1.2051025
1.2050693
1.2050353
1.2050006
1.2049651
1.2049289
1.204892
1.2048543
1.2048159
1.2047767
1.2052998
1.2052748
1.2052478
1.2052202
1.2051921
1.2051634
1.2051339
1.2051037
1.2050728
1.2050412
1.2050089
1.2049758
1.2049419
1.2049074
1.2048721
1.2048361
1.2047994
1.2047621
1.2052588
1.205235
1.2052093
1.2051831
1.2051563
1.2051289
1.2051009
1.2050721
1.2050427
1.2050126
1.2049817
1.2049502
1.2049179
1.204885
1.2048513
1.204817
1.204782
1.2047463
1.205218
1.2051954
1.2051709
1.205146
1.2051205
1.2050944
1.2050677
1.2050403
1.2050123
1.2049836
1.2049542
1.2049241
1.2048933
1.2048619
1.2048298
1.2047971
1.2047637
1.2047297
1.2051776
1.205156
1.2051327
1.2051089
1.2050847
1.2050599
1.2050345
1.2050084
1.2049817
1.2049543
1.2049263
1.2048976
1.2048683
1.2048384
1.2048078
1.2047766
1.2047447
1.2047123
1.2051373
1.2051168
1.2050947
1.205072
1.205049
1.2050254
1.2050012
1.2049763
1.2049509
1.2049249
1.2048982
1.2048709
1.204843
1.2048144
1.2047852
1.2047554
1.204725
1.2046941
1.2050974
1.2050779
1.2050568
1.2050352
1.2050133
1.2049908
1.2049678
1.2049442
1.20492
1.2048952
1.2048698
1.2048439
1.2048173
1.2047901
1.2047623
1.2047338
1.2047048
1.2046752
1.2050578
1.2050392
1.2050191
1.2049986
1.2049777
1.2049563
1.2049344
1.2049119
1.2048889
1.2048653
1.2048412
1.2048165
1.2047912
1.2047653
1.2047388
1.2047117
1.204684
1.2046557
1.2050185
1.2050008
1.2049817
1.2049621
1.2049422
1.2049219
1.204901
1.2048796
1.2048577
1.2048353
1.2048123
1.2047888
1.2047647
1.20474
1.2047148
1.204689
1.2046626
1.2046356
1.2049795
1.2049627
1.2049444
1.2049259
1.2049069
1.2048876
1.2048677
1.2048473
1.2048265
1.2048051
1.2047832
1.2047609
1.2047379
1.2047144
1.2046904
1.2046658
1.2046406
1.2046149
1.2049409
1.2049248
1.2049075
1.2048898
1.2048718
1.2048533
1.2048344
1.204815
1.2047952
1.2047748
1.204754
1.2047327
1.2047108
1.2046885
1.2046656
1.2046422
1.2046182
1.2045937
1.2049025
1.2048873
1.2048708
1.2048539
1.2048368
1.2048192
1.2048012
1.2047828
1.2047639
1.2047445
1.2047246
1.2047043
1.2046835
1.2046622
1.2046404
1.2046181
1.2045953
1.2045719
1.2048646
1.2048501
1.2048344
1.2048183
1.204802
1.2047853
1.2047682
1.2047506
1.2047326
1.2047142
1.2046952
1.2046759
1.2046561
1.2046358
1.204615
1.2045937
1.204572
1.2045497
1.204827
1.2048132
1.2047983
1.204783
1.2047675
1.2047516
1.2047353
1.2047186
1.2047014
1.2046839
1.2046659
1.2046474
1.2046285
1.2046092
1.2045894
1.2045691
1.2045484
1.2045272
1.2047899
1.2047768
1.2047625
1.204748
1.2047333
1.2047182
1.2047027
1.2046867
1.2046704
1.2046537
1.2046366
1.204619
1.204601
1.2045826
1.2045637
1.2045444
1.2045246
1.2045044
1.2047532
1.2047407
1.2047272
1.2047134
1.2046994
1.204685
1.2046702
1.2046551
1.2046396
1.2046237
1.2046073
1.2045906
1.2045735
1.204556
1.204538
1.2045196
1.2045008
1.2044815
1.204717
1.2047051
1.2046922
1.2046791
1.2046658
1.2046521
1.204638
1.2046237
1.2046089
1.2045938
1.2045782
1.2045623
1.204546
1.2045293
1.2045122
1.2044947
1.2044768
1.2044584
1.2046812
1.2046699
1.2046577
1.2046452
1.2046325
1.2046195
1.2046061
1.2045924
1.2045784
1.204564
1.2045492
1.2045341
1.2045186
1.2045027
1.2044865
1.2044698
1.2044527
1.2044352
1.2046459
1.2046352
1.2046235
1.2046116
1.2045996
1.2045872
1.2045745
1.2045615
1.2045481
1.2045344
1.2045204
1.204506
1.2044912
1.2044761
1.2044606
1.2044448
1.2044285
1.2044119
1.2046111
1.2046009
1.2045898
1.2045785
1.204567
1.2045552
1.2045431
1.2045307
1.204518
1.204505
1.2044916
1.204478
1.2044639
1.2044495
1.2044348
1.2044197
1.2044043
1.2043884
1.2045767
1.204567
1.2045564
1.2045457
1.2045348
1.2045236
1.2045121
1.2045003
1.2044882
1.2044758
1.2044631
1.2044501
1.2044367
1.204423
1.204409
1.2043946
1.2043799
1.2043648
1.2045428
1.2045335
1.2045235
1.2045133
1.2045029
1.2044923
1.2044814
1.2044702
1.2044587
1.2044469
1.2044348
1.2044224
1.2044097
1.2043966
1.2043833
1.2043696
1.2043556
1.2043412
1.2045093
1.2045005
1.204491
1.2044813
1.2044715
1.2044614
1.204451
1.2044403
1.2044294
1.2044182
1.2044067
1.2043949
1.2043828
1.2043704
1.2043577
1.2043447
1.2043313
1.2043176
1.2044763
1.204468
1.204459
1.2044498
1.2044404
1.2044308
1.204421
1.2044108
1.2044005
1.2043898
1.2043789
1.2043677
1.2043562
1.2043444
1.2043323
1.2043198
1.2043071
1.2044439
1.204436
1.2044274
1.2044187
1.2044098
1.2044007
1.2043913
1.2043817
1.2043718
1.2043617
1.2043513
1.2043407
1.2043297
1.2043185
1.204307
1.2042952
1.2042831
1.204412
1.2044045
1.2043963
1.204388
1.2043796
1.2043709
1.2043621
1.2043529
1.2043436
1.204334
1.2043241
1.204314
1.2043036
1.204293
1.204282
1.2042708
1.2042593
1.2043807
1.2043735
1.2043658
1.2043579
1.2043499
1.2043417
1.2043333
1.2043246
1.2043157
1.2043066
1.2042973
1.2042876
1.2042778
1.2042677
1.2042573
1.2042466
1.2042357
1.20435
1.2043432
1.2043358
1.2043284
1.2043208
1.204313
1.204305
1.2042968
1.2042883
1.2042797
1.2042708
1.2042617
1.2042523
1.2042427
1.2042328
1.2042227
1.2042123
1.2043199
1.2043134
1.2043065
1.2042994
1.2042922
1.2042848
1.2042772
1.2042694
1.2042614
1.2042532
1.2042448
1.2042361
1.2042272
1.2042181
1.2042087
1.2041991
1.2041893
1.2042904
1.2042843
1.2042777
1.204271
1.2042642
1.2042572
1.20425
1.2042426
1.204235
1.2042272
1.2042192
1.204211
1.2042025
1.2041939
1.204185
1.2041758
1.2041665
1.2042615
1.2042557
1.2042495
1.2042431
1.2042367
1.20423
1.2042232
1.2042162
1.204209
1.2042016
1.204194
1.2041862
1.2041782
1.20417
1.2041616
1.2041529
1.204144
1.2042332
1.2042277
1.2042218
1.2042158
1.2042097
1.2042034
1.204197
1.2041903
1.2041835
1.2041765
1.2041693
1.204162
1.2041544
1.2041466
1.2041386
1.2041303
1.2041219
1.2042054
1.2042003
1.2041947
1.204189
1.2041832
1.2041773
1.2041712
1.2041649
1.2041585
1.2041519
1.204145
1.204138
1.2041309
1.2041235
1.2041159
1.2041081
1.2041001
1.2041783
1.2041734
1.2041681
1.2041628
1.2041573
1.2041517
1.2041459
1.20414
1.2041339
1.2041276
1.2041212
1.2041145
1.2041077
1.2041007
1.2040935
1.2040861
1.2040785
1.2041518
1.2041472
1.2041422
1.2041371
1.2041319
1.2041266
1.2041211
1.2041155
1.2041097
1.2041038
1.2040977
1.2040914
1.204085
1.2040783
1.2040715
1.2040645
1.2040573
1.204126
1.2041216
1.2041169
1.2041121
1.2041072
1.2041021
1.2040969
1.2040916
1.2040861
1.2040805
1.2040747
1.2040687
1.2040626
1.2040563
1.2040499
1.2040432
1.2040364
1.2041009
1.2040967
1.2040922
1.2040877
1.204083
1.2040782
1.2040733
1.2040682
1.204063
1.2040577
1.2040522
1.2040466
1.2040408
1.2040348
1.2040287
1.2040224
1.2040159
1.2040764
1.2040725
1.2040682
1.2040639
1.2040595
1.2040549
1.2040503
1.2040455
1.2040405
1.2040355
1.2040303
1.2040249
1.2040194
1.2040138
1.204008
1.204002
1.2039958
1.2040526
1.2040489
1.2040448
1.2040407
1.2040365
1.2040322
1.2040278
1.2040233
1.2040186
1.2040138
1.2040089
1.2040038
1.2039986
1.2039932
1.2039877
1.2039821
1.2039762
1.2040294
1.2040259
1.2040221
1.2040182
1.2040142
1.2040102
1.204006
1.2040017
1.2039973
1.2039927
1.203988
1.2039832
1.2039783
1.2039732
1.203968
1.2039626
1.2039571
1.2040069
1.2040035
1.2039999
1.2039962
1.2039925
1.2039887
1.2039847
1.2039807
1.2039765
1.2039722
1.2039678
1.2039632
1.2039585
1.2039537
1.2039488
1.2039437
1.2039385
1.203985
1.2039818
1.2039784
1.2039749
1.2039714
1.2039678
1.2039641
1.2039602
1.2039563
1.2039522
1.203948
1.2039437
1.2039393
1.2039348
1.2039301
1.2039253
1.2039203
1.2039637
1.2039608
1.2039575
1.2039543
1.2039509
1.2039475
1.203944
1.2039404
1.2039366
1.2039328
1.2039289
1.2039248
1.2039206
1.2039163
1.2039119
1.2039073
1.2039026
1.2039432
1.2039404
1.2039374
1.2039343
1.2039311
1.2039279
1.2039246
1.2039212
1.2039176
1.203914
1.2039103
1.2039064
1.2039025
1.2038984
1.2038942
1.2038899
1.2038855
1.2039235
1.2039208
1.2039179
1.203915
1.203912
1.203909
1.2039058
1.2039026
1.2038993
1.2038958
1.2038923
1.2038887
1.2038849
1.2038811
1.2038771
1.203873
1.2038688
1.2039044
1.2039019
1.2038992
1.2038964
1.2038936
1.2038907
1.2038877
1.2038847
1.2038815
1.2038783
1.2038749
1.2038715
1.2038679
1.2038643
1.2038605
1.2038567
1.2038527
1.203886
1.2038836
1.2038811
1.2038785
1.2038758
1.2038731
1.2038703
1.2038674
1.2038644
1.2038613
1.2038582
1.2038549
1.2038516
1.2038481
1.2038445
1.2038409
1.2038683
1.2038661
1.2038637
1.2038612
1.2038587
1.2038561
1.2038534
1.2038507
1.2038479
1.203845
1.203842
1.2038389
1.2038357
1.2038325
1.2038291
1.2038256
1.2038513
1.2038492
1.2038469
1.2038446
1.2038422
1.2038398
1.2038372
1.2038347
1.203832
1.2038292
1.2038264
1.2038235
1.2038205
1.2038174
1.2038142
1.2038109
1.203835
1.203833
1.2038308
1.2038286
1.2038264
1.2038241
1.2038217
1.2038192
1.2038167
1.2038141
1.2038114
1.2038087
1.2038058
1.2038029
1.2037999
1.2037968
1.2038195
1.2038175
1.2038155
1.2038134
1.2038113
1.2038091
1.2038068
1.2038045
1.2038021
1.2037997
1.2037971
1.2037945
1.2037918
1.203789
1.2037862
1.2037832
1.2038046
1.2038028
1.2038009
1.2037989
1.2037969
1.2037948
1.2037927
1.2037905
1.2037882
1.2037859
1.2037835
1.203781
1.2037784
1.2037758
1.2037731
1.2037703
1.2037905
1.2037888
1.203787
1.2037851
1.2037832
1.2037812
1.2037792
1.2037771
1.203775
1.2037728
1.2037705
1.2037681
1.2037657
1.2037632
1.2037606
1.203758
1.2037772
1.2037756
1.2037738
1.2037721
1.2037702
1.2037684
1.2037665
1.2037645
1.2037624
1.2037603
1.2037582
1.2037559
1.2037536
1.2037513
1.2037488
1.2037463
1.2037646
1.203763
1.2037614
1.2037597
1.203758
1.2037562
1.2037544
1.2037525
1.2037506
1.2037486
1.2037466
1.2037444
1.2037423
1.20374
1.2037377
1.2037353
1.2037527
1.2037512
1.2037497
1.2037481
1.2037465
1.2037448
1.2037431
1.2037413
1.2037394
1.2037376
1.2037356
1.2037336
1.2037315
1.2037294
1.2037272
1.2037249
1.2037415
1.2037401
1.2037386
1.2037371
1.2037356
1.203734
1.2037324
1.2037307
1.203729
1.2037272
1.2037253
1.2037234
1.2037214
1.2037194
1.2037173
1.2037152
1.203731
1.2037297
1.2037283
1.2037269
1.2037254
1.2037239
1.2037224
1.2037208
1.2037191
1.2037174
1.2037157
1.2037139
1.203712
1.2037101
1.2037081
1.2037061
1.2037212
1.20372
1.2037187
1.2037173
1.2037159
1.2037145
1.2037131
1.2037115
1.20371
1.2037084
1.2037067
1.203705
1.2037032
1.2037014
1.2036995
1.2036976
1.2037122
1.203711
1.2037097
1.2037085
1.2037071
1.2037058
1.2037044
1.203703
1.2037015
1.2037
1.2036984
1.2036968
1.2036951
1.2036934
1.2036916
1.2036898
1.2037038
1.2037027
1.2037015
1.2037003
1.2036991
1.2036978
1.2036965
1.2036951
1.2036937
1.2036923
1.2036908
1.2036893
1.2036877
1.2036861
1.2036844
1.2036827
1.2036963
1.2036952
1.2036941
1.203693
1.2036918
1.2036906
1.2036893
1.203688
1.2036867
1.2036853
1.2036839
1.2036825
1.203681
1.2036794
1.2036778
1.2036762
1.2036895
1.2036885
1.2036875
1.2036864
1.2036852
1.2036841
1.2036829
1.2036817
1.2036804
1.2036791
1.2036778
1.2036764
1.203675
1.2036735
1.2036719
1.2036836
1.2036826
1.2036816
1.2036805
1.2036795
1.2036784
1.2036772
1.2036761
1.2036749
1.2036736
1.2036723
1.203671
1.2036696
1.2036682
1.2036667
1.2036783
1.2036774
1.2036765
1.2036755
1.2036744
1.2036734
1.2036723
1.2036712
1.20367
1.2036688
1.2036676
1.2036663
1.2036649
1.2036635
1.2036621
1.2036739
1.203673
1.2036721
1.2036711
1.2036701
1.2036691
1.203668
1.203667
1.2036658
1.2036647
1.2036635
1.2036622
1.2036609
1.2036596
1.2036582
1.2036702
1.2036693
1.2036684
1.2036675
1.2036665
1.2036655
1.2036645
1.2036634
1.2036623
1.2036612
1.20366
1.2036588
1.2036576
1.2036563
1.2036549
1.2036672
1.2036663
1.2036655
1.2036646
1.2036636
1.2036627
1.2036617
1.2036606
1.2036596
1.2036585
1.2036573
1.2036562
1.203655
1.2036537
1.2036524
1.2036651
1.2036642
1.2036634
1.2036625
1.2036616
1.2036607
1.2036597
1.2036587
1.2036577
1.2036566
1.2036555
1.2036544
1.2036532
1.203652
1.2036507
1.2036639
1.2036631
1.2036622
1.2036614
1.2036605
1.2036596
1.2036586
1.2036577
1.2036567
1.2036556
1.2036546
1.2036535
1.2036523
1.2036512
1.20365
1.2036637
1.2036629
1.2036621
1.2036613
1.2036605
1.2036596
1.2036587
1.2036577
1.2036567
1.2036557
1.2036547
1.2036536
1.2036525
1.2036514
1.2036502
1.2036645
1.2036637
1.203663
1.2036622
1.2036613
1.2036605
1.2036596
1.2036587
1.2036578
1.2036568
1.2036558
1.2036548
1.2036537
1.2036526
1.2036514
1.2036666
1.2036659
1.2036652
1.2036644
1.2036636
1.2036628
1.2036619
1.2036611
1.2036602
1.2036592
1.2036583
1.2036572
1.2036562
1.2036551
1.203654
1.2036693
1.2036686
1.2036679
1.2036671
1.2036664
1.2036656
1.2036647
1.2036639
1.203663
1.2036621
1.2036611
1.2036601
1.2036591
1.203658
1.2036711
1.2036705
1.2036698
1.2036692
1.2036685
1.2036678
1.2036671
1.2036663
1.2036655
1.2036646
1.2036637
1.2036628
1.2036618
1.2036608
1.1829231
1.182453
1.1821774
1.1819715
1.1820117
1.1825342
1.1836169
1.1850981
1.186686
1.1881416
1.1892894
1.190115
1.1906987
1.191158
1.1915588
1.1919181
1.1922077
1.1924596
1.1927082
1.1827729
1.1824259
1.1822944
1.182394
1.1829309
1.1840773
1.1856592
1.1873785
1.1888119
1.189819
1.1904772
1.1909059
1.1912193
1.1915177
1.1918374
1.192115
1.1923397
1.1925747
1.1826083
1.1823798
1.182395
1.1827863
1.1837266
1.1851579
1.1867901
1.1882713
1.1894271
1.1902175
1.1907294
1.1910892
1.1914032
1.1917162
1.1919911
1.1922279
1.1924696
1.192719
1.1825046
1.1823928
1.1826277
1.1834144
1.1847606
1.1864061
1.1879883
1.1892499
1.1901048
1.1906256
1.190977
1.191271
1.1915664
1.1918609
1.1921195
1.1923632
1.1926083
1.1824948
1.182545
1.1831317
1.1843606
1.1859819
1.187611
1.1889323
1.1898376
1.190413
1.1908058
1.1911179
1.1914155
1.1917301
1.1920112
1.1922453
1.1924884
1.1927338
1.1825727
1.1829454
1.18396
1.1855241
1.1872047
1.188614
1.1895988
1.1902292
1.1906525
1.1909777
1.1912759
1.1915844
1.1918774
1.192125
1.1923684
1.192617
1.1827825
1.1836266
1.1850572
1.1867569
1.1882633
1.1893386
1.1900218
1.1904685
1.190806
1.1911087
1.1914197
1.191747
1.1920075
1.1922406
1.1924922
1.1927396
1.1832632
1.1845861
1.1862689
1.1878657
1.1890484
1.1897999
1.1902799
1.1906363
1.1909478
1.1912584
1.1915868
1.1918728
1.1921104
1.1923627
1.1926146
1.1840459
1.1857307
1.1874221
1.1887254
1.1895602
1.1900797
1.1904553
1.1907764
1.1910834
1.1914076
1.1917214
1.1919817
1.1922333
1.192485
1.1927298
1.1851389
1.1869339
1.1883664
1.1892959
1.1898634
1.1902606
1.1905959
1.1909073
1.1912241
1.1915681
1.1918484
1.1920867
1.1923421
1.1925947
1.1863601
1.1879573
1.1890003
1.1896266
1.1900507
1.1904017
1.1907254
1.1910424
1.1913751
1.1916845
1.1919368
1.1921959
1.1924546
1.1927034
1.1874656
1.1886755
1.1893753
1.1898268
1.1901926
1.190528
1.1908498
1.1911751
1.1915172
1.1917929
1.1920373
1.1923003
1.1925572
1.1928029
1.1882847
1.1890998
1.1895873
1.1899659
1.1903144
1.1906468
1.1909754
1.1913117
1.1916102
1.1918703
1.1921386
1.1924032
1.1926567
1.1887784
1.1893279
1.1897246
1.1900819
1.1904247
1.1907569
1.1910921
1.1914304
1.1917058
1.191962
1.1922348
1.1924986
1.1927495
1.1890386
1.1894642
1.189833
1.1901841
1.1905234
1.1908539
1.191186
1.1915074
1.1917977
1.1920673
1.1923315
1.1925897
1.1928384
1.1891763
1.1895622
1.1899257
1.1902776
1.190624
1.1909657
1.1912791
1.1915793
1.1918719
1.1921501
1.1924143
1.1926712
1.1892613
1.1896399
1.1900035
1.1903593
1.1907111
1.1910513
1.1913714
1.1916518
1.1919238
1.1922153
1.1924901
1.1927494
1.1893201
1.1896986
1.1900638
1.1904231
1.1907719
1.1910838
1.1914147
1.1917441
1.1920225
1.1922923
1.1925643
1.1928263
1.1893552
1.1897382
1.1901106
1.1904746
1.1908178
1.1911382
1.1914726
1.191797
1.1920922
1.1923679
1.1926375
1.1929002
1.1893656
1.1897581
1.1901414
1.1905101
1.1908533
1.1912018
1.1915372
1.1918398
1.1921415
1.1924262
1.1927015
1.1893512
1.189759
1.1901509
1.1905158
1.190865
1.1912449
1.1915837
1.1918804
1.192198
1.1924902
1.1927688
1.1893146
1.1897398
1.1901404
1.1905147
1.1908794
1.1912406
1.1916084
1.1919669
1.192275
1.1925549
1.1928332
1.1892528
1.1896977
1.1901149
1.190526
1.1909377
1.1913001
1.1916321
1.191975
1.1922909
1.1925958
1.1928894
1.1891594
1.1896199
1.1900599
1.1904906
1.1909299
1.191358
1.1917006
1.1919809
1.1923018
1.1926394
1.192949
1.1890386
1.1895335
1.1900032
1.190437
1.1908806
1.1913438
1.191729
1.192062
1.1923877
1.1927073
1.1930165
1.188901
1.1894492
1.1899707
1.1904384
1.1908844
1.1913363
1.1917328
1.1921038
1.1924403
1.1927669
1.1930809
1.1887641
1.1893459
1.1899062
1.1904596
1.1909714
1.1913528
1.1917344
1.1921319
1.1924849
1.192822
1.1931446
1.1886558
1.1892896
1.1898434
1.1904179
1.1909749
1.191403
1.1917729
1.1921416
1.192531
1.1928861
1.193215
1.1885257
1.1892451
1.1898458
1.1903904
1.1909138
1.1913835
1.1918103
1.1922199
1.1925985
1.1929538
1.1932877
1.1883836
1.1891211
1.1898557
1.1905073
1.1909953
1.1914291
1.191857
1.1922658
1.192658
1.1930228
1.1933636
1.1884481
1.1891418
1.1898213
1.1904544
1.1909403
1.1914288
1.1919117
1.1923385
1.1927334
1.1931024
1.1934474
1.1937716
1.188511
1.1892879
1.1899614
1.1905227
1.1909516
1.1914419
1.1919492
1.1924019
1.19281
1.1931867
1.1935374
1.1938655
1.1884039
1.1892157
1.1899308
1.1904801
1.1910577
1.1915724
1.1920491
1.1924941
1.1929037
1.1932832
1.1936367
1.193967
1.1885337
1.1892407
1.1898397
1.1904658
1.1911034
1.1916562
1.1921487
1.1925975
1.19301
1.1933915
1.1937461
1.1940771
1.1885048
1.1893408
1.1900267
1.1906532
1.1912374
1.1917777
1.192268
1.1927169
1.1931302
1.193512
1.1938663
1.1941964
1.1945052
1.1885976
1.1894512
1.19018
1.1908253
1.1914021
1.19193
1.1924134
1.1928575
1.1932673
1.1936462
1.1939979
1.1943254
1.1946314
1.1889903
1.1897209
1.1903918
1.1910105
1.1915796
1.1921002
1.1925776
1.1930161
1.1934203
1.1937942
1.1941412
1.1944642
1.1947659
1.1892832
1.1900008
1.1906483
1.1912461
1.1917954
1.1923007
1.1927658
1.1931943
1.19359
1.1939563
1.1942964
1.1946132
1.194909
1.1951862
1.1896684
1.1903377
1.1909466
1.191516
1.1920432
1.1925294
1.1929781
1.1933929
1.1937769
1.194133
1.1944641
1.1947726
1.1950611
1.1953315
1.1901089
1.1907285
1.1912936
1.1918277
1.1923256
1.1927873
1.1932153
1.1936125
1.1939816
1.1943249
1.1946446
1.1949431
1.1952225
1.1954847
1.1905967
1.191163
1.1916815
1.1921767
1.1926414
1.1930745
1.1934779
1.1938539
1.1942049
1.1945325
1.1948386
1.195125
1.1953937
1.1956463
1.1958843
1.1911385
1.1916442
1.1921107
1.1925628
1.1929901
1.1933908
1.193766
1.1941176
1.1944473
1.1947566
1.1950467
1.1953191
1.1955754
1.195817
1.196045
1.1917252
1.1921676
1.1925789
1.1929846
1.1933712
1.1937362
1.19408
1.1944039
1.1947096
1.194998
1.1952698
1.195526
1.1957682
1.1959972
1.196214
1.1964197
1.1923564
1.1927316
1.1930841
1.1934407
1.1937836
1.1941101
1.1944198
1.1947134
1.1949922
1.1952574
1.1955088
1.1957468
1.1959731
1.1961881
1.1963922
1.1965866
1.1930284
1.1933342
1.1936244
1.193929
1.1942253
1.194511
1.1947847
1.1950457
1.1952952
1.1955348
1.1957641
1.1959821
1.1961905
1.1963902
1.1965804
1.1967621
1.1969363
1.1937399
1.1939768
1.1942001
1.1944486
1.1946939
1.1949357
1.1951718
1.1953989
1.1956167
1.1958283
1.1960339
1.1962303
1.1964191
1.196602
1.196777
1.1969447
1.1971065
1.1944792
1.1946568
1.1948131
1.1950025
1.1951907
1.1953831
1.1955788
1.1957706
1.1959541
1.1961345
1.1963144
1.1964876
1.1966544
1.1968188
1.1969776
1.1971298
1.197278
1.1974217
1.1952023
1.1953496
1.1954568
1.1955989
1.1957288
1.1958634
1.1960119
1.1961662
1.1963133
1.1964573
1.1966082
1.1967564
1.1968985
1.1970419
1.1971833
1.1973187
1.1974518
1.1975827
1.1958663
1.196002
1.1961075
1.196242
1.1963249
1.1963968
1.1964895
1.1966068
1.1967205
1.1968242
1.1969418
1.1970645
1.1971798
1.1972991
1.1974216
1.1975387
1.1976543
1.1977709
1.1978839
1.1834586
1.1834217
1.1831602
1.1829875
1.1830991
1.1835505
1.1843919
1.185536
1.1869347
1.188264
1.1893401
1.1901327
1.1906944
1.1911141
1.191464
1.1917879
1.1920934
1.1923637
1.1926133
1.1834035
1.1833218
1.1831389
1.1829899
1.183068
1.1834605
1.1842304
1.185406
1.1867868
1.1881399
1.1892662
1.1901009
1.1906865
1.1911052
1.191446
1.1917691
1.1920724
1.1923439