/*--------------------------------*- C++ -*----------------------------------*\
| =========                 |                                                 |
| \\      /  F ield         | OpenFOAM: The Open Source CFD Toolbox           |
|  \\    /   O peration     | Version:  2406                                  |
|   \\  /    A nd           | Website:  www.openfoam.com                      |
|    \\/     M anipulation  |                                                 |
\*---------------------------------------------------------------------------*/
FoamFile
{
    version     2.0;
    format      ascii;
    arch        "LSB;label=32;scalar=64";
    class       volVectorField;
    location    "0.02";
    object      UMean;
}
// * * * * * * * * * * * * * * * * * * * * * * * * * * * * * * * * * * * * * //

dimensions      [0 1 -1 0 0 0 0];

internalField   nonuniform List<vector> 
23203
(
(43.596018 31.226875 -6.3387374e-21)
(44.571938 30.229538 2.5217336e-20)
(45.397581 29.348617 -1.2402422e-20)
(46.191789 28.450041 -1.2177374e-20)
(46.921309 27.58245 -1.1617162e-20)
(47.589027 26.725555 1.1073999e-20)
(48.195087 25.881381 1.0619479e-20)
(48.742686 25.059527 0)
(49.238968 24.251819 -9.7004168e-21)
(49.685466 23.46846 -6.2431434e-24)
(50.089121 22.709332 -8.8459145e-21)
(50.45264 21.974942 -8.5148884e-21)
(50.778194 21.267276 0)
(51.071627 20.585873 0)
(51.33591 19.929296 7.8595472e-21)
(51.572418 19.299366 -3.6974391e-24)
(51.784694 18.694815 -1.5468012e-20)
(51.97494 18.114277 -7.6825427e-21)
(52.144426 17.558126 -1.4959081e-24)
(42.745476 30.321801 -6.8277304e-21)
(43.747518 29.390786 -1.9935157e-20)
(44.632065 28.527018 0)
(45.416418 27.73796 -1.2313118e-20)
(46.146638 26.955613 2.3942089e-20)
(46.83639 26.15662 -1.1512679e-20)
(47.458203 25.390337 7.5390308e-24)
(48.021607 24.644011 0)
(48.541566 23.894029 1.0599135e-20)
(49.014017 23.166198 2.066584e-20)
(49.445124 22.456701 -1.3608068e-24)
(49.836198 21.765989 1.9630119e-20)
(50.189382 21.098897 0)
(50.511012 20.452997 -9.3578138e-21)
(50.802674 19.826568 1.8293622e-20)
(51.065128 19.224221 -2.8118998e-24)
(51.303139 18.643236 8.7556562e-21)
(51.518379 18.082566 8.5773928e-21)
(51.712 17.543834 0)
(41.804366 29.370593 -1.7142255e-23)
(42.76195 28.583649 -1.2709127e-20)
(43.643279 27.850511 -6.1498195e-21)
(44.465614 27.134242 5.9521633e-21)
(45.227339 26.42769 1.1556011e-20)
(45.9328 25.724464 -1.1226597e-20)
(46.588123 25.020572 -1.0914647e-20)
(47.201242 24.301204 -1.053455e-20)
(47.752967 23.614031 4.5621905e-24)
(48.254222 22.949034 0)
(48.71863 22.28439 2.6815014e-24)
(49.145254 21.6321 -8.5084606e-25)
(49.53314 21.002182 2.1965968e-24)
(49.888054 20.3883 -9.1777115e-21)
(50.21226 19.787937 1.7963421e-20)
(50.506268 19.210128 -1.75906e-20)
(50.774859 18.649878 1.7237274e-20)
(51.019249 18.106582 0)
(51.240737 17.58325 -8.2873756e-21)
(41.027367 28.374504 1.1284733e-20)
(41.971915 27.689588 -1.2141374e-20)
(42.858706 27.04798 5.8933931e-21)
(43.684566 26.422612 0)
(44.457003 25.793929 -1.1144633e-20)
(45.177973 25.159766 2.170097e-20)
(45.847261 24.521846 1.0572309e-20)
(46.465771 23.890253 -1.0319001e-20)
(47.042468 23.258091 0)
(47.575588 22.627686 9.828526e-21)
(48.067907 22.004076 0)
(48.51954 21.399327 -9.2493901e-21)
(48.929581 20.818041 2.1612584e-24)
(49.308604 20.240562 -8.9521758e-21)
(49.659814 19.668459 0)
(49.98003 19.120245 0)
(50.273859 18.58517 1.832638e-24)
(50.542808 18.06307 -8.3178465e-21)
(50.788421 17.559265 8.166774e-21)
(40.351097 27.392672 5.330409e-21)
(41.267499 26.80882 1.1623012e-20)
(42.135969 26.261229 -5.6646242e-21)
(42.957228 25.719126 1.1045089e-20)
(43.731653 25.168714 -1.0774706e-20)
(44.459674 24.605008 -1.0514502e-20)
(45.141139 24.034248 0)
(45.778933 23.458182 -2.2554107e-24)
(46.371187 22.882269 9.8112103e-21)
(46.919742 22.310718 5.7593538e-24)
(47.42956 21.744555 9.398589e-21)
(47.90422 21.182081 9.1959927e-21)
(48.343794 20.62247 2.7810403e-24)
(48.748991 20.071767 8.7829275e-21)
(49.122665 19.537508 8.5546161e-21)
(49.464278 19.023323 -5.1030214e-25)
(49.780057 18.513783 -8.2977372e-21)
(50.072244 18.012282 1.622127e-24)
(50.340538 17.528711 1.4535816e-24)
(39.775783 26.419761 0)
(40.669351 25.922343 -5.579698e-21)
(41.522298 25.453601 1.0911737e-20)
(42.333376 24.986129 -1.0668837e-20)
(43.102322 24.506322 -2.0857423e-20)
(43.828887 24.010719 3.0615561e-20)
(44.513354 23.502767 9.9853585e-21)
(45.156053 22.986672 -1.9544242e-20)
(45.757795 22.4674 9.5641288e-21)
(46.321274 21.94523 -1.8746925e-20)
(46.847407 21.423079 -1.837849e-20)
(47.336786 20.903457 9.0140082e-21)
(47.790624 20.389934 -1.7680286e-20)
(48.212586 19.883539 0)
(48.605882 19.382092 0)
(48.971134 18.884488 0)
(49.309373 18.394221 0)
(49.620061 17.92353 0)
(49.906413 17.465072 -1.5702035e-20)
(39.290311 25.469047 0)
(40.155291 25.050779 -5.377459e-21)
(40.984457 24.655238 2.1070625e-20)
(41.777739 24.25692 -1.5481743e-20)
(42.534798 23.843293 1.0116358e-20)
(43.254698 23.410829 -9.9145916e-21)
(43.936798 22.963149 -9.7200893e-21)
(44.581487 22.504285 1.9061456e-20)
(45.189267 22.036865 -9.3480895e-21)
(45.760124 21.564511 9.1663388e-21)
(46.295463 21.089313 2.6980506e-20)
(46.797128 20.612886 -2.6487379e-20)
(47.266745 20.136969 2.6012491e-20)
(47.70548 19.662848 -8.5188162e-21)
(48.113794 19.193558 0)
(48.493296 18.731131 0)
(48.846827 18.276234 1.9352899e-24)
(49.176615 17.825652 7.9498319e-21)
(49.482914 17.380121 7.8081362e-21)
(38.888363 24.544203 0)
(39.723438 24.195437 -5.1980997e-21)
(40.527653 23.864463 -5.0979722e-21)
(41.300794 23.52785 -1.0009376e-20)
(42.042189 23.173979 9.8276545e-21)
(42.750618 22.799492 1.9290645e-20)
(43.425326 22.407533 0)
(44.066019 22.001858 -9.2974136e-21)
(44.672919 21.585405 9.1364031e-21)
(45.246877 21.160183 -8.9703767e-21)
(45.78821 20.729022 8.8178234e-21)
(46.297733 20.293764 8.6605843e-21)
(46.776126 19.856955 0)
(47.225028 19.419798 0)
(47.645962 18.983902 8.2284006e-21)
(48.040411 18.549985 1.1322258e-24)
(48.40909 18.119418 -7.9590246e-21)
(48.752312 17.694835 -7.8302108e-21)
(49.072068 17.277435 -7.7101476e-21)
(38.562037 23.649944 8.9692463e-21)
(39.36471 23.363219 1.0067426e-20)
(40.140494 23.090438 -1.4841602e-20)
(40.889386 22.809696 1.458982e-20)
(41.610844 22.510257 4.782536e-21)
(42.303648 22.188945 -9.3998854e-21)
(42.966815 21.848577 -9.2423473e-21)
(43.599859 21.492513 0)
(44.202645 21.123401 -8.9322529e-21)
(44.775213 20.743525 0)
(45.317955 20.354899 -1.7279844e-20)
(45.831447 19.959641 -1.6994437e-20)
(46.316319 19.560032 8.3603216e-21)
(46.773588 19.157228 0)
(47.203719 18.75365 0)
(47.607947 18.350189 -7.9651082e-21)
(47.987461 17.948449 0)
(48.343605 17.549105 -7.722274e-21)
(48.677339 17.153195 -2.7077851e-24)
(38.304167 22.789426 -4.3562972e-21)
(39.073089 22.557168 9.7759177e-21)
(39.818861 22.33578 4.805975e-21)
(40.541618 22.104669 -9.4707656e-21)
(41.240805 21.853959 4.6595672e-21)
(41.915128 21.580715 -1.8349863e-20)
(42.563503 21.287434 9.0276269e-21)
(43.185237 20.977099 5.9390398e-25)
(43.779956 20.652089 -8.7469191e-21)
(44.347563 20.31447 2.5836429e-20)
(44.888146 19.966262 7.5717362e-25)
(45.401989 19.609417 1.6690574e-20)
(45.88951 19.245569 -1.6432533e-20)
(46.350954 18.877195 8.0896592e-21)
(46.787389 18.505121 0)
(47.199477 18.131197 0)
(47.587985 17.756696 0)
(47.953675 17.382749 7.6109683e-21)
(48.297472 17.010745 1.4998386e-20)
(38.107177 21.965549 1.6996509e-20)
(38.841321 21.780666 -1.4270464e-20)
(39.555582 21.604517 9.3717113e-21)
(40.25025 21.417406 -1.3855871e-20)
(40.924846 21.210215 0)
(41.578128 20.980262 8.9636616e-21)
(42.208979 20.729758 8.8349109e-21)
(42.816601 20.46133 -8.7007779e-21)
(43.400455 20.177084 -2.742334e-24)
(43.960182 19.878896 -2.5343406e-20)
(44.495607 19.568613 -8.3187334e-21)
(45.00674 19.248059 -6.5131998e-25)
(45.493817 18.918989 0)
(45.957232 18.582846 -2.1434037e-24)
(46.397074 18.241752 -1.2940439e-24)
(46.814031 17.896784 -1.546031e-20)
(47.208718 17.549319 0)
(47.581847 17.200712 0)
(47.934222 16.851946 7.4014235e-21)
(37.963959 21.179181 -4.1210553e-24)
(38.662875 21.035084 -4.6394798e-21)
(39.344949 20.89832 0)
(40.010584 20.749785 9.0203916e-21)
(40.659337 20.581069 -8.9000739e-21)
(41.289994 20.389756 -8.7764976e-21)
(41.901415 20.177797 3.2461618e-24)
(42.492724 19.947476 -8.5331041e-21)
(43.063253 19.700629 8.4103489e-21)
(43.612504 19.438915 1.6585365e-20)
(44.140139 19.164003 -1.6354476e-20)
(44.645973 18.877568 1.6123098e-20)
(45.129962 18.581246 -1.5946075e-24)
(45.592206 18.276601 -2.2325506e-24)
(46.033006 17.964971 0)
(46.452533 17.64803 7.616515e-21)
(46.851182 17.327125 -7.5106525e-21)
(47.229483 17.00326 9.8151131e-25)
(47.587967 16.677664 7.3073639e-21)
(37.868037 20.429815 -8.1375952e-21)
(38.531608 20.320822 1.3513852e-24)
(39.181174 20.21828 8.9485801e-21)
(39.81716 20.103496 -1.4127159e-24)
(40.439131 19.96872 0)
(41.045919 19.811793 8.5984171e-21)
(41.636407 19.63443 -1.6971824e-20)
(42.209686 19.438601 1.6743474e-20)
(42.76501 19.22589 -1.6524833e-20)
(43.301765 18.997749 0)
(43.819463 18.755662 8.0423554e-21)
(44.317754 18.501131 -7.9320139e-21)
(44.796428 18.235647 7.8268129e-21)
(45.255407 17.960657 7.7197765e-21)
(45.69472 17.677564 -1.5232811e-20)
(46.114548 17.387618 7.5138016e-21)
(46.51504 17.092164 0)
(46.896389 16.79263 0)
(47.259128 16.489849 -7.2115776e-21)
(37.813637 19.716373 -1.5974594e-20)
(38.442134 19.637531 1.774901e-20)
(39.059274 19.564589 0)
(39.665455 19.479191 4.3268599e-21)
(40.260226 19.37421 -1.2819632e-20)
(40.842458 19.247736 8.4405286e-21)
(41.411052 19.101276 -2.5835335e-24)
(41.965083 18.936518 -8.2274489e-21)
(42.503751 18.754807 1.6241678e-20)
(43.026361 18.557398 0)
(43.532325 18.345587 -1.5823903e-20)
(44.021174 18.12071 1.5621351e-20)
(44.492555 17.884108 -7.7101268e-21)
(44.946229 17.6371 7.6083745e-21)
(45.382078 17.380974 -1.5020095e-20)
(45.80009 17.116977 -4.4626782e-25)
(46.20036 16.846278 0)
(46.583023 16.569931 -7.2181076e-21)
(46.948107 16.289502 1.4248012e-20)
(37.795531 19.037612 -7.847016e-21)
(38.389546 18.984586 -4.3501107e-21)
(38.974621 18.937145 4.2994196e-21)
(39.551112 18.87725 4.2481628e-21)
(40.118537 18.798352 8.3932497e-21)
(40.675806 18.698771 8.2928539e-21)
(41.221854 18.579826 8.1895632e-21)
(41.755754 18.442951 1.617848e-20)
(42.276677 18.289279 -1.5978945e-20)
(42.783874 18.119877 -1.2844719e-25)
(43.27668 17.935866 -1.9537018e-24)
(43.754531 17.738413 -7.6968489e-21)
(44.216968 17.528706 0)
(44.663638 17.30793 7.5032822e-21)
(45.094286 17.077262 -7.4101542e-21)
(45.508759 16.837856 7.3148295e-21)
(45.906987 16.590833 0)
(46.288998 16.337271 -7.1333002e-21)
(46.654936 16.078054 7.0421107e-21)
(37.809022 18.392127 3.8669734e-21)
(38.369411 18.361123 3.4181854e-20)
(38.923042 18.33553 -1.6896016e-20)
(39.470225 18.29765 1.2523107e-20)
(40.010456 18.241478 -4.1305336e-21)
(40.54268 18.165545 -4.8938919e-20)
(41.065866 18.070999 2.4184293e-20)
(41.579092 17.959046 7.9618979e-21)
(42.081511 17.830627 -1.5743292e-20)
(42.572337 17.686637 -1.9895516e-24)
(43.050855 17.528028 7.6806214e-21)
(43.516436 17.355812 1.5175961e-20)
(43.968542 17.171029 -3.0721005e-24)
(44.40673 16.974733 -1.4811941e-20)
(44.830647 16.767982 1.4628118e-20)
(45.240028 16.55183 -2.167753e-20)
(45.634683 16.327312 0)
(46.014499 16.09544 7.0478291e-21)
(46.379494 15.857181 1.8389711e-24)
(37.849797 17.778483 6.3991916e-24)
(38.377638 17.766149 1.6811506e-20)
(38.900658 17.759143 1.2464513e-20)
(39.419132 17.740155 -1.6437593e-20)
(39.932538 17.70369 -4.06286e-21)
(40.439861 17.648464 1.606501e-20)
(40.940103 17.575469 1.7979919e-24)
(41.432356 17.485706 7.8481426e-21)
(41.915768 17.379942 -7.7573688e-21)
(42.389533 17.258915 -7.6632824e-21)
(42.852908 17.123429 7.5788364e-21)
(43.305221 16.974345 -1.4976274e-20)
(43.74588 16.812566 2.9602013e-20)
(44.174373 16.639018 -7.3133412e-21)
(44.59027 16.454641 -1.4450325e-20)
(44.993214 16.260382 2.1419238e-20)
(45.382916 16.057182 1.4107456e-20)
(45.759151 15.84597 -1.3940955e-20)
(46.121819 15.627682 -6.8859315e-21)
(37.913963 17.195081 1.5025287e-20)
(38.410515 17.198439 0)
(38.903945 17.207126 0)
(39.394498 17.204252 1.6193332e-20)
(39.881647 17.184788 3.9997599e-21)
(40.36442 17.147615 -3.9596526e-20)
(40.841858 17.093582 -7.8263389e-21)
(41.313069 17.023505 7.7440267e-21)
(41.777207 16.937996 -7.6561886e-21)
(42.233463 16.837652 0)
(42.681078 16.72314 7.4811429e-21)
(43.119359 16.595184 7.3970626e-21)
(43.547677 16.454557 7.3118909e-21)
(43.965474 16.302058 1.7183254e-24)
(44.372259 16.138515 7.1435052e-21)
(44.767605 15.964768 0)
(45.151148 15.781662 0)
(45.522574 15.590043 -6.8964395e-21)
(45.881674 15.390774 0)
(37.998248 16.639971 3.7131129e-21)
(38.46485 16.656511 0)
(38.929788 16.678429 0)
(39.393315 16.689259 -1.5976566e-20)
(39.854905 16.684419 3.1610954e-20)
(40.313628 16.662935 -1.5635141e-20)
(40.768561 16.625531 7.7316418e-21)
(41.218837 16.572864 2.2935098e-20)
(41.66362 16.505405 1.5119008e-20)
(42.102109 16.423626 -1.4955906e-20)
(42.53355 16.328068 1.4785673e-20)
(42.957238 16.219334 -2.9241002e-20)
(43.372527 16.098074 -7.2245755e-21)
(43.778826 15.964974 7.1486716e-21)
(44.175602 15.820751 -7.064484e-21)
(44.562377 15.666142 0)
(44.938722 15.501898 -1.3808954e-20)
(45.304256 15.32878 2.0478516e-20)
(45.658694 15.147572 0)
(38.099188 16.112557 7.3509186e-21)
(38.537501 16.13925 -3.6262525e-20)
(38.97526 16.172137 1.5953572e-20)
(39.412803 16.194539 1.1835422e-20)
(39.849663 16.202197 -3.556699e-24)
(40.284968 16.194271 -2.3173013e-20)
(40.717838 16.171378 -1.5280453e-20)
(41.147431 16.134033 0)
(41.572936 16.082587 -7.4745496e-21)
(41.993572 16.017401 0)
(42.408596 15.938905 0)
(42.817311 15.847592 -7.2310875e-21)
(43.219061 15.744001 0)
(43.613238 15.628712 2.1216602e-20)
(43.999283 15.502336 -1.3988456e-20)
(44.376676 15.365515 0)
(44.744945 15.218907 6.8385591e-21)
(45.103655 15.063188 0)
(45.452458 14.899065 0)
(38.213914 15.611281 -3.3263305e-25)
(38.625265 15.646068 7.9639798e-21)
(39.037475 15.687289 1.5765879e-20)
(39.450316 15.719325 -1.1707346e-20)
(39.863427 15.737614 1.5441724e-20)
(40.276068 15.74134 -7.6419444e-21)
(40.687429 15.731039 7.5577589e-21)
(41.096717 15.707111 -1.4953413e-20)
(41.503155 15.669807 7.3981738e-21)
(41.905994 15.619392 0)
(42.304514 15.556196 0)
(42.698031 15.480614 0)
(43.085895 15.393083 7.0822948e-21)
(43.46749 15.294087 -1.1669535e-24)
(43.842238 15.184141 -2.0784131e-20)
(44.209599 15.063792 -1.3701257e-20)
(44.569064 14.933613 2.7103854e-20)
(44.920156 14.794197 -1.340265e-20)
(45.262483 14.646171 0)
(38.341187 15.132699 3.617797e-21)
(38.726368 15.175359 1.1827293e-20)
(39.113932 15.223396 -1.9507086e-20)
(39.503388 15.262841 0)
(39.89387 15.290038 0)
(40.284708 15.303748 0)
(40.675222 15.304316 0)
(41.064689 15.292077 0)
(41.45239 15.267204 2.1978041e-20)
(41.837615 15.229879 -1.4498484e-20)
(42.219678 15.180349 -7.1714929e-21)
(42.597914 15.118918 -2.1281282e-20)
(42.971685 15.045937 1.370066e-24)
(43.340379 14.961795 1.3883624e-20)
(43.703412 14.86692 6.8660252e-21)
(44.060227 14.761774 6.792654e-21)
(44.410294 14.646842 6.7177333e-21)
(44.753106 14.522639 -1.3290994e-20)
(45.088234 14.389713 0)
(38.478048 14.676545 -1.0823788e-20)
(38.839264 14.724868 -1.1725893e-20)
(39.20303 14.779027 2.320419e-20)
(39.569852 14.824696 -1.9129856e-20)
(39.938815 14.858887 2.9406391e-24)
(40.308827 14.880997 2.8930083e-24)
(40.679244 14.89092 1.4839413e-20)
(41.049466 14.88882 -7.3412709e-21)
(41.418854 14.874817 7.2615953e-21)
(41.786755 14.849041 -1.4374238e-20)
(42.152522 14.81167 -7.1094063e-21)
(42.515515 14.762924 3.5171889e-20)
(42.875113 14.703072 -2.0878833e-20)
(43.230712 14.632423 -6.8820253e-21)
(43.581733 14.551321 1.3623432e-20)
(43.927614 14.460146 -1.3475834e-20)
(44.26781 14.359305 -6.6659627e-21)
(44.601794 14.249236 6.5921578e-21)
(44.929113 14.130411 -1.9570568e-20)
(38.621824 14.240442 -3.5855437e-21)
(38.961386 14.293678 2.7139563e-20)
(39.303295 14.352474 -1.9187671e-20)
(39.648374 14.40365 1.8982139e-20)
(39.996449 14.443819 -3.7594299e-21)
(40.346529 14.472639 -1.8592277e-20)
(40.69766 14.49048 -2.2079719e-20)
(41.049291 14.497126 2.913271e-20)
(41.400875 14.4926 1.4410912e-20)
(41.751832 14.476973 -1.4262875e-20)
(42.101556 14.450365 0)
(42.44944 14.412934 0)
(42.794886 14.364877 1.3812472e-20)
(43.137307 14.306426 -1.366809e-20)
(43.476129 14.237851 -6.7592404e-21)
(43.810794 14.159457 3.3443484e-20)
(44.140754 14.07158 -3.0784998e-24)
(44.465471 13.974583 -6.5485856e-21)
(44.784475 13.868872 1.2953357e-20)
(38.770446 13.822945 3.5509056e-21)
(39.090813 13.880208 1.1523455e-20)
(39.41279 13.943368 -1.5237257e-20)
(39.737599 13.998649 3.7706984e-21)
(40.065494 14.043896 -2.2274538e-25)
(40.396159 14.078408 3.6913389e-21)
(40.728745 14.102677 7.3072085e-21)
(41.062488 14.11676 1.4464272e-20)
(41.396855 14.120415 -1.4312974e-20)
(41.731319 14.113642 1.4161467e-20)
(42.065332 14.096504 -1.4014731e-20)
(42.398327 14.069108 0)
(42.729733 14.031586 0)
(43.058982 13.984105 -6.7859011e-21)
(43.385517 13.926872 1.3433368e-20)
(43.708787 13.860121 -1.3288457e-20)
(44.028251 13.784122 1.9724107e-20)
(44.343367 13.699177 6.5037547e-21)
(44.653658 13.605626 -1.2875708e-20)
(38.920815 13.428594 -3.4916693e-21)
(39.224202 13.484099 -1.1149909e-25)
(39.5288 13.550499 0)
(39.835187 13.609576 -1.8729361e-20)
(40.14426 13.658459 1.8543697e-20)
(40.456233 13.697652 1.4676386e-20)
(40.770868 13.727222 -2.9047838e-20)
(41.087436 13.747356 -7.1841187e-21)
(41.405226 13.757991 1.7190307e-24)
(41.723736 13.758859 1.4076996e-20)
(42.042452 13.749996 0)
(42.360857 13.731448 6.8894483e-21)
(42.678415 13.70329 -2.7273833e-20)
(42.994588 13.665636 6.7482983e-21)
(43.308839 13.61863 -1.3351845e-20)
(43.620633 13.562452 0)
(43.929437 13.497311 1.3072149e-20)
(44.234716 13.423446 -6.4695006e-21)
(44.535993 13.341139 -6.4003591e-21)
(39.074199 13.057042 -1.3907543e-20)
(39.358113 13.11001 3.3430106e-20)
(39.647442 13.172489 -2.602628e-20)
(39.938312 13.233871 1.4860117e-20)
(40.230644 13.286512 1.843539e-20)
(40.525337 13.329258 -2.9202564e-20)
(40.822773 13.3632 7.2265184e-21)
(41.12273 13.388413 2.1444061e-20)
(41.42459 13.404795 -7.0755299e-21)
(41.727706 13.412275 0)
(42.031604 13.410612 -6.9275474e-21)
(42.335787 13.399836 6.8543285e-21)
(42.639764 13.379982 6.7831543e-21)
(42.943033 13.351107 -6.7104772e-21)
(43.245084 13.313308 1.9925321e-20)
(43.545402 13.266706 -1.3143382e-20)
(43.843468 13.211457 1.9512029e-20)
(44.138758 13.147749 0)
(44.430803 13.07581 0)
(39.237567 12.687795 -3.5182332e-21)
(39.497149 12.752446 0)
(39.767379 12.814349 -3.6574424e-21)
(40.044 12.871317 1.4635689e-20)
(40.322238 12.925831 -1.4633137e-20)
(40.601637 12.972444 -1.4527124e-20)
(40.883143 13.009963 7.1932244e-21)
(41.167216 13.039307 -7.1157744e-21)
(41.453689 13.060527 2.1125934e-20)
(41.742004 13.073502 -2.7876393e-20)
(42.031574 13.078115 2.0690485e-20)
(42.321955 13.074139 0)
(42.612679 13.06161 6.0234565e-25)
(42.903279 13.040553 -6.681983e-21)
(43.193279 13.011007 -6.6128579e-21)
(43.48219 12.973052 0)
(43.769513 12.926798 6.4750072e-21)
(44.054743 12.872383 -1.9226128e-20)
(44.337424 12.80999 1.2683653e-20)
(39.403456 12.331636 -7.1068061e-21)
(39.64643 12.395296 2.9855659e-20)
(39.894124 12.467229 -1.4605378e-20)
(40.152277 12.525454 -1.4423925e-20)
(40.416939 12.576269 1.4426055e-20)
(40.683235 12.624925 -1.4423858e-20)
(40.95056 12.666383 2.148729e-20)
(41.219806 12.699386 0)
(41.4915 12.724602 9.2652014e-25)
(41.765498 12.742196 1.3887494e-20)
(42.041263 12.752094 -1.3742193e-20)
(42.318281 12.754093 1.900848e-24)
(42.596127 12.748034 6.7297638e-21)
(42.874354 12.733922 1.3315502e-20)
(43.152515 12.711779 -1.3178905e-20)
(43.430157 12.681639 0)
(43.706807 12.64357 -1.2903403e-20)
(43.981982 12.597667 1.0262357e-24)
(44.255241 12.544068 2.5277425e-20)
(39.567605 11.989991 1.0710975e-20)
(39.796983 12.053423 -1.5021194e-20)
(40.029538 12.123206 1.473974e-20)
(40.267123 12.189673 0)
(40.514361 12.242238 6.5104372e-26)
(40.767944 12.287305 0)
(41.02314 12.33074 7.1144449e-21)
(41.279242 12.367624 -1.887019e-24)
(41.537122 12.39655 -1.3995691e-20)
(41.79733 12.418069 0)
(42.059722 12.432433 -1.3702653e-20)
(42.323831 12.439547 6.7811067e-21)
(42.589189 12.439212 0)
(42.855374 12.431284 -1.3277286e-20)
(43.121965 12.415763 1.9709189e-20)
(43.388534 12.392673 0)
(43.654636 12.362032 0)
(43.919813 12.323902 6.3656694e-21)
(44.183649 12.278378 -1.2599613e-20)
(39.730206 11.660926 2.0574238e-24)
(39.947534 11.721949 1.5055646e-20)
(40.167254 11.790799 -3.7111366e-21)
(40.390369 11.856064 -1.0912767e-20)
(40.618363 11.916808 1.0685314e-20)
(40.855517 11.964055 -3.515008e-21)
(41.098759 12.004312 0)
(41.343605 12.042975 -7.0245795e-21)
(41.589301 12.075705 -6.9788301e-21)
(41.836631 12.100834 6.9095967e-21)
(42.086145 12.118983 0)
(42.337747 12.130445 6.7653545e-21)
(42.591024 12.13504 0)
(42.845528 12.132605 0)
(43.10085 12.123027 0)
(43.356582 12.10627 0)
(43.612303 12.082356 0)
(43.867583 12.051295 -1.2700127e-20)
(44.122034 12.013146 1.5453842e-24)
(39.891194 11.342201 0)
(40.096354 11.402685 0)
(40.304926 11.468906 3.7203051e-21)
(40.516121 11.533492 1.0998349e-20)
(40.730741 11.592486 -1.4384539e-20)
(40.949864 11.647606 -2.7280689e-26)
(41.177612 11.690234 -6.9471829e-21)
(41.411154 11.726501 6.942368e-21)
(41.646334 11.760862 -6.9395196e-21)
(41.882286 11.789769 -6.8941708e-21)
(42.119747 11.811578 1.3651972e-20)
(42.359303 11.826701 -3.3773716e-20)
(42.600863 11.835501 1.3368008e-20)
(42.844051 11.83785 0)
(43.088421 11.833539 0)
(43.333571 11.822466 0)
(43.579103 11.804581 -6.4060168e-21)
(43.82461 11.779893 0)
(44.069746 11.748428 6.2727252e-21)
(40.051127 11.032596 -1.4400648e-20)
(40.244538 11.092218 3.7646389e-21)
(40.441704 11.157682 -3.7220048e-21)
(40.64238 11.219626 0)
(40.845482 11.27903 0)
(41.051951 11.332878 3.5540545e-21)
(41.262898 11.382858 3.4790094e-21)
(41.481869 11.421324 -1.3743445e-20)
(41.706369 11.453603 2.059101e-20)
(41.932541 11.483894 1.3712912e-20)
(42.159435 11.509326 -1.5927869e-24)
(42.38775 11.528022 -8.1859708e-25)
(42.618021 11.540435 0)
(42.850191 11.546821 6.6045911e-21)
(43.083907 11.547056 -1.3071694e-20)
(43.318746 11.540996 6.466536e-21)
(43.554302 11.528499 -6.3974726e-21)
(43.790204 11.509533 1.2661764e-20)
(44.026139 11.484115 6.2639653e-21)
(40.209574 10.731221 0)
(40.391909 10.789681 -3.7643104e-21)
(40.578035 10.853964 -1.4900473e-20)
(40.768103 10.915168 -3.6809391e-21)
(40.961476 10.971809 1.4559791e-20)
(41.157008 11.026201 0)
(41.355854 11.075259 3.5127489e-21)
(41.55913 11.120644 0)
(41.769879 11.155446 6.8003682e-21)
(41.985922 11.184339 1.3573276e-20)
(42.203623 11.211195 -1.3561891e-20)
(42.422043 11.233364 -6.737716e-21)
(42.641751 11.249217 2.0016953e-20)
(42.863277 11.259072 -7.7048526e-25)
(43.086612 11.263236 0)
(43.311403 11.261545 -1.2924866e-20)
(43.537234 11.253845 2.5578037e-20)
(43.763736 11.240053 -2.5307757e-20)
(43.990627 11.220116 6.2612854e-21)
(40.366453 10.436673 -2.9047469e-20)
(40.53838 10.493808 2.6341606e-20)
(40.714016 10.556816 7.4622058e-21)
(40.893615 10.617041 5.6191919e-26)
(41.076968 10.673301 0)
(41.263347 10.72527 3.6029552e-21)
(41.451675 10.775702 0)
(41.643518 10.82007 -6.9522665e-21)
(41.839686 10.861151 -6.8160749e-21)
(42.042862 10.892388 0)
(42.250954 10.918181 0)
(42.460696 10.941753 2.0124905e-20)
(42.671094 10.960996 -3.3339032e-20)
(42.882684 10.974306 -6.6029966e-21)
(43.095981 10.981877 -6.5336687e-21)
(43.310972 10.983965 6.463682e-21)
(43.52733 10.980527 -1.9186983e-20)
(43.744666 10.971398 0)
(43.962711 10.956469 6.2613619e-21)
(40.521418 10.147971 3.6493276e-21)
(40.683674 10.203638 1.0696489e-25)
(40.849523 10.265236 -8.8772288e-26)
(41.01927 10.324338 6.8309198e-26)
(41.192805 10.379835 0)
(41.369855 10.431524 -3.6115278e-21)
(41.549636 10.479276 -3.5687532e-21)
(41.731182 10.525927 4.213032e-20)
(41.916289 10.566588 -2.7534626e-20)
(42.105703 10.603812 2.024484e-20)
(42.301731 10.631961 -2.0017057e-20)
(42.50238 10.654719 6.653467e-21)
(42.704663 10.675234 0)
(42.907569 10.691861 -2.6408052e-20)
(43.111532 10.702883 2.6159508e-20)
(43.317058 10.708411 6.4703204e-21)
(43.524163 10.708727 2.5600198e-20)
(43.73255 10.703759 -2.533116e-20)
(43.941955 10.69338 -2.5063231e-20)
(40.674667 9.8641354 2.9353457e-20)
(40.827738 9.9185429 -2.6380314e-20)
(40.98432 9.9788259 -3.7515339e-21)
(41.144724 10.036757 8.0164769e-26)
(41.308895 10.091346 -2.5652088e-20)
(41.476661 10.14253 2.5354173e-24)
(41.647752 10.19028 3.5802031e-20)
(41.821393 10.23435 2.1221307e-20)
(41.996681 10.277317 -2.783054e-20)
(42.175431 10.314593 6.8192722e-21)
(42.358554 10.347861 -6.6921969e-21)
(42.547748 10.373427 0)
(42.74133 10.393792 -2.6369034e-20)
(42.936578 10.411473 2.631688e-20)
(43.13243 10.425642 -1.9621419e-20)
(43.329232 10.434669 4.5354422e-20)
(43.527422 10.438537 -1.9231205e-20)
(43.727042 10.437319 0)
(40.826278 9.584096 -7.3796914e-21)
(40.970792 9.6369733 -3.0188347e-20)
(41.118669 9.6958124 0)
(41.270262 9.7526113 3.7235469e-21)
(41.425551 9.8064128 -3.3112892e-20)
(41.584407 9.8571741 5.8175907e-20)
(41.746706 9.9047183 -3.2344133e-20)
(41.912151 9.948929 -2.1309119e-20)
(42.079904 9.9898698 2.8064318e-20)
(42.249221 10.029776 0)
(42.421966 10.064133 2.704231e-20)
(42.599157 10.094238 -3.3186679e-20)
(42.781958 10.117456 0)
(42.968776 10.135679 2.6149847e-20)
(43.157266 10.15087 -2.6073791e-20)
(43.346477 10.162669 0)
(43.536507 10.169794 0)
(43.727725 10.172024 6.3532759e-21)
(40.97589 9.3080812 3.7119946e-21)
(41.112336 9.3597377 -3.0321651e-20)
(41.25215 9.4171396 -3.7785394e-21)
(41.395558 9.4727469 3.7422315e-21)
(41.542513 9.5256449 2.2644321e-24)
(41.69297 9.5756238 2.9218398e-20)
(41.846827 9.6227853 -3.2479179e-20)
(42.003958 9.6669811 2.8534216e-20)
(42.164109 9.707871 2.8198014e-20)
(42.326366 9.7456851 -2.0885119e-20)
(42.490022 9.7826928 2.7377539e-20)
(42.657101 9.8141389 -2.0122051e-20)
(42.828721 9.8410302 0)
(43.005531 9.8620409 6.5135087e-21)
(43.185848 9.8792668 6.488795e-21)
(43.367883 9.8923237 0)
(43.550583 9.9022243 0)
(43.734044 9.9077044 -3.1832698e-20)
(41.123832 9.035346 0)
(41.252666 9.0859615 0)
(41.384825 9.1421131 7.582172e-21)
(41.520518 9.1964281 -3.7569635e-21)
(41.659645 9.2483264 0)
(41.802138 9.2976989 2.9362392e-20)
(41.947958 9.3445239 -2.9013024e-20)
(42.097062 9.3885536 -7.1673385e-21)
(42.249281 9.4297522 0)
(42.404351 9.4678261 -3.0862748e-26)
(42.561362 9.5029063 0)
(42.71959 9.5375702 0)
(42.881241 9.5666184 0)
(43.047584 9.5907162 1.9604202e-20)
(43.218845 9.6087918 -5.8246239e-20)
(43.393043 9.6243928 2.576585e-20)
(43.568849 9.6358163 2.5654117e-20)
(43.745313 9.6438896 -2.5497767e-20)
(41.270253 8.7649863 3.0110066e-20)
(41.392154 8.8140696 -3.0746562e-20)
(41.517037 8.8690077 2.6632186e-20)
(41.645385 8.92236 3.0210498e-20)
(41.777077 8.9735276 -5.6045983e-20)
(41.912042 9.0223578 5.9078179e-20)
(42.050259 9.0687406 3.6460382e-21)
(42.191658 9.1126787 -2.1627687e-20)
(42.336202 9.1539376 2.1368975e-20)
(42.483752 9.1923731 -3.5194701e-20)
(42.634009 9.227813 0)
(42.786034 9.2604196 -6.8668988e-21)
(42.939147 9.2926474 0)
(43.095511 9.3196873 2.6430419e-20)
(43.256616 9.3415618 -3.2462394e-20)
(43.422431 9.3578955 0)
(43.590849 9.3716911 0)
(43.760708 9.3816518 6.368635e-21)
(41.414928 8.497287 3.0150041e-20)
(41.530206 8.5454398 0)
(41.648423 8.5991159 3.0620814e-20)
(41.769917 8.6512547 -3.4196324e-20)
(41.894666 8.7011608 -3.7604182e-21)
(42.022546 8.7490934 0)
(42.153552 8.7949664 2.9387282e-20)
(42.287694 8.8385583 -3.629289e-20)
(42.424917 8.8797718 7.1712627e-21)
(42.56514 8.9184928 0)
(42.708239 8.9545218 0)
(42.853897 8.9876881 -2.0749751e-20)
(43.001159 9.018345 2.0478659e-20)
(43.14945 9.0485677 -2.0113938e-20)
(43.300898 9.0737769 6.5696074e-21)
(43.456852 9.0941042 2.5823845e-20)
(43.617323 9.1089354 0)
(43.780236 9.1214336 -6.3611113e-21)
(41.558869 8.2315894 -3.0617516e-20)
(41.667738 8.2788021 3.8692454e-21)
(41.779506 8.3310519 0)
(41.894333 8.3824006 3.8386932e-21)
(42.012313 8.4319301 -3.7846774e-21)
(42.133468 8.4795215 2.9961568e-20)
(42.257722 8.5251363 -5.9233667e-20)
(42.384996 8.5687074 2.9260247e-20)
(42.515262 8.6100796 0)
(42.648491 8.6490912 0)
(42.784609 8.6856602 2.8203534e-20)
(42.923481 8.7196097 -5.5723961e-20)
(43.064761 8.7507715 3.4403156e-20)
(43.207496 8.779574 -8.0397528e-27)
(43.351193 8.807997 2.0000351e-20)
(43.497984 8.8313006 -1.8881833e-24)
(43.649197 8.8498468 -6.422256e-21)
(43.80467 8.863614 -1.9903249e-24)
(41.701707 7.968982 3.8761721e-21)
(41.804739 8.0153519 -3.9510805e-21)
(41.910362 8.0672157 3.5126806e-20)
(42.019115 8.1175337 3.8513371e-21)
(42.130894 8.1662555 -3.050967e-20)
(42.24566 8.2131318 -3.7700275e-21)
(42.363404 8.2582501 3.7310448e-21)
(42.484127 8.3015508 -2.5811758e-20)
(42.607788 8.342931 1.8525244e-24)
(42.734358 8.3822471 2.877325e-20)
(42.863788 8.4193763 2.1310821e-20)
(42.99599 8.4541839 -2.1048124e-20)
(43.1308 8.4865332 -6.9282982e-21)
(43.267863 8.5163392 -3.1131935e-26)
(43.406291 8.5439022 -2.0236589e-20)
(43.545632 8.5712916 2.6493766e-20)
(43.687913 8.5940069 6.4863807e-21)
(43.834572 8.6117902 0)
(41.843742 7.7123543 1.6377608e-24)
(41.941396 7.7579445 6.3755227e-20)
(42.041414 7.8085903 -3.5494996e-20)
(42.144146 7.8582079 -7.7645364e-21)
(42.249829 7.9061866 3.8334107e-21)
(42.358497 7.9527287 3.7890593e-21)
(42.470122 7.9979123 -3.7556971e-21)
(42.584729 8.041373 -3.7116973e-21)
(42.702243 8.0830298 -7.3344423e-21)
(42.82257 8.1228197 -2.896558e-20)
(42.945668 8.1605961 3.5748845e-20)
(43.071493 8.1962264 -7.058558e-21)
(43.199962 8.2296157 2.7873828e-20)
(43.330939 8.2605795 -6.1916101e-20)
(43.464059 8.2891085 -6.7880595e-21)
(43.59842 8.3155534 1.788521e-24)
(43.733612 8.3416273 2.6283981e-20)
(43.871588 8.3632074 6.4340272e-21)
(41.984722 7.4629151 -3.5702218e-20)
(42.077308 7.5078076 6.0167591e-20)
(42.172233 7.5575564 -3.1945501e-20)
(42.269758 7.6063416 -3.1534292e-20)
(42.369911 7.6540526 2.7203229e-20)
(42.472844 7.7003794 -3.8320731e-21)
(42.578633 7.7452162 0)
(42.687263 7.7884862 -2.9845828e-20)
(42.798729 7.8300944 7.3745914e-21)
(42.913067 7.8698115 3.6394057e-20)
(43.030178 7.9078658 -2.154964e-20)
(43.149983 7.9440583 3.5451347e-20)