/*--------------------------------*- C++ -*----------------------------------*\
| =========                 |                                                 |
| \\      /  F ield         | OpenFOAM: The Open Source CFD Toolbox           |
|  \\    /   O peration     | Version:  2406                                  |
|   \\  /    A nd           | Website:  www.openfoam.com                      |
|    \\/     M anipulation  |                                                 |
\*---------------------------------------------------------------------------*/
FoamFile
{
    version     2.0;
    format      ascii;
    arch        "LSB;label=32;scalar=64";
    class       volVectorField;
    location    "0.03";
    object      U;
}
// * * * * * * * * * * * * * * * * * * * * * * * * * * * * * * * * * * * * * //

dimensions      [0 1 -1 0 0 0 0];

internalField   nonuniform List<vector> 
8260
(
(45.608913 29.854894 -1.023365e-20)
(47.264311 28.365018 -1.2799157e-23)
(48.804845 26.839292 8.1907347e-21)
(50.234288 25.259398 6.8999962e-21)
(51.537014 23.590603 -5.7572126e-21)
(52.682465 21.861067 -4.7515797e-21)
(53.632027 20.132923 1.5607848e-20)
(54.387361 18.42849 0)
(54.958495 16.794972 0)
(55.35311 15.278606 1.0351632e-21)
(55.603024 13.877799 -8.3414241e-22)
(55.739518 12.608522 -2.1399739e-20)
(55.792702 11.473657 -1.7669356e-20)
(55.793833 10.461322 2.8257374e-20)
(55.767337 9.5595809 -3.42496e-22)
(55.732742 8.7543205 0)
(55.706032 8.0284809 2.2258538e-22)
(55.696568 7.3693292 -1.7849655e-22)
(55.712015 6.7638547 0)
(55.754925 6.2053182 -1.5363829e-20)
(55.819754 5.6788297 -5.1512786e-20)
(55.903572 5.1702372 -2.208658e-20)
(55.992315 4.6799727 0)
(56.047075 4.1921868 7.2812149e-20)
(56.023381 3.6777203 -7.115064e-23)
(55.85242 3.0894715 8.1922143e-20)
(55.375139 2.3815084 -5.5469081e-23)
(54.65601 1.4401168 1.8561389e-19)
(54.055872 0.78590004 0)
(53.48749 0.26661951 9.9013156e-20)
(51.76104 0.29024949 2.9753036e-26)
(44.426074 28.699015 -2.6232828e-23)
(46.114241 27.329236 -4.8571367e-24)
(47.681156 26.026017 1.0539442e-23)
(49.152968 24.646346 6.2345946e-21)
(50.51737 23.166765 1.0643342e-20)
(51.743035 21.608229 8.9737893e-21)
(52.791604 20.01452 -2.9920886e-20)
(53.653726 18.421632 -3.0900544e-21)
(54.333509 16.869121 -7.6069074e-21)
(54.835427 15.393161 2.0599827e-21)
(55.179161 14.024014 -1.6694107e-21)
(55.398713 12.76185 0)
(55.522107 11.623618 -1.0930944e-21)
(55.58009 10.600299 -1.2212883e-20)
(55.598967 9.683541 -7.0015613e-22)
(55.599924 8.8628634 0)
(55.60066 8.1216645 -2.8993626e-20)
(55.612445 7.4486496 3.6670839e-22)
(55.644371 6.8309684 -2.9897399e-22)
(55.699847 6.2609174 0)
(55.774031 5.724586 1.0144234e-22)
(55.864977 5.2084003 -1.7681249e-22)
(55.959061 4.7106468 7.8159405e-23)
(56.017113 4.2151983 -7.424073e-20)
(55.99385 3.696039 3.7098973e-20)
(55.821756 3.1010092 -8.128746e-23)
(55.340698 2.3827498 1.122751e-22)
(54.626131 1.4352068 -3.7358274e-19)
(54.036079 0.78550876 -4.5163506e-19)
(53.478748 0.25973639 -2.1621395e-19)
(51.754489 0.27503807 -9.3746384e-24)
(43.210514 27.189342 -7.6655346e-21)
(44.846589 26.097963 8.2743439e-24)
(46.441829 25.045751 -6.3437699e-21)
(47.969894 23.888733 5.6662595e-21)
(49.405265 22.615294 -9.933022e-21)
(50.71676 21.244309 -8.5913115e-21)
(51.869222 19.809076 2.9342032e-20)
(52.844854 18.345859 0)
(53.639795 16.891498 1.0319355e-20)
(54.254528 15.481243 2.1344191e-21)
(54.703013 14.148119 -1.753046e-21)
(55.013894 12.904229 2.4283444e-20)
(55.214822 11.771993 1.8560988e-20)
(55.336276 10.742477 1.4110915e-20)
(55.406178 9.8130505 0)
(55.447306 8.978307 0)
(55.479093 8.2219756 -2.79997e-24)
(55.515026 7.5347495 0)
(55.56568 6.904224 0)
(55.635465 6.3221886 1.7531805e-20)
(55.720505 5.7750763 5.9153468e-20)
(55.819786 5.2505539 -2.5499977e-20)
(55.920189 4.7445979 0)
(55.982451 4.2405929 4.1534867e-20)
(55.959909 3.7161253 -4.1509273e-20)
(55.787452 3.113799 -9.1599791e-23)
(55.30276 2.3836467 0)
(54.593516 1.4294735 2.0669126e-19)
(54.01451 0.78510411 -5.7226547e-24)
(53.469969 0.25177355 -4.3249943e-19)
(51.743814 0.24385414 -4.639585e-21)
(42.214798 25.517508 6.1908447e-21)
(43.768538 24.704165 -5.920293e-21)
(45.333396 23.902359 1.104093e-20)
(46.867481 22.980923 -1.0138398e-20)
(48.335176 21.92858 9.1360312e-21)
(49.702058 20.760289 -8.1016485e-21)
(50.933407 19.502568 -1.4134483e-20)
(52.00472 18.187541 0)
(52.903776 16.849667 5.1740834e-21)
(53.625829 15.523714 -4.3533016e-21)
(54.177999 14.244212 1.4501676e-20)
(54.5834 13.033366 -2.9809018e-21)
(54.867731 11.91026 2.4556423e-21)
(55.057831 10.884209 -1.6053265e-20)
(55.184461 9.9456121 0)
(55.271026 9.0992585 -6.6625532e-22)
(55.338327 8.3286542 1.7365675e-20)
(55.402207 7.627279 4.4361105e-22)
(55.47459 6.9837811 2.3717864e-20)
(55.561006 6.3890727 -2.0007011e-20)
(55.658809 5.8304411 -3.2467476e-20)
(55.76781 5.2968843 2.8410617e-20)
(55.875431 4.7819956 7.2294201e-26)
(55.942543 4.2685199 -4.7077655e-20)
(55.921004 3.7375943 4.7235886e-20)
(55.747739 3.1276763 -2.0594041e-22)
(55.259045 2.3838668 0)
(54.55636 1.4226939 0)
(53.989918 0.78469607 5.1899322e-19)
(53.459275 0.24269355 5.4390194e-19)
(51.73229 0.21397272 0)
(41.455999 23.764551 5.0622817e-21)
(42.903968 23.198865 0)
(44.393582 22.627279 -4.7388345e-21)
(45.885749 21.935682 -8.9120294e-21)
(47.343221 21.107817 1.0782571e-23)
(48.729422 20.150992 1.4987028e-20)
(50.008601 19.084471 -6.7056275e-21)
(51.151178 17.934223 4.3869109e-24)
(52.137336 16.73099 4.4530251e-24)
(52.956043 15.508196 8.7355833e-21)
(53.607618 14.300627 -2.2160811e-20)
(54.107681 13.136448 -2.1653786e-20)
(54.477875 12.037489 0)
(54.742459 11.018111 1.6994315e-20)
(54.931135 10.077624 0)
(55.068283 9.2235838 2.2912901e-20)
(55.175844 8.4403776 -1.7636879e-20)
(55.271806 7.7254871 -3.1900773e-20)
(55.369135 7.0693948 -2.4781076e-20)
(55.474808 6.4612882 1.5847752e-25)
(55.587497 5.8908511 -5.6522732e-22)
(55.707813 5.3474969 2.4443341e-22)
(55.823732 4.822962 7.8185362e-26)
(55.896513 4.2991665 5.1942066e-20)
(55.876649 3.7603338 -5.242779e-20)
(55.701905 3.1424317 0)
(55.2087 2.3831086 0)
(54.514031 1.4146642 0)
(53.961911 0.78430987 5.4466202e-19)
(53.446257 0.23241371 1.37094e-22)
(51.718052 0.17483847 7.2191915e-25)
(40.945089 21.993763 4.1133133e-21)
(42.26686 21.637329 -8.1544186e-21)
(43.648275 21.265876 1.2020278e-20)
(45.058428 20.783319 7.7233626e-21)
(46.464318 20.169088 -1.4645293e-20)
(47.830806 19.421656 8.2004737e-24)
(49.12228 18.551722 3.1134153e-20)
(50.306114 17.577605 -1.6785854e-20)
(51.356477 16.524417 0)
(52.255889 15.422393 0)
(52.997598 14.304957 0)
(53.588814 13.20303 -2.2077849e-20)
(54.04538 12.141782 1.8589729e-20)
(54.387676 11.140237 -3.5497156e-20)
(54.643254 10.206111 0)
(54.836262 9.3467029 -2.5945882e-20)
(54.988883 8.5550403 2.0197665e-20)
(55.121181 7.8286511 3.4509393e-20)
(55.247117 7.1596944 0)
(55.374955 6.5386014 -2.3380797e-20)
(55.504964 5.9561766 -4.0405237e-20)
(55.638428 5.4023573 -3.3463855e-20)
(55.76391 4.8675117 -6.2323761e-20)
(55.843304 4.3326911 -5.7967086e-20)
(55.826044 3.7844284 0)
(55.649004 3.1576212 0)
(55.150782 2.3809136 0)
(54.465927 1.4051621 0)
(53.930074 0.78398298 -5.6406145e-19)
(53.430223 0.22062492 2.7850567e-22)
(51.700267 0.12807491 -3.5218094e-21)
(40.681842 20.265999 -1.3234403e-20)
(41.863149 20.076343 2.6659496e-20)
(43.113524 19.868776 -2.675748e-20)
(44.410805 19.564525 1.3207805e-20)
(45.729096 19.140887 1.2786435e-20)
(47.038044 18.588848 -3.0444476e-20)
(48.304632 17.910524 2.3336469e-24)
(49.495833 17.11583 -1.1279622e-23)
(50.582183 16.222583 -9.429821e-21)
(51.540694 15.255658 -8.3657603e-21)
(52.357715 14.245088 2.1978698e-20)
(53.031885 13.221755 2.5296225e-20)
(53.571858 12.213187 -4.3235181e-20)
(53.993003 11.24224 3.6599015e-20)
(54.318819 10.323173 0)
(54.572008 9.4656359 -3.2170704e-21)
(54.774674 8.6695798 2.6852735e-21)
(54.947704 7.93419 -3.5882448e-20)
(55.106086 7.2537735 0)
(55.259401 6.6203586 2.5399416e-20)
(55.409457 6.0259975 4.345722e-20)
(55.558156 5.4612379 -3.4247886e-24)
(55.694657 4.9155222 -5.1303413e-24)
(55.781724 4.3690872 6.4093069e-20)
(55.767742 3.8101841 -6.5206879e-20)
(55.587823 3.1727582 5.6936426e-22)
(55.084115 2.3767129 0)
(54.411343 1.3939948 2.7390396e-19)
(53.8939 0.78376949 5.7392092e-19)
(53.410317 0.20722688 -2.3597783e-22)
(51.677976 0.075757174 1.8125869e-24)
(40.649448 18.631427 0)
(41.684416 18.567041 2.7011814e-21)
(42.790343 18.485271 0)
(43.953673 18.323459 0)
(45.156758 18.058961 -1.1005436e-20)
(46.375939 17.678124 1.070715e-20)
(47.582981 17.176034 -7.7440258e-24)
(48.747138 16.554597 0)
(49.838146 15.823544 8.8195669e-21)
(50.829494 15.000638 0)
(51.701729 14.110442 -2.8439164e-20)
(52.445548 13.181175 3.1232516e-20)
(53.061781 12.240746 -1.6154478e-23)
(53.559575 11.314409 -4.1854593e-20)
(53.956841 10.421239 3.563488e-20)
(54.273532 9.5744409 -6.6993483e-21)
(54.530565 8.7797515 2.824494e-21)
(54.748661 8.0391608 3.8075339e-20)
(54.94354 7.3496535 -3.2178997e-20)
(55.125883 6.7052696 0)
(55.298987 6.0994944 4.7121495e-20)
(55.465266 5.5236251 8.1365003e-20)
(55.614449 4.9666566 1.1594293e-21)
(55.710388 4.4081078 5.502799e-22)
(55.70034 3.8375061 -1.1167052e-21)
(55.516886 3.1872485 6.2584562e-22)
(55.007315 2.3697585 0)
(54.349492 1.3810096 -5.4333714e-22)
(53.852797 0.78373588 5.7388805e-22)
(53.385173 0.1922962 3.5274312e-19)
(51.650897 0.020527362 5.0736362e-21)
(40.814444 17.13734 0)
(41.703509 17.150329 6.5117343e-21)
(42.660699 17.158285 -9.055237e-21)
(43.679976 17.101435 0)
(44.751191 16.960035 4.6769009e-21)
(45.857651 16.719329 4.6337257e-21)
(46.977132 16.369723 9.023482e-21)
(48.083299 15.906434 -8.6269469e-21)
(49.147849 15.331412 7.707181e-24)
(50.143378 14.654507 2.2433307e-20)
(51.046687 13.893227 2.0350108e-20)
(51.842053 13.07083 -3.0304108e-20)
(52.522798 12.213186 2.6717755e-20)
(53.091093 11.345971 2.3275565e-20)
(53.558185 10.491203 -4.0171535e-20)
(53.93983 9.6656434 -2.4098444e-20)
(54.254468 8.8799043 -2.9346266e-21)
(54.521557 8.1394509 2.4980003e-21)
(54.756927 7.4444295 -7.6748612e-24)
(54.971995 6.791325 1.8258769e-21)
(55.171362 6.1753008 -1.5750002e-21)
(55.357799 5.5886015 -4.4677453e-20)
(55.52154 5.0202685 8.1067756e-20)
(55.627678 4.4492402 7.5585766e-20)
(55.622227 3.8658102 7.8977711e-20)
(55.434453 3.2003376 0)
(54.918803 2.3590767 0)
(54.279545 1.3661295 -2.8573657e-19)
(53.806095 0.78395794 -5.6546999e-19)
(53.354615 0.17602324 -2.8117077e-19)
(51.619255 -0.034345201 0)
(41.12947 15.788368 -1.229416e-20)
(41.878962 15.844744 -1.7329649e-21)
(42.693509 15.906757 -1.8356604e-21)
(43.569967 15.923028 -1.5312912e-20)
(44.503848 15.871647 7.8615192e-21)
(45.485034 15.739354 1.5839785e-20)
(46.497794 15.514611 -1.5723929e-20)
(47.521496 15.188146 0)
(48.531938 14.755605 -2.1975841e-20)
(49.503444 14.219402 1.2106908e-23)
(50.411676 13.589422 -2.5449392e-20)
(51.236784 12.882382 2.3153134e-20)
(51.965887 12.119844 -2.0750259e-20)
(52.594269 11.325655 -9.181856e-21)
(53.126031 10.52267 0)
(53.571487 9.7302332 -1.2219057e-23)
(53.945275 8.9628262 -6.0186382e-21)
(54.264381 8.2295542 5.1795086e-21)
(54.543862 7.5340334 -8.8890792e-24)
(54.795303 6.8755802 0)
(55.024246 6.2513182 -5.3875783e-20)
(55.233591 5.6546917 0)
(55.41395 5.0752746 0)
(55.531716 4.4916 -8.1667944e-20)
(55.531455 3.8942344 -2.6285147e-21)
(55.33843 3.2108274 -1.8495212e-19)
(54.816797 2.3434155 -1.8539009e-21)
(54.200668 1.3493992 1.1085482e-21)
(53.753029 0.78450952 -5.4978297e-19)
(53.317815 0.15884153 4.7257067e-22)
(51.583725 -0.085033568 0)
(41.561143 14.567301 0)
(42.175089 14.655316 1.392617e-21)
(42.857432 14.74143 1.3307654e-20)
(43.599617 14.80065 -1.2536923e-20)
(44.399104 14.812601 6.5358565e-21)
(45.251426 14.759946 0)
(46.147141 14.632096 -1.3501122e-20)
(47.071695 14.417986 2.6782312e-20)
(48.006176 14.109112 -1.9571415e-20)
(48.92863 13.701906 1.249294e-20)
(49.816091 13.199181 -7.6875828e-24)
(50.647228 12.610551 -8.2380268e-24)
(51.405054 11.951675 -9.9107509e-21)
(52.079021 11.242481 8.9028029e-21)
(52.666372 10.504448 4.7486811e-20)
(53.171259 9.7578359 2.0884823e-20)
(53.603368 9.0196952 6.0864085e-21)
(53.976017 8.3023842 3.1799276e-20)
(54.302417 7.6129918 4.5999409e-21)
(54.593521 6.9539104 -2.81724e-20)
(54.855254 6.3244927 -7.0869556e-21)
(55.090319 5.7196663 -5.789424e-25)
(55.289475 5.1299866 2.9060063e-21)
(55.420338 4.5337814 -8.8730406e-20)
(55.425726 3.9214528 0)
(55.226315 3.2169678 -1.3411143e-23)
(54.699337 2.3212001 -2.4503209e-19)
(54.112071 1.3310436 -2.1612204e-21)
(53.692751 0.78541736 5.2336494e-19)
(53.274025 0.14128944 4.2280501e-22)
(51.545192 -0.12783944 0)
(42.079706 13.465913 1.760592e-20)
(42.575063 13.559616 0)
(43.128672 13.665263 -1.9195116e-20)
(43.745308 13.74226 2.5577191e-21)
(44.418011 13.791433 1.8877984e-20)
(45.144501 13.795166 1.9634231e-20)
(45.920393 13.738954 -2.2979463e-20)
(46.73679 13.612696 -2.8911883e-20)
(47.580343 13.406088 2.8655629e-20)
(48.433894 13.111608 -1.11584e-20)
(49.277728 12.726419 -5.991007e-24)
(50.091475 12.253533 -6.0019152e-24)
(50.856498 11.702096 -6.483676e-24)
(51.558268 11.086639 -2.5529181e-20)
(52.188287 10.425243 -3.0688895e-20)
(52.744578 9.7371006 3.4261153e-20)
(53.231185 9.0401876 -6.0692455e-21)
(53.656751 8.3491756 -4.2768733e-20)
(54.031498 7.6742121 -1.1076123e-23)
(54.364775 7.0207536 3.3172068e-20)
(54.662124 6.3905563 0)
(54.92558 5.7802991 0)
(55.145707 5.1818925 3.0617149e-21)
(55.291068 4.5736596 9.084264e-20)
(55.302294 3.9454713 0)
(55.09513 3.2162295 2.090523e-19)
(54.564353 2.2905237 4.9600625e-19)
(54.013093 1.3115345 -2.6498879e-19)
(53.62431 0.7866971 4.9142661e-19)
(53.222671 0.12407572 0)
(51.505016 -0.15976852 0)
(42.629209 12.467227 1.4510702e-20)
(43.028154 12.558021 8.9580113e-22)
(43.476364 12.660602 -1.6572571e-20)
(43.977189 12.753422 -2.0833478e-21)
(44.53571 12.816089 0)
(45.145868 12.853414 -1.6330127e-20)
(45.806186 12.847421 3.8754214e-20)
(46.5128 12.786155 -1.472135e-23)
(47.257738 12.659897 -2.48817e-20)
(48.028968 12.459301 1.968344e-20)
(48.811087 12.177701 9.5716338e-21)
(49.586535 11.812747 9.1584471e-21)
(50.337343 11.367426 -9.33235e-24)
(51.047258 10.850257 1.6007568e-20)
(51.70385 10.274471 2.9341835e-20)
(52.299884 9.6562954 -1.3280723e-20)
(52.833752 9.0127893 1.1928169e-20)
(53.308825 8.3595307 -3.1933753e-20)
(53.73133 7.7088419 7.574993e-20)
(54.10797 7.0688684 1.6874508e-20)
(54.442958 6.4437455 6.805506e-20)
(54.737045 5.8320773 0)
(54.980096 5.2273797 0)
(55.141106 4.6081317 0)
(55.157866 3.9633498 0)
(54.941353 3.2049727 2.1536461e-19)
(54.40979 2.2492268 -2.4585407e-19)
(53.903264 1.2916564 4.9985183e-19)
(53.546699 0.78842783 -4.5671816e-19)
(53.166887 0.10653343 -3.0025582e-19)
(51.464476 -0.17885089 -1.1954599e-23)
(43.179777 11.545775 -1.2014518e-20)
(43.50075 11.62714 1.0140873e-20)
(43.863171 11.721424 -1.1839389e-20)
(44.270186 11.810064 1.3661548e-20)
(44.725275 11.887159 -1.4560141e-20)
(45.232656 11.935386 3.2756114e-20)
(45.787565 11.961278 -3.2490611e-20)
(46.389681 11.946106 3.7826662e-20)
(47.035579 11.880174 -3.8547398e-20)
(47.718055 11.75446 2.5788288e-20)
(48.426372 11.560364 -1.6982582e-20)
(49.146907 11.2918 1.6491423e-20)
(49.864205 10.946697 -1.5785045e-20)
(50.562508 10.527855 1.6342155e-23)
(51.227622 10.043015 -2.7649082e-20)
(51.848637 9.5040378 -1.2706487e-20)
(52.419054 8.9253153 -2.31135e-20)
(52.936983 8.3216585 4.1774177e-20)
(53.404009 7.7062586 -4.7009107e-20)
(53.82325 7.0891509 8.4755536e-21)
(54.19657 6.4765194 -5.3599526e-20)
(54.522671 5.8688724 6.068809e-25)
(54.790049 5.2613922 -6.5374533e-21)
(54.967317 4.6327768 0)
(54.988499 3.9707999 3.1769595e-21)
(54.760919 3.178031 -4.3944499e-19)
(54.233558 2.1951404 0)
(53.782328 1.2724873 -2.3614203e-19)
(53.458934 0.79081411 -4.1681235e-19)
(53.107932 0.088293254 7.4961652e-19)
(51.424473 -0.18534665 1.4169743e-23)
(43.71456 10.662857 2.8592734e-22)
(43.97291 10.733065 5.8662572e-22)
(44.265801 10.816598 0)
(44.596576 10.898503 0)
(44.968726 10.972786 0)
(45.386052 11.033449 -1.5942944e-21)
(45.849724 11.072925 0)
(46.357547 11.090279 -3.1964325e-20)
(46.909315 11.069819 3.6672808e-20)
(47.502181 11.00273 0)
(48.130152 10.880429 -7.4611265e-21)
(48.78405 10.694983 0)
(49.452052 10.440887 0)
(50.120595 10.116304 1.3646609e-20)
(50.775777 9.7237331 -1.9708155e-23)
(51.404946 9.2700267 -1.1999236e-20)
(51.998128 8.7655884 0)
(52.548869 8.2228265 0)
(53.054034 7.6542399 0)
(53.512525 7.0705603 -4.1922785e-20)
(53.922914 6.4793123 6.8913343e-20)
(54.281003 5.8825844 -7.0580448e-21)
(54.573082 5.2770184 6.6216271e-21)
(54.766219 4.6414079 1.022274e-19)
(54.789483 3.9615809 -1.0275837e-19)
(54.549318 3.1281958 -6.7956869e-21)
(54.034233 2.1268438 7.0859304e-21)
(53.650408 1.2551012 0)
(53.360146 0.79392674 3.8599015e-19)
(53.039071 0.07485079 -3.3693146e-19)
(51.385687 -0.18068152 0)
(44.237896 9.7864617 0)
(44.445213 9.8480218 1.5314178e-20)
(44.680902 9.9230859 -1.6828564e-20)
(44.948089 9.9990896 5.7414125e-22)
(45.250225 10.071331 -1.9924462e-20)
(45.590792 10.137512 2.2677232e-20)
(45.975264 10.186599 2.8249679e-21)
(46.402529 10.218399 5.9719641e-21)
(46.870564 10.230025 2.1859773e-20)
(47.378671 10.208397 -1.3396895e-23)
(47.92517 10.142976 -1.9573117e-20)
(48.505936 10.026612 -3.2551023e-20)
(49.113328 9.8521106 1.2817298e-20)
(49.737019 9.6144187 0)
(50.36502 9.3116129 1.1870263e-20)
(50.984833 8.9456186 0)
(51.584789 8.5221699 -2.0935188e-20)
(52.155179 8.0499888 3.878717e-20)
(52.688723 7.5393373 -1.7863503e-20)
(53.179983 7.0002005 -4.9246753e-20)
(53.623555 6.4403623 -4.5352131e-20)
(54.011525 5.8627798 1.4040848e-20)
(54.326997 5.2650012 -1.3238848e-20)
(54.533941 4.6254632 -1.0229999e-19)
(54.555289 3.9265478 1.0228419e-19)
(54.301927 3.0461068 3.1083207e-19)
(53.813787 2.045339 6.6071159e-21)
(53.507999 1.2397441 -3.0415843e-21)
(53.249877 0.79718793 -3.4400042e-19)
(52.959795 0.067126455 2.9800331e-19)
(51.345481 -0.17023908 9.2223725e-21)
(44.768856 8.8809844 -1.8882024e-22)
(44.934074 8.9368372 2.5249092e-20)
(45.122321 9.0063508 -2.0462115e-24)
(45.336321 9.0788568 -1.5244368e-20)
(45.579111 9.1507529 1.5559518e-20)
(45.85372 9.2187239 -1.7946098e-20)
(46.163672 9.2811719 -2.3939675e-21)
(46.514514 9.3296216 -2.5386108e-21)
(46.907924 9.3559848 2.6560616e-21)
(47.340431 9.3645517 5.526267e-21)
(47.810895 9.346196 -5.6816089e-21)
(48.318007 9.2877124 5.7468421e-21)
(48.858305 9.1816359 -1.1438034e-20)
(49.425831 9.0218958 2.2466793e-20)
(50.011743 8.8034564 0)
(50.605313 8.5241091 2.0786162e-20)
(51.194974 8.1849967 0)
(51.769411 7.7904955 -1.8412902e-20)
(52.31835 7.3474207 1.7133293e-20)
(52.83246 6.8635685 1.588695e-20)
(53.302112 6.3456352 -1.4769336e-20)
(53.715024 5.7963311 -1.3805808e-20)
(54.050047 5.2131457 1.307388e-20)
(54.266141 4.5731101 0)
(54.279646 3.8520779 0)
(54.013918 2.9211161 -1.0140525e-19)
(53.577728 1.9562734 6.0708379e-21)
(53.355382 1.2251731 1.7034538e-19)
(53.128351 0.79929432 3.0955728e-19)
(52.869013 0.067843638 -2.6122865e-19)
(51.306654 -0.11812173 -7.8827507e-21)
(45.322463 7.929269 1.6090038e-22)
(45.45168 7.9817456 -3.2948313e-22)
(45.599395 8.0477409 0)
(45.767993 8.1180147 -4.0001963e-22)
(45.960229 8.1899892 8.7413245e-22)
(46.178955 8.2615038 -9.4879516e-22)
(46.427106 8.3299976 3.2692311e-20)
(46.708136 8.3918229 -3.4915097e-20)
(47.026466 8.4452507 -2.2942818e-21)
(47.387341 8.4755631 -4.7677991e-21)
(47.787694 8.4870476 -2.9605169e-20)
(48.224746 8.4750451 1.8323043e-23)
(48.696396 8.4296134 7.1451285e-20)
(49.200194 8.3392362 -4.0559672e-20)
(49.731672 8.1979096 0)
(50.283478 8.0009762 -3.8367154e-20)
(50.84574 7.7458784 1.8324808e-20)
(51.407141 7.4327348 -1.752066e-23)
(51.955825 7.0642658 -4.8936351e-20)
(52.47949 6.6448943 3.0539839e-20)
(52.964496 6.1788034 -1.4295138e-20)
(53.393841 5.6670083 -4.0335883e-20)
(53.740987 5.1055204 0)
(53.957834 4.4677403 -1.1098919e-19)
(53.955729 3.7176862 2.4264585e-20)
(53.678799 2.7441526 -1.1902459e-20)
(53.333897 1.8697773 -1.7090187e-19)
(53.191744 1.2096788 -1.5789223e-19)
(52.995593 0.79870952 -4.3658564e-21)
(52.768094 0.064328367 -2.3355513e-19)
(51.264193 -0.15934135 0)
(45.917185 6.9354323 0)
(46.015109 6.9864592 2.80569e-22)
(46.127556 7.0508029 0)
(46.256566 7.1204547 -2.2202632e-20)
(46.404549 7.1935101 2.3204622e-20)
(46.574116 7.2685982 0)
(46.768124 7.3441865 0)
(46.989573 7.4177856 3.0250511e-20)
(47.24149 7.4858873 -7.3891188e-24)
(47.527674 7.5470227 -3.363947e-20)
(47.854159 7.5898736 -4.3693301e-21)
(48.222322 7.6054295 0)
(48.627885 7.5998814 -3.6305435e-20)
(49.06738 7.568229 4.5756087e-20)
(49.537335 7.4963203 0)
(50.034609 7.374372 1.7711609e-20)
(50.55363 7.1988009 -1.7084764e-20)
(51.084672 6.9664462 4.8977735e-20)
(51.615786 6.6758784 0)
(52.132842 6.3272998 2.919861e-20)
(52.618757 5.9210449 -2.7514395e-20)
(53.051755 5.4547852 -1.4691772e-23)
(53.39875 4.9210866 0)
(53.603022 4.2851122 1.9063013e-19)
(53.575495 3.4951222 0)
(53.31156 2.5219604 1.0949463e-20)
(53.093341 1.7946846 -9.9387772e-21)
(53.015647 1.1911607 0)
(52.850868 0.79596086 -1.2467997e-19)
(52.654365 0.068157551 4.1530255e-19)
(51.221533 -0.091653168 0)
(46.564407 5.8979793 0)
(46.635296 5.9479161 -1.5702744e-20)
(46.71721 6.0108145 8.2465717e-25)
(46.811867 6.0797372 1.9778779e-20)
(46.921299 6.1533092 4.2350982e-25)
(47.047762 6.2307124 2.29739e-20)
(47.193797 6.3110846 -2.4915425e-20)
(47.362176 6.3929824 0)
(47.55579 6.4741915 -1.788024e-21)
(47.77748 6.551459 0)
(48.030797 6.6202495 2.7670637e-20)
(48.320647 6.6796523 -3.2457287e-20)
(48.652739 6.7151395 -1.6545302e-20)
(49.025843 6.7146473 -8.2928632e-21)
(49.432537 6.6949349 4.1629182e-20)
(49.86915 6.6421075 4.9407317e-20)
(50.332541 6.5383344 -4.8034947e-20)
(50.817324 6.3817018 0)
(51.313212 6.1677813 -6.2437895e-24)
(51.805451 5.8920739 -2.7918988e-20)
(52.274147 5.5500106 -2.6425669e-20)
(52.692858 5.134129 2.5028063e-20)
(53.02083 4.6305291 6.351879e-25)
(53.192587 3.9875225 -1.1405086e-19)
(53.125655 3.1606958 2.1653827e-20)
(52.953501 2.2952192 5.9531042e-20)
(52.862681 1.7229062 1.5072536e-19)
(52.828099 1.1669165 -7.851285e-21)
(52.693663 0.78930791 1.109071e-19)
(52.526901 0.069309538 -3.7079504e-19)
(51.176194 -0.13679518 5.3643818e-21)
(47.260306 4.8225585 2.8305997e-20)
(47.307693 4.8710077 -1.1161524e-22)
(47.362989 4.9318613 -6.4073497e-20)
(47.427595 4.9991002 3.4939273e-20)
(47.503181 5.0717582 3.9279946e-20)
(47.591642 5.1494411 6.5665214e-22)
(47.695177 5.2317464 -4.5874117e-20)
(47.816292 5.3178071 -4.9443204e-20)
(47.95779 5.4062141 1.658983e-21)
(48.122701 5.4949153 5.6007208e-20)
(48.314123 5.5809521 7.3409283e-21)
(48.534957 5.6602137 6.0895832e-20)
(48.789132 5.7273754 -1.3262578e-19)
(49.082742 5.7829063 5.4773933e-20)
(49.421117 5.7953575 -6.9890514e-20)
(49.79348 5.7890568 4.6482604e-20)
(50.193655 5.7532169 1.5221912e-20)
(50.618452 5.6645341 1.4713167e-20)
(51.061942 5.5218685 2.8192905e-20)
(51.509362 5.3155583 2.6848798e-20)
(51.938276 5.0363884 -4.7004007e-24)
(52.317292 4.6692196 2.414339e-20)
(52.59513 4.1873186 2.2884722e-20)
(52.710463 3.5226485 -1.2914487e-19)
(52.655 2.742899 1.9807615e-20)
(52.633378 2.1170526 -7.1115103e-20)
(52.638242 1.6463932 1.5775041e-20)
(52.631145 1.1356181 -1.185095e-19)
(52.526566 0.77975528 1.2612321e-24)
(52.39158 0.082424719 3.2575744e-19)
(51.129822 -0.061366405 -6.629032e-21)
(47.998145 3.7064238 2.8654957e-20)
(48.025152 3.7528013 2.2660024e-22)
(48.057276 3.8110169 3.2325275e-20)
(48.095656 3.8757324 -3.5598618e-20)
(48.141585 3.9463124 -3.0240236e-22)
(48.19659 4.022709 4.0882403e-20)
(48.262474 4.1048993 -2.7633229e-24)
(48.341351 4.1924933 -9.6805457e-20)
(48.435654 4.2846728 5.2461602e-20)
(48.548142 4.3801255 0)
(48.68185 4.4768924 -8.8064869e-25)
(48.839972 4.5720418 0)
(49.025687 4.6612155 0)
(49.242117 4.7391141 7.4128568e-25)
(49.494925 4.8075735 7.6846702e-21)
(49.793354 4.8224633 -1.5049976e-20)
(50.127354 4.8143941 1.4753839e-20)
(50.489515 4.7846901 4.3026547e-20)
(50.866935 4.7080134 -8.8595649e-24)
(51.244772 4.5586866 -2.6250192e-20)
(51.603633 4.3322198 -2.4807559e-20)
(51.913212 4.0006277 0)
(52.123003 3.5350509 0)
(52.203857 2.9307285 1.1899271e-19)
(52.273308 2.384512 7.1297959e-20)
(52.363098 1.9647797 -1.5824187e-20)
(52.416003 1.5542225 -8.3942288e-20)
(52.427341 1.0925151 8.6473568e-20)
(52.356329 0.76097789 9.2671493e-20)
(52.26154 0.11604347 -1.5425453e-19)
(51.090369 0.1246218 4.2373602e-23)
(48.775744 2.5084073 0)
(48.784876 2.5517199 -1.3672461e-22)
(48.796813 2.6060285 3.0118885e-22)
(48.812485 2.6668186 8.4492679e-20)
(48.83284 2.7338206 -9.2071376e-20)
(48.859055 2.8073035 1.0047179e-19)
(48.892516 2.8875756 -3.1635464e-24)
(48.934871 2.9746729 -8.9718133e-22)
(48.98804 3.0683191 -1.2073784e-19)
(49.054217 3.167862 0)
(49.135846 3.2721592 -4.0831857e-21)
(49.235507 3.3793894 0)
(49.355652 3.4866397 0)
(49.498116 3.589193 8.4085968e-21)
(49.664133 3.6806917 -8.2786077e-21)
(49.858121 3.7673968 1.5900536e-20)
(50.088445 3.7985038 -4.1051605e-21)
(50.370652 3.754132 0)
(50.677835 3.6847413 0)
(50.989694 3.5716733 -7.4457161e-24)
(51.275802 3.3995005 -2.3773044e-20)
(51.511067 3.1287197 0)
(51.68769 2.795224 0)
(51.834307 2.4325859 -3.5706787e-20)
(51.990452 2.1280021 -9.514868e-20)
(52.114986 1.8056482 5.6092047e-20)
(52.190777 1.4490647 7.4305476e-20)
(52.219176 1.0328123 8.7468659e-20)
(52.180342 0.72614765 4.8102755e-24)
(52.141549 0.13783369 -1.2827121e-19)
(51.053997 0.15465015 -1.9453796e-22)
(49.545909 1.3649327 -2.111336e-19)
(49.544901 1.40017 1.0466564e-19)
(49.54494 1.4437683 1.1333646e-19)
(49.546632 1.4931833 9.6038759e-22)
(49.550551 1.5484248 -2.6306892e-19)
(49.557418 1.6099751 2.8002382e-19)
(49.568131 1.6783419 -1.4732299e-19)
(49.583808 1.7538516 -2.3967612e-21)
(49.605823 1.8366286 0)
(49.635847 1.9265481 -2.5094714e-21)
(49.675823 2.0231269 1.6132396e-19)
(49.727902 2.1253979 -1.5996747e-19)
(49.794254 2.2317571 0)
(49.8766 2.3398623 0)
(49.975038 2.4464966 -1.4448234e-19)
(50.086877 2.5471134 1.3639272e-19)
(50.21241 2.6340166 0)
(50.364874 2.7422796 1.2264967e-19)
(50.557979 2.7600586 -1.5902612e-19)
(50.793703 2.6691343 1.1992546e-19)
(51.022555 2.5570786 1.3087301e-19)
(51.236612 2.4007801 -1.1903556e-19)
(51.431104 2.2800104 3.5784546e-20)
(51.605251 2.1006932 3.1760963e-20)
(51.756758 1.8808079 0)
(51.882468 1.620494 0)
(51.968126 1.3168903 0)
(52.008014 0.95374329 -7.7320472e-20)
(51.998192 0.66843676 3.2294465e-24)
(51.988651 0.12694674 0)
(51.013624 0.072565265 5.2209794e-21)
(50.118878 0.7403726 3.3592764e-22)
(50.119516 0.76391946 -1.6790937e-19)
(50.120232 0.79099222 1.7776505e-19)
(50.121265 0.82180336 -1.8839036e-19)
(50.122793 0.85661314 1.9488723e-19)
(50.125058 0.89576244 0)
(50.128458 0.93964614 2.0399645e-19)
(50.133589 0.98865148 3.1712283e-21)
(50.141281 1.0431188 -2.0119931e-19)
(50.152614 1.1032756 6.1497583e-21)
(50.168899 1.1692052 0)
(50.191688 1.2407602 0)
(50.222695 1.3173923 0)
(50.265332 1.3983172 -4.991894e-21)
(50.324055 1.4825112 1.4780617e-19)
(50.400715 1.5679885 -1.3564344e-19)
(50.491886 1.6520772 0)
(50.584518 1.7306948 -2.7966948e-20)
(50.674587 1.7973435 0)
(50.783523 1.9566539 -2.214417e-20)
(50.934814 2.0077982 -9.9252081e-20)
(51.105514 1.8960798 7.141062e-24)
(51.279905 1.8716744 9.532652e-20)
(51.42031 1.7628068 -2.8102321e-20)
(51.551678 1.6079523 0)
(51.670803 1.4131818 -4.3848436e-20)
(51.755493 1.1671482 0)
(51.798837 0.8562673 8.5401171e-20)
(51.811774 0.59217192 -7.5730324e-20)
(51.827194 0.073219423 -9.9699938e-20)
(50.939162 -0.17497422 -2.3983105e-21)
(50.470475 0.62944244 -4.2339828e-19)
(50.468699 0.64385608 4.022431e-22)
(50.466793 0.66043285 4.2269801e-22)
(50.464856 0.67915144 8.7698706e-22)
(50.463059 0.70031927 -8.9737389e-22)
(50.461643 0.72427558 4.6338094e-19)
(50.460963 0.75142507 -4.6172098e-19)
(50.46149 0.78197806 -1.7594721e-21)
(50.463834 0.81656443 0)
(50.468749 0.85544979 -6.4894779e-21)
(50.477149 0.89896891 3.9105345e-19)
(50.49016 0.94741904 -7.2842243e-19)
(50.509155 1.000974 5.3062592e-24)
(50.535768 1.0595828 6.195925e-19)
(50.571739 1.1225947 8.7207908e-21)
(50.619176 1.1883915 -3.7058127e-19)
(50.680543 1.254357 1.13431e-19)
(50.757159 1.3167634 1.2697909e-20)
(50.840596 1.3794517 -1.1309977e-20)
(50.914451 1.4215514 2.0091317e-20)
(50.977752 1.4018363 0)
(51.072054 1.5321713 1.568316e-20)
(51.177696 1.4525822 -5.6183867e-20)
(51.281041 1.4237643 0)
(51.387351 1.3322275 0)
(51.490438 1.1954329 3.8719127e-20)
(51.561452 1.0047903 -3.4177162e-20)
(51.598723 0.74781557 -6.0316982e-20)
(51.627157 0.51560657 -1.3303012e-20)
(51.663592 0.11779992 5.8673409e-20)
(50.858901 0.30805494 7.396258e-21)
(50.754031 0.48913818 2.0352905e-22)
(50.752886 0.49995438 -3.9438861e-22)
(50.751822 0.51241887 0)
(50.750912 0.52648943 0)
(50.750258 0.5423872 0)
(50.749977 0.56036802 0)
(50.750221 0.58056666 0)
(50.751175 0.60336993 0)
(50.75305 0.62889964 0)
(50.756083 0.65739312 3.0148907e-21)
(50.760555 0.68904243 0)
(50.766826 0.72397214 -3.3344254e-19)
(50.77538 0.76221988 3.0561912e-19)
(50.786907 0.80370258 0)
(50.802406 0.84814127 -7.8533507e-21)
(50.823085 0.89485885 -7.0614529e-21)
(50.849881 0.94272142 -6.3214681e-21)
(50.882817 0.99025964 1.7474909e-19)
(50.921959 1.0312194 1.0017784e-20)
(50.967029 1.0685225 -1.5150929e-19)
(51.035942 1.102782 -1.562566e-20)
(51.078655 1.2053802 8.4133412e-20)
(51.108599 1.1429904 -7.4412229e-20)
(51.167974 1.1264399 0)
(51.250909 1.0728331 0)
(51.333674 0.98162683 3.4177089e-20)
(51.384115 0.84209667 0)
(51.411684 0.63838652 -2.6617069e-20)
(51.442774 0.43449818 0)
(51.44997 0.030643883 0)
(50.780364 -0.33288861 0)
(51.004529 0.37985495 -2.3513161e-20)
(51.001983 0.38719088 6.4267379e-20)
(50.999029 0.39560512 -3.4509017e-20)
(50.995638 0.40512553 0)
(50.991802 0.41586228 0)
(50.987523 0.42793366 0)
(50.982856 0.44146946 -4.2253198e-20)
(50.977914 0.45660402 8.5113513e-23)
(50.972889 0.47347463 4.4689708e-20)
(50.968072 0.49221509 -1.7729185e-22)
(50.963886 0.51294879 3.5512742e-22)
(50.960919 0.53577655 4.4574028e-20)
(50.959949 0.56077808 -8.5251154e-20)
(50.961939 0.58781639 3.8220171e-20)
(50.967931 0.61740095 0)
(50.97873 0.64922035 2.6444543e-22)
(50.994174 0.68414678 -1.7288853e-19)
(51.014868 0.72245603 4.9361716e-21)