/*--------------------------------*- C++ -*----------------------------------*\
| =========                 |                                                 |
| \\      /  F ield         | OpenFOAM: The Open Source CFD Toolbox           |
|  \\    /   O peration     | Version:  2406                                  |
|   \\  /    A nd           | Website:  www.openfoam.com                      |
|    \\/     M anipulation  |                                                 |
\*---------------------------------------------------------------------------*/
FoamFile
{
    version     2.0;
    format      ascii;
    arch        "LSB;label=32;scalar=64";
    class       volScalarField;
    location    "0.1";
    object      alphat;
}
// * * * * * * * * * * * * * * * * * * * * * * * * * * * * * * * * * * * * * //

dimensions      [1 -1 -1 0 0 0 0];

internalField   nonuniform List<scalar> 
2065
(
0.0051185064
0.0049856425
0.0048727688
0.065634505
0.076926409
0.087507646
0.095728053
0.099074057
0.094040793
0.077153255
0.049983535
0.023995613
0.011438534
0.007819731
0.006678195
0.0060629769
0.005699287
0.0054477503
0.0053189809
0.0051576339
0.0051201155
0.004988015
0.0048732516
0.0016631038
0.0026508659
0.004476816
0.0071238692
0.010602713
0.014990931
0.020401399
0.026948302
0.034727047
0.043653975
0.053633054
0.064478751
0.075675446
0.086267471
0.094658879
0.098399243
0.094042355
0.078028115
0.051366423
0.02491325
0.011661077
0.007864783
0.0066940846
0.0060732865
0.0057081522
0.0054533691
0.0053220384
0.0051595279
0.0051216361
0.0049904474
0.0048737986
0.0018452506
0.0028040072
0.0045821955
0.0071671484
0.010564808
0.014847436
0.020123902
0.026507531
0.034095205
0.042830052
0.052624169
0.063307168
0.074394682
0.084985825
0.093535954
0.097663668
0.093986486
0.078882769
0.052814931
0.025913814
0.011966971
0.0079150963
0.0067110648
0.0060841718
0.0057175223
0.0054592776
0.0053253728
0.0051617233
0.0051230094
0.0049930035
0.0048743792
0.0020648598
0.002986795
0.0047166547
0.0072371092
0.010551045
0.014725517
0.019865491
0.026082703
0.033467072
0.04201241
0.051613821
0.062124137
0.073089786
0.083665672
0.092360201
0.096865337
0.093869071
0.079712742
0.054299042
0.027002712
0.012269066
0.0079698902
0.0067294193
0.0060960973
0.0057276985
0.0054653986
0.0053290134
0.0051638112
0.0051242634
0.0049957569
0.0048750094
0.002332287
0.0032170891
0.0048929512
0.0073421931
0.010567732
0.014630646
0.019631088
0.025678033
0.032853702
0.041204998
0.050606723
0.060934999
0.071776211
0.082311156
0.091133175
0.096002954
0.093685069
0.080502124
0.055807899
0.028184301
0.012641752
0.0080327983
0.0067493158
0.0061088732
0.0057382912
0.0054717977
0.0053330904
0.0051661853
0.0051254282
0.004998687
0.0048757702
0.0026540281
0.0034974302
0.0051087335
0.0074852852
0.010619242
0.014567318
0.019425143
0.025299281
0.032274277
0.040414103
0.049608005
0.059744099
0.070441613
0.080925296
0.089856968
0.095075821
0.093429418
0.081238411
0.057341762
0.029461643
0.013039589
0.008100591
0.006770598
0.0061228145
0.0057498999
0.0054784591
0.0053375731
0.0051685456
0.0051264059
0.0050017837
0.00487674
0.0030412415
0.0038408847
0.0053913
0.0076745452
0.01070921
0.014538374
0.019250739
0.024950009
0.031724178
0.039648521
0.048623213
0.058556424
0.069094451
0.079512058
0.088534334
0.094083963
0.093097614
0.081911635
0.058866065
0.030829026
0.013500715
0.0081802065
0.0067945105
0.0061384467
0.0057617708
0.0054853919
0.0053425629
0.005171303
0.005127265
0.0050050263
0.0048780242
0.0035080861
0.0042510536
0.0057129462
0.0079082889
0.010838401
0.014544874
0.019110169
0.024631787
0.031205525
0.038907544
0.047657589
0.057377317
0.067742544
0.078075636
0.08716864
0.093028297
0.092686084
0.082509826
0.060367964
0.032289121
0.014011214
0.0082749329
0.0068189575
0.0061545764
0.0057747808
0.0054927933
0.0053478184
0.0051741939
0.0051280283
0.0050086491
0.0048797163
0.0040566935
0.0047293986
0.0060893531
0.0081853633
0.011004519
0.014584874
0.019001862
0.024344989
0.030716097
0.038178499
0.046711819
0.056211195
0.066390753
0.076616349
0.085763699
0.091910808
0.09219289
0.083021066
0.061856611
0.033839291
0.014587925
0.0083843495
0.0068489017
0.0061746138
0.0057881498
0.0055004439
0.0053534428
0.0051771113
0.0051283607
0.0050125275
0.0048818673
0.0046933353
0.0052834002
0.0065290184
0.0085003408
0.011201168
0.014653011
0.01892163
0.024088352
0.030256505
0.037490087
0.045791105
0.055062665
0.065045143
0.075150508
0.084325727
0.090734846
0.09161809
0.083437399
0.063327469
0.035476135
0.015231825
0.0085101969
0.0068769129
0.006192807
0.0058024093
0.0055089141
0.0053590911
0.0051799969
0.0051283991
0.0050169377
0.0048844975
0.0054154026
0.0059123762
0.0070269349
0.0088651776
0.011425109
0.014742269
0.018863057
0.02385769
0.029824593
0.036834682
0.044903781
0.053937273
0.063713132
0.073696711
0.082862751
0.089505174
0.090963913
0.083754908
0.064767836
0.037191309
0.01594976
0.0086565847
0.006915759
0.0062191195
0.0058179698
0.0055173831
0.0053650385
0.0051829483
0.0051283686
0.0050215962
0.0048876036
0.006213918
0.0066151363
0.0075799491
0.0092493301
0.011668245
0.014846261
0.018819976
0.023648205
0.029418356
0.036211659
0.044050552
0.052840601
0.062398886
0.072231251
0.081378938
0.088227162
0.090234186
0.08397896
0.0661685
0.03899137
0.016754134
0.008822156
0.0069493522
0.0062396084
0.0058330996
0.0055270432
0.005371052
0.0051859114
0.0051283125
0.0050269693
0.0048911363
0.007054979
0.00736729
0.0081811288
0.0096714515
0.011928628
0.01495972
0.018786922
0.023455275
0.029034734
0.035614624
0.04320624
0.051769257
0.061106737
0.070772981
0.079881064
0.086906552
0.089430415
0.084114064
0.06753183
0.040892843
0.017641056
0.0090197282
0.0069996871
0.0062725511
0.0058517868
0.0055361902
0.0053778078
0.0051889344
0.0051284908
0.0050331337
0.0048949422
0.0078949514
0.0081453503
0.0088276012
0.01014301
0.012217886
0.015088039
0.018765239
0.023278549
0.028673955
0.035047401
0.042406945
0.050735846
0.05984461
0.069330733
0.078365565
0.085548175
0.088553224
0.084148504
0.06881068
0.042817602
0.018633942
0.009238591
0.0070456161
0.0062983555
0.0058673051
0.0055470047
0.005385541
0.0051922119
0.0051295648
0.0050399777
0.0048986107
0.0086883062
0.0089061938
0.0094937027
0.010651027
0.012542724
0.015242348
0.018764505
0.023125579
0.028342748
0.03451928
0.041662044
0.049770332
0.058628363
0.067917322
0.076865311
0.084163382
0.087608064
0.084078199
0.069994703
0.044757135
0.019716228
0.0095024224
0.0071068312
0.0063330999
0.0058892802
0.0055574826
0.0053942376
0.0051956557
0.0051322144
0.0050468185
0.0049016921
0.0093197146
0.0095447445
0.01009295
0.011146331
0.012902133
0.0154443
0.018810636
0.02301599
0.028060434
0.034042063
0.040965406
0.0488142
0.057450517
0.066543512
0.075407477
0.082767646
0.086604852
0.083908
0.07107666
0.046731402
0.020959611
0.0098013001
0.0071761372
0.0063720601
0.0059056821
0.0055708429
0.0054037563
0.0051989536
0.0051361281
0.0050543064
0.0049052228
0.0098901051
0.010138702
0.010687427
0.011696531
0.013335742
0.01573142
0.018941839
0.022986314
0.027856479
0.033640394
0.040342144
0.04793921
0.056367146
0.065231493
0.073959213
0.08136962
0.085555323
0.083644234
0.072048556
0.048706784
0.022358197
0.010143779
0.0072460866
0.00639965
0.0059296047
0.0055852159
0.005411653
0.0052026909
0.0051411482
0.0050649355
0.004910811
0.010451535
0.010761067
0.01133177
0.012310765
0.013863538
0.016138417
0.019202187
0.023082872
0.027772559
0.033351495
0.039828567
0.047187298
0.055352614
0.063990943
0.07256191
0.079986321
0.084473869
0.083296082
0.072907671
0.050663865
0.023927756
0.010566162
0.0073407912
0.0064546087
0.0059498539
0.0056010634
0.0054203441
0.005207817
0.0051489764
0.0050794141
0.0049210922
0.011050797
0.011408212
0.01202365
0.013022174
0.014548553
0.016732664
0.019658099
0.023368223
0.02786353
0.033221953
0.039458701
0.046553531
0.054413192
0.062828089
0.071230923
0.078632672
0.083377191
0.082876359
0.073660702
0.052629768
0.025588986
0.011003881
0.0074264479
0.0064831893
0.0059736788
0.0056187999
0.0054263635
0.0052143522
0.0051592772
0.0050955055
0.0049413088
0.011929683
0.012334796
0.012989791
0.014002503
0.015497767
0.017592974
0.020375618
0.023901531
0.028182214
0.033299818
0.03927513
0.046090171
0.053672253
0.061840625
0.070005067
0.077327673
0.082281214
0.08239857
0.074313703
0.054624873
0.027450071
0.011573088
0.007548
0.0065300999
0.0059956049
0.0056334441
0.0054341013
0.0052221289
0.0051706148
0.0051106645
0.0049692177
0.013206528
0.013652504
0.014333957
0.015343804
0.016786203
0.01877229
0.021395757
0.024719764
0.028763998
0.03362126
0.039311255
0.045823304
0.053094222
0.060932615
0.06888538
0.076125635
0.08121076
0.08187611
0.074865094
0.05657491
0.029486947
0.012213633
0.0076530224
0.0065863864
0.0060183788
0.0056523179
0.0054419893
0.0052307138
0.0051841535
0.0051273699
0.004979322
0.014872066
0.015340735
0.016029082
0.01702002
0.018416365
0.020291047
0.022730243
0.025831964
0.029617843
0.034200508
0.03958333
0.045769586
0.052702274
0.060195736
0.067895218
0.074996543
0.080177329
0.081320763
0.075312785
0.058437499
0.031681357
0.012905403
0.0077826581
0.0066077359
0.0060378099
0.005668139
0.0054494925
0.0052391518
0.005197914
0.0051398325
0.004981963
0.016945456
0.017403416
0.018066717
0.019018114
0.020332431
0.022101533
0.024388287
0.027232357
0.030751315
0.035031496
0.040089314
0.04593183
0.052510472
0.059665755
0.067055719
0.073972062
0.079192229
0.080741458
0.075657172
0.060183151
0.033977586
0.01376448
0.007947055
0.0066529221
0.0060594458
0.0056826974
0.0054573537
0.005246467
0.0052081018
0.0051443153
0.0049809931
0.019626298
0.020063704
0.020663868
0.021501607
0.022655669
0.024216534
0.026293602
0.028939914
0.032168546
0.036105023
0.040812664
0.046293864
0.052502923
0.05929721
0.066359074
0.073053543
0.078259778
0.080142103
0.075895749
0.061778486
0.036306002
0.014719566
0.0080688147
0.0067036546
0.0060867328
0.0056975385
0.0054641366
0.005252625
0.0052163266
0.0051508871
0.0049780624
0.022461533
0.022921574
0.023507341
0.024281115
0.025309153
0.026672583
0.028460901
0.030805264
0.033796573
0.037411582
0.041732664
0.046827023
0.052650143
0.059068081
0.065787284
0.072231286
0.077375927
0.079521211
0.076024049
0.063208644
0.038665867
0.015756899
0.0082199021
0.0067138843
0.0060925429
0.0057011896
0.005475818
0.0052578048
0.0052232942
0.0051595372
0.0049774347
0.024944587
0.025484178
0.026131881
0.026928909
0.02792597
0.029190101
0.030804003
0.032860493
0.035478383
0.038788765
0.042787788
0.047488402
0.052913557
0.058943599
0.065298182
0.071475379
0.076520012
0.078865414
0.07603088
0.064443255
0.041014192
0.016942581
0.0084156889
0.0067266703
0.0061046732
0.0057080812
0.0054809318
0.0052622086
0.0052266352
0.0051694104
0.0049779005
0.026456948
0.027080866
0.027820398
0.028708039
0.029776743
0.031072859
0.03266157
0.034625218
0.037059465
0.040058804
0.043730908
0.048111223
0.053169088
0.05881949
0.064844721
0.070744
0.075666631
0.078164251
0.075915631
0.065479362
0.043287702
0.018250018
0.0086151865
0.0067444779
0.0061082569
0.0057097992
0.0054866497
0.005266348
0.0052269422
0.0051780989
0.0049877261
0.027207447
0.027871929
0.028640859
0.029550463
0.030639737
0.031954647
0.033550827
0.035496953
0.037872375
0.04076346
0.044255743
0.048418279
0.05322023
0.058564358
0.064310413
0.069968781
0.074783486
0.077402511
0.075678653
0.066328576
0.045475151
0.019706654
0.0088479839
0.0067482973
0.0061048489
0.0057095901
0.0054890538
0.0052703751
0.0052261776
0.0051859748
0.0050145539
0.027169981
0.027991971
0.028904384
0.029904218
0.031025863
0.032333816
0.033906649
0.035815934
0.038131147
0.040944368
0.044336504
0.048347301
0.052973479
0.058125777
0.063593437
0.069034042
0.073729363
0.076494506
0.075285067
0.066986041
0.047559371
0.021309283
0.0091362407
0.0067546617
0.0061046344
0.0057135474
0.0054945801
0.0052747452
0.0052249778
0.0052003958
0.0050330765
0.026277383
0.027148536
0.028162011
0.029318157
0.030633613
0.032118718
0.033797265
0.035730344
0.038022434
0.040774844
0.044068134
0.047940343
0.052396647
0.05734077
0.062608517
0.067900727
0.072504844
0.075458315
0.074743508
0.067456908
0.04952959
0.023115093
0.0094814712
0.0067661164
0.0061121302
0.0057177262
0.0054999893
0.0052783212
0.0052266582
0.00521899
0.0050545391
0.025563036
0.02635795
0.027284866
0.028358293
0.029605383
0.031059594
0.032762495
0.034768931
0.037121486
0.039872608
0.043103117
0.046890089
0.051260181
0.056180917
0.061396797
0.066569456
0.071209794
0.074234378
0.074009919
0.067721115
0.051333655
0.025065612
0.0099230982
0.0067970609
0.0061205259
0.0057202938
0.005508586
0.0052824717
0.0052311327
0.005289902
0.0050892405
0.02575893
0.026438216
0.027231367
0.02816214
0.029260228
0.030562329
0.032110908
0.033959421
0.036173878
0.038811157
0.041928034
0.045581684
0.049824576
0.054659304
0.059890786
0.065099884
0.069752004
0.07286598
0.073118372
0.067790052
0.052947728
0.027286445
0.010507342
0.0068497152
0.00613409
0.0057309114
0.0055173917
0.0052878969
0.0052478727
0.0053793539
0.0051214115
0.027136469
0.027712513
0.028378214
0.029162165
0.030092649
0.031205804
0.032544005
0.034165982
0.036140207
0.038533684
0.041415918
0.044842178
0.048832207
0.053343862
0.058310099
0.063495504
0.068146952
0.07153337
0.072137125
0.067684842
0.054373282
0.029675654
0.011255659
0.0069111566
0.0061709253
0.0057572264
0.0055174557
0.0052921064
0.0052814012
0.0054293508
0.0051410805
0.029337765
0.029881756
0.030497189
0.031210835
0.03204538
0.0330288
0.034200492
0.035615962
0.037332877
0.039422941
0.041960674
0.045011193
0.048616501
0.052761345
0.057337694
0.062102575
0.066715674
0.070125119
0.071084991
0.067436244
0.055588805
0.032194617
0.012160089
0.0070242224
0.0062095598
0.0057741587
0.0055156573
0.0052938018
0.0052942573
0.0054396517
0.0051519785
0.031555123
0.032141185
0.032797005
0.033540093
0.034386967
0.035355557
0.036483042
0.037805173
0.039370299
0.04123897
0.043480236
0.046164734
0.049343857
0.053025441
0.057138442
0.061482739
0.065665629
0.068995191
0.070168127
0.067169351
0.056658939
0.034824662
0.013285491
0.0071782191
0.0062314802
0.0057804469
0.0055138084
0.0052936981
0.0052908929
0.0054389919
0.0051565622
0.033259246
0.033890357
0.034595979
0.035393213
0.036295228
0.037314154
0.038478293
0.039810182
0.041346088
0.043133729
0.045228259
0.047684848
0.050550043
0.053842455
0.057517361
0.061417058
0.065202724
0.068343955
0.06952304
0.066997602
0.057658908
0.037454919
0.014675585
0.0073615967
0.0062371727
0.0057810714
0.0055135238
0.0052917206
0.0052760576
0.0054393896
0.0051681545
0.034174328
0.03488531
0.035673913
0.036546741
0.037515011
0.038590645
0.039794456
0.041153754
0.042695064
0.044456836
0.046484884
0.048824756
0.051512113
0.054562073
0.05793869
0.061515784
0.064998602
0.067882577
0.069080274
0.066952409
0.058625431
0.039953623
0.016410137
0.0075675769
0.0062383168
0.0057804801
0.0055140133
0.0052893203
0.0052644822
0.0054487695
0.0052001935
0.033800092
0.034598844
0.035496877
0.036495428
0.037603148
0.03882967
0.040183514
0.041676943
0.043326366
0.04513609
0.047148204
0.049414288
0.051982564
0.05487446
0.058060923
0.061423713
0.064704498
0.067405977
0.068693215
0.06694306
0.059534716
0.042314241
0.018422205
0.0078262642
0.0062363112
0.0057776019
0.0055149388
0.0052891017
0.0052615259
0.0055043553
0.0052334935
0.033490339
0.034236115
0.035080206
0.036030829
0.03710083
0.038304514
0.039657916
0.041176175
0.042886726
0.044820313
0.046978942
0.04936843
0.051995529
0.054845532
0.057909542
0.061137439
0.064182025
0.066716952
0.068133876
0.066781694
0.060281185
0.044495895
0.020536466
0.0081862161
0.0062428485
0.0057779439
0.005519219
0.0052915671
0.0052671152
0.0056237704
0.0052657531
0.034078075
0.034746319
0.035499617
0.036350523
0.03731207
0.038399278
0.039629487
0.041020168
0.042596521
0.044387902
0.046416018
0.048702694
0.051264492
0.054116399
0.057210928
0.060433029
0.063604433
0.066009034
0.067322119
0.066392088
0.060768401
0.046466592
0.022857602
0.0086801844
0.0062614486
0.0057838054
0.0055256655
0.0052952675
0.0052770868
0.0056962052
0.0052878392
0.035417899
0.03604428
0.036743762
0.037528628
0.038409603
0.03939922
0.040512254
0.041761958
0.043177227
0.044778345
0.046591236
0.048642473
0.050954306
0.053536133
0.056364939
0.05934164
0.062353145
0.065117396
0.066527053
0.065817179
0.060936658
0.048150539
0.025538575
0.0093408533
0.0063040928
0.0057888798
0.0055272462
0.0052991127
0.0052879055
0.005723225
0.0052990743
0.036496743
0.03712153
0.037819875
0.038600672
0.039472746
0.040445951
0.04153138
0.04273798
0.044089062
0.045597483
0.04728281
0.049165862
0.051266374
0.053595785
0.05614208
0.058844694
0.06156214
0.063987037
0.065595705
0.065124885
0.060857416
0.049445846
0.028021426
0.010243134
0.0063772651
0.0057907905
0.0055280846
0.0053026812
0.0052978841
0.0057396713
0.0053190906
0.03694985
0.037590483
0.03830753
0.039107912
0.039999901
0.040992404
0.042095033
0.043315213
0.044669299
0.046169047
0.047826197
0.049653802
0.051662453
0.053854903
0.056216178
0.058692481
0.061157416
0.063354797
0.064800559
0.064448104
0.060689388
0.050475024
0.030305586
0.01142133
0.0064748598
0.0057934292
0.005528261
0.0053057712
0.0053080193
0.0057799425
0.0053768507
0.037301092
0.03793048
0.038635288
0.039422778
0.04030127
0.041279664
0.042367453
0.043573164
0.044908043
0.046386681
0.048017131
0.049808934
0.051767699
0.053890753
0.056158122
0.058515417
0.060843238
0.06289777
0.064184142
0.063941445
0.060692719
0.051686275
0.0331449
0.012873409
0.0065972355
0.0057872967
0.0055205834
0.0053078563
0.0053188287
0.0058724051
0.005453069
0.037834306
0.038438194
0.039113947
0.039869188
0.040711968
0.041650913
0.042695219
0.043853722
0.045135669
0.046556416
0.048123057
0.049844223
0.051724705
0.053761103
0.055933269
0.05818929
0.060417268
0.062393906
0.063604664
0.063595719
0.060880585
0.053017359
0.036165141
0.014627803
0.0067881274
0.0057884122
0.0055158597
0.005308935
0.0053304298
0.005939748
0.0054865292
0.038397555
0.038980959
0.039633152
0.040361427
0.041173272
0.042076635
0.043079906
0.044191259
0.045418267
0.046775207
0.04826785
0.04990347
0.05168584
0.053611177
0.055660746
0.057786849
0.059887826
0.061766645
0.063155721
0.063206548
0.06087648
0.05399396
0.038692405
0.016607129
0.0070679166
0.005801448
0.0055135659
0.0053096579
0.0053431327
0.0059635139
0.0055096107
0.038939169
0.039507799
0.040143089
0.040851858
0.041641094
0.042518115
0.043490514
0.044565716
0.045749495
0.047054805
0.048485579
0.050047005
0.051740821
0.053561928
0.055492095
0.057488375
0.059462691
0.061248374
0.062554019
0.062692505
0.060688362
0.054598002
0.040649675
0.018962133
0.0074737182
0.005820703
0.0055120623
0.0053106846
0.0053585727
0.0059823662
0.0055659075
0.039395133
0.039949159
0.040567996
0.041258111
0.042026141
0.042878973
0.043823649
0.044867172
0.046013762
0.047275598
0.048655087
0.050155607
0.051776873
0.053511888
0.055341414
0.05722389
0.059077149
0.060745418
0.061937035
0.062163512
0.060448296
0.055074785
0.042601593
0.021658382
0.0080764817
0.0058517332
0.0055117058
0.0053121288
0.0053780997
0.0060973999
0.005647793
0.039854889
0.040394139
0.040996396
0.041667731
0.042414469
0.043243127
0.044160302
0.045172523
0.04628319
0.047503719
0.048835536
0.050280841
0.051838094
0.053499186
0.055244411
0.057033454
0.058789183
0.060368643
0.061511899
0.061758948
0.060326451
0.055613017
0.044531414
0.024290912
0.0089270014
0.0059002168
0.005513282
0.0053133359
0.0053971887
0.006167733
0.005682938
0.040156727
0.040682267
0.041269118
0.041923024
0.042650031
0.043456333
0.044348152
0.045331558
0.046410014
0.047592548
0.048881326
0.050277153
0.051777514
0.053373475
0.055045265
0.056754211
0.058428816
0.059940242
0.061060263
0.06138867
0.060157341
0.056022016
0.046286718
0.027564009
0.01016549
0.005979321
0.0055069318
0.0053144784
0.0054146921
0.0062339133
0.0056863107
0.040521137
0.041031356
0.041600797
0.042234919
0.042939456
0.043720246
0.044583107
0.045533653
0.046575209
0.047715238
0.04895603
0.050297607
0.051737057
0.053265182
0.054862625
0.056493258
0.058091691
0.059542306
0.060641972
0.061031418
0.059994865
0.056350647
0.047705522
0.030282151
0.011632992
0.0061039211
0.0055068654
0.0053156697
0.0054301993
0.00634273
0.0056875491
0.040704453
0.04120393
0.041761094
0.0423811
0.043069388
0.043831443
0.044672662
0.045598166
0.046611284
0.047717242
0.048918959
0.050215179
0.051601907
0.053069659
0.054599531
0.056156696
0.057679983
0.059062598
0.060117974
0.060515693
0.059683617
0.056535058
0.049019779
0.033537859
0.013461178
0.0062977746
0.0055064874
0.0053184009
0.0054518256
0.0065058813
0.0056983034
0.040928737
0.041417615
0.041962613
0.042568627
0.043240824
0.043984373
0.044804301
0.045705297
0.046690496
0.047763813
0.048928195
0.050181806
0.051520545
0.052934657
0.054405531
0.055900385
0.057362484
0.058694865
0.059731327
0.060183654
0.05947199
0.056696792
0.050042744
0.035917857
0.015654268
0.0065995417
0.0055179939
0.0053231456
0.0054805159
0.0066067732
0.0057697044
0.040933815
0.041415216
0.041951493
0.042547376
0.043207796
0.043937643
0.044741626
0.04562407
0.046588213
0.047636056
0.0487713
0.049991078
0.051290532
0.052659489
0.054079379
0.055518443
0.056923119
0.058202829
0.059203751
0.05965717
0.05915549
0.056797183
0.051030118
0.038665041
0.018245939
0.0070816819
0.0055423158
0.0053292424
0.0055170593
0.0066266375
0.0058506363
0.041044493
0.04151982
0.042048893
0.042636243
0.043286533
0.044004345
0.044794025
0.045659477
0.046603668
0.047627527
0.048734597
0.049921255
0.051182282
0.052507754
0.053880567
0.055271183
0.056629212
0.057870624
0.058853289
0.059332175
0.058837923
0.056805044
0.051658989
0.040438939
0.020795993
0.0077825096
0.0055768807
0.0053343411
0.0055557563
0.00667113
0.0058817702
0.040851272
0.041325073
0.041852005
0.042436409
0.043082725
0.04379524
0.044577938
0.045434282
0.046366957
0.047376034
0.048464294
0.049628404
0.050862548
0.052155966
0.053490103
0.05483561
0.056145473
0.057343463
0.058304487
0.05881931
0.058577942
0.056781844
0.052369178
0.042890426
0.024854869
0.0089602382
0.0056342983
0.0053418583
0.0055977568
0.0069064996
0.0059531398
0.040716132
0.041188462
0.041713678
0.042296069
0.042939974
0.043649552
0.044428621
0.04528045
0.046207482
0.047209777
0.048288849
0.049441867
0.050662269
0.051939348
0.053255603
0.054582804
0.055875445
0.05705997
0.058019152
0.058559513
0.058361018
0.056817124
0.052765294
0.044027503
0.027117105
0.01044837
0.0057424033
0.0053552846
0.0056371225
0.0070025996
0.0059925035
0.04019667
0.040671261
0.041197966
0.041780899
0.042424068
0.043131236
0.043905923
0.044752239
0.045673442
0.046669137
0.047738143
0.048877656
0.050080851
0.051333978
0.052621327
0.053915753
0.055176622
0.056339358
0.057300529
0.057891629
0.057822311
0.05659737
0.053338286
0.046323363
0.032135815
0.012746746
0.0059420028
0.005371765
0.0056796775
0.0071251548
0.0061016091
0.0038410703
0.0041229448
0.0043336378
0.0045016694
0.0046521496
0.0048106097
0.0050043707
0.0052528125
0.0055686198
0.0059602853
0.0064276512
0.006965918
0.0075564148
0.0081594846
0.0087308418
0.0092306723
0.0096441147
0.0099767813
0.010269427
0.010580216
0.010975718
0.011567305
0.012431188
0.013648615
0.015283952
0.017297011
0.019430498
0.021280461
0.02252223
0.023039656
0.022603177
0.021718462
0.021072379
0.021239357
0.022417416
0.024356215
0.026566385
0.028252502
0.029361677
0.029334928
0.0031094494
0.0033391225
0.0035305811
0.0037033487
0.0038738447
0.0040725876
0.0043257859
0.0046488032
0.0050569048
0.0055520206
0.0061329081
0.0067878349
0.0074801479
0.0081607172
0.008777591
0.0092957423
0.0097002882
0.010024895
0.010344562
0.010718963
0.011286848
0.012143487
0.013366991
0.015030349
0.017151703
0.019496594
0.021642003
0.023142186
0.02392243
0.023775825
0.022952633
0.022176402
0.022117565
0.02309662
0.024977693
0.027194815
0.029027975
0.030282437
0.030483642
0.029827485
0.029936635
0.030956166
0.032410167
0.033415248
0.033731349
0.034137506
0.03478508
0.035420007
0.036003741
0.036505734
0.037011261
0.03735404
0.037766374
0.037972389
0.038217739
0.038226024
0.038330319
0.038104001
0.037939531
0.037365932
0.0022970935
0.002532279
0.0027418567
0.0029387683
0.003152976
0.0034157094
0.003739695
0.0041496934
0.004656286
0.0052500896
0.0059423998
0.0066972702
0.0074806584
0.0082251969
0.0088726036
0.0093833168
0.0097737894
0.010140363
0.010517781
0.011069842
0.011925443
0.013157063
0.014814778
0.016997549
0.019505626
0.021902384
0.023678418
0.024669866
0.024826622
0.024127806
0.02326006
0.02299645
0.02376863
0.025554192
0.027786392
0.029743388
0.031131757
0.031547458
0.030918514
0.030895121
0.031802751
0.03324152
0.034266377
0.034618971
0.035005833
0.035621239
0.036237138
0.036809376
0.03729819
0.037790751
0.038121938
0.038521154
0.038720876
0.038960561
0.038968066
0.039074306
0.038856987
0.038699613
0.038140982
0.0016348008
0.0018822062
0.0021210347
0.0023534578
0.0026330413
0.0029643129
0.0033664175
0.0038678877
0.0044640649
0.0051638605
0.0059438816
0.0067875017
0.0076234078
0.0083973625
0.0090422903
0.0095312136
0.0099741764
0.010390273
0.010942803
0.011799885
0.01304804
0.014700917
0.016868698
0.01948779
0.022083268
0.024138419
0.025319775
0.025744579
0.025240344
0.024320702
0.023874754
0.024437576
0.026096584
0.028338904
0.030400788
0.031912663
0.032525502
0.031956698
0.031817921
0.032613022
0.034026955
0.035073157
0.035462295
0.035834071
0.036419749
0.037017729
0.037579657
0.038056925
0.038538014
0.038859002
0.039246276
0.039440697
0.039675551
0.039682966
0.039791706
0.039583907
0.039434793
0.038891526
0.0011223478
0.0013359883
0.0015794125
0.0018529763
0.0021629232
0.0025183778
0.0029380003
0.0034382879
0.0040276212
0.0047118721
0.0054754492
0.0063121724
0.0071781672
0.0080154867
0.0087625643
0.0093447306
0.0098703531
0.010357598
0.010922653
0.011778873
0.013031486
0.014682351
0.016791498
0.019468836
0.022220125
0.02452843
0.025900663
0.026536383
0.026279627
0.025354222
0.024750546
0.025107157
0.026617926
0.028849722
0.031002531
0.032628166
0.033417612
0.03294231
0.032704138
0.033387467
0.034767774
0.035835602
0.036261435
0.036622244
0.037180773
0.037761971
0.038314787
0.038782145
0.039253323
0.039565572
0.039942201
0.040132393
0.040363372
0.04037149
0.040483374
0.040285668
0.040146086
0.039618285
)
;

boundaryField
{
    Side1
    {
        type            empty;
    }
    Inlet
    {
        type            calculated;
        value           nonuniform List<scalar> 
59
(
0.0048542292
0.0048542303
0.0048542307
0.0048542297
0.0048542284
0.0048542268
0.0048542243
0.0048542203
0.0048542143
0.0048542059
0.0048541947
0.0048541808
0.004854165
0.0048541483
0.0048541313
0.0048541144
0.0048540976
0.0048540807
0.0048540639
0.0048540464
0.0048540276
0.0048540069
0.0048539837
0.0048539556
0.0048539209
0.0048538778
0.0048538292
0.0048537728
0.0048537225
0.0048536927
0.0048536704
0.0048536498
0.0048536391
0.0048536448
0.0048536455
0.0048536422
0.0048536417
0.0048536435
0.0048536484
0.0048536492
0.0048536479
0.0048536512
0.0048536577
0.0048536682
0.0048536698
0.0048536653
0.0048536661
0.0048536947
0.004853739
0.0048537911
0.0048538383
0.0048538999
0.0048539786
0.0048540343
0.0048539536
0.0048539379
0.0048539078
0.0048538765
0.0048537615
)
;
    }
    Side2
    {
        type            empty;
    }
    Outlet
    {
        type            zeroGradient;
    }
    Botwall
    {
        type            compressible::alphatWallFunction;
        value           nonuniform List<scalar> 0();
    }
    Cyli
    {
        type            compressible::alphatWallFunction;
        value           nonuniform List<scalar> 0();
    }
    procBoundary3to0
    {
        type            processor;
        value           nonuniform List<scalar> 7(0.0034785656 0.0028169079 0.0028169079 0.0020315604 0.0020315604 0.001381303 0.001381303);
    }
    procBoundary3to1
    {
        type            processor;
        value           nonuniform List<scalar> 
62
(
0.0047171925
0.0049900181
0.0051892977
0.0053472255
0.0054936308
0.0056540882
0.0058495484
0.0060941628
0.0063970293
0.0067624585
0.0071886076
0.0076660191
0.0081771252
0.0086881376
0.0091615494
0.0095746261
0.0099267601
0.010230946
0.010522477
0.010850088
0.011274215
0.011882461
0.012738425
0.013923409
0.01548582
0.017348689
0.019252087
0.020810549
0.021823323
0.02205324
0.021388974
0.02048207
0.019977838
0.020355673
0.021685578
0.023665862
0.025849341
0.02739614
0.028368102
0.028138051
0.028707894
0.028707894
0.028946015
0.030061453
0.031519852
0.032519043
0.032804291
0.033230446
0.033909855
0.034565039
0.035161985
0.03567899
0.0361994
0.036555345
0.036981824
0.037195236
0.037446982
0.037456471
0.037559266
0.037324363
0.037153794
0.036565586
)
;
    }
    procBoundary3to2
    {
        type            processor;
        value           nonuniform List<scalar> 
35
(
0.0051167434
0.0049831895
0.0048723541
0.066773799
0.078148179
0.088705624
0.09674357
0.099691058
0.093989545
0.076268678
0.048679838
0.023152928
0.011191107
0.0077829242
0.0066666319
0.0060548456
0.0056910051
0.0054422368
0.0053163839
0.0051555501
0.0051555501
0.001514301
0.001514301
0.002522983
0.00439618
0.0071020646
0.010660039
0.015152265
0.020695374
0.027404542
0.03538137
0.04448331
0.054639745
0.054639745
0.00093980197
)
;
    }
}


// ************************************************************************* //
