/*--------------------------------*- C++ -*----------------------------------*\
| =========                 |                                                 |
| \\      /  F ield         | OpenFOAM: The Open Source CFD Toolbox           |
|  \\    /   O peration     | Version:  2406                                  |
|   \\  /    A nd           | Website:  www.openfoam.com                      |
|    \\/     M anipulation  |                                                 |
\*---------------------------------------------------------------------------*/
FoamFile
{
    version     2.0;
    format      ascii;
    arch        "LSB;label=32;scalar=64";
    class       volScalarField;
    location    "0.017";
    object      nut;
}
// * * * * * * * * * * * * * * * * * * * * * * * * * * * * * * * * * * * * * //

dimensions      [0 2 -1 0 0 0 0];

internalField   nonuniform List<scalar> 
8260
(
0.033685819
0.038234988
0.043571938
0.049609705
0.056207151
0.063213509
0.070440553
0.077635864
0.084458994
0.09042654
0.094857602
0.096816717
0.095042619
0.087969039
0.073904082
0.051964526
0.027624085
0.012854517
0.0082551478
0.0067756559
0.0059201048
0.0053576194
0.0049842237
0.0046975843
0.0044940293
0.0043656546
0.0042733346
0.0042085376
0.0041612208
0.0041297917
0.0041123874
0.03982145
0.044499471
0.049638158
0.055300801
0.061446901
0.067962968
0.074671809
0.081320718
0.087563538
0.092909373
0.096652628
0.097837927
0.095187558
0.087143859
0.072068597
0.049514774
0.02527982
0.012073243
0.0080317355
0.0066910943
0.005878735
0.0053348466
0.0049705583
0.0046885329
0.0044880831
0.0043623304
0.0042712006
0.0042071408
0.0041602683
0.00412915
0.0041118563
0.046865575
0.051366288
0.056252274
0.061555605
0.06724995
0.073244488
0.079377713
0.085403998
0.090973516
0.095585221
0.09851948
0.098799457
0.095131818
0.085975191
0.069776643
0.046538047
0.022928433
0.011281027
0.0078838542
0.0066497335
0.0058588086
0.005324018
0.0049638728
0.0046838742
0.0044850202
0.0043605826
0.0042700361
0.0042063416
0.0041595536
0.0041285816
0.0041113853
0.054902288
0.059040451
0.063554802
0.068426434
0.073615317
0.079031065
0.084517447
0.089832564
0.094623002
0.098377551
0.10036493
0.099588944
0.09474346
0.084314007
0.066875449
0.042960697
0.020484294
0.010585179
0.0077407534
0.0065857311
0.005825078
0.0053048986
0.0049516463
0.0046752742
0.004479341
0.0043572607
0.0042678334
0.0042048113
0.0041584566
0.0041278054
0.0041109281
0.063928143
0.067565065
0.071602438
0.075944399
0.080539114
0.085289098
0.090034675
0.094531117
0.098418399
0.10117465
0.1020565
0.10005098
0.093844582
0.081964788
0.063173853
0.03870343
0.017987436
0.0099163805
0.0075907485
0.006524835
0.0057941397
0.0052879798
0.0049409667
0.0046679751
0.0044746418
0.0043544742
0.0042660448
0.0042035377
0.0041574283
0.0041270185
0.0041103678
0.073774687
0.076852472
0.080316344
0.08402838
0.087926964
0.091905862
0.095797543
0.099349265
0.10219062
0.10378729
0.10338325
0.099951327
0.092180159
0.078661546
0.058433768
0.033726037
0.015780157
0.00930191
0.0074408168
0.0064496663
0.0057537963
0.0052651411
0.0049261041
0.004657752
0.0044680136
0.0043504749
0.0042634794
0.0042017155
0.004156087
0.0041260419
0.0041096723
0.084139813
0.086624084
0.089440122
0.092434125
0.095536534
0.098632667
0.10154557
0.10401168
0.10564758
0.10590475
0.10401421
0.098938189
0.089384578
0.074043087
0.052370885
0.028101291
0.0137041
0.008746976
0.0072839371
0.0063699155
0.0057119986
0.0052420884
0.0049110592
0.0046477159
0.0044617385
0.0043465716
0.0042610751
0.004199944
0.0041547163
0.0041249937
0.0041088337
0.094524799
0.096389186
0.098498146
0.10069854
0.10291233
0.10501562
0.10682089
0.10805218
0.10831163
0.10703584
0.1034436
0.096492458
0.084941687
0.067630777
0.044692831
0.022140276
0.011810403
0.0083130277
0.0071224582
0.0062762007
0.005661141
0.0052134199
0.0048918482
0.0046348872
0.0044537753
0.0043415187
0.0042579655
0.0041976654
0.0041530445
0.0041237424
0.0041078705
0.10413466
0.10535672
0.10670909
0.10805066
0.10929291
0.11030059
0.11087372
0.11072219
0.10943286
0.10642816
0.10091772
0.091863807
0.078139887
0.05882622
0.03526029
0.017242733
0.010240336
0.0079580602
0.0069468257
0.0061734053
0.0056058806
0.0051829283
0.004871167
0.00462128
0.0044457928
0.0043362909
0.0042548394
0.0041952929
0.0041512759
0.0041223666
0.0041067746
0.11172127
0.11229012
0.11284669
0.11327692
0.11347914
0.11330413
0.11253642
0.11086941
0.10787455
0.10296375
0.095345518
0.083999562
0.068036078
0.047004951
0.024612693
0.013410435
0.0090288441
0.007633938
0.0067594834
0.0060561539
0.0055399023
0.0051459927
0.0048456396
0.0046041677
0.0044360404
0.0043299306
0.0042509471
0.0041923697
0.004149178
0.0041207495
0.0041055258
0.11540423
0.11532057
0.11506511
0.1145554
0.11367458
0.11225749
0.11007065
0.10678988
0.10197487
0.095038735
0.085211162
0.071494843
0.053535387
0.031917542
0.016824853
0.010655264
0.0083053823
0.0073312078
0.0065530973
0.0059288061
0.0054672938
0.0051057329
0.0048175088
0.0045850024
0.0044258525
0.0043233665
0.0042468234
0.0041892218
0.004146896
0.0041189381
0.0041041015
0.11242443
0.11167749
0.11062945
0.1091977
0.1072448
0.10458465
0.10096373
0.096044001
0.089389127
0.080449841
0.068553747
0.052629857
0.033862845
0.019437383
0.012068466
0.0089255775
0.0079110079
0.0069992669
0.0063446097
0.0057871058
0.0053793117
0.0050586699
0.0047834826
0.0045615333
0.004413594
0.0043157142
0.004241725
0.0041854437
0.0041441814
0.0041168074
0.0041022138
0.098887607
0.097580501
0.095831889
0.093546302
0.090578372
0.086731366
0.081736483
0.075262614
0.066940725
0.056389186
0.043468492
0.030720468
0.019728921
0.01266465
0.0093755274
0.0082312395
0.0073572943
0.0066913671
0.0061022132
0.0056380417
0.0052879634
0.0050033082
0.0047457682
0.00453642
0.0044007077
0.0043076656
0.004236173
0.004181333
0.0041411291
0.0041143828
0.0040998136
0.070082425
0.068241155
0.06596971
0.063317199
0.060158714
0.056332187
0.051672435
0.046091446
0.039570059
0.032177139
0.024289623
0.017152004
0.012059978
0.0093414659
0.0081963433
0.0075628886
0.0070206553
0.0063411106
0.0058772716
0.0054706239
0.005177299
0.0049437245
0.0046995085
0.0045076753
0.0043857387
0.0042978958
0.0042296199
0.004176447
0.0041374936
0.0041115388
0.0040971425
0.039747523
0.038556073
0.03708542
0.035331798
0.033173199
0.030544853
0.027581915
0.024339569
0.020804911
0.017060533
0.013387744
0.010437654
0.0087215523
0.0078608741
0.0076842637
0.007050746
0.0064370588
0.0060540803
0.0056304113
0.005304671
0.0050666138
0.004870217
0.0046498166
0.0044780712
0.0043702313
0.0042873909
0.004222551
0.0041710411
0.0041334404
0.0041083149
0.0040942375
0.019634842
0.019205602
0.018572532
0.017768009
0.016764238
0.01556037
0.014212419
0.012775695
0.011296714
0.0098517587
0.0085907641
0.0077436812
0.0073293371
0.007307407
0.0067862045
0.006404964
0.0061010724
0.0057144966
0.0054113291
0.0051362798
0.0049361499
0.0047946309
0.0045891467
0.0044437641
0.0043518097
0.0042754466
0.0042142674
0.0041646311
0.0041288335
0.0041046114
0.0040912063
0.01030179
0.010198251
0.009985052
0.0096860507
0.0093141571
0.0088875676
0.0084410032
0.0079747568
0.0074855594
0.007072031
0.0068915037
0.0068118515
0.0067591532
0.0063276186
0.006266568
0.0060644085
0.0056323147
0.0054660037
0.0052064483
0.0049979862
0.0048218725
0.0046994796
0.0045298852
0.0044101322
0.0043327984
0.0042628015
0.0042048595
0.0041577065
0.0041238674
0.0041005066
0.0040876974
0.0068751132
0.0068500863
0.0067838744
0.0066892169
0.0065710472
0.0064373296
0.0063409393
0.0062570515
0.0062128827
0.0062154026
0.0062703272
0.0062047589
0.0058832194
0.0058188677
0.005643023
0.0054992635
0.0054280947
0.0052495249
0.005057723
0.004852519
0.0047004589
0.0046176457
0.0044676421
0.0043696442
0.0043120477
0.0042479009
0.0041937617
0.0041499804
0.004118405
0.0040959414
0.004083854
0.0057542884
0.0057190099
0.0056903311
0.0056672992
0.0056601014
0.0056804034
0.0057135664
0.0056915011
0.0056736882
0.0056668118
0.0056092963
0.005502767
0.0055588963
0.005507468
0.0053013649
0.0053013643
0.0051967104
0.005083324
0.0049059166
0.0047658126
0.0045996347
0.0045158268
0.0044209653
0.004334348
0.0042895375
0.00423269
0.0041818228
0.0041417079
0.0041123309
0.0040910569
0.0040795841
0.0052815574
0.005279993
0.005278533
0.0052826323
0.0052979182
0.0053178817
0.0053059126
0.005285325
0.0052520963
0.005180939
0.0051452288
0.0051677265
0.0051179243
0.0050987839
0.0050620697
0.0048822985
0.0047982609
0.0047132932
0.0046969434
0.0046225665
0.0045089106
0.0044358864
0.0043720038
0.0042987586
0.00426321
0.0042140625
0.0041685171
0.0041321427
0.0041057287
0.0040858103
0.0040753673
0.0049269829
0.0049238093
0.0049169262
0.0049000191
0.0048732053
0.0048412345
0.0048262234
0.0048299428
0.0048275527
0.0048319273
0.0048454199
0.004813834
0.0048280947
0.0047632477
0.0047550342
0.0046833284
0.0046076936
0.0045420976
0.0045218043
0.0045356622
0.0044574057
0.0043513729
0.0043259809
0.0042732828
0.0042325735
0.0041937365
0.0041533005
0.0041228957
0.0040980536
0.0040802494
0.0040703987
0.004591388
0.0045920625
0.0045906253
0.0045870524
0.004583456
0.004582575
0.0045943564
0.0046000381
0.0045975763
0.0045863729
0.0045589509
0.0045501787
0.0045313838
0.0045136385
0.0044960752
0.0044482597
0.0044731796
0.0044262106
0.0043946404
0.0043766183
0.0043820459
0.0043078657
0.0042726777
0.0042309804
0.0041993315
0.0041700018
0.0041360315
0.0041108989
0.0040899754
0.0040743373
0.0040657926
0.0044178585
0.0044197354
0.0044195264
0.0044176074
0.0044141386
0.0044086791
0.0043976354
0.0043925854
0.0043923031
0.0043929111
0.0043939375
0.0043942878
0.0043756831
0.0043782404
0.0043677696
0.0043498559
0.0043146178
0.0043155328
0.0043207606
0.0042841251
0.0042928662
0.0042640284
0.0042232571
0.0041964864
0.0041627479
0.0041425126
0.0041181735
0.0040991904
0.0040817627
0.0040680616
0.0040607666
0.0042617001
0.0042636048
0.0042640604
0.0042636447
0.004263401
0.0042639991
0.0042676402
0.0042743192
0.0042789596
0.0042811011
0.0042798531
0.0042732908
0.0042650566
0.0042499753
0.0042438276
0.0042509518
0.004230976
0.004226826
0.0042559597
0.0042262921
0.0042050408
0.0042041942
0.0041730084
0.0041490987
0.0041275652
0.0041180333
0.0041004639
0.0040865072
0.0040728363
0.0040619428
0.004055659
0.0041856349
0.0041876209
0.004188254
0.0041879238
0.0041870572
0.00418535
0.0041817471
0.0041806166
0.004180279
0.0041798628
0.0041788638
0.0041776146
0.0041762499
0.0041748114
0.0041772824
0.0041705695
0.004176588
0.0041747839
0.0041644655
0.0041602343
0.0041492382
0.0041403241
0.004140969
0.0041180147
0.0041047978
0.0040975469
0.0040881996
0.0040756212
0.0040651984
0.0040559962
0.0040506295
0.0041256559
0.0041269489
0.0041274421
0.0041275351
0.0041276833
0.0041280789
0.0041294672
0.0041313564
0.0041332884
0.0041343779
0.0041336594
0.0041318836
0.0041291035
0.004128289
0.0041276
0.0041284241
0.0041262895
0.0041298973
0.0041151451
0.004111436
0.0041093353
0.0041091812
0.0041066218
0.0041004059
0.0040916802
0.0040820795
0.0040778093
0.0040664634
0.0040573154
0.0040505609
0.0040462781
0.0040937807
0.0040947666
0.0040951492
0.0040951971
0.0040951483
0.0040949988
0.0040946241
0.004094053
0.0040934348
0.0040927478
0.004094082
0.0040962215
0.0040986795
0.0041006166
0.0041034434
0.0041010895
0.0041008244
0.0040917256
0.0040892047
0.0040925374
0.0040909491
0.0040910793
0.0040890465
0.0040890931
0.0040824605
0.0040733763
0.0040679953
0.0040603477
0.0040523888
0.0040455971
0.0040424317
0.0040603368
0.0040606774
0.0040608091
0.0040609205
0.0040611873
0.0040616796
0.0040624495
0.0040636168
0.0040655373
0.0040691265
0.0040728309
0.0040761302
0.0040783461
0.0040784517
0.0040760738
0.0040752675
0.0040737819
0.0040747835
0.004075213
0.0040837347
0.0040832943
0.0040814497
0.004074037
0.0040704917
0.004070263
0.0040653257
0.0040573094
0.00405207
0.0040469098
0.0040426126
0.0040406741
0.0040471175
0.0040473131
0.0040474002
0.0040474804
0.0040476386
0.0040479076
0.0040482879
0.0040487883
0.0040494133
0.0040501563
0.0040508484
0.0040517693
0.0040526038
0.0040532304
0.0040531145
0.0040534321
0.0040553227
0.0040592122
0.0040623961
0.0040605358
0.0040617266
0.0040608405
0.0040607405
0.0040569857
0.0040557044
0.004054181
0.0040509479
0.0040474234
0.004043873
0.0040404097
0.0040373185
0.0040412636
0.0040413338
0.0040413505
0.0040413645
0.0040413962
0.0040414615
0.0040415955
0.0040418174
0.0040421163
0.0040424927
0.004042987
0.0040436193
0.0040442895
0.0040449501
0.0040451858
0.0040453943
0.0040455143
0.0040461899
0.0040471441
0.004047371
0.0040486271
0.0040484522
0.0040488263
0.0040492678
0.0040487285
0.0040480142
0.0040468454
0.0040449151
0.0040403422
0.0040373015
0.004037717
0.0040369744
0.0040370927
0.0040372495
0.004037457
0.0040377158
0.0040380118
0.0040383225
0.0040386373
0.0040389858
0.0040393909
0.0040399065
0.0040405643
0.0040412822
0.0040416569
0.0040417733
0.0040416455
0.0040414687
0.0040415077
0.0040416795
0.0040426853
0.0040439807
0.0040440892
0.0040440181
0.0040448165
0.0040449021
0.0040442363
0.0040437593
0.0040415938
0.0040399033
0.0040393732
0.0040377368
0.00076990189
0.0016580696
0.0033023218
0.0057279096
0.0089256238
0.012982063
0.017977212
0.023953661
0.030980646
0.038614526
0.046972695
0.055674317
0.064056118
0.071079511
0.075177321
0.074112538
0.065102998
0.047338519
0.026747806
0.012862443
0.0075662136
0.0059685318
0.0053142873
0.0049034718
0.0046293127
0.0044414877
0.0043258438
0.0042436631
0.0041872602
0.0041493126
0.0041290469
0.0018903525
0.0037636883
0.0061776274
0.0090805857
0.012632192
0.016928387
0.022030271
0.02821974
0.035053324
0.042628882
0.050814853
0.059177138
0.06700897
0.073219008
0.076190246
0.07366184
0.062953357
0.04396558
0.023575413
0.0116097
0.0071489219
0.0058384663
0.0052601797
0.00487383
0.0046126823
0.0044324703
0.0043208246
0.0042408338
0.0041855959
0.0041483177
0.0041285349
0.0034404497
0.0054262151
0.007887526
0.010978349
0.014808879
0.01945587
0.025009735
0.031365276
0.038386726
0.046069928
0.054183018
0.062268156
0.069587713
0.075008934
0.076876803
0.072926879
0.060630573
0.040743101
0.021141411
0.010378849
0.0068354185
0.0057800617
0.0052347135
0.0048595783
0.0046045636
0.0044279633
0.0043180162
0.0042391275
0.0041844112
0.0041474861
0.0041280531
0.0049395197
0.0071387619
0.0099173834
0.013343202
0.017453425
0.022358167
0.028127496
0.034527638
0.041644976
0.049343989
0.057330567
0.065108743
0.071898477
0.076522633
0.077291802
0.07195272
0.058170011
0.037667274
0.019007202
0.0096809267
0.0066705249
0.0057075663
0.0051962202
0.0048371809
0.0045915139
0.0044207207
0.0043138073
0.0042366912
0.0041829138
0.0041465469
0.0041273204
0.00643659
0.008938742
0.01200455
0.015680938
0.020048685
0.025214261
0.031058127
0.037607841
0.044811505
0.052487387
0.060310269
0.067750432
0.073986777
0.077800486
0.077473292
0.070775313
0.055609498
0.034717693
0.017112045
0.0089135953
0.006490662
0.0056563487
0.0051714192
0.0048228797
0.0045830822
0.0044160947
0.0043108847
0.0042349036
0.0041816913
0.0041456945
0.0041264547
0.0080044435
0.010761384
0.014063969
0.01797641
0.022634361
0.027975917
0.033971962
0.040648736
0.047899358
0.055514903
0.063141811
0.070216259
0.075877914
0.07886998
0.077451113
0.069421008
0.052988444
0.031899532
0.015453177
0.008440151
0.0063770323
0.0056041298
0.0051414129
0.0048049798
0.0045723311
0.0044101308
0.0043072679
0.0042327456
0.0041803093
0.0041447835
0.0041258023
0.009533114
0.012536177
0.016093307
0.020289381
0.025167895
0.030675481
0.036843213
0.043625853
0.05089667
0.058425462
0.065831501
0.072518272
0.077589069
0.079753134
0.077251376
0.067924283
0.050343324
0.029255006
0.014039727
0.0079665566
0.0062680097
0.005561696
0.0051189783
0.004791769
0.004564247
0.0044057136
0.0043044163
0.0042309673
0.0041790895
0.0041439259
0.0041252753
0.011013746
0.014286101
0.018108976
0.022595122
0.0276524
0.033345749
0.039660537
0.046525685
0.053795173
0.061216403
0.068382135
0.07466495
0.079134649
0.080470227
0.076899437
0.066318489
0.047703383
0.026816062
0.012873181
0.0076555009
0.0061890524
0.0055215376
0.0050951036
0.0047772828
0.0045552216
0.0044007389
0.0043012645
0.0042290204
0.0041777968
0.0041430417
0.0041247579
0.012492671
0.016018442
0.020112422
0.024821259
0.030083829
0.03595811
0.042405585
0.049336964
0.056588078
0.063885174
0.070796024
0.076664238
0.08052888
0.081042191
0.07642698
0.064635445
0.045121447
0.024610124
0.011942747
0.0073903423
0.0061173253
0.0054872439
0.0050758073
0.0047656918
0.0045478354
0.0043967195
0.0042985926
0.0042273074
0.004176605
0.0041421905
0.0041239876
0.013925583
0.01770841
0.022074673
0.026979605
0.032455607
0.038502631
0.045069129
0.05205187
0.059270093
0.066430144
0.073076245
0.078524844
0.08178686
0.081490926
0.075866388
0.062915726
0.042619207
0.022650857
0.011148591
0.0072052969
0.0060608151
0.0054560046
0.0050567968
0.0047539671
0.0045402244
0.0043925504
0.0042958325
0.0042255365
0.0041753884
0.0041413257
0.0041231418
0.015344329
0.019376771
0.023977019
0.02908728
0.034767211
0.04097168
0.047642698
0.054663375
0.061836916
0.068850769
0.075226996
0.080256641
0.082924764
0.081839555
0.075244412
0.06119259
0.040230435
0.020944886
0.010536311
0.0070613016
0.0060105752
0.0054290873
0.0050408939
0.0047441811
0.0045337177
0.0043890161
0.0042933966
0.0042239226
0.0041742396
0.0041404831
0.0041225239
0.01672254
0.021005398
0.025813412
0.03113876
0.037008113
0.043354581
0.050117791
0.057165114
0.064285138
0.071147504
0.077253537
0.081870558
0.083959554
0.08211596
0.074587934
0.059500056
0.037989618
0.019491364
0.010038271
0.0069528285
0.0059696534
0.0054052976
0.0050260469
0.0047348016
0.0045273596
0.0043855395
0.0042909834
0.0042223122
0.0041730915
0.0041396388
0.0041219888
0.018075171
0.022586479
0.027598064
0.033125142
0.039158357
0.045641975
0.052486896
0.059551422
0.06661212
0.073321605
0.079161884
0.083378136
0.084910206
0.08233984
0.073921501
0.057869562
0.0359214
0.018276288
0.009666046
0.0068700035
0.0059344455
0.0053850546
0.0050135611
0.004726841
0.0045218285
0.004382523
0.0042888083
0.0042208197
0.0041719935
0.0041388106
0.0041213126
0.019397477
0.024114838
0.029326754
0.035038817
0.041212553
0.047828136
0.054742177
0.0618168
0.068816063
0.075376307
0.080960074
0.084795431
0.085794623
0.082530372
0.073273437
0.05632222
0.034044487
0.017284769
0.0093942048
0.0068098498
0.0059062523
0.0053677825
0.0050024479
0.004719533
0.0045166386
0.0043796675
0.0042867122
0.0042193654
0.00417091
0.0041379843
0.0041205447
0.020700379
0.02559835
0.030994788
0.036875137
0.043195592
0.049886224
0.05687945
0.063960231
0.070898283
0.077319404
0.082660725
0.086134488
0.086631119
0.082718114
0.072679869
0.054873587
0.032370106
0.01650143
0.0092173082
0.0067665672
0.0058835953
0.0053536099
0.0049932852
0.004713363
0.0045121286
0.0043771758
0.0042848062
0.0042180094
0.0041698679
0.0041371713
0.0041197702
0.02196259
0.027032278
0.032595182
0.038624453
0.045071365
0.051858991
0.05887344
0.065976001
0.072859605
0.079146803
0.08426503
0.087404108
0.087439507
0.082929353
0.072173491
0.053556504
0.030907655
0.015919454
0.0090845636
0.0067348839
0.0058668469
0.0053422763
0.0049855855
0.004707955
0.0045080521
0.0043748935
0.0042830076
0.0042167106
0.0041688488
0.0041363657
0.0041190345
0.023134536
0.028373882
0.034095027
0.040263113
0.046823432
0.053695037
0.06075218
0.067827258
0.0746634
0.080850181
0.08577126
0.088616739
0.088237176
0.083188085
0.071783843
0.052422438
0.029702029
0.015425673
0.0089501523
0.0067103295
0.005855293
0.005333851
0.0049795898
0.0047035344
0.0045045703
0.0043729194
0.0042813731
0.0042155003
0.0041678659
0.0041355723
0.0041183447
0.02418192
0.029561153
0.035419789
0.041715476
0.048388646
0.055349064
0.062465442
0.069552777
0.076337031
0.082405854
0.087177613
0.089781681
0.089040095
0.083516005
0.07153678
0.051513243
0.028735905
0.01501449
0.008837413
0.0066948497
0.0058489162
0.0053282079
0.0049750788
0.0046999171
0.0045015577
0.004371174
0.0042798617
0.0042143574
0.0041669104
0.0041347891
0.0041176541
0.025286273
0.030725166
0.036657071
0.043035046
0.049788059
0.056818684
0.063988825
0.071103483
0.077874209
0.083878376
0.088509943
0.090882591
0.089860393
0.083932202
0.071454738
0.050861199
0.027993636
0.014669316
0.0087354374
0.0066866824
0.0058472748
0.0053253258
0.0049721867
0.0046972049
0.0044990887
0.0043697044
0.0042785041
0.0042132981
0.0041659896
0.004134019
0.0041169287
0.026382389
0.031858789
0.037826639
0.044245716
0.051044679
0.058122661
0.065333891
0.072476141
0.079248809
0.08521694
0.089758529
0.091983411
0.090713095
0.084431002
0.071555472
0.050490816
0.027466029
0.014377717
0.0086458678
0.0066864435
0.0058504933
0.00532509
0.0049708541
0.0046953264
0.0044971073
0.0043684733
0.0042772836
0.0042123124
0.0041650995
0.0041332614
0.0041161907
0.027445771
0.032930011
0.038903667
0.04533324
0.052149732
0.059255386
0.066496696
0.073667355
0.080456973
0.086419174
0.090916392
0.093046934
0.0916067
0.085077314
0.071840929
0.050420197
0.027153622
0.01412213
0.0085648922
0.0066923384
0.0058579207
0.0053274844
0.0049711435
0.0046943562
0.0044956541
0.004367504
0.0042762175
0.0042114072
0.0041642431
0.0041325174
0.0041154789
0.028467785
0.033926269
0.039872382
0.046282604
0.053089133
0.060208067
0.067494621
0.074718782
0.081557775
0.08753273
0.092005803
0.094081305
0.092541223
0.085846418
0.07236035
0.0506655
0.027071861
0.013878868
0.0084859946
0.0067073454
0.0058696371
0.0053325148
0.0049729697
0.0046942755
0.0044946986
0.0043667709
0.0042752935
0.0042105723
0.0041634155
0.004131784
0.0041147848
0.02945433
0.034828137
0.040697472
0.047055846
0.053861791
0.06100856
0.068335355
0.075597036
0.082461962
0.088474169
0.092981402
0.095071678
0.093514211
0.086742839
0.073093346
0.051248283
0.027218352
0.013621014
0.0084099627
0.0067283051
0.0058856803
0.0053400507
0.004976214
0.0046947627
0.0044942135
0.0043662547
0.0042745035
0.0042098001
0.0041626116
0.0041310576
0.0041140604
0.030407505
0.035606399
0.041307766
0.047534986
0.054266953
0.061388359
0.068727734
0.076040911
0.082987927
0.089093482
0.093695473
0.095868609
0.094363365
0.087596113
0.073863616
0.051947849
0.027594426
0.013269906
0.0083408372
0.0067534836
0.0059050316
0.0053496113
0.0049805981
0.004696161
0.0044940965
0.0043658983
0.0042738229
0.0042090793
0.0041618286
0.0041303403
0.0041132674
0.00079005268
0.0016068007
0.0031566157
0.0054554942
0.0085005608
0.012315654
0.017031713
0.022739355
0.029536163
0.037010174
0.045270757
0.053963419
0.062454835
0.069760072
0.074356889
0.074039194
0.065979294
0.048906228
0.02813287
0.013343899
0.0076849618
0.0060089626
0.0053329678
0.0049138422
0.0046352704
0.0044449854
0.0043280607
0.0042449893
0.0041881884
0.0041499658
0.0041293816
0.00083826413
0.0016543911
0.003178883
0.0054158361
0.0083778072
0.012130481
0.016774311
0.022393282
0.029073051
0.036469884
0.044601845
0.053188607
0.061655967
0.069021687
0.073792296
0.073792465
0.066226463
0.04961638
0.02885535
0.013662474
0.0077613991
0.0060354114
0.0053459648
0.0049210875
0.0046393765
0.0044472489
0.004329536
0.0042458998
0.0041888399
0.0041504466
0.0041296881
0.00089727712
0.0017051658
0.0032107982
0.0054090294
0.0083150014
0.011993482
0.016540812
0.022045083
0.028575099
0.035861404
0.043887009
0.052393554
0.060828736
0.068248863
0.073190944
0.0735138
0.066453818
0.050338905
0.029625597
0.014010239
0.007847555
0.0060621916
0.0053586351
0.0049281635
0.0046434316
0.0044498571
0.0043311915
0.0042468768
0.0041895482
0.0041509488
0.0041299593
0.00096527282
0.0017606528
0.0032444029
0.0054026411
0.0082516181
0.011855002
0.016305181
0.021687504
0.028074056
0.03524332
0.043157101
0.051574853
0.059972758
0.067440627
0.07255091
0.073200371
0.06665619
0.051071685
0.030443732
0.014395343
0.007942347
0.0060952837
0.0053747466
0.0049369727
0.0046482779
0.004452358
0.0043328141
0.0042479151
0.0041902869
0.0041514963
0.004130317
0.0010445676
0.0018234757
0.0032807231
0.0053982387
0.0081898752
0.011717414
0.016069701
0.021329688
0.027571279
0.034618191
0.042413716
0.05073587
0.059088567
0.066596635
0.071870672
0.072849322
0.066826422
0.051812116
0.031306976
0.014820644
0.0080580292
0.0061244183
0.0053882047
0.0049446414
0.0046527767
0.0044554637
0.0043347647
0.0042490544
0.0041911082
0.0041520797
0.0041307012
0.0011372142
0.0018950263
0.0033236211
0.0053995946
0.0081335237
0.011584447
0.015837973
0.020976815
0.027069434
0.033987985
0.041658345
0.049877487
0.058176354
0.065716156
0.071148099
0.072456753
0.066965637
0.052556116
0.032199789
0.015291838
0.0081791363
0.006165325
0.0054076445
0.0049551343
0.0046584616
0.004458672
0.0043367618
0.004250271
0.0041919723
0.0041527006
0.0041311796
0.0012484918
0.0019844477
0.0033774001
0.0054095995
0.00808458
0.011457565
0.015611074
0.020627093
0.026569939
0.033355489
0.040893999
0.049003079
0.05723954
0.064802641
0.070385912
0.072024176
0.067087615
0.053317224
0.033148552
0.015813216
0.008320531
0.0062054839
0.0054263051
0.0049652973
0.0046641155
0.0044621239
0.0043388969
0.0042515696
0.004192897
0.0041533564
0.0041316474
0.0013825846
0.0020945257
0.0034486067
0.0054344564
0.008049367
0.011343655
0.015396552
0.020289552
0.026089456
0.032729042
0.040129703
0.048121585
0.056286073
0.063864783
0.069592801
0.071559658
0.067175408
0.054075887
0.03416732
0.016390001
0.0084786608
0.0062493222
0.0054463548
0.0049762945
0.0046702388
0.0044658489
0.0043411487
0.0042529512
0.0041938692
0.0041540485
0.0041320923
0.0015451639
0.0022245935
0.0035409242
0.005479129
0.0080326142
0.011246761
0.015197476
0.019964927
0.025608573
0.03210777
0.039365096
0.047231793
0.055312929
0.062898345
0.068761614
0.071051623
0.067224496
0.054829426
0.035251149
0.017028222
0.008656849
0.0062970483
0.0054678703
0.0049878161
0.0046766478
0.0044698214
0.0043435563
0.0042544228
0.0041949102
0.0041547912
0.0041325654
0.0017405105
0.0023884058
0.0036644124
0.0055509654
0.0080402998
0.011172206
0.015018688
0.019657727
0.025143922
0.031495922
0.0386042
0.046338183
0.054334957
0.061906718
0.067893545
0.070499037
0.067231219
0.055574738
0.036387061
0.01773403
0.0088578468
0.006349286
0.0054906921
0.0050003542
0.0046836802
0.0044741603
0.0043460868
0.0042559956
0.0041960035
0.0041555728
0.0041332576
0.00197519
0.0025914308
0.0038207262
0.0056556649
0.0080786336
0.01112574
0.014865083
0.019373657
0.02470756
0.030899103
0.037851555
0.045444629
0.053343304
0.060892486
0.066990212
0.069901397
0.067191694
0.056298768
0.037572825
0.01851516
0.0090852873
0.0064061261
0.0055154064
0.0050133563
0.0046909603
0.0044787079
0.0043487994
0.0042576676
0.0041971794
0.0041564035
0.0041341524
0.0022554625
0.0028471551
0.0040355514
0.0058040965
0.0081543416
0.011112626
0.01474239
0.019116601
0.02429841
0.030329622
0.037112857
0.044555404
0.052342263
0.059858744
0.066053692
0.069258642
0.067102508
0.056990727
0.038780441
0.019372345
0.0093419368
0.0064685236
0.0055406685
0.0050274964
0.0046990168
0.0044837669
0.0043516332
0.0042594562
0.0041984035
0.004157261
0.0041350595
0.0025842616
0.003153463
0.004289999
0.0059973876
0.0082707568
0.011136507
0.014654309
0.018890364
0.023917623
0.029771415
0.036390111
0.043674728
0.051339205
0.058809234
0.06508651
0.068571176
0.066960756
0.057644701
0.040000557
0.020311956
0.0096328528
0.0065363646
0.0055689428
0.0050421787
0.0047073348
0.0044889212
0.0043546758
0.0042613518
0.0041997224
0.0041581897
0.0041357601
0.0029743472
0.0035184412
0.0045965273
0.0062382326
0.008430807
0.011200014
0.014602505
0.018698105
0.023566228
0.029235983
0.035686781
0.042806588
0.050338305
0.057747289
0.064091483
0.067839905
0.066763932
0.058252903
0.04124283
0.0213392
0.0099607601
0.0066109098
0.0055957685
0.005057828
0.0047163895
0.004494761
0.0043578362
0.0042633761
0.0042010839
0.0041591544
0.0041365706
0.0034418408
0.003954232
0.0049700383
0.0065323173
0.0086343991
0.011302425
0.014586453
0.01854062
0.02324633
0.028740014
0.0350079
0.041954925
0.049343076
0.056669982
0.063071328
0.067066256
0.066509919
0.05880571
0.042495671
0.022452518
0.010333332
0.006692513
0.005627702
0.0050744781
0.0047260234
0.0045005901
0.0043612395
0.0042655226
0.004202555
0.004160205
0.0041375521
0.0040013529
0.0044683069
0.0054087206
0.0068805147
0.0088803636
0.011440449
0.01460284
0.018415839
0.022957419
0.028274713
0.034361374
0.041124063
0.048359251
0.05560388
0.062031929
0.066252558
0.066197829
0.059293543
0.043757682
0.023657588
0.010750416
0.0067811353
0.0056558065
0.005091536
0.0047358123
0.0045071286
0.004364747
0.0042677936
0.0042040685
0.0041612797
0.0041385712
0.004643358
0.0050529258
0.0058989336
0.0072573587
0.0091556614
0.011604993
0.014644587
0.01831846
0.022696636
0.02783831
0.033738176
0.040316187
0.047390768
0.054542545
0.060977599
0.065401749
0.065828457
0.059711038
0.045012628
0.024936421
0.011226262
0.006881272
0.0056893909
0.0051099243
0.0047470244
0.0045138711
0.0043685664
0.0042702284
0.0042056952
0.0041624487
0.0041396137
0.0053715364
0.0057099993
0.0064457689
0.0076782374
0.009454959
0.01178699
0.014702828
0.018240723
0.022458433
0.027425164
0.033129135
0.039529139
0.0464385
0.053476902
0.059910709
0.064516685
0.065402894
0.06006205
0.046260809
0.026331611
0.011754867
0.006985765
0.0057223502
0.0051289011
0.0047571933
0.0045208005
0.0043724131
0.0042727454
0.0042073767
0.0041636362
0.0041406799
0.0061564847
0.0064285168
0.0070451096
0.0081382433
0.0097778833
0.011978919
0.014768551
0.018174024
0.022236649
0.027033417
0.03255495
0.038764727
0.045504304
0.052420315
0.058835471
0.063599807
0.064917545
0.060341245
0.047474523
0.027792505
0.012359084
0.0071109083
0.0057511193
0.005147026
0.0047695907
0.0045289642
0.0043767432
0.0042755209
0.0042091444
0.0041649166
0.0041417636
0.0069586942
0.0071702558
0.0076834379
0.0086293759
0.010112563
0.012175989
0.014835501
0.018111329
0.022025905
0.026659829
0.032005491
0.03803897
0.044595238
0.051375739
0.057743819
0.062651839
0.064370858
0.060531693
0.048622475
0.029288353
0.013020628
0.0072478063
0.0057950412
0.0051690805
0.0047804267
0.0045359798
0.0043808653
0.004278295
0.0042110135
0.0041662221
0.004142858
0.0077106515
0.0078930271
0.0083319137
0.0091457577
0.010469001
0.012381658
0.014904305
0.018050856
0.021824227
0.026303187
0.031478969
0.037330305
0.043711232
0.050349382
0.05666453