/*--------------------------------*- C++ -*----------------------------------*\
| =========                 |                                                 |
| \\      /  F ield         | OpenFOAM: The Open Source CFD Toolbox           |
|  \\    /   O peration     | Version:  2406                                  |
|   \\  /    A nd           | Website:  www.openfoam.com                      |
|    \\/     M anipulation  |                                                 |
\*---------------------------------------------------------------------------*/
FoamFile
{
    version     2.0;
    format      ascii;
    arch        "LSB;label=32;scalar=64";
    class       surfaceScalarField;
    location    "0.017";
    object      phi;
}
// * * * * * * * * * * * * * * * * * * * * * * * * * * * * * * * * * * * * * //

dimensions      [1 0 -1 0 0 0 0];

oriented        oriented;

internalField   nonuniform List<scalar> 
16284
(
0.01059014
-0.014767351
0.015218071
-0.011040884
0.010143146
-0.017339211
0.017786175
0.0096743573
-0.020290195
0.020758953
0.0091870351
-0.023700252
0.02418754
0.00868846
-0.027639155
0.028137694
0.0081890022
-0.032173867
0.032673285
0.0077005288
-0.037380284
0.037868706
0.0072328177
-0.043348569
0.043816209
0.0067921494
-0.050200905
0.050641482
0.0063811034
-0.058079506
0.058490449
0.006000322
-0.06711419
0.067494878
0.005645488
-0.07747117
0.07782593
0.005306648
-0.089316849
0.089655625
0.004966604
-0.10277317
0.10311314
0.0045962831
-0.11767826
0.11804848
0.0041278426
-0.13368011
0.13414844
0.0035433706
-0.14995595
0.15054033
0.0030134515
-0.1673633
0.16789311
0.0026203087
-0.18842913
0.18882211
0.0022878231
-0.21293323
0.21326549
0.0019921833
-0.24076878
0.24106415
0.0017240669
-0.27227717
0.27254496
0.0014796875
-0.30801879
0.30826282
0.001260567
-0.34859497
0.34881373
0.0010602048
-0.39474671
0.39494667
0.00087359912
-0.44707125
0.44725734
0.0006958113
-0.50635356
0.50653069
0.00052396286
-0.57371009
0.5738812
0.00035373127
-0.65016902
0.65033835
0.00018094142
-0.73727518
0.73744681
-0.83605309
0.83623302
0.011738664
-0.014372238
-0.012133806
0.011294659
-0.01689524
0.010823507
-0.019819081
0.01032901
-0.023205798
0.0098159267
-0.02712612
0.0092935438
-0.031651541
0.008773621
-0.036860433
0.0082680453
-0.042843085
0.0077835925
-0.049716563
0.0073238294
-0.057619853
0.006891557
-0.066682012
0.0064838758
-0.077063561
0.0060908565
-0.088923893
0.005689663
-0.10237206
0.0052489533
-0.11723767
0.0046916048
-0.13312288
0.0040085026
-0.14927295
0.0034140886
-0.16676902
0.0029740582
-0.18798928
0.0025976644
-0.21255708
0.0022619981
-0.24043341
0.0019575256
-0.27197306
0.0016799178
-0.30774157
0.0014312749
-0.34834673
0.0012039186
-0.39451981
0.00099193008
-0.44685986
0.00079002494
-0.50615239
0.00059474758
-0.57351565
0.00040155022
-0.64997685
0.00020511117
-0.73708006
-0.83584834
0.012886039
-0.014026591
-0.013231725
0.012482888
-0.016492132
0.012035641
-0.019371883
0.01155239
-0.022722602
0.011039652
-0.026613448
0.010506527
-0.031118494
0.0099645952
-0.036318595
0.0094268943
-0.042305493
0.0089023286
-0.049192115
0.0083945104
-0.057112146
0.0079087299
-0.066196319
0.0074433808
-0.076598277
0.0069888104
-0.088469385
0.0065171387
-0.10190048
0.0059925344
-0.1167132
0.0053274184
-0.13245789
0.0045338907
-0.14847954
0.0038784685
-0.16611374
0.0033867284
-0.18749774
0.0029596896
-0.21213032
0.0025772785
-0.24005134
0.0022300653
-0.27162626
0.0019131928
-0.30742515
0.0016297055
-0.34806371
0.0013706373
-0.39426127
0.0011289321
-0.44661884
0.00089893498
-0.50592325
0.00067649148
-0.57329417
0.00045684085
-0.64975839
0.00023314518
-0.73685789
-0.83561809
0.014049161
-0.013739391
-0.014336411
0.013702434
-0.01614546
0.013300291
-0.018969799
0.012848798
-0.022271178
0.012354667
-0.026119397
0.011826665
-0.030590587
0.011276058
-0.035768096
0.010715949
-0.041745504
0.010156886
-0.048633173
0.0096042131
-0.056559577
0.0090643669
-0.065656551
0.0085372065
-0.076071175
0.0080133512
-0.087945592
0.0074603092
-0.10134754
0.0068348528
-0.11608789
0.0060392847
-0.13166247
0.0051228668
-0.14756325
0.0044070002
-0.16539804
0.0038548843
-0.18694584
0.0033697648
-0.21164551
0.0029340433
-0.23961601
0.0025383227
-0.27123102
0.0021769568
-0.30706429
0.0018540936
-0.34774138
0.0015592697
-0.39396706
0.0012839589
-0.44634432
0.0010221796
-0.50566244
0.00076894513
-0.57304203
0.00051936057
-0.64951017
0.00026492633
-0.7366052
-0.83535596
0.015224466
-0.013519341
-0.015444575
0.014944981
-0.015866036
0.014604416
-0.018629302
0.014204521
-0.021871361
0.013749451
-0.025664418
0.013246051
-0.03008729
0.012704124
-0.035226284
0.012135777
-0.041177277
0.011552218
-0.048049728
0.010960872
-0.055968325
0.010368767
-0.065064515
0.0097769465
-0.075479408
0.0091760067
-0.087344717
0.0085287505
-0.10070041
0.0077803013
-0.11533961
0.0068284861
-0.13071082
0.0057820194
-0.14651694
0.0050070809
-0.16462328
0.0043871464
-0.18632614
0.0038369558
-0.21109566
0.0033411725
-0.23912066
0.0028905384
-0.27078092
0.0024784538
-0.30665279
0.0021105789
-0.3473741
0.0017749212
-0.3936321
0.001461133
-0.44603144
0.0011629658
-0.50536538
0.00087447686
-0.5727548
0.00059079779
-0.64922807
0.00030122855
-0.73631766
-0.83505784
0.016402078
-0.013373784
-0.016547694
0.016199879
-0.015663899
0.015935077
-0.018364568
0.015604977
-0.02154134
0.015209593
-0.025269125
0.014752128
-0.029629927
0.01423933
-0.034713595
0.013680966
-0.040619023
0.013087507
-0.047456369
0.012467379
-0.055348279
0.011827778
-0.064424975
0.011170197
-0.074821882
0.010484361
-0.086658955
0.0097273577
-0.099943543
0.0088275244
-0.11443998
0.0076910967
-0.12957461
0.00651987
-0.14534591
0.0056859445
-0.16378957
0.004990594
-0.18563105
0.0043672425
-0.21047269
0.0038036394
-0.23855756
0.0032909624
-0.27026886
0.0028213124
-0.30618379
0.0024021949
-0.34695567
0.0020201996
-0.39325091
0.0016626628
-0.44567495
0.0013230419
-0.50502703
0.00099438781
-0.57242759
0.0006720177
-0.64890752
0.00034236319
-0.73599035
-0.8347189
0.017577901
-0.013307631
-0.017644106
0.017460377
-0.015546429
0.017282809
-0.01818706
0.017037812
-0.021296414
0.016720616
-0.024952013
0.016329791
-0.029239194
0.015867637
-0.034251538
0.015339994
-0.040091475
0.014754742
-0.046871203
0.01411939
-0.054712999
0.013440095
-0.06374574
0.012717379
-0.074099228
0.011938139
-0.08587981
0.011051714
-0.099057297
0.0099638816
-0.1133524
0.008617982
-0.12822898
0.007348056
-0.14407622
0.006449972
-0.16289172
0.0056728039
-0.18485416
0.0049682374
-0.20976854
0.0043287567
-0.23791864
0.0037465519
-0.26968735
0.0032119101
-0.30564989
0.0027344289
-0.34647896
0.002299795
-0.39281721
0.0018924829
-0.44526883
0.0015054874
-0.50464149
0.0011309698
-0.57205472
0.00076461824
-0.64854327
0.00038916504
-0.7356176
-0.83433371
0.018764807
-0.013321248
-0.018751227
0.018734117
-0.015515783
0.018647977
-0.018100974
0.018496265
-0.021144766
0.01827001
-0.02472583
0.017962583
-0.028931848
0.017570607
-0.033859645
0.017094311
-0.039615263
0.0165368
-0.046313773
0.015902114
-0.054078387
0.015193103
-0.063036801
0.014406555
-0.073312766
0.013522416
-0.084995805
0.012480257
-0.098015374
0.011159365
-0.11203183
0.0095970802
-0.12666705
0.008275757
-0.14275521
0.0073051905
-0.16192143
0.0064404426
-0.18398972
0.0056467895
-0.20897534
0.0049229641
-0.23719546
0.0042632712
-0.26902844
0.0036557743
-0.30504323
0.0031120117
-0.34593607
0.0026177375
-0.39232401
0.0021540821
-0.44480656
0.0017130143
-0.50420209
0.001286272
-0.57162987
0.00086995684
-0.64812939
0.00044230824
-0.73519308
-0.83389595
0.019972243
-0.013408035
-0.019885481
0.020024612
-0.015568189
0.02002902
-0.018105431
0.019972954
-0.021088758
0.019844083
-0.024597027
0.019630769
-0.028718608
0.019323477
-0.033552435
0.01891565
-0.039207523
0.018403585
-0.045801797
0.017784966
-0.053459862
0.017056021
-0.062307962
0.016204862
-0.072461739
0.015194646
-0.083985791
0.013960161
-0.09678121
0.012365041
-0.11043713
0.010625158
-0.12492764
0.0093048599
-0.14143531
0.0082570409
-0.16087395
0.0072985881
-0.18303161
0.0064092218
-0.20808645
0.0055933166
-0.23638027
0.004847834
-0.26828387
0.004159563
-0.3043559
0.0035410078
-0.3453185
0.0029792199
-0.39176347
0.0024519623
-0.44428089
0.0019491376
-0.50370116
0.0014629761
-0.57114588
0.000989817
-0.64765905
0.00050277915
-0.73470967
-0.83339834
0.02121146
-0.013556305
-0.021063222
0.021335217
-0.015691986
0.021421845
-0.018192115
0.021456891
-0.021123872
0.021423843
-0.024564056
0.021306471
-0.028601324
0.021089528
-0.033335588
0.020759317
-0.038877422
0.020303764
-0.045346367
0.019711268
-0.052867507
0.018967299
-0.061564158
0.018044885
-0.071539537
0.016882919
-0.082824128
0.015384096
-0.095282824
0.013501372
-0.10855498
0.011711587
-0.12313846
0.010424657
-0.14014888
0.009309008
-0.15975871
0.0082486871
-0.18197169
0.0072604525
-0.20709875
0.006346379
-0.235467
0.0055057315
-0.26744426
0.0047290237
-0.30358025
0.004027279
-0.34461784
0.0033892645
-0.39112688
0.0027904435
-0.4436839
0.0022172678
-0.50313015
0.0016637547
-0.57059488
0.0011258852
-0.64712445
0.00057150202
-0.73415949
-0.83283264
0.02248287
-0.013760576
-0.022278666
0.022667077
-0.015876264
0.022820526
-0.018345637
0.022928584
-0.021232013
0.022974508
-0.024610077
0.022939621
-0.028566551
0.022803916
-0.033200018
0.02254645
-0.038620111
0.022145114
-0.044945213
0.02157545
-0.052298057
0.020806962
-0.060795927
0.0197867
-0.070519597
0.018407805
-0.081445667
0.016573508
-0.093449111
0.014568274
-0.10655049
0.012934394
-0.12150533
0.011647788
-0.13886289
0.010421867
-0.1585333
0.0093002586
-0.18085059
0.0082064817
-0.20600559
0.0071730828
-0.23443446
0.0062413933
-0.26651374
0.0053695361
-0.30270957
0.004577472
-0.34382693
0.0038537508
-0.3904048
0.0031742909
-0.44300656
0.0025213428
-0.50247967
0.0018917312
-0.56996816
0.0012801507
-0.64651668
0.00064967304
-0.73353388
-0.83218936
0.023678874
-0.013997523
-0.023442007
0.023902584
-0.01610006
0.024102785
-0.018545939
0.024263781
-0.021393126
0.024367762
-0.024714197
0.024394205
-0.028593155
0.024319232
-0.033125232
0.024114635
-0.038415734
0.023746264
-0.0445771
0.023171314
-0.05172341
0.022333802
-0.059958773
0.021145648
-0.069331888
0.019497958
-0.079798545
0.017459473
-0.091411381
0.015645988
-0.10473794
0.014219809
-0.12008003
0.012882466
-0.13752625
0.011649216
-0.1573007
0.010420416
-0.17962246
0.009244744
-0.20483066
0.0081156396
-0.23330632
0.007050937
-0.26545032
0.0060806225
-0.30174052
0.0051978995
-0.34294546
0.0043785066
-0.38958725
0.003607682
-0.44223818
0.0028650062
-0.50173981
0.0021498654
-0.56925635
0.0014545661
-0.6458258
0.00073845324
-0.73282343
-0.8314579
0.024611475
-0.014234653
-0.024374451
0.024839772
-0.016328486
0.025046494
-0.018752805
0.025217715
-0.021564509
0.02533576
-0.024832424
0.025378447
-0.02863605
0.025317612
-0.033064637
0.025116171
-0.038214575
0.024724838
-0.044186097
0.024076375
-0.051075334
0.023084872
-0.058967721
0.021683075
-0.067930646
0.019964868
-0.078081031
0.018310388
-0.089757808
0.016857486
-0.10328611
0.015509654
-0.11873317
0.014217618
-0.13623509
0.012909661
-0.15599362
0.011626908
-0.1783406
0.010350319
-0.20355499
0.0091136661
-0.23207081
0.0079629064
-0.26430096
0.0068783823
-0.30065731
0.0058937518
-0.34196218
0.0049697368
-0.38866532
0.0040910387
-0.44136225
0.0032519047
-0.50090393
0.0024411121
-0.56844942
0.0016513776
-0.6450412
0.00083917816
-0.73201784
-0.8306264
0.024560749
-0.014434698
-0.024360826
0.024746786
-0.016514664
0.024911199
-0.018917378
0.025050204
-0.021703697
0.025152973
-0.024935405
0.025188527
-0.028671853
0.025114371
-0.032990776
0.024883113
-0.03798367
0.024443456
-0.043746865
0.023739958
-0.050372344
0.022751768
-0.057980112
0.0215537
-0.066733265
0.020349129
-0.076877267
0.01921366
-0.088623289
0.018058819
-0.10213236
0.016819619
-0.11749505
0.015514206
-0.13493082
0.014212021
-0.15469271
0.012873551
-0.17700332
0.011539114
-0.20222167
0.010215264
-0.23074832
0.0089394048
-0.26302673
0.0077558614
-0.29947514
0.0066682911
-0.340876
0.0056305587
-0.3876299
0.0046343917
-0.44036924
0.0036837901
-0.49995714
0.0027680538
-0.56753816
0.0018726335
-0.64415172
0.00095299487
-0.73110596
-0.82968205
0.023420756
-0.01467888
-0.02317672
0.023648841
-0.016742917
0.023838302
-0.019107034
0.023958171
-0.021823787
0.023982653
-0.024960138
0.023910665
-0.028600155
0.023741769
-0.032822224
0.023484449
-0.037726767
0.023151931
-0.043414859
0.022723236
-0.049944277
0.022216781
-0.057474401
0.021651953
-0.06616931
0.02100144
-0.076227719
0.020175194
-0.087798085
0.019161037
-0.10111935
0.018025679
-0.11636091
0.016800689
-0.13370735
0.015497043
-0.15339095
0.014151889
-0.17565984
0.012762725
-0.20083385
0.01135852
-0.22934561
0.010009409
-0.26167944
0.0087234893
-0.29819071
0.0075183373
-0.33967235
0.0063612096
-0.38647532
0.0052429684
-0.43925469
0.0041674193
-0.49888603
0.0031334707
-0.56650937
0.0021195627
-0.64314465
0.0010806857
-0.73007623
-0.82861149
0.021014723
-0.01498209
-0.020711687
0.02134656
-0.017074954
0.021708172
-0.019468879
0.02209508
-0.022210965
0.02248012
-0.025345491
0.022822146
-0.028942545
0.023061951
-0.033062445
0.023093184
-0.037758469
0.02290124
-0.043223451
0.022590454
-0.049634122
0.022288622
-0.057173315
0.02196056
-0.065842099
0.021525341
-0.075793463
0.020899199
-0.087173138
0.02009775
-0.10031945
0.019128516
-0.1153934
0.017993721
-0.13257443
0.016744471
-0.15214411
0.015405672
-0.17432335
0.014018213
-0.19944807
0.01256588
-0.22789484
0.011116858
-0.26023228
0.0097598955
-0.2968354
0.0084554293
-0.33836966
0.0071713185
-0.38519407
0.0059166979
-0.43800429
0.0047106497
-0.49768517
0.003542069
-0.56534672
0.002393236
-0.64200364
0.0012200837
-0.72891388
-0.82740373
0.019404554
-0.015223766
-0.019163119
0.019665514
-0.017336192
0.019946349
-0.019750041
0.020244488
-0.022509481
0.020563658
-0.025665088
0.02090516
-0.029284526
0.021296981
-0.033454808
0.021803608
-0.038265716
0.02229651
-0.043717052
0.022582765
-0.049921132
0.022511052
-0.057102454
0.022204166
-0.065536194
0.021845589
-0.075435777
0.021422846
-0.086751488
0.020845539
-0.099744066
0.020059063
-0.11460951
0.019070245
-0.13158796
0.01789382
-0.15097028
0.016611287
-0.17304378
0.015235993
-0.19807516
0.013767607
-0.2264282
0.012295245
-0.25876165
0.010876247
-0.29541816
0.0094583493
-0.33695384
0.0080507791
-0.38378971
0.0066523343
-0.43661064
0.0053025838
-0.49634144
0.0039907168
-0.56404162
0.002701001
-0.64072278
0.0013748323
-0.72760039
-0.82604413
0.019178901
-0.015469597
-0.018933403
0.019442755
-0.017600426
0.019724435
-0.020032155
0.020024081
-0.022809622
0.020344306
-0.02598588
0.020681997
-0.029622864
0.021017716
-0.033791265
0.021324382
-0.038573216
0.021658181
-0.044051792
0.022120989
-0.050385018
0.022567515
-0.057550223
0.022662677
-0.065632734
0.022367445
-0.075141968
0.02188025
-0.086265359
0.021332114
-0.099197467
0.020711017
-0.11399139
0.019912452
-0.13079278
0.018886363
-0.14994699
0.0176961
-0.17185687
0.016411892
-0.19679437
0.014981428
-0.22500011
0.013467217
-0.25724914
0.01203304
-0.29398588
0.010531323
-0.33545448
0.0089874462
-0.38224933
0.0074503912
-0.43507897
0.0059569537
-0.49485493
0.0044872623
-0.56257954
0.0030363071
-0.63928176
0.0015413437
-0.72612012
-0.82452142
0.018283306
-0.015702218
-0.018051138
0.018538419
-0.017856054
0.018816347
-0.02031067
0.01911583
-0.023109772
0.019432694
-0.0263035
0.019758243
-0.029949268
0.020078822
-0.034112804
0.020375788
-0.038871262
0.020645567
-0.044322785
0.020834004
-0.050574823
0.021078297
-0.057796076
0.02165067
-0.066206846
0.022195212
-0.075688978
0.022302359
-0.086375634
0.021816167
-0.098713062
0.021154036
-0.11333118
0.02046821
-0.13010987
0.01966224
-0.14914426
0.018624496
-0.17082262
0.017429147
-0.19560338
0.016112749
-0.22368714
0.014669948
-0.25580863
0.013218297
-0.29253686
0.011633742
-0.33387274
0.009962549
-0.38058175
0.0082854435
-0.43340778
0.0066472732
-0.4932247
0.0050159843
-0.56095683
0.0034049752
-0.63768186
0.0017263954
-0.72445824
-0.82281705
0.017921957
-0.015920277
-0.017704463
0.018160644
-0.018095384
0.018421486
-0.020572243
0.018704904
-0.023394021
0.019011222
-0.026610761
0.019341375
-0.030280488
0.019698151
-0.034470789
0.020085023
-0.039259499
0.020494662
-0.044733961
0.020913224
-0.050995107
0.021268362
-0.058153107
0.02140076
-0.066341407
0.021424638
-0.075715298
0.021684693
-0.086638691
0.021879072
-0.098910478
0.021463675
-0.11291731
0.020804649
-0.12945293
0.02009134
-0.14843368
0.019265165
-0.1699997
0.018258196
-0.19460148
0.017145097
-0.22257902
0.015799475
-0.2544668
0.01435215
-0.29109425
0.012731746
-0.33225639
0.010947565
-0.37880144
0.0091468321
-0.4316136
0.0073666883
-0.49145368
0.0055877147
-0.55918773
0.0037970304
-0.63590349
0.0019218712
-0.72260157
-0.82092022
0.016908215
-0.016123247
-0.016705932
0.017132283
-0.018320227
0.017378994
-0.020819828
0.017648783
-0.023664796
0.017941055
-0.026904142
0.01825348
-0.030594157
0.018580698
-0.034799399
0.018913866
-0.039594214
0.019244451
-0.045066254
0.019566949
-0.051319463
0.019886736
-0.058474875
0.020205823
-0.066662543
0.020515602
-0.076026672
0.02064844
-0.086772673
0.020966536
-0.099230691
0.021240213
-0.11319415
0.020894343
-0.12911077
0.020294931
-0.14783762
0.019579387
-0.16928696
0.018777249
-0.19380404
0.017919193
-0.22172894
0.016827142
-0.25338174
0.015373958
-0.289649
0.013721082
-0.33061056
0.011881526
-0.37696687
0.010000951
-0.42974051
0.0080994588
-0.4895629
0.0061636092
-0.55726354
0.004205747
-0.63395938
0.002132877
-0.7205486
-0.81881472
0.016315092
-0.016310899
-0.016128107
0.016522179
-0.018528067
0.016750786
-0.021049282
0.017002028
-0.023916989
0.017276771
-0.027179949
0.01757561
-0.030894182
0.017899066
-0.035124172
0.018247571
-0.039944173
0.018618953
-0.045439229
0.019003743
-0.051705988
0.019382558
-0.058855578
0.019738777
-0.067020779
0.020075768
-0.076366017
0.020330773
-0.087029923
0.020320717
-0.099222313
0.020553129
-0.11342928
0.020860192
-0.12942096
0.020508301
-0.1474929
0.019901406
-0.16868719
0.019199667
-0.19310382
0.018482745
-0.22102179
0.017544162
-0.25245468
0.016144395
-0.28825982
0.014535163
-0.32901253
0.0127134
-0.37515299
0.010783821
-0.42782002
0.0087956211
-0.48758754
0.0067430503
-0.55522532
0.0046184167
-0.6318504
0.0023521946
-0.71830325
-0.81649124
0.015301346
-0.016488178
-0.015124849
0.015498391
-0.018725995
0.015717621
-0.02126951
0.015960612
-0.024161107
0.016228605
-0.027449216
0.016522215
-0.031189231
0.016841047
-0.03544463
0.017183226
-0.04028819
0.017545648
-0.045803728
0.017925922
-0.052088603
0.018323141
-0.059255396
0.018730772
-0.067431233
0.019120397
-0.076758502
0.019510979
-0.087423463
0.019906913
-0.099621431
0.01995316
-0.11347921
0.020006409
-0.12948571
0.020332219
-0.14784342
0.020198766
-0.16856335
0.019630784
-0.19251111
0.018762844
-0.22015804
0.01786423
-0.25156876
0.016590332
-0.28699709
0.015020039
-0.32745546
0.013326543
-0.37347152
0.011454604
-0.42596028
0.0094329011
-0.48558174
0.0072792315
-0.55308967
0.0050070489
-0.62959677
0.0025744933
-0.71589272
-0.8139459
0.014526724
-0.01664464
-0.014371041
0.014700327
-0.018900479
0.014893461
-0.021463638
0.015107663
-0.024376433
0.015344427
-0.027687252
0.015605183
-0.03145143
0.015891256
-0.035732343
0.016203793
-0.040602604
0.016543314
-0.046145412
0.016908034
-0.052455846
0.017292224
-0.059642589
0.017688046
-0.067830726
0.018088259
-0.077163333
0.018458673
-0.087799676
0.018764227
-0.099933859
0.01911886
-0.11383944
0.019356839
-0.12972081
0.019447145
-0.14791683
0.01968836
-0.16880813
0.019576588
-0.19244453
0.018792449
-0.21938752
0.01770626
-0.25048882
0.016604554
-0.28590391
0.015231886
-0.32609494
0.013688668
-0.37194346
0.011914103
-0.42420243
0.0099341223
-0.48362212
0.0077348343
-0.55091298
0.0053604355
-0.6272457
0.0027861006
-0.71334332
-0.81119006
0.013614881
-0.016788127
-0.013472348
0.013774563
-0.019061237
0.013953009
-0.021643303
0.01415186
-0.024576664
0.014372635
-0.027909589
0.014616551
-0.031697113
0.014884262
-0.036002053
0.015175533
-0.040896136
0.015489029
-0.046461466
0.01582202
-0.052791739
0.016171658
-0.059995535
0.016534255
-0.068197138
0.016906888
-0.077540482
0.017292763
-0.088191126
0.017689557
-0.10033779
0.018030484
-0.11418987
0.018316717
-0.13001783
0.018439389
-0.1480488
0.018286221
-0.16866723
0.018172476
-0.1923437
0.017970054
-0.2191906
0.017309016
-0.24983579
0.016304998
-0.28491086
0.015204874
-0.32500808
0.013862429
-0.37061758
0.012201295
-0.42256288
0.010278744
-0.48172515
0.0080849281
-0.5487471
0.0056316914
-0.62482263
0.0029626757
-0.71070552
-0.80826244
0.0131588
-0.016916364
-0.013031502
0.01330158
-0.019205087
0.013461473
-0.021804408
0.013640132
-0.024756698
0.013839248
-0.028110262
0.014060502
-0.031920128
0.014305513
-0.036249054
0.014575748
-0.041168612
0.01487225
-0.046760487
0.015195392
-0.053117682
0.015542708
-0.060345968
0.015907315
-0.068565194
0.016274589
-0.077911547
0.016623012
-0.088543732
0.01693115
-0.10065071
0.01718454
-0.11444886
0.01732013
-0.13015993
0.01739576
-0.14813296
0.017391835
-0.1686714
0.017094598
-0.19205547
0.01681189
-0.21892152
0.016587479
-0.24962611
0.016087673
-0.28442741
0.01513914
-0.32407538
0.013904828
-0.36940314
0.012300953
-0.42098577
0.010400402
-0.47985427
0.0082609615
-0.54664037
0.0058050986
-0.62240431
0.0030838886
-0.70802406
-0.80522224
0.012350023
-0.017028808
-0.012238436
0.012475373
-0.01933141
0.01261587
-0.021946005
0.012772989
-0.024915065
0.012948197
-0.028286884
0.013142851
-0.032116388
0.013358058
-0.036466084
0.013594459
-0.041407082
0.013851866
-0.047020243
0.014129844
-0.053398348
0.01442753
-0.060646714
0.014745891
-0.068887047
0.015090008
-0.078259668
0.015466241
-0.088924554
0.015875071
-0.10106474
0.016308117
-0.11488773
0.01677934
-0.13063788
0.017190678
-0.14855156
0.017416833
-0.16890498
0.017349303
-0.19199536
0.016822302
-0.21840521
0.016083716
-0.24890221
0.015406116
-0.28376719
0.014669236
-0.32335862
0.013598517
-0.36836106
0.012141168
-0.41955922
0.010295634
-0.47803895
0.0082122093
-0.5445919
0.0058093704
-0.62004361
0.0031193473
-0.70538054
-0.80215403
0.012019259
-0.017114825
-0.011934274
0.012113964
-0.019427278
0.012219329
-0.022052684
0.012336235
-0.025033457
0.012465634
-0.028417964
0.012608623
-0.032261278
0.012766587
-0.036626202
0.012941434
-0.04158437
0.013135975
-0.04721756
0.013353621
-0.053619159
0.013599104
-0.060895835
0.013877036
-0.069169181
0.014189404
-0.078576836
0.014531271
-0.089271853
0.014879446
-0.10141899
0.015196204
-0.11521123
0.015436574
-0.1308856
0.015590269
-0.14871316
0.015653741
-0.1689771
0.015815197
-0.19216627
0.015981043
-0.21858051
0.015528844
-0.24846296
0.014645567
-0.28290093
0.013677488
-0.32241403
0.012618292
-0.36733007
0.01139884
-0.41836545
0.0097810186
-0.47644755
0.0078506068
-0.54269522
0.0055963378
-0.617832
0.0030544829
-0.70288805
-0.79915349
0.010366991
-0.017171577
-0.010311407
0.010429829
-0.019491441
0.010500674
-0.022125027
0.010580359
-0.025114834
0.010669676
-0.028509192
0.010769259
-0.032363016
0.010879363
-0.036738734
0.01099954
-0.04170728
0.01112818
-0.047349274
0.011261978
-0.053756404
0.011395282
-0.06103298
0.011519208
-0.069297351
0.011621535
-0.078683883
0.011690838
-0.08934643
0.011725968
-0.10146006
0.011745421
-0.11523742
0.011765791
-0.13091354
0.011804729
-0.14876044
0.01190954
-0.16909136
0.011969167
-0.19223707
0.012028079
-0.21865337
0.012333017
-0.24878278
0.012446247
-0.28303166
0.011954757
-0.32194238
0.011080901
-0.36647414
0.010031267
-0.41733678
0.0087490563
-0.47518918
0.0070551825
-0.54103174
0.0050631103
-0.615879
0.0027756096
-0.70064752
-0.79643086
0.0097178643
-0.017198444
-0.0096917727
0.0097471547
-0.019521612
0.0097794908
-0.022158365
0.0098149323
-0.025151416
0.0098534083
-0.028548967
0.0098946818
-0.032405769
0.0099383269
-0.036784067
0.0099837454
-0.041754627
0.010030252
-0.047397986
0.010077265
-0.053805944
0.010124624
-0.061083239
0.010173377
-0.069349437
0.010227102
-0.078741454
0.01029371
-0.089417477
0.010384273
-0.10155568
0.010499158
-0.11535787
0.0106317
-0.13105193
0.010768242
-0.14890307
0.010891255
-0.16922057
0.011001023
-0.19235328
0.011040011
-0.21869964
0.01094626
-0.24870801
0.010742529
-0.28284228
0.010377541
-0.32158335
0.0096371156
-0.36575451
0.0086274679
-0.41634804
0.0074656075
-0.47405067
0.0060765632
-0.53967127
0.0043722362
-0.61420474
0.0023680423
-0.69867967
-0.79410899
0.0093668246
-0.0093631898
0.0093714088
0.0093776396
0.0093860151
0.0093971564
0.0094118252
0.0094309247
0.0094554688
0.0094864872
0.0095248362
0.0095708548
0.0096237271
0.0096809071
0.0097397821
0.0097971441
0.00984268
0.0098697032
0.0098690243
0.0098238998
0.0097128419
0.009511086
0.0092023111
0.0087803898
0.0083643165
0.0079628265
0.0073389665
0.0064318856
0.0052521243
0.0037960789
0.0020506515
0.01169909
-0.011524213
0.0092324276
-0.0094073575
0.013432102
-0.014786662
0.013053588
0.014734345
-0.018073571
0.01677128
0.01577458
-0.02170935
0.020669086
0.016686479
-0.025870941
0.024959014
0.01753539
-0.03067193
0.029822985
0.018326081
-0.036187208
0.035396504
0.019074441
-0.042490973
0.041742613
0.019780011
-0.049734133
0.049028574
0.020419579
-0.058030863
0.057391309
0.020973719
-0.067512261
0.066958122
0.021430463
-0.078338837
0.077882063
0.021779804
-0.090691913
0.090342505
0.022008955
-0.1047514
0.10452215
0.022099897
-0.12069773
0.12060668
0.021991803
-0.13857122
0.13867917
0.021621261
-0.15816752
0.15853783
0.02088314
-0.17900743
0.1797453
0.019703657
-0.19990719
0.20108636
0.018443909
-0.22186025
0.22311966
0.017303554
-0.24807975
0.24921982
0.016160685
-0.27876722
0.27990978
0.01495546
-0.31388447
0.31508935
0.013662868
-0.35382866
0.3551208
0.012263512
-0.39941246
0.40081137
0.01073296
-0.45123701
0.45276715
0.0090415717
-0.51018789
0.5118789
0.0071611445
-0.57727432
0.57915419
0.0050549155
-0.65362197
0.65572749
0.0026833671
-0.7407158
0.74308649
-0.83965075
0.84233125
0.012832437
-0.012969574
-0.011387133
0.013817694
-0.015771968
0.014637308
-0.018893231
0.015405191
-0.022477275
0.016165602
-0.026631391
0.016920222
-0.031426573
0.01765061
-0.036917614
0.018348897
-0.043189269
0.018996494
-0.050381728
0.019571366
-0.058605733
0.020062146
-0.068003055
0.020460948
-0.078737685
0.020759105
-0.09099015
0.020944271
-0.10493667
0.020997634
-0.1207512
0.020851829
-0.13842555
0.020450577
-0.15776651
0.019681821
-0.17823893
0.018503745
-0.19872944
0.017316396
-0.22067319
0.016247669
-0.24701132
0.015167879
-0.27768775
0.014028263
-0.31274522
0.012808075
-0.35260894
0.011489674
-0.39809452
0.010050403
-0.44979816
0.0084622647
-0.50860016
0.0066992543
-0.57551191
0.004726628
-0.65165009
0.0025081809
-0.73849825
-0.837143
0.012375134
-0.013780422
-0.011564343
0.013096757
-0.016493646
0.01383031
-0.019626838
0.014592866
-0.023239878
0.015360538
-0.027399094
0.016103213
-0.032169272
0.016805983
-0.037620402
0.017463964
-0.043847263
0.018058721
-0.050976494
0.018578998
-0.059126022
0.019017384
-0.068441472
0.019368109
-0.079088473
0.019623498
-0.091245636
0.019771956
-0.10508525
0.019794603
-0.12077397
0.01961884
-0.13824994
0.019195518
-0.15734345
0.018402933
-0.17744661
0.017246002
-0.19757286
0.01614111
-0.21956863
0.015141189
-0.24601171
0.014124715
-0.27667162
0.013053075
-0.31167397
0.0119085
-0.35146485
0.010674959
-0.39686145
0.0093315753
-0.44845521
0.0078521409
-0.50712117
0.0062126888
-0.5738731
0.0043808381
-0.64981904
0.0023236114
-0.73644198
-0.83482036
0.011471336
-0.014521847
-0.010729958
0.012236428
-0.017258785
0.013009671
-0.020400128
0.013774955
-0.024005206
0.014516755
-0.028140933
0.015220852
-0.032873399
0.015878601
-0.038278175
0.016484168
-0.04445285
0.017023701
-0.051516045
0.017489646
-0.059591993
0.01787709
-0.068828962
0.018181743
-0.079393205
0.018396576
-0.091460583
0.018510141
-0.10519894
0.018497602
-0.12076157
0.01829524
-0.13804776
0.017860505
-0.15690899
0.017052629
-0.176639
0.015930836
-0.19645143
0.014907551
-0.21854569
0.01397537
-0.24507985
0.013025114
-0.27572172
0.012025305
-0.31067456
0.010960809
-0.35040085
0.0098171409
-0.39571826
0.0085751964
-0.44721371
0.0072105956
-0.50575705
0.0057014724
-0.57236466
0.0040179559
-0.64813635
0.0021300056
-0.73455502
-0.83269107
0.010556021
-0.01531377
-0.009764133
0.011342379
-0.018045185
0.012113677
-0.021171472
0.012861914
-0.024753489
0.013575452
-0.028854513
0.014242742
-0.033540725
0.014856485
-0.03889195
0.015410575
-0.045006969
0.015896503
-0.052002002
0.016310136
-0.060005663
0.016648855
-0.069167741
0.016909667
-0.079654112
0.017086074
-0.091637118
0.01716643
-0.10527944
0.017120243
-0.12071553
0.016897341
-0.13782507
0.016454335
-0.15646624
0.015637258
-0.17582219
0.014563058
-0.19537761
0.013623097
-0.21760608
0.012759487
-0.24421658
0.011878
-0.27484061
0.010953189
-0.30975016
0.0099723903
-0.34942057
0.0089226401
-0.39466899
0.0077866637
-0.4460782
0.006541975
-0.50451288
0.005168859
-0.57099228
0.0036400703
-0.64660844
0.0019282379
-0.73284423
-0.83076347
0.0096083813
-0.01612093
-0.0088012704
0.01039571
-0.01883257
0.011157022
-0.021932837
0.011882933
-0.02547945
0.012562194
-0.02953382
0.013186611
-0.034165185
0.013751352
-0.039456732
0.014252191
-0.045507849
0.014684815
-0.052434665
0.015047599
-0.060368498
0.015339537
-0.069459755
0.015558601
-0.079873284
0.015698786
-0.091777443
0.015748451
-0.10532925
0.015672881
-0.1206401
0.015436526
-0.13758896
0.014985523
-0.15601551
0.014164435
-0.1750014
0.013149843
-0.1943634
0.012292472
-0.21674907
0.011497497
-0.24342195
0.010686846
-0.27403034
0.0098398697
-0.30890361
0.0089461141
-0.34852734
0.007994103
-0.39371747
0.006968388
-0.44505296
0.0058484045
-0.50339346
0.0046166326
-0.56976128
0.0032484606
-0.64524118
0.0017192837
-0.73131614
-0.82904527
0.0086321588
-0.016935972
-0.0078171772
0.0094145959
-0.019615073
0.010156079
-0.022674377
0.010848172
-0.026171594
0.011484012
-0.030169709
0.012059102
-0.034740325
0.012570717
-0.039968397
0.013017037
-0.045954219
0.013396704
-0.052814384
0.013709861
-0.060681718
0.013956679
-0.069706662
0.014135878
-0.080052605
0.014242107
-0.091883824
0.014264341
-0.10535163
0.014166535
-0.12054246
0.013926231
-0.13734897
0.013466588
-0.15555617
0.012642716
-0.17417783
0.01169742
-0.19341849
0.010921062