/*--------------------------------*- C++ -*----------------------------------*\
| =========                 |                                                 |
| \\      /  F ield         | OpenFOAM: The Open Source CFD Toolbox           |
|  \\    /   O peration     | Version:  2406                                  |
|   \\  /    A nd           | Website:  www.openfoam.com                      |
|    \\/     M anipulation  |                                                 |
\*---------------------------------------------------------------------------*/
FoamFile
{
    version     2.0;
    format      ascii;
    arch        "LSB;label=32;scalar=64";
    class       volScalarField;
    location    "0.013";
    object      T;
}
// * * * * * * * * * * * * * * * * * * * * * * * * * * * * * * * * * * * * * //

dimensions      [0 0 0 1 0 0 0];

internalField   nonuniform List<scalar> 
23203
(
292.83617
292.84762
292.85854
292.86893
292.87878
292.88808
292.89685
292.90509
292.91281
292.92002
292.92673
292.93296
292.93871
292.94402
292.94889
292.95333
292.95738
292.96103
292.96431
292.96724
292.96982
292.97207
292.97401
292.97565
292.977
292.97807
292.97888
292.97944
292.97974
292.97981
292.97966
292.97928
292.97868
292.97788
292.97687
292.97566
292.97426
292.97265
292.97086
292.96888
292.9667
292.96433
292.96177
292.95902
292.95607
292.95292
292.94958
292.94603
292.94227
292.93831
292.93415
292.92978
292.92521
292.92045
292.91553
292.91047
292.90531
292.90014
292.8951
292.89042
292.88646
292.88397
292.88464
292.89112
292.91182
292.94516
292.9626
292.96802
292.97056
292.97261
292.97449
292.9763
292.97805
292.97976
292.98142
292.98302
292.98455
292.98603
292.98744
292.98879
292.99008
292.99133
292.99252
292.99366
292.99477
292.99583
292.99685
292.99783
292.99876
292.99965
293.0005
293.00129
293.00205
293.00275
293.00341
293.00402
293.00459
293.00512
293.0056
293.00605
293.00645
293.00682
293.00716
293.00746
293.00771
293.00792
293.00806
293.00814
292.8505
292.86078
292.87063
292.88003
292.88896
292.89743
292.90543
292.91296
292.92003
292.92664
292.9328
292.93853
292.94382
292.9487
292.95318
292.95727
292.96099
292.96435
292.96736
292.97004
292.97239
292.97443
292.97618
292.97764
292.97882
292.97974
292.9804
292.98082
292.98101
292.98096
292.9807
292.98022
292.97953
292.97864
292.97755
292.97626
292.97478
292.97311
292.97125
292.9692
292.96696
292.96453
292.96192
292.95911
292.95611
292.95291
292.94952
292.94593
292.94213
292.93813
292.93393
292.92953
292.92494
292.92016
292.91523
292.91018
292.90506
292.89994
292.89499
292.89046
292.88676
292.88472
292.88608
292.89423
292.91785
292.9504
292.96487
292.96936
292.9717
292.97368
292.97551
292.97726
292.97898
292.98065
292.98227
292.98383
292.98532
292.98676
292.98814
292.98946
292.99072
292.99194
292.9931
292.99423
292.9953
292.99634
292.99734
292.9983
292.99922
293.00009
293.00092
293.0017
293.00244
293.00313
293.00378
293.00438
293.00494
293.00546
293.00594
293.00637
293.00677
293.00714
293.00746
293.00776
293.00801
293.00821
293.00835
293.00844
292.86586
292.8749
292.8836
292.89195
292.89993
292.90751
292.9147
292.9215
292.92789
292.93388
292.93948
292.94468
292.94951
292.95395
292.95803
292.96176
292.96515
292.9682
292.97093
292.97335
292.97546
292.97729
292.97883
292.9801
292.9811
292.98186
292.98238
292.98266
292.98271
292.98254
292.98216
292.98157
292.98078
292.97979
292.9786
292.97722
292.97566
292.9739
292.97196
292.96983
292.96752
292.96502
292.96233
292.95946
292.95639
292.95313
292.94967
292.94602
292.94216
292.93811
292.93386
292.92941
292.92477
292.91996
292.91501
292.90995
292.90483
292.89975
292.89489
292.89051
292.88708
292.88551
292.88767
292.89768
292.92417
292.95499
292.96683
292.97066
292.97285
292.97476
292.97653
292.97825
292.97991
292.98154
292.98312
292.98464
292.9861
292.9875
292.98885
292.99014
292.99137
292.99256
292.9937
292.9948
292.99585
292.99687
292.99785
292.99879
292.99969
293.00054
293.00136
293.00212
293.00285
293.00353
293.00416
293.00475
293.0053
293.00581
293.00627
293.0067
293.00709
293.00745
293.00777
293.00807
293.00831
293.00851
293.00865
293.00874
292.88152
292.88933
292.89691
292.90421
292.91122
292.91792
292.9243
292.93035
292.93605
292.94141
292.94643
292.95111
292.95544
292.95945
292.96312
292.96647
292.9695
292.97223
292.97466
292.9768
292.97866
292.98025
292.98158
292.98265
292.98347
292.98406
292.98441
292.98454
292.98446
292.98416
292.98365
292.98295
292.98204
292.98095
292.97966
292.97819
292.97653
292.97469
292.97267
292.97046
292.96808
292.9655
292.96275
292.9598
292.95667
292.95334
292.94983
292.94611
292.94221
292.9381
292.9338
292.9293
292.92463
292.91979
292.91482
292.90975
292.90464
292.89961
292.89483
292.89062
292.88748
292.88642
292.88952
292.90168
292.93082
292.95918
292.96869
292.97197
292.97404
292.97587
292.97759
292.97926
292.98088
292.98247
292.984
292.98548
292.9869
292.98827
292.98958
292.99084
292.99204
292.9932
292.99431
292.99538
292.99641
292.99741
292.99837
292.99929
293.00017
293.00101
293.0018
293.00255
293.00326
293.00393
293.00455
293.00513
293.00566
293.00616
293.00662
293.00704
293.00742
293.00778
293.00809
293.00838
293.00862
293.00882
293.00896
293.00904
292.89734
292.90397
292.91043
292.91671
292.92277
292.92859
292.93416
292.93945
292.94447
292.94919
292.95363
292.95776
292.9616
292.96514
292.96839
292.97135
292.97403
292.97643
292.97855
292.98041
292.98201
292.98336
292.98446
292.98533
292.98596
292.98637
292.98655
292.98653
292.9863
292.98586
292.98523
292.9844
292.98338
292.98218
292.98079
292.97922
292.97747
292.97554
292.97343
292.97114
292.96868
292.96603
292.9632
292.96018
292.95698
292.95359
292.95001
292.94624
292.94227
292.93811
292.93376
292.92922
292.92451
292.91964
292.91465
292.90958
292.90449
292.89951
292.89484
292.89081
292.888
292.88752
292.89172
292.90635
292.93764
292.96287
292.97045
292.97329
292.97525
292.97701
292.97867
292.98029
292.98187
292.98341
292.9849
292.98634
292.98772
292.98905
292.99033
292.99155
292.99272
292.99385
292.99493
292.99598
292.99699
292.99796
292.9989
292.9998
293.00066
293.00148
293.00226
293.00299
293.00368
293.00433
293.00494
293.00551
293.00604
293.00652
293.00697
293.00738
293.00776
293.00811
293.00842
293.0087
293.00893
293.00913
293.00927
293.00935
292.91329
292.91876
292.92415
292.92942
292.93455
292.9395
292.94426
292.94881
292.95313
292.95722
292.96106
292.96465
292.96799
292.97106
292.97388
292.97645
292.97876
292.98081
292.98262
292.98419
292.98553
292.98663
292.9875
292.98815
292.98858
292.9888
292.98882
292.98863
292.98825
292.98767
292.9869
292.98595
292.98481
292.98349
292.982
292.98033
292.97848
292.97645
292.97426
292.97188
292.96933
292.9666
292.9637
292.96061
292.95734
292.95388
292.95023
292.94639
292.94237
292.93815
292.93375
292.92917
292.92442
292.91952
292.91451
292.90944
292.90438
292.89946
292.89491
292.89109
292.88865
292.88884
292.89435
292.91177
292.94441
292.96614
292.97214
292.97463
292.97648
292.97817
292.97978
292.98135
292.98288
292.98437
292.98582
292.98722
292.98855
292.98985
292.99109
292.99228
292.99342
292.99451
292.99557
292.99659
292.99758
292.99852
292.99944
293.00032
293.00116
293.00196
293.00272
293.00344
293.00411
293.00475
293.00535
293.0059
293.00641
293.00689
293.00733
293.00773
293.0081
293.00844
293.00875
293.00902
293.00926
293.00945
293.00958
293.00966
292.92928
292.93365
292.938
292.94229
292.94651
292.95061
292.95457
292.95838
292.96202
292.96546
292.96871
292.97176
292.97458
292.97719
292.97957
292.98173
292.98367
292.98538
292.98687
292.98814
292.9892
292.99004
292.99068
292.99111
292.99133
292.99136
292.9912
292.99084
292.9903
292.98957
292.98867
292.98758
292.98632
292.98488
292.98328
292.9815
292.97955
292.97743
292.97514
292.97268
292.97004
292.96723
292.96424
292.96108
292.95773
292.9542
292.95049
292.94659
292.9425
292.93823
292.93377
292.92914
292.92436
292.91943
292.91441
292.90935
292.90431
292.89947
292.89506
292.89148
292.88946
292.89041
292.89746
292.91795
292.95091
292.96901
292.97377
292.97597
292.97774
292.97936
292.9809
292.98243
292.98391
292.98535
292.98676
292.98811
292.98941
292.99066
292.99187
292.99302
292.99413
292.99519
292.99622
292.99722
292.99817
292.9991
292.99999
293.00085
293.00167
293.00245
293.00319
293.00389
293.00455
293.00517
293.00576
293.0063
293.0068
293.00727
293.0077
293.00809
293.00845
293.00878
293.00908
293.00936
293.00958
293.00977
293.0099
293.00999
292.94525
292.94856
292.95191
292.95526
292.95859
292.96186
292.96505
292.96813
292.97108
292.9739
292.97656
292.97906
292.98137
292.98351
292.98545
292.9872
292.98876
292.99012
292.99128
292.99225
292.99303
292.99361
292.994
292.9942
292.99421
292.99404
292.99369
292.99316
292.99246
292.99158
292.99053
292.9893
292.98791
292.98636
292.98463
292.98274
292.98069
292.97847
292.97608
292.97353
292.9708
292.96791
292.96484
292.96159
292.95817
292.95457
292.95078
292.94682
292.94267
292.93834
292.93383
292.92915
292.92433
292.91938
292.91435
292.90929
292.9043
292.89954
292.89529
292.89198
292.89044
292.89227
292.90114
292.92487
292.95694
292.97153
292.97536
292.97734
292.97901
292.98056
292.98205
292.98353
292.98496
292.98635
292.98772
292.98902
292.99028
292.9915
292.99266
292.99378
292.99485
292.99589
292.99688
292.99785
292.99878
292.99968
293.00056
293.00139
293.00219
293.00295
293.00367
293.00436
293.005
293.00561
293.00618
293.0067
293.0072
293.00765
293.00807
293.00846
293.00881
293.00913
293.00943
293.00969
293.00992
293.01011
293.01023
293.01031
292.96111
292.96343
292.96583
292.96828
292.97075
292.97322
292.97565
292.97802
292.98031
292.9825
292.98458
292.98653
292.98834
292.99
292.9915
292.99284
292.99402
292.99502
292.99586
292.99652
292.997
292.99732
292.99746
292.99742
292.99722
292.99685
292.9963
292.9956
292.99472
292.99368
292.99248
292.99112
292.9896
292.98791
292.98607
292.98406
292.9819
292.97957
292.97709
292.97444
292.97162
292.96863
292.96548
292.96215
292.95865
292.95498
292.95112
292.94708
292.94287
292.93848
292.93392
292.9292
292.92434
292.91936
292.91432
292.90928
292.90434
292.89969
292.89561
292.89261
292.89162
292.89446
292.90549
292.93241
292.96238
292.97379
292.97692
292.97873
292.98031
292.9818
292.98323
292.98465
292.98603
292.98738
292.98869
292.98995
292.99116
292.99234
292.99347
292.99455
292.99559
292.99659
292.99756
292.9985
292.99941
293.00028
293.00113
293.00194
293.00272
293.00346
293.00417
293.00483
293.00546
293.00605
293.0066
293.00712
293.0076
293.00804
293.00845
293.00883
293.00917
293.00949
293.00978
293.01004
293.01026
293.01044
293.01057
293.01065
292.97682
292.97819
292.9797
292.98129
292.98295
292.98464
292.98634
292.98802
292.98966
292.99124
292.99275
292.99416
292.99546
292.99665
292.99772
292.99865
292.99944
293.00008
293.00058
293.00093
293.00112
293.00116
293.00105
293.00078
293.00035
292.99977
292.99903
292.99814
292.99709
292.99589
292.99453
292.99302
292.99136
292.98955
292.98758
292.98546
292.98318
292.98075
292.97816
292.97541
292.97249
292.96942
292.96617
292.96276
292.95918
292.95543
292.9515
292.94739
292.94311
292.93866
292.93405
292.92928
292.92438
292.91939
292.91435
292.90933
292.90444
292.89991
292.89604
292.8934
292.89304
292.89707
292.91064
292.94034
292.96715
292.97589
292.97847
292.98013
292.98164
292.98305
292.98442
292.98579
292.98712
292.98842
292.98968
292.9909
292.99207
292.99321
292.9943
292.99534
292.99635
292.99732
292.99825
292.99916
293.00004
293.00089
293.00172
293.00251
293.00326
293.00398
293.00467
293.00531
293.00593
293.0065
293.00704
293.00754
293.00801
293.00844
293.00884
293.00921
293.00954
293.00985
293.01013
293.01039
293.0106
293.01078
293.01091
293.01099
292.99231
292.99281
292.99347
292.99425
292.99514
292.99609
292.99709
292.9981
292.99911
293.00009
293.00104
293.00192
293.00273
293.00345
293.00408
293.0046
293.005
293.00529
293.00545
293.00549
293.00539
293.00515
293.00478
293.00426
293.00361
293.00281
293.00188
293.00079
292.99957
292.9982
292.99668
292.99502
292.99322
292.99127
292.98917
292.98693
292.98453
292.98199
292.97929
292.97644
292.97343
292.97026
292.96692
292.96342
292.95976
292.95592
292.95192
292.94774
292.9434
292.93888
292.93422
292.9294
292.92447
292.91946
292.91442
292.90943
292.90461
292.90021
292.89658
292.89435
292.89472
292.90016
292.91667
292.94833
292.97123
292.97785
292.98003
292.98156
292.98298
292.98433
292.98564
292.98696
292.98823
292.98948
292.9907
292.99187
292.99299
292.99409
292.99514
292.99614
292.99711
292.99805
292.99896
292.99984
293.00069
293.00151
293.00231
293.00308
293.00381
293.00452
293.00518
293.00581
293.0064
293.00696
293.00748
293.00797
293.00842
293.00884
293.00923
293.00959
293.00992
293.01022
293.0105
293.01075
293.01096
293.01113
293.01125
293.01133
293.00753
293.00722
293.00709
293.00712
293.00727
293.00752
293.00785
293.00822
293.00862
293.00903
293.00942
293.00979
293.01011
293.01038
293.01057
293.01068
293.01071
293.01064
293.01046
293.01018
293.00978
293.00927
293.00863
293.00788
293.00699
293.00598
293.00483
293.00356
293.00215
293.00061
292.99893
292.99712
292.99517
292.99308
292.99085
292.98848
292.98596
292.9833
292.98049
292.97753
292.97442
292.97115
292.96773
292.96414
292.96039
292.95647
292.95239
292.94814
292.94372
292.93915
292.93443
292.92957
292.9246
292.91958
292.91455
292.90959
292.90486
292.90062
292.89726
292.8955
292.89672
292.90385
292.92366
292.95603
292.97475
292.97973
292.98159
292.98301
292.98436
292.98563
292.98689
292.98815
292.98937
292.99056
292.99173
292.99285
292.99393
292.99499
292.996
292.99696
292.9979
292.9988
292.99968
293.00053
293.00135
293.00215
293.00292
293.00367
293.00438
293.00506
293.0057
293.00631
293.00689
293.00743
293.00794
293.00841
293.00885
293.00926
293.00963
293.00998
293.0103
293.0106
293.01087
293.01111
293.01132
293.01149
293.01161
293.01168
293.02246
293.0214
293.02054
293.01985
293.01932
293.01891
293.01859
293.01836
293.01817
293.01802
293.01789
293.01775
293.0176
293.01741
293.01718
293.0169
293.01654
293.01611
293.0156
293.015
293.01431
293.01351
293.01262
293.01161
293.01049
293.00925
293.0079
293.00643
293.00483
293.00312
293.00127
292.9993
292.9972
292.99497
292.9926
292.9901
292.98746
292.98468
292.98176
292.97869
292.97548
292.97211
292.96858
292.9649
292.96106
292.95706
292.9529
292.94858
292.94409
292.93946
292.93468
292.92978
292.92479
292.91975
292.91473
292.90982
292.9052
292.90113
292.89809
292.89688
292.89908
292.90825
292.93159
292.96314
292.97775
292.98154
292.98316
292.98449
292.98575
292.98696
292.98816
292.98936
292.99052
292.99167
292.99278
292.99386
292.99489
292.9959
292.99687
292.9978
292.9987
292.99957
293.00041
293.00123
293.00203
293.0028
293.00355
293.00426
293.00495
293.00561
293.00623
293.00682
293.00738
293.00791
293.0084
293.00886
293.00928
293.00968
293.01004
293.01038
293.01069
293.01098
293.01124
293.01148
293.01168
293.01185
293.01197
293.01204
293.03704
293.03529
293.03376
293.03242
293.03124
293.03021
293.02929
293.02848
293.02774
293.02705
293.02641
293.02579
293.02517
293.02455
293.0239
293.02322
293.02249
293.02171
293.02086
293.01995
293.01896
293.01788
293.01672
293.01546
293.0141
293.01264
293.01108
293.00941
293.00762
293.00573
293.00371
293.00158
292.99933
292.99695
292.99444
292.99181
292.98904
292.98614
292.9831
292.97992
292.97659
292.97312
292.9695
292.96573
292.9618
292.95771
292.95346
292.94907
292.94451
292.93982
292.93499
292.93005
292.92502
292.91998
292.91498
292.91013
292.90562
292.90178
292.8991
292.89852
292.9019
292.91349
292.94028
292.96946
292.98041
292.98331
292.98475
292.98599
292.98717
292.98831
292.98945
292.99059
292.9917
292.99279
292.99386
292.99488
292.99587
292.99684
292.99776
292.99865
292.99951
293.00035
293.00116
293.00195
293.00271
293.00346
293.00418
293.00487
293.00554
293.00617
293.00678
293.00735
293.00789
293.00839
293.00887
293.00931
293.00973
293.01011
293.01046
293.01079
293.01109
293.01137
293.01163
293.01186
293.01206
293.01222
293.01234
293.01241
293.05124
293.04887
293.04672
293.04478
293.04301
293.04139
293.03991
293.03855
293.03728
293.03609
293.03496
293.03387
293.03281
293.03175
293.0307
293.02963
293.02854
293.02741
293.02623
293.02501
293.02372
293.02236
293.02093
293.01942
293.01783
293.01614
293.01437
293.01249
293.01052
293.00844
293.00625
293.00395
293.00154
292.99901
292.99636
292.99359
292.9907
292.98767
292.98451
292.98121
292.97778
292.9742
292.97048
292.96661
292.96258
292.95841
292.95408
292.9496
292.94498
292.94022
292.93534
292.93036
292.92531
292.92027
292.9153
292.91052
292.90616
292.90256
292.9003
292.90048
292.90526
292.91974
292.94939
292.9748
292.98281
292.98508
292.98636
292.98751
292.98862
292.98969
292.99077
292.99185
292.9929
292.99394
292.99495
292.99592
292.99687
292.99779
292.99867
292.99952
293.00035
293.00114
293.00192
293.00268
293.00341
293.00413
293.00483
293.0055
293.00614
293.00675
293.00733
293.00788
293.0084
293.00889
293.00935
293.00978
293.01018
293.01055
293.01089
293.01121
293.0115
293.01177
293.01202
293.01225
293.01244
293.0126
293.01271
293.01278
293.06505
293.06212
293.05941
293.05691
293.05459
293.05244
293.05043
293.04856
293.04679
293.04512
293.04352
293.04198
293.04049
293.03902
293.03758
293.03613
293.03468
293.03321
293.03171
293.03017
293.02859
293.02695
293.02526
293.0235
293.02166
293.01975
293.01776
293.01568
293.01351
293.01125
293.00888
293.00642
293.00385
293.00117
292.99837
292.99546
292.99243
292.98927
292.98599
292.98258
292.97903
292.97534
292.97152
292.96754
292.96343
292.95916
292.95475
292.9502
292.9455
292.94068
292.93575
292.93073
292.92567
292.92063
292.9157
292.91101
292.90682
292.90351
292.90175
292.9028
292.90928
292.92712
292.95845
292.97934
292.98504
292.98684
292.988
292.98906
292.99009
292.9911
292.99211
292.99313
292.99413
292.9951
292.99606
292.99699
292.99788
292.99876
292.9996
293.00041
293.00119
293.00195
293.0027
293.00343
293.00413
293.00482
293.00549
293.00613
293.00675
293.00733
293.00789
293.00842
293.00892
293.00939
293.00984
293.01025
293.01064
293.01099
293.01132
293.01163
293.01191
293.01218
293.01242
293.01264
293.01282
293.01298
293.01309
293.01316
293.07844
293.07501
293.07179
293.06878
293.06596
293.06331
293.06082
293.05847
293.05623
293.05411
293.05207
293.0501
293.0482
293.04634
293.04451
293.0427
293.0409
293.03909
293.03727
293.03543
293.03356
293.03164
293.02969
293.02767
293.0256
293.02346
293.02126
293.01897
293.01661
293.01415
293.01161
293.00898
293.00624
293.0034
293.00046
292.99741
292.99424
292.99095
292.98755
292.98401
292.98035
292.97655
292.97262
292.96854
292.96433
292.95997
292.95548
292.95084
292.94608
292.9412
292.93621
292.93116
292.92609
292.92106
292.91618
292.9116
292.90761
292.90464
292.90346
292.90556
292.9141
292.93566
292.96697
292.98309
292.98715
292.98861
292.98966
292.99063
292.99158
292.99253
292.99348
292.99444
292.99537
292.99629
292.9972
292.99807
292.99892
292.99975
293.00055
293.00131
293.00206
293.00278
293.00349
293.00419
293.00486
293.00552
293.00616
293.00678
293.00737
293.00793
293.00847
293.00898
293.00946
293.00991
293.01034
293.01073
293.0111
293.01145
293.01177
293.01206
293.01234
293.01259
293.01282
293.01304
293.01322
293.01338
293.01348
293.01355
293.0914
293.08752
293.08385
293.08038
293.07711
293.074
293.07106
293.06826
293.0656
293.06304
293.06059
293.05822
293.05592
293.05368
293.05148
293.04932
293.04718
293.04505
293.04292
293.04077
293.03862
293.03643
293.03421
293.03195
293.02964
293.02728
293.02485
293.02236
293.0198
293.01716
293.01443
293.01163
293.00873
293.00573
293.00264
292.99944
292.99613
292.99271
292.98917
292.98552
292.98173
292.97782
292.97378
292.9696
292.96529
292.96084
292.95626
292.95155
292.94672
292.94177
292.93674
292.93166
292.92658
292.92158
292.91676
292.91232
292.90856
292.90599
292.9055
292.90884
292.9199
292.94522
292.97454
292.9863
292.98918
292.99039
292.99134
292.99223
292.9931
292.99398
292.99487
292.99576
292.99664
292.99751
292.99836
292.99917
292.99997
293.00076
293.00151
293.00223
293.00294
293.00362
293.0043
293.00496
293.0056
293.00623
293.00684
293.00743
293.008
293.00854
293.00905
293.00954
293.01
293.01044
293.01084
293.01123
293.01158
293.01191
293.01222
293.0125
293.01277
293.01301
293.01324
293.01345
293.01362
293.01377
293.01388
293.01394
293.10392
293.09964
293.09557
293.09169
293.088
293.08449
293.08113
293.07793
293.07485
293.0719
293.06906
293.0663
293.06363
293.06103
293.05848
293.05598
293.05351
293.05107
293.04863
293.0462
293.04376
293.04131
293.03883
293.03632
293.03377
293.03118
293.02854
293.02584
293.02308
293.02025
293.01735
293.01437
293.0113
293.00814
293.0049
293.00155
292.9981
292.99454
292.99088
292.98709
292.98319
292.97916
292.97501
292.97073
292.96632
292.96178
292.95711
292.95232
292.94741
292.94241
292.93734
292.93223
292.92715
292.92219
292.91745
292.91317
292.90969
292.90758
292.90791
292.91277
292.92688
292.95542
292.98092
292.9891
292.99118
292.9922
292.99305
292.99385
292.99465
292.99547
292.99629
292.99712
292.99793
292.99874
292.99953
293.0003
293.00105
293.00178
293.00249
293.00317
293.00384
293.00448
293.00512
293.00575
293.00636
293.00696
293.00754
293.0081
293.00864
293.00916
293.00965
293.01012
293.01056
293.01097
293.01136
293.01173
293.01207
293.01238
293.01268
293.01295
293.01321
293.01344
293.01366
293.01386
293.01403
293.01418
293.01428
293.01434
293.116
293.11137
293.10694
293.1027
293.09864
293.09475
293.09102
293.08744
293.08399
293.08067
293.07746
293.07435
293.07133
293.06838
293.0655
293.06267
293.05989
293.05714
293.05441
293.05169
293.04898
293.04626
293.04353
293.04078
293.038
293.03518
293.03233
293.02942
293.02646
293.02344
293.02035
293.01719
293.01396
293.01064
293.00724
293.00374
293.00015
292.99646
292.99266
292.98874
292.98472
292.98057
292.97631
292.97192
292.96741
292.96277
292.95802
292.95315
292.94817
292.94311
292.938
292.93287
292.92781
292.92289
292.91826
292.91417
292.91102
292.90947
292.91078
292.91751
292.93519
292.96563
292.98614
292.99165
292.99317
292.99403
292.99479
292.99551
292.99623
292.99698
292.99773
292.99849
292.99925
292.99999
293.00073
293.00144
293.00214
293.00283
293.00349
293.00412
293.00475
293.00536
293.00596
293.00655
293.00713
293.0077
293.00825
293.00879
293.0093
293.00979
293.01026
293.0107
293.01112
293.01152
293.01189
293.01224
293.01256
293.01287
293.01315
293.01341
293.01365
293.01388
293.01409
293.01428
293.01445
293.01459
293.01469
293.01475
293.12762
293.12269
293.11795
293.11339
293.109
293.10477
293.1007
293.09678
293.09299
293.08933
293.08578
293.08234
293.07898
293.07571
293.07252
293.06938
293.06629
293.06325
293.06023
293.05724
293.05426
293.05129
293.04831
293.04532
293.0423
293.03927
293.0362
293.03308
293.02993
293.02672
293.02345
293.02011
293.01671
293.01323
293.00967
293.00602
293.00228
292.99845
292.99451
292.99047
292.98632
292.98206
292.97768
292.97318
292.96857
292.96383
292.95899
292.95404
292.949
292.94389
292.93874
292.9336
292.92856
292.9237
292.9192
292.91535
292.91258
292.91171
292.9142
292.92323
292.94487
292.97516
292.9904
292.99403
292.99515
292.99589
292.99655
292.99718
292.99783
292.99851
292.9992
292.99989
293.00058
293.00127
293.00195
293.00261
293.00325
293.00389
293.0045
293.0051
293.00568
293.00625
293.00681
293.00737
293.00792
293.00846
293.00898
293.00948
293.00997
293.01044
293.01088
293.0113
293.0117
293.01208
293.01243
293.01276
293.01307
293.01336
293.01362
293.01388
293.01411
293.01433
293.01453
293.01472
293.01488
293.01501
293.01511
293.01517
293.1388
293.13361
293.1286
293.12376
293.11907
293.11455
293.11017
293.10594
293.10184
293.09787
293.09401
293.09025
293.08659
293.08302
293.07952
293.07609
293.07272
293.06939
293.0661
293.06284
293.0596
293.05638
293.05316
293.04993
293.04669
293.04343
293.04015
293.03683
293.03348
293.03008
293.02663
293.02311
293.01954
293.01589
293.01218
293.00838
293.00449
293.00051
292.99644
292.99227
292.98799
292.98361
292.97912
292.97451
292.96979
292.96497
292.96004
292.95501
292.9499
292.94474
292.93956
292.93442
292.92942
292.92464
292.9203
292.91672
292.91443
292.91436
292.9183
292.93017
292.95571
292.98342
292.99394
292.99631
292.99715
292.99777
292.99834
292.99889
292.99946
293.00007
293.00069
293.00132
293.00195
293.00257
293.00319
293.0038
293.00439
293.00497
293.00554
293.00609
293.00663
293.00716
293.00768
293.00821
293.00872
293.00922
293.00972
293.01019
293.01065
293.01109
293.01151
293.01191
293.01229
293.01264
293.01298
293.01329
293.01358
293.01386
293.01411
293.01435
293.01457
293.01478
293.01497
293.01515
293.01531
293.01544
293.01553
293.01559
293.14953
293.14413
293.13889
293.1338
293.12886
293.12407
293.11942
293.11491
293.11053
293.10627
293.10212
293.09808
293.09413
293.09028
293.0865
293.08279
293.07914
293.07555
293.072
293.06848
293.065
293.06153
293.05807
293.05461
293.05115
293.04768
293.04418
293.04067
293.03711
293.03352
293.02989
293.0262
293.02246
293.01865
293.01477
293.01081
293.00678
293.00266
292.99845
292.99415
292.98974
292.98524
292.98063
292.97591
292.97109
292.96617
292.96115
292.95605
292.95088
292.94568
292.94047
292.93535
292.93039
292.92571
292.92157
292.91833
292.9166
292.9175
292.92324
292.93857
292.96712
292.99019
292.997
292.99853
292.99917
292.99968
293.00016
293.00062
293.00112
293.00166
293.00221
293.00277
293.00333
293.0039
293.00445
293.005
293.00554
293.00608
293.00659
293.0071
293.0076
293.00809
293.00857
293.00906
293.00954
293.01001
293.01047
293.01092
293.01135
293.01176
293.01216
293.01253
293.01288
293.01322
293.01354
293.01383
293.01411
293.01437
293.01461
293.01483
293.01504
293.01524
293.01543
293.0156
293.01575
293.01588
293.01597
293.01603
293.15983
293.15425
293.14881
293.14351
293.13835
293.13333
293.12844
293.12369
293.11905
293.11453
293.11012
293.10581
293.1016
293.09748
293.09344
293.08947
293.08557
293.08172
293.07792
293.07416
293.07043
293.06672
293.06303
293.05935
293.05567
293.05199
293.04829
293.04457
293.04083
293.03705
293.03323
293.02937
293.02545
293.02148
293.01744
293.01333
293.00915
293.00488
293.00054
292.9961
292.99157
292.98694
292.98221
292.97738
292.97246
292.96745
292.96234
292.95717
292.95195
292.9467
292.94148
292.93638
292.93149
292.92695
292.92304
292.92021
292.91916
292.92125
292.92923
292.94856
292.9782
292.99556
292.99975
293.00073
293.00121
293.00162
293.002
293.00238
293.00281
293.00327
293.00375
293.00424
293.00474
293.00524
293.00574
293.00623
293.00672
293.0072
293.00767
293.00813
293.00858
293.00903
293.00948
293.00993
293.01037
293.01081
293.01124
293.01165
293.01205
293.01244
293.01281
293.01316
293.01349
293.01381
293.0141
293.01438
293.01464
293.01489
293.01511
293.01533
293.01553
293.01572
293.01589
293.01606
293.0162
293.01632
293.01641
293.01647
293.1697
293.16397
293.15837
293.15289
293.14755
293.14233
293.13723
293.13225
293.12739
293.12263
293.11799
293.11344
293.10899
293.10462
293.10034
293.09612
293.09197
293.08789
293.08385
293.07985
293.07589
293.07196
293.06805
293.06415
293.06026
293.05637
293.05247
293.04855
293.04462
293.04065
293.03666
293.03262
293.02853
293.02439
293.02019
293.01593
293.0116
293.00719
293.0027
292.99813
292.99347
292.98871
292.98387
292.97893
292.97391
292.9688
292.96362
292.95837
292.95309
292.94782
292.9426
292.93753
292.93273
292.92835
292.92475
292.9224
292.92218
292.92574
292.93655
292.96005
292.98804
292.99985
293.00232
293.00293
293.00328
293.00358
293.00387
293.00417
293.00452
293.00491
293.00532
293.00574
293.00618
293.00661
293.00705
293.00748
293.00791
293.00834
293.00876
293.00917
293.00958
293.00999
293.0104
293.01081
293.01122
293.01162
293.01202
293.0124
293.01277
293.01313
293.01348
293.01381
293.01412
293.01441
293.01468
293.01494
293.01519
293.01541
293.01563
293.01583
293.01602
293.0162
293.01636
293.01652
293.01666
293.01678
293.01686
293.01691
293.17916
293.17331
293.16757
293.16195
293.15645
293.15105
293.14577
293.1406
293.13554
293.13058
293.12572
293.12095
293.11628
293.11169
293.10717
293.10273
293.09836
293.09404
293.08978
293.08556
293.08138
293.07723
293.07311
293.069
293.0649
293.06081
293.05671
293.0526
293.04848
293.04433
293.04015
293.03594
293.03169
293.02738
293.02302
293.01861
293.01412
293.00957
293.00494
293.00023
292.99544
292.99057
292.98561
292.98056
292.97544
292.97023
292.96497
292.95966
292.95434
292.94904
292.94383
292.93882
292.93413
292.92997
292.92672
292.92497
292.92578
292.93118
292.94548
292.97247
292.99609
293.0034
293.00477
293.00514
293.00538
293.00558
293.00577
293.00599
293.00626
293.00658
293.00691
293.00727
293.00763
293.008
293.00837
293.00875
293.00912
293.0095
293.00987
293.01024
293.0106
293.01096
293.01133
293.01171
293.01208
293.01245
293.01281
293.01317
293.01351
293.01384
293.01416
293.01446
293.01475
293.01502
293.01527
293.01552
293.01574
293.01595
293.01615
293.01634
293.01652
293.01669
293.01684
293.01699
293.01712
293.01724
293.01732
293.01737
293.18821
293.18227
293.17643
293.17069
293.16505
293.15951
293.15408
293.14874
293.1435
293.13835
293.1333
293.12834
293.12346
293.11867
293.11395
293.10929
293.10471
293.10018
293.0957
293.09127
293.08688
293.08253
293.0782
293.07389
293.06959
293.0653
293.06101
293.05671
293.05241
293.04808
293.04372
293.03934
293.03492
293.03045
293.02593
293.02136
293.01673
293.01203
293.00726
293.00242
292.9975
292.9925
292.98742
292.98227
292.97704
292.97175
292.96641
292.96105
292.95568
292.95037
292.94519
292.94026
292.93571
292.93182
292.92901
292.928
292.93007
292.93782
292.95622
292.98477
293.00234
293.00649
293.00718
293.00739
293.0075
293.00759
293.0077
293.00784
293.00803
293.00827
293.00853
293.00882
293.00912
293.00941
293.00972
293.01005
293.01036
293.01068
293.011
293.01132
293.01164
293.01196
293.01228
293.01262
293.01296
293.01329
293.01362
293.01394
293.01425
293.01456
293.01485
293.01513
293.01539
293.01564
293.01588
293.0161
293.01631
293.0165
293.01669
293.01686
293.01703
293.01718
293.01733
293.01748
293.0176
293.01771
293.01778
293.01783
293.19687
293.19086
293.18494
293.17911
293.17336
293.1677
293.16214
293.15666
293.15126
293.14596
293.14074
293.1356
293.13054
293.12556
293.12064
293.1158
293.11102
293.10629
293.10161
293.09698
293.0924
293.08784
293.08331
293.07881
293.07432
293.06984
293.06537