/*--------------------------------*- C++ -*----------------------------------*\
| =========                 |                                                 |
| \\      /  F ield         | OpenFOAM: The Open Source CFD Toolbox           |
|  \\    /   O peration     | Version:  2406                                  |
|   \\  /    A nd           | Website:  www.openfoam.com                      |
|    \\/     M anipulation  |                                                 |
\*---------------------------------------------------------------------------*/
FoamFile
{
    version     2.0;
    format      ascii;
    arch        "LSB;label=32;scalar=64";
    class       volVectorField;
    location    "0.013";
    object      UMean;
}
// * * * * * * * * * * * * * * * * * * * * * * * * * * * * * * * * * * * * * //

dimensions      [0 1 -1 0 0 0 0];

internalField   nonuniform List<vector> 
23203
(
(52.061091 16.673073 -1.1540856e-20)
(52.212348 16.168191 0)
(52.3486 15.684463 0)
(52.471437 15.221123 0)
(52.582237 14.777361 5.7312e-21)
(52.68229 14.352367 -1.1437095e-20)
(52.772688 13.945349 -5.6878971e-21)
(52.854553 13.555424 0)
(52.92891 13.181821 0)
(52.996706 12.823681 5.4823557e-21)
(53.058645 12.480146 -1.6184977e-20)
(53.115408 12.15045 -1.0613895e-20)
(53.167582 11.833775 5.2128208e-21)
(53.215641 11.52944 -1.5300443e-20)
(53.260058 11.236815 0)
(53.301261 10.95508 0)
(53.339753 10.683592 -1.4371498e-20)
(53.375826 10.421803 9.4534506e-21)
(53.409752 10.169119 -9.3992997e-21)
(53.441611 9.9249321 9.4321112e-21)
(53.47131 9.6887624 -2.372586e-20)
(53.498789 9.4601434 -3.3455312e-20)
(53.524087 9.2386702 9.6154779e-21)
(53.547397 9.0239465 2.4152378e-20)
(53.568863 8.8155983 1.93915e-20)
(53.588614 8.6133151 4.861318e-21)
(53.606704 8.4167467 1.4626319e-20)
(53.623053 8.225628 0)
(53.637597 8.0396153 0)
(53.650319 7.8585112 0)
(53.661213 7.6820161 1.9604538e-20)
(53.670297 7.5099227 1.9588734e-20)
(53.677574 7.3419612 1.95815e-20)
(53.682959 7.1778837 4.8962827e-21)
(53.686369 7.0174231 -4.8994435e-21)
(53.687719 6.8603153 1.9626741e-20)
(53.686965 6.7063351 -2.4588933e-20)
(53.684213 6.5554014 -1.2328502e-20)
(53.679747 6.4075682 1.8090565e-25)
(53.67382 6.2628631 -4.2182655e-20)
(53.666477 6.1211368 0)
(53.657875 5.9823665 3.7524417e-20)
(53.648469 5.8467816 -4.0236847e-20)
(53.639108 5.7148791 2.5343734e-21)
(53.631058 5.5875563 4.3318783e-20)
(53.626156 5.4660193 3.8329047e-20)
(53.626563 5.3519707 2.5480017e-21)
(53.632426 5.2453206 3.5395937e-20)
(53.640652 5.1433683 8.0102328e-20)
(53.648674 5.0442211 4.9558335e-21)
(53.65543 4.9471402 -2.4523961e-21)
(53.660453 4.8517348 4.1286118e-20)
(53.663439 4.7577171 -4.8116086e-21)
(53.664076 4.6647989 4.0533204e-20)
(53.662007 4.5726576 4.0195212e-20)
(53.656822 4.4809352 1.103909e-25)
(53.648036 4.3892497 7.4607699e-20)
(53.635115 4.2971333 -2.3189241e-21)
(53.617408 4.2040749 7.1595499e-20)
(53.594083 4.1094409 4.6063402e-21)
(53.564116 4.012461 -2.3010334e-21)
(53.526246 3.9121831 -7.3802778e-20)
(53.47878 3.8073781 0)
(53.419234 3.696389 -7.7290184e-20)
(53.344099 3.576593 -7.396269e-20)
(53.251466 3.445752 1.0653885e-24)
(53.145856 3.3075131 0)
(53.032818 3.1659054 -8.3132205e-20)
(52.914411 3.0220726 -2.7939831e-21)
(52.792708 2.877127 1.132797e-24)
(52.676949 2.7340931 0)
(52.589296 2.6099721 0)
(52.540127 2.5141086 -1.9885127e-19)
(52.505027 2.4265776 -1.9601928e-24)
(52.473488 2.3418057 -2.9974923e-21)
(52.443295 2.2586733 5.8842038e-21)
(52.414348 2.1772655 1.7902062e-19)
(52.386531 2.0974295 1.8135422e-19)
(52.35984 2.0191299 -1.751919e-19)
(52.334267 1.9422589 0)
(52.309791 1.8667414 -1.7135492e-19)
(52.286389 1.7924715 0)
(52.264016 1.7193807 1.6234173e-19)
(52.242665 1.6473725 2.5266175e-21)
(52.222313 1.5763816 0)
(52.202919 1.5063158 -1.5564141e-19)
(52.184471 1.4370999 0)
(52.166949 1.3686535 1.497713e-19)
(52.150336 1.3008911 -1.4802412e-19)
(52.134607 1.2337442 2.2519287e-21)
(52.119746 1.1671329 -1.1042965e-21)
(52.105732 1.10099 0)
(52.092534 1.0352241 0)
(52.080138 0.96977228 2.6571542e-19)
(52.068533 0.90453965 -7.8052278e-27)
(52.057699 0.83945961 -2.5559102e-19)
(52.047627 0.77443216 0)
(52.0383 0.7093976 1.1667574e-24)
(52.02972 0.64423379 0)
(52.021872 0.57890381 -2.3734576e-19)
(52.014781 0.51322553 -1.0471536e-24)
(52.008415 0.44722993 0)
(52.002835 0.38060987 -2.2362162e-19)
(51.997965 0.31352864 2.1925045e-19)
(51.993928 0.24548366 0)
(51.990647 0.17687006 0)
(51.988184 0.10685214 2.0693455e-19)
(51.986348 0.036200685 -1.9930612e-19)
(51.64805 16.709589 0)
(51.822143 16.215488 6.3156379e-21)
(51.980214 15.740768 1.293831e-24)
(52.123882 15.284846 -6.1205845e-21)
(52.2545 14.847125 -6.0273652e-21)
(52.37336 14.42693 1.1877492e-20)
(52.481549 14.02369 -5.8560188e-21)
(52.580252 13.636615 5.7748756e-21)
(52.670518 13.265077 1.1397046e-20)
(52.753233 12.908343 -5.62399e-21)
(52.82912 12.565641 1.6659123e-20)
(52.898934 12.236291 -5.4854887e-21)
(52.96331 11.919568 5.4207687e-21)
(53.022814 11.614818 -1.0714436e-20)
(53.077939 11.321427 5.2963523e-21)
(53.129089 11.038772 -1.5712972e-20)
(53.17681 10.766208 2.0724792e-20)
(53.221437 10.503177 0)
(53.263232 10.24912 1.0152787e-20)
(53.302322 10.003429 5.0261423e-21)
(53.338737 9.7656557 1.991223e-20)
(53.372481 9.5353324 -9.8476281e-21)
(53.403642 9.3121195 4.8611596e-21)
(53.432477 9.0956307 -1.442245e-20)
(53.459162 8.8855051 -4.7623061e-21)
(53.483908 8.6814105 1.8968311e-20)
(53.506793 8.4829928 0)
(53.527692 8.2899652 0)
(53.546539 8.1020208 1.4361641e-20)
(53.563324 7.9189795 2.4033919e-20)
(53.578043 7.7405372 -4.8249275e-21)
(53.590712 7.5665127 -1.4521556e-20)
(53.601334 7.3966092 -1.9417965e-20)
(53.609839 7.2305882 0)
(53.61615 7.0681794 0)
(53.620194 6.9091128 -1.9589489e-20)
(53.621987 6.753196 1.4739492e-20)
(53.621713 6.6004027 2.4640277e-20)
(53.619684 6.4508136 0)
(53.616108 6.3044123 4.9622137e-21)
(53.611024 6.1610344 -4.9829057e-21)
(53.604679 6.0207268 5.0072433e-21)
(53.597626 5.883776 3.5230541e-20)
(53.590821 5.7507765 -4.2992573e-20)
(53.585693 5.6226927 2.5393677e-21)
(53.584164 5.5008343 -7.8718606e-20)
(53.588152 5.3868132 4.0449889e-20)
(53.596905 5.2798024 -8.0201825e-20)
(53.607085 5.1769232 -4.2172478e-20)
(53.616558 5.0766131 -3.9280705e-20)
(53.624529 4.9782962 4.1315801e-20)
(53.630622 4.8816256 -4.813495e-21)
(53.634557 4.7863202 2.3844806e-21)
(53.636024 4.6920898 0)
(53.634659 4.5986073 0)
(53.630046 4.5055038 -7.4487286e-20)
(53.621696 4.4123843 -7.4017928e-20)
(53.609063 4.3187929 2.3011472e-21)
(53.591474 4.2241917 -7.5650958e-20)
(53.568077 4.1279246 7.3211732e-20)
(53.537815 4.0291972 2.2881759e-21)
(53.499368 3.9270243 -2.2942325e-21)
(53.450965 3.8201172 0)
(53.389984 3.7067067 -7.736837e-20)
(53.312898 3.5840093 7.6729552e-20)
(53.218565 3.4503689 -7.6982093e-20)
(53.112365 3.3102191 0)
(52.999363 3.1671132 -1.0399184e-24)
(52.881297 3.0219382 0)
(52.76059 2.8758861 -9.37921e-20)
(52.64775 2.7330558 0)
(52.566175 2.6118079 9.9185689e-20)
(52.521361 2.5178142 9.8076641e-20)
(52.487756 2.4302449 3.8543397e-19)
(52.456999 2.3452256 2.9560615e-21)
(52.427485 2.2618942 1.8279259e-19)
(52.399169 2.1802966 -3.6449236e-19)
(52.371949 2.100283 2.7961755e-21)
(52.345824 2.0218115 1.7003777e-19)
(52.320784 1.9447739 -1.6954897e-19)
(52.296809 1.8690975 1.6900736e-19)
(52.273878 1.7946762 0)
(52.25195 1.7214415 1.1976761e-24)
(52.231016 1.6492989 0)
(52.211058 1.5781771 0)
(52.192034 1.5079849 0)
(52.173933 1.4386482 1.5069883e-19)
(52.156736 1.370084 1.1548461e-21)
(52.140427 1.3022134 -1.1325513e-21)
(52.124984 1.2349658 1.4337353e-19)
(52.110392 1.1682564 -2.8016984e-19)
(52.096628 1.10202 1.0683136e-21)
(52.083664 1.0361676 2.6845533e-19)
(52.071486 0.97063154 -1.0288348e-21)
(52.060083 0.90532016 0)
(52.049436 0.84016561 2.5437531e-19)
(52.039537 0.77506704 -1.9409444e-21)
(52.030368 0.70996428 -4.8635707e-19)
(52.021933 0.6447366 0)
(52.014217 0.57934402 -1.0931168e-24)
(52.007243 0.51360692 2.3037409e-19)
(52.000981 0.44755367 -4.4041959e-22)
(51.995492 0.38087804 2.2114945e-19)
(51.990698 0.31374257 -4.3368484e-19)
(51.986722 0.24564572 0)
(51.983496 0.1769751 0)
(51.981055 0.10689767 -4.9041955e-23)
(51.97923 0.036213596 4.807431e-23)
(51.210077 16.753468 -6.3414884e-21)
(51.408839 16.271634 -1.0781363e-24)
(51.59045 15.807252 -6.1431869e-21)
(51.756496 15.359877 6.0516463e-21)
(51.908293 14.929231 -1.1936867e-20)
(52.047233 14.514653 0)
(52.174357 14.115901 0)
(52.290909 13.732228 1.1468277e-20)
(52.397987 13.363155 -1.1323817e-20)
(52.496466 13.008093 -5.5954685e-21)
(52.5871 12.66638 -5.5302117e-21)
(52.670725 12.337449 1.0939859e-20)
(52.748042 12.020607 -1.0824922e-20)
(52.819647 11.715409 1.6075098e-20)
(52.886108 11.421162 5.3085207e-21)
(52.947835 11.137387 1.5776818e-20)
(53.005417 10.863463 2.1092516e-24)
(53.059225 10.598853 5.1729743e-21)
(53.10955 10.34305 -5.1319956e-21)
(53.156573 10.095454 -5.0966483e-21)
(53.200399 9.8556626 -2.0241365e-20)
(53.241121 9.6232068 2.0087495e-20)
(53.278865 9.3977937 -1.9944369e-20)
(53.31388 9.1790595 1.9815648e-20)
(53.34636 8.9666733 0)
(53.376496 8.7602959 2.4525952e-20)
(53.404373 8.5595722 4.1542806e-25)
(53.429975 8.3642032 1.9616106e-20)
(53.453246 8.173905 -4.4091276e-20)
(53.474201 7.9885155 -3.422727e-20)
(53.492859 7.8077263 3.8825313e-25)
(53.50924 7.6313636 -4.8782796e-21)
(53.52334 7.4591142 1.4622365e-20)
(53.535103 7.2907498 2.4371242e-20)
(53.544464 7.1260001 0)
(53.551377 6.9646066 1.9534439e-20)
(53.555923 6.8064357 9.6888187e-25)
(53.558337 6.6515114 4.9070079e-21)
(53.558922 6.4999097 3.4455218e-20)
(53.557829 6.3515449 0)
(53.555133 6.2062789 0)
(53.551185 6.0642496 4.9832094e-21)
(53.546625 5.9258042 -5.0071612e-21)
(53.542528 5.791653 7.5436818e-20)
(53.540424 5.6628039 -3.5297394e-20)
(53.542279 5.5406689 5.0374395e-21)
(53.549599 5.4265471 -5.008257e-21)
(53.560829 5.3188082 -1.1066476e-24)
(53.57274 5.2146958 0)
(53.583617 5.113003 -2.4305193e-21)
(53.592823 5.0132621 -3.6090069e-20)
(53.600026 4.9151489 -2.3829085e-21)
(53.604954 4.818385 2.360976e-21)
(53.607296 4.7226747 3.9794647e-20)
(53.606685 4.627686 1.0765422e-25)
(53.6027 4.5330413 7.3797302e-20)
(53.594847 4.4383378 -2.2921031e-21)
(53.582567 4.3431167 -2.2807359e-21)
(53.56517 4.2468192 2.2724956e-21)
(53.541778 4.1487664 -7.2603501e-20)
(53.511306 4.0481359 0)
(53.472383 3.9439038 -2.2806495e-21)
(53.423143 3.8347279 -8.3597642e-26)
(53.360829 3.7187099 2.3355887e-21)
(53.282006 3.5929586 -7.4327303e-20)
(53.186418 3.4566428 -2.4846536e-21)
(53.07996 3.314806 2.5851966e-21)
(52.967112 3.1703142 8.6182912e-20)
(52.849426 3.0239283 -5.6191681e-21)
(52.729811 2.8769477 -9.0813077e-20)
(52.620341 2.7347554 0)
(52.544426 2.6170062 -9.8054523e-20)
(52.503005 2.5242575 0)
(52.470542 2.4363993 -2.9700727e-21)
(52.440507 2.3509972 2.917446e-21)
(52.411655 2.2673413 -1.8326017e-19)
(52.383956 2.1854323 3.5969722e-19)
(52.357324 2.1051244 -1.7926018e-19)
(52.331753 2.0263695 5.4129143e-21)
(52.307235 1.9490593 1.6731182e-19)
(52.283752 1.8731224 -1.6677622e-19)
(52.261284 1.7984511 -2.5568037e-21)
(52.239793 1.724977 -1.6052723e-19)
(52.219271 1.6526058 -1.5247315e-19)
(52.199699 1.5812656 -4.8287412e-21)
(52.181039 1.5108657 2.3682245e-21)
(52.163279 1.4413314 -1.4867604e-19)
(52.146403 1.3725807 0)
(52.130396 1.3045319 1.1176618e-21)
(52.115237 1.2371123 -1.4146713e-19)
(52.100909 1.1702408 -1.6054071e-24)
(52.087393 1.1038498 0)
(52.074662 1.0378503 -2.6486616e-19)
(52.0627 0.97217395 2.5984923e-19)
(52.051498 0.90672905 2.5489333e-19)
(52.041037 0.84144711 -2.5000145e-19)
(52.03131 0.77622686 -2.4416928e-19)
(52.022299 0.71100729 -1.1793525e-24)
(52.01401 0.64566803 -1.3819394e-21)
(52.006424 0.58016742 2.3130436e-19)
(51.999568 0.51432657 4.4306183e-22)
(51.99341 0.44817236 0)
(51.988011 0.38139864 0)
(51.983296 0.31416702 2.1393071e-19)
(51.97938 0.24597661 2.0979049e-19)
(51.97621 0.17720852 0)
(51.973792 0.10703609 -4.0352237e-19)
(51.971978 0.036263439 0)
(50.78222 16.762693 6.2617929e-21)
(51.003415 16.294999 -1.1769603e-24)
(51.206693 15.842826 0)
(51.393485 15.405839 -5.9908584e-21)
(51.565087 14.983928 5.9050691e-21)
(51.72291 14.576717 5.8324799e-21)
(51.867973 14.184014 5.7560973e-21)
(52.001531 13.805285 -2.2739805e-20)
(52.124703 13.440161 0)
(52.238355 13.088147 -5.5523607e-21)
(52.343254 12.748718 5.4904164e-21)
(52.44031 12.421432 -1.6297823e-20)
(52.530269 12.105627 5.3764932e-21)
(52.613746 11.801031 0)
(52.691354 11.506915 -1.5823266e-20)
(52.763515 11.222933 -5.2291823e-21)
(52.830869 10.948485 -5.1833865e-21)
(52.8938 10.683084 -2.0574109e-20)
(52.952625 10.42628 2.0424372e-20)
(53.007577 10.177489 4.26628e-25)
(53.058831 9.9363684 -2.5195529e-20)
(53.106554 9.7024447 0)
(53.150899 9.4754712 1.9930987e-20)
(53.192127 9.25509 -1.9836157e-20)
(53.23044 9.0409958 0)
(53.266027 8.8328412 -2.4598131e-20)
(53.298986 8.630292 4.903489e-21)
(53.329357 8.4330577 -2.4449466e-20)
(53.357148 8.2408605 2.9270488e-20)
(53.382378 8.0535419 3.4084425e-20)
(53.405069 7.8708019 0)
(53.425242 7.6924596 1.4569245e-20)
(53.442898 7.5182017 4.8537509e-21)
(53.457996 7.3478106 -4.8528056e-21)
(53.470477 7.1810138 4.8568893e-21)
(53.480339 7.0175803 4.8639786e-21)
(53.487727 6.8574361 -4.8725601e-21)
(53.492917 6.7006368 0)
(53.496187 6.5472271 1.9144936e-24)
(53.497646 6.3970751 4.9179838e-21)
(53.497438 6.2501155 -4.9374073e-21)
(53.496005 6.1065582 0)
(53.494086 5.9668243 4.9818311e-21)
(53.492872 5.8317294 -8.4999565e-20)
(53.493973 5.7023127 -5.0083e-21)
(53.49935 5.5800693 4.9955185e-21)
(53.509949 5.4657711 -3.4734558e-20)
(53.523538 5.3571517 -4.914795e-21)
(53.537156 5.2517723 -3.8898985e-20)
(53.549449 5.1487068 0)
(53.559908 5.0475575 0)
(53.568234 4.9480159 0)
(53.574165 4.8498056 -3.5066569e-20)
(53.577388 4.7526246 9.3284173e-25)
(53.577531 4.6561356 -2.3001488e-21)
(53.574166 4.5599521 0)
(53.566801 4.463666 -7.2677514e-20)
(53.554859 4.3668076 -2.2605406e-21)
(53.53763 4.2687993 7.4360927e-20)
(53.514212 4.1689399 -2.2508386e-21)
(53.483487 4.0663782 -6.9891466e-20)
(53.444026 3.9600503 -7.2500876e-20)
(53.39387 3.8485506 0)
(53.330121 3.7298414 1.5119984e-19)
(53.249534 3.6010072 7.172005e-20)
(53.152827 3.4621939 2.4793901e-21)
(53.046215 3.3187348 -8.2541356e-20)
(52.933579 3.1728648 -8.5980542e-20)
(52.816361 3.0253045 0)
(52.698059 2.877497 9.0427168e-20)
(52.592432 2.736345 3.0125891e-21)
(52.522335 2.6222282 0)
(52.484046 2.530243 9.2587788e-20)
(52.45272 2.4421003 -1.8184812e-19)
(52.423447 2.3563492 5.5583407e-26)
(52.395292 2.2723889 1.8083242e-19)
(52.368241 2.1901879 -3.5769077e-19)
(52.342223 2.1096036 0)
(52.317232 2.0305833 1.7091013e-19)
(52.293261 1.953018 0)
(52.270293 1.876838 1.6197789e-19)
(52.248311 1.8019327 5.045248e-21)
(52.227278 1.7282359 -2.4747399e-21)
(52.207186 1.6556523 -1.1554088e-24)
(52.188018 1.5841091 -1.5243899e-19)
(52.16974 1.5135159 -1.4719588e-19)
(52.152337 1.4437973 -2.2914394e-21)
(52.135798 1.3748709 0)
(52.120106 1.3066561 0)
(52.105242 1.2390786 -1.384766e-19)
(52.091193 1.1720574 2.7166425e-19)
(52.077936 1.1055234 0)
(52.065446 1.0393882 0)
(52.05371 0.97358233 -2.573533e-19)
(52.042718 0.90801435 -5.0191982e-19)
(52.032451 0.84261505 9.6336118e-22)
(52.022903 0.77728298 4.8362445e-19)
(52.014057 0.71195602 4.7337091e-19)
(52.005919 0.64651447 -2.3265609e-19)
(51.99847 0.58091484 0)
(51.991736 0.51497897 -4.3705895e-22)
(51.985686 0.44873244 -2.1903217e-19)
(51.980381 0.38186896 0)
(51.975746 0.31454962 0)
(51.971894 0.2462737 -2.0673507e-19)
(51.968782 0.17741672 -2.9718461e-22)
(51.966387 0.10715508 1.9909513e-19)
(51.964587 0.036306486 0)
(50.361329 16.752433 -6.1840092e-21)
(50.603287 16.300432 8.8807803e-26)
(50.826787 15.862019 6.0111864e-21)
(51.032986 15.436792 -5.6147906e-26)
(51.223239 15.025026 1.7551848e-20)
(51.399023 14.626412 -1.7328891e-20)
(51.56122 14.240978 -1.141302e-20)
(51.711126 13.868307 1.691048e-20)
(51.849854 13.508138 0)
(51.978238 13.160096 0)
(52.097062 12.823809 1.6354333e-20)
(52.207291 12.498955 -5.3969086e-21)
(52.309695 12.184889 -5.3422374e-21)
(52.404896 11.881534 -2.1163871e-20)
(52.493545 11.58811 5.2427221e-21)
(52.576067 11.304426 1.5593574e-20)
(52.653153 11.029892 5.1555542e-21)
(52.72519 10.764083 -1.0233569e-20)
(52.792524 10.506617 -5.0788669e-21)
(52.855435 10.256924 -2.0184541e-20)
(52.914155 10.014733 2.5072946e-20)
(52.968915 9.7795649 4.9866881e-21)
(53.019899 9.551228 -4.9605534e-21)
(53.067392 9.329359 0)
(53.111588 9.1136853 4.9174678e-21)
(53.152689 8.9038557 -4.8990664e-21)
(53.190811 8.6995743 0)
(53.226043 8.5005631 1.9481389e-20)
(53.25843 8.3065532 -4.858939e-21)
(53.288004 8.1173788 -9.6980371e-21)
(53.314793 7.9327509 -4.8418933e-21)
(53.338817 7.75248 0)
(53.360088 7.5762624 -2.4171834e-20)
(53.378577 7.4038839 -9.6680252e-21)
(53.394242 7.2350773 9.67608e-21)
(53.407135 7.0696597 -1.4534358e-20)
(53.417465 6.9076124 -1.9416408e-20)
(53.425527 6.7490078 0)
(53.431561 6.5938407 1.9256703e-24)
(53.435657 6.4419636 4.8966432e-21)
(53.438052 6.2934018 -3.9323764e-20)
(53.439276 6.1484218 -4.9357784e-21)
(53.440173 6.0075419 -3.9645985e-20)
(53.442045 5.871655 3.9758944e-20)
(53.446563 5.7418399 -3.9779081e-20)
(53.455603 5.6196073 7.9261878e-20)
(53.469391 5.5050229 -3.9313106e-20)
(53.485217 5.3954167 3.8913159e-20)
(53.500513 5.2887547 3.8503276e-20)
(53.514242 5.1843237 -3.3343286e-20)
(53.525983 5.0817744 -4.7157831e-21)
(53.535462 4.9808097 -3.7369225e-20)
(53.542423 4.8811542 3.7034016e-20)
(53.546549 4.7824996 -4.131768e-20)
(53.547462 4.6845023 2.2779825e-21)
(53.544733 4.5867679 2.2629401e-21)
(53.537861 4.4888838 7.200889e-20)
(53.526255 4.3903646 0)
(53.509182 4.2906152 -7.1493031e-20)
(53.485715 4.1889107 2.2329259e-21)
(53.454696 4.0843709 7.1599684e-20)
(53.414638 3.9758852 7.2002062e-20)
(53.363476 3.8619814 -2.2736949e-21)
(53.298182 3.7404662 -1.4823893e-19)
(53.215827 3.6085149 7.6299365e-20)
(53.118182 3.4673643 0)
(53.011548 3.3223345 8.2333352e-20)
(52.899183 3.1751108 8.3033166e-20)
(52.782526 3.0264186 2.7896098e-21)
(52.665814 2.8779106 8.9979346e-20)
(52.564568 2.7382522 2.9858234e-21)
(52.500361 2.6277806 0)
(52.46482 2.5362399 1.1151866e-24)
(52.434563 2.4478086 2.8941272e-21)
(52.406058 2.3617217 -1.8464282e-19)
(52.378612 2.2774611 -3.5679366e-19)
(52.352223 2.1949711 1.7783579e-19)
(52.326831 2.1141122 -2.6845673e-21)
(52.302431 2.034828 -3.372258e-19)
(52.279018 1.9570086 1.6286171e-19)
(52.256576 1.8805866 5.072847e-21)
(52.235086 1.8054475 3.4586051e-26)
(52.21452 1.7315277 3.2394045e-26)
(52.194867 1.6587315 1.5081938e-19)
(52.176112 1.5869851 1.5271214e-19)
(52.158222 1.516198 -2.305769e-21)
(52.141184 1.4462938 1.4464436e-19)
(52.124988 1.3771926 -1.1090429e-21)
(52.109617 1.3088097 1.4140923e-19)
(52.095054 1.2410731 2.7104784e-19)
(52.081288 1.1739002 2.0935032e-21)
(52.068295 1.1072219 -2.0518219e-21)
(52.056052 1.0409495 -8.0735524e-27)
(52.044546 0.97501263 -2.5285684e-19)
(52.033768 0.90932018 2.4898553e-19)
(52.023698 0.84380193 -2.4325173e-19)
(52.014334 0.77835671 -2.3851215e-19)
(52.005656 0.71292076 1.1979516e-24)
(51.997671 0.64737541 2.2946973e-19)
(51.990361 0.58167534 0)
(51.983753 0.51564296 2.207121e-19)
(51.977814 0.44930266 2.1687962e-19)
(51.972604 0.38234795 1.4848436e-27)
(51.968052 0.31493955 -2.0854384e-19)
(51.964263 0.24657639 0)
(51.961212 0.17762979 -2.0007897e-19)
(51.958841 0.10727661 4.7914035e-23)
(51.957053 0.036351363 -4.6134178e-23)
(49.949769 16.717817 -1.2200997e-20)
(50.210785 16.282922 -6.0246174e-21)
(50.452776 15.859732 -5.9438956e-21)
(50.676793 15.447502 -1.1738493e-20)
(50.884415 15.047202 0)
(51.077081 14.658389 -5.7238602e-21)
(51.255448 14.281443 1.696591e-20)
(51.420883 13.916019 0)
(51.57447 13.561906 0)
(51.717006 13.218878 5.4690126e-21)
(51.849279 12.886743 -5.4095772e-21)
(51.972296 12.565273 1.0715134e-20)
(52.086831 12.253807 1.0612449e-20)
(52.1935 11.952515 -2.044146e-24)
(52.292991 11.660514 0)
(52.385717 11.377828 -1.0336238e-20)
(52.472428 11.103843 0)
(52.553498 10.838212 1.5268896e-20)
(52.629308 10.580631 3.4369726e-25)
(52.700171 10.330536 -6.973995e-25)
(52.766374 10.087744 2.4959495e-20)
(52.828203 9.851763 -1.9857984e-20)
(52.885867 9.6224723 -1.9758053e-20)
(52.93967 9.3994841 0)
(52.989798 9.1825658 0)
(53.036472 8.971368 0)
(53.079829 8.7656433 -1.4592986e-20)
(53.119997 8.5651216 -2.4253135e-20)
(53.157049 8.369548 -4.8396994e-21)
(53.191032 8.1787434 -1.4491437e-20)
(53.221983 7.9924313 0)
(53.24992 7.810418 0)
(53.27487 7.6324118 1.9259657e-20)
(53.296814 7.458198 0)
(53.315736 7.2875298 -2.4094668e-20)
(53.331756 7.1202857 4.824463e-21)
(53.345132 6.9564908 4.8351784e-21)
(53.356161 6.7962154 1.453953e-20)
(53.365034 6.6393947 -3.8876036e-20)
(53.371861 6.4859096 3.9004181e-20)
(53.376983 6.3358787 3.425218e-20)
(53.381012 6.1896215 4.91202e-21)
(53.384913 6.0477719 4.435979e-20)
(53.390071 5.9112642 3.9511157e-20)
(53.398206 5.7812433 -4.9360184e-21)
(53.410981 5.6591055 -3.9272727e-20)
(53.427811 5.5441007 7.7846452e-20)
(53.445759 5.4334288 4.333357e-20)
(53.462716 5.325479 -4.7637806e-21)
(53.477895 5.2196929 8.0153288e-20)
(53.49094 5.115754 2.242107e-25)
(53.501592 5.0133732 2.7746109e-20)
(53.509601 4.9122756 4.1252565e-20)
(53.514645 4.8121458 0)
(53.51634 4.7126346 0)
(53.514252 4.6133393 0)
(53.507875 4.5138429 0)
(53.496603 4.413641 0)
(53.479674 4.3121213 0)
(53.456135 4.2085344 6.8674534e-20)
(53.424787 4.1019687 2.2211732e-21)
(53.384077 3.9912628 7.1533512e-20)
(53.331821 3.8748705 0)
(53.264888 3.7504284 7.3834884e-20)
(53.180813 3.6153595 1.1696792e-24)
(53.082434 3.4720408 2.4684856e-21)
(52.975881 3.325479 -2.5660368e-21)
(52.86385 3.1769237 -8.8124455e-20)
(52.747856 3.0271454 5.5587535e-21)
(52.633076 2.878096 -5.7743344e-21)
(52.536756 2.7404485 5.9145702e-21)
(52.478455 2.6334525 -9.4241215e-20)
(52.445218 2.5421381 1.1805328e-24)
(52.416001 2.4534354 -2.8552337e-21)
(52.388278 2.3670284 1.7655067e-19)
(52.36156 2.2824741 1.7875036e-19)
(52.335849 2.1997011 0)
(52.311098 2.1185725 1.6950337e-19)
(52.287303 2.0390286 1.6372542e-19)
(52.264462 1.9609601 2.5514064e-21)
(52.242558 1.8842988 0)
(52.221575 1.8089292 -2.4546758e-21)
(52.201487 1.7347893 -1.5171306e-19)
(52.182283 1.6617836 0)
(52.163953 1.5898363 -1.5061802e-19)
(52.14646 1.5188577 4.5452673e-21)
(52.129796 1.4487696 -2.8976981e-19)
(52.113951 1.3794947 2.1876119e-21)
(52.098909 1.3109457 -1.3733002e-19)
(52.084655 1.2430518 -1.347117e-19)
(52.071179 1.1757287 -2.64285e-19)
(52.058457 1.1089073 0)
(52.046467 1.0424988 0)
(52.035198 0.97643208 2.4839724e-19)
(52.024638 0.91061614 2.4555674e-19)
(52.014772 0.84497975 2.4083564e-19)
(52.005594 0.77942222 2.333914e-19)
(51.99709 0.71387815 -2.2978488e-19)
(51.989262 0.64822979 8.8401891e-22)
(51.982095 0.58242997 -4.3348967e-22)
(51.975614 0.51630181 -4.353328e-19)
(51.969788 0.44986842 -4.1693153e-22)
(51.964676 0.38282304 -2.0935068e-19)
(51.960209 0.31532634 4.1028669e-19)
(51.956485 0.24687628 2.0146114e-19)
(51.953495 0.17784147 3.9457762e-19)
(51.95115 0.10739621 1.9359383e-19)
(51.949376 0.036396335 1.8633568e-19)
(49.549383 16.660564 6.0007226e-21)
(49.827045 16.245467 5.9114642e-21)
(50.085253 15.839269 5.8517463e-21)
(50.325643 15.440849 -1.1603474e-20)
(50.549454 15.053157 1.7215565e-20)
(50.757839 14.675142 5.6734803e-21)
(50.951367 14.307723 5.6071349e-21)
(51.131487 13.950592 0)
(51.299182 13.603478 0)
(51.45525 13.266349 1.6287163e-20)
(51.600472 12.939244 -1.6121432e-20)
(51.735859 12.621985 0)
(51.862174 12.313853 5.2739817e-21)
(51.980024 12.015346 1.5677238e-20)
(52.090129 11.725391 0)
(52.192879 11.444317 -5.1401256e-21)
(52.289081 11.171428 -2.871457e-25)
(52.379093 10.906479 1.5192738e-20)
(52.463321 10.649249 1.5090456e-20)
(52.542107 10.399169 -4.9980872e-21)
(52.615789 10.156164 2.6556517e-24)
(52.684697 9.9197226 -2.5030264e-24)
(52.74906 9.6898058 1.9672407e-20)
(52.809193 9.4659848 0)
(52.865285 9.2480869 -4.8775503e-21)
(52.917578 9.0357667 2.4302132e-20)
(52.966229 8.8288324 4.8434398e-21)
(53.011399 8.6270085 3.1081203e-25)
(53.053173 8.4300685 -4.8205972e-21)
(53.091624 8.2378079 2.4056337e-20)
(53.126787 8.0499687 3.050493e-25)
(53.158691 7.8663614 -4.7987776e-21)
(53.187372 7.6867015 -1.9186789e-20)
(53.212825 7.5107741 1.9189012e-20)
(53.235077 7.3383759 1.9203844e-20)
(53.254317 7.1694486 3.84587e-20)
(53.270836 7.0040466 0)
(53.284912 6.842215 -1.9306185e-20)
(53.296694 6.6838396 0)
(53.306355 6.5288724 -7.7671131e-20)
(53.314332 6.3775097 -3.897021e-20)
(53.321325 6.2301375 -4.8880934e-21)
(53.328422 6.0875048 4.9011731e-21)
(53.337066 5.9505592 -3.9248228e-20)
(53.349006 5.8205352 4.405622e-20)
(53.36552 5.6985148 -9.7262823e-21)
(53.385213 5.5829419 -3.3714495e-20)
(53.405194 5.4711508 -3.812303e-20)
(53.423807 5.3619171 0)
(53.440453 5.2547893 -3.2667395e-20)
(53.454821 5.1494727 -4.1590625e-20)
(53.466668 5.0456848 0)
(53.475742 4.9431493 -4.0843971e-20)
(53.481716 4.841544 9.0037656e-21)
(53.4842 4.7405128 -4.4694214e-21)
(53.482758 4.6396472 0)
(53.476876 4.5385224 -7.0706057e-20)
(53.465928 4.4366151 -4.4028146e-21)
(53.449125 4.3332943 4.3942279e-21)
(53.425485 4.2277852 -7.0330825e-20)
(53.393765 4.1191417 7.2769595e-20)
(53.35234 4.0061489 1.3083655e-24)
(53.29889 3.8871734 -4.4993848e-21)
(53.230232 3.7596801 7.5883407e-20)
(53.144528 3.6215348 -7.5955153e-20)
(53.045622 3.476214 0)
(52.939249 3.3281558 8.1910268e-20)
(52.827618 3.178298 8.2531799e-20)
(52.712419 3.0274846 2.7682549e-21)
(52.599958 2.8781067 -9.1917809e-20)
(52.509104 2.7430363 9.0744059e-20)
(52.456534 2.6391915 9.8757253e-20)
(52.425259 2.5479384 -9.4682043e-20)
(52.397052 2.4589901 -2.816585e-21)
(52.370124 2.3722777 2.7639979e-21)
(52.344148 2.2874366 -2.712723e-21)
(52.319131 2.2043867 1.7303933e-19)
(52.295036 2.1229931 -1.6718562e-19)
(52.271861 2.0431942 2.5630864e-21)
(52.249604 1.9648808 -1.6598771e-19)
(52.22825 1.8879829 1.5792241e-19)
(52.207785 1.8123868 2.4208778e-21)
(52.188186 1.7380295 3.0399841e-19)
(52.169442 1.6648166 0)
(52.151543 1.5926708 2.9248716e-19)
(52.134458 1.5215024 1.4346864e-19)
(52.118177 1.4512324 1.3848348e-19)
(52.10269 1.3817856 -2.1525606e-26)
(52.087985 1.3130714 4.2322932e-21)
(52.074048 1.2450215 -2.0756441e-21)
(52.060868 1.177549 5.2123637e-19)
(52.048423 1.1105856 -2.5551037e-19)
(52.036693 1.0440416 -2.496235e-19)
(52.025664 0.97784604 7.002615e-27)
(52.015328 0.91190689 -1.8830181e-21)
(52.00567 0.84615305 -2.3563962e-19)
(51.996684 0.78048379 1.2593722e-24)
(51.988355 0.71483199 -2.2748636e-19)
(51.980689 0.64908109 -2.2228791e-19)
(51.973667 0.58318186 -8.5490925e-22)
(51.967318 0.51695827 2.1463617e-19)
(51.961607 0.45043215 -4.1112546e-22)
(51.956596 0.38329628 2.0682044e-19)
(51.952215 0.31571159 9.8504276e-25)
(51.948558 0.24717471 -1.9846574e-19)
(51.945628 0.17805333 -1.9454197e-19)
(51.94331 0.1075142 -3.8168432e-19)
(51.941551 0.036441721 -3.6760819e-19)
(49.159268 16.588543 5.9613425e-21)
(49.452292 16.190094 0)
(49.72653 15.796568 0)
(49.981992 15.414262 2.857044e-20)
(50.219989 15.042023 -1.6942862e-20)
(50.442516 14.675996 -2.2403132e-20)
(50.650192 14.319001 5.5531391e-21)
(50.844061 13.971206 -1.0998758e-20)
(51.024946 13.631966 -5.4450339e-21)
(51.193839 13.301547 -1.0777227e-20)
(51.35144 12.980352 5.3373191e-21)
(51.498679 12.668133 -1.0575053e-20)
(51.636332 12.364064 -1.0479326e-20)
(51.764998 12.069091 -1.934888e-25)
(51.885422 11.781818 1.5458121e-20)
(51.997952 11.503011 0)
(52.103457 11.231801 -5.0744862e-21)
(52.202262 10.968075 -5.0383013e-21)
(52.294802 10.711708 -1.0011256e-20)
(52.381441 10.462104 0)
(52.462559 10.219327 -1.9788546e-20)
(52.538525 9.9828225 1.4763766e-20)
(52.609573 9.7526531 -2.8105586e-25)
(52.676034 9.5283304 4.8770662e-21)
(52.7381 9.3097684 4.858566e-21)
(52.796044 9.0966201 -1.9365297e-20)
(52.850035 8.8887524 1.4479461e-20)
(52.900253 8.6858731 0)
(52.946796 8.48779 0)
(52.989758 8.2942777 -1.9173134e-20)
(53.029178 8.1050972 1.4357804e-20)
(53.065095 7.9200701 2.3904241e-20)
(53.097555 7.7389108 2.3892122e-20)
(53.126573 7.5614172 -4.301364e-20)
(53.152237 7.3874509 -1.4348287e-20)
(53.174793 7.217006 -2.3945249e-20)
(53.194549 7.0501492 0)
(53.211744 6.88688 0)
(53.226514 6.7270688 0)
(53.239123 6.5707657 3.866715e-20)
(53.250094 6.4182243 7.2731714e-20)
(53.260227 6.2699256 4.8629683e-21)
(53.27072 6.1267075 -3.8981132e-20)
(53.283056 5.9895262 0)
(53.298962 5.8596945 -3.8830904e-20)
(53.319142 5.7377411 3.8529093e-20)
(53.341516 5.6214582 -4.7674482e-21)
(53.363464 5.5085179 -2.8298933e-20)
(53.383736 5.3980108 3.2667454e-20)
(53.401868 5.2895571 0)
(53.417581 5.182877 3.6594363e-20)
(53.430642 5.0776922 0)
(53.440798 4.973724 0)
(53.447713 4.8706433 0)
(53.450996 4.7680869 4.4270277e-21)
(53.450203 4.6656414 -4.4003159e-21)
(53.444813 4.562872 1.4013678e-19)
(53.434177 4.4592362 6.9834621e-20)
(53.417482 4.3540826 0)
(53.393709 4.2466094 -7.4146397e-20)
(53.36157 4.135833 -6.5693341e-20)
(53.319356 4.0204816 -4.4144878e-21)
(53.264608 3.8988164 7.6129577e-20)
(53.194152 3.7681517 -7.1065793e-20)
(53.106957 3.627028 -2.3690394e-21)
(53.007733 3.4798524 7.867234e-20)
(52.901624 3.330336 -1.6343491e-19)
(52.790464 3.1792097 2.6544835e-21)
(52.676229 3.0274132 8.5502494e-20)
(52.56653 2.8779983 9.1408856e-20)
(52.481662 2.7460743 -1.8537783e-19)
(52.434515 2.6449505 0)
(52.404924 2.5536448 -9.0564922e-20)
(52.377702 2.4644631 0)
(52.351582 2.3774592 0)
(52.326365 2.2923387 -1.712148e-19)
(52.302058 2.2090186 -1.6803005e-19)
(52.278633 2.1273654 2.5762583e-21)
(52.256092 2.0473163 -2.5274683e-21)
(52.234433 1.9687628 -1.5873104e-19)
(52.21364 1.891632 -1.5573186e-19)
(52.193705 1.8158132 0)
(52.174606 1.7412419 -2.997761e-19)
(52.156333 1.6678246 0)
(52.138877 1.595483 -1.4644411e-19)
(52.122208 1.5241268 4.4207713e-21)
(52.106319 1.4536772 -2.1675307e-21)
(52.0912 1.3840604 -2.1271401e-21)
(52.076839 1.3151827 2.0866711e-21)
(52.063226 1.2469779 -1.3097393e-19)
(52.050349 1.1793577 1.6529945e-24)
(52.038188 1.1122531 2.5196271e-19)
(52.026723 1.0455748 2.4707067e-19)
(52.015941 0.97925152 0)
(52.005835 0.91318984 9.303668e-22)
(51.996389 0.84731942 2.3233252e-19)
(51.987599 0.78153913 8.9470701e-22)
(51.97945 0.71578033 2.2342766e-19)