/*--------------------------------*- C++ -*----------------------------------*\
| =========                 |                                                 |
| \\      /  F ield         | OpenFOAM: The Open Source CFD Toolbox           |
|  \\    /   O peration     | Version:  2406                                  |
|   \\  /    A nd           | Website:  www.openfoam.com                      |
|    \\/     M anipulation  |                                                 |
\*---------------------------------------------------------------------------*/
FoamFile
{
    version     2.0;
    format      ascii;
    arch        "LSB;label=32;scalar=64";
    class       volScalarField;
    location    "0.019";
    object      k;
}
// * * * * * * * * * * * * * * * * * * * * * * * * * * * * * * * * * * * * * //

dimensions      [0 2 -2 0 0 0 0];

internalField   nonuniform List<scalar> 
92813
(
655.16441
642.02539
626.8864
610.20716
592.28343
573.33991
553.58892
533.24293
512.50188
491.54492
470.52813
449.58493
428.82702
408.34377
388.20189
368.45311
349.13709
330.28431
311.91786
294.05918
276.72593
259.93321
243.69245
228.01036
212.8901
198.3321
184.33461
170.89407
158.00552
145.66298
133.85973
122.58857
111.84205
101.61267
91.893038
82.675954
73.954842
65.723879
57.976209
50.705617
43.914913
37.603709
31.770718
26.420654
21.561895
17.204305
13.385155
10.149733
7.5499569
5.6156422
4.3045743
3.4756549
2.9544827
2.6055221
2.3481819
2.1424787
1.9690743
1.8185968
1.68604
1.5683005
1.4635145
1.3700712
1.2862767
1.2111631
1.1438074
1.0829546
1.0280427
0.97849102
0.93370682
0.89289716
0.85576613
0.82205815
0.79129838
0.76331643
0.73750214
0.71374825
0.69188676
0.67165695
0.65289795
0.63557158
0.61959753
0.60477844
0.59096239
0.57810791
0.56627686
0.55522251
0.54492338
0.53534499
0.52632322
0.5179106
0.51009467
0.50273737
0.49590757
0.48957103
0.48361942
0.47812926
0.47303894
0.46825469
0.46381706
0.45965511
0.45570013
0.45197611
0.44850388
0.44529144
0.44229404
0.43953563
0.43698487
0.43454324
0.43226203
0.43014838
0.42815589
0.42628995
0.42454932
0.42291025
0.42140364
0.42003343
0.41877089
0.41761744
0.41657328
0.41563105
0.41479162
0.41405297
0.41343375
0.4129146
0.41255392
0.41221818
0.41218578
644.75334
630.15935
613.9551
596.59017
578.27152
559.16863
539.45291
519.29635
498.86244
478.30005
457.74072
437.29767
417.06568
397.12078
377.52098
358.31148
339.52598
321.18883
303.31915
285.93474
269.05142
252.68333
236.84316
221.53967
206.77774
192.55917
178.88336
165.74782
153.14864
141.08084
129.53866
118.51584
108.00582
98.001997
88.497835
79.487005
70.963733
62.923281
55.359669
48.265589
41.645583
35.503162
29.835821
24.65069
19.959413
15.781973
12.156715
9.1341749
6.7655559
5.0630071
3.94728
3.2540415
2.8133493
2.5080165
2.274795
2.0832741
1.9191794
1.7755913
1.6485401
1.5353897
1.4345728
1.3445772
1.2637409
1.1912435
1.1262116
1.0673617
1.0142353
0.96628478
0.92291284
0.88333221
0.84730342
0.81458316
0.78468982
0.75744565
0.73221302
0.70894134
0.68749393
0.66764408
0.64923895
0.63222012
0.61652524
0.60196428
0.58836735
0.57573153
0.56410558
0.55323518
0.54312088
0.53370899
0.52483244
0.51655978
0.50886915
0.50162293
0.49489411
0.48864852
0.482778
0.47736312
0.47233858
0.46761523
0.46323733
0.45912751
0.45522197
0.45154606
0.44811501
0.44493971
0.44197673
0.43924645
0.43672225
0.4343056
0.4320459
0.42994902
0.4279725
0.42612191
0.42439234
0.42276343
0.42126593
0.41990509
0.41865039
0.41750407
0.41646771
0.41553118
0.41469645
0.41396225
0.41334659
0.41283101
0.41247259
0.41213927
0.4121077
631.45921
616.07189
599.33936
581.6566
563.21373
544.15952
524.63966
504.79721
484.76737
464.6742
444.62861
424.72698
405.0504
385.66444
366.62007
347.95659
329.70346
311.88244
294.51108
277.6053
261.17971
245.24778
229.8216
214.9104
200.52006
186.65351
173.31127
160.49196
148.19276
136.40971
125.13811
114.37267
104.10783
94.337934
85.057386
76.260832
67.943411
60.101368
52.728701
45.820453
39.382644
33.419214
27.92944
22.923779
18.417775
14.438353
11.028121
8.2402359
6.1171987
4.6415934
3.697181
3.1087434
2.7233689
2.4459709
2.2276515
2.0451246
1.8872564
1.7484519
1.6252696
1.5153399
1.4172803
1.3296321
1.2507725
1.179994
1.116452
1.0588567
1.0068311
0.95984501
0.91729674
0.87842104
0.84299915
0.81079156
0.78134537
0.75447659
0.72953911
0.70651583
0.68527588
0.6656082
0.64737166
0.63045461
0.61486434
0.60042398
0.58692914
0.57440234
0.56288129
0.55210805
0.54209661
0.53277797
0.52398082
0.5157849
0.50816314
0.50097612
0.49429821
0.48810042
0.48227129
0.47689373
0.47190394
0.4672136
0.46286951
0.45879085
0.45491595
0.45126981
0.44786185
0.44470673
0.44176361
0.43904791
0.43653898
0.43413837
0.43189092
0.42980242
0.42783491
0.42599333
0.4242692
0.42264541
0.42115214
0.4197962
0.41854565
0.41740332
0.41637187
0.41543851
0.4146064
0.41387481
0.4132612
0.4127479
0.41239113
0.41205902
0.41202818
615.39173
599.54424
582.64091
564.97033
546.68391
527.90907
508.77126
489.39256
469.88773
450.36215
430.91046
411.61551
392.54765
373.76446
355.31152
337.22422
319.52948
302.24791
285.39635
268.98976
253.042
237.56597
222.57319
208.07298
194.07194
180.57401
167.58085
155.09225
143.10654
131.62091
120.63177
110.13494
100.12591
90.600065
81.552856
72.979968
64.877573
57.243108
50.069868
43.357172
37.112832
31.338697
26.038133
21.224979
16.918854
13.152343
9.9720951
7.4299036
5.5515344
4.2847769
3.4852809
2.9805453
2.6387715
2.3840496
2.1785584
2.0042373
1.8522977
1.7181808
1.5988581
1.492191
1.3969737
1.3117805
1.2350131
1.1660871
1.1041813
1.047981
0.997204
0.95133254
0.90975096
0.87172271
0.83705932
0.80552073
0.77666289
0.75028278
0.72572961
0.70304106
0.68208152
0.66265075
0.64464544
0.62791042
0.61249296
0.59823869
0.58490389
0.57254246
0.5611765
0.55054259
0.54067327
0.53148365
0.52279856
0.51471129
0.50718625
0.500084
0.49348156
0.48735303
0.48158553
0.47626425
0.47132583
0.46668311
0.46238602
0.45834998
0.45451584
0.45091008
0.44753507
0.44440798
0.44149299
0.43879901
0.43631005
0.43393061
0.43170052
0.42962446
0.42766947
0.42584039
0.42412478
0.42250899
0.42102264
0.41967367
0.4184293
0.41729282
0.41626782
0.41533898
0.41451074
0.41378282
0.41317215
0.41266187
0.41230712
0.41197693
0.41194694
597.09169
581.09106
564.2713
546.84136
528.91316
510.5903
491.97879
473.18286
454.30082
435.42319
416.63172
397.99846
379.58524
361.44349
343.61476
326.13191
309.0206
292.30104
275.98997
260.10199
244.65058
229.64825
215.10619
201.03377
187.43815
174.32417
161.69455
149.55028
137.89088
126.71475
116.01946
105.80202
96.059043
86.787039
77.982553
69.642359
61.76376
54.345481
47.380894
40.872961
34.831269
29.256176
24.155602
19.546603
15.453219
11.9132
8.9760909
6.6878256
5.0502643
3.9753599
3.3008682
2.8658418
2.5602615
2.3248881
2.1308591
1.9642125
1.8180218
1.6885533
1.5730945
1.4697124
1.3773655
1.2946425
1.2199723
1.1529007
1.0926234
1.0377996
0.98825279
0.94346907
0.90281419
0.86560114
0.83165652
0.80073304
0.77241503
0.74647536
0.72226805
0.69989052
0.67919276
0.65997623
0.64219149
0.62562268
0.6103535
0.59626732
0.58308068
0.57087396
0.55965139
0.54914526
0.53940517
0.53033249
0.52174882
0.51375938
0.50632046
0.49929299
0.49275621
0.48668816
0.4809744
0.47570143
0.47080824
0.46620757
0.46195168
0.45795391
0.45415645
0.4505873
0.44724127
0.44413765
0.44124759
0.43857216
0.43609977
0.43373933
0.43152435
0.42945847
0.42751407
0.42569588
0.42398749
0.42237853
0.42089791
0.41955464
0.41831555
0.4171842
0.41616481
0.41523985
0.41441501
0.41369032
0.41308223
0.41257465
0.41222178
0.41189323
0.41186409
576.92498
561.04689
544.52263
527.51009
510.09235
492.35259
474.379
456.25974
438.07891
419.91463
401.83808
383.91265
366.19343
348.72707
331.55211
314.69979
298.19523
282.05874
266.30736
250.95584
236.01762
221.5051
207.42937
193.79994
180.62444
167.90853
155.65595
143.86883
132.54791
121.69282
111.30236
101.37474
91.907788
82.899175
74.346604
66.247984
58.601856
51.408201
44.661349
38.367493
32.53723
27.170933
22.281159
17.888167
14.020923
10.722011
8.041769
6.0142385
4.6103464
3.70862
3.1402506
2.7625196
2.4866888
2.2677591
2.0839635
1.9244629
1.7837899
1.6588612
1.5471986
1.4470606
1.3575611
1.2772847
1.2046898
1.1394603
1.0808028
1.027344
0.97902655
0.93532897
0.8955913
0.85920009
0.8259865
0.79568354
0.76791414
0.74241956
0.71856202
0.69650731
0.67608394
0.65708543
0.63953282
0.62314785
0.60803837
0.59413567
0.58111352
0.56907681
0.55801049
0.54764218
0.53803939
0.52909162
0.52061747
0.51273318
0.50538638
0.49843933
0.49197394
0.48597117
0.48031616
0.475096
0.47025242
0.46569773
0.46148611
0.45752977
0.45377161
0.45024203
0.44692765
0.44384893
0.44098618
0.43833116
0.43587592
0.43353586
0.43133731
0.4292826
0.42734954
0.42554309
0.42384292
0.42224166
0.4207675
0.41943034
0.41819716
0.41707152
0.41605804
0.41513736
0.41431635
0.41359519
0.41298995
0.41248529
0.41213443
0.41180772
0.4117795
555.23263
539.69694
523.64216
507.1881
490.39873
473.34175
456.09037
438.71885
421.29901
403.8985
386.5797
369.39892
352.40583
335.64333
319.14766
302.94897
287.07216
271.53793
256.36385
241.56509
227.15538
213.14727
199.55197
186.37924
173.63722
161.33233
149.4693
138.05136
127.08044
116.55743
106.48236
96.85469
87.673498
78.937682
70.646152
62.798019
55.393191
48.432514
41.912434
35.842342
30.232845
25.085685
20.418238
16.254351
12.628298
9.5867052
7.1769226
5.4131305
4.2300689
3.480089
2.999687
2.6684708
2.4171075
2.212333
2.0378251
1.8850671
1.7497455
1.6292894
1.5213868
1.424481
1.3378303
1.2599961
1.1894717
1.126086
1.0690481
1.0169484
0.96986281
0.92724748
0.88840927
0.8528403
0.8203598
0.79066268
0.76343002
0.73836812
0.71485159
0.6931199
0.67297453
0.65419017
0.63687345
0.62068274
0.60573359
0.59201589
0.5791633
0.56730083
0.55639309
0.54616348
0.5366967
0.52787292
0.51950824
0.51172785
0.5044714
0.49760315
0.49120772
0.48526855
0.47967123
0.47450244
0.46970767
0.46519848
0.46102989
0.45711446
0.45339492
0.44990438
0.446621
0.44356568
0.44072972
0.43809446
0.43565499
0.43333476
0.43115206
0.42910795
0.42718561
0.42539042
0.42369837
0.42210466
0.42063668
0.41930523
0.41807785
0.4169578
0.41594987
0.41503336
0.41421618
0.41349849
0.41289604
0.41239422
0.41204537
0.41172046
0.41169316
532.32624
517.31342
501.8653
486.07874
470.00671
453.7059
437.23759
420.6645
404.04817
387.44744
370.91737
354.50838
338.26572
322.22921
306.43323
290.90713
275.67576
260.76024
246.17874
231.94702
218.07928
204.58843
191.48598
178.7821
166.48546
154.60326
143.14115
132.10346
121.49329
111.31274
101.56313
92.245164
83.359199
74.905405
66.883961
59.295283
52.140857
45.421363
39.137375
33.301576
27.922741
23.005998
18.573684
14.653806
11.285958
8.5189034
6.3908985
4.8872962
3.9058841
3.2846258
2.875583
2.581862
2.3507251
2.158309
1.9923403
1.8459879
1.7158706
1.5998196
1.4956312
1.4019343
1.3181204
1.242709
1.1742378
1.1126863
1.0572572
1.0065015
0.96064472
0.91910224
0.88114039
0.84639413
0.81465354
0.78555064
0.75884565
0.73421079
0.71103325
0.68962792
0.66976768
0.6511988
0.63412282
0.61814101
0.60335949
0.58983367
0.57716047
0.56548004
0.55473677
0.54465016
0.53532173
0.52662464
0.51837295
0.51069848
0.50353389
0.496746
0.49042238
0.48454808
0.47901025
0.47389422
0.46914971
0.46468779
0.46056306
0.45668974
0.45300973
0.44955914
0.44630777
0.4432759
0.4404675
0.43785256
0.43542856
0.4331285
0.43096188
0.42892867
0.42701717
0.42523337
0.42354998
0.42196418
0.4205026
0.41917692
0.41795568
0.4168414
0.41583896
0.41492684
0.41411369
0.41339962
0.41280005
0.41230116
0.4119544
0.41163134
0.41160503
508.50126
494.16639
479.41816
464.37608
449.08393
433.58962
417.9449
402.20315
386.41751
370.6395
354.91806
339.29869
323.8229
308.52788
293.44646
278.60725
264.03503
249.75132
235.77485
222.122
208.80754
195.84485
183.24589
171.02132
159.18045
147.73122
136.68022
126.03282
115.79326
105.96487
96.550198
87.551246
78.969654
70.806897
63.06447
55.744229
48.849585
42.379826
36.341755
30.751456
25.613764
20.940092
16.757464
13.098587
10.007696
7.5319378
5.6918756
4.4364413
3.632232
3.1168088
2.7646773
2.5011533
2.2869077
2.1054656
1.9474511
1.8072259
1.6821899
1.5704853
1.469968
1.3794598
1.2984706
1.2254616
1.1590281
1.0993031
1.0454718
0.99604611
0.95141749
0.91093901
0.87383023
0.83990871
0.80891689
0.78039399
0.75420279
0.72998868
0.70714947
0.68607238
0.66650319
0.64815333
0.63132188
0.61556384
0.60095819
0.58762895
0.57514277
0.5636495
0.55307415
0.54313288
0.53394349
0.52537394
0.5172369
0.50966836
0.50259546
0.49588787
0.48963625
0.48382666
0.47834872
0.4732854
0.46859121
0.46417738
0.46009638
0.4562654
0.452625
0.44921423
0.44599503
0.44298604
0.44020507
0.43761037
0.43520109
0.43292096
0.43077008
0.42874764
0.42684683
0.42507415
0.42339965
0.42182189
0.42036666
0.4190466
0.41783166
0.41672311
0.41572592
0.41481826
0.41400924
0.41329883
0.41270215
0.41220618
0.41186157
0.41154036
0.41151504
484.05151
470.48011
456.50163
442.25726
427.78572
413.12876
398.33092
383.43835
368.4974
353.55364
338.65086
323.83038
309.13049
294.58607
280.22849
266.08562
252.18212
238.5397
225.17761
212.11279
199.36056
186.93485
174.84813
163.11165
151.73536
140.72799
130.09703
119.84888
109.98889
100.52158
91.45074
82.77964
74.511233
66.648324
59.193758
52.150922
45.525079
39.315489
33.534272
28.199665
23.315054
18.898984
14.98267
11.60392
8.8096646
6.639093
5.0848964
4.0567099
3.4022032
2.9714137
2.6641713
2.4251056
2.2251688
2.053645
1.9031214
1.7687867
1.6487245
1.5413095
1.4444184
1.3570756
1.2788914
1.2082579
1.1438427
1.0859319
1.0336818
0.98556821
0.94216434
0.90273787
0.86645847
0.83336271
0.8031277
0.77516968
0.74947615
0.72567825
0.70318021
0.6824336
0.66316084
0.64503746
0.6284544
0.61293475
0.59851591
0.58538892
0.57309786
0.5617965
0.55139237
0.54159897
0.53255006
0.5241094
0.51608906
0.50862689
0.50164623
0.49501954
0.4888407
0.4830964
0.47767946
0.47266942
0.46802596
0.46366164
0.45962485
0.45583672
0.4522364
0.44886552
0.44567913
0.44269298
0.43993942
0.43736523
0.43497028
0.43270998
0.43057468
0.42856313
0.42667311
0.42491147
0.42324626
0.42167679
0.42022802
0.4189136
0.41770521
0.41660243
0.41561033
0.41470733
0.41390256
0.41319594
0.41260219
0.41210918
0.41176679
0.41144746
0.41142316
459.23023
446.46811
433.29938
419.88264
406.253
392.44762
378.50566
364.46762
350.3745
336.26691
322.18436
308.16457
294.24295
280.45229
266.82254
253.38078
240.15136
227.15609
214.41453
201.94408
189.7606
177.87852
166.31087
155.0695
144.16504
133.60699
123.40376
113.56273
104.09034
94.992259
86.273507
77.938628
69.991895
62.437486
55.279661
48.523456
42.175458
36.236737
30.724436
25.656797
21.038935
16.896836
13.265673
10.187958
7.7092551
5.851519
4.570397
3.7410561
3.2083399
2.8437264
2.5717559
2.3527471
2.1651464
2.0027424
1.8593339
1.7306842
1.6155012
1.5123195
1.4190086
1.3348068
1.2593996
1.1911101
1.1286942
1.0725828
1.0218933
0.97507364
0.93288978
0.89450255
0.85903405
0.82676477
0.79729066
0.76988241
0.74466987
0.72128484
0.69913358
0.67872046
0.65974839
0.64186264
0.62553264
0.61026463
0.59604527
0.58312647
0.57103777
0.55993147
0.54970069
0.54005692
0.53114982
0.52283875
0.51493633
0.50758041
0.50069216
0.49414658
0.48804074
0.48236211
0.47700696
0.47205035
0.46745755
0.46314395
0.45915167
0.45540654
0.45184656
0.44851514
0.44536205
0.44239871
0.439672
0.43711847
0.43473743
0.4324966
0.43037649
0.42837583
0.42649672
0.42474592
0.42309027
0.4215293
0.42008702
0.41877824
0.41757661
0.41647954
0.41549235
0.41459415
0.41379372
0.41309099
0.41250018
0.41201013
0.41167007
0.4113526
0.41132934
434.24595
422.31152
409.9694
397.39149
384.60954
371.65695
358.56867
345.3808
332.12998
318.85279
305.58505
292.36137
279.21461
266.17557
253.27281
240.53253
227.97861
215.63279
203.51475
191.64224
180.03155
168.69755
157.65384
146.91284
136.48588
126.38323
116.61416
107.18702
98.10932
89.387856
81.028844
73.038094
65.421217
58.183818
51.331723
44.87186
38.810699
33.153927
27.923971
23.136201
18.800784
14.951074
11.626184
8.8712008
6.7232884
5.1758819
4.1436047
3.4802511
3.0433759
2.7297237
2.4855951
2.2833342
2.1065871
1.9526967
1.8160829
1.6929383
1.5825493
1.483541
1.393764
1.312677
1.2400058
1.1740235
1.1135902
1.0592588
1.0101037
0.96456043
0.92358802
0.88622534
0.85155761
0.82011335
0.79139433
0.76452174
0.73977679
0.71680254
0.69500557
0.67493054
0.65626252
0.63862857
0.62255792
0.60755238
0.59354633
0.58084245
0.56896279
0.55805343
0.54799734
0.53850466
0.52974096
0.52155997
0.51377624
0.50652651
0.49973102
0.49326689
0.4872342
0.48162199
0.47632962
0.47142669
0.46688448
0.4626229
0.45867569
0.45497362
0.45145433
0.44816186
0.44504272
0.44210247
0.43940184
0.43686922
0.43450187
0.43228009
0.43017483
0.42818511
0.42631717
0.42457709
0.42293129
0.42137907
0.4199434
0.4186403
0.41744564
0.41635425
0.41537183
0.41447862
0.41368259
0.41298389
0.41239607
0.411909
0.41157135
0.41125574
0.41123353
409.26294
398.15781
386.64405
374.90285
362.96294
350.8546
338.60936
326.25981
313.83907
301.38034
288.91635
276.47897
264.09874
251.80461
239.62373
227.58131
215.70066
204.00322
192.50868
181.23496
170.19866
159.41506
148.89821
138.66113
128.71578
119.0732
109.74349
100.73596
92.059137
83.720928
75.728725
68.08959
60.810477
53.898473
47.361176
41.207955
35.44308
30.080495
25.147613
20.653969
16.619166
13.082788
10.087148
7.6752015
5.8653324
4.6123514
3.7950999
3.2641893
2.9007806
2.6261374
2.4042837
2.2163065
2.0493368
1.9034857
1.7733666
1.6555724
1.5498991
1.454998
1.3687103
1.2907117
1.2207181
1.1570002
1.0985392
1.0459635
0.99831139
0.95403057
0.91425598
0.87790157
0.8440365
0.81341279
0.78542828
0.75908022
0.73479772
0.71223336
0.69079871
0.67106827
0.65270759
0.63534161
0.61953867
0.60480374
0.59102522
0.57854373
0.56687881
0.55616691
0.54628596
0.53694548
0.52832671
0.52027582
0.51261093
0.50546721
0.49876468
0.49238227
0.4864226
0.48087763
0.47564896
0.4707999
0.4663081
0.46209961
0.45819805
0.45453884
0.45106052
0.44780622
0.44472165
0.44180497
0.43912921
0.43661777
0.43426398
0.4320606
0.42996987
0.42799108
0.4261346
0.42440512
0.42276937
0.42122616
0.41979723
0.41849986
0.41731234
0.41622657
0.41524881
0.41436075
0.41356916
0.41287462
0.41228984
0.41180573
0.4114706
0.41115685
0.41113568
384.42112
374.13371
363.43809
352.52098
341.40845
330.12805
318.70851
307.17951
295.57129
283.91421
272.23835
260.57315
248.94705
237.38721
225.91936
214.56769
203.35476
192.30159
181.4277
170.75105
160.28844
150.05542
140.06648
130.33515
120.87402
111.69483
102.80852
94.225287
85.954681
78.005682
70.386843
63.106469
56.172859
49.594614
43.381273
37.54466
32.088591
27.034567
22.41217
18.22946
14.516622
11.317077
8.6740278
6.6200687
5.14247
4.1538092
3.5124074
3.0831174
2.7750522
2.5304351
2.3267914
2.151232
1.9933481
1.8551195
1.7311701
1.6186101
1.517579
1.4267089
1.3438734
1.2689388
1.201542
1.1400369
1.0835468
1.0326991
0.98651155
0.9434863
0.90488922
0.86952438
0.83647629
0.80666432
0.77937637
0.75354648
0.72973363
0.70757927
0.68651423
0.66713603
0.64908716
0.63200603
0.61648104
0.60202252
0.58848526
0.57623402
0.56478837
0.55427334
0.54456725
0.53537998
0.5269074
0.51898628
0.51143998
0.50440208
0.49779267
0.49149231
0.48560547
0.48012871
0.47496464
0.47016984
0.46572842
0.46157379
0.45771852
0.45410184
0.45066478
0.44744782
0.44439842
0.44150606
0.43885368
0.43636371
0.43402354
0.43183776
0.4297613
0.42779345
0.42594877
0.42422984
0.42260431
0.42107039
0.41964841
0.41835688
0.41717656
0.41609639
0.41512325
0.4142405
0.41345334
0.4127631
0.41218144
0.4117003
0.41136777
0.41105588
0.41103575
359.84081
350.34953
340.45236
330.33835
320.03122
309.55614
298.93948
288.2085
277.39096
266.51482
255.60781
244.69719
233.80942
222.96998
212.20317
201.53204
190.97837
180.56259
170.30391
160.22023
150.3284
140.64418
131.1824
121.95705
112.98129
104.26755
95.827541
87.672356
79.812519
72.258079
65.018744
58.104067
51.523713
45.287885
39.408259
33.898586
28.764672
24.035326
19.739105
15.887533
12.520579
9.6828796
7.4127648
5.7205842
4.5526086
3.7868656
3.2820609
2.9285445
2.6617811
2.4407572
2.2523939
2.0877438
1.9386943
1.807618
1.6894452
1.5820769
1.4856157
1.3986821
1.3192802
1.2473894
1.1824829
1.1231291
1.0686153
1.0194663
0.9746965
0.93293179
0.89548493
0.86108782
0.82888052
0.79986693
0.77322379
0.74791229
0.72458877
0.70284569
0.68215649
0.66313778
0.64540773
0.6286283
0.61339251
0.59921498
0.58593166
0.57391815
0.56269482
0.55237541
0.54284324
0.53381016
0.52548445
0.51769243
0.51026418
0.50333188
0.49681552
0.4905976
0.4847834
0.47937577
0.47427703
0.46953726
0.46514644
0.46104585
0.45723749
0.45366286
0.45026729
0.44708685
0.44407301
0.44120587
0.43857525
0.43610695
0.43378063
0.43161146
0.4295491
0.4275922
0.42575964
0.42405125
0.42243605
0.42091171
0.41949695
0.41821136
0.41703826
0.41596368
0.41499518
0.41411785
0.4133351
0.41264927
0.41207084
0.41159267
0.41126282
0.4109528
0.41093368
335.62519
326.90107
317.77529
308.4368
298.90729
289.2099
279.36898
269.40969
259.35766
249.23867
239.07833
228.90188
218.73393
208.59826
198.5178
188.51441
178.60895
168.82123
159.17001
149.673
140.34703
131.20797
122.27093
113.55027
105.0597
96.812275
88.820463
81.096215
73.651022
66.496001
59.642021
53.099905
46.880746
40.996535
35.461435
30.289275
25.492184
21.106404
17.154922
13.658219
10.663097
8.2112995
6.3257523
4.9817136
4.083863
3.4944445
3.0914961
2.7937548
2.5575381
2.3558534
2.1805441
2.0255185
1.8855367
1.7609349
1.6481223
1.5460241
1.4540404
1.3709155
1.2949626
1.226089
1.163536
1.1062807
1.0537496
1.0062596
0.96285195
0.92237296
0.88604191
0.85258551
0.82124703
0.79301419
0.76696123
0.74217585
0.71936699
0.69803789
0.67773121
0.65907715
0.6416759
0.62521498
0.61027941
0.5963876
0.58336951
0.5715996
0.56060005
0.55047476
0.54111503
0.5322372
0.52405814
0.51639432
0.50908356
0.50225656
0.49583298
0.48969799
0.48395646
0.4786187
0.47358578
0.46890245
0.46456282
0.46051572
0.45675477
0.45322175
0.44986788
0.44672323
0.44374505
0.44090415
0.43829374
0.43584718
0.43353508
0.43138142
0.4293331
0.42738719
0.42556701
0.42386924
0.42226444
0.42074998
0.4193428
0.41806329
0.41689729
0.41582837
0.41486459
0.41399275
0.4132144
0.41253307
0.41195802
0.41148283
0.41115569
0.41084756
0.41082945
311.86185
303.87044
295.48346
286.88799
278.10404
269.15303
260.05754
250.84086
241.52666
232.13871
222.70065
213.23577
203.76688
194.31616
184.90509
175.55437
166.28389
157.11273
148.05914
139.14056
130.37373
121.77452
113.35825
105.13964
97.132852
89.35155
81.808929
74.517786
67.490575
60.739493
54.276602
48.114032
42.264376
36.741706
31.563393
26.74025
22.298012
18.277057
14.691451
11.576714
8.9798583
6.9318694
5.4260699
4.39562
3.716873
3.2589682
2.9303452
2.6738044
2.4596933
2.2748202
2.1107794
1.9643758
1.8339164
1.7149594
1.607268
1.5105669
1.4229012
1.3434109
1.2709642
1.2050256
1.1446639
1.0895117
1.0389704
0.99306235
0.95095635
0.91182038
0.87656066
0.84400946
0.8135694
0.78609508
0.76059043
0.73634728
0.71407003
0.69315918
0.67324547
0.65495911
0.63789846
0.62177347
0.60714797
0.59354781
0.58080487
0.56928155
0.55850579
0.54857318
0.53938394
0.53066238
0.52262878
0.51509205
0.50789838
0.50117629
0.494845
0.48879358
0.48312507
0.47785756
0.4728906
0.46826594
0.46397849
0.4599835
0.45627028
0.45277856
0.44946649
0.44635713
0.44341424
0.44060059
0.43800912
0.43558415
0.4332868
0.4311475
0.42911323
0.42717837
0.42537076
0.42368372
0.42208937
0.42058512
0.41918596
0.4179127
0.41675358
0.41569041
0.41473149
0.41386519
0.4130912
0.41241444
0.41184293
0.41137074
0.41104632
0.41074012
0.41072299
288.62287
281.32638
273.64203
265.75395
257.68078
249.4425
241.06011
232.55516
223.94945
215.26482
206.52298
197.74537
188.95304
180.1666
171.40611
162.69109
154.04044
145.47248
137.0049
128.65481
120.43876
112.37261
104.47182
96.751397
89.225946
81.909692
74.816537
67.96012
61.353878
55.01113
48.945198
43.169594
37.698507
32.548345
27.739271
23.28281
19.217165
15.580289
12.387053
9.6832174
7.5069701
5.8659885
4.7118704
3.9424984
3.4291942
3.0652245
2.7906542
2.5644904
2.3677003
2.1956479
2.0426289
1.9055059
1.7819093
1.6695645
1.5678557
1.4758503
1.3922535
1.3162101
1.2472942
1.1841304
1.1258249
1.072842
1.0243115
0.97985444
0.93899424
0.90129142
0.86703889
0.83534952
0.805844
0.77909611
0.7541225
0.73044896
0.70869667
0.68820798
0.66870589
0.65079109
0.63408173
0.61831133
0.60400397
0.59070287
0.5782439
0.56696617
0.55641324
0.54667197
0.53765074
0.52908635
0.52119617
0.51378522
0.50670851
0.50009084
0.49385124
0.48788418
0.48228948
0.47709218
0.47219105
0.46762799
0.46339405
0.45944905
0.45578364
0.45233326
0.44906294
0.44598863
0.44308013
0.44029458
0.43772136
0.43531754
0.43303557
0.43090954
0.42888934
0.42696566
0.42517071
0.42349458
0.42191072
0.42041703
0.4190264
0.41775955
0.416607
0.41554976
0.4145959
0.41373509
0.41296551
0.41229331
0.41172553
0.41125639
0.41093468
0.41063045
0.41061427
265.96802
259.32676
252.30677
245.08867
237.69009
230.12974
222.4271
214.60202
206.67443
198.6643
190.59145
182.4755
174.33582
166.19149
158.06122
149.96333
141.91577
133.93607
126.04135
118.24833
110.57335
103.03222
95.640488
88.413421
81.366022
74.513064
67.869149
61.44877
55.266389
49.336532
43.673907
38.29358
33.211614
28.447211
24.021088
19.951891
16.288635
13.059185
10.287679
8.0201619
6.2739941
5.0186511
4.1645785
3.5954632
3.1995028
2.9039324
2.6651169
2.4588208
2.2792429
2.1199337
1.9769458
1.8480211
1.7313564
1.6253021
1.5290278
1.4416685
1.3621681
1.2897216
1.2235818
1.1628947
1.1072691
1.0563404
1.0097289
0.96665262
0.92699796
0.89079866
0.85746062
0.82660225
0.79807976
0.77200453
0.74756871
0.72450846
0.70324637
0.68317875
0.66411897
0.64658401
0.6302324
0.61483695
0.60085307
0.5878592
0.5756927
0.56465497
0.5543236
0.5447722
0.53591584
0.52750922
0.51975995
0.51247325
0.50551361
0.4989999
0.49285136
0.48696964
0.48144992
0.47632251
0.47148693
0.46698874
0.46280978
0.45891227
0.4552945
0.45188588
0.4486571
0.44561779
0.44274231
0.43998548
0.43743043
0.43504705
0.43278114
0.43066745
0.42866132
0.42674899
0.42496672
0.4233017
0.42172838
0.42024559
0.4188641
0.41760384
0.41645746
0.41540637
0.41445781
0.41360242
0.4128373
0.41216965
0.41160578
0.41113974
0.4108207
0.41051849
0.41050325
243.94772
237.9212
231.52624
224.94011
218.17959
211.26213
204.20563
197.02813
189.74774
182.38252
174.9505
167.46956
159.95748
152.43187
144.91014
137.40952
129.94699
122.53932
115.20305
107.95452
100.80982
93.784681
86.894726
80.155458
73.582264
67.190459
60.995353
55.012329
49.25695
43.745081
38.493009
33.517632
28.837369
24.475231
20.447822
16.791928
13.559746
10.764104
8.4426181
6.6250745
5.2936365
4.3730815
3.7534594
3.3266377
3.0126085
2.7610562
2.5461874
2.3600814
2.1950218
2.0468856
1.9131109
1.7919662
1.6820125
1.5819587
1.4909244
1.408062
1.3324762
1.263414
1.2002374
1.1422135
1.0888415
1.0398638
0.9948453
0.95328547
0.91522606
0.88031649
0.84780065
0.81779649
0.79029303
0.76480928
0.74093326
0.71854382
0.69772297
0.67806925
0.65949455
0.64234985
0.62635828
0.61136085
0.59770026
0.58502075
0.57315671
0.56234877
0.55223755
0.54287451
0.53417898
0.52593045
0.51831945
0.51115527
0.50431308
0.49790287
0.49184491
0.48604965
0.48060636
0.47554847
0.47077841
0.46634794
0.46222529
0.45837304
0.45480251
0.45143636
0.44824868
0.44524454
0.44240042
0.43967259
0.4371362
0.43477233
0.43252314
0.4304212
0.42842901
0.42652824
0.42475864
0.42310493
0.42154223
0.42007072
0.41869902
0.41744552
0.4163049
0.41526024
0.41431721
0.4134671
0.4127066
0.41204344
0.4114836
0.41102077
0.41070434
0.41040421
0.41038987
222.60461
217.15259
211.34405
205.35247
199.19405
192.8848
186.44086
179.87845
173.21383
166.4633
159.64316
152.76971
145.85922
138.92795
131.99211
125.06785
118.17128
111.31843
104.52527
97.807771
91.181788
84.662945
78.266952
72.009541
65.906488
59.973666
54.227128
48.683218
43.358714
38.271009
33.438269
28.879626
24.616366
20.674838
17.07174
13.859883
11.083188
8.7507361
6.8969761
5.5182733
4.5527806
3.8939744
3.4442777
3.1141941
2.8497114
2.6280361
2.4364543
2.2667083
2.1141711
1.9762267
1.8510854
1.7373754
1.6338959
1.5395726
1.4535502
1.3750323
1.3032335
1.2374652
1.1771105
1.1215914
1.0704891
1.0234645
0.98016763
0.94020498
0.90338051
0.8694355
0.83801169
0.80911803
0.78247502
0.75751168
0.73422877
0.71254966
0.6921313
0.672893
0.6548494
0.63809603
0.62246845
0.60789664
0.59455003
0.5821876
0.57064012
0.56004844
0.55015464
0.54097926
0.53243936
0.52434911
0.51687366
0.50983021
0.50310612
0.49679897
0.49083132
0.48512381
0.47975859
0.47477011
0.47006613
0.46570496
0.46163957
0.45783138
0.45430745
0.45098453
0.44783729
0.44486861
0.44205423
0.43935539
0.4368384
0.43449297
0.43226117
0.43017081
0.42819227
0.4263033
0.42454634
0.42290414
0.4213522
0.41989236
0.41853112
0.4172845
0.41614927
0.41511136
0.41417405
0.41332908
0.41257341
0.41191466
0.41135894
0.41089943
0.41058554
0.41028755
0.4102741
201.98259
197.06435
191.80504
186.37099
180.77866
175.04258
169.17709
163.19659
157.11565
150.94888
144.711
138.41681
132.08122
125.71922
119.34589
112.97641
106.62606
100.31019
94.044249
87.843827
81.724582
75.702063
69.792074
64.010602
58.373847
52.898292
47.600809
42.498808
37.610454
32.954937
28.552746
24.425982
20.599705
17.100681
13.952207
11.218533
8.9221787
7.0725638
5.6776657
4.6900092
4.012163
3.5440867
3.2030962
2.9298212
2.702995
2.507172
2.3336783
2.1776608
2.0363126
1.9078336
1.7908599
1.6842539
1.5869937
1.4981511
1.416927
1.3425848
1.2744261
1.2118294
1.1542486
1.1011871
1.0522491
1.0071176
0.96546589
0.92698533
0.89149598
0.85874094
0.82839644
0.80033216
0.77433912
0.75010682
0.72758142
0.70649796
0.68647551
0.66768583
0.65020014
0.63382347
0.61857324
0.60445715
0.59140852
0.57935725
0.5681437
0.55775546
0.54807313
0.53908619
0.5306958
0.52276437
0.51542108
0.50849674
0.50189183
0.49568733
0.48980984
0.48419151
0.47890613
0.47398747
0.46935097
0.46505883
0.46105114
0.45728742
0.4538093
0.45052994
0.44742234
0.44448945
0.44170364
0.43903358
0.43653656
0.43420852
0.43199478
0.42991628
0.42795093
0.42607406
0.42432968
0.4226992
0.42115824
0.41971042
0.41836033
0.41712067
0.41599059
0.41495976
0.41402828
0.41318829
0.41243773
0.41178332
0.41123174
0.41077568
0.41046429
0.41016848
0.41015589
182.12271
177.69665
172.94982
168.03744
162.97534
157.777
152.45533
147.02316
141.49342