/*--------------------------------*- C++ -*----------------------------------*\
| =========                 |                                                 |
| \\      /  F ield         | OpenFOAM: The Open Source CFD Toolbox           |
|  \\    /   O peration     | Version:  2406                                  |
|   \\  /    A nd           | Website:  www.openfoam.com                      |
|    \\/     M anipulation  |                                                 |
\*---------------------------------------------------------------------------*/
FoamFile
{
    version     2.0;
    format      ascii;
    arch        "LSB;label=32;scalar=64";
    class       volScalarField;
    location    "0.019";
    object      rho;
}
// * * * * * * * * * * * * * * * * * * * * * * * * * * * * * * * * * * * * * //

dimensions      [1 -3 0 0 0 0 0];

internalField   nonuniform List<scalar> 
92813
(
1.1993966
1.1986898
1.1983859
1.198038
1.1976878
1.1973858
1.1971309
1.1969198
1.1967503
1.196619
1.1965209
1.1964495
1.1963977
1.1963615
1.196338
1.1963306
1.1963437
1.1963813
1.1964436
1.1965301
1.1966361
1.1967587
1.1968951
1.1970439
1.1972035
1.1973722
1.1975491
1.197733
1.197923
1.1981182
1.1983176
1.1985204
1.1987257
1.1989326
1.1991398
1.1993461
1.199552
1.1997501
1.1999395
1.200121
1.2003093
1.200498
1.2006594
1.2008039
1.200931
1.2010364
1.2011161
1.2011669
1.2011884
1.2011858
1.2011716
1.2011597
1.2011592
1.2011722
1.2011955
1.2012249
1.2012572
1.2012904
1.2013234
1.2013558
1.2013875
1.2014184
1.2014486
1.2014779
1.2015066
1.2015345
1.2015617
1.2015884
1.2016146
1.2016402
1.2016654
1.2016901
1.2017144
1.2017383
1.2017617
1.2017847
1.2018071
1.2018289
1.2018501
1.2018707
1.2018907
1.2019103
1.2019293
1.2019479
1.2019661
1.201984
1.2020016
1.2020189
1.2020359
1.2020526
1.2020689
1.2020847
1.2021001
1.2021151
1.2021296
1.2021438
1.2021576
1.202171
1.2021842
1.202197
1.2022095
1.2022216
1.2022333
1.2022447
1.2022556
1.2022661
1.2022764
1.2022863
1.2022959
1.2023051
1.202314
1.2023225
1.2023305
1.202338
1.2023453
1.2023522
1.2023587
1.2023648
1.2023704
1.2023754
1.2023799
1.2023837
1.202387
1.2023896
1.2023922
1.2023935
1.2023951
1.2008461
1.2003889
1.1999708
1.1995069
1.1990837
1.1987268
1.1984274
1.1981768
1.1979699
1.1978015
1.1976663
1.1975581
1.1974699
1.1973959
1.197334
1.197286
1.1972543
1.1972415
1.1972529
1.1972887
1.1973466
1.1974248
1.1975228
1.1976371
1.1977644
1.1979026
1.19805
1.1982054
1.1983674
1.1985352
1.1987077
1.198884
1.1990632
1.1992442
1.1994263
1.1996079
1.1997889
1.1999662
1.2001356
1.2002888
1.2004595
1.2006316
1.2007746
1.2009028
1.2010148
1.2011062
1.2011731
1.2012125
1.2012252
1.2012183
1.2012047
1.2011968
1.201201
1.2012172
1.2012417
1.2012709
1.2013021
1.2013337
1.201365
1.2013957
1.2014258
1.2014551
1.2014837
1.2015116
1.2015388
1.2015654
1.2015913
1.2016168
1.2016418
1.2016663
1.2016904
1.2017141
1.2017375
1.2017604
1.2017829
1.201805
1.2018266
1.2018476
1.2018681
1.201888
1.2019073
1.2019262
1.2019446
1.2019627
1.2019803
1.2019977
1.2020148
1.2020316
1.2020481
1.2020643
1.2020802
1.2020956
1.2021106
1.2021253
1.2021394
1.2021532
1.2021667
1.2021798
1.2021927
1.2022052
1.2022174
1.2022293
1.2022408
1.2022519
1.2022626
1.2022729
1.2022829
1.2022926
1.2023021
1.2023112
1.2023199
1.2023281
1.202336
1.2023435
1.2023506
1.2023573
1.2023638
1.2023698
1.2023753
1.2023802
1.2023846
1.2023883
1.2023917
1.2023942
1.2023967
1.202398
1.2023997
1.2015012
1.2011616
1.2007072
1.2002026
1.1997547
1.1993757
1.199053
1.1987783
1.1985463
1.1983522
1.1981908
1.1980571
1.1979462
1.1978538
1.197778
1.1977176
1.197673
1.1976465
1.1976416
1.1976592
1.1976991
1.1977617
1.1978444
1.1979439
1.1980574
1.1981827
1.1983182
1.1984623
1.1986139
1.1987718
1.1989349
1.1991022
1.1992725
1.199445
1.1996185
1.1997917
1.1999639
1.2001346
1.2002927
1.2004332
1.2005998
1.2007612
1.2008929
1.2010102
1.2011107
1.2011899
1.2012441
1.2012714
1.2012742
1.2012621
1.201248
1.2012424
1.2012492
1.2012668
1.2012913
1.2013194
1.201349
1.2013789
1.2014083
1.2014372
1.2014655
1.2014932
1.2015202
1.2015466
1.2015724
1.2015975
1.2016221
1.2016463
1.2016701
1.2016935
1.2017164
1.2017391
1.2017614
1.2017835
1.201805
1.2018262
1.201847
1.2018671
1.2018868
1.201906
1.2019246
1.2019429
1.2019606
1.201978
1.2019951
1.2020119
1.2020284
1.2020447
1.2020608
1.2020765
1.2020919
1.2021069
1.2021215
1.2021357
1.2021495
1.202163
1.2021761
1.2021889
1.2022014
1.2022137
1.2022256
1.2022372
1.2022484
1.2022593
1.2022697
1.2022799
1.2022897
1.2022992
1.2023084
1.2023173
1.2023259
1.202334
1.2023417
1.202349
1.202356
1.2023626
1.2023689
1.2023748
1.2023803
1.2023851
1.2023895
1.2023931
1.2023964
1.2023989
1.2024014
1.2024027
1.2024043
1.2020103
1.2017227
1.2012815
1.2007736
1.2003138
1.1999175
1.1995739
1.1992758
1.1990192
1.1988001
1.1986143
1.1984577
1.1983264
1.1982172
1.1981281
1.1980576
1.1980055
1.1979728
1.197961
1.1979705
1.1980011
1.1980525
1.198123
1.1982101
1.1983117
1.1984259
1.1985511
1.1986857
1.1988285
1.1989782
1.1991338
1.199294
1.1994577
1.1996239
1.1997913
1.1999586
1.2001252
1.2002918
1.2004372
1.2005727
1.2007388
1.2008892
1.2010114
1.2011193
1.201209
1.2012762
1.2013176
1.2013326
1.2013261
1.2013093
1.2012951
1.2012915
1.2013
1.2013182
1.2013422
1.201369
1.2013969
1.2014248
1.2014524
1.2014794
1.201506
1.2015319
1.2015573
1.2015821
1.2016064
1.2016301
1.2016535
1.2016764
1.2016989
1.2017211
1.2017429
1.2017645
1.2017858
1.2018068
1.2018275
1.2018477
1.2018676
1.2018869
1.2019058
1.2019242
1.2019422
1.2019597
1.2019769
1.2019936
1.2020101
1.2020263
1.2020423
1.2020581
1.2020736
1.2020889
1.2021038
1.2021184
1.2021326
1.2021464
1.2021598
1.2021729
1.2021857
1.2021981
1.2022104
1.2022223
1.202234
1.2022453
1.2022562
1.2022668
1.202277
1.2022869
1.2022965
1.2023058
1.2023149
1.2023236
1.2023319
1.2023399
1.2023475
1.2023546
1.2023615
1.202368
1.2023742
1.20238
1.2023854
1.2023901
1.2023944
1.202398
1.2024012
1.2024036
1.2024061
1.2024074
1.202409
1.2024654
1.202207
1.2017866
1.2012883
1.2008287
1.2004263
1.2000721
1.1997603
1.1994879
1.1992516
1.1990482
1.1988745
1.1987272
1.1986037
1.198502
1.1984209
1.1983599
1.1983191
1.1982988
1.1982992
1.1983198
1.1983601
1.1984187
1.1984938
1.1985836
1.1986866
1.198801
1.1989255
1.1990587
1.1991994
1.1993464
1.1994984
1.1996544
1.199813
1.1999731
1.2001332
1.2002928
1.2004524
1.2005855
1.2007188
1.2008797
1.2010178
1.2011303
1.201228
1.2013061
1.2013606
1.2013889
1.2013921
1.2013776
1.2013579
1.2013444
1.2013429
1.2013529
1.2013713
1.2013944
1.2014196
1.2014456
1.2014716
1.2014972
1.2015224
1.2015471
1.2015714
1.2015951
1.2016183
1.2016411
1.2016634
1.2016853
1.2017069
1.2017282
1.2017492
1.2017699
1.2017904
1.2018106
1.2018307
1.2018503
1.2018697
1.2018887
1.2019071
1.2019252
1.2019428
1.2019601
1.2019769
1.2019934
1.2020095
1.2020254
1.202041
1.2020565
1.2020717
1.2020867
1.2021015
1.202116
1.2021301
1.2021438
1.2021573
1.2021703
1.202183
1.2021954
1.2022075
1.2022195
1.2022311
1.2022424
1.2022535
1.2022641
1.2022745
1.2022845
1.2022941
1.2023035
1.2023126
1.2023214
1.20233
1.2023382
1.202346
1.2023534
1.2023604
1.2023671
1.2023735
1.2023796
1.2023853
1.2023905
1.2023952
1.2023994
1.2024029
1.2024061
1.2024085
1.2024109
1.2024122
1.2024138
1.2028585
1.2026103
1.2022057
1.2017261
1.2012775
1.2008787
1.2005229
1.2002058
1.199925
1.1996784
1.1994635
1.1992777
1.1991186
1.198984
1.1988721
1.1987818
1.1987123
1.1986633
1.1986347
1.1986262
1.1986375
1.1986676
1.1987156
1.19878
1.1988592
1.1989518
1.1990562
1.199171
1.199295
1.1994269
1.1995653
1.1997092
1.1998572
1.2000081
1.2001605
1.200313
1.2004652
1.2006159
1.200738
1.2008691
1.2010218
1.201147
1.2012494
1.2013358
1.2014013
1.2014423
1.2014573
1.2014496
1.201429
1.201408
1.2013962
1.2013968
1.2014078
1.2014259
1.2014477
1.2014712
1.2014952
1.2015192
1.2015428
1.201566
1.201589
1.2016115
1.2016335
1.2016552
1.2016765
1.2016972
1.2017178
1.201738
1.2017581
1.2017778
1.2017973
1.2018167
1.2018359
1.2018549
1.2018736
1.201892
1.2019101
1.2019277
1.2019449
1.2019618
1.2019783
1.2019945
1.2020102
1.2020257
1.202041
1.202056
1.2020709
1.2020856
1.2021001
1.2021143
1.2021283
1.202142
1.2021553
1.2021683
1.2021809
1.2021933
1.2022054
1.2022171
1.2022287
1.2022401
1.2022511
1.2022618
1.2022722
1.2022823
1.202292
1.2023014
1.2023106
1.2023195
1.2023281
1.2023365
1.2023445
1.2023521
1.2023594
1.2023662
1.2023728
1.2023791
1.2023851
1.2023907
1.2023958
1.2024004
1.2024045
1.2024079
1.2024111
1.2024134
1.2024158
1.2024171
1.2024187
1.2032024
1.2029452
1.2025496
1.2020945
1.2016647
1.2012765
1.2009256
1.2006092
1.2003259
1.2000743
1.1998526
1.1996591
1.1994917
1.1993489
1.1992292
1.1991313
1.1990546
1.1989984
1.1989624
1.1989461
1.198949
1.1989703
1.199009
1.1990639
1.1991336
1.1992167
1.1993118
1.1994177
1.199533
1.1996565
1.1997867
1.1999226
1.2000629
1.2002061
1.2003509
1.2004958
1.2006407
1.2007808
1.2008926
1.2010217
1.2011644
1.2012766
1.2013681
1.2014422
1.2014943
1.2015213
1.2015232
1.2015061
1.2014812
1.2014603
1.2014507
1.2014531
1.2014646
1.201482
1.2015023
1.2015238
1.2015458
1.2015677
1.2015892
1.2016105
1.2016316
1.2016523
1.2016726
1.2016926
1.2017124
1.2017317
1.2017508
1.2017697
1.2017884
1.201807
1.2018253
1.2018435
1.2018616
1.2018796
1.2018973
1.2019147
1.2019319
1.2019486
1.2019651
1.2019811
1.2019968
1.2020123
1.2020274
1.2020422
1.2020569
1.2020713
1.2020856
1.2020997
1.2021136
1.2021274
1.2021409
1.2021541
1.202167
1.2021796
1.2021918
1.2022037
1.2022155
1.2022269
1.2022382
1.2022492
1.2022599
1.2022703
1.2022804
1.2022903
1.2022997
1.2023089
1.2023179
1.2023265
1.2023349
1.2023431
1.2023509
1.2023584
1.2023655
1.2023722
1.2023786
1.2023848
1.2023906
1.2023961
1.2024012
1.2024057
1.2024097
1.2024131
1.2024161
1.2024185
1.2024208
1.2024221
1.2024237
1.2035015
1.2032276
1.2028391
1.20241
1.2020023
1.2016289
1.2012873
1.2009761
1.2006948
1.2004425
1.2002182
1.2000206
1.1998483
1.1996999
1.1995744
1.1994707
1.1993881
1.1993259
1.1992835
1.1992604
1.199256
1.1992695
1.1993
1.1993464
1.1994075
1.199482
1.1995686
1.1996661
1.1997731
1.1998885
1.2000108
1.2001389
1.2002714
1.200407
1.2005441
1.2006816
1.2008195
1.200946
1.2010481
1.2011769
1.2013074
1.201406
1.2014857
1.2015467
1.2015845
1.2015971
1.2015869
1.201562
1.2015349
1.2015153
1.2015079
1.2015118
1.2015231
1.2015394
1.201558
1.2015774
1.2015972
1.201617
1.2016365
1.2016557
1.2016749
1.2016939
1.2017124
1.2017308
1.201749
1.2017667
1.2017844
1.201802
1.2018194
1.2018366
1.2018538
1.2018708
1.2018878
1.2019048
1.2019214
1.2019379
1.2019541
1.2019699
1.2019855
1.2020008
1.2020157
1.2020305
1.2020448
1.202059
1.202073
1.2020868
1.2021005
1.2021141
1.2021275
1.2021407
1.2021538
1.2021664
1.2021789
1.2021911
1.2022028
1.2022144
1.2022258
1.2022368
1.2022478
1.2022584
1.2022688
1.202279
1.2022888
1.2022984
1.2023076
1.2023165
1.2023252
1.2023337
1.2023419
1.2023498
1.2023575
1.2023648
1.2023717
1.2023783
1.2023846
1.2023906
1.2023963
1.2024017
1.2024067
1.2024111
1.202415
1.2024183
1.2024213
1.2024236
1.2024259
1.2024272
1.2024287
1.2037603
1.2034691
1.203088
1.2026844
1.2022996
1.201943
1.2016135
1.2013108
1.2010349
1.2007854
1.2005618
1.2003633
1.2001887
1.2000374
1.1999082
1.1998004
1.1997133
1.1996462
1.1995985
1.1995696
1.199559
1.1995657
1.199589
1.1996279
1.1996812
1.1997479
1.1998266
1.1999162
1.2000154
1.200123
1.2002377
1.2003581
1.200483
1.2006108
1.20074
1.2008701
1.2010009
1.2011094
1.2012061
1.2013349
1.2014499
1.2015346
1.2016015
1.2016483
1.2016712
1.2016697
1.2016486
1.2016183
1.2015907
1.2015732
1.2015678
1.2015725
1.2015833
1.2015981
1.2016147
1.201632
1.2016495
1.2016671
1.2016844
1.2017017
1.201719
1.2017362
1.2017529
1.2017696
1.2017862
1.2018024
1.2018186
1.2018348
1.2018508
1.2018668
1.2018827
1.2018986
1.2019145
1.2019304
1.2019459
1.2019614
1.2019767
1.2019916
1.2020064
1.2020208
1.2020349
1.2020489
1.2020626
1.2020761
1.2020895
1.2021026
1.2021157
1.2021288
1.2021416
1.2021543
1.2021668
1.202179
1.202191
1.2022027
1.2022141
1.2022253
1.2022363
1.202247
1.2022575
1.2022679
1.202278
1.2022878
1.2022974
1.2023066
1.2023156
1.2023243
1.2023327
1.202341
1.202349
1.2023567
1.2023641
1.2023713
1.202378
1.2023844
1.2023906
1.2023965
1.2024021
1.2024074
1.2024122
1.2024165
1.2024204
1.2024236
1.2024266
1.2024288
1.2024311
1.2024323
1.2024339
1.2039781
1.2036778
1.2033071
1.2029272
1.2025642
1.2022248
1.2019091
1.2016171
1.2013491
1.201105
1.2008848
1.2006879
1.2005136
1.2003613
1.2002304
1.2001202
1.20003
1.1999593
1.1999074
1.1998738
1.1998579
1.1998588
1.1998759
1.1999082
1.1999546
1.2000141
1.2000856
1.2001678
1.2002597
1.2003598
1.200467
1.2005799
1.2006971
1.2008171
1.2009384
1.2010605
1.2011816
1.2012746
1.2013699
1.2014921
1.2015905
1.2016615
1.2017147
1.2017464
1.2017541
1.2017393
1.2017093
1.2016757
1.2016492
1.201634
1.2016303
1.2016353
1.2016448
1.2016579
1.2016724
1.2016874
1.2017026
1.201718
1.2017332
1.2017484
1.2017638
1.2017791
1.201794
1.201809
1.2018241
1.2018386
1.2018534
1.2018682
1.2018828
1.2018975
1.2019122
1.2019268
1.2019417
1.2019565
1.2019709
1.2019854
1.2019997
1.2020137
1.2020276
1.2020412
1.2020545
1.2020678
1.2020807
1.2020935
1.2021062
1.2021187
1.2021312
1.2021437
1.2021559
1.2021681
1.2021801
1.2021918
1.2022033
1.2022146
1.2022256
1.2022364
1.202247
1.2022573
1.2022675
1.2022775
1.2022873
1.2022968
1.2023061
1.202315
1.2023237
1.2023322
1.2023404
1.2023484
1.2023562
1.2023637
1.2023709
1.2023779
1.2023845
1.2023907
1.2023968
1.2024025
1.202408
1.2024132
1.2024179
1.2024221
1.2024259
1.2024291
1.2024319
1.2024342
1.2024364
1.2024376
1.2024392
1.2041558
1.2038546
1.2035026
1.2031449
1.2028017
1.2024795
1.2021783
1.2018984
1.2016401
1.2014036
1.2011888
1.2009957
1.2008237
1.2006725
1.2005415
1.2004304
1.2003385
1.2002654
1.2002105
1.2001732
1.200153
1.2001491
1.2001608
1.2001873
1.2002275
1.2002806
1.2003454
1.2004208
1.2005057
1.2005987
1.2006986
1.2008041
1.2009137
1.2010258
1.201139
1.2012528
1.2013621
1.2014419
1.201536
1.2016474
1.2017289
1.201786
1.2018243
1.2018403
1.2018328
1.2018062
1.2017698
1.2017351
1.2017107
1.2016977
1.2016951
1.2016998
1.2017076
1.2017187
1.2017311
1.2017436
1.2017566
1.2017697
1.2017827
1.2017957
1.2018093
1.2018228
1.2018358
1.2018491
1.2018626
1.2018754
1.2018887
1.2019021
1.2019153
1.2019287
1.2019422
1.2019556
1.2019693
1.201983
1.2019963
1.2020098
1.2020232
1.2020361
1.2020491
1.2020619
1.2020744
1.2020869
1.2020991
1.2021112
1.2021233
1.2021351
1.202147
1.2021589
1.2021705
1.2021822
1.2021937
1.2022049
1.2022159
1.2022268
1.2022373
1.2022476
1.2022579
1.2022678
1.2022777
1.2022873
1.2022967
1.2023059
1.2023149
1.2023236
1.202332
1.2023402
1.2023482
1.2023559
1.2023635
1.2023708
1.2023779
1.2023846
1.202391
1.2023971
1.202403
1.2024086
1.202414
1.202419
1.2024237
1.2024278
1.2024315
1.2024346
1.2024374
1.2024396
1.2024418
1.202443
1.2024445
1.204298
1.2040045
1.2036734
1.2033379
1.2030148
1.2027102
1.2024245
1.2021579
1.2019107
1.2016833
1.2014758
1.2012881
1.2011201
1.2009716
1.2008422
1.2007315
1.2006392
1.2005649
1.200508
1.200468
1.2004444
1.2004365
1.2004437
1.2004652
1.2005001
1.2005473
1.200606
1.2006751
1.2007533
1.2008394
1.2009322
1.2010303
1.2011323
1.2012364
1.2013416
1.2014474
1.2015415
1.2016094
1.2017031
1.2018004
1.2018646
1.201907
1.2019295
1.2019293
1.2019076
1.2018713
1.2018311
1.2017972
1.2017754
1.2017643
1.201762
1.2017659
1.2017715
1.2017805
1.2017907
1.2018007
1.2018113
1.2018222
1.2018329
1.2018438
1.2018555
1.2018671
1.2018783
1.2018898
1.2019016
1.2019128
1.2019246
1.2019367
1.2019484
1.2019604
1.2019727
1.2019848
1.2019973
1.2020099
1.2020221
1.2020346
1.202047
1.202059
1.2020711
1.202083
1.2020946
1.2021064
1.2021178
1.2021292
1.2021406
1.2021518
1.2021631
1.2021743
1.2021854
1.2021965
1.2022075
1.2022181
1.2022287
1.2022391
1.2022492
1.2022591
1.2022689
1.2022785
1.202288
1.2022973
1.2023064
1.2023153
1.2023239
1.2023323
1.2023405
1.2023484
1.2023561
1.2023636
1.202371
1.2023781
1.2023849
1.2023915
1.2023977
1.2024037
1.2024094
1.2024149
1.2024201
1.202425
1.2024296
1.2024336
1.2024372
1.2024402
1.202443
1.2024451
1.2024473
1.2024484
1.20245
1.2044121
1.2041311
1.2038219
1.2035093
1.2032067
1.2029204
1.202651
1.2023986
1.2021636
1.2019466
1.2017476
1.2015668
1.2014042
1.2012597
1.2011332
1.2010242
1.2009327
1.2008582
1.2008003
1.2007586
1.2007325
1.2007215
1.2007249
1.2007421
1.2007722
1.2008142
1.2008673
1.2009304
1.2010023
1.2010818
1.2011676
1.2012584
1.2013525
1.2014485
1.2015456
1.2016432
1.201717
1.201778
1.2018714
1.2019502
1.2019968
1.2020234
1.2020292
1.2020131
1.201979
1.2019359
1.2018944
1.2018624
1.2018434
1.2018333
1.2018307
1.2018334
1.2018364
1.2018431
1.2018511
1.2018586
1.2018667
1.2018754
1.2018838
1.2018926
1.2019024
1.2019121
1.2019213
1.2019311
1.2019413
1.2019508
1.2019611
1.2019717
1.2019819
1.2019927
1.2020037
1.2020145
1.2020258
1.2020373
1.2020484
1.2020598
1.2020712
1.2020822
1.2020934
1.2021045
1.2021152
1.2021262
1.2021369
1.2021475
1.2021583
1.2021688
1.2021794
1.2021901
1.2022005
1.202211
1.2022215
1.2022316
1.2022417
1.2022516
1.2022613
1.2022708
1.2022802
1.2022894
1.2022985
1.2023075
1.2023162
1.2023247
1.2023331
1.2023412
1.2023491
1.2023567
1.2023642
1.2023715
1.2023786
1.2023855
1.2023921
1.2023985
1.2024045
1.2024103
1.2024159
1.2024212
1.2024263
1.2024311
1.2024356
1.2024395
1.202443
1.202446
1.2024486
1.2024507
1.2024528
1.202454
1.2024555
1.2045048
1.20424
1.203953
1.203663
1.2033812
1.2031136
1.2028609
1.2026233
1.2024015
1.2021957
1.2020063
1.2018336
1.2016775
1.2015382
1.2014156
1.2013094
1.2012197
1.2011459
1.201088
1.2010453
1.2010175
1.2010042
1.2010046
1.2010181
1.2010439
1.2010813
1.2011292
1.2011866
1.2012525
1.2013255
1.2014044
1.2014878
1.201574
1.2016615
1.2017495
1.201836
1.2018927
1.2019516
1.2020362
1.2020946
1.2021241
1.2021341
1.2021229
1.2020921
1.2020482
1.2020012
1.2019604
1.201931
1.2019145
1.2019045
1.201901
1.2019021
1.2019019
1.2019065
1.2019124
1.2019172
1.2019229
1.2019293
1.2019353
1.2019419
1.2019499
1.2019577
1.201965
1.201973
1.2019816
1.2019893
1.2019981
1.2020073
1.202016
1.2020254
1.2020352
1.2020447
1.2020548
1.2020651
1.202075
1.2020854
1.2020958
1.2021058
1.2021161
1.2021263
1.2021362
1.2021464
1.2021562
1.2021662
1.2021762
1.202186
1.202196
1.2022061
1.2022159
1.2022259
1.2022358
1.2022454
1.202255
1.2022644
1.2022736
1.2022827
1.2022917
1.2023005
1.2023092
1.2023178
1.2023262
1.2023344
1.2023424
1.2023502
1.2023578
1.2023652
1.2023724
1.2023794
1.2023863
1.202393
1.2023994
1.2024056
1.2024115
1.2024171
1.2024225
1.2024277
1.2024327
1.2024374
1.2024417
1.2024455
1.2024489
1.2024518
1.2024544
1.2024565
1.2024585
1.2024597
1.2024612
1.2045841
1.2043366
1.2040711
1.2038032
1.203542
1.2032931
1.2030573
1.2028351
1.2026268
1.202433
1.202254
1.2020901
1.2019415
1.2018083
1.2016905
1.201588
1.2015009
1.2014288
1.2013715
1.2013287
1.2012999
1.2012848
1.2012828
1.2012932
1.2013154
1.2013485
1.2013916
1.2014437
1.2015037
1.2015704
1.2016424
1.2017182
1.2017963
1.201875
1.2019534
1.2020262
1.2020688
1.202125
1.2021952
1.202233
1.2022454
1.202238
1.2022103
1.2021669
1.2021165
1.2020687
1.2020297
1.2020026
1.2019882
1.2019774
1.2019726
1.2019719
1.2019679
1.2019707
1.2019746
1.2019766
1.2019798
1.201984
1.2019874
1.2019918
1.2019981
1.202004
1.2020092
1.2020155
1.2020225
1.2020283
1.2020357
1.2020434
1.2020505
1.2020586
1.2020672
1.2020753
1.2020842
1.2020934
1.2021021
1.2021114
1.2021208
1.2021298
1.2021391
1.2021485
1.2021575
1.2021669
1.202176
1.2021851
1.2021945
1.2022036
1.2022129
1.2022223
1.2022316
1.2022409
1.2022503
1.2022594
1.2022684
1.2022774
1.2022861
1.2022948
1.2023034
1.2023117
1.2023201
1.2023283
1.2023363
1.2023442
1.2023519
1.2023594
1.2023667
1.2023738
1.2023808
1.2023876
1.2023942
1.2024006
1.2024069
1.2024128
1.2024186
1.202424
1.2024293
1.2024343
1.2024391
1.2024437
1.2024479
1.2024516
1.2024549
1.2024577
1.2024603
1.2024623
1.2024643
1.2024655
1.2024669
1.2046543
1.2044246
1.20418
1.2039335
1.2036925
1.2034622
1.2032435
1.2030367
1.2028424
1.2026609
1.2024928
1.2023383
1.2021978
1.2020713
1.2019591
1.2018611
1.2017772
1.2017075
1.2016515
1.2016092
1.2015801
1.2015638
1.2015599
1.2015677
1.2015866
1.2016158
1.2016544
1.2017014
1.2017556
1.2018159
1.201881
1.2019491
1.2020188
1.2020885
1.202157
1.2022124
1.2022426
1.2022963
1.2023477
1.2023647
1.2023594
1.2023345
1.2022918
1.2022391
1.202186
1.2021393
1.202102
1.2020768
1.2020641
1.2020518
1.2020458
1.202042
1.2020351
1.202036
1.2020373
1.2020365
1.2020373
1.2020393
1.20204
1.2020423
1.202047
1.2020509
1.202054
1.2020585
1.202064
1.2020678
1.2020738
1.2020801
1.2020856
1.2020924
1.2020996
1.2021064
1.2021141
1.2021221
1.2021296
1.2021379
1.2021462
1.2021541
1.2021626
1.202171
1.2021792
1.2021877
1.202196
1.2022044
1.2022131
1.2022214
1.2022301
1.2022389
1.2022475
1.2022563
1.2022651
1.2022736
1.2022822
1.2022907
1.2022989
1.2023071
1.2023153
1.2023232
1.2023312
1.202339
1.2023467
1.2023542
1.2023616
1.2023688
1.2023758
1.2023826
1.2023893
1.2023958
1.2024022
1.2024084
1.2024144
1.2024202
1.2024258
1.202431
1.2024361
1.202441
1.2024457
1.2024501
1.2024542
1.2024578
1.2024611
1.2024638
1.2024663
1.2024682
1.2024702
1.2024713
1.2024728
1.204719
1.2045072
1.2042828
1.2040571
1.203836
1.2036241
1.2034223
1.2032309
1.2030506
1.2028817
1.2027247
1.2025801
1.202448
1.2023288
1.2022226
1.2021296
1.2020496
1.2019827
1.2019287
1.2018874
1.2018584
1.2018414
1.2018361
1.2018417
1.2018576
1.2018832
1.2019174
1.2019594
1.2020079
1.2020619
1.2021197
1.2021798
1.2022406
1.2023013
1.2023592
1.2023906
1.2024149
1.2024645
1.2024919
1.2024882
1.2024649
1.2024236
1.2023688
1.2023106
1.2022576
1.2022123
1.202177
1.2021545
1.2021412
1.2021289
1.2021198
1.2021119
1.2021051
1.202102
1.2020994
1.2020968
1.2020954
1.2020949
1.2020932
1.2020938
1.2020965
1.2020983
1.2020993
1.2021021
1.202106
1.2021078
1.2021124
1.2021173
1.2021211
1.2021266
1.2021326
1.2021379
1.2021444
1.2021513
1.2021575
1.2021647
1.202172
1.2021789
1.2021864
1.2021939
1.2022012
1.2022089
1.2022164
1.202224
1.2022319
1.2022396
1.2022476
1.2022557
1.2022637
1.2022719
1.2022801
1.2022881
1.2022961
1.2023041
1.2023119
1.2023197
1.2023274
1.2023349
1.2023425
1.2023499
1.2023572
1.2023644
1.2023715
1.2023783
1.202385
1.2023916
1.202398
1.2024043
1.2024104
1.2024164
1.2024222
1.2024277
1.2024331
1.2024382
1.2024431
1.2024479
1.2024524
1.2024567
1.2024607
1.2024642
1.2024673
1.20247
1.2024724
1.2024743
1.2024763
1.2024773
1.2024788
1.2047796
1.2045861
1.2043819
1.2041769
1.2039755
1.2037817
1.2035965
1.2034205
1.203254
1.2030977
1.2029519
1.2028172
1.2026939
1.2025822
1.2024824
1.2023947
1.202319
1.2022554
1.2022037
1.2021637
1.2021353
1.202118
1.2021115
1.2021152
1.2021284
1.2021505
1.2021805
1.2022174
1.2022602
1.2023075
1.2023578
1.2024094
1.2024608
1.202511
1.202554
1.2025664
1.2025878
1.2026225
1.2026254
1.2026024
1.2025618
1.2025064
1.202443
1.202383
1.2023313
1.2022865
1.2022577
1.2022378
1.2022203
1.2022055
1.2021935
1.2021833
1.2021744
1.2021679
1.2021625
1.2021576
1.2021537
1.2021506
1.2021477
1.2021466
1.2021458
1.202146
1.2021453
1.2021464
1.2021483
1.2021482
1.2021516
1.2021551
1.202157
1.2021613
1.202166
1.2021698
1.2021751
1.2021808
1.2021858
1.2021919
1.2021983
1.202204
1.2022105
1.2022172
1.2022235
1.2022304
1.2022371
1.202244
1.2022511
1.202258
1.2022654
1.2022729
1.2022802
1.2022878
1.2022954
1.2023028
1.2023103
1.2023179
1.2023251
1.2023324
1.2023397
1.2023468
1.202354
1.202361
1.2023679
1.2023748
1.2023815
1.202388
1.2023944
1.2024007
1.2024068
1.2024128
1.2024187
1.2024245
1.20243
1.2024354
1.2024405
1.2024455
1.2024502
1.2024548
1.2024593
1.2024634
1.2024672
1.2024707
1.2024737
1.2024763
1.2024786
1.2024805
1.2024824
1.2024835
1.2024849
1.204843
1.2046662
1.2044816
1.2042969
1.2041145
1.2039383
1.2037693
1.2036081
1.2034551
1.203311
1.2031763
1.2030515
1.2029369
1.2028329
1.2027397
1.2026574
1.2025863
1.2025262
1.2024771
1.2024388
1.2024112
1.2023938
1.2023864
1.2023883
1.2023989
1.2024176
1.2024433
1.2024751
1.2025118
1.2025521
1.2025944
1.202637
1.2026785
1.2027173
1.2027407
1.202738
1.2027554
1.2027686
1.2027478
1.2027064
1.2026505
1.2025848
1.2025162
1.2024568
1.2024069
1.2023695
1.2023437
1.2023195
1.2022995
1.2022826
1.202268
1.2022551
1.2022439
1.2022344
1.2022263
1.202219
1.2022127
1.2022073
1.2022025
1.2021989
1.2021961
1.2021941
1.2021921
1.2021915
1.2021906
1.2021893
1.2021914
1.2021931
1.2021934
1.2021965
1.2021999
1.2022021
1.2022063
1.2022109
1.2022145
1.2022196
1.2022249
1.2022295
1.2022351
1.2022408
1.2022463
1.2022523
1.2022581
1.2022642
1.2022706
1.2022768
1.2022834
1.2022903
1.2022969
1.2023039
1.202311
1.2023178
1.2023248
1.2023318
1.2023386
1.2023454
1.2023522
1.2023589
1.2023657
1.2023723
1.2023788
1.2023853
1.2023917
1.2023979
1.202404
1.20241
1.2024158
1.2024216
1.2024272
1.2024327
1.202438
1.2024432
1.2024481
1.2024529
1.2024575
1.2024619
1.2024662
1.2024702
1.2024739
1.2024772
1.2024802
1.2024827
1.2024849
1.2024868
1.2024886
1.2024897
1.2024911
1.2049138
1.2047507
1.2045849
1.2044201
1.2042564
1.2040971
1.2039435
1.2037963
1.2036563
1.2035239
1.2033999
1.2032847
1.2031786
1.2030822
1.2029955
1.2029188
1.2028523
1.2027959
1.2027495
1.2027131
1.2026864
1.2026691
1.2026608
1.202661
1.202669
1.2026841
1.2027053
1.2027317
1.2027619
1.2027947
1.2028283
1.2028611
1.2028922
1.2029185
1.2029152
1.2029043
1.202915
1.202901
1.2028581
1.2028002
1.2027328
1.2026599
1.2025895
1.2025335
1.2024918
1.2024579
1.2024275
1.2024016
1.2023795
1.2023601
1.2023428
1.2023273
1.2023135
1.2023013
1.2022905
1.2022808
1.2022721
1.2022644
1.2022576
1.2022518
1.202247
1.2022429
1.2022391
1.2022363
1.2022337
1.2022318
1.2022316
1.2022311
1.2022304
1.2022323
1.202234
1.2022348
1.2022379
1.2022413
1.2022436
1.2022476
1.2022519
1.2022554
1.20226
1.2022649
1.2022694
1.2022744
1.2022795
1.2022848
1.2022905
1.2022958
1.2023018
1.202308
1.2023139
1.2023203
1.2023268
1.2023331
1.2023394
1.202346
1.2023523
1.2023586
1.202365
1.2023712
1.2023775
1.2023838
1.2023899
1.2023961
1.2024021
1.202408
1.2024138
1.2024194
1.2024249
1.2024304
1.2024358
1.2024411
1.2024462
1.2024511
1.2024559
1.2024604
1.2024649
1.2024692
1.2024733
1.2024772
1.2024808
1.2024839
1.2024868
1.2024892
1.2024914
1.2024932
1.202495
1.202496
1.2024974
1.2049911
1.2048497
1.2046982
1.2045516
1.2044052
1.2042615
1.204122
1.2039878
1.2038597
1.2037383
1.2036243
1.2035182
1.2034204
1.2033313
1.203251
1.2031798
1.2031178
1.2030651
1.2030215
1.2029869
1.2029611
1.2029439
1.2029347
1.202933
1.2029382
1.2029495
1.2029659
1.2029863
1.2030094
1.2030339
1.2030578
1.2030797
1.2030985
1.2031079
1.2030832
1.2030661
1.2030585
1.2030183
1.2029563
1.2028852
1.2028097
1.202732
1.2026701
1.202622
1.2025801
1.2025435
1.202512
1.2024844
1.20246
1.202438
1.202418
1.2023998
1.2023833
1.2023685
1.2023551
1.2023429
1.2023319
1.202322
1.202313
1.2023052
1.2022982
1.2022921
1.2022865
1.2022818
1.2022776
1.2022741
1.2022718
1.2022699
1.2022683
1.2022684
1.2022683
1.202268
1.20227
1.202272
1.2022731
1.202276
1.2022793
1.2022816
1.2022852
1.2022892
1.2022928
1.202297
1.2023012
1.2023057
1.2023106
1.2023152
1.2023204
1.2023259
1.2023312
1.202337
1.2023429
1.2023486
1.2023544
1.2023604
1.2023662
1.202372
1.202378
1.2023837
1.2023896
1.2023955
1.2024012
1.202407
1.2024127
1.2024182
1.2024237
1.202429
1.2024343
1.2024395
1.2024446
1.2024496
1.2024545
1.2024592
1.2024638
1.2024681
1.2024724
1.2024765
1.2024805
1.2024842
1.2024877
1.2024908
1.2024935
1.2024958
1.202498
1.2024997
1.2025015
1.2025025
1.2025039
1.2050749
1.2049834
1.2048448
1.2047055
1.2045689
1.2044364
1.2043082
1.204185
1.2040673
1.2039558
1.203851
1.2037534
1.2036634
1.2035812
1.203507
1.2034412
1.2033836
1.2033344
1.2032934
1.2032606
1.2032356
1.2032182
1.2032078
1.203204
1.2032061
1.2032131
1.203224
1.2032378
1.203253
1.203268
1.2032812
1.2032911
1.203296
1.2032841
1.2032415
1.203216
1.2031844
1.2031208
1.2030429
1.202963
1.2028836
1.2028142
1.2027602
1.2027104
1.2026676
1.2026303
1.2025974
1.2025677
1.2025407
1.2025159
1.2024932
1.2024724
1.2024533
1.2024359
1.20242
1.2024054
1.2023921
1.20238
1.2023689
1.2023589
1.2023499
1.2023417
1.2023343
1.2023277
1.2023218
1.2023167
1.2023127
1.2023092
1.2023063
1.2023046
1.2023032
1.2023021
1.2023025
1.2023029
1.202303
1.2023049
1.202307
1.2023082
1.2023108
1.2023139
1.2023167
1.2023198
1.2023232
1.2023269
1.202331
1.2023348
1.2023394
1.2023442
1.2023488
1.2023539
1.2023592
1.2023643
1.2023696
1.2023751
1.2023803
1.2023857
1.2023911
1.2023964
1.2024019
1.2024074
1.2024127
1.2024181
1.2024234
1.2024286
1.2024338
1.2024388
1.2024438
1.2024487
1.2024535
1.2024583
1.2024629
1.2024675
1.2024718
1.202476
1.20248
1.202484
1.2024878
1.2024914
1.2024948
1.2024977
1.2025004
1.2025026
1.2025047
1.2025063
1.2025081
1.2025091
1.2025104
1.2051775
1.2051238
1.2050197
1.2048791
1.2047457
1.2046211
1.2045021
1.2043882
1.2042798
1.2041772
1.2040809
1.2039912
1.2039084
1.2038327
1.2037643
1.2037034
1.20365
1.203604
1.2035655
1.2035341
1.2035096
1.2034917
1.2034798
1.2034734
1.2034717
1.2034737
1.2034784
1.2034845
1.2034905
1.2034948
1.2034956
1.203492
1.2034816
1.2034419
1.2033885
1.2033516
1.2032911
1.2032087
1.2031204
1.2030391
1.2029681
1.202905
1.2028487
1.2027996
1.2027565
1.2027181
1.2026831
1.2026509
1.2026213
1.2025939
1.2025685
1.202545
1.2025234
1.2025034
1.2024851
1.2024682
1.2024526
1.2024382
1.202425
1.2024129
1.2024018
1.2023917
1.2023824
1.202374
1.2023664
1.2023597
1.202354
1.2023489
1.2023447
1.2023413
1.2023385
1.2023363
1.2023351
1.2023342
1.2023336
1.2023342
1.2023348
1.2023353
1.2023367
1.2023389
1.2023409
1.202343
1.2023454
1.2023485
1.2023518
1.2023548
1.2023586
1.2023627
1.2023666
1.2023711
1.2023758
1.2023803
1.202385
1.20239
1.2023947
1.2023996
1.2024045
1.2024094
1.2024144
1.2024195
1.2024244
1.2024294
1.2024344
1.2024392
1.202444
1.2024488
1.2024534
1.202458
1.2024626
1.2024671
1.2024715
1.2024758
1.20248
1.2024839
1.2024878
1.2024917
1.2024953
1.2024988
1.202502
1.2025048
1.2025073
1.2025095
1.2025115
1.2025131
1.2025148
1.2025158
1.2025171
1.2053043
1.2052741
1.2051716
1.2050413
1.2049222
1.2048095
1.2047009
1.2045965
1.204497
1.2044029
1.2043145
1.2042321
1.204156
1.2040864
1.2040233
1.2039669
1.2039172
1.2038741
1.2038375
1.2038072
1.2037827
1.2037638