/*--------------------------------*- C++ -*----------------------------------*\
| =========                 |                                                 |
| \\      /  F ield         | OpenFOAM: The Open Source CFD Toolbox           |
|  \\    /   O peration     | Version:  2406                                  |
|   \\  /    A nd           | Website:  www.openfoam.com                      |
|    \\/     M anipulation  |                                                 |
\*---------------------------------------------------------------------------*/
FoamFile
{
    version     2.0;
    format      ascii;
    arch        "LSB;label=32;scalar=64";
    class       volScalarField;
    location    "0.03";
    object      rho;
}
// * * * * * * * * * * * * * * * * * * * * * * * * * * * * * * * * * * * * * //

dimensions      [1 -3 0 0 0 0 0];

internalField   nonuniform List<scalar> 
35803
(
1.2024826
1.2015402
1.2009884
1.2002749
1.199538
1.1988951
1.198391
1.1980487
1.1978762
1.1978417
1.1979518
1.1982848
1.1987758
1.1994553
1.2002119
1.2011527
1.2020788
1.202952
1.2030928
1.2031508
1.2033339
1.2035085
1.2036882
1.2037291
1.2038508
1.203769
1.2038674
1.2038336
1.204005
1.2036826
1.2027303
1.2042332
1.2034233
1.202605
1.2016916
1.2008207
1.2000615
1.1994473
1.1990028
1.1987492
1.1986098
1.1986161
1.1988527
1.1992644
1.1998646
1.2005525
1.2014106
1.202239
1.2030424
1.2031361
1.2031984
1.2033747
1.2035418
1.2037306
1.2037588
1.2038824
1.2037878
1.2038882
1.2038494
1.2040107
1.2036875
1.2027375
1.2052031
1.2045225
1.2036596
1.2026874
1.2017647
1.2009473
1.2002677
1.1997634
1.1994241
1.1992091
1.1991138
1.1992734
1.1996208
1.2001612
1.2008134
1.2016351
1.2024149
1.203144
1.2031981
1.2032584
1.2034245
1.2035826
1.2037784
1.2037947
1.2039128
1.2038092
1.2039082
1.2038646
1.2040171
1.2036939
1.2027471
1.206017
1.2053945
1.2045552
1.2035748
1.2026243
1.2017649
1.2010262
1.2004426
1.2000164
1.1997335
1.1995871
1.1996787
1.1999659
1.2004503
1.2010738
1.2018674
1.2026103
1.203251
1.2032749
1.2033278
1.2034818
1.2036297
1.203825
1.2038335
1.2039429
1.2038341
1.2039235
1.2038791
1.2040238
1.2037017
1.2027589
1.2067563
1.2061821
1.2053884
1.2044295
1.203475
1.2025927
1.2018111
1.2011612
1.2006608
1.2003122
1.2001181
1.2001423
1.200367
1.2007915
1.2013815
1.2021355
1.202831
1.2033621
1.2033657
1.2034082
1.2035476
1.2036842
1.2038691
1.2038743
1.2039766
1.2038635
1.203936
1.2038926
1.2040309
1.2037112
1.2027735
1.2073681
1.2068465
1.2061132
1.2052024
1.2042739
1.2033965
1.2025986
1.2019096
1.2013551
1.2009496
1.2007048
1.200664
1.2008257
1.2011885
1.2017419
1.2024443
1.2030795
1.2034809
1.2034715
1.2035014
1.2036232
1.203747
1.2039144
1.2039161
1.2040113
1.2038965
1.2039503
1.2039048
1.2040391
1.2037225
1.2027925
1.2078233
1.2073474
1.2066852
1.205849
1.2049785
1.204138
1.2033545
1.2026562
1.2020722
1.2016256
1.201336
1.2012371
1.2013384
1.2016406
1.2021575
1.2027947
1.2033547
1.2036132
1.2035932
1.2036098
1.20371
1.2038191
1.2039648
1.2039632
1.2040457
1.2039321
1.2039679
1.2039158
1.2040491
1.2037358
1.2028182
1.208125
1.2076555
1.2070612
1.2063345
1.2055616
1.2047934
1.2040571
1.2033806
1.2027948
1.202328
1.2020062
1.2018599
1.2019067
1.2021524
1.2026328
1.2031874
1.2036547
1.2037706
1.2037321
1.2037355
1.2038097
1.2039016
1.2040232
1.2040169
1.2040825
1.2039684
1.2039885
1.2039278
1.2040611
1.2037513
1.2028533
1.2082651
1.2078379
1.2073191
1.2067021
1.2060379
1.2053624
1.2046987
1.204072
1.2035117
1.2030482
1.2027113
1.2025317
1.2025328
1.2027284
1.2031682
1.2036309
1.2039709
1.2039622
1.2038911
1.2038802
1.2039244
1.2039955
1.2040905
1.2040793
1.2041239
1.2040058
1.2040084
1.2039435
1.2040756
1.2037694
1.202901
1.2083451
1.2079471
1.2075036
1.2069887
1.2064328
1.2058593
1.2052847
1.204729
1.204218
1.2037807
1.2034479
1.2032512
1.2032187
1.2033731
1.2037692
1.2041252
1.2042917
1.2041829
1.2040754
1.2040453
1.2040562
1.204102
1.2041676
1.2041493
1.2041702
1.2040471
1.2040295
1.2039631
1.2040914
1.2037922
1.2029645
1.2083667
1.2080173
1.207635
1.2072083
1.2067633
1.2063039
1.2058323
1.2053635
1.2049196
1.2045275
1.2042167
1.2040194
1.203967
1.2040917
1.2044374
1.2046563
1.2046203
1.2044242
1.2042904
1.2042317
1.2042072
1.2042227
1.2042562
1.2042278
1.2042217
1.2040956
1.2040544
1.2039861
1.2041057
1.203823
1.2030463
1.2082555
1.20815
1.2078953
1.2075342
1.2071605
1.2067867
1.2064024
1.206015
1.2056412
1.2053029
1.2050262
1.204842
1.2047848
1.2048904
1.2051597
1.2051959
1.2049504
1.2046936
1.2045374
1.2044395
1.204379
1.2043594
1.2043575
1.2043147
1.2042804
1.2041525
1.2040875
1.2040164
1.2041178
1.20386
1.2031159
1.2083778
1.2083238
1.2081974
1.2079857
1.2076991
1.2073777
1.20705
1.2067256
1.206414
1.2061304
1.2058963
1.205739
1.2056908
1.2057699
1.2058848
1.2056793
1.2052816
1.2049998
1.2048089
1.2046677
1.2045716
1.2045127
1.2044733
1.2044103
1.2043456
1.2042173
1.2041358
1.2040551
1.2041336
1.2038989
1.2031936
1.2087482
1.2086961
1.208532
1.2083183
1.2081187
1.2079113
1.2076926
1.2074666
1.2072413
1.2070326
1.2068618
1.2067468
1.2066957
1.2066581
1.2064783
1.2060495
1.2056369
1.2053368
1.2050969
1.204914
1.2047819
1.2046838
1.2046041
1.2045146
1.2044169
1.2042881
1.2041965
1.2041004
1.2041559
1.2039363
1.2032775
1.209259
1.2092836
1.2092246
1.2090465
1.2088126
1.2086196
1.2084778
1.2083431
1.2081927
1.2080338
1.2078815
1.207735
1.2075663
1.2072848
1.206844
1.2063906
1.2060095
1.2056786
1.2054
1.2051764
1.2050088
1.2048703
1.204748
1.2046288
1.2044967
1.2043631
1.2042737
1.2041553
1.2041824
1.2039725
1.2033712
1.2101172
1.2102044
1.2102634
1.2102701
1.2101741
1.209958
1.2096983
1.2094431
1.2091851
1.2089234
1.2086513
1.2083419
1.2079833
1.2075697
1.2071425
1.2067484
1.2063637
1.2060101
1.2057043
1.2054513
1.2052499
1.2050698
1.2049022
1.2047541
1.2045894
1.2044424
1.2043599
1.2042194
1.2042151
1.2040107
1.2034734
1.2100965
1.2100587
1.2099702
1.2098493
1.2097715
1.2097563
1.2097531
1.2097385
1.2096187
1.2093541
1.2090243
1.2086777
1.2082863
1.207862
1.2074554
1.2070676
1.2066803
1.2063147
1.2060012
1.2057328
1.2055025
1.2052781
1.2050667
1.20489
1.2046971
1.2045288
1.2044459
1.2042906
1.2042583
1.2040567
1.2035856
1.2101673
1.2101097
1.2100324
1.2099326
1.2098173
1.209673
1.2094881
1.2092673
1.2090876
1.2089753
1.208862
1.2087458
1.2085246
1.2081346
1.2077054
1.20732
1.2069555
1.2065965
1.206282
1.2060095
1.2057571
1.2054954
1.2052403
1.2050333
1.2048181
1.2046246
1.2045266
1.2043704
1.2043181
1.2041154
1.2037294
1.2098067
1.2097665
1.2097157
1.2096562
1.209588
1.2095096
1.2094181
1.2093093
1.2091851
1.2090462
1.2088669
1.208599
1.208365
1.2082179
1.2079058
1.2075246
1.2071857
1.2068539
1.2065458
1.2062701
1.2060065
1.2057139
1.2054202
1.205182
1.2049471
1.204733
1.2046092
1.2044675
1.2044038
1.2041851
1.2039436
1.2094733
1.209437
1.2093918
1.2093387
1.2092766
1.2092039
1.209119
1.2090217
1.208911
1.2087847
1.2086438
1.2085062
1.2083265
1.2081346
1.2079883
1.2077082
1.2074016
1.2070994
1.2067952
1.2065116
1.2062296
1.2059166
1.2056049
1.2053345
1.2050778
1.2048522
1.2047216
1.2045939
1.2045242
1.2042459
1.2041598
1.2091158
1.2090909
1.2090603
1.2090249
1.2089844
1.208938
1.2088845
1.2088223
1.208749
1.2086611
1.2085552
1.20842
1.208265
1.2080791
1.2078958
1.2077977
1.2076158
1.2073414
1.2070311
1.2067272
1.2064211
1.2060937
1.205781
1.2054916
1.2052124
1.2049776
1.204859
1.2047283
1.2046658
1.2043313
1.2043262
1.208901
1.2088806
1.2088552
1.2088254
1.2087906
1.2087495
1.2087011
1.2086443
1.2085783
1.2085027
1.2084184
1.2083273
1.208224
1.2081023
1.2079637
1.2077812
1.2076025
1.2074812
1.2072229
1.2068964
1.2065767
1.2062411
1.2059369
1.2056508
1.2053647
1.2051147
1.2049825
1.2048349
1.2047958
1.2045146
1.2045132
1.2086557
1.2086404
1.2086217
1.2086002
1.2085758
1.2085479
1.2085159
1.2084791
1.2084363
1.2083855
1.2083237
1.2082472
1.2081549
1.2080509
1.2079233
1.2077852
1.2076305
1.2074313
1.2072716
1.2069844
1.2066751
1.206355
1.2060526
1.2057817
1.2055194
1.2052692
1.205103
1.2049454
1.2049102
1.2047227
1.2047405
1.2084703
1.2084566
1.2084396
1.2084199
1.208397
1.20837
1.2083382
1.2083006
1.2082565
1.2082055
1.2081475
1.2080825
1.2080089
1.2079214
1.2078201
1.2076855
1.2075226
1.2073453
1.207144
1.2070079
1.206749
1.2064357
1.2061514
1.2058896
1.2056383
1.2054184
1.2052468
1.2050765
1.2050241
1.2048877
1.2049126
1.2081246
1.2081134
1.2080998
1.2080846
1.2080673
1.2080475
1.208025
1.2079994
1.2079702
1.2079362
1.2078956
1.2078451
1.207782
1.2077042
1.2076072
1.2074994
1.2073694
1.207211
1.2070729
1.2069168
1.2067435
1.206518
1.2062668
1.2060155
1.2057672
1.205566
1.2053812
1.2051942
1.2051532
1.2050426
1.2052073
1.2078604
1.2078522
1.2078422
1.2078307
1.2078173
1.2078015
1.2077825
1.2077595
1.2077314
1.2076971
1.2076564
1.2076093
1.2075567
1.2074991
1.2074362
1.2073601
1.2072746
1.207176
1.2070274
1.2068712
1.2066582
1.2064805
1.2063307
1.2061112
1.205927
1.205744
1.2055374
1.2053247
1.2052847
1.2052207
1.2055854
1.2075891
1.2075828
1.2075753
1.2075667
1.2075568
1.2075454
1.207532
1.2075165
1.2074986
1.2074779
1.2074538
1.2074256
1.2073914
1.207349
1.2072972
1.2072392
1.2071716
1.2070909
1.2069979
1.2068969
1.2068159
1.2066744
1.2064518
1.2062365
1.2060436
1.205857
1.2056535
1.2054593
1.2053949
1.2052642
1.2055997
1.2075041
1.2074991
1.2074932
1.2074865
1.2074789
1.20747
1.2074597
1.2074477
1.2074335
1.2074163
1.2073952
1.2073691
1.2073372
1.2072998
1.2072575
1.20721
1.2071598
1.2071078
1.2070561
1.2069925
1.2069124
1.2067884
1.2066282
1.2064283
1.2062011
1.2059839
1.2057729
1.2055911
1.2054746
1.2052899
1.2055183
1.207365
1.2073613
1.207357
1.207352
1.2073462
1.2073395
1.2073316
1.2073223
1.2073115
1.207299
1.2072846
1.2072682
1.2072494
1.2072276
1.2072018
1.2071721
1.2071373
1.2070965
1.2070433
1.2069602
1.2068609
1.2067533
1.2066366
1.2064935
1.2063041
1.2061172
1.2059281
1.2057428
1.2055717
1.2053718
1.205444
1.2073379
1.2073348
1.2073312
1.2073271
1.2073223
1.2073167
1.2073102
1.2073026
1.2072938
1.2072835
1.2072713
1.2072567
1.2072392
1.2072177
1.207191
1.2071577
1.2071156
1.2070627
1.2069988
1.2069272
1.2068465
1.2067697
1.2066508
1.2064691
1.206353
1.2062071
1.2060225
1.2058131
1.2056197
1.2054786
1.2054163
1.2072504
1.2072433
1.2072359
1.2072282
1.2072201
1.2072113
1.2072016
1.2071906
1.207178
1.2071634
1.2071465
1.2071266
1.2071033
1.2070758
1.2070442
1.2070077
1.2069685
1.206928
1.2068834
1.2068424
1.2067539
1.2066379
1.206579
1.2064793
1.2062256
1.205989
1.2058048
1.2057037
1.2055711
1.2054542
1.2053348
1.1878167
1.1875387
1.1872341
1.1871245
1.1874328
1.1879857
1.1886494
1.1892852
1.189912
1.1905833
1.1913392
1.1921999
1.1931693
1.1942387
1.1954129
1.1966376
1.1979657
1.1992715
1.2006348
1.2016124
1.201992
1.2022902
1.2026387
1.2028566
1.2029947
1.2030139
1.2031975
1.2032266
1.203473
1.2033894
1.2024673
1.1877442
1.1875482
1.1875038
1.1876728
1.1880578
1.1885574
1.1890801
1.1896094
1.1901886
1.190846
1.1916045
1.1924692
1.1934401
1.1945059
1.195668
1.1968681
1.1981684
1.1993959
1.2007518
1.2016272
1.2020039
1.2023086
1.2026574
1.2028708
1.2030052
1.2030222
1.2032078
1.2032372
1.20349
1.2033952
1.2024666
1.1876408
1.1875078
1.1875149
1.1877098
1.1881315
1.1886643
1.1891927
1.1897277
1.1903162
1.1909846
1.1917552
1.1926275
1.193602
1.1946667
1.195823
1.1970118
1.1983092
1.1995144
1.2008546
1.201655
1.2020253
1.2023311
1.2026784
1.2028868
1.2030171
1.2030313
1.2032185
1.203248
1.2035065
1.2034004
1.2024648
1.1874541
1.1874339
1.1875063
1.1878034
1.1882764
1.1887873
1.1892874
1.189814
1.1904052
1.1910827
1.1918636
1.1927434
1.1937228
1.194789
1.1959436
1.1971276
1.1984298
1.1996349
1.2009463
1.2016853
1.2020493
1.202354
1.2026994
1.2029027
1.2030291
1.2030404
1.2032293
1.2032587
1.2035222
1.2034058
1.2024637
1.1872287
1.187352
1.1875423
1.1879213
1.1883997
1.1888801
1.1893636
1.1898907
1.1904894
1.1911798
1.1919718
1.1928605
1.1938458
1.1949146
1.196068
1.1972478
1.1985526
1.1997592
1.2010256
1.2017134
1.2020736
1.2023771
1.2027205
1.2029187
1.2030412
1.2030497
1.2032402
1.2032694
1.2035373
1.2034111
1.2024634
1.1870959
1.1873114
1.1876206
1.1880425
1.1884991
1.1889527
1.1894291
1.1899623
1.1905727
1.1912785
1.1920826
1.192981
1.1939723
1.1950435
1.1961949
1.1973703
1.1986753
1.1998807
1.2010986
1.2017392
1.2020982
1.2024004
1.2027416
1.2029347
1.2030534
1.203059
1.2032511
1.20328
1.2035519
1.2034165
1.2024639
1.1870679
1.1873513
1.1877154
1.1881391
1.1885668
1.1890042
1.1894827
1.1900269
1.1906532
1.1913755
1.1921922
1.1931007
1.1940979
1.1951711
1.1963202
1.1974915
1.1987943
1.1999998
1.2011765
1.2017632
1.2021232
1.202424
1.2027629
1.2029508
1.2030657
1.2030685
1.203262
1.2032905
1.2035662
1.2034219
1.2024651
1.1871177
1.1874381
1.1878026
1.1882001
1.1886055
1.1890386
1.1895264
1.1900856
1.1907309
1.19147
1.1923002
1.193219
1.1942218
1.195297
1.1964437
1.197611
1.1989082
1.2001172
1.2012622
1.2017854
1.2021487
1.202448
1.2027841
1.202967
1.2030782
1.2030782
1.2032729
1.2033008
1.2035801
1.2034271
1.2024669
1.1871869
1.187504
1.1878479
1.1882233
1.1886203
1.1890595
1.1895619
1.1901401
1.1908063
1.1915627
1.192407
1.1933362
1.1943445
1.1954217
1.1965656
1.1977288
1.1990209
1.2002267
1.2013468
1.201808
1.2021747
1.2024723
1.2028055
1.2029833
1.2030909
1.2030879
1.2032838
1.2033109
1.2035937
1.2034324
1.2024693
1.187236
1.18753
1.1878533
1.1882174
1.1886169
1.1890695
1.189591
1.1901914
1.1908795
1.191654
1.192513
1.1934525
1.1944661
1.1955451
1.196686
1.1978451
1.1991336
1.2003253
1.2014244
1.201834
1.2022011
1.2024968
1.2028269
1.2029997
1.2031037
1.2030979
1.2032945
1.2033207
1.2036071
1.2034375
1.2024724
1.1872364
1.187509
1.1878226
1.1881872
1.1885983
1.1890702
1.1896147
1.1902403
1.190951
1.1917444
1.1926183
1.1935679
1.1945868
1.1956673
1.1968048
1.1979605
1.1992449
1.2004196
1.201495
1.2018637
1.2022277
1.2025217
1.2028483
1.2030162
1.2031168
1.203108
1.2033052
1.2033303
1.2036203
1.2034427
1.2024762
1.1871822
1.1874459
1.1877615
1.1881367
1.1885669
1.1890633
1.1896346
1.1902873
1.1910213
1.1918344
1.1927232
1.1936827
1.1947064
1.1957883
1.1969221
1.1980761
1.1993511
1.2005133
1.201559
1.2018949
1.2022544
1.2025468
1.2028697
1.2030329
1.20313
1.2031185
1.2033157
1.2033395
1.2036332
1.2034477
1.2024807
1.1870783
1.1873456
1.1876738
1.1880686
1.1885247
1.1890501
1.1896517
1.1903327
1.1910911
1.1919241
1.1928277
1.1937968
1.1948251
1.1959081
1.197038
1.1981913
1.1994476
1.2006073
1.2016169
1.2019264
1.2022812
1.2025721
1.2028913
1.2030498
1.2031435
1.2031294
1.2033261
1.2033484
1.203646
1.2034528
1.202486
1.1869302
1.1872124
1.187563
1.1879856
1.1884735
1.1890323
1.189667
1.1903774
1.1911608
1.1920139
1.1929321
1.1939104
1.1949429
1.1960267
1.1971524
1.1983044
1.1995421
1.2007012
1.2016698
1.2019581
1.2023082
1.2025977
1.2029129
1.2030668
1.2031572
1.2031407
1.2033363
1.203357
1.2036587
1.2034577
1.2024921
1.186743
1.1870505
1.1874326
1.1878903
1.1884154
1.1890113
1.1896811
1.190422
1.1912311
1.1921042
1.1930365
1.1940235
1.1950598
1.1961441
1.1972656
1.19842
1.1996354
1.2007908
1.2017193
1.2019902
1.2023354
1.2026235
1.2029346
1.2030841
1.2031713
1.2031525
1.2033465
1.2033653
1.2036712
1.2034626
1.202499
1.1865212
1.1868637
1.1872858
1.1877853
1.1883524
1.1889889
1.1896951
1.1904674
1.1913025
1.1921952
1.1931411
1.1941363
1.1951759
1.1962602
1.1973778
1.1985363
1.1997227
1.2008777
1.2017662
1.2020223
1.2023628
1.2026495
1.2029564
1.2031016
1.2031857
1.2031649
1.2033566
1.2033734
1.2036835
1.2034675
1.2025064
1.1862687
1.1866558
1.187126
1.1876735
1.1882868
1.1889665
1.1897104
1.1905147
1.1913754
1.1922872
1.1932462
1.1942488
1.1952912
1.1963752
1.1974896
1.1986525
1.1998141
1.2009623
1.2018113
1.2020542
1.2023905
1.2026757
1.2029784
1.2031194
1.2032005
1.2031779
1.2033667
1.2033813
1.2036958
1.2034724
1.2025143
1.1859904
1.1864317
1.1869574
1.1875581
1.1882214
1.1889459
1.1897282
1.1905647
1.1914505
1.1923806
1.1933518
1.1943612
1.1954058
1.196489
1.1976018
1.1987632
1.1999104
1.2010449
1.201855
1.2020857
1.2024184
1.2027021
1.2030005
1.2031374
1.2032157
1.2031914
1.2033768
1.2033891
1.2037079
1.2034772
1.2025225
1.1856926
1.1861972
1.1867849
1.1874431
1.1881587
1.188929
1.1897501
1.1906181
1.1915282
1.1924756
1.1934581
1.1944735
1.1955196
1.1966015
1.1977111
1.1988675
1.200004
1.2011253
1.2018975
1.2021171
1.2024466
1.2027286
1.2030227
1.2031556
1.2032312
1.2032056
1.203387
1.2033969
1.2037199
1.2034821
1.202531
1.1853845
1.18596
1.1866144
1.1873327
1.1881018
1.188918
1.1897774
1.190676
1.1916091
1.1925726
1.1935654
1.1945857
1.1956326
1.1967131
1.1978203
1.1989675
1.2000976
1.2012014
1.201939
1.2021485
1.2024751
1.2027552
1.2030451
1.203174
1.2032471
1.2032203
1.2033973
1.2034048
1.2037319
1.203487
1.2025393
1.1850772
1.1857289
1.1864523
1.1872314
1.1880538
1.1889153
1.1898116
1.1907391
1.1916938
1.192672
1.1936737
1.1946981
1.1957449
1.1968252
1.1979311
1.1990629
1.2001959
1.2012728
1.2019794
1.20218
1.2025038
1.202782
1.2030677
1.2031927
1.2032633
1.2032355
1.2034078
1.2034128
1.2037437
1.203492
1.2025484
1.1847838
1.1855143
1.1863051
1.1871439
1.1880181
1.1889233
1.1898541
1.1908085
1.1917828
1.1927739
1.1937833
1.1948104
1.195857
1.1969405
1.1980342
1.1991528
1.2002881
1.201344
1.2020191
1.2022119
1.2025328
1.2028088
1.2030904
1.2032114
1.2032798
1.2032512
1.2034185
1.2034212
1.2037555
1.2034972
1.2025572
1.1845182
1.185327
1.1861793
1.1870746
1.1879981
1.1889445
1.1899064
1.190885
1.1918767
1.1928787
1.1938942
1.194923
1.1959704
1.1970525
1.1981304
1.1992443
1.2003703
1.2014179
1.2020582
1.2022441
1.2025619
1.2028357
1.2031133
1.2032303
1.2032966
1.2032673
1.2034295
1.2034299
1.2037673
1.2035025
1.2025651
1.1842934
1.1851752
1.1860811
1.1870284
1.1879976
1.1889813
1.18997
1.1909694
1.1919759
1.1929865
1.1940064
1.1950372
1.1960888
1.1971575
1.1982274
1.1993345
1.200448
1.2014958
1.2020969
1.2022767
1.2025913
1.2028626
1.2031362
1.2032493
1.2033135
1.2032837
1.2034409
1.203439
1.203779
1.2035079
1.2025727
1.1841119
1.1850568
1.1860231
1.1870121
1.1880198
1.1890349
1.1900466
1.191063
1.1920809
1.1930974
1.194121
1.1951568
1.1962059
1.1972555
1.1983271
1.1994228
1.2005259
1.2015749
1.2021351
1.2023097
1.2026208
1.2028895
1.2031592
1.2032683
1.2033305
1.2033002
1.2034528
1.2034486
1.2037907
1.2035136
1.2025819
1.1839922
1.1849938
1.1860053
1.1870298
1.1880656
1.1891049
1.1901377
1.1911667
1.1921921
1.1932123
1.1942416
1.1952846
1.1963108
1.197353
1.1984252
1.1995092
1.2006037
1.2016512
1.2021735
1.202343
1.2026504
1.2029165
1.2031822
1.2032874
1.2033476
1.2033169
1.2034651
1.2034587
1.2038025
1.2035195
1.2025901
1.1839425
1.1849898
1.1860325
1.1870828
1.1881398
1.1891963
1.1902417
1.1912802
1.1923115
1.1933353
1.1943745
1.195397
1.1964051
1.197457
1.1985214
1.1995937
1.2006808
1.2017244
1.2022123
1.2023767
1.2026802
1.2029433
1.2032051
1.2033064
1.2033647
1.2033335
1.2034781
1.2034695
1.2038141
1.2035258
1.2025997
1.183968
1.1850488
1.1861096
1.1871745
1.188244
1.1893097
1.1903608
1.1914044
1.1924437
1.1934757
1.1945041
1.1954969
1.1965139
1.1975605
1.1986161
1.1996763
1.2007568
1.2017947
1.2022515
1.2024108
1.20271
1.2029701
1.2032279
1.2033253
1.2033816
1.20335
1.2034917
1.203481
1.2038257
1.2035323
1.2026109
1.1840734
1.1851747
1.1862397
1.1873071
1.1883793
1.1894468
1.1904989
1.1915481
1.192598
1.1936276
1.1946112
1.1956003
1.1966233
1.1976624
1.1987095
1.1997568
1.2008315
1.2018627
1.202291
1.2024452
1.2027399
1.2029968
1.2032505
1.2033442
1.2033982
1.2033662
1.2035057
1.2034932
1.2038372
1.2035391
1.2026231
1.1842636
1.1853715
1.1864259
1.1874832
1.1885491
1.1896156
1.1906703
1.1917269
1.1927639
1.1937444
1.1947085
1.1957178
1.1967314
1.1977633
1.1988016
1.1998355
1.2009048
1.2019286
1.2023308
1.2024799
1.2027698
1.2030233
1.2032728
1.2033629
1.2034143
1.2033822
1.20352
1.2035062
1.2038485
1.2035463
1.2026364
1.1845458
1.1856471
1.1866762
1.1877125
1.1887659
1.1898339
1.1908952
1.1919172
1.1928748
1.1938462
1.194836
1.1958369
1.1968392
1.1978636
1.1988926
1.1999128
1.2009763
1.2019926
1.2023706
1.2025148
1.2027997
1.2030497
1.2032948
1.2033815
1.2034299
1.2033977
1.2035346
1.2035197
1.2038597
1.2035537
1.2026496
1.1849249
1.1860118
1.1870065
1.1880172
1.1890518
1.1900961
1.1911086
1.1920465
1.1929884
1.1939884
1.1949685
1.1959556
1.196947
1.1979632
1.1989825
1.1999896
1.2010463
1.2020548
1.2024104
1.20255
1.2028293
1.2030758
1.2033164
1.2033998
1.203445
1.2034128
1.2035495
1.2035337
1.2038708
1.2035613
1.2026614
1.1853615
1.1864306
1.1873837
1.1883592
1.1893573
1.1903382
1.1912513
1.1921752
1.1931547
1.1941412
1.1951022
1.1960752
1.1970546
1.1980622
1.1990713
1.2000632
1.2011154
1.2021154
1.2024501
1.202585
1.2028588
1.2031017
1.2033375
1.2034178
1.2034597
1.2034275
1.2035648
1.2035483
1.2038817
1.203569
1.2026724
1.185788
1.1868414
1.1877494
1.1886663
1.1896094
1.1905068
1.1914114
1.1923721
1.1933348
1.1942985
1.1952391
1.1961963
1.1971623
1.1981605
1.1991581
1.2001323
1.2011843
1.2021743
1.2024897
1.2026199
1.202888
1.2031272
1.2033582
1.2034357
1.2034742
1.203442
1.2035803
1.2035633
1.2038923
1.2035767
1.2026829
1.1862592
1.1872629
1.1881021
1.1889592
1.1898282
1.1907162
1.1916628
1.1925905
1.1935227
1.1944622
1.19538
1.1963189
1.19727
1.1982581
1.1992428
1.2002012
1.201252
1.2022316
1.2025291
1.2026545
1.2029171
1.2031525
1.2033784
1.2034533
1.2034888
1.2034564
1.2035962
1.2035787
1.2039027
1.2035843
1.2026922
1.1869958
1.1879085
1.1886435
1.1894101
1.1902162
1.1910666
1.1919491
1.192823
1.1937206
1.1946335
1.1955253
1.196443
1.1973777
1.198355
1.199326
1.2002709
1.2013171
1.2022871
1.2025683
1.2026889
1.2029459
1.2031776
1.2033983
1.2034707
1.2035036
1.2034711
1.2036124
1.2035944
1.2039127
1.2035917
1.2027003
1.1878823
1.18869
1.1893069
1.1899682
1.1906878
1.1914567
1.1922596
1.1930722
1.1939305
1.1948124
1.1956751
1.1965688
1.1974853
1.1984511
1.1994077
1.2003396
1.2013797
1.202341
1.2026074
1.202723
1.2029745
1.2032023
1.2034179
1.203488
1.2035189
1.2034862
1.2036288
1.2036106
1.2039225
1.2035988
1.2027072
1.1887785
1.1894996
1.1900058
1.1905629
1.1911896
1.191871
1.1925939
1.1933393
1.1941532
1.1949989
1.1958296
1.1966964
1.1975931
1.1985462
1.1994877
1.2004072
1.2014398
1.2023932
1.2026462
1.2027568
1.2030028
1.2032268
1.2034373
1.2035052
1.2035345
1.2035017
1.2036457
1.203627
1.2039319
1.2036057
1.2027126
1.1897091
1.190347
1.1907427
1.191194
1.1917233
1.1923143
1.1929525
1.1936239
1.194389
1.1951929
1.1959892
1.1968259
1.1977009
1.1986403
1.199566
1.2004739
1.2014975
1.2024436
1.2026848
1.2027903
1.2030309
1.203251
1.2034566
1.2035225
1.2035504
1.2035178
1.203663
1.2036439
1.2039408
1.2036122
1.2027162
1.1906851
1.191242
1.1915255
1.1918674
1.1922941
1.1927889
1.1933347
1.1939256
1.194639
1.1953945
1.196154
1.1969577
1.1978087
1.1987333
1.1996425
1.2005401
1.2015525
1.2024924
1.2027231
1.2028235
1.2030588
1.203275
1.203476
1.2035398
1.2035669
1.2035346
1.2036809
1.2036611
1.2039493
1.2036185
1.2027177
1.1917149
1.1921906
1.1923585
1.1925859
1.1929036
1.1932953
1.1937399
1.1942447
1.1949039
1.1956035
1.1963242
1.1970917
1.1979168
1.198825
1.1997171
1.2006057
1.2016047
1.2025393
1.2027611
1.2028563
1.2030864
1.2032988
1.2034955
1.2035574
1.2035848
1.2035527
1.2036994
1.2036786
1.2039573
1.2036246
1.2027166
1.1928112
1.1932003
1.1932464
1.1933518
1.1935529
1.1938336
1.1941673
1.1945835
1.1951834
1.1958198
1.1964999
1.1972284
1.198025
1.1989152
1.1997897
1.200671
1.201655
1.2025843
1.2027986
1.2028887
1.2031137
1.2033223
1.2035152
1.2035752
1.2036055
1.2035727
1.2037186
1.2036963
1.2039646
1.2036307
1.2027118
1.1939855
1.1942774
1.1941926
1.1941664
1.1942425
1.1944026
1.1946172
1.1949484
1.195472
1.1960432
1.1966812
1.1973679
1.1981334
1.1990037
1.1998597
1.2007363
1.2017057
1.2026274
1.2028356
1.2029207
1.2031408
1.2033456
1.2035349
1.2035932
1.2036297
1.2035948
1.2037382
1.2037139
1.2039707
1.2036367
1.202712
1.1952358
1.1954183
1.1951947
1.1950274
1.1949698
1.1949983
1.1950959
1.1953379
1.195763
1.1962749
1.196868
1.19751
1.1982419
1.19909
1.1999267
1.2008018
1.201757
1.2026688
1.2028721
1.2029524
1.2031676
1.2033686
1.2035547
1.2036114
1.2036573
1.2036191
1.2037578
1.2037314
1.2039759
1.203643
1.2027105
1.1965407
1.1966031
1.1962395
1.1959254
1.1957264
1.1956161
1.1956079
1.195746
1.1960579
1.1965118
1.1970604
1.1976555
1.198351
1.1991744
1.1999905
1.2008675
1.2018072
1.2027081
1.2029081
1.2029838
1.2031942
1.2033913
1.2035743
1.2036295
1.2036869
1.2036449
1.203777
1.2037486
1.2039805
1.2036493
1.2027086
1.1978732
1.1978018
1.1973066
1.1968485
1.1965
1.196273
1.1961601
1.1961681
1.1963632
1.1967559
1.1972618
1.1978083
1.1984643
1.1992595
1.200053
1.2009341
1.2018562
1.2027444
1.2029429
1.2030145
1.2032202
1.2034136
1.2035932
1.2036474
1.2037175
1.2036712
1.2037954
1.2037655
1.2039848
1.2036558
1.2027071
1.1992485
1.1990169
1.1984089
1.1978158
1.1973413
1.1970015
1.1967569
1.1966358
1.1967235
1.1970324
1.1974878
1.197982
1.1985936
1.1993551
1.2001226
1.2010043
1.2019045
1.2027749
1.2029744
1.2030435
1.2032453
1.203435
1.2036115
1.2036649
1.2037487
1.2036973
1.2038126
1.2037823
1.2039894
1.2036622
1.2027072
1.2007438
1.2003371
1.1996662
1.1989551
1.1983438
1.1978609
1.1974857
1.1972382
1.1972281
1.1974063
1.19777
1.1982015
1.1987594
1.1994781
1.2002147
1.2010846
1.2019543
1.2027983
1.2029997
1.2030703
1.2032693
1.2034558
1.2036303
1.2036828
1.2037812
1.2037227
1.2038294
1.2037992
1.2039945
1.2036686
1.2027097
1.2021866
1.2017241
1.2011339
1.200347
1.1995717
1.1989095
1.1983849
1.1980238
1.1978873
1.197924
1.1981162
1.1984675
1.1989612
1.1996286
1.2003318
1.2011791
1.2020121
1.2028322
1.203025
1.2031005
1.2032959
1.2034782
1.2036537
1.2037031
1.2038155
1.2037468
1.2038473
1.2038165
1.2039997
1.2036751
1.2027152
1.1883297
1.1882242
1.1879766
1.1877803
1.1879091
1.188339
1.1889276
1.1895312
1.1901472
1.1908119
1.1915557
1.1923977
1.1933459
1.1943913
1.1955355
1.1967279
1.1979979
1.1992868
1.2005062
1.201531
1.2019433
1.2022592
1.202615
1.2028382
1.2029807
1.2030039
1.2031858
1.2032155
1.2034537
1.2033833
1.202472
1.1882572
1.188157
1.1879841
1.1878643
1.1879771
1.1883728
1.1889224
1.1895115
1.1901224
1.1907818
1.1915183
1.1923528
1.1932945
1.1943351
1.1954758
1.1966707
1.1979384
1.1992628
1.200448
1.2015187
1.2019334
1.2022439
1.2025993
1.2028251
1.2029701
1.2029965
1.2031757
1.2032058
1.203433
1.2033791
1.2024695
1.1882277
1.1881198
1.1879613
1.1878475
1.1879425
1.1883275
1.1888846
1.1894849
1.1901042
1.1907662
1.1914998
1.192328
1.1932622
1.1942962
1.1954307
1.196625
1.1978888
1.1992282
1.2004139
1.2015035
1.201925
1.2022321
1.2025863
1.2028138
1.2029606
1.2029899
1.2031663
1.2031966
1.2034108
1.2033755
1.2024658
1.188256
1.1881615
1.1880112
1.187868
1.1879345
1.1883143
1.1888788
1.189489
1.1901159
1.1907801
1.1915104
1.192331
1.1932556
1.19428
1.1954051
1.1965948
1.1978505
1.1991927
1.20038
1.2014807
1.201912
1.2022184
1.2025723
1.2028018
1.2029508
1.2029829
1.2031572
1.2031878
1.2033885
1.2033717
1.202461
1.1882863
1.188208
1.1880704
1.1879133
1.1879531
1.188323
1.1888861
1.1895016
1.1901343
1.1908009
1.1915287
1.1923423
1.1932578
1.1942726
1.1953876
1.1965713
1.1978179
1.1991583
1.2003433
1.2014547
1.2018972
1.2022034
1.2025575
1.2027893
1.2029406
1.2029755
1.203148
1.2031791
1.2033668
1.2033677
1.202455
1.1883048
1.1882397
1.1881141
1.1879591
1.1879791
1.1883334
1.1888909
1.1895103
1.190149
1.1908187
1.1915451
1.1923533
1.1932608
1.1942668
1.1953722
1.1965497
1.1977876
1.199125
1.2003055
1.2014276
1.2018826
1.2021884
1.2025426
1.2027767
1.2029302
1.2029679
1.2031388
1.2031705
1.2033467
1.2033637
1.2024475
1.1883165
1.1882614
1.1881472
1.1879985
1.1880036
1.1883403
1.188891
1.1895145
1.1901595
1.1908332
1.1915593
1.1923632
1.1932636
1.1942613
1.1953575
1.1965289
1.1977585
1.1990923
1.2002681
1.201399
1.2018685
1.2021736
1.2025277
1.2027641
1.2029199
1.2029604
1.2031296
1.203162
1.2033281
1.2033596
1.2024383
1.1883238
1.1882777
1.1881747
1.1880334
1.188027
1.1883455
1.1888886
1.1895159
1.1901673
1.1908455
1.1915722
1.1923726
1.1932666
1.1942566
1.1953439
1.1965089
1.1977305
1.1990602
1.2002313
1.2013695
1.2018545
1.202159
1.2025129
1.2027516
1.2029097
1.2029528
1.2031204
1.2031535
1.2033106
1.2033557
1.2024274
1.1883276
1.18829
1.1881978
1.1880649
1.1880506
1.1883511
1.1888853
1.1895159
1.1901734
1.1908565
1.1915843
1.1923821
1.1932702
1.1942529
1.1953314
1.19649
1.1977037
1.1990287
1.2001953
1.2013396
1.2018403
1.2021446
1.2024983
1.2027391
1.2028995
1.2029452
1.2031111
1.2031452
1.2032945
1.2033517
1.2024143
1.188329
1.1882989
1.1882167
1.1880931
1.1880753
1.1883579
1.1888818
1.1895149
1.1901783
1.1908663
1.1915959
1.1923917
1.1932746
1.1942502
1.1953202
1.1964722
1.1976781
1.1989977
1.20016
1.2013092
1.2018259
1.2021303
1.2024837
1.2027266
1.2028893
1.2029375
1.2031019
1.2031369
1.2032797
1.2033475
1.202399
1.1883285
1.1883045
1.1882319
1.1881183
1.1880995
1.1883659
1.1888787
1.1895133
1.1901822
1.1908753
1.1916071
1.1924015
1.1932797
1.1942486
1.1953104
1.1964556
1.1976537
1.1989673
1.2001259
1.2012779
1.2018114
1.2021163
1.2024691
1.2027141
1.2028791
1.2029297
1.2030926
1.2031288
1.2032658
1.2033429
1.2023812
1.1883269
1.188308
1.1882443
1.1881416
1.1881233
1.1883748
1.1888764
1.1895114
1.1901855
1.1908837
1.1916181
1.1924116
1.1932855
1.1942481
1.1953018
1.1964401
1.1976307
1.1989374
1.2000936
1.2012457
1.2017966
1.2021024
1.2024547
1.2027016
1.2028688
1.2029219
1.2030833
1.2031207
1.2032527
1.2033378
1.2023643
1.1883251
1.1883108
1.1882555
1.1881649
1.1881479
1.1883846
1.1888755
1.1895098
1.1901886
1.1908918
1.191629
1.192422
1.1932922
1.1942487
1.1952945
1.1964258
1.1976088
1.1989082
1.2000618
1.2012124
1.2017816
1.2020887
1.2024403
1.2026891
1.2028586
1.2029139
1.2030739
1.2031128
1.2032403
1.203332
1.2023478
1.188324
1.1883141
1.1882669
1.1881889
1.1881736
1.1883959
1.1888764
1.189509
1.1901918
1.1908999
1.1916401
1.1924329
1.1932997
1.1942505
1.1952886
1.1964127
1.1975883
1.1988821
1.2000312
1.2011793
1.2017661
1.2020752
1.2024261
1.2026765
1.2028483
1.2029058
1.2030644
1.2031048
1.2032284
1.2033255
1.2023306
1.1883244
1.1883186
1.1882791
1.1882127
1.1882
1.1884099
1.1888798
1.1895095
1.1901956
1.1909083
1.1916516
1.1924445
1.1933081
1.1942534
1.195284
1.1964008
1.1975691
1.1988575
1.2000037
1.2011503
1.2017505
1.202062
1.2024119
1.202664
1.2028379
1.2028977
1.2030549
1.2030969
1.2032171