/*--------------------------------*- C++ -*----------------------------------*\
| =========                 |                                                 |
| \\      /  F ield         | OpenFOAM: The Open Source CFD Toolbox           |
|  \\    /   O peration     | Version:  2406                                  |
|   \\  /    A nd           | Website:  www.openfoam.com                      |
|    \\/     M anipulation  |                                                 |
\*---------------------------------------------------------------------------*/
FoamFile
{
    version     2.0;
    format      ascii;
    arch        "LSB;label=32;scalar=64";
    class       volScalarField;
    location    "0.013";
    object      alphat;
}
// * * * * * * * * * * * * * * * * * * * * * * * * * * * * * * * * * * * * * //

dimensions      [1 -1 -1 0 0 0 0];

internalField   nonuniform List<scalar> 
23204
(
0.0051397945
0.0051335184
0.0051291495
0.0051247209
0.0051321528
0.0053449071
0.005319729
0.0052964409
0.0052750637
0.0052555
0.005237531
0.005220968
0.0052056864
0.0051916456
0.0051789332
0.0051676215
0.005157793
0.0051490127
0.0051415523
0.0051352622
0.0051309091
0.0051265304
0.0051340967
0.11216508
0.077671565
0.045249622
0.019398531
0.008214514
0.0061183079
0.0058190966
0.0057532754
0.0057426108
0.0057199952
0.005675952
0.0056296181
0.0055856593
0.0055444761
0.0055059642
0.0054699285
0.0054362197
0.005404723
0.0053753645
0.0053480705
0.0053227399
0.00529931
0.005277796
0.0052580997
0.0052400019
0.005223316
0.0052079205
0.0051937732
0.0051809597
0.0051695522
0.0051596496
0.0051508202
0.0051433215
0.0051370179
0.0051326803
0.0051283499
0.005136043
0.35895684
0.37350018
0.38809916
0.40263345
0.41697354
0.43097277
0.44446649
0.45727316
0.46919655
0.48002916
0.48955667
0.49756332
0.50383795
0.50818047
0.51040827
0.5103621
0.50791109
0.5029564
0.49543333
0.48531166
0.47259446
0.45731547
0.43953562
0.41933919
0.39683015
0.37212939
0.3453731
0.31671295
0.28631845
0.25438231
0.22112956
0.18682991
0.15182409
0.11655055
0.08177985
0.048840486
0.02166064
0.0087821911
0.0061959982
0.0058357664
0.0057598131
0.0057458073
0.0057249199
0.0056815169
0.0056348965
0.0055905852
0.0055490725
0.0055102657
0.0054739677
0.0054400204
0.0054083039
0.005378745
0.0053512698
0.005325784
0.0053022096
0.0052805552
0.0052607217
0.0052424912
0.0052256792
0.0052101675
0.005195912
0.0051829966
0.0051714934
0.0051615167
0.005152638
0.005145101
0.0051387842
0.0051344621
0.0051301782
0.00513799
0.054901991
0.059156729
0.063616742
0.068286169
0.073169611
0.078272124
0.083599253
0.089157048
0.09495209
0.1009915
0.10728295
0.11383466
0.12065542
0.12775452
0.13514181
0.14282757
0.15082255
0.15913781
0.16778468
0.17677462
0.18611903
0.19582902
0.20591522
0.21638734
0.22725384
0.23852138
0.2501942
0.26227342
0.2747562
0.28763484
0.30089517
0.31451464
0.32846256
0.34269011
0.35701899
0.37154989
0.38615761
0.40072499
0.41512396
0.42920964
0.44281918
0.4557725
0.46787433
0.47891746
0.48868705
0.49696593
0.5035406
0.50820768
0.51078037
0.5110945
0.50901366
0.50443313
0.49728222
0.48752493
0.47515895
0.46021331
0.44274501
0.4228352
0.40058549
0.37611498
0.34955842
0.32106596
0.29080511
0.25896545
0.22576682
0.19147201
0.15640715
0.12100374
0.085976065
0.052558473
0.024168562
0.0094815914
0.0062919214
0.0058536637
0.0057667595
0.0057490365
0.0057297088
0.0056871004
0.0056402192
0.0055955563
0.005553713
0.0055146105
0.0054780496
0.0054438628
0.0054119253
0.0053821641
0.0053545039
0.0053288598
0.0053051379
0.0052833392
0.0052633641
0.005244997
0.0052280555
0.0052124255
0.0051980604
0.0051850423
0.0051734438
0.0051633932
0.0051544651
0.005146891
0.0051405617
0.0051362546
0.0051320154
0.0051399373
0.054903705
0.059128078
0.063556096
0.068191857
0.073039844
0.078105027
0.083392886
0.088909419
0.094661158
0.10065517
0.10689907
0.11340103
0.12016974
0.12721446
0.13454494
0.14217144
0.15010463
0.15835555
0.16693554
0.17585609
0.18512868
0.19476459
0.20477468
0.21516902
0.2259565
0.23714438
0.24873765
0.26073834
0.27314465
0.28594999
0.2991416
0.31269836
0.32658753
0.34075655
0.35509915
0.36962392
0.38423995
0.39883757
0.41329169
0.42745973
0.44118084
0.45427654
0.46655264
0.47780235
0.48781042
0.49635842
0.50323059
0.50822037
0.51113685
0.51181095
0.51010077
0.50589568
0.49911898
0.48972878
0.47771732
0.4631088
0.44595615
0.42633731
0.40435141
0.38011573
0.35376351
0.32544343
0.29532108
0.26358308
0.23044444
0.19616124
0.16104799
0.12552528
0.090258772
0.056397456
0.02691665
0.010338656
0.006412431
0.0058734593
0.0057739472
0.0057521699
0.0057342843
0.0056926846
0.0056455829
0.0056005709
0.0055583962
0.0055189976
0.005482173
0.0054477459
0.0054155862
0.0053856209
0.0053577721
0.0053319665
0.0053080938
0.0052861469
0.0052660258
0.0052475182
0.0052304443
0.005214694
0.0052002179
0.0051870966
0.0051754034
0.0051652792
0.0051563017
0.0051486935
0.0051423522
0.0051380598
0.0051338634
0.0051418864
0.054948424
0.059141588
0.063536995
0.068138524
0.072950517
0.077977863
0.083225987
0.088700849
0.094408939
0.10035728
0.10655345
0.11300554
0.1197222
0.12671262
0.13398649
0.14155398
0.14942573
0.15761276
0.16612636
0.17497806
0.18417941
0.19374184
0.20367639
0.21399345
0.22470233
0.23581085
0.24732469
0.25924674
0.27157619
0.28430751
0.29742908
0.31092116
0.32475212
0.33887189
0.3532057
0.3677235
0.38234632
0.39697116
0.41147659
0.42572274
0.43955094
0.4527845
0.46523047
0.4766826
0.48692541
0.49573928
0.50290637
0.508217
0.51147624
0.51251016
0.51117134
0.50734325
0.50094309
0.49192302
0.4802697
0.46600238
0.44916979
0.42984652
0.40812915
0.38413304
0.35798992
0.32984702
0.29986809
0.26823694
0.23516424
0.20089939
0.16574763
0.13011496
0.094626581
0.060352443
0.029894215
0.011380432
0.0065653992
0.0058962143
0.0057814669
0.0057551817
0.0057385877
0.0056982508
0.0056509839
0.0056056269
0.0055631205
0.0055234258
0.005486337
0.005451669
0.005419286
0.0053891147
0.0053610751
0.0053351045
0.0053110777
0.0052889787
0.0052687071
0.0052500555
0.0052328464
0.005216974
0.0052023858
0.005189161
0.0051773738
0.0051671767
0.00515815
0.0051505106
0.005144158
0.00513988
0.0051357241
0.0051438388
0.055034887
0.059196021
0.063558628
0.068125664
0.072901306
0.077890413
0.083098404
0.088531227
0.094195352
0.10009778
0.10624603
0.11264817
0.11931278
0.126249
0.13346643
0.14097522
0.14878591
0.15690949
0.16535723
0.17414067
0.1832714
0.19276097
0.20262061
0.21286097
0.22349175
0.23452128
0.24595589
0.25779926
0.27005155
0.28270829
0.29575899
0.3091852
0.3229575
0.33703077
0.35134437
0.3658521
0.38047938
0.39512837
0.40968139
0.42400146
0.43793235
0.4512993
0.46391074
0.47556112
0.48603486
0.49511132
0.50257066
0.50820021
0.51180109
0.51319457
0.51222774
0.50877812
0.50275676
0.49410979
0.48281817
0.46889605
0.45238787
0.43336472
0.41192053
0.38816867
0.36223934
0.33427832
0.30444761
0.27292842
0.23992734
0.20568748
0.17050552
0.13477261
0.099078255
0.064419489
0.033087302
0.012633945
0.0067606044
0.005923212
0.0057895474
0.0057581541
0.0057425974
0.0057037812
0.0056564199
0.0056107235
0.0055678858
0.0055278952
0.005490542
0.0054556324
0.0054230252
0.0053926463
0.005364414
0.0053382749
0.0053140903
0.0052918353
0.0052714091
0.0052526099
0.005235263
0.0052192668
0.0052045655
0.0051912371
0.0051793571
0.0051690878
0.0051600122
0.0051523443
0.0051459811
0.0051417171
0.0051375993
0.0051457959
0.051211722
0.055154896
0.059288794
0.0636198
0.068152547
0.072891699
0.077842301
0.083009853
0.088400339
0.09402024
0.099876543
0.10597675
0.11232889
0.1189415
0.12582363
0.13298487
0.14043527
0.14818532
0.15624595
0.16462842
0.17334424
0.18240505
0.19182248
0.20160792
0.21177225
0.22232553
0.23327655
0.24463226
0.25639709
0.26857211
0.28115391
0.29413321
0.30749302
0.32120612
0.33523242
0.3495191
0.36401315
0.37864213
0.39331215
0.40790912
0.42229909
0.43632839
0.44982435
0.46259692
0.4744414
0.48514226
0.49447798
0.50222684
0.50817329
0.51211458
0.51386723
0.51327286
0.51020302
0.50456258
0.49629151
0.48536498
0.47179194
0.45561235
0.43689373
0.41572725
0.3922242
0.36651322
0.33873867
0.30906088
0.27765863
0.24473467
0.21052597
0.17532168
0.13949822
0.10361279
0.068595483
0.036480527
0.014125663
0.0070103582
0.005955997
0.0057984466
0.0057612295
0.0057463254
0.0057092591
0.0056618889
0.0056158603
0.0055726925
0.0055324064
0.0054947888
0.0054596372
0.0054268051
0.005396217
0.0053677904
0.0053414789
0.0053171327
0.0052947177
0.0052741325
0.0052551825
0.0052376953
0.005221574
0.0052067586
0.0051933268
0.005181355
0.0051710145
0.0051618903
0.0051541962
0.0051478228
0.0051435726
0.0051394902
0.0051477589
0.051396422
0.055314582
0.059420443
0.063720026
0.068218565
0.072921149
0.077833066
0.082959955
0.088307879
0.093883358
0.099693392
0.10574547
0.1120476
0.11860828
0.12543652
0.13254183
0.1399342
0.14762408
0.15562233
0.16394015
0.17258906
0.18158071
0.19092678
0.20063881
0.21072789
0.22120438
0.23207751
0.24335479
0.25504137
0.26713919
0.2796459
0.29255349
0.30584654
0.31950015
0.33347803
0.3477329
0.36220984
0.37683756
0.39152548
0.40616288
0.42061886
0.43474241
0.44836308
0.46129252
0.473327
0.48425116
0.49384277
0.50187835
0.50813958
0.51241993
0.51453122
0.51430962
0.51162071
0.5063631
0.49847055
0.48791234
0.47469206
0.45884512
0.44043529
0.41955088
0.39630108
0.3708129
0.3432293
0.31370902
0.28242852
0.24958703
0.21541593
0.1801964
0.14429083
0.10822946
0.072877951
0.040058926
0.015880021
0.0073300876
0.005996519
0.0058084108
0.005764568
0.0057498065
0.005714668
0.0056673898
0.0056210378
0.0055775415
0.005536961
0.0054990789
0.0054636849
0.0054306272
0.0053998282
0.0053712057
0.0053447176
0.0053202056
0.0052976265
0.0052768783
0.0052577741
0.0052401445
0.0052238965
0.0052089663
0.0051954312
0.005183369
0.0051729582
0.0051637858
0.0051560671
0.0051496841
0.0051454472
0.0051413974
0.0051497281
0.051623827
0.055514524
0.059591199
0.063859015
0.068323224
0.072989129
0.07786222
0.082948285
0.088253488
0.093784409
0.099548083
0.10555201
0.11180418
0.11831305
0.12508761
0.13213731
0.13947207
0.14710228
0.15503873
0.16329261
0.17187536
0.18079866
0.19007425
0.19971374
0.20972843
0.22012896
0.23092493
0.24212439
0.25373316
0.26575404
0.27818571
0.29102144
0.30424748
0.3178412
0.33176952
0.34598868
0.36044505
0.37506861
0.38977133
0.40444572
0.41896392
0.43317768
0.4469189
0.46000101
0.47222141
0.48336509
0.49320918
0.50152861
0.50810241
0.51272034
0.51518958
0.5153409
0.51303388
0.50816084
0.50064926
0.49046239
0.47759839
0.46208795
0.44399102
0.42339293
0.40040067
0.37513962
0.34775134
0.31839303
0.28723902
0.25448519
0.22035769
0.18512999
0.14915175
0.11292799
0.077264896
0.043809043
0.017916248
0.0077387411
0.0060473252
0.0058196872
0.0057683258
0.0057530887
0.0057199922
0.0056729219
0.0056262573
0.005582435
0.0055415608
0.0055034141
0.0054677774
0.0054344933
0.0054034817
0.0053746612
0.005347992
0.0053233097
0.0053005621
0.0052796468
0.0052603852
0.005242611
0.0052262351
0.0052111893
0.0051975514
0.0051853999
0.0051749201
0.0051656999
0.0051579576
0.0051515653
0.0051473415
0.0051433212
0.0051517034
0.051891761
0.055754179
0.059800845
0.064036429
0.068466066
0.073095138
0.077929274
0.082974396
0.088236773
0.093723064
0.099440346
0.10539614
0.11159844
0.1180557
0.12477684
0.13177127
0.13904888
0.14661997
0.15449528
0.16268593
0.17120335
0.18005919
0.18926521
0.19883313
0.20877438
0.21909986
0.22981952
0.24094189
0.25247345
0.2644178
0.27677464
0.28953856
0.30269742
0.3162308
0.33010844
0.34428944
0.35872168
0.37333806
0.38805259
0.40276062
0.4173374
0.43163746
0.44549514
0.45872579
0.47112809
0.48248748
0.49258062
0.50118099
0.50806503
0.51301893
0.5158453
0.51636951
0.51444516
0.50995824
0.50282987
0.4930172
0.48051282
0.46534259
0.4475625
0.42725483
0.40452429
0.37949457
0.35230587
0.32311391
0.29209101
0.25942995
0.22535205
0.19012326
0.1540822
0.11770756
0.081754468
0.047719204
0.020245787
0.0082590861
0.0061117905
0.0058325599
0.005772646
0.0057562305
0.0057252176
0.0056784843
0.005631521
0.0055873754
0.0055462082
0.0055077966
0.0054719163
0.005438405
0.005407179
0.0053781578
0.0053513025
0.0053264449
0.0053035244
0.0052824379
0.0052630159
0.005245095
0.00522859
0.0052134279
0.0051996875
0.0051874482
0.0051769006
0.0051676329
0.0051598678
0.0051534664
0.0051492552
0.0051452612
0.0051536848
0.052199104
0.056032833
0.060048922
0.064251838
0.068646622
0.073238683
0.078033744
0.083037838
0.088257334
0.093698972
0.099369887
0.10527764
0.11143021
0.11783607
0.1245041
0.13144368
0.13866462
0.14617718
0.15399204
0.16212026
0.1705732
0.17936251
0.18849996
0.19799733
0.20786618
0.21811762
0.22876192
0.23980807
0.25126314
0.26313152
0.27541393
0.28810619
0.30119783
0.31467047
0.32849639
0.34263727
0.35704297
0.37164864
0.38637202
0.40111051
0.41574232
0.43012488
0.44409504
0.45747019
0.47005041
0.48162171
0.49196046
0.50083876
0.50803063
0.51331877
0.51650128
0.5173982
0.51585711
0.51175768
0.50501458
0.49557878
0.48343718
0.4686107
0.45115126
0.43113797
0.40867319
0.3838789
0.35689392
0.3278726
0.29698534
0.26442203
0.23039951
0.19517655
0.15908105
0.12256742
0.086344864
0.051779484
0.022871077
0.0089178113
0.0061943982
0.0058474008
0.0057776534
0.0057593015
0.0057303331
0.0056840759
0.0056368311
0.0055923653
0.0055509056
0.0055122285
0.0054761036
0.0054423637
0.0054109212
0.0053816963
0.0053546495
0.0053296112
0.005306513
0.0052852513
0.0052656656
0.0052475963
0.0052309611
0.005215682
0.0052018398
0.0051895139
0.0051788997
0.0051695852
0.0051617975
0.0051553871
0.005151188
0.005147217
0.0051556715
0.052545055
0.056349778
0.060334868
0.064504742
0.068864401
0.073419275
0.078175155
0.083138165
0.088314768
0.093711783
0.099336408
0.10519624
0.1112993
0.11765402
0.1242693
0.13115446
0.13831928
0.14577394
0.15352908
0.16159567
0.16998505
0.17870882
0.18777874
0.19720664
0.20700419
0.21718269
0.22775269
0.23872359
0.25010304
0.26189617
0.27410466
0.2867256
0.29975006
0.31316165
0.32693496
0.34103413
0.35541121
0.37000374
0.38473229
0.39949818
0.41418163
0.42864301
0.44272177
0.45623745
0.46899163
0.48077107
0.49135194
0.50050511
0.50800232
0.51362284
0.51716037
0.51842962
0.51727223
0.51356147
0.50720551
0.49814907
0.48637324
0.4718939
0.45475877
0.43504368
0.41284859
0.38829371
0.36151652
0.33266999
0.3019228
0.26946213
0.23550059
0.20028981
0.16414817
0.12750633
0.091034509
0.055981634
0.025786929
0.0097453597
0.0063011228
0.0058647271
0.0057834513
0.0057623815
0.0057353275
0.005689694
0.0056421901
0.0055974078
0.0055556554
0.0055167116
0.0054803408
0.0054463708
0.0054147091
0.0053852767
0.0053580326
0.0053328079
0.0053095272
0.0052880862
0.0052683339
0.0052501145
0.0052333479
0.0052179513
0.0052040079
0.0051915969
0.0051809175
0.0051715565
0.0051637463
0.0051573269
0.0051531393
0.0051491881
0.0051576632
0.052928918
0.056704331
0.06065808
0.064794601
0.069118897
0.073636428
0.078353044
0.083274946
0.088408682
0.093761149
0.099339609
0.10515171
0.11120548
0.1175094
0.12407231
0.13090354
0.1380128
0.14541024
0.15310641
0.16111224
0.169439
0.17809824
0.18710174
0.19646132
0.20618875
0.21629547
0.22679231
0.23768905
0.24899385
0.26071257
0.27284782
0.28539787
0.29835534
0.31170568
0.32542569
0.33948183
0.3538285
0.36840569
0.38313676
0.39792628
0.41265815
0.42719479
0.44137838
0.45503069
0.46795494
0.47993875
0.49075823
0.50018316
0.5079831
0.51393403
0.5178253
0.51946638
0.51869293
0.51537183
0.50940472
0.50072995
0.48932273
0.47519375
0.45838643
0.43897326
0.41705166
0.39274008
0.36617462
0.33750698
0.30690417
0.2745509
0.24065581
0.20546422
0.16928367
0.1325248
0.09582236
0.060319169
0.028981891
0.010775116
0.0064398875
0.0058852615
0.0057901249
0.0057655558
0.0057401841
0.0056953338
0.0056476002
0.0056025053
0.0055604597
0.0055212476
0.0054846288
0.0054504267
0.0054185431
0.0053888988
0.0053614512
0.005336034
0.0053125659
0.0052909416
0.0052710198
0.0052526488
0.00523575
0.0052202355
0.0052061916
0.0051936967
0.0051829535
0.0051735467
0.0051657139
0.0051592852
0.0051551086
0.0051511739
0.0051596592
0.053350022
0.057095833
0.061017951
0.065120861
0.0694096
0.073889665
0.078566963
0.083447767
0.088538702
0.093846738
0.099379204
0.10514379
0.11114858
0.11740204
0.12391303
0.13069084
0.13774515
0.14508606
0.15272405
0.16067
0.16893511
0.1775309
0.18646909
0.19576154
0.20542007
0.21545627
0.22588118
0.23670493
0.24793617
0.25958144
0.27164425
0.284124
0.29701478
0.31030383
0.32396999
0.33798205
0.35229675
0.36685666
0.38158789
0.39639804
0.41117454
0.42578305
0.44006779
0.45385292
0.46694339
0.47912781
0.49018237
0.4998759
0.50797589
0.51425514
0.51849873
0.52051095
0.52012152
0.51719091
0.51161417
0.50332321
0.49228727
0.47851174
0.46203562
0.44292793
0.42128353
0.39721903
0.37086916
0.3423844
0.31193021
0.27968899
0.24586566
0.21069954
0.17448807
0.13762461
0.10070719
0.064787034
0.032439214
0.012041645
0.0066211424
0.0059100102
0.0057977512
0.0057689021
0.0057448788
0.0057009872
0.0056530632
0.00560766
0.0055653202
0.0055258375
0.0054889685
0.0054545317
0.0054224228
0.0053925619
0.0053649043
0.0053392884
0.0053156278
0.0052938163
0.0052737224
0.0052551985
0.0052381666
0.0052225341
0.0052083905
0.0051958131
0.0051850074
0.0051755555
0.0051676999
0.0051612616
0.0051570952
0.0051531738
0.0051616593
0.053807705
0.057523636
0.061413877
0.065482972
0.069736006
0.074178523
0.078816488
0.08365624
0.088704478
0.093968243
0.099454927
0.10517228
0.11112841
0.1173318
0.12379133
0.13051627
0.13751626
0.14480135
0.15238198
0.16026896
0.16847343
0.17700684
0.1858809
0.19510745
0.20469836
0.21466533
0.2250196
0.23577161
0.24693049
0.25850338
0.27049466
0.28290484
0.29572937
0.3089572
0.32256919
0.33653632
0.35081774
0.36535863
0.38008788
0.39491611
0.40973387
0.42441047
0.43879282
0.45270703
0.46595993
0.47834122
0.48962731
0.49958622
0.50798349
0.51458884
0.51918321
0.52156573
0.52156024
0.51902077
0.51383576
0.5059306
0.49526845
0.4818493
0.46570765
0.44690891
0.42554531
0.40173156
0.37560105
0.34730306
0.31700165
0.28487703
0.25113069
0.21599634
0.17976175
0.14280477
0.10568745
0.069381102
0.036139214
0.013579898
0.0068586581
0.0059403857
0.0058064128
0.0057724826
0.0057493883
0.0057066432
0.0056585802
0.0056128736
0.005570238
0.0055304822
0.0054933599
0.0054586856
0.0054263478
0.005396265
0.0053683908
0.0053425698
0.0053187115
0.0052967092
0.0052764406
0.0052577626
0.0052405972
0.0052248467
0.0052106043
0.0051979454
0.0051870789
0.0051775826
0.005169704
0.0051632554
0.0051590984
0.0051551874
0.005163663
0.054301298
0.057987103
0.061845267
0.065880396
0.070097627
0.074502561
0.079101219
0.083900008
0.088905692
0.094125383
0.099566537
0.10523695
0.11114479
0.11729855
0.12370712
0.13037974
0.13732607
0.14455609
0.15208019
0.15990911
0.16805395
0.17652609
0.1853372
0.19449911
0.20402371
0.21392279
0.22420778
0.23488939
0.24597717
0.25747887
0.26939964
0.28174107
0.29449994
0.3076668
0.32122444
0.33514602
0.34939308
0.3639134
0.37863873
0.39348268
0.40833892
0.42307988
0.43755613
0.45159579
0.46500736
0.47758181
0.48909587
0.49931688
0.50800857
0.51493772
0.51988118
0.52263303
0.52301122
0.52086339
0.5160713
0.50855377
0.49826778
0.48520783
0.46940376
0.45091733
0.42983802
0.40627863
0.38037117
0.35226378
0.32211919
0.29011564
0.25645138
0.22135484
0.18510458
0.14806361
0.1107617
0.074098004
0.040062097
0.015422489
0.0071703014
0.0059783598
0.0058162184
0.0057763488
0.0057537006
0.0057122878
0.0056641517
0.0056181471
0.0055752138
0.0055351816
0.0054978027
0.0054628875
0.0054303168
0.0054000066
0.005371909
0.0053458766
0.0053218156
0.0052996188
0.0052791732
0.0052603403
0.0052430411
0.0052271728
0.0052128326
0.0052000935
0.0051891675
0.0051796277
0.0051717258
0.0051652661
0.0051611176
0.0051572143
0.0051656702
0.054830124
0.058485605
0.062311546
0.066312612
0.070494
0.074861366
0.079420791
0.084178745
0.08914206
0.094317915
0.099713827
0.10533765
0.11119758
0.11730216
0.12366029
0.1302812
0.13717452
0.14435022
0.15181863
0.15959043
0.16767666
0.17608865
0.184838
0.19393653
0.20339616
0.21322874
0.22344584
0.23405844
0.24507647
0.25650823
0.26835965
0.28063329
0.29332719
0.30643348
0.31993678
0.33381238
0.3480242
0.36252264
0.37724228
0.39209977
0.4069919
0.42179424
0.43636034
0.45052181
0.46408837
0.47685227
0.48859072
0.49907052
0.50805371
0.51530423
0.52059498
0.52371503
0.52447651
0.52272064
0.5183225
0.51119428
0.50128669
0.48858862
0.47312516
0.4549543
0.4341627
0.41086116
0.38518035
0.35726729
0.3272835
0.29540538
0.26182817
0.2267753
0.19051659
0.15340095
0.11592805
0.078935103
0.044189897
0.017595674
0.0075785485
0.0060266596
0.00582733
0.0057805583
0.0057578213
0.0057179053
0.0056697772
0.0056234808
0.0055802476
0.0055399355
0.0055022962
0.0054671363
0.0054343285
0.0054037852
0.0053754575
0.0053492071
0.0053249385
0.0053025439
0.0052819192
0.0052629308
0.0052454977
0.0052295121
0.0052150751
0.0052022568
0.005191273
0.0051816906
0.005173765
0.0051672934
0.0051631522
0.005159254
0.0051676807
0.055393506
0.059018523
0.062812155
0.066779124
0.070924686
0.075254555
0.079774871
0.084492166
0.089413338
0.094545631
0.099896623
0.10547423
0.11128668
0.11734256
0.12365077
0.13022058
0.13706158
0.14418371
0.15159726
0.15931288
0.16734152
0.17569446
0.18438326
0.1934197
0.2028157
0.21258317
0.22273382
0.23327885
0.24422854
0.25559171
0.267375
0.2795819
0.29221167
0.30525793
0.31870708
0.33253647
0.34671238
0.36118781
0.3759002
0.39076922
0.40569483
0.42055573
0.43520849
0.44948752
0.46320546
0.47615515
0.48811442
0.49884965
0.50812134
0.51569072
0.52132682
0.5248138
0.52595803
0.5245943
0.52059101
0.51385364
0.50432655
0.49199292
0.476873
0.45902086
0.43852029
0.41548005
0.39002942
0.36231436
0.33249525
0.30074681
0.2672615
0.23225801
0.19599796
0.15881677
0.12118703
0.08389048
0.048507139
0.020116424
0.0081110633
0.0060890339
0.0058399963
0.0057851913
0.0057617773
0.0057234793
0.0056754561
0.0056288745
0.0055853388
0.0055447429
0.0055068392
0.0054714305
0.0054383809
0.0054075987
0.0053790343
0.0053525597
0.0053280786
0.0053054831
0.0052846776
0.0052655333
0.0052479666
0.0052318644
0.0052173315
0.0052044351
0.005193395
0.0051837711
0.0051758213
0.0051693367
0.0051652015
0.0051613063
0.0051696947
0.055990764
0.059585248
0.063346554
0.06727946
0.071389278
0.075681779
0.080163163
0.084840023
0.089719321
0.094808364
0.10011479
0.10564657
0.11141199
0.11741967
0.12367853
0.13019784
0.13698719
0.14405651
0.15141605
0.15907639
0.16704845
0.17534345
0.18397289
0.19294852
0.20228225
0.21198603
0.22207168
0.23255061
0.24343342
0.25472941
0.26644587
0.2785872
0.29115379
0.30414069
0.31753603
0.33131917
0.34545871
0.35991022
0.37461398
0.38949271
0.40444954
0.41936634
0.43410273
0.44849585
0.46236099
0.47549286
0.48766937
0.49865664
0.50821377
0.5160994
0.5220788
0.52593133
0.5274576
0.52648606
0.52287836
0.51653323
0.50738863
0.49542191
0.48064833
0.46311801
0.44291172
0.42013614
0.39491915
0.36740568
0.33775506
0.30614048
0.27275181
0.2378033
0.20154895
0.16431141
0.12654002
0.088961827
0.053000654
0.02298954
0.0088008876
0.0061706079
0.0058545955
0.0057903583
0.0057656174
0.0057289948
0.0056811867
0.0056343276
0.0055904865
0.0055496025
0.0055114298
0.0054757679
0.0054424719
0.0054114451
0.0053826375
0.0053559327
0.0053312343
0.0053084352
0.0052874475
0.005268147
0.0052504471
0.0052342294
0.0052196018
0.0052066281
0.0051955332
0.0051858689
0.0051778944
0.0051713954
0.0051672649
0.0051633708
0.0051717121
0.056621225
0.060185187
0.063914229
0.067813178
0.071887402
0.076142727
0.080585412
0.085222111
0.090059847
0.09510599
0.10036824
0.10585463
0.11157348
0.11753346
0.12374353
0.13021296
0.13695135
0.1439686
0.15127495
0.15888093
0.16679741
0.17503554
0.18360679
0.19252287
0.20179566
0.21143717
0.22145929
0.23187361
0.24269103
0.2539213
0.26557232
0.27764932
0.2901538
0.30308216
0.31642418
0.33016121
0.34426409
0.35869096
0.37338492
0.38827173
0.40325769
0.41822789
0.43304503
0.44754903
0.46155757
0.47486763
0.48725784
0.49849373
0.50833318
0.51653235
0.5228529
0.52706944
0.52897694
0.52839748
0.52518598
0.51923439
0.51047414
0.49887668
0.48445219
0.46724669
0.44733786
0.42483025
0.3998503
0.37254194
0.34306355
0.31158691
0.2782995
0.24341147
0.2071697
0.16988491
0.13198523
0.094146472
0.057659082
0.026208571
0.0096862207
0.0062783907
0.0058716977
0.0057961912
0.0057694123
0.00573444
0.005686967
0.0056398391
0.0055956894
0.0055545125
0.005516066
0.0054801463
0.005446599
0.005415322
0.005386265
0.0053593242
0.0053344043
0.0053113988
0.0052902278
0.0052707713
0.005252939
0.005236607
0.0052218857
0.0052088355
0.0051976873
0.0051879837
0.005179984
0.0051734693
0.0051693418
0.0051654474
0.0051737332
0.057284238
0.060817774
0.064514693
0.068379869
0.072418719
0.076637126
0.081041404
0.085638265
0.090434796
0.095438427
0.10065692
0.10609837
0.11177114
0.11768395
0.12384579
0.13026596
0.13695406
0.14391998
0.15117394
0.15872644
0.1665883
0.17477062
0.18328483
0.19214259
0.20135578
0.2109364
0.22089645
0.23124767
0.24200122
0.25316726
0.26475427
0.27676828
0.28921181
0.30208256
0.31537192
0.32906313
0.34312926
0.35753096
0.37221415
0.38710759
0.40212077
0.41714201
0.43203714
0.44664895
0.46079753
0.47428174
0.48688194
0.49836301
0.50848157
0.51699151
0.52365094
0.52822986
0.53051763
0.53033003
0.52751522
0.52195833
0.51358419
0.50235826
0.48828552
0.47140777
0.45179954
0.42956314
0.40482358
0.37772381
0.34842129
0.31708659
0.28390499
0.24908279
0.21286028
0.17553673
0.13752064
0.099441754
0.06247303
0.029758031
0.010809229
0.0064219137
0.0058921349
0.0058028294
0.0057732538
0.0057398077
0.0056927941
0.0056454083
0.005600946
0.0055594705
0.0055207451
0.0054845626
0.0054507593
0.0054192266
0.0053899148
0.0053627325
0.0053375869
0.0053143729
0.0052930178
0.0052734057
0.0052554419
0.005238997
0.0052241831
0.005211057
0.0051998569
0.0051901154
0.0051820897
0.0051755577
0.0051714316
0.0051675357
0.0051757581
0.057979189
0.061482484
0.065147504
0.068979167
0.072982938
0.07716475
0.081530971
0.086088372
0.090844098
0.095805643
0.10098083
0.10637781
0.11200501
0.11787119
0.12398537
0.13035689
0.13699535
0.14391066
0.15111301
0.15861288
0.16642105
0.17454859
0.18300687
0.1918075
0.20096237
0.21048349
0.22038291
0.23067252
0.24136373
0.25246706
0.26399155
0.27594396
0.28832778
0.30114197
0.31437944
0.32802529
0.34205476
0.35643096
0.37110258
0.38600139
0.40104006
0.41611014
0.43108065
0.4457973
0.46008269
0.4737376
0.48654359
0.49826639
0.50866084
0.51747868
0.52447464
0.52941418
0.53208115
0.53228504
0.5298673
0.52470615
0.51671981
0.50586758
0.49214918
0.47560207
0.45629751
0.43433554
0.40983966
0.38295189
0.35382887
0.32264002
0.28956866
0.25481752
0.21862074
0.18126696
0.14314566
0.10484456
0.067436173
0.033615953
0.012214287
0.0066141118
0.0059170926
0.005810409
0.0057772451
0.0057450907
0.0056986639
0.0056510345
0.005606255
0.0055644744
0.0055254641
0.0054890137
0.0054549495
0.0054231564
0.0053935846
0.0053661558
0.0053407807
0.0053173565
0.0052958169
0.0052760497
0.0052579556
0.0052413993
0.0052264938
0.0052132924
0.0052020419
0.0051922636
0.0051842111
0.0051776603
0.0051735337
0.0051696355
0.0051777873
0.058705527
0.062178848
0.065812276
0.069610764
0.073579821
0.077725426
0.082054
0.086572369
0.091287736
0.096207658
0.10134002
0.10669302
0.11227517
0.11809525
0.12416235
0.13048581
0.13707529
0.14394068
0.15109217
0.15854024
0.16629561
0.17436934
0.18277274
0.19151742
0.20061521
0.21007815
0.21991835
0.23014783
0.24077822
0.25182039
0.26328386
0.27517611
0.28750155
0.30026032
0.31344682
0.32704792
0.34104096
0.35539151
0.37005094
0.38495405
0.40001665
0.41513355
0.43017697
0.44499559
0.45941463
0.47323687
0.48624508
0.49820561
0.50887271
0.51799552
0.52532555
0.53062384
0.53366882
0.53426375
0.53224332
0.52747888
0.5198819
0.5094055
0.49604397
0.47983034
0.4608325
0.43914812
0.41489919
0.38822678
0.3592868
0.32824765
0.29529087
0.2606159
0.22445116
0.18707529
0.14885986
0.11035479
0.072545954
0.037756995
0.013946216
0.0068724695
0.0059482723
0.0058190652
0.0057814796
0.0057502761
0.0057045702
0.0056567176
0.0056116152
0.0055695218
0.0055302199
0.0054934962
0.0054591664
0.0054271083
0.005397272
0.0053695925
0.0053439845
0.0053203485
0.0052986244
0.005278703
0.0052604799
0.0052438139
0.0052288178
0.0052155415
0.0052042418
0.0051944279
0.0051863479
0.0051797765
0.0051756476
0.0051717466
0.0051798209
0.059462796
0.062906488
0.066508704
0.070274427
0.074209203
0.078319052
0.082610444
0.087090258
0.091765756
0.096644551
0.10173459
0.10704414
0.11258176
0.11835629
0.12437687
0.13065288
0.13719399
0.14401013
0.15111148
0.15850851
0.16621194
0.17423278
0.18258232
0.19127212
0.20031403
0.20972009
0.21950245
0.22967324
0.24024431
0.25122683
0.26263083
0.2744644
0.28673284
0.29943742
0.31257395
0.32613103
0.34008805
0.35441295
0.36905979
0.38396629
0.39905144
0.4142133
0.42932729
0.44424515
0.45879477
0.47278103
0.48598804
0.49818256
0.5091187
0.51854353
0.52620508
0.53186016
0.53528184
0.53626722
0.53464427
0.5302774
0.52307129
0.51297277
0.49997059
0.48409325
0.46540513
0.44400149
0.42000275
0.39354905
0.36479559
0.33390993
0.30107198
0.26647819
0.23035164
0.1929617
0.15466315
0.11597313
0.077795422
0.042155629
0.016045144
0.0072200274
0.0059881005
0.0058289543
0.0057860263
0.0057553497
0.0057105038
0.0056624578
0.005617026
0.0055746108
0.0055350096
0.0054980062
0.0054634061
0.0054310791
0.0054009748
0.0053730407
0.0053471969
0.0053233482
0.0053014399
0.0052813652
0.0052630147
0.0052462409
0.005231155
0.0052178041
0.0052064563
0.0051966081
0.0051884996
0.0051819059
0.0051777726
0.0051738688
0.0051818594
0.060250671
0.063665145
0.067236595
0.070970026
0.074871012
0.078945613
0.08320034
0.087642123
0.092278277
0.097116476
0.10216473
0.10743136
0.11292499
0.11865452
0.12462913
0.13085827
0.13735162
0.14411914
0.15117104
0.15851776
0.16617004
0.17413885
0.18243547
0.19107145
0.2000586
0.20940899
0.21913482
0.22924833
0.23976154
0.25068594
0.26203198
0.27380837
0.28602124
0.29867293
0.3117606
0.32527452
0.33919607
0.35349548
0.36812947
0.38303865
0.39814514
0.41335024
0.42853262
0.44354712
0.45822434
0.47237138
0.4857738
0.4981989
0.50940033
0.51912404
0.52711448
0.53312428
0.53692127
0.53829642
0.537071
0.53310247
0.52628866
0.51657002
0.50392965
0.48839137
0.47001599
0.44889622
0.42515089