/*--------------------------------*- C++ -*----------------------------------*\
| =========                 |                                                 |
| \\      /  F ield         | OpenFOAM: The Open Source CFD Toolbox           |
|  \\    /   O peration     | Version:  2406                                  |
|   \\  /    A nd           | Website:  www.openfoam.com                      |
|    \\/     M anipulation  |                                                 |
\*---------------------------------------------------------------------------*/
FoamFile
{
    version     2.0;
    format      ascii;
    arch        "LSB;label=32;scalar=64";
    class       volScalarField;
    location    "0.013";
    object      p;
}
// * * * * * * * * * * * * * * * * * * * * * * * * * * * * * * * * * * * * * //

dimensions      [1 -1 -2 0 0 0 0];

internalField   nonuniform List<scalar> 
23204
(
101302.79
101303.29
101303.68
101303.94
101304.04
101285.6
101287.57
101289.42
101291.16
101292.78
101294.29
101295.69
101296.97
101298.15
101299.21
101300.17
101301.02
101301.76
101302.39
101302.9
101303.28
101303.54
101303.64
101228.14
101230.69
101233.7
101235.07
101239.53
101244.19
101248.02
101251.7
101255.24
101258.63
101261.88
101264.98
101267.95
101270.79
101273.49
101276.07
101278.52
101280.84
101283.05
101285.14
101287.11
101288.97
101290.71
101292.34
101293.86
101295.26
101296.55
101297.73
101298.8
101299.76
101300.61
101301.35
101301.98
101302.49
101302.88
101303.15
101303.25
100898.56
100913.98
100929.46
100944.99
100960.51
100975.99
100991.39
101006.67
101021.76
101036.63
101051.2
101065.43
101079.26
101092.63
101105.48
101117.78
101129.47
101140.52
101150.89
101160.56
101169.51
101177.73
101185.23
101192
101198.07
101203.44
101208.16
101212.25
101215.77
101218.72
101221.43
101223.84
101225.94
101227.98
101230.38
101233.41
101234.8
101238.77
101243.64
101247.45
101251.15
101254.7
101258.1
101261.35
101264.46
101267.44
101270.28
101272.99
101275.57
101278.03
101280.36
101282.58
101284.67
101286.65
101288.51
101290.26
101291.9
101293.42
101294.82
101296.12
101297.3
101298.38
101299.34
101300.2
101300.94
101301.58
101302.09
101302.48
101302.74
101302.85
100498.57
100506.42
100514.5
100522.83
100531.39
100540.21
100549.27
100558.59
100568.15
100577.97
100588.04
100598.37
100608.94
100619.77
100630.84
100642.17
100653.74
100665.55
100677.6
100689.89
100702.41
100715.16
100728.14
100741.34
100754.75
100768.38
100782.21
100796.25
100810.48
100824.9
100839.49
100854.25
100869.16
100884.22
100899.39
100914.66
100930.01
100945.4
100960.81
100976.18
100991.49
101006.69
101021.72
101036.53
101051.07
101065.27
101079.08
101092.45
101105.31
101117.62
101129.33
101140.4
101150.79
101160.49
101169.47
101177.72
101185.24
101192.04
101198.12
101203.5
101208.23
101212.32
101215.84
101218.82
101221.45
101223.84
101225.88
101227.84
101230.11
101233.11
101234.61
101238.02
101243.08
101246.9
101250.61
101254.16
101257.56
101260.82
101263.94
101266.93
101269.77
101272.49
101275.08
101277.55
101279.89
101282.1
101284.21
101286.19
101288.06
101289.81
101291.45
101292.98
101294.39
101295.69
101296.88
101297.96
101298.92
101299.78
101300.53
101301.17
101301.68
101302.07
101302.34
101302.44
100507.68
100515.3
100523.14
100531.23
100539.55
100548.12
100556.93
100565.99
100575.29
100584.85
100594.66
100604.71
100615.02
100625.58
100636.39
100647.44
100658.75
100670.29
100682.08
100694.11
100706.37
100718.87
100731.6
100744.55
100757.73
100771.12
100784.73
100798.54
100812.56
100826.77
100841.16
100855.73
100870.46
100885.34
100900.35
100915.47
100930.68
100945.94
100961.22
100976.49
100991.71
101006.82
101021.78
101036.54
101051.03
101065.21
101079
101092.36
101105.22
101117.54
101129.26
101140.35
101150.77
101160.49
101169.49
101177.76
101185.3
101192.11
101198.21
101203.6
101208.33
101212.42
101215.93
101218.91
101221.46
101223.73
101225.84
101227.8
101229.88
101232.8
101234.48
101237.32
101242.52
101246.34
101250.07
101253.62
101257.03
101260.3
101263.43
101266.41
101269.27
101271.99
101274.59
101277.06
101279.41
101281.63
101283.74
101285.73
101287.6
101289.36
101291.01
101292.54
101293.95
101295.26
101296.45
101297.53
101298.5
101299.37
101300.12
101300.75
101301.27
101301.66
101301.93
101302.03
100516.84
100524.23
100531.84
100539.69
100547.77
100556.09
100564.65
100573.46
100582.51
100591.81
100601.35
100611.15
100621.19
100631.49
100642.03
100652.82
100663.86
100675.15
100686.68
100698.45
100710.46
100722.7
100735.18
100747.9
100760.83
100773.99
100787.37
100800.96
100814.76
100828.76
100842.95
100857.32
100871.87
100886.58
100901.42
100916.39
100931.44
100946.57
100961.73
100976.89
100992.01
101007.04
101021.93
101036.63
101051.08
101065.22
101078.99
101092.33
101105.19
101117.51
101129.24
101140.35
101150.78
101160.52
101169.54
101177.83
101185.39
101192.21
101198.32
101203.72
101208.44
101212.53
101216.04
101219
101221.51
101223.7
101225.82
101227.75
101229.69
101232.49
101234.37
101236.67
101241.95
101245.8
101249.53
101253.09
101256.51
101259.78
101262.91
101265.91
101268.77
101271.5
101274.1
101276.57
101278.93
101281.16
101283.27
101285.26
101287.14
101288.91
101290.56
101292.09
101293.52
101294.82
101296.02
101297.11
101298.08
101298.95
101299.7
101300.34
101300.86
101301.25
101301.52
101301.63
100526.04
100533.2
100540.58
100548.19
100556.04
100564.12
100572.43
100580.99
100589.79
100598.83
100608.12
100617.65
100627.44
100637.47
100647.75
100658.29
100669.07
100680.09
100691.36
100702.88
100714.64
100726.64
100738.87
100751.34
100764.04
100776.97
100790.12
100803.49
100817.07
100830.86
100844.85
100859.03
100873.39
100887.92
100902.59
100917.39
100932.3
100947.29
100962.33
100977.37
100992.39
101007.33
101022.14
101036.78
101051.18
101065.28
101079.02
101092.35
101105.2
101117.52
101129.26
101140.38
101150.83
101160.58
101169.62
101177.93
101185.5
101192.33
101198.44
101203.85
101208.58
101212.67
101216.16
101219.12
101221.59
101223.78
101225.84
101227.71
101229.54
101232.18
101234.26
101236.09
101241.36
101245.26
101249
101252.56
101255.98
101259.26
101262.4
101265.4
101268.26
101271
101273.61
101276.09
101278.45
101280.68
101282.8
101284.8
101286.69
101288.45
101290.11
101291.65
101293.07
101294.39
101295.59
101296.68
101297.65
101298.52
101299.28
101299.92
101300.44
101300.84
101301.11
101301.21
100528.55
100535.27
100542.2
100549.36
100556.74
100564.35
100572.18
100580.26
100588.57
100597.12
100605.91
100614.94
100624.22
100633.75
100643.53
100653.56
100663.83
100674.35
100685.12
100696.14
100707.41
100718.92
100730.67
100742.66
100754.89
100767.35
100780.05
100792.97
100806.12
100819.49
100833.06
100846.85
100860.83
100875.01
100889.35
100903.85
100918.49
100933.25
100948.09
100963
100977.93
100992.84
101007.69
101022.42
101036.99
101051.34
101065.39
101079.11
101092.42
101105.26
101117.57
101129.32
101140.44
101150.9
101160.67
101169.72
101178.04
101185.62
101192.47
101198.59
101204.01
101208.74
101212.82
101216.31
101219.26
101221.73
101223.92
101225.91
101227.69
101229.41
101231.89
101234.13
101235.61
101240.73
101244.73
101248.48
101252.04
101255.46
101258.75
101261.89
101264.89
101267.76
101270.5
101273.12
101275.6
101277.97
101280.21
101282.33
101284.33
101286.22
101288
101289.66
101291.2
101292.63
101293.95
101295.15
101296.24
101297.23
101298.1
101298.86
101299.5
101300.02
101300.42
101300.69
101300.8
100538.03
100544.53
100551.24
100558.17
100565.32
100572.69
100580.29
100588.13
100596.19
100604.5
100613.04
100621.83
100630.86
100640.13
100649.66
100659.43
100669.45
100679.72
100690.24
100701.01
100712.02
100723.28
100734.79
100746.54
100758.53
100770.76
100783.22
100795.92
100808.85
100822
100835.37
100848.95
100862.73
100876.72
100890.88
100905.2
100919.67
100934.28
100948.98
100963.75
100978.56
100993.36
101008.11
101022.76
101037.26
101051.55
101065.56
101079.24
101092.52
101105.35
101117.66
101129.4
101140.53
101151
101160.78
101169.85
101178.18
101185.78
101192.63
101198.76
101204.18
101208.91
101213
101216.48
101219.42
101221.9
101224.03
101225.99
101227.7
101229.32
101231.62
101233.96
101235.22
101240.08
101244.21
101247.96
101251.52
101254.95
101258.23
101261.38
101264.39
101267.27
101270.01
101272.63
101275.12
101277.49
101279.73
101281.86
101283.87
101285.76
101287.54
101289.2
101290.75
101292.19
101293.51
101294.71
101295.81
101296.79
101297.67
101298.43
101299.08
101299.6
101300
101300.27
101300.38
100547.52
100553.8
100560.29
100567
100573.92
100581.07
100588.43
100596.03
100603.86
100611.92
100620.22
100628.76
100637.55
100646.57
100655.85
100665.37
100675.14
100685.16
100695.43
100705.95
100716.72
100727.74
100739
100750.51
100762.27
100774.26
100786.5
100798.97
100811.67
100824.61
100837.77
100851.14
100864.73
100878.52
100892.49
100906.64
100920.95
100935.39
100949.94
100964.58
100979.26
100993.95
101008.6
101023.16
101037.59
101051.81
101065.77
101079.41
101092.67
101105.48
101117.78
101129.52
101140.65
101151.13
101160.92
101170
101178.34
101185.95
101192.82
101198.95
101204.38
101209.11
101213.2
101216.67
101219.61
101222.07
101224.14
101225.95
101227.73
101229.34
101231.38
101233.78
101234.9
101239.4
101243.71
101247.44
101251.01
101254.44
101257.73
101260.88
101263.89
101266.77
101269.52
101272.14
101274.64
101277.01
101279.26
101281.39
101283.4
101285.3
101287.08
101288.75
101290.3
101291.74
101293.06
101294.27
101295.37
101296.36
101297.24
101298
101298.65
101299.18
101299.58
101299.85
101299.96
100557.01
100563.08
100569.36
100575.84
100582.55
100589.46
100596.6
100603.97
100611.56
100619.39
100627.45
100635.75
100644.29
100653.07
100662.1
100671.38
100680.9
100690.68
100700.7
100710.98
100721.5
100732.28
100743.3
100754.57
100766.09
100777.86
100789.86
100802.11
100814.59
100827.31
100840.26
100853.43
100866.82
100880.41
100894.2
100908.17
100922.31
100936.59
100950.99
100965.48
100980.04
100994.61
101009.15
101023.63
101037.97
101052.13
101066.03
101079.63
101092.86
101105.64
101117.93
101129.67
101140.8
101151.28
101161.08
101170.17
101178.53
101186.15
101193.02
101199.17
101204.6
101209.34
101213.42
101216.89
101219.81
101222.25
101224.28
101226.01
101227.79
101229.33
101231.17
101233.59
101234.67
101238.71
101243.21
101246.93
101250.5
101253.93
101257.22
101260.38
101263.39
101266.27
101269.03
101271.65
101274.15
101276.53
101278.78
101280.92
101282.93
101284.83
101286.62
101288.29
101289.85
101291.29
101292.62
101293.83
101294.93
101295.92
101296.8
101297.57
101298.22
101298.75
101299.15
101299.42
101299.53
100566.49
100572.36
100578.43
100584.7
100591.18
100597.88
100604.79
100611.93
100619.29
100626.88
100634.71
100642.77
100651.08
100659.62
100668.41
100677.44
100686.73
100696.26
100706.04
100716.08
100726.36
100736.9
100747.68
100758.72
100770.01
100781.54
100793.32
100805.34
100817.61
100830.11
100842.85
100855.81
100869
100882.4
100896
100909.79
100923.75
100937.87
100952.12
100966.47
100980.89
100995.34
101009.77
101024.15
101038.41
101052.5
101066.35
101079.9
101093.09
101105.85
101118.12
101129.85
101140.98
101151.47
101161.27
101170.37
101178.74
101186.37
101193.25
101199.41
101204.84
101209.58
101213.66
101217.13
101220.04
101222.46
101224.45
101226.19
101227.93
101229.35
101231.01
101233.42
101234.54
101238.02
101242.72
101246.43
101250
101253.43
101256.72
101259.88
101262.9
101265.78
101268.54
101271.17
101273.67
101276.05
101278.31
101280.44
101282.46
101284.37
101286.16
101287.83
101289.39
101290.84
101292.17
101293.38
101294.49
101295.48
101296.37
101297.13
101297.79
101298.32
101298.72
101298.99
101299.1
100575.96
100581.63
100587.48
100593.55
100599.82
100606.3
100612.99
100619.91
100627.04
100634.41
100642.01
100649.84
100657.9
100666.21
100674.77
100683.56
100692.61
100701.9
100711.45
100721.24
100731.29
100741.59
100752.15
100762.95
100774
100785.31
100796.86
100808.66
100820.71
100833
100845.52
100858.28
100871.27
100884.47
100897.88
100911.49
100925.28
100939.23
100953.32
100967.53
100981.81
100996.14
101010.46
101024.74
101038.91
101052.92
101066.71
101080.21
101093.36
101106.09
101118.35
101130.07
101141.19
101151.68
101161.49
101170.6
101178.97
101186.61
101193.51
101199.67
101205.11
101209.85
101213.93
101217.39
101220.29
101222.7
101224.68
101226.41
101228.09
101229.41
101230.89
101233.26
101234.5
101237.37
101242.23
101245.93
101249.5
101252.94
101256.23
101259.39
101262.41
101265.29
101268.05
101270.68
101273.19
101275.57
101277.83
101279.97
101282
101283.9
101285.7
101287.37
101288.94
101290.38
101291.72
101292.94
101294.05
101295.04
101295.93
101296.7
101297.35
101297.88
101298.29
101298.56
101298.67
100585.39
100590.86
100596.52
100602.38
100608.44
100614.71
100621.19
100627.89
100634.81
100641.95
100649.32
100656.93
100664.77
100672.85
100681.17
100689.73
100698.55
100707.61
100716.92
100726.48
100736.29
100746.36
100756.68
100767.26
100778.08
100789.16
100800.49
100812.07
100823.9
100835.97
100848.29
100860.84
100873.62
100886.63
100899.85
100913.28
100926.89
100940.68
100954.61
100968.66
100982.81
100997.01
101011.22
101025.39
101039.47
101053.4
101067.12
101080.57
101093.68
101106.38
101118.61
101130.32
101141.44
101151.92
101161.74
101170.85
101179.23
101186.88
101193.78
101199.95
101205.39
101210.14
101214.22
101217.68
101220.57
101222.96
101224.94
101226.6
101228.11
101229.48
101230.87
101233.09
101234.5
101236.77
101241.73
101245.43
101249.02
101252.45
101255.74
101258.9
101261.92
101264.81
101267.57
101270.2
101272.71
101275.09
101277.36
101279.5
101281.53
101283.44
101285.23
101286.91
101288.48
101289.93
101291.26
101292.49
101293.6
101294.6
101295.49
101296.26
101296.91
101297.45
101297.85
101298.13
101298.24
100594.78
100600.07
100605.54
100611.2
100617.06
100623.12
100629.39
100635.88
100642.58
100649.51
100656.66
100664.05
100671.66
100679.52
100687.61
100695.95
100704.53
100713.36
100722.44
100731.78
100741.36
100751.2
100761.29
100771.64
100782.24
100793.1
100804.21
100815.57
100827.18
100839.04
100851.14
100863.49
100876.07
100888.88
100901.91
100915.15
100928.59
100942.2
100955.97
100969.88
100983.88
100997.95
101012.04
101026.1
101040.09
101053.94
101067.59
101080.98
101094.04
101106.7
101118.91
101130.6
101141.71
101152.19
101162.01
101171.13
101179.52
101187.17
101194.08
101200.26
101205.7
101210.45
101214.53
101217.99
101220.87
101223.24
101225.19
101226.78
101228.12
101229.55
101230.92
101232.92
101234.51
101236.26
101241.23
101244.95
101248.54
101251.97
101255.26
101258.41
101261.43
101264.32
101267.08
101269.72
101272.23
101274.62
101276.88
101279.03
101281.06
101282.97
101284.77
101286.45
101288.02
101289.47
101290.81
101292.04
101293.15
101294.15
101295.04
101295.82
101296.47
101297.01
101297.41
101297.69
101297.8
100604.12
100609.23
100614.51
100619.98
100625.64
100631.51
100637.58
100643.86
100650.36
100657.08
100664.01
100671.18
100678.58
100686.21
100694.09
100702.2
100710.56
100719.17
100728.02
100737.13
100746.49
100756.1
100765.97
100776.1
100786.47
100797.11
100808
100819.14
100830.54
100842.18
100854.08
100866.22
100878.6
100891.21
100904.05
100917.11
100930.37
100943.81
100957.42
100971.17
100985.02
100998.96
101012.92
101026.87
101040.76
101054.52
101068.1
101081.43
101094.44
101107.07
101119.25
101130.92
101142.01
101152.49
101162.31
101171.43
101179.83
101187.49
101194.4
101200.58
101206.04
101210.79
101214.87
101218.32
101221.19
101223.55
101225.46
101227.01
101228.29
101229.68
101230.94
101232.76
101234.49
101235.84
101240.69
101244.47
101248.07
101251.49
101254.78
101257.93
101260.95
101263.84
101266.61
101269.24
101271.75
101274.14
101276.41
101278.55
101280.59
101282.5
101284.3
101285.99
101287.56
101289.01
101290.35
101291.58
101292.7
101293.7
101294.6
101295.37
101296.03
101296.57
101296.97
101297.25
101297.36
100613.4
100618.33
100623.43
100628.72
100634.2
100639.87
100645.75
100651.83
100658.13
100664.64
100671.37
100678.33
100685.52
100692.94
100700.59
100708.49
100716.63
100725.02
100733.65
100742.54
100751.68
100761.07
100770.72
100780.62
100790.78
100801.19
100811.87
100822.79
100833.98
100845.41
100857.1
100869.04
100881.22
100893.63
100906.28
100919.15
100932.23
100945.5
100958.94
100972.53
100986.24
101000.04
101013.88
101027.71
101041.5
101055.17
101068.67
101081.93
101094.89
101107.48
101119.62
101131.27
101142.35
101152.82
101162.64
101171.76
101180.16
101187.83
101194.75
101200.93
101206.39
101211.14
101215.22
101218.67
101221.53
101223.87
101225.76
101227.29
101228.54
101229.88
101230.99
101232.61
101234.43
101235.52
101240.13
101244.01
101247.6
101251.02
101254.3
101257.46
101260.48
101263.37
101266.13
101268.76
101271.28
101273.66
101275.93
101278.08
101280.12
101282.03
101283.83
101285.52
101287.09
101288.55
101289.9
101291.13
101292.25
101293.25
101294.15
101294.92
101295.58
101296.12
101296.53
101296.81
101296.92
100622.6
100627.36
100632.3
100637.41
100642.71
100648.2
100653.89
100659.79
100665.89
100672.2
100678.73
100685.49
100692.47
100699.68
100707.13
100714.81
100722.74
100730.91
100739.33
100748
100756.92
100766.1
100775.52
100785.21
100795.15
100805.35
100815.81
100826.52
100837.5
100848.72
100860.2
100871.93
100883.91
100896.13
100908.59
100921.27
100934.17
100947.26
100960.54
100973.97
100987.53
101001.19
101014.9
101028.62
101042.29
101055.87
101069.29
101082.48
101095.38
101107.92
101120.04
101131.66
101142.72
101153.18
101162.99
101172.11
101180.52
101188.19
101195.12
101201.31
101206.77
101211.52
101215.6
101219.04
101221.9
101224.22
101226.08
101227.58
101228.81
101230.11
101231.09
101232.5
101234.35
101235.29
101239.54
101243.56
101247.14
101250.55
101253.84
101256.99
101260.01
101262.89
101265.66
101268.29
101270.8
101273.19
101275.46
101277.61
101279.65
101281.56
101283.37
101285.06
101286.63
101288.09
101289.44
101290.67
101291.79
101292.8
101293.7
101294.48
101295.14
101295.68
101296.08
101296.36
101296.47
100631.71
100636.32
100641.1
100646.04
100651.17
100656.49
100662
100667.71
100673.62
100679.75
100686.09
100692.64
100699.43
100706.44
100713.68
100721.16
100728.88
100736.84
100745.05
100753.51
100762.21
100771.18
100780.39
100789.86
100799.59
100809.58
100819.82
100830.33
100841.09
100852.11
100863.38
100874.91
100886.69
100898.71
100910.98
100923.47
100936.19
100949.11
100962.21
100975.48
100988.89
101002.41
101015.98
101029.58
101043.15
101056.63
101069.96
101083.08
101095.92
101108.41
101120.49
101132.08
101143.13
101153.57
101163.38
101172.5
101180.9
101188.58
101195.51
101201.7
101207.17
101211.92
101216
101219.44
101222.28
101224.59
101226.43
101227.9
101229.09
101230.2
101231.21
101232.48
101234.28
101235.15
101238.93
101243.13
101246.69
101250.1
101253.38
101256.52
101259.54
101262.43
101265.19
101267.82
101270.33
101272.72
101274.99
101277.14
101279.18
101281.1
101282.9
101284.59
101286.17
101287.63
101288.98
101290.21
101291.34
101292.34
101293.24
101294.02
101294.69
101295.23
101295.63
101295.92
101296.03
100640.73
100645.2
100649.82
100654.61
100659.58
100664.73
100670.07
100675.6
100681.33
100687.28
100693.43
100699.8
100706.39
100713.2
100720.25
100727.53
100735.04
100742.8
100750.8
100759.06
100767.56
100776.31
100785.31
100794.58
100804.1
100813.87
100823.91
100834.2
100844.76
100855.57
100866.64
100877.97
100889.55
100901.38
100913.45
100925.75
100938.28
100951.03
100963.96
100977.07
100990.33
101003.69
101017.14
101030.61
101044.07
101057.45
101070.69
101083.73
101096.51
101108.95
101120.98
101132.54
101143.56
101153.99
101163.79
101172.9
101181.31
101188.99
101195.92
101202.12
101207.59
101212.34
101216.42
101219.85
101222.69
101224.99
101226.8
101228.24
101229.38
101230.3
101231.35
101232.51
101234.23
101235.13
101238.33
101242.7
101246.25
101249.65
101252.92
101256.07
101259.08
101261.96
101264.72
101267.35
101269.86
101272.25
101274.52
101276.67
101278.71
101280.63
101282.43
101284.12
101285.7
101287.17
101288.52
101289.75
101290.88
101291.89
101292.79
101293.57
101294.23
101294.78
101295.18
101295.47
101295.58
100649.65
100653.98
100658.46
100663.1
100667.91
100672.91
100678.08
100683.45
100689.01
100694.78
100700.75
100706.94
100713.34
100719.97
100726.82
100733.91
100741.23
100748.79
100756.59
100764.64
100772.94
100781.49
100790.29
100799.35
100808.66
100818.23
100828.06
100838.15
100848.5
100859.11
100869.97
100881.1
100892.48
100904.11
100915.99
100928.11
100940.46
100953.03
100965.79
100978.74
100991.83
101005.05
101018.36
101031.7
101045.04
101058.32
101071.47
101084.43
101097.14
101109.52
101121.51
101133.03
101144.03
101154.45
101164.23
101173.34
101181.74
101189.42
101196.36
101202.56
101208.03
101212.78
101216.86
101220.29
101223.12
101225.4
101227.2
101228.6
101229.69
101230.57
101231.56
101232.55
101234.19
101235.2
101237.77
101242.28
101245.81
101249.21
101252.48
101255.61
101258.62
101261.5
101264.26
101266.89
101269.4
101271.78
101274.05
101276.2
101278.24
101280.16
101281.96
101283.66
101285.24
101286.7
101288.05
101289.29
101290.42
101291.43
101292.33
101293.11
101293.78
101294.32
101294.73
101295.01
101295.12
100658.46
100662.66
100667.01
100671.51
100676.18
100681.02
100686.05
100691.25
100696.66
100702.25
100708.06
100714.07
100720.29
100726.74
100733.41
100740.31
100747.44
100754.81
100762.41
100770.27
100778.37
100786.71
100795.31
100804.17
100813.28
100822.65
100832.27
100842.16
100852.31
100862.71
100873.38
100884.31
100895.49
100906.93
100918.62
100930.55
100942.71
100955.1
100967.69
100980.47
100993.41
101006.48
101019.65
101032.86
101046.08
101059.25
101072.3
101085.18
101097.82
101110.14
101122.08
101133.56
101144.53
101154.93
101164.7
101173.8
101182.2
101189.88
101196.81
101203.02
101208.49
101213.25
101217.32
101220.75
101223.57
101225.84
101227.62
101229
101230.06
101230.9
101231.82
101232.63
101234.14
101235.31
101237.26
101241.86
101245.38
101248.78
101252.04
101255.17
101258.17
101261.05
101263.8
101266.43
101268.93
101271.32
101273.59
101275.74
101277.77
101279.69
101281.5
101283.19
101284.77
101286.23
101287.59
101288.83
101289.95
101290.97
101291.87
101292.66
101293.32
101293.87
101294.27
101294.56
101294.67
100667.15
100671.24
100675.46
100679.83
100684.37
100689.07
100693.95
100699.01
100704.25
100709.69
100715.33
100721.18
100727.23
100733.5
100739.99
100746.71
100753.66
100760.84
100768.26
100775.92
100783.83
100791.98
100800.39
100809.04
100817.95
100827.12
100836.55
100846.23
100856.18
100866.39
100876.86
100887.59
100898.58
100909.82
100921.32
100933.06
100945.04
100957.25
100969.67
100982.28
100995.06
101007.98
101021
101034.09
101047.18
101060.24
101073.19
101085.98
101098.54
101110.8
101122.69
101134.13
101145.07
101155.44
101165.2
101174.29
101182.68
101190.36
101197.3
101203.5
101208.97
101213.73
101217.8
101221.23
101224.04
101226.3
101228.06
101229.41
101230.44
101231.24
101232.12
101232.78
101234.11
101235.41
101236.86
101241.43
101244.96
101248.36
101251.61
101254.73
101257.73
101260.6
101263.35
101265.97
101268.47
101270.86
101273.12
101275.27
101277.3
101279.22
101281.03
101282.72
101284.3
101285.77
101287.12
101288.36
101289.49
101290.51
101291.41
101292.2
101292.86
101293.41
101293.82
101294.1
101294.21
100675.72
100679.7
100683.81
100688.06
100692.47
100697.04
100701.78
100706.7
100711.8
100717.09
100722.57
100728.26
100734.15
100740.26
100746.58
100753.12
100759.89
100766.89
100774.13
100781.61
100789.32
100797.29
100805.5
100813.96
100822.68
100831.65
100840.88
100850.37
100860.12
100870.13
100880.41
100890.94
100901.74
100912.79
100924.1
100935.65
100947.45
100959.48
100971.72
100984.17
100996.79
101009.55
101022.43
101035.37
101048.34
101061.28
101074.14
101086.84
101099.32
101111.51
101123.34
101134.74
101145.64
101155.99
101165.72
101174.8
101183.19
101190.86
101197.8
101204
101209.47
101214.23
101218.3
101221.72
101224.53
101226.78
101228.52
101229.84
101230.84
101231.57
101232.28
101232.95
101234.16
101235.47
101236.56
101240.97
101244.55
101247.94
101251.18
101254.3
101257.29
101260.16
101262.9
101265.52
101268.02
101270.4
101272.66
101274.8
101276.84
101278.76
101280.56
101282.25
101283.83
101285.3
101286.66
101287.9
101289.03
101290.04
101290.95
101291.73
101292.4
101292.95
101293.36
101293.64
101293.75
100684.16
100688.04
100692.05
100696.19
100700.48
100704.94
100709.55
100714.33
100719.3
100724.44
100729.78
100735.31
100741.05
100747
100753.15
100759.53
100766.13
100772.96
100780.02
100787.31
100794.85
100802.63
100810.65
100818.93
100827.46
100836.24
100845.27
100854.57
100864.13
100873.94
100884.02
100894.36
100904.97
100915.83
100926.95
100938.32
100949.93
100961.78
100973.85
100986.12
100998.58
101011.19
101023.92
101036.73
101049.57
101062.39
101075.14
101087.74
101100.14
101112.26
101124.03
101135.38
101146.25
101156.57
101166.28
101175.35
101183.72
101191.39
101198.32
101204.52
101210
101214.76
101218.83
101222.24
101225.04
101227.28
101229.01
101230.3
101231.25
101231.93
101232.46
101233.14
101234.22
101235.51
101236.36
101240.49
101244.15
101247.54
101250.77
101253.88
101256.86
101259.72
101262.45
101265.07
101267.56
101269.94
101272.2
101274.34
101276.37
101278.29
101280.09
101281.79
101283.37
101284.83
101286.19
101287.43
101288.56
101289.58
101290.48
101291.27
101291.94
101292.48
101292.9
101293.18
101293.29
100692.47
100696.27
100700.17
100704.22
100708.41
100712.74
100717.24
100721.9
100726.74
100731.75
100736.95
100742.34
100747.93
100753.72
100759.72
100765.94
100772.37
100779.03
100785.92
100793.04
100800.4
100808
100815.85
100823.94
100832.28
100840.87
100849.72
100858.83
100868.19
100877.82
100887.7
100897.85
100908.27
100918.94
100929.87
100941.05
100952.49
100964.15
100976.05
100988.15
101000.45
101012.9
101025.48
101038.14
101050.85
101063.56
101076.19
101088.7
101101.01
101113.06
101124.77
101136.07
101146.89
101157.18
101166.87
101175.92
101184.28
101191.94
101198.87
101205.07
101210.54
101215.3
101219.37
101222.78
101225.57
101227.79
101229.51
101230.78
101231.69
101232.33
101232.79
101233.4
101234.25
101235.52
101236.26
101239.98
101243.77
101247.15
101250.36
101253.46
101256.44
101259.29
101262.01
101264.62
101267.11
101269.48
101271.74
101273.88
101275.91
101277.82
101279.63
101281.32
101282.9
101284.37
101285.72
101286.96
101288.09
101289.11
101290.02
101290.81
101291.47
101292.02
101292.43
101292.71
101292.83
100700.65
100704.37
100708.19
100712.14
100716.23
100720.47
100724.85
100729.4
100734.11
100739
100744.07
100749.32
100754.77
100760.42
100766.27
100772.33
100778.61
100785.11
100791.84
100798.79
100805.98
100813.41
100821.07
100828.98
100837.14
100845.55
100854.22
100863.14
100872.32
100881.75
100891.45
100901.41
100911.63
100922.12
100932.86
100943.86
100955.11
100966.6
100978.32
100990.26
101002.38
101014.68
101027.1
101039.63
101052.21
101064.78
101077.31
101089.72
101101.94
101113.91
101125.55
101136.79
101147.57
101157.82
101167.49
101176.51
101184.87
101192.52
101199.44
101205.64
101211.1
101215.86
101219.92
101223.33
101226.12
101228.33
101230.03
101231.28
101232.15
101232.75
101233.17
101233.72
101234.34
101235.51
101236.27
101239.46
101243.4
101246.76
101249.96
101253.05
101256.02
101258.86
101261.58
101264.18
101266.67
101269.03
101271.29
101273.42
101275.45
101277.36
101279.16
101280.85
101282.43
101283.9
101285.25
101286.49
101287.63
101288.64
101289.55
101290.34
101291.01
101291.55
101291.97
101292.25
101292.36
100708.7
100712.34
100716.09
100719.96
100723.96
100728.1
100732.38
100736.82
100741.43
100746.2
100751.14
100756.27
100761.58
100767.1
100772.81
100778.72
100784.85
100791.2
100797.76
100804.56
100811.58
100818.84
100826.33
100834.07
100842.05
100850.28
100858.77
100867.5
100876.5
100885.75
100895.26
100905.04
100915.07
100925.37
100935.93
100946.75
100957.81
100969.13
100980.67
100992.43
101004.39
101016.52
101028.8
101041.18
101053.62
101066.07
101078.48
101090.78
101102.91
101114.8
101126.37
101137.56
101148.29
101158.5
101168.13
101177.14
101185.48
101193.11
101200.03
101206.22
101211.69
101216.44
101220.5
101223.9
101226.68
101228.89
101230.57
101231.79
101232.64
101233.2
101233.57
101234.07
101234.53
101235.54
101236.36
101238.96
101243.05
101246.38
101249.57
101252.65
101255.61
101258.44
101261.15
101263.75
101266.23
101268.59
101270.83
101272.97
101274.99
101276.9
101278.7
101280.39
101281.96
101283.43
101284.78
101286.03
101287.16
101288.18
101289.08
101289.87
101290.54
101291.09
101291.5
101291.78
101291.9
100716.61
100720.19
100723.87
100727.66
100731.58
100735.64
100739.83
100744.17
100748.67
100753.33
100758.16
100763.17
100768.36
100773.74
100779.32
100785.1
100791.08
100797.28
100803.7
100810.33
100817.2
100824.29
100831.62
100839.19
100847
100855.06
100863.36
100871.92
100880.73
100889.8
100899.13
100908.72
100918.58
100928.69
100939.07
100949.7
100960.59
100971.72
100983.09
100994.68
101006.47
101018.44
101030.56
101042.8
101055.1
101067.42
101079.71
101091.91
101103.94
101115.74
101127.24
101138.36
101149.04
101159.21
101168.81
101177.79
101186.11
101193.74
101200.65
101206.83
101212.29
101217.04
101221.09
101224.49
101227.26
101229.46
101231.13
101232.33
101233.15
101233.66
101233.98
101234.29
101234.76
101235.75
101236.53
101238.51
101242.7
101246.01
101249.2
101252.26
101255.21
101258.03
101260.73
101263.32
101265.79
101268.14
101270.38
101272.51
101274.53
101276.44
101278.23
101279.92
101281.5
101282.96
101284.31
101285.56
101286.69
101287.71
101288.61
101289.4
101290.07
101290.62
101291.03
101291.31
101291.43
100724.39
100727.91
100731.53
100735.26
100739.11
100743.08
100747.19
100751.44
100755.85
100760.41
100765.13
100770.03
100775.1
100780.36
100785.81
100791.46
100797.31
100803.36
100809.63
100816.12
100822.83
100829.77
100836.94
100844.34
100851.99
100859.87
100868.01
100876.39
100885.03
100893.92
100903.07
100912.48
100922.15
100932.08
100942.27
100952.72
100963.43
100974.39
100985.58
100997
101008.63
101020.43
101032.4
101044.48
101056.64
101068.83
101081
101093.08
101105.02
101116.73
101128.15
101139.21
101149.83
101159.96
101169.52
101178.48
101186.77
101194.38
101201.28
101207.46
101212.91
101217.65
101221.71
101225.1
101227.86
101230.05
101231.7
101232.89
101233.68
101234.15
101234.39
101234.56
101235.01
101235.96
101236.74
101238.16
101242.35
101245.65
101248.83
101251.88
101254.81
101257.63
101260.32
101262.9
101265.36
101267.7
101269.94
101272.06
101274.07
101275.98
101277.77