/*--------------------------------*- C++ -*----------------------------------*\
| =========                 |                                                 |
| \\      /  F ield         | OpenFOAM: The Open Source CFD Toolbox           |
|  \\    /   O peration     | Version:  2406                                  |
|   \\  /    A nd           | Website:  www.openfoam.com                      |
|    \\/     M anipulation  |                                                 |
\*---------------------------------------------------------------------------*/
FoamFile
{
    version     2.0;
    format      ascii;
    arch        "LSB;label=32;scalar=64";
    class       surfaceScalarField;
    location    "0.013";
    object      phi;
}
// * * * * * * * * * * * * * * * * * * * * * * * * * * * * * * * * * * * * * //

dimensions      [1 0 -1 0 0 0 0];

oriented        oriented;

internalField   nonuniform List<scalar> 
46078
(
0.00010231575
0.13983036
7.7379685e-05
0.14261222
5.2043747e-05
0.14545474
2.6243543e-05
0.14835782
0.1513262
0.00040356444
0.10853906
0.00038179261
0.11065685
0.0003598512
0.11281938
0.00033772739
0.11502763
0.00031539982
0.11728255
0.0002928581
0.11958518
0.00027009189
0.12193655
0.00024708901
0.12433771
0.00022383453
0.1267897
0.00020031524
0.12929372
0.00017651512
0.13185087
0.00015241761
0.1344625
0.00012799513
0.13712957
0.00010322413
0.1398539
7.8071924e-05
0.14263613
5.2501584e-05
0.14547904
2.648122e-05
0.14838255
0.15135137
0.000924242
0.076997178
0.0008955983
0.078337755
0.00084542896
0.079583674
0.00077550521
0.08067798
0.00072398786
0.08177185
0.00069934833
0.083155267
0.00067866158
0.084712172
0.0006585237
0.086321807
0.00063829305
0.087968591
0.00061791856
0.089650649
0.00059738935
0.091368228
0.00057672016
0.093122136
0.00055592279
0.09491322
0.00053500032
0.096742273
0.00051395394
0.098610087
0.00049278309
0.1005175
0.00047148202
0.10246535
0.00045004764
0.10445447
0.00042846922
0.10648569
0.00040673722
0.10855984
0.00038483929
0.11067778
0.00036276252
0.11284048
0.00034049087
0.11504891
0.00031800919
0.11730401
0.00029530691
0.11960684
0.00027237116
0.12195842
0.00024919071
0.1243598
0.00022575473
0.12681202
0.00020204527
0.12931629
0.00017805724
0.13187369
0.00015375533
0.13448561
0.00012912232
0.13715299
0.00010413414
0.13987766
7.8759088e-05
0.14266025
5.2966649e-05
0.14550356
2.6719344e-05
0.1484075
0.15137676
0.00019781095
0.038322777
0.00022798839
0.039182522
0.00025772584
0.040059837
0.00028705919
0.040955065
0.00031601996
0.041868547
0.00034464551
0.042800617
0.00037296758
0.043751613
0.00040101692
0.044721869
0.00042882516
0.045711714
0.00045641674
0.046721475
0.00048381701
0.047751468
0.00051104196
0.048802004
0.00053810582
0.049873377
0.00056501757
0.050965869
0.00059177797
0.052079738
0.00061837921
0.053215222
0.00064480591
0.054372528
0.0006710305
0.055551822
0.00069701262
0.056753223
0.00072269531
0.05797679
0.00074800855
0.059222504
0.00077285554
0.060490253
0.00079711568
0.061779801
0.00082063796
0.063090757
0.00084323032
0.064422526
0.00086464911
0.065774262
0.00088458655
0.067144775
0.00090264169
0.068532422
0.00091829249
0.069934972
0.00093090256
0.071349424
0.00093964845
0.072771962
0.00094304642
0.074196304
0.00093957179
0.075613026
0.00092684772
0.077009187
0.00090077694
0.078363095
0.00085388962
0.07962984
0.00078482917
0.080746375
0.00072928453
0.081826711
0.00070328762
0.083180539
0.00068246888
0.084732233
0.00066234521
0.086341156
0.00064212061
0.087988026
0.00062174297
0.089670223
0.00060120066
0.091387952
0.00058050316
0.093142
0.00055966462
0.09493321
0.00053869316
0.096762381
0.00051758524
0.098630318
0.00049633977
0.10053785
0.00047495569
0.10248582
0.00045342713
0.10447508
0.00043174544
0.10650644
0.00040989877
0.10858074
0.00038787531
0.11069884
0.00036566405
0.11286171
0.00034324972
0.11507032
0.00032061633
0.11732562
0.00029775068
0.11962866
0.00027464685
0.12198044
0.00025129211
0.12438205
0.00022767198
0.12683451
0.00020377403
0.12933903
0.00017958814
0.1318967
0.00015508203
0.13450891
0.00013023829
0.13717661
0.00010503918
0.13990161
7.9440928e-05
0.14268458
5.3426131e-05
0.14552828
2.6945159e-05
0.14843266
0.15140237
-0.0012316611
0.017274885
-0.0011827688
0.01771739
-0.0011340421
0.018167593
-0.0010855107
0.018625819
-0.0010372069
0.019092376
-0.00098916376
0.019567553
-0.00094141911
0.02005163
-0.00089400423
0.020544871
-0.00084695622
0.021047538
-0.00080031008
0.021559884
-0.00075410035
0.022082166
-0.00070836192
0.022614632
-0.00066312843
0.023157532
-0.00061843039
0.023711122
-0.0005742974
0.024275653
-0.00053075816
0.024851385
-0.00048783512
0.025438576
-0.00044555214
0.026037492
-0.00040392766
0.026648403
-0.00036297676
0.027271581
-0.00032271298
0.027907305
-0.00028314264
0.028555857
-0.00024427327
0.029217524
-0.00020610449
0.029892602
-0.00016863475
0.030581382
-0.00013185884
0.031284168
-9.57656e-05
0.032001265
-6.0343523e-05
0.032732978
-2.5575409e-05
0.033479624
8.5571392e-06
0.034241517
4.2075956e-05
0.035018978
7.5005341e-05
0.035812329
0.00010737229
0.0366219
0.00013920704
0.03744802
0.00017054158
0.038291019
0.00020141062
0.03915122
0.00023184447
0.040028963
0.00026187642
0.040924585
0.00029154302
0.041838424
0.00032087598
0.042770819
0.00034990977
0.043722107
0.00037867431
0.044692624
0.00040719989
0.045682701
0.00043551223
0.046692667
0.00046363497
0.047722843
0.0004915858
0.048773542
0.00051938133
0.049845064
0.00054702932
0.050937695
0.00057453073
0.052051703
0.00060187921
0.053187332
0.00062906188
0.054344796
0.00065604987
0.055524276
0.00068280543
0.056725902
0.0007092755
0.057949746
0.00073538787
0.059195809
0.00076105011
0.060463999
0.00078614542
0.061754106
0.00081052565
0.063065768
0.00083400071
0.064398432
0.00085633325
0.065751302
0.00087722421
0.067123247
0.00089628208
0.068512716
0.00091299843
0.0699176
0.00092671139
0.071335045
0.0009366722
0.072761322
0.00094144632
0.074190827
0.00093964304
0.07561412
0.00092897674
0.07701913
0.00090541888
0.078385915
0.00086182234
0.079672701
0.00079427528
0.080813245
0.00073494946
0.08188535
0.0007071767
0.083207583
0.00068620708
0.084752438
0.00066609822
0.086360483
0.00064588531
0.088007442
0.00062551352
0.089689783
0.00060496156
0.091407677
0.00058424397
0.093161876
0.00056337214
0.094953225
0.00054235201
0.09678253
0.00052118621
0.098650598
0.00049987254
0.10055827
0.00047840899
0.10250637
0.00045678876
0.10449577
0.00043500601
0.10652727
0.0004130482
0.10860173
0.00039090231
0.11072001
0.0003685582
0.11288306
0.00034600128
0.11509186
0.00032321554
0.11734737
0.00030019276
0.11965062
0.00027692055
0.12200263
0.00025339043
0.12440447
0.00022958933
0.12685718
0.00020550275
0.12936195
0.00018111356
0.1319199
0.00015641612
0.1345324
0.00013136762
0.13720042
0.00010595165
0.13992577
8.0136326e-05
0.14270911
5.3899005e-05
0.14555322
2.7184023e-05
0.14845805
0.1514282
-0.0012699076
0.017225725
-0.0012210726
0.017668356
-0.0011723967
0.018118713
-0.001123909
0.018577122
-0.001075639
0.019043892
-0.0010276195
0.019519314
-0.00097987924
0.020003665
-0.00093245267
0.020497214
-0.00088537221
0.021000221
-0.00083867151
0.021512942
-0.00079238167
0.022035629
-0.0007465374
0.022568535
-0.00070116843
0.023111904
-0.00065630545
0.023665993
-0.0006119765
0.024231052
-0.00056820754
0.024807337
-0.00052502484
0.025395107
-0.00048244848
0.025994623
-0.00044049813
0.026606152
-0.00039918875
0.027229963
-0.00035853444
0.027866335
-0.00031854549
0.028515544
-0.00027922691
0.029177874
-0.00024057966
0.029853615
-0.00020260604
0.030543061
-0.00016530004
0.031246506
-0.00012865407
0.031964255
-9.2657203e-05
0.03269661
-5.729597e-05
0.033443883
-2.2552656e-05
0.034206385
1.1593251e-05
0.034984436
4.5164856e-05
0.035778354
7.8185993e-05
0.036588467
0.00011068595
0.0374151
0.00014269744
0.038258579
0.00017425135
0.03911923
0.00020537601
0.039997393
0.000236108
0.0408934
0.00026647789
0.041807593
0.00029651981
0.042740309
0.00032626533
0.043691885
0.0003557465
0.044662659
0.0003849903
0.045652965
0.00041402567
0.046663132
0.00044287513
0.047693486
0.0004715592
0.048744343
0.00050008988
0.04981601
0.00052847802
0.050908776
0.00055672594
0.052022917
0.00058482893
0.053158683
0.00061277061
0.0543163
0.00064052967
0.055495955
0.00066806545
0.056697796
0.00069532894
0.057921903
0.00072224796
0.059168302
0.00074873355
0.060436917
0.00077467233
0.061727561
0.00079991592
0.063039909
0.00082428029
0.064373444
0.00084753583
0.065727412
0.00086938552
0.067100754
0.00088945004
0.068491998
0.00090723809
0.069899149
0.00092211869
0.071319492
0.00093332821
0.072749419
0.0009397663
0.074183676
0.00093961849
0.075613551
0.0009306388
0.07702738
0.00090952152
0.078406287
0.00086922854
0.079712244
0.00080381324
0.080877967
0.00074105387
0.081947419
0.00071102468
0.08323688
0.00068987879
0.084772812
0.00066978112
0.086379792
0.0006495861
0.088026833
0.00062922541
0.089709324
0.00060867071
0.091427397
0.000587937
0.09318176
0.00056703603
0.094973261
0.00054597665
0.09680271
0.00052475871
0.098670923
0.00050338078
0.10057873
0.00048183931
0.10252699
0.0004601324
0.10451653
0.00043825014
0.1065482
0.00041618297
0.10862283
0.00039391668
0.11074129
0.00037144143
0.11290453
0.00034874405
0.11511353
0.00032580981
0.11736925
0.00030262724
0.11967273
0.0002791903
0.12202496
0.00025548565
0.12442705
0.00023150432
0.12688001
0.00020722903
0.12938505
0.00018265218
0.13194328
0.0001577445
0.13455608
0.00013249149
0.13722442
0.0001068585
0.13995013
8.0826057e-05
0.14273385
5.4353391e-05
0.14557837
2.7416823e-05
0.14848365
0.15145425
-0.0013080153
0.017176666
-0.0012592763
0.017619416
-0.0012106865
0.018069918
-0.0011622764
0.018528502
-0.0011140708
0.018995471
-0.0010661009
0.019471124
-0.0010183946
0.019955733
-0.00097098304
0.020449572
-0.00092389653
0.020952898
-0.00087716523
0.021465968
-0.00083082237
0.021989037
-0.00078489495
0.022522352
-0.00073941445
0.023066163
-0.00069440973
0.023620721
-0.00064990764
0.024186276
-0.00060593468
0.024763083
-0.00056251343
0.025351398
-0.0005196656
0.025951479
-0.00047741092
0.026563594
-0.0004357664
0.027188008
-0.00039474379
0.027824994
-0.00035435411
0.028474828
-0.00031460465
0.02913779
-0.00027550059
0.029814168
-0.00023703959
0.030504248
-0.00019922083
0.031208328
-0.00016203838
0.031926705
-0.00012548248
0.032659678
-8.9539618e-05
0.033407556
-5.4195783e-05
0.03417065
-1.9432884e-05
0.034949273
1.4769926e-05
0.035743743
4.8436554e-05
0.036554384
8.1596961e-05
0.037381515
0.00011427915
0.038225464
0.00014651121
0.039086557
0.00017832637
0.039965129
0.00020975232
0.040861517
0.0002408243
0.041776056
0.00027157321
0.042709087
0.00030203122
0.043660946
0.0003322294
0.044631972
0.00036219645
0.045622501
0.00039195803
0.046632866
0.00042153737
0.047663395
0.00045095467
0.048714406
0.00048022611
0.049786212
0.00050935989
0.050879108
0.00053836031
0.051993374
0.00056722216
0.053129271
0.00059593259
0.054287031
0.00062446637
0.055466855
0.00065279062
0.056668896
0.000680852
0.057893258
0.00070858489
0.059139976
0.00073590174
0.060408998
0.00076268721
0.061700165
0.00078880061
0.063013176
0.0008140634
0.064347551
0.00083824556
0.065702591
0.00086106076
0.067077289
0.00088213847
0.06847026
0.00090100454
0.069879613
0.00091704812
0.071302769
0.00092951894
0.072736246
0.00093737172
0.074175106
0.00093883984
0.07561136
0.00093178177
0.077033698
0.00091307984
0.078424237
0.00087608353
0.079748479
0.00081333517
0.080940005
0.00074765941
0.082012401
0.00071484593
0.083268957
0.00069348235
0.084793399
0.00067338909
0.086399089
0.00065321919
0.088046191
0.00063287757
0.089728839
0.00061232721
0.091447106
0.00059158342
0.093201646
0.00057066011
0.094993312
0.0005495653
0.096822918
0.00052829784
0.098691288
0.00050685779
0.10059926
0.00048524517
0.10254767
0.00046345337
0.10453738
0.00044147709
0.10656921
0.00041930282
0.10864402
0.00039691893
0.11076267
0.00037431436
0.11292612
0.00035147808
0.11513533
0.00032839428
0.11739128
0.00030505701
0.11969498
0.00028145391
0.12204746
0.00025757829
0.12444979
0.00023341628
0.12690301
0.00020895421
0.12940833
0.00018418442
0.13196684
0.00015907948
0.13457995
0.00013360956
0.13724864
0.00010776582
0.13997469
8.1516242e-05
0.1427588
5.4827249e-05
0.14560373
2.7656178e-05
0.14850946
0.15148053
-0.0013459623
0.01712775
-0.0012973567
0.01757061
-0.0012488915
0.018021247
-0.0012005902
0.01847999
-0.0011524825
0.018947147
-0.0011045923
0.019423012
-0.001056949
0.019907863
-0.0010095811
0.020401971
-0.00096251539
0.020905594
-0.00091578146
0.02141899
-0.00086940759
0.021942413
-0.00082342363
0.022476112
-0.00077785683
0.023020333
-0.00073273398
0.023575329
-0.0006880833
0.024141349
-0.00064392736
0.024718644
-0.00060029141
0.025307471
-0.0005571967
0.025908087
-0.0005146606
0.026520752
-0.00047270099
0.027145734
-0.00043133128
0.027783302
-0.00039056205
0.028433728
-0.00035040329
0.029097293
-0.00031085775
0.029774276
-0.000271928
0.030464964
-0.00023361414
0.031169652
-0.00019590999
0.03188863
-0.00015880872
0.032622198
-0.00012229918
0.03337066
-8.6369754e-05
0.034134325
-5.1001557e-05
0.034913501
-1.6174644e-05
0.035708504
1.813167e-05
0.036519658
5.1943674e-05
0.037347275
8.5288758e-05
0.038191682
0.00011819603
0.039053204
0.0001506934
0.039932178
0.00018281184
0.040828937
0.00021458302
0.041743815
0.00024603888
0.042677153
0.00027720968
0.043629289
0.00030812478
0.044600563
0.00033881449
0.04559131
0.0003693037
0.046601868
0.00039961638
0.047632565
0.00042977285
0.048683726
0.00045978838
0.049755664
0.0004896722
0.050848684
0.00051942933
0.051963069
0.00054905526
0.053099089
0.00057853937
0.054256984
0.00060785692
0.055436965
0.00063697361
0.056639199
0.00066584102
0.057863802
0.00069439328
0.059110826
0.00072254504
0.06038024
0.00075018609
0.061671907
0.00077717756
0.062985558
0.00080334156
0.064320752
0.00082845906
0.065676828
0.00085224503
0.067052848
0.00087434198
0.068447497
0.00089428801
0.06985899
0.0009114949
0.071284876
0.00092522638
0.072721804
0.00093444242
0.074165171
0.00093748923
0.075607586
0.0009323923
0.077038047
0.00091609153
0.078439779
0.00088236507
0.079781433
0.00082275252
0.080998888
0.00075480969
0.082079644
0.00071866357
0.083304362
0.00069702175
0.084814258
0.00067692018
0.086418387
0.00065678262
0.088065509
0.00063646622
0.089748321
0.00061592675
0.091466795
0.00059517972
0.093221528
0.00057423982
0.095013371
0.00055311281
0.096843149
0.00053180307
0.098711687
0.00051030885
0.10061983
0.00048862618
0.10256841
0.00046675402
0.10455829
0.00044468349
0.10659031
0.00042240567
0.10866531
0.00039990519
0.11078417
0.00037717451
0.11294782
0.00035420036
0.11515726
0.00033097165
0.11741344
0.00030747729
0.11971738
0.00028371244
0.1220701
0.00025966504
0.12447269
0.00023532324
0.12692618
0.00021067515
0.12943178
0.00018570976
0.13199058
0.00016040157
0.13460402
0.00013473412
0.13727303
0.00010867973
0.13999945
8.2206692e-05
0.14278395
5.5288669e-05
0.14562931
2.7889314e-05
0.1485355
0.15150702
-0.0014322595
0.016643502
-0.0013837251
0.017079019
-0.0013352931
0.017521976
-0.0012869874
0.017972735
-0.0012388327
0.018431623
-0.001190856
0.018898953
-0.0011430792
0.019375013
-0.0010955303
0.019860085
-0.0010482321
0.020354439
-0.0010012158
0.020858337
-0.00095450498
0.021372033
-0.000908128
0.021895784
-0.00086211202
0.022429837
-0.00081648271
0.022974439
-0.00077126807
0.023529842
-0.0007264917
0.024096294
-0.0006821791
0.024674046
-0.00063835117
0.02526335
-0.00059503015
0.025864464
-0.00055223576
0.026477649
-0.00050998306
0.027103165
-0.00046828706
0.027741281
-0.0004271602
0.028392268
-0.00038661037
0.029056402
-0.00034664374
0.02973396
-0.00030726484
0.030425227
-0.0002684714
0.031130492
-0.0002302625
0.031850047
-0.0001926317
0.032584185
-0.00015557078
0.033333208
-0.00011906547
0.03409742
-8.3102216e-05
0.03487713
-4.7664474e-05
0.03567265
-1.2728753e-05
0.036484298
2.1726808e-05
0.037312387
5.5730546e-05
0.038157237
8.9304791e-05
0.039019181
0.00012248213
0.039898543
0.00015528993
0.040795663
0.00018775822
0.041710872
0.00021991804
0.042644511
0.0002517996
0.043596917
0.00028343365
0.044568431
0.00031484628
0.045559391
0.00034606482
0.046570135
0.00037711382
0.047600995
0.00040801179
0.048652298
0.00043877424
0.049724365
0.00046941285
0.050817501
0.00049993176
0.051931998
0.00053032722
0.053068133
0.0005605882
0.054226154
0.00059069355
0.055406283
0.00062060959
0.056608697
0.00065028879
0.057833528
0.00067966753
0.059080844
0.0007086607
0.060350634
0.00073716258
0.061642783
0.00076503731
0.062957052
0.00079211092
0.064293037
0.00081816606
0.065650121
0.00084292968
0.067027422
0.00086604974
0.068423705
0.00088708079
0.069837276
0.00090544415
0.07126582
0.00092040468
0.072706129
0.0009310041
0.074153851
0.00093563374
0.075602222
0.00093246073
0.077040466
0.00091855457
0.078452919
0.00088806749
0.079811137
0.000832033
0.081054173
0.00076249854
0.082148471
0.00072252672
0.083343589
0.00070049893
0.084835498
0.00068036987
0.086437705
0.00066027385
0.088084778
0.00063999065
0.089767762
0.00061946755
0.091486461
0.0005987237
0.093241399
0.00057777368
0.095033432
0.00055662237
0.096863396
0.00053527306
0.098732117
0.00051372514
0.10064044
0.0004919775
0.10258921
0.00047002884
0.10457927
0.00044786958
0.10661148
0.00042548949
0.10868669
0.00040287596
0.11080577
0.00038002054
0.11296964
0.00035691161
0.11517931
0.00033353837
0.11743573
0.00030989157
0.11973993
0.00028596314
0.1220929
0.00026174571
0.12449575
0.00023722833
0.12694952
0.00021239504
0.12945541
0.00018723405
0.13201451
0.00016172942
0.13462826
0.00013585207
0.13729763
0.00010958089
0.14002442
8.2890823e-05
0.14280931
5.5750178e-05
0.14565509
2.8116141e-05
0.14856175
0.15153373
-0.0014695918
0.016594932
-0.0014212834
0.017030512
-0.001373066
0.017473556
-0.0013249606
0.017924421
-0.0012769903
0.01838344
-0.0012291768
0.018850921
-0.0011815463
0.019327158
-0.0011341208
0.01981243
-0.001086926
0.020307008
-0.0010399853
0.020811155
-0.00099332621
0.021325126
-0.00094697276
0.021849177
-0.00090094948
0.022383554
-0.00085528531
0.022928507
-0.00081000136
0.023484284
-0.00076512492
0.024051136
-0.00072067765
0.02462931
-0.00067668244
0.025219059
-0.00063316001
0.025820638
-0.0005901287
0.026434306
-0.00054760497
0.027060321
-0.00050560538
0.027698953
-0.00046414057
0.028350467
-0.00042321979
0.029015136
-0.00038285209
0.029693239
-0.00034304066
0.030385054
-0.00030378707
0.031090869
-0.00026508999
0.031810972
-0.00022694456
0.032545653
-0.00018934412
0.033295213
-0.0001522779
0.034059951
-0.00011573273
0.034840174
-7.9692986e-05
0.035636191
-4.4136863e-05
0.036448313
-9.0456871e-06
0.037276858
2.5606348e-05
0.03812214
5.9845228e-05
0.038984488
9.3694271e-05
0.039864231
0.00012718734
0.040761699
0.00016035027
0.04167723
0.00019321255
0.042611161
0.00022580433
0.04356383
0.00025815505
0.044535577
0.00029029242
0.045526743
0.00032224343
0.046537665
0.00035402872
0.047568683
0.00038567137
0.048620122
0.00041718514
0.049692309
0.00044858142
0.050785555
0.00047986486
0.051900157
0.00051103556
0.053036397
0.00054207937
0.054194536
0.00057297751
0.055374802
0.00060369681
0.056577387
0.00063419297
0.057802432
0.00066440233
0.059050025
0.0006942437
0.060320174
0.00072361312
0.061612786
0.00075237459
0.062927653
0.00078036266
0.064264401
0.00080736341
0.065622463
0.00083310848
0.067001009
0.00085725844
0.068398876
0.00087937741
0.069814467
0.00089890893
0.071245589
0.00091510385
0.072689215
0.0009270718
0.074141153
0.00093323777
0.07559531
0.0009319691
0.077040971
0.00092047085
0.078463644
0.00089317565
0.079837639
0.00084108956
0.08110549
0.0007708515
0.082217992
0.00072649735
0.083387193
0.00070391593
0.084857286
0.00068373783
0.086457065
0.00066368983
0.088103991
0.00064344446
0.089787157
0.00062294795
0.091506092
0.00060221437
0.093261251
0.00058125827
0.095053491
0.00056008738
0.096883654
0.00053870542
0.098752571
0.00051710998
0.10066109
0.00049530182
0.10261006
0.00047327819
0.10460032
0.00045103245
0.10663274
0.00042855404
0.10870816
0.00040582982
0.11082746
0.00038285179
0.11299158
0.00035960998
0.11520149
0.00033609328
0.11745816
0.00031229433
0.11976261
0.00028820694
0.12211585
0.00026382207
0.12451897
0.00023912639
0.12697302
0.00021410884
0.12947921
0.00018876311
0.13203861
0.00016305619
0.1346527
0.00013697572
0.13732241
0.00011049442
0.14004958
8.3574776e-05
0.14283489
5.62116e-05
0.14568109
2.8355633e-05
0.14858821
0.15156067
-0.0015066676
0.016546645
-0.0014586288
0.016982274
-0.0014106655
0.017425388
-0.0013627983
0.017876345
-0.0013150481
0.018335476
-0.0012674353
0.018803089
-0.0012199827
0.01927948
-0.0011727134
0.01976493
-0.0011256505
0.020259708
-0.0010788165
0.020764078
-0.0010322352
0.021278295
-0.0009859316
0.021802617
-0.00093993002
0.022337289
-0.00089425361
0.022882561
-0.00084892754
0.023438681
-0.00080397419
0.024005899
-0.00075941689
0.024584461
-0.00071527789
0.02517462
-0.00067157523
0.025776628
-0.00062832961
0.026390745
-0.00058555868
0.027017227
-0.0005432746
0.027656337
-0.00050149271
0.028308345
-0.00046022304
0.028973518
-0.00041947249
0.029652132
-0.00037924839
0.030344465
-0.00033955179
0.031050799
-0.00030038268
0.031771421
-0.0002617389
0.032506619
-0.00022361355
0.033256689
-0.00018599926
0.03402193
-0.00014888505
0.034802644
-0.00011225322
0.035599135
-7.6088668e-05
0.036411716
-4.0369614e-05
0.037240698
-5.0757181e-06
0.038086396
2.9818166e-05
0.038949135
6.4337868e-05
0.039829245
9.8509817e-05
0.040727051
0.000132362
0.041642894
0.00016592424
0.042577107
0.00019922587
0.043530028
0.00023229447
0.044502
0.00026515596
0.045493365
0.00029783833
0.046504459
0.00033036332
0.047535626
0.00036275082
0.048587195
0.00039501858
0.049659494
0.00042717695
0.050752842
0.00045923038
0.051867541
0.00049117699
0.05300388
0.00052300793
0.054162126
0.00055470394
0.055342519
0.00058623309
0.056545261
0.00061755053
0.057770509
0.00064859611
0.059018365
0.00067929132
0.060288855
0.00070953013
0.061581914
0.00073918675
0.062897353
0.00076809417
0.06423484
0.00079604423
0.065593849
0.00082277755
0.066973602
0.00084796059
0.068373007
0.00087117267
0.069790559
0.00089187344
0.071224182
0.00090934952
0.072671014
0.00092271927
0.074127041
0.00093078672
0.075586485
0.0009313961
0.07703959
0.00092184821
0.07847241
0.00089765336
0.079861033
0.00084965849
0.0811527
0.00077961221
0.082287308
0.00073063932
0.083435411
0.0007072686
0.08487986
0.00068701864
0.08647649
0.00066702869
0.088123139
0.00064682887
0.0898065
0.0006263636
0.091525684
0.00060564698
0.093281078
0.00058469144
0.095073542
0.00056350847
0.096903916
0.00054209617
0.098773047
0.0005204583
0.10068178
0.00049859413
0.10263095
0.00047650025
0.10462143
0.00045417048
0.10665407
0.0004315964
0.10872972
0.00040876529
0.11084926
0.00038566627
0.11301362
0.0003622942
0.11522379
0.0003386372
0.11748072
0.00031468781
0.11978544
0.0002904417
0.12213895
0.00026588946
0.12454235
0.00024101926
0.12699669
0.00021582036
0.12950318
0.00019027732
0.1320629
0.00016437509
0.13467732
0.00013808564
0.1373474
0.00011139458
0.14007494
8.4271028e-05
0.14286066
5.6679108e-05
0.1457073
2.8588645e-05
0.1486149
0.15158782
-0.0015434842
0.016498684
-0.001495757
0.016934347
-0.0014480879
0.017377514
-0.001400496
0.017828543
-0.0013530018
0.018287766
-0.0013056243
0.01875549
-0.0012583841
0.019232013
-0.0012113023
0.019717615
-0.0011643996
0.020212567
-0.0011177006
0.020717134
-0.0010712261
0.021231569
-0.0010249993
0.021756132
-0.00097904371
0.022291069
-0.00093338098
0.022836626
-0.00088803767
0.023393059
-0.00084303234
0.023960607
-0.00079838878
0.024539523
-0.00075412698
0.025130056
-0.00071026949
0.025732461
-0.00066683257
0.02634699
-0.00062383344
0.026973901
-0.00058128932
0.027613458
-0.00053921063
0.028265923
-0.00049761103
0.028931567
-0.00045649832
0.029610659
-0.00041587845
0.030303477
-0.000375756
0.031010299
-0.00033613236
0.031731412
-0.00029700675
0.032467099
-0.00025837254
0.033217652
-0.0002202245
0.033983371
-0.00018255139
0.034764551
-0.00014534025
0.035561495
-0.00010857651
0.036374515
-7.2239552e-05
0.037203915
-3.6311904e-05
0.038050013
-7.6931344e-07
0.038913129
3.4413943e-05
0.039793589
6.9260595e-05
0.040691724
0.00010380007
0.041607866
0.00013805999
0.04254235
0.00017206819
0.043495515
0.00020585097
0.044467704
0.00023943878
0.045459256
0.00027285222
0.046470517
0.00030611797
0.047501824
0.00033925386
0.048553515
0.00037227714
0.049625919
0.00040519834
0.050719361
0.0004380236
0.051834148
0.00047075282
0.052970574
0.0005033759
0.054128919
0.00053587258
0.055309429
0.00056821515
0.056512317
0.00060035885
0.057737754
0.00063224582
0.058985858
0.00066379688
0.060256674
0.00069491367
0.061550157
0.0007254674
0.062866149
0.00075529816
0.06420435
0.0007842046
0.065564272
0.00081192867
0.066945197
0.00083815023
0.068346094
0.00086245622
0.06976555
0.00088432877
0.071201596
0.00090308286
0.072651527
0.00091785884
0.074111514
0.00092747307
0.075576108
0.00092989503
0.07703639
0.00092261626
0.078478897
0.00090146432
0.079881377
0.00085751775
0.081195847
0.00078855967
0.082355524
0.00073503204
0.083488179
0.00071055463
0.084903537
0.00069021035
0.086496001
0.00067028677
0.088142213
0.00065014005
0.089825781
0.00062971461
0.091545228
0.00060902108
0.093300875
0.00058807426
0.095093575
0.00056688157
0.09692418
0.00054544652
0.098793537
0.00052377067
0.10070249
0.00050185329
0.10265189
0.00047969138
0.1046426
0.00045728387
0.10667546
0.00043461698
0.10875136
0.00041167765
0.11087115
0.00038846319
0.11303577
0.00036496176
0.1152462
0.00034116642
0.11750341
0.00031706966
0.1198084
0.00029266774
0.12216219
0.00026794896
0.12456588
0.00024290618
0.12702052
0.0002175245
0.12952732
0.0001917952
0.13208736
0.00016569834
0.13470213
0.00013920685
0.13737257
0.00011229377
0.14010051
8.4947564e-05
0.14288663
5.7139806e-05
0.14573371
2.8821437e-05
0.14864179
0.15161519
-0.0015800456
0.01645109
-0.001532669
0.016886769
-0.0014853325
0.017329972
-0.0014380534
0.017781053
-0.001390849
0.018240345
-0.0013437396
0.018708158
-0.0012967427
0.019184788
-0.0012498793
0.019670518
-0.0012031693
0.020165616
-0.0011566326
0.02067035
-0.0011102924
0.021184975
-0.0010641688
0.021709748
-0.0010182852
0.022244917
-0.00097266307
0.02279073
-0.00092732356
0.023347437
-0.00088229084
0.023915284
-0.00083758461
0.024494519
-0.00079322614
0.025085392
-0.00074923402
0.025688155
-0.00070562693
0.026303061
-0.00066242378
0.026930368
-0.00061963788
0.027570334
-0.00057728485
0.028223223
-0.00053537485
0.028889302
-0.00049391877
0.029568839
-0.00045292301
0.030262109
-0.0004123938
0.03096939
-0.00037233259
0.031690961
-0.00033273869
0.032427108
-0.00029361122
0.033178118
-0.00025494277
0.033944287
-0.00021672489
0.034725909
-0.0001789469
0.035523285
-0.0001415935
0.03633672
-0.00010464955
0.037166521
-6.8095389e-05
0.038013
-3.1910773e-05
0.038876477
3.9273147e-06
0.039757275
3.9445359e-05
0.040655721
7.466791e-05
0.04157215
0.0001096222
0.042506894
0.00014433396
0.043460293
0.00017883252
0.044432687
0.00021314203
0.045424421
0.00024728845
0.046435837
0.00028129425
0.047467277
0.00031517976
0.04851908
0.00034896091
0.049591581
0.00038264844
0.050685108
0.00041625007
0.051799973
0.00044976293
0.05293648
0.00048317956
0.054094912
0.00051648235
0.055275528
0.00054964212
0.05647855
0.00058261604
0.057704164
0.00061534647
0.058952502
0.00064776013
0.060223625
0.00067975774
0.061517514
0.00071121469
0.062834037
0.00074197371
0.064172925
0.00077183809
0.065533732
0.00080055945
0.066915788
0.00082782062
0.068318134
0.00085322757
0.069739432
0.00087627121
0.071177831
0.00089629795
0.072630761
0.00091247732
0.074094577
0.0009236199
0.075564198
0.00092777964
0.077031444
0.00092275234
0.078483125
0.00090459125
0.079898723
0.0008645847
0.081235042
0.0007975751
0.082421779
0.0007397671
0.083545223
0.00071377172
0.084928727
0.00069331417
0.086515619
0.00067346358
0.088161206
0.00065337404
0.089844997
0.0006329955
0.091564717
0.00061233317
0.093320632
0.00059140002
0.095113587
0.00057020522
0.096944437
0.00054875316
0.098814036
0.00052704265
0.10072323
0.0005050761
0.10267287
0.00048285364
0.10466382
0.00046036709
0.10669693
0.00043761085
0.10877307
0.00041457182
0.11089313
0.00039124055
0.11305803
0.00036761332
0.11526873
0.00034368108
0.11752622
0.00031943952
0.1198315
0.0002948816
0.12218558
0.00027000102
0.12458956
0.00024478517
0.12704451
0.00021922384
0.12955163
0.0001933035
0.13211201
0.00016700642
0.13472712
0.00014031356
0.13739793
0.00011320441
0.14012626
8.5635938e-05
0.14291282
5.7599893e-05
0.14576034
2.9060291e-05
0.1486689
0.15164279
-0.0016163641
0.0164039
-0.0015693754
0.016839578
-0.0015224062
0.017282795
-0.0014754738
0.017733908
-0.0014285946
0.018193247
-0.0013817847
0.018661124
-0.0013350625
0.019137836
-0.0012884461
0.019623665
-0.0012419564
0.020118883
-0.0011956108
0.020623755
-0.0011494306
0.021138539
-0.0011034364
0.02166349
-0.0010576493
0.02219886
-0.0010120919
0.022744895
-0.00096678379
0.023301844
-0.00092174559
0.023869953
-0.00087699988
0.024449473
-0.00083256516
0.025040649
-0.00078846262
0.025643736
-0.00074470895
0.026258982
-0.0007013215
0.026886647
-0.00065831721
0.027526988
-0.0006157086
0.028180265
-0.00057350866
0.028846743
-0.00053172857
0.029526692
-0.00049037606
0.030220381
-0.00044945612
0.030928085
-0.00040897367
0.031650086
-0.00036892881
0.032386661
-0.00032932195
0.033138101
-0.0002901466
0.033904693
-0.00025139707
0.034686732
-0.00021306372
0.035484514
-0.00017513356
0.036298344
-0.00013759131
0.037128524
-0.00010042069
0.037975366
-6.3601741e-05
0.038839186
-2.7112897e-05
0.039720305
9.0691141e-06
0.040619049
4.4969525e-05
0.041535751
8.0613285e-05
0.042470743
0.0001160277
0.043424364
0.00015123818
0.044396954
0.00018627077
0.045388858
0.00022114963
0.046400419
0.00025589758
0.047431982
0.0002905328
0.04848389
0.00032507184
0.04955648
0.0003595281
0.050650082
0.00039390627
0.051765016
0.00042820597
0.052901594
0.00046242015
0.054060103
0.00049653146
0.055240813
0.00053051041
0.056443958
0.00056431863
0.057669734
0.00059789933
0.05891829
0.00063117725
0.060189706
0.00066405869
0.061483981
0.00069642268
0.062801011
0.00072811424
0.064140561
0.00075894087
0.065502222
0.00078866113
0.066885374
0.00081696841
0.068289122
0.00084347631
0.069712207
0.00086769485