/*--------------------------------*- C++ -*----------------------------------*\
| =========                 |                                                 |
| \\      /  F ield         | OpenFOAM: The Open Source CFD Toolbox           |
|  \\    /   O peration     | Version:  2406                                  |
|   \\  /    A nd           | Website:  www.openfoam.com                      |
|    \\/     M anipulation  |                                                 |
\*---------------------------------------------------------------------------*/
FoamFile
{
    version     2.0;
    format      ascii;
    arch        "LSB;label=32;scalar=64";
    class       volScalarField;
    location    "0.012";
    object      p;
}
// * * * * * * * * * * * * * * * * * * * * * * * * * * * * * * * * * * * * * //

dimensions      [1 -1 -2 0 0 0 0];

internalField   nonuniform List<scalar> 
23203
(
101742.31
101637.03
101575.98
101507.67
101437.52
101371.56
101310.76
101254.57
101203.14
101157.65
101116.52
101079.32
101046.26
101014.78
100987.49
100964.74
100942.66
100923.3
100906.14
101896.48
101815.78
101740.45
101659.43
101581.58
101509.57
101442.88
101380.95
101323.73
101271.48
101223.7
101180.08
101140.44
101104.12
101071.98
101042.8
101015.83
100991.67
100969.46
101969.13
101898.51
101816.28
101731.87
101652.6
101579.36
101511.32
101448.02
101389.33
101335.24
101285.5
101239.82
101197.97
101159.75
101125.34
101093.71
101064.61
101038.09
101013.96
102027.95
101959.63
101877.94
101794.4
101715.48
101642.02
101573.42
101509.38
101449.75
101394.45
101343.31
101296.08
101252.58
101212.59
101176.04
101142.48
101111.62
101083.39
101057.71
102079.24
102011.76
101932.38
101850.94
101773.24
101700.33
101631.87
101567.62
101507.5
101451.4
101399.2
101350.73
101305.82
101264.3
101226.01
101190.71
101158.18
101128.28
101100.96
102120.55
102054.19
101977.57
101898.84
101823.06
101751.44
101683.79
101619.94
101559.86
101503.48
101450.71
101401.44
101355.53
101312.85
101273.25
101236.56
101202.61
101171.26
101142.45
102153.04
102087.89
102014.33
101938.76
101865.46
101795.69
101729.39
101666.47
101606.93
101550.74
101497.85
101448.2
101401.69
101358.22
101317.67
101279.91
101244.81
101212.25
101182.18
102177.82
102114.02
102043.78
101971.7
101901.27
101833.77
101769.25
101707.67
101649.08
101593.48
101540.86
101491.2
101444.44
101400.51
101359.32
101320.79
101284.81
101251.27
101220.14
102195.66
102133.52
102066.85
101998.49
101931.19
101866.25
101803.81
101743.89
101686.56
101631.88
101579.86
101530.51
101483.81
101439.72
101398.18
101359.14
101322.52
101288.24
101256.25
102207.62
102147.61
102084.65
102020.07
101956.01
101893.76
101833.58
101775.53
101719.7
101666.17
101615.01
101566.23
101519.86
101475.87
101434.24
101394.94
101357.91
101323.09
101290.46
102215.55
102158.12
102098.64
102037.53
101976.55
101916.97
101859.09
101803
101748.81
101696.62
101646.51
101598.52
101552.7
101509.04
101467.54
101428.2
101390.97
101355.82
101322.74
102221.06
102166.66
102110.03
102051.77
101993.52
101936.45
101880.82
101826.71
101774.23
101723.49
101674.58
101627.54
101582.44
101539.3
101498.13
101458.94
101421.71
101386.41
101353.05
102223.99
102173.14
102118.92
102063.08
102007.28
101952.57
101899.11
101846.97
101796.24
101747.02
101699.4
101653.45
101609.22
101566.76
101526.08
101487.21
101450.15
101414.87
101381.4
102223.91
102176.92
102125.04
102071.45
102017.99
101965.54
101914.2
101864.01
101815.05
101767.41
101721.17
101676.4
101633.17
101591.51
101551.47
101513.07
101476.32
101441.22
101407.8
102220.62
102177.72
102128.25
102076.92
102025.76
101975.55
101926.31
101878.06
101830.88
101784.86
101740.06
101696.56
101654.41
101613.68
101574.39
101536.59
101500.3
101465.51
101432.27
102214.57
102175.66
102128.65
102079.62
102030.76
101982.75
101935.59
101889.3
101843.92
101799.54
101756.23
101714.06
101673.09
101633.36
101594.94
101557.85
101522.12
101487.77
101454.83
102206.19
102171.04
102126.48
102079.73
102033.14
101987.32
101942.24
101897.89
101854.32
101811.62
101769.84
101729.05
101689.32
101650.69
101613.21
101576.93
101541.87
101508.06
101475.54
102195.96
102164.17
102121.95
102077.42
102033.07
101989.43
101946.41
101904.01
101862.27
101821.26
101781.04
101741.69
101703.24
101665.77
101629.31
101593.91
101559.62
101526.44
101494.44
102183.63
102154.99
102115.05
102072.76
102030.66
101989.2
101948.26
101907.82
101867.91
101828.62
101790
101752.1
101714.99
101678.73
101643.35
101608.91
101575.45
101542.99
101511.6
102169.96
102144.18
102106.11
102065.95
102026.1
101986.84
101947.98
101909.5
101871.44
101833.87
101796.86
101760.45
101724.71
101689.69
101655.45
101622.02
101589.46
101557.79
101527.07
102153.49
102131.55
102095.69
102057.41
102019.7
101982.58
101945.79
101909.26
101873.04
101837.2
101801.8
101766.89
101732.54
101698.8
101665.72
101633.36
101601.74
101570.91
101540.94
102135.33
102115.2
102083.38
102047.71
102011.91
101976.76
101941.95
101907.33
101872.93
101838.8
101805
101771.59
101738.64
101706.19
101674.3
101643.02
101612.4
101582.46
101553.28
102117.35
102098.05
102068.8
102036.89
102003.28
101969.82
101936.79
101903.98
101871.33
101838.86
101806.64
101774.72
101743.15
101712
101681.32
101651.15
101621.54
101592.53
101564.17
102098.89
102081.5
102053.73
102024.05
101993.68
101962.08
101930.62
101899.45
101868.44
101837.58
101806.9
101776.43
101746.23
101716.37
101686.89
101657.84
101629.26
101601.2
101573.72
102080.25
102064.65
102039.27
102010.67
101982.27
101953.58
101923.7
101893.95
101864.46
101835.13
101805.93
101776.88
101748.03
101719.44
101691.15
101663.22
101635.69
101608.59
101581.99
102061.74
102047.66
102024.46
101997.78
101970.24
101943.47
101916.21
101887.68
101859.55
101831.66
101803.89
101776.22
101748.68
101721.34
101694.23
101667.41
101640.92
101614.79
101589.09
102043.46
102030.71
102009.4
101984.53
101958.72
101932.81
101906.84
101880.57
101853.86
101827.35
101800.94
101774.59
101748.34
101722.21
101696.25
101670.52
101645.06
101619.91
101595.11
102025.47
102013.86
101994.18
101970.78
101946.25
101921.44
101897.41
101873.31
101848.09
101822.62
101797.35
101772.2
101747.13
101722.17
101697.33
101672.67
101648.22
101624.03
101600.14
102007.92
101997.33
101979.18
101957.27
101934.27
101911.01
101887.55
101864.63
101841.47
101817.29
101793.07
101769.05
101745.14
101721.31
101697.56
101673.95
101650.5
101627.25
101604.25
101990.79
101981.09
101964.29
101943.71
101921.98
101900.06
101877.95
101855.64
101833.85
101811.57
101788.27
101765.31
101742.5
101719.75
101697.06
101674.45
101651.98
101629.66
101607.55
101974.12
101965.22
101949.64
101930.29
101909.75
101889
101868.12
101847.06
101825.82
101804.51
101783.02
101761.11
101739.32
101717.6
101695.92
101674.29
101652.75
101631.34
101610.09
101957.88
101949.7
101935.23
101916.98
101897.53
101877.82
101857.95
101837.83
101817.43
101797.61
101777.64
101756.78
101735.82
101715
101694.24
101673.54
101652.91
101632.37
101611.97
101942.07
101934.57
101921.12
101903.92
101885.49
101866.8
101847.97
101828.96
101809.72
101790.24
101771.23
101751.93
101731.87
101711.94
101692.07
101672.26
101652.51
101632.82
101613.23
101926.67
101919.81
101907.3
101891.06
101873.56
101855.81
101837.91
101819.84
101801.6
101783.15
101764.49
101746.3
101727.89
101708.62
101689.5
101670.52
101651.61
101632.74
101613.95
101911.63
101905.41
101893.77
101878.42
101861.81
101844.93
101827.92
101810.74
101793.41
101775.94
101758.37
101740.72
101722.72
101704.57
101686.39
101668.29
101650.24
101632.18
101614.17
101896.91
101891.31
101880.51
101865.99
101850.18
101834.1
101817.9
101801.54
101785
101768.29
101751.37
101734.29
101717.83
101700.96
101683.26
101665.86
101648.57
101631.26
101614
101882.47
101877.51
101867.51
101853.76
101838.71
101823.4
101807.98
101792.4
101776.66
101760.77
101744.76
101728.62
101712.35
101696.09
101679.77
101663.13
101646.56
101630.03
101868.26
101863.95
101854.72
101841.71
101827.37
101812.78
101798.07
101783.22
101768.21
101753.05
101737.74
101722.25
101706.61
101691.56
101676.33
101660.37
101644.42
101628.61
101854.23
101850.6
101842.14
101829.83
101816.17
101802.26
101788.25
101774.12
101759.84
101745.42
101730.87
101716.22
101701.44
101686.52
101672.12
101657.45
101642.03
101626.9
101840.36
101837.43
101829.71
101818.08
101805.07
101791.81
101778.47
101765.02
101751.43
101737.7
101723.87
101709.93
101695.94
101681.9
101667.8
101653.63
101639.41
101625.01
101826.61
101824.42
101817.43
101806.45
101794.06
101781.43
101768.74
101755.94
101743.02
101729.97
101716.8
101703.54
101690.18
101676.68
101663.09
101650.15
101637.05
101623.2
101812.96
101811.53
101805.27
101794.92
101783.13
101771.12
101759.05
101746.9
101734.63
101722.25
101709.76
101697.18
101684.54
101671.84
101659.04
101646.16
101633.86
101621.28
101799.41
101798.75
101793.21
101783.47
101772.27
101760.86
101749.41
101737.88
101726.25
101714.52
101702.68
101690.77
101678.79
101666.77
101654.72
101642.66
101630.59
101618.5
101785.96
101786.1
101781.25
101772.1
101761.48
101750.66
101739.82
101728.91
101717.91
101706.81
101695.62
101684.35
101673.01
101661.62
101650.17
101638.62
101627
101616.08
101772.63
101773.56
101769.39
101760.82
101750.77
101740.53
101730.3
101720.01
101709.63
101699.16
101688.61
101678
101667.32
101656.6
101645.84
101635.06
101624.21
101613.27
101759.46
101761.19
101757.65
101749.64
101740.16
101730.51
101720.87
101711.2
101701.44
101691.6
101681.69
101671.71
101661.68
101651.61
101641.5
101631.37
101621.25
101611.06
101746.51
101749.01
101746.07
101738.6
101729.68
101720.62
101711.59
101702.52
101693.38
101684.17
101674.89
101665.56
101656.18
101646.76
101637.31
101627.85
101618.38
101608.93
101733.85
101737.09
101734.69
101727.74
101719.38
101710.91
101702.49
101694.03
101685.52
101676.93
101668.28
101659.59
101650.84
101642.06
101633.25
101624.41
101615.55
101606.66
101721.58
101725.51
101723.58
101717.13
101709.33
101701.46
101693.65
101685.81
101677.91
101669.96
101661.95
101653.89
101645.79
101637.66
101629.5
101621.32
101613.13
101604.92
101709.81
101714.36
101712.82
101706.84
101699.61
101692.34
101685.14
101677.93
101670.66
101663.33
101655.96
101648.54
101641.09
101633.6
101626.09
101618.55
101611.01
101603.43
101698.67
101703.74
101702.49
101696.97
101690.3
101683.65
101677.08
101670.48
101663.84
101657.16
101650.42
101643.65
101636.84
101630
101623.14
101616.25
101609.36
101602.42
101688.32
101693.77
101692.69
101687.6
101681.52
101675.5
101669.56
101663.6
101657.6
101651.55
101645.46
101639.33
101633.17
101626.97
101620.75
101614.5
101608.25
101601.95
101678.92
101684.54
101683.5
101678.84
101673.38
101668.01
101662.71
101657.4
101652.05
101646.65
101641.2
101635.72
101630.2
101624.64
101619.05
101613.43
101607.79
101602.1
101670.6
101676.05
101674.94
101670.76
101665.99
101661.32
101656.7
101652.06
101647.36
101642.62
101637.83
101632.99
101628.1
101623.17
101618.2
101613.2
101608.17
101603.08
101663.53
101668.65
101667.41
101663.73
101659.67
101655.72
101651.79
101647.82
101643.78
101639.69
101635.53
101631.32
101627.05
101622.73
101618.35
101613.94
101609.49
101604.97
101657.76
101662.41
101661.01
101657.9
101654.63
101651.45
101648.23
101644.93
101641.54
101638.08
101634.54
101630.92
101627.23
101623.48
101619.67
101615.8
101611.89
101607.9
101653.56
101657.83
101656.3
101653.84
101651.4
101648.97
101646.43
101643.76
101640.98
101638.09
101635.1
101632.02
101628.86
101625.62
101622.31
101618.95
101615.53
101612.02
101651.49
101655.82
101654.46
101652.6
101650.8
101648.93
101646.92
101644.74
101642.43
101640
101637.46
101634.82
101632.09
101629.28
101626.39
101623.45
101620.45
101617.37
101651.93
101657.05
101656.64
101655.17
101653.55
101651.87
101650.09
101648.18
101646.14
101643.99
101641.74
101639.41
101637
101634.52
101631.98
101629.38
101626.74
101624.01
101654.95
101661.19
101662.19
101660.89
101659.12
101657.38
101655.63
101653.8
101651.88
101649.89
101647.82
101645.7
101643.51
101641.28
101638.99
101636.67
101634.31
101631.87
101660.41
101668.04
101670.22
101668.83
101666.75
101664.84
101663.03
101661.2
101659.32
101657.41
101655.46
101653.47
101651.46
101649.41
101647.33
101645.22
101643.1
101640.9
101667.31
101676.34
101679.21
101677.67
101675.4
101673.41
101671.59
101669.79
101667.97
101666.14
101664.31
101662.45
101660.59
101658.7
101656.81
101654.9
101652.98
101651.02
101676.41
101685.02
101687.61
101686.15
101684.1
101682.32
101680.67
101679.04
101677.38
101675.72
101674.04
101672.35
101670.65
101668.93
101667.2
101665.46
101663.71
101661.94
101686.93
101694.35
101696.48
101695.15
101693.34
101691.77
101690.32
101688.86
101687.38
101685.88
101684.36
101682.82
101681.25
101679.65
101678.01
101676.34
101674.63
101672.83
101699.15
101704.65
101706.09
101704.87
101703.31
101701.94
101700.66
101699.35
101698.02
101696.66
101695.27
101693.86
101692.41
101690.94
101689.44
101687.91
101686.35
101684.75
101709.19
101711.88
101712.52
101711.63
101710.55
101709.57
101708.62
101707.63
101706.6
101705.5
101704.35
101703.15
101701.88
101700.57
101699.2
101697.77
101696.29
101694.74
101717.7
101720.05
101720.84
101720.66
101720.04
101719.21
101718.27
101717.26
101716.15
101714.95
101713.65
101712.28
101710.85
101709.36
101707.84
101706.29
101704.7
101703.09
101720.24
101719.8
101719.39
101718.89
101718.32
101717.64
101716.82
101715.86
101714.79
101713.61
101712.35
101711.01
101709.61
101708.16
101706.66
101705.09
101703.46
101701.76
101715.15
101714.53
101713.8
101713.05
101712.25
101711.39
101710.46
101709.46
101708.39
101707.25
101706.05
101704.77
101703.43
101702.01
101700.52
101698.95
101697.31
101695.59
101706.92
101706.3
101705.58
101704.88
101704.17
101703.4
101702.58
101701.69
101700.73
101699.71
101698.61
101697.45
101696.21
101694.9
101693.51
101692.05
101690.51
101688.89
101699.44
101698.87
101698.17
101697.49
101696.77
101696
101695.17
101694.29
101693.35
101692.35
101691.29
101690.16
101688.97
101687.71
101686.38
101684.98
101683.5
101681.95
101691.82
101691.26
101690.6
101689.95
101689.27
101688.55
101687.78
101686.96
101686.08
101685.15
101684.17
101683.12
101682.01
101680.84
101679.6
101678.29
101676.92
101675.46
101684.86
101684.33
101683.69
101683.05
101682.39
101681.68
101680.92
101680.12
101679.26
101678.36
101677.4
101676.39
101675.32
101674.19
101673
101671.75
101670.43
101669.04
101678.03
101677.51
101676.89
101676.27
101675.64
101674.96
101674.24
101673.47
101672.66
101671.81
101670.9
101669.95
101668.94
101667.87
101666.75
101665.57
101664.33
101663.03
101671.67
101671.16
101670.56
101669.95
101669.32
101668.66
101667.95
101667.21
101666.42
101665.59
101664.71
101663.79
101662.81
101661.79
101660.71
101659.58
101658.39
101657.14
101665.48
101664.98
101664.39
101663.8
101663.19
101662.55
101661.87
101661.15
101660.4
101659.6
101658.76
101657.88
101656.95
101655.97
101654.95
101653.87
101652.75
101659.63
101659.14
101658.56
101657.98
101657.38
101656.75
101656.09
101655.39
101654.65
101653.87
101653.06
101652.21
101651.31
101650.37
101649.38
101648.35
101647.27
101653.95
101653.46
101652.9
101652.33
101651.75
101651.14
101650.49
101649.81
101649.1
101648.35
101647.57
101646.75
101645.89
101644.99
101644.05
101643.06
101642.02
101648.53
101648.05
101647.5
101646.94
101646.37
101645.77
101645.14
101644.47
101643.78
101643.06
101642.3
101641.5
101640.67
101639.8
101638.89
101637.94
101636.95
101643.28
101642.8
101642.26
101641.72
101641.16
101640.57
101639.96
101639.32
101638.64
101637.94
101637.21
101636.44
101635.64
101634.81
101633.93
101633.02
101632.07
101638.24
101637.77
101637.24
101636.7
101636.15
101635.58
101634.98
101634.36
101633.7
101633.02
101632.31
101631.57
101630.8
101629.99
101629.15
101628.27
101627.36
101633.35
101632.89
101632.37
101631.85
101631.31
101630.75
101630.17
101629.56
101628.93
101628.27
101627.58
101626.86
101626.12
101625.34
101624.53
101623.68
101622.81
101628.64
101628.19
101627.68
101627.17
101626.65
101626.1
101625.54
101624.94
101624.33
101623.69
101623.02
101622.32
101621.6
101620.85
101620.07
101619.26
101618.41
101624.08
101623.63
101623.14
101622.64
101622.13
101621.6
101621.05
101620.48
101619.88
101619.26
101618.61
101617.94
101617.24
101616.52
101615.76
101614.98
101614.17
101619.67
101619.23
101618.75
101618.27
101617.77
101617.25
101616.72
101616.16
101615.58
101614.98
101614.35
101613.7
101613.03
101612.33
101611.6
101610.85
101610.07
101615.38
101614.96
101614.49
101614.02
101613.54
101613.04
101612.52
101611.98
101611.41
101610.83
101610.23
101609.6
101608.95
101608.28
101607.58
101606.85
101606.1
101611.22
101610.81
101610.36
101609.9
101609.43
101608.95
101608.44
101607.92
101607.38
101606.82
101606.23
101605.63
101605
101604.35
101603.68
101602.98
101602.26
101607.18
101606.78
101606.34
101605.9
101605.44
101604.97
101604.49
101603.98
101603.46
101602.91
101602.35
101601.77
101601.17
101600.54
101599.89
101599.22
101598.53
101603.25
101602.86
101602.44
101602.01
101601.57
101601.11
101600.64
101600.15
101599.65
101599.12
101598.58
101598.02
101597.44
101596.84
101596.21
101595.57
101594.9
101599.42
101599.04
101598.64
101598.22
101597.8
101597.36
101596.9
101596.43
101595.94
101595.44
101594.92
101594.37
101593.82
101593.24
101592.64
101592.02
101591.37
101595.7
101595.34
101594.94
101594.54
101594.13
101593.71
101593.27
101592.81
101592.34
101591.86
101591.35
101590.83
101590.29
101589.74
101589.16
101588.56
101587.95
101592.1
101591.74
101591.36
101590.97
101590.58
101590.17
101589.74
101589.3
101588.85
101588.38
101587.9
101587.39
101586.88
101586.34
101585.79
101585.21
101584.62
101588.6
101588.26
101587.89
101587.51
101587.13
101586.73
101586.32
101585.9
101585.46
101585.01
101584.54
101584.06
101583.56
101583.05
101582.51
101581.96
101581.39
101585.21
101584.88
101584.52
101584.16
101583.79
101583.41
101583.01
101582.61
101582.18
101581.75
101581.3
101580.83
101580.35
101579.86
101579.34
101578.81
101578.26
101581.93
101581.61
101581.26
101580.91
101580.56
101580.19
101579.81
101579.41
101579.01
101578.59
101578.15
101577.71
101577.24
101576.76
101576.27
101575.76
101575.23
101578.74
101578.43
101578.1
101577.76
101577.42
101577.06
101576.7
101576.32
101575.93
101575.52
101575.1
101574.67
101574.23
101573.77
101573.29
101572.8
101572.29
101575.64
101575.35
101575.03
101574.71
101574.38
101574.03
101573.68
101573.32
101572.94
101572.55
101572.15
101571.73
101571.3
101570.86
101570.4
101569.93
101569.44
101572.64
101572.36
101572.05
101571.74
101571.42
101571.09
101570.75
101570.4
101570.04
101569.67
101569.28
101568.88
101568.47
101568.04
101567.6
101567.15
101566.68
101569.72
101569.45
101569.16
101568.86
101568.55
101568.24
101567.91
101567.57
101567.23
101566.87
101566.5
101566.11
101565.72
101565.31
101564.89
101564.45
101566.9
101566.63
101566.35
101566.06
101565.77
101565.47
101565.15
101564.83
101564.5
101564.15
101563.8
101563.43
101563.05
101562.66
101562.25
101561.84
101564.15
101563.9
101563.63
101563.35
101563.07
101562.78
101562.48
101562.17
101561.85
101561.52
101561.18
101560.83
101560.46
101560.09
101559.7
101559.3
101561.5
101561.25
101560.99
101560.73
101560.46
101560.18
101559.89
101559.59
101559.29
101558.97
101558.64
101558.3
101557.96
101557.6
101557.23
101556.84
101558.93
101558.7
101558.45
101558.19
101557.93
101557.66
101557.39
101557.1
101556.81
101556.5
101556.19
101555.87
101555.54
101555.19
101554.84
101554.47
101556.45
101556.23
101555.99
101555.75
101555.5
101555.24
101554.97
101554.7
101554.42
101554.13
101553.83
101553.52
101553.2
101552.87
101552.53
101552.18
101554.07
101553.85
101553.62
101553.39
101553.15
101552.9
101552.65
101552.39
101552.12
101551.84
101551.55
101551.26
101550.95
101550.64
101550.31
101549.98
101551.77
101551.57
101551.35
101551.13
101550.9
101550.66
101550.42
101550.17
101549.91
101549.64
101549.37
101549.09
101548.8
101548.49
101548.18
101547.86
101549.58
101549.38
101549.17
101548.96
101548.74
101548.51
101548.28
101548.04
101547.8
101547.54
101547.28
101547.01
101546.73
101546.44
101546.14
101545.84
101547.47
101547.29
101547.09
101546.88
101546.67
101546.46
101546.24
101546.01
101545.77
101545.53
101545.28
101545.02
101544.75
101544.48
101544.19
101543.9
101545.47
101545.29
101545.1
101544.91
101544.71
101544.5
101544.29
101544.07
101543.85
101543.61
101543.37
101543.13
101542.87
101542.61
101542.33
101542.05
101543.57
101543.39
101543.21
101543.03
101542.84
101542.64
101542.44
101542.23
101542.01
101541.79
101541.56
101541.32
101541.08
101540.82
101540.56
101540.3
101541.76
101541.6
101541.42
101541.25
101541.06
101540.87
101540.68
101540.48
101540.27
101540.06
101539.84
101539.61
101539.38
101539.13
101538.89
101538.63
101540.06
101539.9
101539.74
101539.57
101539.39
101539.21
101539.02
101538.83
101538.63
101538.42
101538.21
101538
101537.77
101537.54
101537.3
101537.05
101538.47
101538.32
101538.15
101537.99
101537.82
101537.65
101537.47
101537.28
101537.09
101536.89
101536.69
101536.48
101536.26
101536.04
101535.81
101535.57
101536.98
101536.83
101536.68
101536.52
101536.36
101536.19
101536.02
101535.84
101535.65
101535.46
101535.27
101535.06
101534.86
101534.64
101534.42
101534.19
101535.61
101535.46
101535.31
101535.16
101535
101534.84
101534.67
101534.5
101534.32
101534.14
101533.95
101533.76
101533.55
101533.35
101533.13
101534.34
101534.21
101534.06
101533.91
101533.76
101533.6
101533.44
101533.28
101533.1
101532.93
101532.74
101532.55
101532.36
101532.16
101531.95
101533.2
101533.06
101532.92
101532.78
101532.63
101532.48
101532.32
101532.16
101531.99
101531.82
101531.65
101531.46
101531.27
101531.08
101530.88
101532.16
101532.03
101531.9
101531.76
101531.62
101531.47
101531.32
101531.16
101531
101530.83
101530.66
101530.48
101530.3
101530.11
101529.92
101531.25
101531.12
101530.99
101530.86
101530.72
101530.58
101530.43
101530.28
101530.12
101529.96
101529.79
101529.62
101529.44
101529.26
101529.07
101530.45
101530.33
101530.2
101530.07
101529.93
101529.79
101529.65
101529.5
101529.35
101529.19
101529.03
101528.86
101528.69
101528.51
101528.33
101529.76
101529.64
101529.52
101529.39
101529.26
101529.13
101528.99
101528.84
101528.69
101528.54
101528.38
101528.22
101528.05
101527.88
101527.7
101529.2
101529.08
101528.96
101528.84
101528.71
101528.57
101528.44
101528.29
101528.15
101528
101527.84
101527.68
101527.52
101527.34
101527.17
101528.77
101528.65
101528.53
101528.41
101528.28
101528.14
101528.01
101527.87
101527.72
101527.57
101527.42
101527.26
101527.09
101526.92
101526.75
101528.46
101528.34
101528.22
101528.1
101527.97
101527.84
101527.7
101527.56
101527.41
101527.26
101527.11
101526.95
101526.78
101526.61
101526.44
101528.32
101528.2
101528.08
101527.96
101527.83
101527.7
101527.56
101527.42
101527.28
101527.13
101526.97
101526.81
101526.65
101526.48
101526.31
101528.29
101528.17
101528.05
101527.92
101527.79
101527.66
101527.52
101527.38
101527.23
101527.07
101526.91
101526.75
101526.58
101526.4
101528.24
101528.1
101527.96
101527.81
101527.67
101527.51
101527.35
101527.19
101527.02
101526.85
101526.68
101526.5
101526.32
101526.13
99864.138
99854.18
99850.357
99850.359
99850.455
99849.683
99849.245
99850.777
99855.094
99861.358
99868.946
99877.784
99887.982
99900.085
99914.244
99930.031
99947.147
99965.495
99984.982
99858.952
99853.419
99848.769
99845.96
99843.747
99841.987
99841.971
99844.719
99850.365
99858.369
99868.532
99880.401
99893.611
99908.155
99924.021
99940.997
99958.944
99977.91
99834.448
99822.696
99815.459
99812.835
99812.124
99813.138
99816.389
99822.254
99830.73
99841.603
99854.346
99868.506
99883.768
99900.146
99917.729
99936.372
99955.962
99976.491
99803.4
99791.407
99785.472
99784.627
99785.988
99789.185
99794.662
99802.702
99813.226
99825.844
99840.199
99855.993
99873.036
99891.29
99910.696
99931.088
99952.353
99769.337
99758.753
99754.519
99755.383
99758.693
99764.176
99772.137
99782.619
99795.397
99810.127
99826.532
99844.375
99863.486
99883.762
99905.048
99927.191
99950.094
99731.928
99723.255
99721.115
99724.263
99730.128
99738.372
99749.127
99762.284
99777.574
99794.705
99813.423
99833.501
99854.76
99877.064
99900.212
99924.082
99691.208
99685.022
99685.609
99691.69
99700.645
99712.025
99725.842
99741.912
99759.953
99779.689
99800.873
99823.277
99846.723
99871.07
99896.06
99921.637
99647.312
99644.315
99648.344
99657.981
99670.511
99685.39
99702.558
99721.783
99742.783
99765.281
99789.043
99813.833
99839.501
99865.913
99892.689
99600.482
99601.468
99609.682
99623.48
99640.041
99658.771
99679.567
99702.162
99726.286
99751.66
99778.074
99805.282
99833.228
99861.731
99890.163
99551.144
99556.964
99570.094
99588.612
99609.619
99632.513
99657.18
99683.302
99710.666
99738.983
99768.109
99797.756
99828.082
99858.732
99499.942
99511.439
99530.148
99553.872
99579.662
99606.984
99635.711
99665.433
99696.135
99727.435
99759.4
99791.555
99824.206
99856.949
99447.738
99465.666
99490.476
99519.777
99550.588
99582.581
99615.511
99648.779
99683.051
99717.43
99752.34
99787.187
99820.781
99854.829
99395.647
99420.519
99451.698
99486.854
99522.793
99559.814
99597.088
99633.653
99671.922
99709.475
99745.683
99782.643
99818.846
99345.076
99376.866
99414.405
99455.819
99496.74
99539.207
99580.948
99620.578
99661.478
99701.798
99741.186
99780.266
99818.537
99296.943
99334.99
99379.702
99427.943
99473.52
99519.865
99565.465
99609.712
99653.622
99696.557
99738.497
99779.559
99819.603
99249.042
99296.542
99348.592
99401.913
99453.414
99504.002
99553.273
99601.172
99647.922
99693.353
99737.514
99780.454
99206.513
99262.103
99320.878
99379.623
99436.277
99491.013
99543.887
99594.992
99644.437
99692.218
99738.41
99783.077
99169.36
99232.391
99297.411
99361.384
99422.612
99481.228
99537.467
99591.482
99643.399
99693.305
99741.312
99787.512
99138.106
99208.071
99278.811
99347.538
99412.864
99474.994
99534.255
99590.856
99644.965
99696.735
99746.319
99793.833
99113.42
99189.723
99265.555
99338.459
99407.371
99472.575
99534.46
99593.286
99649.272
99702.62
99753.517
99095.898
99177.845
99258.051
99334.488
99406.419
99474.204
99538.271
99598.929
99656.441
99711.051
99762.978
99086.048
99172.866
99256.656
99335.923
99410.258
99480.083
99545.855
99607.921
99666.583
99722.119
99774.778
99084.3
99175.149
99261.677
99343.021
99419.102
99490.391
99557.359
99620.385
99679.797
99735.903
99788.984
99091.018
99185.007
99273.377
99356.003
99433.135
99505.278
99572.909
99636.417
99696.153
99752.455
99805.633
99106.53
99202.744
99292.011
99375.068
99452.513
99524.871
99592.613
99656.115
99715.728
99771.834
99824.777
99131.077
99228.648
99317.812
99400.38
99477.344
99549.262
99616.615
99679.724
99738.843
99794.366
99846.731
99164.372
99262.511
99350.608
99431.812
99507.555
99578.442
99645.09
99707.89
99766.579
99821.197
99872.548
99205.994
99303.146
99389.508
99469.019
99543.194
99612.581
99677.896
99739.511
99796.753
99849.732
99899.818
99254.829
99349.647
99433.077
99510.185
99582.375
99649.872
99712.935
99772.27
99827.035
99877.204
99925.231
99302.834
99397.299
99477.937
99552.022
99621.463
99686.474
99747.515
99805.751
99858.274
99905.936
99952.108
99361.747
99452.529
99528.619
99598.66
99664.611
99726.341
99783.381
99835.406
99886.936
99938.515
99985.19
100028.21
99447.592
99532.113
99601.025
99664.189
99724.354
99781.334
99834.875
99885.004
99933.359
99979.885
100023.4
100064.12
99541.114
99618.855
99680.548
99737.048
99791.216
99842.836
99891.728
99938.001
99982.154
100024.32
100064.33
100102.2
99636.437
99708.472
99763.239
99813.188
99861.389
99907.567
99951.519
99993.352
100033.31
100071.56
100108.07
100142.82
99737.499
99803.433
99850.86
99893.892
99935.822
99976.273
100014.99
100052.06
100087.63
100121.8
100154.58
100185.96
100216.05
99844.931
99904.229
99943.772
99979.424
100014.69
100049.06
100082.22
100114.2
100145.09
100174.94
100203.75
100231.53
100258.31
99958.771
100010.88
100041.98
100069.77
100097.96
100125.88
100153.12
100179.7
100205.63
100230.92
100255.55
100279.5
100302.75
100078.88
100123.29
100145.42
100164.87
100185.57
100206.67
100227.67
100248.52
100269.22
100289.7
100309.92
100329.83
100349.37
100368.61
100204.93
100241.23
100253.92
100264.63
100277.45
100291.37
100305.8
100320.64
100335.82
100351.25
100366.83
100382.49
100398.13
100413.74
100336.53
100364.38
100367.26
100368.85
100373.46
100379.89
100387.44
100395.99
100405.4
100415.53
100426.26
100437.46
100449.02
100460.84
100473.22
100492.37
100485.14
100477.33
100473.43
100472.09
100472.5
100474.49
100477.9
100482.51
100488.17
100494.72
100502.01
100509.9
100518.37
100614.51
100624.78
100607.24
100589.8
100577.19
100567.84
100560.87
100556.09
100553.26
100552.15
100552.52
100554.22
100557.06
100560.87
100565.53
100759.87
100761.15
100733.21
100706
100684.52
100666.98
100652.44
100640.68
100631.43
100624.4
100619.3
100615.94
100614.14
100613.72
100614.46
100616.32
100908.67
100900.91
100862.62
100825.58
100795.16
100769.34
100747.04
100728.13
100712.3
100699.2
100688.45
100679.84
100673.22
100668.37
100665.09
100663.18
101060.12
101043.09
100994.71
100947.89
100908.59
100874.52
100844.35
100818.14
100795.62
100776.37
100759.87
100745.84
100734.21
100724.76
100717.32
100711.6
100707.42
101214
101186.44
101128.24
101071.68
101023.67
100981.8
100943.86
100910.28
100881
100855.69
100833.52
100813.97
100797.21
100782.96
100771.21
100761.65
100753.79
101373.9
101332.52
101264.65
101198.1
101141.3
101092.38
101046.96
101005.99
100969.78
100938.47
100910.89
100885.75
100863.65
100844.31
100827.94
100814.39
100802.68
100793.07
101547.13
101490.55
101416.86
101340.63
101274.54
101217.72
101164.09
101114.73
101070.1
101031.76
100998.32
100966.79
100938.56
100913.21
100891.35
100873.15
100856.86
100842.97
101708.02
101651.84
101593.29
101521.08
101448.02
101379.41
101315.66
101255.4
101198.79
101150.25
101107.61
101066.98
101030.34
100996.78
100967.72
100943.29
100920.63
100900.88
100883.67
99940.913
99940.467
99932.134
99926.631
99922.362
99918.628
99915.99
99915.008
99915.681
99917.885
99921.342
99926.315
99933.002
99941.651
99952.329
99964.708
99978.545
99993.681
100010.06
99958.069
99959.156
99953.984
99948.165
99942.757
99938.239
99935.102
99933.562
99933.493
99934.654
99937.082
99941.021
99946.782
99954.608
99964.394
99975.883
99988.869
100003.3