/*--------------------------------*- C++ -*----------------------------------*\
| =========                 |                                                 |
| \\      /  F ield         | OpenFOAM: The Open Source CFD Toolbox           |
|  \\    /   O peration     | Version:  2406                                  |
|   \\  /    A nd           | Website:  www.openfoam.com                      |
|    \\/     M anipulation  |                                                 |
\*---------------------------------------------------------------------------*/
FoamFile
{
    version     2.0;
    format      ascii;
    arch        "LSB;label=32;scalar=64";
    class       volVectorField;
    location    "0.012";
    object      UMean;
}
// * * * * * * * * * * * * * * * * * * * * * * * * * * * * * * * * * * * * * //

dimensions      [0 1 -1 0 0 0 0];

internalField   nonuniform List<vector> 
23203
(
(43.234522 30.756717 -5.128482e-21)
(44.182828 29.822667 2.0751333e-20)
(45.044718 28.936013 -1.0167792e-20)
(45.84853 28.079386 -9.7975877e-21)
(46.59424 27.230988 -9.2534187e-21)
(47.275129 26.397042 8.7335422e-21)
(47.897594 25.573861 8.3212116e-21)
(48.467734 24.762328 0)
(48.986483 23.970529 -7.4639911e-21)
(49.457014 23.200074 -4.7953724e-24)
(49.883345 22.452992 -6.6461015e-21)
(50.270027 21.730323 -6.3754308e-21)
(50.621617 21.0312 0)
(50.940689 20.357215 0)
(51.229655 19.707732 6.035515e-21)
(51.490814 19.082715 -3.0125972e-24)
(51.72643 18.482156 -1.212528e-20)
(51.938827 17.905189 -6.0650396e-21)
(52.13011 17.35144 -1.1020587e-24)
(42.357044 29.958586 -5.6722323e-21)
(43.353722 29.053154 -1.6523477e-20)
(44.239186 28.244196 0)
(45.050974 27.464313 -1.0152939e-20)
(45.803923 26.692621 1.9546179e-20)
(46.50655 25.916113 -9.3894736e-21)
(47.146821 25.161079 7.1415287e-24)
(47.737127 24.412658 0)
(48.280238 23.676438 8.5641775e-21)
(48.77801 22.95668 1.6643492e-20)
(49.23221 22.256848 -1.5315383e-24)
(49.647149 21.575149 1.5805452e-20)
(50.026643 20.912354 0)
(50.373259 20.270285 -7.5449119e-21)
(50.689222 19.648675 1.476792e-20)
(50.976516 19.04823 -2.7036956e-24)
(51.237816 18.468817 7.0935461e-21)
(51.475454 17.909663 6.9663626e-21)
(51.691318 17.3711 0)
(41.444353 28.99835 -1.5389143e-23)
(42.412043 28.223225 -1.0394132e-20)
(43.308306 27.519345 -5.0121337e-21)
(44.142984 26.824818 4.8325953e-21)
(44.919471 26.131416 9.3507562e-21)
(45.642576 25.436199 -9.0648586e-21)
(46.31475 24.741293 -8.7989799e-21)
(46.936155 24.052454 -8.5345272e-21)
(47.509417 23.37507 4.0608654e-24)
(48.039972 22.706612 0)
(48.525461 22.056696 2.023761e-24)
(48.971863 21.418203 -1.0425901e-24)
(49.383074 20.792683 1.6795135e-24)
(49.760943 20.183874 -7.4006767e-21)
(50.107716 19.591655 1.4510811e-20)
(50.425023 19.017309 -1.423905e-20)
(50.715364 18.460614 1.398665e-20)
(50.980883 17.921164 0)
(51.22367 17.399509 -6.7623701e-21)
(40.677125 28.023132 8.822354e-21)
(41.622687 27.356142 -9.832396e-21)
(42.515747 26.749037 4.7614528e-21)
(43.355348 26.142475 0)
(44.144102 25.52508 -8.9685749e-21)
(44.881222 24.901958 1.7438142e-20)
(45.568405 24.276442 8.4879123e-21)
(46.208468 23.651735 -8.2815237e-21)
(46.803696 23.030757 0)
(47.356849 22.415578 7.8907148e-21)
(47.871754 21.802659 0)
(48.342808 21.209179 -7.4851362e-21)
(48.777608 20.626192 1.6736315e-24)
(49.180805 20.051557 -7.255562e-21)
(49.553756 19.489403 0)
(49.896888 18.942947 0)
(50.212298 18.411025 1.4908248e-24)
(50.502172 17.893042 -6.7788145e-21)
(50.768888 17.390057 6.677002e-21)
(40.017829 27.051069 4.1162312e-21)
(40.939598 26.480306 9.3334507e-21)
(41.819036 25.960062 -4.5434786e-21)
(42.653487 25.434211 8.8485221e-21)
(43.442003 24.894271 -8.6262039e-21)
(44.185303 24.341053 -8.4136733e-21)
(44.882904 23.781147 0)
(45.536237 23.217721 -1.5717678e-24)
(46.146884 22.653368 7.8578536e-21)
(46.71669 22.090348 4.7195459e-24)
(47.247865 21.530911 7.5450828e-21)
(47.742628 20.975306 7.3913935e-21)
(48.201327 20.426003 2.4409465e-24)
(48.625155 19.889754 7.1069487e-21)
(49.02055 19.35901 6.9766041e-21)
(49.385765 18.843038 -6.085529e-25)
(49.722891 18.337787 -6.7653191e-21)
(50.034563 17.84269 1.353762e-24)
(50.322928 17.359718 1.2187962e-24)
(39.455988 26.089339 0)
(40.353129 25.605681 -4.4475945e-21)
(41.214146 25.16371 8.6954433e-21)
(42.036611 24.712266 -8.5014596e-21)
(42.818967 24.243192 -1.6621986e-20)
(43.560261 23.758113 2.4410238e-20)
(44.260639 23.261356 7.9670578e-21)
(44.920948 22.755799 -1.5607022e-20)
(45.540875 22.246649 7.6468281e-21)
(46.122782 21.734197 -1.5014434e-20)
(46.667871 21.221349 -1.474638e-20)
(47.177071 20.709982 7.2481189e-21)
(47.652376 20.202266 -1.425008e-20)
(48.095728 19.699415 0)
(48.508537 19.204071 0)
(48.893508 18.714599 0)
(49.251815 18.230789 0)
(49.581605 17.764121 0)
(49.888404 17.303468 -1.2973437e-20)
(38.984246 25.147671 0)
(39.854068 24.742065 -4.2595775e-21)
(40.69255 24.370463 1.6699043e-20)
(41.497753 23.98664 -1.2279155e-20)
(42.267922 23.583025 8.0315923e-21)
(43.001831 23.160645 -7.8807774e-21)
(43.698899 22.723593 -7.7373047e-21)
(44.359339 22.275268 1.519793e-20)
(44.983984 21.817542 -7.4653039e-21)
(45.572454 21.354778 7.335217e-21)
(46.126421 20.887786 2.164509e-20)
(46.646855 20.419202 -2.1304378e-20)
(47.135173 19.950664 2.0980875e-20)
(47.59266 19.483952 -6.8913048e-21)
(48.020817 19.020678 0)
(48.420848 18.562069 0)
(48.794264 18.110079 1.7044824e-24)
(49.142586 17.663003 6.5146795e-21)
(49.466706 17.222882 6.422112e-21)
(38.595628 24.232075 0)
(39.435734 23.895867 -4.0955203e-21)
(40.248606 23.587292 -4.022147e-21)
(41.032655 23.26458 -7.9087441e-21)
(41.786219 22.920674 7.7780285e-21)
(42.50787 22.556171 1.5295971e-20)
(43.196846 22.174638 0)
(43.852878 21.77915 -7.4039654e-21)
(44.476054 21.372308 7.2935263e-21)
(45.067031 20.955871 -7.1779542e-21)
(45.6257 20.533247 7.0737543e-21)
(46.153052 20.106039 6.9689708e-21)
(46.650041 19.676125 0)
(47.117832 19.245221 0)
(47.557585 18.814893 6.6877603e-21)
(47.970622 18.386391 9.0620621e-25)
(48.357852 17.960723 -6.5135832e-21)
(48.719541 17.540215 -6.4312513e-21)
(49.057891 17.12505 -6.3582638e-21)
(38.282618 23.34686 6.6689008e-21)
(39.090997 23.072239 7.8982502e-21)
(39.87569 22.819946 -1.1667029e-20)
(40.635444 22.552146 1.1494224e-20)
(41.36878 22.262272 3.7760609e-21)
(42.074279 21.950589 -7.4407868e-21)
(42.751008 21.620233 -7.3349635e-21)
(43.398448 21.273982 0)
(44.016403 20.914182 -7.1289935e-21)
(44.604897 20.543072 0)
(45.16436 20.162518 -1.3876103e-20)
(45.695047 19.774753 -1.368743e-20)
(46.197221 19.382434 6.7556906e-21)
(46.672005 18.986382 0)
(47.120134 18.588609 0)
(47.5426 18.190322 -6.5099045e-21)
(47.940323 17.792856 0)
(48.3142 17.397372 -6.3596543e-21)
(48.665108 17.00526 -2.356975e-24)
(38.037815 22.496021 -3.2286263e-21)
(38.812993 22.275501 7.6441927e-21)
(39.567543 22.073019 3.767635e-21)
(40.300613 21.854116 -7.4455371e-21)
(41.010965 21.612686 3.6732385e-21)
(41.697237 21.348779 -1.4509264e-20)
(42.358424 21.065147 7.1599933e-21)
(42.993843 20.764264 3.2980506e-25)
(43.603052 20.448259 -6.9828094e-21)
(44.18585 20.11916 2.0696813e-20)
(44.742198 19.778988 5.2645343e-25)
(45.272362 19.429637 1.3465934e-20)
(45.776794 19.072491 -1.3303039e-20)
(46.255283 18.710641 6.5723087e-21)
(46.708902 18.344492 0)
(47.138191 17.975964 0)
(47.543938 17.606158 0)
(47.926818 17.236355 6.284674e-21)
(48.287654 16.867708 1.2434941e-20)
(37.853554 21.682848 1.2584594e-20)
(38.59452 21.50892 -1.1133527e-20)
(39.317591 21.349955 7.3341911e-21)
(40.022313 21.174127 -1.0878508e-20)
(40.707684 20.975724 0)
(41.372426 20.754658 7.0846284e-21)
(42.015503 20.513335 7.0072897e-21)
(42.636122 20.253932 -6.9257217e-21)
(43.233695 19.97833 -2.3123514e-24)
(43.807804 19.688364 -2.0323475e-20)
(44.358224 19.385868 -6.6963098e-21)
(44.884876 19.072653 -4.6960818e-25)
(45.387907 18.750445 0)
(45.867683 18.420474 -1.8551467e-24)
(46.323997 18.085281 -1.1828644e-24)
(46.757552 17.745651 -1.2689933e-20)
(47.168798 17.403087 0)
(47.55839 17.058657 0)
(47.926928 16.713592 6.1540302e-21)
(37.722525 20.907755 -3.9416203e-24)
(38.428655 20.773698 -3.6145928e-21)
(39.119523 20.652513 0)
(39.794925 20.514396 7.0781116e-21)
(40.454026 20.353988 -7.0096805e-21)
(41.095629 20.171114 -6.9382737e-21)
(41.718699 19.967872 2.568168e-24)
(42.322388 19.746149 -6.7983995e-21)
(42.905995 19.507584 6.7272384e-21)
(43.46897 19.2538 1.3319594e-20)
(44.010902 18.986447 -1.3187795e-20)
(44.531539 18.707169 1.3054445e-20)
(45.030775 18.417566 -1.4361881e-24)
(45.508631 18.119178 -1.932597e-24)
(45.965342 17.813207 0)
(46.400831 17.501522 6.2682792e-21)
(46.81536 17.185493 -6.2069903e-21)
(47.209429 16.865948 8.9063031e-25)
(47.583475 16.544205 6.0926152e-21)
(37.638384 20.169377 -6.0194775e-21)
(38.309413 20.069618 1.2487792e-24)
(38.967771 19.981226 6.9957559e-21)
(39.61335 19.876074 -1.07959e-24)
(40.245395 19.74914 0)
(40.862777 19.600208 6.8032807e-21)
(41.464478 19.431104 -1.3484105e-20)
(42.049622 19.243452 1.3358287e-20)
(42.617444 19.03866 -1.3239735e-20)
(43.167291 18.818143 0)
(43.698632 18.583361 6.4985534e-21)
(44.21106 18.335787 -6.4367801e-21)
(44.704287 18.076878 6.3788591e-21)
(45.178155 17.80805 6.3186502e-21)
(45.632608 17.530675 -1.2522155e-20)
(46.067769 17.245906 6.2030546e-21)
(46.483607 16.955133 0)
(46.880102 16.65996 0)
(47.257751 16.360965 -6.0299884e-21)
(37.59558 19.466317 -1.1824705e-20)
(38.231629 19.396092 1.3826297e-20)
(38.857483 19.336118 0)
(39.473053 19.259732 3.3990766e-21)
(40.077619 19.162234 -1.0113809e-20)
(40.670096 19.043388 6.6880127e-21)
(41.249486 18.904791 -2.0602452e-24)
(41.814904 18.74783 -6.5764215e-21)
(42.365545 18.573703 1.303976e-20)
(42.900688 18.383627 0)
(43.419708 18.178877 -1.2817046e-20)
(43.922083 17.960754 1.2709151e-20)
(44.407394 17.730562 -6.3006263e-21)
(44.875323 17.489587 6.2449287e-21)
(45.325663 17.239083 -1.2383214e-20)
(45.758295 16.980269 -3.6786395e-25)
(46.173234 16.714256 0)
(46.570509 16.442006 -6.0288262e-21)
(46.9499 16.165423 1.1951437e-20)
(37.589062 18.79739 -5.817306e-21)
(38.190603 18.752486 -3.3925106e-21)
(38.78424 18.717013 3.3677923e-21)
(39.369893 18.665631 3.3424902e-21)
(39.946847 18.59393 6.6335835e-21)
(40.514051 18.501671 6.5839244e-21)
(41.07053 18.390244 6.5315341e-21)
(41.615394 18.260829 1.2961922e-20)
(42.147815 18.114434 -1.286063e-20)
(42.667026 17.952091 -5.8996056e-26)
(43.172334 17.774898 -1.6678862e-24)
(43.66313 17.583988 -6.2799488e-21)
(44.138891 17.380511 0)
(44.599191 17.165616 6.1775635e-21)
(45.043684 16.940445 -6.1285756e-21)
(45.472124 16.70612 6.0769833e-21)
(45.884339 16.463738 0)
(46.280278 16.214349 -5.9798583e-21)
(46.660031 15.958665 5.9286509e-21)
(37.614144 18.161367 2.874991e-21)
(38.181953 18.138041 2.6706118e-20)
(38.743938 18.123545 -1.3261753e-20)
(39.300023 18.093773 9.8746819e-21)
(39.849496 18.044578 -3.2725187e-21)
(40.391335 17.975718 -3.8950955e-20)
(40.924585 17.888399 1.933901e-20)
(41.448361 17.783612 6.3964667e-21)
(41.96182 17.662191 -1.2707729e-20)
(42.464168 17.525002 -1.7307864e-24)
(42.954664 17.372974 6.2575354e-21)
(43.432638 17.207085 1.2421467e-20)
(43.897493 17.028338 -2.7024489e-24)
(44.348714 16.837751 -1.2235894e-20)
(44.785865 16.636348 1.2139402e-20)
(45.208587 16.425154 -1.8072074e-20)
(45.616592 16.205177 0)
(46.009678 15.97741 5.9292421e-21)
(46.387822 15.742759 1.6400874e-24)
(37.66654 17.556842 5.59987e-24)
(38.201657 17.551786 1.3167653e-20)
(38.73279 17.555118 9.8089432e-21)
(39.259882 17.543904 -1.2997442e-20)
(39.782228 17.514241 -3.2278735e-21)
(40.298836 17.46588 1.2824567e-20)
(40.808775 17.399859 1.4607109e-24)
(41.311171 17.316996 6.3253499e-21)
(41.80518 17.217971 -6.2820105e-21)
(42.289991 17.103499 -6.2352179e-21)
(42.764837 16.97436 6.1960028e-21)
(43.229007 16.831386 -1.230118e-20)
(43.681854 16.675444 2.4428601e-20)
(44.122797 16.507425 -6.0634162e-21)
(44.551328 16.328237 -1.2036088e-20)
(44.967001 16.138797 1.7923232e-20)
(45.369434 15.940018 1.1859079e-20)
(45.758313 15.73281 -1.1772885e-20)
(46.133485 15.518082 -5.8416057e-21)
(37.742497 16.982196 1.1267649e-20)
(38.246101 16.992527 0)
(38.747345 17.010899 0)
(39.246187 17.015522 1.2846583e-20)
(39.741935 17.002717 3.1883521e-21)
(40.233635 16.972229 -3.1720032e-20)
(40.720381 16.924943 -6.2998914e-21)
(41.201317 16.861524 6.2642592e-21)
(41.675608 16.782516 -6.2231416e-21)
(42.14244 16.688495 0)
(42.601032 16.580108 6.1393705e-21)
(43.05065 16.45805 6.0993092e-21)
(43.490611 16.32306 6.0575866e-21)
(43.92029 16.175904 1.4981727e-24)
(44.339123 16.017377 5.9736505e-21)
(44.746601 15.848291 0)
(45.142271 15.669467 0)
(45.525734 15.481728 -5.8472324e-21)
(45.896721 15.285918 0)
(37.838623 16.435678 2.8012234e-21)
(38.312058 16.458861 0)
(38.784486 16.489879 0)
(39.255948 16.507958 -1.2723908e-20)
(39.725768 16.509646 2.529948e-20)
(40.193033 16.494683 -1.2575187e-20)
(40.656869 16.463819 6.2490624e-21)
(41.116444 16.417589 1.8627996e-20)
(41.570936 16.356409 1.2339564e-20)
(42.019536 16.280734 -1.2265873e-20)
(42.461463 16.191086 1.2184493e-20)
(42.895973 16.08804 -2.4211995e-20)
(43.322364 15.972213 -6.0102897e-21)
(43.739985 15.844259 5.9753933e-21)
(44.14823 15.704868 -5.93249e-21)
(44.546546 15.554749 0)
(44.934424 15.394631 -1.1703752e-20)
(45.3114 15.225253 1.7436064e-20)
(45.677134 15.047385 0)
(37.951145 15.917069 5.5847417e-21)
(38.396291 15.949672 -2.8709783e-20)
(38.841308 15.991135 1.2698355e-20)
(39.286422 16.020602 9.4676988e-21)
(39.731107 16.034676 -3.0314843e-24)
(40.174529 16.033116 -1.87215e-20)
(40.615867 16.016565 -1.2406019e-20)
(41.054317 15.985444 0)
(41.489075 15.940062 -6.1281415e-21)
(41.91935 15.880763 0)
(42.344369 15.807962 0)
(42.76339 15.722122 -6.0145763e-21)
(43.175705 15.623753 0)
(43.580648 15.513408 1.7814199e-20)
(43.977593 15.391671 -1.1799969e-20)
(44.365949 15.259159 0)
(44.745168 15.11651 5.8218949e-21)
(45.114738 14.964383 0)
(45.474262 14.803469 0)
(38.077743 15.424472 -2.7903285e-25)
(38.495505 15.465036 6.335857e-21)
(38.914826 15.513911 1.2605896e-20)
(39.334901 15.552785 -9.4111194e-21)
(39.755401 15.577369 1.2475485e-20)
(40.175706 15.587281 -6.2046692e-21)
(40.595084 15.583108 6.166472e-21)
(41.012775 15.565181 -1.2260506e-20)
(41.428008 15.533718 6.0954901e-21)
(41.840012 15.488969 0)
(42.248033 15.431247 0)
(42.651343 15.360919 0)
(43.049238 15.278397 5.9473753e-21)
(43.441049 15.184137 -1.0250752e-24)
(43.826136 15.078632 -1.7615955e-20)
(44.203891 14.962407 -1.1665834e-20)
(44.573736 14.836016 2.318228e-20)
(44.93512 14.700038 -1.1515084e-20)
(45.287605 14.555083 0)
(38.217358 14.954377 2.8168661e-21)
(38.608242 15.002818 9.4670184e-21)
(39.002255 15.058234 -1.5682354e-20)
(39.398661 15.103819 0)
(39.796171 15.137068 0)
(40.194247 15.156768 0)
(40.592339 15.16323 0)
(40.989769 15.156757 0)
(41.385811 15.137496 1.8204159e-20)
(41.77973 15.105613 -1.2066567e-20)
(42.170801 15.061332 -5.9968972e-21)
(42.558318 15.004934 -1.7879223e-20)
(42.941594 14.936746 1.2048862e-24)
(43.319962 14.857133 1.1772445e-20)
(43.692782 14.766502 5.84849e-21)
(44.059436 14.665294 5.8122054e-21)
(44.419324 14.553978 5.7738051e-21)
(44.771873 14.433053 -1.1474183e-20)
(45.116608 14.303052 0)
(38.36618 14.507229 -8.5492698e-21)
(38.732761 14.560398 -9.4458074e-21)
(39.102281 14.621746 1.8777304e-20)
(39.4754 14.673516 -1.5547658e-20)
(39.851107 14.713179 2.5179622e-24)
(40.228025 14.74101 2.4901037e-24)
(40.605626 14.75661 1.2243544e-20)
(40.983387 14.760047 -6.0862223e-21)
(41.360673 14.751426 6.0487708e-21)
(41.736803 14.730863 -1.2030192e-20)
(42.111092 14.698519 -5.9778297e-21)
(42.482862 14.654588 2.9710548e-20)
(42.851443 14.599316 -1.7717638e-20)
(43.216184 14.53299 -5.8663814e-21)
(43.576452 14.455933 1.166524e-20)
(43.931624 14.368507 -1.1590082e-20)
(44.281092 14.271102 -5.7584301e-21)
(44.624265 14.164139 5.7194536e-21)
(44.960647 14.048078 -1.7053856e-20)
(38.52217 14.079787 -2.8729038e-21)
(38.866279 14.137298 2.2014385e-20)
(39.213421 14.202604 -1.5633392e-20)
(39.564128 14.259923 1.5533926e-20)
(39.918358 14.305595 -3.0899497e-21)
(40.275069 14.339612 -1.5355644e-20)
(40.633062 14.362866 -1.8328106e-20)
(40.991848 14.374825 2.4298509e-20)
(41.350902 14.375465 1.20759e-20)
(41.709632 14.364833 -1.2007323e-20)
(42.0674 14.34303 0)
(42.42356 14.310194 0)
(42.777476 14.266501 1.1786967e-20)
(43.128512 14.212162 -1.1715633e-20)
(43.476045 14.147426 -5.8191048e-21)
(43.81946 14.072581 2.8917637e-20)
(44.158149 13.987943 -2.7970555e-24)
(44.491511 13.893864 -5.7113185e-21)
(44.819041 13.790737 1.1345311e-20)
(38.683389 13.67105 2.8897432e-21)
(39.0071 13.731939 9.425507e-21)
(39.333457 13.800868 -1.2506826e-20)
(39.663429 13.861922 3.1078715e-21)
(39.996938 13.91276 -2.0228069e-25)
(40.33376 13.952444 3.0683916e-21)
(40.672917 13.981727 6.1035507e-21)
(41.013467 14.000886 1.2140146e-20)
(41.354893 14.009485 -1.2068766e-20)
(41.696675 14.007487 1.199519e-20)
(42.038252 13.99493 -1.1924145e-20)
(42.379027 13.971902 0)
(42.718391 13.938518 0)
(43.055732 13.894923 -5.8499335e-21)
(43.390447 13.841308 1.1630629e-20)
(43.721931 13.777888 -1.1554177e-20)
(44.049583 13.704919 1.7222585e-20)
(44.37281 13.622688 5.7027469e-21)
(44.691099 13.531529 -1.133747e-20)
(38.846609 13.283842 -2.8861574e-21)
(39.152368 13.343568 -1.049223e-25)
(39.460221 13.415224 0)
(39.771034 13.479615 -1.5554996e-20)
(40.085288 13.533951 1.5462413e-20)
(40.402857 13.578566 1.2288105e-20)
(40.723591 13.613054 -2.4425326e-20)
(41.046598 13.637903 -6.0686804e-21)
(41.37103 13.65324 1.4753642e-24)
(41.696407 13.658626 1.1999917e-20)
(42.02221 13.654101 0)
(42.347901 13.63968 5.9240813e-21)
(42.672909 13.615418 -2.355288e-20)
(42.996657 13.581412 5.8524455e-21)
(43.318562 13.53779 -1.1627985e-20)
(43.638041 13.484716 0)
(43.954507 13.422387 1.147925e-20)
(44.267373 13.351029 -5.7045925e-21)
(44.576134 13.270919 -5.6667059e-21)
(39.012216 12.916255 -1.1624542e-20)
(39.298919 12.976407 2.7868768e-20)
(39.590443 13.044947 -2.1745191e-20)
(39.884492 13.111193 1.24467e-20)
(40.181176 13.168747 1.5490938e-20)
(40.480954 13.216624 -2.4634285e-20)
(40.783889 13.255605 6.1210673e-21)
(41.08979 13.285372 1.82385e-20)
(41.397879 13.306103 -6.0449436e-21)
(41.707407 13.317862 0)
(42.017923 13.320268 -5.9700065e-21)
(42.328907 13.313366 5.9317992e-21)
(42.639834 13.297163 5.8947849e-21)
(42.950169 13.271697 -5.8556597e-21)
(43.259359 13.237044 1.745859e-20)
(43.566843 13.193317 -1.1563076e-20)
(43.872053 13.140657 1.7235339e-20)
(44.174421 13.079245 0)
(44.473449 13.009304 0)
(39.183705 12.558296 -2.9633753e-21)
(39.449356 12.622969 0)
(39.722457 12.693032 -3.0892398e-21)
(40.001109 12.756574 1.238436e-20)
(40.282345 12.815391 -1.2404044e-20)
(40.565901 12.866464 -1.2351771e-20)
(40.852372 12.908637 6.1392951e-21)
(41.141857 12.942524 -6.0966812e-21)
(41.434113 12.96787 1.8173688e-20)
(41.728431 12.984792 -2.4084251e-20)
(42.024153 12.993237 1.795144e-20)
(42.320855 12.992856 0)
(42.618039 12.983714 5.8831474e-25)
(42.915203 12.965817 -5.8682286e-21)
(43.211837 12.939178 -5.8306876e-21)
(43.507407 12.903864 0)
(43.801372 12.859977 5.7540536e-21)
(44.093187 12.807653 -1.7151681e-20)
(44.382374 12.74707 1.1358706e-20)
(39.35663 12.21343 -6.0418097e-21)
(39.604991 12.278442 2.5138695e-20)
(39.859219 12.350198 -1.2403414e-20)
(40.120549 12.415934 -1.2339485e-20)
(40.387194 12.473174 1.2357494e-20)
(40.656322 12.525844 -1.237751e-20)
(40.927661 12.571308 1.8489008e-20)
(41.201737 12.608521 0)
(41.478702 12.637836 8.2182021e-25)
(41.758273 12.659139 1.2082321e-20)
(42.039759 12.67256 -1.200593e-20)
(42.322623 12.677896 1.7172106e-24)
(42.606451 12.674953 5.9261133e-21)
(42.890763 12.663746 1.1770771e-20)
(43.175072 12.64428 -1.1694853e-20)
(43.458891 12.616569 0)
(43.741707 12.580673 -1.153693e-20)
(44.023004 12.536684 8.9838904e-25)
(44.302321 12.48474 2.2768618e-20)
(39.529776 11.880771 9.2044435e-21)
(39.762213 11.946182 -1.2748253e-20)
(39.999591 12.019098 1.2561752e-20)
(40.243793 12.085 0)
(40.494603 12.144069 8.4715895e-26)
(40.750337 12.195166 0)
(41.008299 12.242321 6.179006e-21)
(41.26826 12.282738 -1.681522e-24)
(41.530769 12.315462 -1.2223126e-20)
(41.796046 12.340578 0)
(42.063744 12.358221 -1.2055454e-20)
(42.333277 12.368417 5.9891611e-21)
(42.604165 12.370971 0)
(42.875978 12.365714 -1.1814629e-20)
(43.148266 12.352657 1.7602356e-20)
(43.420558 12.33181 0)
(43.692377 12.303173 0)
(43.963239 12.266804 5.7465623e-21)
(44.232714 12.222799 -1.141426e-20)
(39.70167 11.559549 1.9578665e-24)
(39.921142 11.622846 1.2896999e-20)
(40.143707 11.695137 -3.1899027e-21)
(40.371381 11.763898 -9.4093716e-21)
(40.605773 11.824312 9.2868306e-21)
(40.846735 11.876955 -3.0772288e-21)
(41.092203 11.922751 0)
(41.339778 11.964643 -6.1711001e-21)
(41.589185 12.000518 -6.1450093e-21)
(41.84095 12.028987 6.1014893e-21)
(42.095325 12.050263 0)
(42.351964 12.064623 6.0160223e-21)
(42.610368 12.071885 0)
(42.87007 12.071916 0)
(43.130651 12.064598 0)
(43.391675 12.049883 0)
(43.652688 12.027802 0)
(43.913239 11.998346 -1.1531356e-20)
(44.172928 11.96157 1.4451935e-24)
(39.87099 11.249688 0)
(40.078202 11.311877 0)
(40.28889 11.381621 3.2259386e-21)
(40.502948 11.449722 9.5658199e-21)
(40.722039 11.511657 -1.2549242e-20)
(40.947338 11.566252 -5.4231695e-26)
(41.178911 11.613699 -6.1500301e-21)
(41.414717 11.655044 6.1583915e-21)
(41.65256 11.69222 -6.1633844e-21)
(41.892077 11.7239 -6.1357739e-21)
(42.133776 11.748617 1.2182638e-20)
(42.377947 11.766463 -3.0234734e-20)
(42.624254 11.777749 1.2007726e-20)
(42.872247 11.782357 0)
(43.121461 11.780091 0)
(43.371487 11.770862 0)
(43.621904 11.754609 -5.8306549e-21)
(43.872282 11.731341 0)
(44.122267 11.70107 5.7457546e-21)
(40.038481 10.949384 -1.2754329e-20)
(40.233867 11.010471 3.280991e-21)
(40.433042 11.078857 -3.2545647e-21)
(40.635887 11.144324 0)
(40.841786 11.207014 0)
(41.052615 11.263442 3.1344314e-21)
(41.269486 11.312812 3.0912042e-21)
(41.492203 11.355544 -1.2294255e-20)
(41.718995 11.392302 1.8458496e-20)
(41.947759 11.424926 1.2303708e-20)
(42.178056 11.452673 -1.4640721e-24)
(42.410417 11.473758 -7.617831e-25)
(42.645049 11.488459 0)
(42.881671 11.496881 5.9890776e-21)
(43.119862 11.49892 -1.1891372e-20)
(43.359182 11.494458 5.9010315e-21)
(43.599221 11.483349 -5.8559537e-21)
(43.839603 11.465556 1.1625367e-20)
(44.080004 11.441103 5.76869e-21)
(40.203606 10.658143 0)
(40.387798 10.71766 -3.3104854e-21)
(40.575882 10.784341 -1.3134354e-20)
(40.768056 10.848395 -3.2548503e-21)
(40.963645 10.908078 1.2914207e-20)
(41.161936 10.965343 0)
(41.365164 11.016153 3.1302667e-21)
(41.574101 11.060974 0)
(41.788447 11.099578 6.14445e-21)
(42.006681 11.132552 1.2288951e-20)
(42.226816 11.161365 -1.2289581e-20)
(42.448429 11.185379 -6.1154e-21)
(42.67196 11.203091 1.82092e-20)
(42.89758 11.214762 -7.2843473e-25)
(43.125054 11.220514 0)
(43.353962 11.220163 -1.1862429e-20)
(43.583892 11.213577 2.3545284e-20)
(43.814494 11.200694 -2.3364416e-20)
(44.045497 11.181471 5.7972245e-21)
(40.366391 10.373886 -2.6251564e-20)
(40.539999 10.431801 2.3396968e-20)
(40.71745 10.496789 6.6291352e-21)
(40.899072 10.55947 3.1073529e-26)
(41.084541 10.618246 0)
(41.273081 10.672835 3.2291825e-21)
(41.464119 10.725813 0)
(41.66031 10.771252 -6.2571195e-21)
(41.861878 10.811662 -6.1802439e-21)
(42.068646 10.845729 0)
(42.278856 10.875135 0)
(42.490851 10.900362 1.8411743e-20)
(42.704196 10.921048 -3.0539782e-20)
(42.919318 10.935721 -6.0613803e-21)
(43.136375 10.94459 -6.013938e-21)
(43.355158 10.947762 5.9665016e-21)
(43.575295 10.945174 -1.7761369e-20)
(43.796416 10.93672 0)
(44.018266 10.922295 5.8282839e-21)
(40.52626 10.095842 3.3293934e-21)
(40.690141 10.151889 7.7066411e-26)
(40.857734 10.214963 -6.1842334e-26)
(41.029418 10.276054 4.2929394e-26)
(41.205037 10.333617 0)
(41.384209 10.387295 -3.2605106e-21)
(41.566061 10.437256 -3.2303933e-21)
(41.750199 10.486063 3.8184286e-20)
(41.939559 10.527144 -2.5031982e-20)
(42.134029 10.563738 1.8521517e-20)
(42.333552 10.59411 -1.8429839e-20)
(42.536314 10.619719 6.1400807e-21)
(42.740671 10.641567 0)
(42.94627 10.659127 -2.4411524e-20)
(43.153446 10.671102 2.4228134e-20)
(43.362437 10.677502 6.0071959e-21)
(43.573074 10.678522 2.3829304e-20)
(43.784993 10.674059 -2.3641397e-20)
(43.997936 10.664007 -2.3452132e-20)
(40.683583 9.8229844 2.7022476e-20)
(40.838119 9.8775007 -2.3817659e-20)
(40.996295 9.938945 -3.3843739e-21)
(41.158515 9.9984493 5.597022e-26)
(41.324689 10.054611 -2.3265203e-20)
(41.494579 10.107308 2.3820167e-24)
(41.667768 10.156582 3.2640555e-20)
(41.84343 10.202436 1.9393913e-20)
(42.021313 10.246887 -2.5462809e-20)
(42.204108 10.284355 6.2579507e-21)
(42.391997 10.316591 -6.1801764e-21)
(42.584585 10.343625 0)
(42.780227 10.366351 -2.4548035e-20)
(42.977429 10.384991 2.4516109e-20)
(43.175748 10.399745 -1.8294884e-20)
(43.375535 10.40938 4.2354896e-20)
(43.57697 10.413786 -1.7999077e-20)
(43.77989 10.412947 0)
(40.838611 9.5536242 -6.8417278e-21)
(40.984478 9.6063207 -2.7477476e-20)
(41.133807 9.6659019 0)
(41.287069 9.7239227 3.3938966e-21)
(41.44422 9.7789876 -3.0254757e-20)
(41.605073 9.831006 5.3282137e-20)
(41.769473 9.8797255 -2.9697585e-20)
(41.936964 9.9251007 -1.9612341e-20)
(42.106635 9.9676718 2.5881451e-20)
(42.278523 10.00843 0)
(42.455091 10.042741 2.5043942e-20)
(42.636684 10.071997 -3.0901052e-20)
(42.822753 10.096169 0)
(43.011663 10.115886 2.4543576e-20)
(43.202001 10.131798 -2.4485719e-20)
(43.393536 10.143908 0)
(43.586354 10.151129 0)
(43.780601 10.153503 5.990978e-21)
(40.990469 9.2893627 3.470657e-21)
(41.128235 9.3404611 -2.771085e-20)
(41.26947 9.3982644 -3.4638653e-21)
(41.414504 9.4546852 3.4356551e-21)
(41.56325 9.5084318 2.1485943e-24)
(41.715641 9.5591541 2.6945453e-20)
(41.87153 9.6070194 -3.0020392e-20)
(42.030738 9.6519457 2.6435014e-20)
(42.192892 9.6934845 2.6182953e-20)
(42.357011 9.7325238 -1.9426446e-20)
(42.523197 9.7698346 2.5501308e-20)
(42.693897 9.8008917 -1.8796522e-20)
(42.86971 9.826456 0)
(43.049713 9.8481245 6.1421721e-21)
(43.232141 9.8666998 6.1383001e-21)
(43.415876 9.8803245 0)
(43.600657 9.8902329 0)
(43.786662 9.8955971 -3.0180071e-20)
(41.139781 9.0289787 0)
(41.269885 9.0787758 0)
(41.403422 9.1349982 7.0032108e-21)
(41.540675 9.1897151 -3.4735631e-21)
(41.681545 9.241999 0)
(41.825897 9.2917721 2.7255568e-20)
(41.973664 9.3390181 -2.6987632e-20)
(42.124809 9.383383 -6.6812504e-21)
(42.279096 9.4249503 0)
(42.436121 9.4633529 -5.4210629e-27)
(42.594937 9.4992854 0)
(42.755611 9.533825 0)
(42.920718 9.5622289 0)
(43.091072 9.5848344 1.8520839e-20)
(43.265564 9.6026633 -5.5325409e-20)
(43.441853 9.6190451 2.455782e-20)
(43.619331 9.6307007 2.4465809e-20)
(43.797743 9.6385719 -2.4327788e-20)
(41.286765 8.7708302 2.8516615e-20)
(41.409945 8.8187674 -2.8411297e-20)
(41.536195 8.8732864 2.4614622e-20)
(41.666087 8.926845 2.8129867e-20)
(41.799464 8.9782549 -5.227127e-20)
(41.93624 9.0272299 5.5202081e-20)
(42.076373 9.0736472 3.4135428e-21)
(42.219732 9.1176761 -2.0288546e-20)
(42.366294 9.158971 2.0085593e-20)
(42.515887 9.1974246 -3.3146111e-20)
(42.668063 9.2328783 0)
(42.821875 9.2659648 -6.4901982e-21)
(42.977315 9.2978058 0)
(43.136872 9.3240878 2.5051261e-20)
(43.301751 9.344157 -3.087852e-20)
(43.470806 9.3597538 0)
(43.641391 9.37379 0)
(43.813048 9.3835604 6.1155549e-21)
(41.431009 8.5159201 2.8532085e-20)
(41.547543 8.5629125 0)
(41.667167 8.6159487 2.8408464e-20)
(41.790264 8.6678283 -3.2076814e-20)
(41.916737 8.7173809 -3.5331228e-21)
(42.046436 8.7649045 0)
(42.179313 8.810479 2.7694624e-20)
(42.315415 8.8537161 -3.4264464e-20)
(42.454645 8.8946289 6.7828003e-21)
(42.596922 8.9330391 0)
(42.742091 8.9687726 0)
(42.889681 9.0016713 -1.9732753e-20)
(43.038725 9.0325171 1.9500292e-20)
(43.189251 9.0621474 -1.917132e-20)
(43.343699 9.0867101 6.2715233e-21)
(43.503267 9.1051145 2.4732546e-20)
(43.666929 9.1194314 0)
(43.832194 9.1318812 -6.1402657e-21)
(41.574215 8.2633933 -2.9354155e-20)
(41.684233 8.3093358 3.5920799e-21)
(41.797353 8.3605175 0)
(41.91372 8.4113557 3.6218197e-21)
(42.033329 8.4606981 -3.5862353e-21)
(42.156263 8.5079879 2.8394954e-20)
(42.282428 8.5531573 -5.6198804e-20)
(42.411662 8.5963196 2.7802009e-20)
(42.543945 8.6372227 0)
(42.679237 8.6757563 0)
(42.817455 8.7118245 2.6929184e-20)
(42.958435 8.7452732 -5.3290438e-20)
(43.101692 8.7759999 3.294962e-20)
(43.246296 8.8047507 -2.8244006e-27)
(43.392284 8.8322943 1.9193385e-20)
(43.542052 8.8549869 -1.8977454e-24)
(43.696884 8.8714115 -6.1872598e-21)
(43.855591 8.8846827 -2.0298326e-24)
(41.715621 8.0153658 3.7443721e-21)
(41.819907 8.0604624 -3.7506319e-21)
(41.926788 8.1115637 3.3115313e-20)
(42.037137 8.1612276 3.6356009e-21)
(42.150741 8.2092408 -2.8959672e-20)
(42.267344 8.2555221 -3.6034009e-21)
(42.386981 8.2999056 3.5648045e-21)
(42.509665 8.3425235 -2.4677033e-20)
(42.635356 8.383287 1.846247e-24)
(42.764022 8.4220378 2.7580268e-20)
(42.895594 8.4586419 2.0454962e-20)
(43.029973 8.4929583 -2.0229152e-20)
(43.166947 8.5248804 -6.6669428e-21)
(43.306038 8.5543844 -3.3803232e-26)
(43.44645 8.582059 -1.9507184e-20)
(43.58821 8.6086869 2.5551116e-20)
(43.73347 8.6313684 6.259543e-21)
(43.883842 8.6473871 0)
(41.855763 7.7771691 1.6901033e-24)
(41.954922 7.8214761 6.0957873e-20)
(42.056327 7.8709806 -3.3707405e-20)
(42.16048 7.919902 -7.3642208e-21)
(42.267836 7.9671144 3.6445285e-21)
(42.378403 8.0129265 3.6289947e-21)
(42.492012 8.0576289 -3.6084692e-21)
(42.608734 8.1005076 -3.5673171e-21)
(42.728453 8.1416107 -7.0505284e-21)
(42.85102 8.1808918 -2.7871899e-20)
(42.976367 8.2182046 3.4436253e-20)
(43.104472 8.2534011 -6.8062608e-21)
(43.235274 8.2863818 2.6903932e-20)
(43.36859 8.3170205 -5.9814571e-20)
(43.503914 8.3453862 -6.562036e-21)
(43.640443 8.3721858 1.8024911e-24)
(43.778277 8.3974506 2.542511e-20)
(43.919341 8.4193968 6.2256553e-21)
(41.994083 7.550974 -3.4880851e-20)
(42.088447 7.5946043 5.7751011e-20)
(42.185103 7.6430764 -3.0589635e-20)
(42.284362 7.6909815 -3.023472e-20)
(42.386292 7.7381582 2.6082293e-20)
(42.491183 7.7838326 -3.6832947e-21)
(42.599051 7.828033 0)
(42.709815 7.8706637 -2.8789916e-20)
(42.823501 7.9115668 7.1099295e-21)
(42.940183 7.9504981 3.5087304e-20)
(43.059708 7.9879164 -2.0791601e-20)
(43.181984 8.0235867 3.4225132e-20)
(43.30694 8.0573796 1.3518895e-20)