/*--------------------------------*- C++ -*----------------------------------*\
| =========                 |                                                 |
| \\      /  F ield         | OpenFOAM: The Open Source CFD Toolbox           |
|  \\    /   O peration     | Version:  2406                                  |
|   \\  /    A nd           | Website:  www.openfoam.com                      |
|    \\/     M anipulation  |                                                 |
\*---------------------------------------------------------------------------*/
FoamFile
{
    version     2.0;
    format      ascii;
    arch        "LSB;label=32;scalar=64";
    class       volScalarField;
    location    "0.03";
    object      rho;
}
// * * * * * * * * * * * * * * * * * * * * * * * * * * * * * * * * * * * * * //

dimensions      [1 -3 0 0 0 0 0];

internalField   nonuniform List<scalar> 
2065
(
1.1886931
1.1889967
1.1892587
1.1894825
1.1896866
1.1881183
1.1883704
1.1886625
1.1889357
1.1891813
1.1882966
1.18839
1.1885354
1.1887031
1.1885864
1.1886219
1.1886788
1.1886415
1.1886693
1.1887054
1.1886445
1.1886699
1.1886367
1.1886322
1.1886255
1.1883515
1.1882867
1.1882296
1.1881855
1.1881768
1.1881639
1.1881485
1.1881591
1.1881418
1.1881189
1.1881077
1.1881012
1.1880961
1.1880818
1.1878411
1.1878977
1.1879622
1.188005
1.1880262
1.1894559
1.1898101
1.1900319
1.1901919
1.1903245
1.1904265
1.1904709
1.1904653
1.1904282
1.1896683
1.1900348
1.1902664
1.1904333
1.1905577
1.190636
1.1906617
1.1906453
1.1906042
1.1898032
1.1901712
1.1904358
1.1906215
1.1907493
1.1908195
1.1908365
1.1908153
1.1907736
1.1899671
1.1903518
1.1906413
1.1908322
1.1909518
1.1910103
1.1910178
1.1909915
1.1909486
1.1901483
1.1905439
1.1908444
1.1910351
1.1911451
1.1911927
1.1911923
1.1903244
1.1903547
1.1902646
1.1901803
1.1901229
1.1901313
1.1902869
1.1905326
1.190453
1.1903806
1.1903341
1.1903517
1.1905115
1.1907065
1.1906345
1.1905707
1.1905322
1.1905527
1.1907029
1.1908851
1.190818
1.1907591
1.1907242
1.1907439
1.1908842
1.2032769
1.2040831
1.2049101
1.2056235
1.2060605
1.2061801
1.2020862
1.2029419
1.2037875
1.2044941
1.2049147
1.2050121
1.2008486
1.2017229
1.2025617
1.203252
1.2036662
1.2037534
1.1995245
1.2003883
1.2011956
1.201851
1.2022442
1.2023451
1.1981269
1.198966
1.199739
1.2003737
1.2007934
1.2009805
1.1967113
1.1975293
1.1982785
1.198895
1.1993053
1.1994825
1.1952449
1.1960164
1.1967168
1.1972912
1.1976683
1.1977945
1.1937613
1.1944675
1.1951022
1.1956224
1.1959661
1.1960675
1.1923297
1.1929647
1.19353
1.193995
1.1943116
1.1944106
1.1909985
1.1915571
1.1920493
1.1924565
1.1927451
1.192854
1.1898291
1.1903144
1.1907402
1.1910934
1.1913517
1.1914731
1.1888537
1.1892593
1.1896125
1.1899056
1.1901249
1.1902593
1.1881176
1.1884518
1.1887457
1.1890009
1.1891996
1.1893799
1.1877113
1.1879258
1.1881118
1.188277
1.1884403
1.1886241
1.1874397
1.187612
1.1877601
1.1878979
1.1880401
1.1882303
1.1874239
1.1875536
1.1876596
1.1877578
1.1878736
1.1880562
1.1875551
1.1876327
1.1876938
1.1877538
1.1878438
1.188026
1.187796
1.1878318
1.1878588
1.1878936
1.1879651
1.1881546
1.1881286
1.1881285
1.1881252
1.1881374
1.1881965
1.1883816
1.1885124
1.1884824
1.1884524
1.1884416
1.1884838
1.1886677
1.1889194
1.1888676
1.1888202
1.188798
1.1888358
1.1890123
1.1893169
1.1892494
1.1891864
1.1891468
1.1891667
1.1893431
1.1897108
1.1896314
1.1895604
1.1895188
1.1895416
1.1897091
1.19001
1.1899347
1.1898633
1.1898144
1.1898235
1.1899859
1.209888
1.2078408
1.2057223
1.2037115
1.2022049
1.2014023
1.2013052
1.2017526
1.2024841
1.2070636
1.2051417
1.2031536
1.2014513
1.2002649
1.1997226
1.1998218
1.2004112
1.2012408
1.2038095
1.2022873
1.2006555
1.1992895
1.198394
1.1980823
1.1983521
1.1990583
1.199962
1.2005482
1.1994177
1.1981796
1.1971498
1.1965375
1.1964442
1.196868
1.1976698
1.1986221
1.1972628
1.1965131
1.1956405
1.1949701
1.1946692
1.1948003
1.195371
1.1962514
1.1972294
1.1939759
1.193608
1.1931357
1.1928214
1.1928193
1.1931815
1.1938889
1.1948323
1.1958232
1.1908079
1.1908047
1.1907281
1.190772
1.1910539
1.1916199
1.1924404
1.1934183
1.1943926
1.1878532
1.1881911
1.1884872
1.1888704
1.1894142
1.1901515
1.1910541
1.192036
1.1929668
1.1851926
1.1858428
1.1864756
1.1871652
1.1879392
1.1888155
1.1897705
1.1907322
1.1916031
1.1829928
1.1838633
1.184765
1.1857055
1.1866681
1.1876522
1.188632
1.1895523
1.1903489
1.1804676
1.1818109
1.1831619
1.1844168
1.1855862
1.1866842
1.1876754
1.1885403
1.1892569
1.1795112
1.1807346
1.1820714
1.1833951
1.1847081
1.18594
1.1869354
1.1877356
1.1883662
1.1788519
1.1803004
1.1818406
1.1833809
1.1846603
1.1856586
1.1864717
1.187155
1.1877065
1.1786463
1.1801502
1.1817182
1.1832374
1.1845628
1.1856371
1.1865
1.1870811
1.1874455
1.1788832
1.1803427
1.1818735
1.1833408
1.1846264
1.1856435
1.1863862
1.1868875
1.1872139
1.1796094
1.1809676
1.1823889
1.1837739
1.1849648
1.1858789
1.1865283
1.1869654
1.1872426
1.1807074
1.181892
1.1831593
1.1844078
1.1854851
1.186307
1.1868738
1.1872295
1.1874339
1.1820917
1.1830575
1.184117
1.1851873
1.1861223
1.1868324
1.1873056
1.1875823
1.1877239
1.1836568
1.1843767
1.1851891
1.1860521
1.1868262
1.1874157
1.1877977
1.1880063
1.188097
1.1852546
1.1857282
1.1862888
1.1869374
1.1875467
1.1880172
1.1883154
1.1884653
1.1885142
1.1866882
1.186978
1.1873293
1.1877853
1.1882418
1.1886025
1.1888272
1.1889291
1.188946
1.1878524
1.1880195
1.1882232
1.1885336
1.1888687
1.1891394
1.1893034
1.1893671
1.1893607
1.1886671
1.1888791
1.1890209
1.1892199
1.189447
1.1896389
1.1897539
1.1897897
1.1897667
1.1888492
1.1890407
1.1892444
1.1894909
1.189727
1.1899202
1.1900375
1.1900787
1.1900627
1.2161403
1.2161389
1.215421
1.2142988
1.2131417
1.2120942
1.2111828
1.2116191
1.2111915
1.2103805
1.2095656
1.2088594
1.2060961
1.2069588
1.2067863
1.2062788
1.2057711
1.2053308
1.201011
1.2022017
1.2022692
1.202071
1.2018817
1.2017369
1.1959739
1.1974634
1.1977315
1.1978264
1.1979363
1.1980727
1.1910705
1.1928364
1.1932677
1.1936408
1.1940279
1.1944207
1.1863954
1.1884004
1.1890303
1.1896406
1.1902714
1.1908979
1.1821032
1.184267
1.1850871
1.1859167
1.1867648
1.187606
1.1782908
1.180639
1.1815706
1.1825732
1.183613
1.1846326
1.1748716
1.1774468
1.1786731
1.179834
1.181045
1.1822037
1.1728933
1.1754041
1.1760285
1.1772653
1.1786463
1.1795477
1.17031
1.1731545
1.1739698
1.1751435
1.1764105
1.1781075
1.1679068
1.1706385
1.1720112
1.1736985
1.1754956
1.1772815
1.166436
1.1700958
1.1719385
1.1737325
1.1754528
1.1770773
1.1668714
1.1707831
1.1723537
1.173978
1.1756813
1.1773161
1.1684164
1.1717295
1.1731708
1.1747626
1.1764652
1.1780816
1.170154
1.1731883
1.1746355
1.176172
1.1777996
1.1793245
1.1724157
1.1750609
1.1765194
1.1780266
1.1795343
1.1809274
1.1755
1.1777224
1.1789334
1.1802184
1.1815207
1.182717
1.1787877
1.180395
1.1814861
1.1825437
1.1836015
1.1845663
1.182811
1.1834245
1.1839636
1.1846648
1.1854439
1.1861964
1.1849564
1.1856985
1.1861091
1.1864419
1.1869556
1.1875058
1.1872813
1.1867471
1.1869048
1.1873708
1.1877624
1.1882533
1.1883386
1.1875469
1.1871189
1.1874081
1.1881299
1.188607
1.1879579
1.188176
1.1877757
1.1874023
1.1875667
1.1883417
1.1883983
1.1883352
1.1882206
1.1879676
1.1878058
1.1879727
1.1884261
1.188415
1.1883802
1.1883275
1.1882256
1.1883028
1.1884877
1.1884907
1.1884815
1.1884794
1.1884838
1.1885899
1.1885158
1.1885373
1.1885404
1.1885507
1.1885747
1.1886348
1.1885608
1.1885726
1.188573
1.1885822
1.1885998
1.1886321
1.188612
1.188614
1.188608
1.1886091
1.1886157
1.1886316
1.1886754
1.1886606
1.1886468
1.188635
1.1886309
1.1886355
1.1887436
1.1887125
1.1886815
1.1886546
1.1886385
1.1886336
1.1888148
1.1887715
1.18872
1.1886733
1.1886429
1.1886294
1.188887
1.188823
1.188756
1.1886922
1.1886456
1.1886192
1.1889479
1.1888362
1.1887608
1.1886883
1.1886329
1.1885976
1.188923
1.1888307
1.1887429
1.1886611
1.1885995
1.1885595
1.1888663
1.1887902
1.1887022
1.1886177
1.1885541
1.1885121
1.1887764
1.1887083
1.1886281
1.1885496
1.1884896
1.1884495
1.1886546
1.1885951
1.1885256
1.1884606
1.1884125
1.1883802
1.1885266
1.1884761
1.1884251
1.1883781
1.1883412
1.1883163
1.1884043
1.1883692
1.1883367
1.1883066
1.1882827
1.1882643
1.1882954
1.1882829
1.1882638
1.1882508
1.1882368
1.1882221
1.1882213
1.1882197
1.1882153
1.1882106
1.1882037
1.1881969
1.1881781
1.1881878
1.1881869
1.1881872
1.1881889
1.1881907
1.1881472
1.1881734
1.1881579
1.1881504
1.1881529
1.1881537
1.1881325
1.1881278
1.1880838
1.188038
1.1879563
1.1878628
1.1880991
1.1880645
1.1880029
1.1878296
1.2044444
1.2054771
1.2056124
1.205372
1.209199
1.2098755
1.2097768
1.2092907
1.2086163
1.2077943
1.2138677
1.2142197
1.2138838
1.213144
1.2122147
1.2111187
1.2184087
1.2184508
1.2178733
1.2168797
1.2156956
1.2143561
1.2227645
1.2225026
1.2216806
1.2204359
1.2190089
1.2174389
1.2268823
1.2263047
1.2252335
1.2237433
1.2220949
1.220335
1.2306078
1.2297226
1.2284157
1.2267093
1.2248774
1.2229963
1.233704
1.2326532
1.2311666
1.229316
1.2273319
1.2253484
1.2363368
1.2353717
1.2337219
1.2317177
1.2296228
1.2274451
1.2387376
1.2376837
1.235915
1.233783
1.2315032
1.2291887
1.2406802
1.2395128
1.2376665
1.2353871
1.2329849
1.2305732
1.2421834
1.2409544
1.2390089
1.2366119
1.2341069
1.2316088
1.243225
1.2418368
1.2398147
1.2373952
1.2348608
1.2323189
1.2437522
1.2418019
1.2397721
1.2374688
1.2350168
1.232515
1.2434668
1.2420665
1.2400084
1.2375565
1.2349934
1.2324231
1.2428815
1.2416064
1.2396114
1.2371543
1.234571
1.2319807
1.2416318
1.2404001
1.2384572
1.2360757
1.2335629
1.2310352
1.2399839
1.2387894
1.2368899
1.2346249
1.232197
1.2297262
1.2379113
1.2368103
1.2349837
1.232788
1.2304795
1.2280877
1.2353457
1.234329
1.2326212
1.2305122
1.2282732
1.2259989
1.2324931
1.2313945
1.2298261
1.2278679
1.2257353
1.2235884
1.2292233
1.2282133
1.2267955
1.2249834
1.2230105
1.2209645
1.2253373
1.2246094
1.2233852
1.2217423
1.2199277
1.2180832
1.2209186
1.2204599
1.2194332
1.2179582
1.2162992
1.2148779
1.1880516
1.188026
1.1880244
1.1950978
1.1997299
1.2011257
1.216015
1.218088
1.2203897
1.2226755
1.2246759
1.2263955
1.2277481
1.2288338
1.2295859
1.229966
1.2300664
1.2298424
1.2292185
1.228333
1.2271453
1.2256625
1.2238754
1.2218208
1.2195463
1.2170671
1.2144195
1.2116262
1.2088442
1.2162745
1.2174769
1.21955
1.2215622
1.2232093
1.2246203
1.2257536
1.2266475
1.2272431
1.2275661
1.2276429
1.2273976
1.2268499
1.2260871
1.2250636
1.2237789
1.2222626
1.220537
1.2185933
1.2164272
1.2140902
1.2115841
1.2090749
1.2161476
1.2169888
1.2188229
1.2204646
1.2217767
1.222844
1.2237533
1.2244404
1.2248879
1.225142
1.2251732
1.2249256
1.2244611
1.2238243
1.2229789
1.2219279
1.220696
1.2192617
1.2176587
1.2158391
1.2138698
1.2117198
1.2094877
1.2158224
1.2164783
1.2179966
1.2192552
1.2202435
1.2210606
1.2217402
1.2222368
1.2225701
1.2227573
1.2227355
1.2224999
1.2221145
1.2215904
1.2209033
1.2200562
1.2190651
1.2179273
1.2165771
1.2151166
1.2134982
1.2117129
1.2098341
1.2153859
1.2158853
1.2170205
1.2179223
1.2186517
1.2192613
1.2197471
1.2200945
1.2203347
1.2204559
1.2203929
1.2201762
1.2198601
1.2194332
1.2188814
1.2182052
1.2174068
1.2164854
1.2154535
1.2142939
1.2129881
1.2115245
1.2100049
1.2148212
1.2150698
1.2158876
1.21653
1.2170616
1.2174978
1.2178315
1.2180681
1.2182296
1.2182831
1.2181914
1.2180018
1.2177431
1.2173981
1.2169611
1.2164324
1.2158118
1.2150982
1.2143006
1.2134065
1.2123951
1.2112177
1.2100026
1.2141577
1.2141542
1.2146294
1.2151267
1.2155294
1.2158321
1.21605
1.2162091
1.2163015
1.2162884
1.2161818
1.2160198
1.2158058
1.2155275
1.2151835
1.2147741
1.2142986
1.2137555
1.2131458
1.2124686
1.2117127
1.210828
1.209873
1.2133693
1.2132313
1.213517
1.2138783
1.2141551
1.2143439
1.2144717
1.2145593
1.2145847
1.214526
1.2144165
1.214275
1.2140933
1.2138664
1.2135945
1.2132775
1.2129145
1.2125039
1.2120447
1.2115355
1.2109685
1.2103224
1.209634
1.212692
1.2124863
1.2126095
1.212822
1.21298
1.2130784
1.2131428
1.2131662
1.2131273
1.2130434
1.2129381
1.212809
1.21265
1.2124608
1.2122416
1.211992
1.2117112
1.2113981
1.2110517
1.2106706
1.2102448
1.2097576
1.2092676
1.2120807
1.2118042
1.2118354
1.2119564
1.2120407
1.212086
1.2120943
1.2120545
1.2119814
1.2118932
1.21179
1.211667
1.2115237
1.2113604
1.211177
1.2109729
1.2107472
1.210499
1.2102278
1.2099323
1.2096037
1.2092261
1.2088518
1.2115586
1.211325
1.2113187
1.2113829
1.2114173
1.2114032
1.2113554
1.211288
1.2112094
1.2111197
1.2110166
1.2108992
1.2107675
1.2106213
1.2104603
1.2102838
1.2100911
1.2098815
1.209654
1.2094069
1.2091331
1.2088261
1.2085327
1.2113022
1.2111286
1.2111098
1.2111153
1.2111038
1.2110674
1.2110154
1.2109519
1.2108783
1.2107949
1.2107
1.2105921
1.2104708
1.2103359
1.2101869
1.2100237
1.2098458
1.209653
1.2094445
1.2092167
1.2089609
1.2086865
1.2084849
1.2113209
1.2112424
1.2112087
1.2111854
1.2111563
1.2111196
1.2110754
1.2110222
1.2109587
1.2108842
1.2107986
1.2107019
1.2105938
1.2104732
1.2103397
1.210193
1.2100329
1.2098594
1.2096718
1.2094658
1.2092321
1.208976
1.2113176
1.2113162
1.2112976
1.2112742
1.2112453
1.2112093
1.2111642
1.2111088
1.2110451
1.2109735
1.2108942
1.210809
1.2107173
1.2106177
1.21051
1.2103943
1.2102709
1.2101403
1.2100032
1.2098579
1.2096973
1.2095198
1.2112427
1.2112391
1.2112104
1.2111737
1.2111311
1.2110819
1.2110262
1.2109645
1.2108978
1.210826
1.2107496
1.2106689
1.2105837
1.2104941
1.2104003
1.2103025
1.2102011
1.2100968
1.209991
1.2098853
1.2097805
1.209677
1.2110397
1.2109944
1.2109362
1.2108783
1.2108202
1.2107607
1.2107001
1.2106387
1.2105766
1.2105137
1.2104499
1.2103846
1.2103173
1.2102474
1.2101739
1.2100962
1.2100134
1.2099248
1.20983
1.2097291
1.2096225
1.2095156
1.2106104
1.2105533
1.2104896
1.2104294
1.2103711
1.210313
1.210255
1.2101972
1.2101398
1.2100829
1.2100267
1.2099716
1.2099178
1.2098654
1.2098145
1.2097651
1.2097172
1.2096702
1.2096234
1.2095756
1.2095252
1.209472
1.2101676
1.2101113
1.2100499
1.2099911
1.2099336
1.2098766
1.2098198
1.2097636
1.209708
1.2096532
1.209599
1.2095455
1.2094925
1.2094401
1.2093882
1.2093368
1.2092859
1.2092357
1.2091867
1.2091393
1.209094
1.2090517
1.2096957
1.2096428
1.2095861
1.2095323
1.2094807
1.2094304
1.2093814
1.2093337
1.2092873
1.2092422
1.2091985
1.2091562
1.2091152
1.2090757
1.2090377
1.2090012
1.2089661
1.2089322
1.2088992
1.2088666
1.2088343
1.2088034
1.209233
1.2091865
1.2091369
1.2090895
1.2090436
1.2089985
1.208954
1.2089103
1.2088673
1.2088253
1.2087842
1.2087441
1.2087051
1.208667
1.2086299
1.2085938
1.2085589
1.2085254
1.2084936
1.2084635
1.2084353
1.2084092
1.2087782
1.208739
1.2086975
1.208658
1.2086202
1.2085834
1.2085476
1.208513
1.2084795
1.2084471
1.2084157
1.2083855
1.2083564
1.2083284
1.2083015
1.2082758
1.2082511
1.2082273
1.2082043
1.2081822
1.208161
1.2081414
1.2083301
1.208298
1.208264
1.2082313
1.2081997
1.2081687
1.2081383
1.2081086
1.2080795
1.2080511
1.2080234
1.2079965
1.2079703
1.2079448
1.2079201
1.2078962
1.2078732
1.2078512
1.2078302
1.2078103
1.2077915
1.207774
1.2079262
1.2079013
1.207875
1.2078497
1.2078253
1.2078016
1.2077785
1.2077562
1.2077347
1.2077139
1.2076939
1.2076747
1.2076562
1.2076385
1.2076215
1.2076051
1.2075895
1.2075745
1.2075601
1.2075464
1.2075333
1.2075211
1.2075378
1.2075193
1.2074995
1.2074802
1.2074614
1.2074429
1.2074247
1.2074068
1.2073892
1.207372
1.207355
1.2073384
1.2073222
1.2073063
1.2072908
1.2072756
1.2072609
1.2072466
1.2072329
1.2072197
1.2072072
1.2071955
1.2072266
1.2072127
1.207198
1.2071836
1.2071695
1.2071557
1.2071422
1.207129
1.2071162
1.2071038
1.2070919
1.2070804
1.2070693
1.2070586
1.2070484
1.2070385
1.2070289
1.2070196
1.2070105
1.2070014
1.2069924
1.2069836
1.2069265
1.2069167
1.2069061
1.2068954
1.2068848
1.2068742
1.2068635
1.2068527
1.2068419
1.2068311
1.2068203
1.2068095
1.2067987
1.2067881
1.2067776
1.2067674
1.2067575
1.206748
1.206739
1.2067305
1.2067226
1.2067152
1.2066807
1.2066717
1.2066623
1.2066531
1.2066439
1.2066349
1.206626
1.2066172
1.2066085
1.2065999
1.2065915
1.2065832
1.206575
1.206567
1.2065592
1.2065515
1.206544
1.2065366
1.2065293
1.2065221
1.2065152
1.2065084
1.2063887
1.2063824
1.2063757
1.2063689
1.2063622
1.2063555
1.2063488
1.206342
1.2063352
1.2063283
1.2063213
1.2063144
1.2063074
1.2063005
1.2062936
1.2062867
1.2062799
1.2062732
1.2062665
1.2062598
1.2062531
1.2062465
1.2061958
1.2061918
1.2061875
1.2061831
1.2061785
1.2061737
1.2061688
1.2061638
1.2061586
1.2061533
1.2061477
1.2061421
1.2061363
1.2061306
1.2061248
1.2061191
1.2061137
1.2061086
1.2061038
1.2060992
1.2060945
1.2060895
1.2061689
1.2061686
1.2061683
1.206168
1.2061675
1.206167
1.2061664
1.2061658
1.2061651
1.2061643
1.2061634
1.2061623
1.2061609
1.2061594
1.2061575
1.2061555
1.2061532
1.2061507
1.206148
1.2061453
1.2061423
1.2061389
1.2061689
1.206167
1.206165
1.2061626
1.2061593
1.206155
1.2061498
1.2061438
1.2061374
1.2061307
1.2061241
1.2061176
1.2061113
1.2061052
1.2060993
1.2060934
1.2060873
1.2060807
1.2060733
1.2060639
1.206049
1.2060434
1.2033789
1.2026989
1.2022554
1.2023153
1.2030382
1.2044295
1.2062622
1.2079731
1.2096577
1.2042531
1.2036099
1.2031891
1.2032491
1.2039507
1.2053101
1.2071596
1.2090203
1.2105005
1.2051398
1.2045375
1.2041278
1.2041533
1.2047733
1.2060138
1.2077377
1.2095308
1.2108648
1.2060578
1.205498
1.2050992
1.2050822
1.2055999
1.2066826
1.2082014
1.2097885
1.210963
1.2069778
1.2064699
1.2060884
1.2060281
1.2064319
1.2073324
1.2086098
1.2099492
1.2109602
1.2078719
1.2074228
1.2070648
1.2069634
1.2072481
1.2079538
1.2089786
1.2100668
1.2109264
1.2087174
1.2083285
1.2079971
1.207859
1.2080301
1.2085536
1.2093646
1.2102685
1.2109658
1.2095142
1.2091729
1.2088632
1.2086985
1.208787
1.2091905
1.2098825
1.2106478
1.2109844
1.2101889
1.2099138
1.2096537
1.209507
1.2095625
1.2098352
1.2101969
1.2105447
1.2107125
1.2107056
1.2104886
1.2102773
1.2101311
1.2100487
1.2100513
1.2102407
1.2105494
1.2106592
1.2110952
1.2109732
1.2107838
1.2105717
1.2104333
1.2104324
1.2105375
1.2106692
1.2106627
1.2112953
1.2111983
1.2111597
1.211135
1.2110878
1.2110386
1.2110142
1.210988
1.2108944
1.2114234
1.2113712
1.2112757
1.2112231
1.211238
1.2112734
1.2112921
1.2112878
1.2112476
1.2113217
1.2113666
1.2113756
1.2113294
1.2112734
1.2112541
1.2112698
1.2113064
1.2113384
1.2111494
1.2111497
1.2111891
1.2112441
1.2112707
1.211263
1.2112505
1.2112513
1.2112607
1.2108736
1.2108971
1.2109113
1.2109252
1.2109575
1.2109999
1.2110334
1.2110546
1.2110617
1.2105403
1.2105433
1.2105591
1.2105809
1.2105967
1.210606
1.2106166
1.2106299
1.2106365
1.2101405
1.2101521
1.2101601
1.2101657
1.2101747
1.2101849
1.2101928
1.210199
1.2101986
1.2097176
1.2097179
1.2097234
1.2097303
1.2097336
1.2097326
1.209731
1.209731
1.209727
1.2092552
1.2092626
1.2092678
1.2092701
1.2092717
1.2092715
1.2092692
1.2092674
1.209262
1.208816
1.2088141
1.208815
1.2088164
1.208816
1.2088135
1.2088106
1.2088084
1.2088033
1.2083477
1.2083538
1.2083587
1.2083613
1.2083619
1.2083603
1.2083575
1.2083551
1.2083507
1.2079574
1.2079555
1.207955
1.2079546
1.2079533
1.2079509
1.2079482
1.2079461
1.2079426
1.207548
1.2075514
1.2075546
1.2075565
1.2075569
1.2075558
1.207554
1.2075524
1.20755
1.2072575
1.2072549
1.2072526
1.2072501
1.2072473
1.2072441
1.2072409
1.2072386
1.2072362
1.2069248
1.2069279
1.2069311
1.2069337
1.2069351
1.2069353
1.2069346
1.2069341
1.206933
1.206706
1.2067045
1.2067028
1.2067007
1.206698
1.2066949
1.2066919
1.2066894
1.2066873
1.2063994
1.2063997
1.2064
1.2063999
1.2063991
1.2063978
1.2063962
1.2063948
1.2063933
1.2062083
1.2062083
1.2062082
1.2062074
1.2062061
1.2062044
1.2062024
1.2062005
1.2061989
1.2061729
1.2061727
1.2061724
1.2061719
1.2061714
1.2061709
1.2061704
1.2061699
1.2061694
1.2061758
1.2061762
1.2061763
1.2061763
1.2061763
1.2061762
1.2061757
1.2061744
1.2061722
1.2041425
1.2049951
1.20583
1.2066896
1.2075403
1.2083581
1.2091265
1.2098546
1.2104441
1.2108807
1.2111889
1.2114052
1.2114224
1.2113117
1.2111468
1.2108597
1.2105438
1.2101326
1.2097227
1.2092493
1.208822
1.2083421
1.2079616
1.2075454
1.2072604
1.2069227
1.2067072
1.2063989
1.2062081
1.2061731
1.2061748
1.2048943
1.2056927
1.2064726
1.2072709
1.208052
1.208796
1.2094909
1.2101421
1.2106426
1.2110065
1.2113209
1.2114545
1.2114098
1.2112962
1.2111445
1.2108584
1.210546
1.2101314
1.2097293
1.2092464
1.2088308
1.2083378
1.2079675
1.2075441
1.2072636
1.2069219
1.2067086
1.2063988
1.206208
1.2061732
1.2061737
1.2056902
1.2064329
1.2071475
1.2078733
1.2085727
1.2092343
1.2098429
1.2103864
1.2107958
1.2111564
1.2114157
1.2114455
1.2114114
1.2113096
1.2111418
1.2108623
1.2105491
1.2101349
1.2097348
1.2092479
1.2088377
1.2083374
1.2079711
1.2075453
1.2072644
1.2069231
1.2067096
1.2063989
1.2062078
1.2061733
1.2061723
1.2063867
1.2070814
1.2077359
1.2083962
1.209012
1.2095932
1.2101066
1.2105654
1.2109826
1.211289
1.2114217
1.2114727
1.2114388
1.2113312
1.2111636
1.2108803
1.2105653
1.2101513
1.209745
1.2092652
1.2088394
1.208354
1.2079658
1.2075576
1.2072583
1.2069312
1.2067107
1.2064
1.2062077
1.2061734
1.2061711
1.2068145
1.207483
1.208105
1.2087353
1.2092894
1.2098243
1.2103399
1.2108597
1.2112016
1.2114198
1.2115479
1.2115827
1.2115496
1.2114291
1.2112518
1.2109831
1.2106149
1.2102446
1.2097608
1.2093542
1.2088311
1.2084269
1.2079535
1.2075941
1.2072426
1.2069635
1.2067122
1.2064042
1.2062095
1.2061763
1.2061697
1.2069314
1.2076463
1.2082887
1.2090237
1.2096688
1.2103573
1.2107661
1.211209
1.211494
1.211709
1.2118343
1.2118712
1.2118377
1.2117079
1.2115216
1.2112234
1.2108597
1.2104358
1.2099702
1.2094921
1.208985
1.2085059
1.2080481
1.2076299
1.2072954
1.2070001
1.2067395
1.2064185
1.2062259
1.206183
1.2061583
)
;

boundaryField
{
    Side1
    {
        type            empty;
    }
    Inlet
    {
        type            calculated;
        value           uniform 1.2020535;
    }
    Side2
    {
        type            empty;
    }
    Outlet
    {
        type            calculated;
        value           nonuniform List<scalar> 0();
    }
    Botwall
    {
        type            calculated;
        value           nonuniform List<scalar> 
59
(
1.1902869
1.1905115
1.1907029
1.1908842
1.2061801
1.2050121
1.2037534
1.2023451
1.2009805
1.1994825
1.1977945
1.1960675
1.1944106
1.192854
1.1914731
1.1902593
1.1893799
1.1886241
1.1882303
1.1880562
1.188026
1.1881546
1.1883816
1.1886677
1.1890123
1.1893431
1.1897091
1.1899859
1.2069314
1.2076463
1.2082887
1.2090237
1.2096688
1.2103573
1.2107661
1.211209
1.211494
1.211709
1.2118343
1.2118712
1.2118377
1.2117079
1.2115216
1.2112234
1.2108597
1.2104358
1.2099702
1.2094921
1.208985
1.2085059
1.2080481
1.2076299
1.2072954
1.2070001
1.2067395
1.2064185
1.2062259
1.206183
1.2061583
)
;
    }
    Cyli
    {
        type            calculated;
        value           nonuniform List<scalar> 
76
(
1.2161403
1.2111828
1.2060961
1.201011
1.1959739
1.1910705
1.1863954
1.1821032
1.1782908
1.1748716
1.1728933
1.17031
1.1679068
1.166436
1.1668714
1.1684164
1.170154
1.1724157
1.1755
1.1787877
1.182811
1.1849564
1.1872813
1.1883386
1.1879579
1.1883983
1.1884261
1.1884877
1.1885158
1.1885608
1.188612
1.1886754
1.1887436
1.1888148
1.188887
1.1889479
1.188923
1.1888663
1.1887764
1.1886546
1.1885266
1.1884043
1.1882954
1.1882213
1.1881781
1.1881472
1.1881325
1.1880991
1.2044444
1.209199
1.2138677
1.2184087
1.2227645
1.2268823
1.2306078
1.233704
1.2363368
1.2387376
1.2406802
1.2421834
1.243225
1.2437522
1.2434668
1.2428815
1.2416318
1.2399839
1.2379113
1.2353457
1.2324931
1.2292233
1.2253373
1.2209186
1.1880516
1.1880244
1.1950978
1.1997299
)
;
    }
    procBoundary0to1
    {
        type            processor;
        value           nonuniform List<scalar> 
44
(
1.1898779
1.1898779
1.189405
1.1888832
1.1888832
1.1887573
1.1887573
1.1887531
1.1886982
1.1886982
1.1886573
1.1886573
1.1886485
1.1886368
1.1886181
1.1886181
1.1886036
1.1885785
1.1885379
1.1884866
1.1884222
1.1884222
1.1883462
1.1882812
1.1882229
1.1882229
1.1881631
1.1911618
1.1911185
1.1907173
1.1910209
1.1912133
1.1913174
1.1913579
1.1911618
1.1913533
1.1907173
1.1904829
1.1910589
1.1909972
1.1909437
1.1909126
1.190932
1.1910653
)
;
    }
    procBoundary0to2
    {
        type            processor;
        value           nonuniform List<scalar> 
55
(
1.1873612
1.1874831
1.1876217
1.1877423
1.1878413
1.1874584
1.187315
1.1877108
1.1874584
1.1871958
1.2014862
1.2049596
1.2015548
1.2049596
1.2045431
1.1877108
1.1874641
1.1874641
1.1869684
1.1906071
1.1968568
1.1968568
1.2014862
1.2063079
1.2072343
1.2079733
1.2086211
1.2091209
1.2094173
1.209483
1.2093859
1.2091756
1.2088293
1.2084792
1.208503
1.2087719
1.2087719
1.2093782
1.2095923
1.2094274
1.2094206
1.2090138
1.2087756
1.2083861
1.2081241
1.2077583
1.2075101
1.2071848
1.2069752
1.2067083
1.2065019
1.2062399
1.2060845
1.2061354
1.2060389
)
;
    }
    procBoundary0to3
    {
        type            processor;
        value           nonuniform List<scalar> 7(1.1881303 1.1881303 1.1880926 1.1880926 1.188062 1.188062 1.1880351);
    }
}


// ************************************************************************* //
