/*--------------------------------*- C++ -*----------------------------------*\
| =========                 |                                                 |
| \\      /  F ield         | OpenFOAM: The Open Source CFD Toolbox           |
|  \\    /   O peration     | Version:  2406                                  |
|   \\  /    A nd           | Website:  www.openfoam.com                      |
|    \\/     M anipulation  |                                                 |
\*---------------------------------------------------------------------------*/
FoamFile
{
    version     2.0;
    format      ascii;
    arch        "LSB;label=32;scalar=64";
    class       volVectorField;
    location    "0.09";
    object      U;
}
// * * * * * * * * * * * * * * * * * * * * * * * * * * * * * * * * * * * * * //

dimensions      [0 1 -1 0 0 0 0];

internalField   nonuniform List<vector> 
2065
(
(35.668532 3.7075327 0)
(36.553638 3.6087396 -6.4746021e-18)
(37.350741 3.3250164 5.9865122e-18)
(38.01427 3.0209767 -5.5387038e-18)
(38.585975 2.7526772 4.5900548e-18)
(23.650103 1.8419607 -9.7210383e-23)
(25.276981 1.8536255 1.3984577e-17)
(26.911222 1.8627804 -4.176523e-18)
(28.407872 1.8603046 0)
(29.776083 1.8082862 0)
(11.610207 0.098891313 -7.0501627e-21)
(12.823026 -0.0074704239 -6.7947118e-21)
(14.154563 -0.037959052 0)
(15.786091 0.095659238 5.816497e-21)
(4.5539726 -1.3315876 6.2495476e-21)
(5.579546 -1.4236491 -6.0473353e-18)
(6.6469327 -1.4212289 0)
(2.0719355 -2.4682192 -6.1285636e-18)
(2.8595619 -2.4600193 1.1312702e-17)
(3.6169311 -2.4122821 -5.2326183e-18)
(0.84237288 -3.3221958 5.5942434e-18)
(1.3821266 -3.1719024 0)
(-0.17488475 -3.817099 -5.2213948e-18)
(-1.1165102 -3.9922657 -4.9141432e-18)
(-1.9793052 -3.8881466 2.3293449e-18)
(-3.1651145 0.35782895 -2.2716486e-18)
(-2.655894 0.95558748 -4.6998885e-18)
(-2.0124297 1.4360191 -4.9204143e-18)
(-1.2559098 1.7815548 0)
(-1.3503525 1.4687833 -4.8258727e-18)
(-0.40168428 1.9424836 0)
(-0.34184219 1.6586157 -5.1770665e-18)
(0.58900481 1.8206801 1.0552196e-17)
(0.7841634 1.6417193 -5.5976997e-18)
(0.98318762 1.4360337 -5.2003648e-18)
(2.0750319 1.4717493 6.830233e-18)
(2.4292535 1.4135763 -6.2693096e-18)
(2.78966 1.2679373 0)
(3.1819113 1.0733586 0)
(5.6424762 1.0049871 7.562706e-18)
(5.9900741 1.0308257 -7.0011194e-18)
(6.4021548 0.92205602 6.3134605e-18)
(6.916096 0.77930512 0)
(7.4851181 0.59570763 0)
(42.153222 4.3084652 -5.4093782e-19)
(45.465894 4.4883753 0)
(48.720973 4.6362287 0)
(51.791405 4.6354109 1.439565e-18)
(54.519393 4.3313905 0)
(56.777821 3.8624941 -1.1792839e-18)
(58.566783 3.3214789 1.2615677e-18)
(59.947212 2.7875775 1.4667768e-18)
(60.992081 2.31145 4.4798117e-19)
(42.320802 4.1024901 6.9888685e-19)
(45.707589 4.2009221 -1.0057436e-18)
(48.86765 4.3439821 1.4983063e-18)
(51.813714 4.2582205 -7.445404e-21)
(54.394809 4.0254116 1.1443298e-18)
(56.54341 3.6118377 8.3750965e-22)
(58.255948 3.1202196 1.1703716e-18)
(59.58363 2.6270157 -1.3589848e-18)
(60.593809 2.1818189 -8.298218e-19)
(42.660655 3.7200215 7.520217e-19)
(46.026302 3.8135971 2.1691874e-18)
(49.025923 3.9716883 -1.6310558e-18)
(51.802785 3.9575414 1.2507391e-18)
(54.249299 3.7348527 -4.2146608e-21)
(56.293469 3.366715 1.0933746e-18)
(57.931731 2.9191326 -1.1699807e-18)
(59.20712 2.4648418 -1.5396503e-22)
(60.181281 2.0509309 4.1078227e-19)
(42.943917 3.3595092 -1.4268103e-18)
(46.24547 3.4728808 -1.0110816e-18)
(49.13177 3.6333158 -6.1273787e-21)
(51.769276 3.6366282 -2.5352777e-18)
(54.092916 3.4538307 2.3904535e-21)
(56.039729 3.1277593 -1.0869978e-18)
(57.60504 2.7210629 -1.1654906e-18)
(58.8276 2.3034788 -1.4616104e-21)
(59.764834 1.9200947 4.0506147e-19)
(43.215838 3.0539323 1.311722e-18)
(46.445092 3.1835293 0)
(49.232921 3.3349253 -1.4996619e-18)
(51.742763 3.3473575 1.2255011e-18)
(53.944628 3.1929746 -1.0898272e-18)
(55.792933 2.9014867 2.1461298e-18)
(57.283778 2.5310952 1.1527473e-18)
(43.504468 2.831209 -5.9278949e-19)
(61.856725 1.9193407 0)
(62.667304 1.538505 0)
(63.444504 1.1698431 0)
(64.208763 0.81759536 0)
(64.964973 0.45939086 0)
(65.409103 0.1636541 0)
(61.428128 1.8133452 0)
(62.209519 1.4566808 0)
(62.959009 1.1104423 0)
(63.697247 0.78021895 0)
(64.432542 0.44940525 0)
(64.8712 0.16340615 0)
(60.986826 1.7080676 0)
(61.743084 1.3757933 0)
(62.470496 1.0526714 0)
(63.189875 0.74397251 0)
(63.912347 0.43588981 0)
(64.347754 0.16087762 0)
(60.541586 1.6018254 0)
(61.272548 1.2923397 0)
(61.978342 0.99069098 0)
(62.679858 0.7016506 0)
(63.389316 0.41311972 0)
(63.81957 0.15509157 0)
(50.038217 -4.3621179 7.177615e-19)
(50.383365 -3.4561406 -9.1143166e-19)
(50.721666 -2.6045548 0)
(51.109443 -1.8128549 0)
(51.697134 -1.040856 -3.9901725e-19)
(53.06226 -0.24173368 6.0090424e-19)
(51.926334 -4.4920075 -3.8911425e-19)
(52.276567 -3.5622661 5.0231055e-19)
(52.628195 -2.6919148 -7.0753932e-19)
(53.02654 -1.8833204 1.1154773e-18)
(53.586267 -1.0972291 -1.4093058e-20)
(54.690194 -0.30310208 -2.0634244e-20)
(53.941194 -4.5338019 -6.5865638e-21)
(54.30329 -3.5982081 -8.3625683e-21)
(54.676776 -2.7239006 3.7627382e-19)
(55.103487 -1.9121886 -1.1971908e-18)
(55.694393 -1.1283973 9.4565837e-19)
(56.774474 -0.31786496 4.3410246e-20)
(56.055665 -4.4886714 -3.2316337e-22)
(56.426368 -3.5690289 5.7647924e-19)
(56.809812 -2.7125088 0)
(57.232877 -1.91971 3.0777552e-23)
(57.759342 -1.1644574 5.2388277e-19)
(58.579175 -0.38918037 -7.1980667e-19)
(58.218298 -4.3451676 -4.7418075e-19)
(58.594054 -3.4585205 5.9902637e-19)
(58.988048 -2.6343703 1.3018672e-20)
(59.433791 -1.8719618 3.314109e-23)
(60.042841 -1.1501297 -2.8818038e-19)
(61.48929 -0.39413512 3.064142e-19)
(60.389339 -4.0846495 5.0073146e-19)
(60.77208 -3.2381616 0)
(61.177351 -2.4476793 4.2317032e-19)
(61.638063 -1.7086989 -2.8856708e-19)
(62.257504 -0.97724854 -7.95333e-19)
(63.42809 -0.31170234 2.9641183e-19)
(62.525738 -3.7420318 8.2531974e-21)
(62.926435 -2.9588637 0)
(63.356729 -2.2274962 0)
(63.845568 -1.5452801 -2.1491865e-20)
(64.474804 -0.86997382 0)
(65.388784 -0.26130406 -1.7824342e-20)
(64.547363 -3.333097 -8.7124385e-21)
(64.966204 -2.633909 3.4816284e-19)
(65.419097 -1.9814926 -4.7708152e-19)
(65.929372 -1.3744338 0)
(66.553697 -0.77820475 3.0085102e-19)
(67.252761 -0.22793062 -2.7345896e-19)
(66.382022 -2.8618849 0)
(66.818441 -2.2610792 1.8815592e-19)
(67.291869 -1.7003276 9.6771634e-23)
(67.82084 -1.178974 -1.8418571e-19)
(68.438833 -0.67097593 -3.0941767e-19)
(68.939343 -0.19490771 -3.1817996e-23)
(67.963606 -2.3397217 -3.0812359e-19)
(68.414468 -1.8485514 -5.9677266e-21)
(68.90099 -1.3883976 0)
(69.436563 -0.95754808 1.8995708e-19)
(70.036039 -0.53774039 -3.0708502e-19)
(70.386653 -0.15790395 -9.4527452e-21)
(69.243302 -1.7732984 0)
(69.715325 -1.4009533 -3.1138247e-21)
(70.224223 -1.0518777 0)
(70.781529 -0.72711326 0)
(71.385415 -0.41043389 8.5460749e-20)
(71.558689 -0.11933216 -8.5718886e-20)
(70.16327 -1.1793989 0)
(70.653407 -0.9357875 3.2482571e-21)
(71.170983 -0.70189712 -3.4753491e-20)
(71.722022 -0.4809284 5.017322e-20)
(72.293904 -0.26120504 0)
(72.387835 -0.080136834 0)
(70.679896 -0.56119089 4.4059106e-20)
(71.224409 -0.46240426 -5.3876674e-20)
(71.795873 -0.3612807 -3.5828648e-20)
(72.396772 -0.262471 5.1297178e-20)
(72.992382 -0.14724874 0)
(72.908579 -0.038153896 0)
(70.754113 0.078124708 1.7151277e-19)
(71.317281 0.075602533 9.7035228e-20)
(71.904941 0.071823177 -2.6876506e-19)
(72.517851 0.064492871 1.8519306e-19)
(73.114358 0.051781284 -5.8077792e-20)
(73.042755 0.011183704 6.643317e-20)
(70.627073 0.4007354 1.7432316e-19)
(71.192932 0.31929911 -1.3691788e-23)
(71.778771 0.24536461 4.0658249e-19)
(72.378747 0.16879723 -3.0869748e-19)
(72.933114 0.082203839 1.0974291e-19)
(72.789834 0.043107708 4.2952442e-21)
(70.245672 0.78915237 -3.8268569e-19)
(70.838661 0.62211834 7.2199521e-21)
(71.454134 0.47415341 0)
(72.090682 0.34748862 0)
(72.664725 0.22916263 3.8123146e-20)
(72.488411 0.098555904 0)
(69.590144 1.1608425 0)
(70.216404 0.91084392 4.7747709e-19)
(70.849673 0.68434588 -6.1729632e-19)
(71.493725 0.4777 -3.9862906e-19)
(72.101303 0.2829817 2.6545602e-19)
(71.913132 0.12224677 3.0594429e-19)
(68.752901 1.467357 0)
(69.41171 1.1543518 -1.5093423e-20)
(70.06594 0.86943062 0)
(70.719153 0.60725332 -4.4911246e-19)
(71.326287 0.35403832 6.206224e-19)
(71.182658 0.14646658 0)
(67.782078 1.7029266 -8.2813371e-19)
(68.475854 1.3423815 9.8710244e-19)
(69.15868 1.0121424 0)
(69.836788 0.70734721 -2.6161676e-20)
(70.468432 0.41004655 3.3066007e-19)
(70.359537 0.16667008 -2.7074141e-19)
(66.731093 1.8671168 -8.315271e-19)
(67.455423 1.4744378 9.5629829e-19)
(68.160214 1.1127334 0)
(68.852619 0.77848307 2.5686263e-20)
(69.497643 0.45160282 -3.5638036e-20)
(69.469296 0.18169823 0)
(65.654746 1.9675288 8.4416599e-19)
(66.409756 1.5560011 3.0235604e-20)
(67.142487 1.1734954 0)
(67.864647 0.81781152 2.5201536e-20)
(68.547134 0.47064575 -5.2122425e-19)
(68.563552 0.18734983 4.8772999e-19)
(64.575871 2.0152425 1.6255978e-18)
(65.351251 1.6014092 -1.4926172e-20)
(66.096926 1.2150375 -6.1440201e-19)
(66.82636 0.85481357 1.5161362e-18)
(67.522049 0.50106855 -1.1021037e-18)
(67.656321 0.19009768 3.0081056e-20)
(63.570456 2.0080475 0)
(64.370741 1.5894406 9.4403702e-19)
(65.139885 1.1956163 -2.3333044e-18)
(65.894809 0.82836109 1.5499598e-18)
(66.623005 0.47550493 -1.6095756e-20)
(66.796143 0.18668077 -1.4350843e-20)
(62.513845 2.0261324 -1.579555e-18)
(63.334206 1.6249378 1.8472992e-18)
(64.121618 1.239858 8.927453e-21)
(64.89581 0.87242837 0)
(65.656524 0.5038408 5.2242901e-19)
(65.953984 0.17665969 -4.3590262e-19)
(40.018674 -20.243969 1.3426001e-18)
(41.628653 -18.436812 8.4959964e-19)
(43.474119 -16.444732 -9.7473795e-19)
(45.242736 -14.306491 -4.2914023e-19)
(46.760214 -12.132519 -8.0169018e-19)
(47.939073 -10.07011 8.1096032e-19)
(48.779953 -8.2260439 -4.4268642e-19)
(49.344131 -6.6620663 -5.0863429e-19)
(49.710295 -5.3982603 1.5045019e-19)
(43.497371 -20.954345 1.4624617e-18)
(44.895292 -19.00473 -9.3465484e-19)
(46.396707 -16.862702 0)
(47.824991 -14.608019 -2.3915228e-19)
(49.057464 -12.369892 8.9962978e-19)
(50.032322 -10.274528 -4.5573464e-19)
(50.750375 -8.4097311 -4.9594798e-19)
(51.253977 -6.827996 4.2496015e-19)
(51.602115 -5.5485327 -3.3253046e-19)
(47.08416 -21.175896 -1.5458276e-18)
(48.149421 -19.134957 0)
(49.279373 -16.930881 0)
(50.386044 -14.638916 5.0822167e-19)
(51.369425 -12.392751 0)
(52.176306 -10.303768 4.8501801e-19)
(52.800654 -8.4479334 -5.2795036e-19)
(53.265966 -6.8720337 -2.3076716e-22)
(53.611003 -5.5938325 1.7698523e-19)
(50.677578 -20.892804 1.6188096e-18)
(51.39416 -18.855094 -1.3848502e-18)
(52.178483 -16.658224 0)
(52.979538 -14.398108 -2.6985808e-19)
(53.729327 -12.194139 0)
(54.38435 -10.14943 1.2889239e-19)
(54.928759 -8.3323724 5.6211767e-19)
(55.366808 -6.787042 2.4900294e-22)
(55.7159 -5.5312127 -1.1269382e-18)
(54.213339 -20.141384 1.7158505e-18)
(54.597148 -18.144372 -1.4649844e-18)
(55.050243 -16.035091 1.4326957e-18)
(55.564632 -13.875966 5.6962291e-19)
(56.102171 -11.758997 -5.3989104e-19)
(56.62125 -9.7976022 -6.8619229e-19)
(57.097637 -8.0509501 5.9733486e-19)
(57.515397 -6.5623698 -8.5346118e-20)
(57.870515 -5.3507586 0)
(57.600702 -18.912157 -3.6102932e-18)
(57.668741 -17.041899 1.644512e-18)
(57.818358 -15.073306 -1.6907251e-19)
(58.080033 -13.052271 7.5391856e-19)
(58.430783 -11.084408 -5.7166732e-19)
(58.836665 -9.2422776 4.3756094e-19)
(59.259469 -7.5980992 -6.3447081e-19)
(59.665513 -6.1910693 -9.0400453e-20)
(60.031051 -5.041247 -3.6905323e-19)
(60.727295 -17.234934 -9.4962457e-19)
(60.519017 -15.552961 -9.6845939e-19)
(60.410861 -13.784282 -8.9166433e-20)
(60.456341 -11.957193 4.7968619e-19)
(60.654203 -10.172601 -6.0660331e-19)
(60.971964 -8.4922133 1.5480657e-19)
(61.358235 -6.9846698 3.3682858e-19)
(61.763628 -5.6889508 -3.8269931e-19)
(62.148034 -4.6265106 -8.8623671e-23)
(63.499592 -15.152578 -1.0001245e-18)
(63.063857 -13.712615 5.3776859e-20)
(62.75088 -12.192842 4.726408e-20)
(62.627695 -10.609623 6.7737083e-19)
(62.708542 -9.0472296 -6.430392e-19)
(62.962506 -7.5661949 0)
(63.328168 -6.228225 0)
(63.741443 -5.0730446 -5.0605623e-20)
(64.148448 -4.1231933 -5.8873432e-20)
(65.799475 -12.713413 0)
(65.212317 -11.560964 0)
(64.759088 -10.331234 4.9732029e-20)
(64.52203 -9.0332857 4.4694071e-20)
(64.526621 -7.7325403 -2.979486e-19)
(64.742237 -6.4855508 4.3070151e-20)
(65.10189 -5.3467973 3.7729902e-19)
(65.529927 -4.3573581 5.3554516e-20)
(65.961552 -3.5407093 0)
(67.684212 -10.06283 5.5545747e-19)
(66.977954 -9.176835 0)
(66.405716 -8.2385573 -2.6155371e-20)
(66.084534 -7.251272 -4.2452847e-19)
(66.04474 -6.2473103 2.6889017e-19)
(66.246011 -5.2688948 -2.2883313e-19)
(66.614968 -4.3591788 -1.5899484e-22)
(67.065042 -3.5589927 2.2576311e-19)
(67.52268 -2.8935037 2.6153882e-19)
(68.852303 -6.3831128 -5.584717e-19)
(68.08772 -6.1522314 5.0193842e-19)
(67.516087 -5.7191389 -6.3290533e-19)
(67.207935 -5.1805128 2.1067262e-19)
(67.180028 -4.5657605 4.7168129e-20)
(67.399939 -3.911801 -1.9243008e-19)
(67.801159 -3.2707038 2.0941235e-19)
(68.286402 -2.687039 -1.4836869e-20)
(68.776621 -2.1904331 0)
(69.059236 -3.131797 1.4421924e-19)
(68.388967 -2.9943638 -1.2294252e-19)
(67.916324 -2.9432602 0)
(67.696291 -2.8261072 -1.2104827e-20)
(67.763733 -2.7197599 -4.9403635e-20)
(68.091508 -2.4298534 5.0426013e-20)
(68.582068 -2.0913328 0)
(69.132619 -1.7518756 1.555399e-20)
(69.667203 -1.4450031 -2.143749e-27)
(68.864361 -0.54964945 1.4666789e-19)
(68.269222 -0.80791798 1.7372477e-22)
(67.864891 -1.004659 -2.3179784e-19)
(67.728259 -1.0779078 9.5738505e-20)
(67.905266 -0.98604998 -2.399122e-20)
(68.332401 -0.93152174 4.9102499e-20)
(68.898251 -0.83438186 -1.0682872e-19)
(69.519342 -0.77083507 6.4916807e-20)
(70.124118 -0.66235627 2.2381038e-27)
(68.110965 1.9209922 -6.5700358e-19)
(67.69691 1.3602135 0)
(67.479288 0.87149984 2.5685021e-19)
(67.517635 0.47815149 -4.1730836e-19)
(67.800023 0.2322969 7.2509983e-20)
(68.284224 0.094735336 1.9707161e-19)
(68.891206 0.043304486 2.650648e-20)
(69.544835 0.079909694 -1.2606086e-19)
(70.176775 0.079337166 1.8241609e-20)
(66.57732 4.5114591 6.7258571e-19)
(66.483957 3.5752083 0)
(66.565387 2.7418974 0)
(66.859532 2.0190938 0)
(67.350296 1.4648993 -1.0851191e-19)
(67.983427 1.0742274 1.6404732e-19)
(68.690433 0.80631071 -5.510565e-19)
(69.396498 0.62370215 2.5545462e-19)
(70.043778 0.49647246 -3.1556724e-19)
(64.412744 6.6945643 1.5941237e-18)
(64.690716 5.5341204 -1.2633306e-18)
(65.125889 4.4323195 6.8933096e-20)
(65.723074 3.4695487 0)
(66.462646 2.6764943 1.7342331e-19)
(67.289689 2.0561083 5.8413651e-20)
(68.136261 1.5833941 6.2593961e-20)
(68.929992 1.2359625 0)
(69.629162 0.98349143 3.2680501e-19)
(61.776875 8.3511634 5.0197522e-20)
(62.495654 7.0220974 -1.2531794e-18)
(63.332989 5.77195 1.2155795e-18)
(64.277757 4.6455717 1.2651998e-19)
(65.289144 3.6848945 -9.5008892e-19)
(66.311668 2.9036383 9.6022853e-19)
(67.289037 2.2867829 0)
(68.171513 1.8095495 0)
(68.930669 1.446278 -8.5117513e-20)
(58.817171 9.3845968 4.8669758e-18)
(60.010313 8.0143443 8.8311098e-20)
(61.287934 6.7104048 -1.1848724e-18)
(62.607087 5.509039 -3.9018681e-19)
(63.909555 4.4532512 -3.6426699e-19)
(65.142529 3.5660131 2.4472386e-19)
(66.262373 2.8428185 -6.6042342e-19)
(67.236413 2.2675882 5.9695787e-19)
(68.052744 1.8209494 8.6558153e-20)
(55.723174 9.7474842 3.6968114e-18)
(57.393055 8.4696539 -1.8240177e-19)
(59.114906 7.2244867 -4.5973229e-19)
(60.811119 6.0440767 -2.9485057e-22)
(62.406115 4.9693749 -2.2880992e-22)
(63.84858 4.034912 -2.4783485e-19)
(65.109 3.2493936 1.3353713e-19)
(66.17173 2.609869 0)
(67.042174 2.105106 1.752724e-19)
(52.700122 9.4612369 -3.8161976e-18)
(54.806657 8.404674 5.7361848e-18)
(56.93845 7.3286834 3.1676514e-19)
(58.987538 6.2618287 -1.6363196e-18)
(60.859499 5.2416582 -7.5246081e-19)
(62.499251 4.3161281 1.0003592e-18)
(63.891314 3.5109726 0)
(65.036472 2.8387908 0)
(65.955769 2.2993798 -3.5263423e-19)
(49.892375 8.665726 -8.1589786e-18)
(52.384216 7.9306587 3.6079297e-18)
(54.872694 7.1031849 2.6156181e-18)
(57.228135 6.2153511 -2.5048759e-18)
(59.344322 5.3046914 0)
(61.158902 4.4324902 0)
(62.667445 3.643825 0)
(63.885638 2.9668203 0)
(64.847502 2.4135928 -3.5318966e-19)
(47.404577 7.5123826 -3.8690062e-18)
(50.157582 7.13221 -4.2456295e-19)
(52.929527 6.6065773 -6.78856e-19)
(55.550505 5.9516494 5.6893849e-19)
(57.886557 5.1948913 1.5367781e-18)
(59.859463 4.4117528 -2.0130057e-18)
(61.46935 3.6672186 -1.6107686e-18)
(62.749288 3.0075153 1.2094859e-18)
(63.745146 2.4585233 -1.5836913e-18)
(45.265621 6.343683 -5.9613476e-19)
(48.348487 6.3159815 -4.4643259e-19)
(51.344554 6.0474172 7.0030357e-19)
(54.127031 5.5965482 -4.0526922e-18)
(56.60121 4.9913132 4.6434474e-18)
(58.68315 4.3059323 -2.0103298e-18)
(60.367521 3.6173456 -2.7837537e-22)
(61.69408 2.9863126 1.199497e-18)
(62.716571 2.4478271 -1.3978832e-18)
(42.658556 5.1745189 -5.4594375e-18)
(45.855841 5.3578291 9.8615809e-19)
(49.219831 5.3668511 5.9559818e-18)
(52.37124 5.1455797 -2.3882353e-18)
(55.123136 4.7087335 0)
(57.390354 4.1419864 0)
(59.188798 3.5321746 -5.2528363e-19)
(60.581658 2.9493576 -1.7698061e-18)
(61.638382 2.4409643 1.3758663e-18)
(39.676688 -37.372916 -2.4726645e-21)
(39.536266 -32.499246 1.2478531e-17)
(38.913518 -29.430796 -4.4036905e-18)
(38.775925 -26.825871 7.426613e-19)
(38.889714 -24.445882 -2.1720325e-18)
(39.061496 -22.36709 1.9600211e-21)
(45.03446 -37.650845 -2.0148563e-18)
(44.756012 -32.786367 1.8584209e-18)
(43.669911 -29.929883 0)
(43.150763 -27.40477 -1.5552205e-18)
(42.914576 -25.080187 -5.6761684e-19)
(42.766371 -23.028807 0)
(50.323155 -37.153696 3.0830987e-18)
(49.950443 -32.355066 -1.5420504e-17)
(48.437794 -29.793338 4.7950453e-18)
(47.571543 -27.407129 1.6252961e-18)
(47.0287 -25.19851 5.9716641e-19)
(46.622537 -23.240946 1.8483976e-18)
(55.413216 -35.941539 -1.041141e-17)
(54.989642 -31.233084 0)
(53.131453 -28.989002 4.9995519e-18)
(51.962477 -26.780977 -4.2452492e-18)
(51.146238 -24.728582 0)
(50.503852 -22.906023 0)
(60.213797 -34.034132 1.0601929e-18)
(59.764726 -29.427242 -1.0361326e-18)
(57.637195 -27.540231 0)
(56.217624 -25.545407 -3.5450856e-18)
(55.168267 -23.687514 2.6120083e-18)
(54.322152 -22.036459 -2.0300388e-18)
(64.606526 -31.454138 -8.602917e-18)
(64.157183 -26.977961 5.377254e-18)
(61.823596 -25.469984 -5.4208564e-18)
(60.208801 -23.716224 3.6991709e-18)
(58.970997 -22.086952 0)
(57.96119 -20.639686 2.6568182e-18)
(68.46027 -28.24953 0)
(68.088964 -23.894163 1.109488e-18)
(65.593316 -22.805532 -2.8161217e-18)
(63.818663 -21.342199 1.9286409e-18)
(62.435118 -19.969735 -3.56614e-19)
(61.30219 -18.748283 1.6701779e-18)
(71.618826 -24.495614 0)
(71.330549 -20.267254 -1.1537167e-18)
(68.784075 -19.620758 -7.3279381e-19)
(66.921359 -18.476934 2.019304e-18)
(65.449117 -17.386011 -1.1216686e-18)
(64.241457 -16.410604 1.461392e-18)
(74.033069 -20.283529 0)
(73.984721 -16.119055 5.9242749e-19)
(71.354804 -15.953199 7.6330763e-19)
(69.402354 -15.174354 0)
(67.871801 -14.397564 0)
(66.63728 -13.68354 -3.0732234e-19)
(75.467645 -15.718251 0)
(75.343718 -11.838729 -6.13995e-19)
(72.899244 -12.276723 -1.5947415e-18)
(71.119606 -11.847944 1.1058415e-18)
(69.71264 -11.307459 2.0603471e-19)
(68.55545 -10.794356 -6.4664065e-19)
(75.828982 -12.497851 1.4340275e-18)
(76.361119 -6.5701005 -3.7834591e-18)
(74.298624 -6.9110895 1.4356303e-18)
(72.483213 -6.8540219 -9.1016261e-19)
(71.000799 -6.6909612 5.954926e-19)
(69.788032 -6.5907963 6.3357934e-19)
(76.535723 -5.2534478 0)
(76.808372 -1.3070495 -1.0524292e-18)
(74.569368 -2.8756083 9.7411668e-19)
(72.658258 -2.8887566 -6.0929897e-19)
(71.134662 -2.9971859 3.8179755e-19)
(69.942482 -3.1143824 -1.5447766e-19)
(76.10546 -1.2650742 4.9483155e-19)
(76.091045 2.3340941 -4.942283e-19)
(73.845135 0.81872851 0)
(72.074744 0.40641177 -2.6822226e-19)
(70.697682 0.040799814 2.0788781e-19)
(69.636009 -0.27203082 2.4945675e-27)
(74.528541 -0.23111049 0)
(74.20884 6.7513422 1.2174127e-18)
(72.30865 4.6282182 1.7005784e-18)
(70.778047 3.685735 -2.501751e-18)
(69.601379 3.017296 -2.4001511e-19)
(68.712082 2.4599436 1.3249154e-18)
(69.916409 5.2771141 6.1286932e-19)
(70.635128 11.520974 0)
(69.621464 8.4346748 0)
(68.410827 7.1762737 -3.4258917e-19)
(67.513217 6.2038096 7.8426871e-19)
(66.886882 5.3571722 -1.0379424e-18)
(64.618299 9.3876413 -6.2216264e-19)
(66.421907 14.781817 0)
(66.086657 11.532998 -3.9101089e-18)
(65.299578 10.022395 6.1065897e-18)
(64.73021 8.8177674 -1.6521378e-18)
(64.391533 7.7470744 -8.7891037e-19)
(58.7607 12.308721 -1.2702562e-18)
(61.739483 17.205807 -4.2166689e-18)
(61.944035 14.001014 4.0381937e-18)
(61.566479 12.186655 0)
(61.363011 10.768737 0)
(61.370093 9.5034869 1.3948922e-18)
(52.532397 13.939916 1.3327047e-18)
(55.759746 18.840999 -2.9165951e-18)
(56.957751 15.349216 0)
(57.223803 13.548528 0)
(57.558837 11.900614 0)
(57.97542 10.570519 -4.8241747e-18)
(45.763183 14.340924 4.8494194e-21)
(49.620633 19.356766 2.9619696e-18)
(51.702604 15.837518 -4.4252486e-18)
(52.64268 13.857497 0)
(53.527241 12.224141 0)
(54.443615 10.80127 -4.1941189e-18)
(38.030737 12.973093 0)
(42.106519 17.935074 -1.4918424e-18)
(45.958998 14.894827 1.1541123e-17)
(47.956683 13.0792 -5.3107254e-18)
(49.53956 11.602933 -1.3965106e-18)
(50.987501 10.26966 -1.1232218e-18)
(30.526309 10.899313 1.2508097e-17)
(35.9029 15.226572 0)
(40.455457 12.774529 7.2663878e-18)
(43.437384 11.30911 -1.8914272e-18)
(45.756587 10.190182 -2.0957086e-21)
(47.767357 9.1170324 1.2087182e-18)
(15.713411 2.4991539 -1.5754782e-17)
(27.48796 10.16343 1.2175262e-17)
(35.832412 9.6379779 0)
(39.767564 8.8309442 -8.1729882e-18)
(42.610323 8.2678683 8.1721293e-18)
(45.009285 7.5796424 5.277686e-18)
(6.8331053 -0.65605256 1.302188e-18)
(15.390203 4.464565 0)
(27.648903 6.1416276 0)
(35.806719 6.4191481 -2.2029177e-18)
(39.622853 6.2988033 0)
(42.438857 5.9775549 0)
(-6.8434192 -5.6739146 0)
(8.8526902 1.0123365 1.1359389e-17)
(15.973817 3.023938 -6.794007e-18)
(26.842526 4.3443774 2.0592919e-18)
(35.765055 5.0282125 0)
(40.082973 4.8749827 0)
(-4.2428777 -4.9121982 0)
(0.63320007 -1.2954606 0)
(7.5008516 0.49922493 0)
(14.316788 1.7632041 7.2476693e-18)
(23.34927 3.0398717 -7.9116751e-18)
(33.443262 3.9331092 0)
(-4.7702745 -5.1879598 -2.8517289e-18)
(-3.3407257 -3.2733273 -1.3919371e-17)
(0.65704225 -2.0083341 9.9141138e-18)
(5.6675107 -0.55589178 0)
(11.540198 0.6967644 3.7904668e-18)
(20.771393 2.1405453 -6.995949e-18)
(-3.491325 -4.8305056 -1.2286689e-17)
(-3.2916826 -3.946907 -8.351229e-18)
(-2.1093843 -3.2912687 2.474004e-18)
(0.081173636 -2.2224652 1.7521047e-17)
(3.5357555 -0.79659051 -1.4720246e-17)
(10.404914 0.32261503 0)
(-2.9015304 -5.0024614 -1.5384336e-17)
(-2.8285691 -4.3939246 -2.6838837e-18)
(-2.1878091 -3.7490838 -1.2178619e-17)
(-1.4297184 -2.9812083 8.5544226e-18)
(0.034720754 -1.9941602 -3.8110191e-18)
(3.149077 -1.1717982 1.0179937e-17)
(-2.4106788 -5.6955303 0)
(-2.3952668 -4.9185786 -7.0470708e-18)
(-1.7580371 -4.3456563 9.5579833e-18)
(-1.1899703 -3.7604724 -2.0610458e-18)
(-0.39103191 -3.1788118 0)
(1.0666009 -2.6147484 0)
(-2.5381199 -6.1112059 -9.1139183e-18)
(-2.2472463 -5.4663623 -1.0735581e-17)
(-1.7058446 -4.9219471 1.1487187e-17)
(-1.2169473 -4.4367741 1.9694163e-18)
(-0.6414442 -3.9895668 0)
(0.15032719 -3.5777311 -6.1250822e-18)
(-2.2645712 -6.5055367 0)
(-2.082657 -5.7947929 0)
(-1.718189 -5.2431432 -4.3824911e-18)
(-1.4079753 -4.8030433 0)
(-1.0580842 -4.4261361 4.8488684e-18)
(-0.59270984 -4.0923727 -1.4391007e-18)
(-1.9733943 -6.6402274 0)
(-1.935715 -5.929029 1.3083979e-18)
(-1.7676172 -5.3476072 1.0792522e-18)
(-1.6341099 -4.8995686 0)
(-1.4950487 -4.5370258 -2.2615766e-23)
(-1.2928485 -4.2480638 2.7150653e-18)
(-1.6488094 -6.3983269 0)
(-1.7497434 -5.6832461 -1.3224436e-18)
(-1.8279871 -5.1335175 1.0720434e-18)
(-1.891634 -4.721589 -3.5471502e-18)
(-1.9260059 -4.3965945 4.4815605e-18)
(-1.9286 -4.1305439 -1.3137368e-18)
(-1.2400138 -5.6887971 -3.9035692e-18)
(-1.5653835 -5.0713263 2.6144003e-18)
(-1.8448564 -4.6123346 -2.097214e-18)
(-2.0949634 -4.2691809 1.7231952e-18)
(-2.3212789 -3.9935268 -7.3310627e-19)
(-2.5112356 -3.7700491 2.5553798e-18)
(-0.87830681 -4.5909625 3.5665894e-18)
(-1.3812222 -4.1819466 -2.5752001e-18)
(-1.8164512 -3.8520549 -2.0314211e-18)
(-2.2050997 -3.6080603 1.6720424e-18)
(-2.5836965 -3.4045332 1.074863e-18)
(-2.9214894 -3.2472311 1.5774795e-18)
(-0.61739275 -3.2648259 1.1752457e-18)
(-1.1768481 -3.0623673 -3.7132629e-23)
(-1.7602228 -2.8800487 -3.4160293e-23)
(-2.2671501 -2.7520531 -4.1592551e-19)
(-2.7426176 -2.6487492 -3.5313782e-19)
(-3.1835361 -2.5665071 -6.225033e-19)
(-0.47073356 -1.9918566 -3.9223973e-19)
(-1.1143341 -1.7871504 6.3943517e-19)
(-1.7485966 -1.7679808 -2.5304567e-19)
(-2.2986932 -1.7803063 -1.0455068e-23)
(-2.8166906 -1.7898841 3.5127398e-19)
(-3.3029805 -1.7915575 -9.2907055e-19)
(-1.1854639 -0.15938296 0)
(-1.1041084 -0.51735143 -2.1847036e-22)
(-1.7882292 -0.70630927 2.5359111e-19)
(-2.311506 -0.82209769 -4.1453691e-19)
(-2.8112353 -0.91326943 7.0469795e-19)
(-3.2844464 -0.98648932 -1.2423895e-18)
(-0.70343066 1.361685 7.8091438e-19)
(-1.1508844 0.8043586 0)
(-1.7206115 0.42233182 3.0736535e-18)
(-2.2101983 0.16955274 -8.3816421e-19)
(-2.6747776 -0.029357025 -7.1412095e-19)
(-3.1065014 -0.18032568 0)
(-0.97029754 2.3857511 0)
(-1.3543186 1.8083471 0)
(-1.7479544 1.399348 4.13629e-18)
(-2.1331491 1.066748 -8.5470929e-19)
(-2.491043 0.80525818 -2.9074901e-18)
(-2.8219411 0.58071319 2.5648626e-18)
(-1.3866726 3.4782769 6.3693528e-18)
(-1.6005448 2.7635256 -5.2739204e-18)
(-1.8193202 2.2213123 -1.0612813e-18)
(-2.0406261 1.8092423 0)
(-2.2513114 1.4847 0)
(-2.435142 1.2234524 1.3198557e-18)
(-1.792016 4.2540441 0)
(-1.7485684 3.4124165 0)
(-1.7887193 2.8233178 0)
(-1.8490991 2.3795861 0)
(-1.9075476 2.0208573 0)
(-1.9292174 1.729956 2.7378984e-18)
(-1.9943067 4.4323662 -6.1551162e-18)
(-1.8411352 3.7565415 -2.7222379e-18)
(-1.7076307 3.1963246 0)
(-1.5966415 2.757181 0)
(-1.4870382 2.3902179 1.6251214e-18)
(-1.3325487 2.0852151 1.4363623e-18)
(-2.1858463 4.3495242 0)
(-1.9716764 3.7591272 -1.0885408e-17)
(-1.6512093 3.2668959 9.2101108e-18)
(-1.3894304 2.8462155 0)
(-1.0960774 2.4908241 -8.3485594e-18)
(-0.69337248 2.2011633 1.51753e-17)
(-2.3162559 4.0621887 9.3108523e-18)
(-2.0909339 3.5882148 2.7321805e-18)
(-1.6662455 3.1209176 0)
(-1.2646169 2.6802301 8.1784104e-18)
(-0.74136909 2.2885342 -7.2390378e-18)
(0.039058232 1.9906483 -1.2955546e-17)
(-2.4200427 3.7131804 1.5665394e-17)
(-2.27834 3.2866162 -2.5283622e-17)
(-1.8545798 2.7747465 9.7682914e-18)
(-1.326883 2.1909772 0)
(-0.38656989 1.6465623 0)
(1.2880682 1.4091964 3.4071875e-18)
(-2.6487907 3.361092 -3.1410446e-18)
(-2.5771617 3.0468672 1.6868234e-17)
(-2.0457258 2.4866929 -2.4715587e-18)
(-1.0532714 1.7079015 -1.1085865e-17)
(1.3358239 0.69600429 -3.9555221e-18)
(5.1123063 0.76217314 0)
(-2.7077788 3.1349163 1.5662384e-17)
(-2.5356442 2.8872659 -1.3975469e-17)
(-1.7299952 2.4318822 2.5332664e-18)
(2.364595 1.2953634 2.0737533e-18)
(42.964738 47.628115 9.3137718e-18)
(43.680476 42.726387 0)
(42.656226 40.017562 0)
(42.2416 37.716928 3.0363685e-18)
(37.898561 47.521227 -1.8887581e-18)
(38.812813 42.778546 -8.8534934e-18)
(38.241815 39.955994 4.3990657e-18)
(38.169714 37.630107 0)
(38.407749 35.554161 1.0938053e-18)
(38.931163 33.563702 1.6202033e-18)
(32.838867 46.704971 -7.7163886e-18)
(33.931636 42.172927 -5.2719819e-18)
(33.800926 39.311339 1.0873537e-18)
(34.067882 37.004275 5.8514233e-18)
(34.595686 34.969673 -4.2815853e-18)
(35.371768 33.050506 7.9775466e-19)
(27.912254 45.208112 -9.8533112e-18)
(29.171429 40.913975 -1.7467955e-18)
(29.466578 38.086499 -5.3576882e-18)
(30.064253 35.848792 2.8821767e-18)
(30.876358 33.895612 -1.0526032e-18)
(31.894247 32.077572 -7.8306151e-19)
(23.218808 43.051375 4.030551e-18)
(24.599151 39.017759 -5.1993225e-18)
(25.309669 36.289861 4.2430607e-18)
(26.229962 34.17009 -7.1186932e-19)
(27.315766 32.34038 0)
(28.564462 30.65301 0)
(18.868551 40.257702 -6.1928371e-18)
(20.309953 36.500548 -6.8867802e-18)
(21.415869 33.944626 5.2538229e-18)
(22.644909 31.993238 6.9883562e-19)
(23.977507 30.340647 0)
(25.439355 28.816281 1.5327385e-18)
(15.045129 36.91644 0)
(16.466889 33.409702 0)
(17.903273 31.108203 -2.0694292e-18)
(19.398815 29.38272 0)
(20.925268 27.95036 1.4970503e-18)
(22.571532 26.607576 -3.4238685e-18)
(11.792985 33.142879 0)
(13.239537 29.892918 8.4455521e-19)
(14.857102 27.923638 5.0440999e-19)
(16.522978 26.465448 0)
(18.238988 25.225531 -1.0940113e-21)
(19.977013 24.110182 7.5802611e-19)
(8.0193452 27.877074 0)
(10.284725 25.941444 -8.3671066e-19)
(12.102072 24.446097 4.9717485e-19)
(13.933151 23.269056 -1.3463972e-18)
(15.856271 22.213039 1.4926537e-18)
(17.755828 21.2815 -3.8251465e-19)
(5.6172012 23.436816 -3.4493463e-18)
(7.8151675 21.849924 1.645324e-18)
(9.7658544 20.670324 -1.005735e-18)
(11.839521 19.696769 6.8118374e-19)
(13.884016 18.888539 -2.4755912e-19)
(15.901672 18.189523 7.6276095e-19)
(3.7877248 18.400328 3.0508152e-18)
(5.8216233 17.430927 -1.6678996e-18)
(8.048223 16.54081 -1.0174453e-18)
(10.215669 15.879945 6.7844882e-19)
(12.362857 15.345224 3.6945775e-19)
(14.46469 14.893459 4.756803e-19)
(2.3716175 13.254789 1.0023798e-18)
(4.4701506 12.675564 -4.8365218e-22)
(6.8312191 12.18864 -4.1928701e-22)
(9.0883228 11.872633 -1.6888169e-19)
(11.308169 11.635267 -1.2267143e-19)
(13.464797 11.445666 -1.8981573e-19)
(1.8429026 8.4221565 -3.3708078e-19)
(3.8731164 7.7744898 4.1380549e-19)
(6.2688632 7.6823063 -1.2585852e-19)
(8.5466307 7.7320212 -1.5229178e-22)
(10.775943 7.8066175 1.2194356e-19)
(12.939736 7.8889394 -2.836445e-19)
(4.7021183 2.9338211 0)
(4.074251 3.2692729 -2.4862484e-21)
(6.413224 3.5414141 1.2365191e-19)
(8.6097531 3.8083069 -1.6865291e-19)
(10.782742 4.0965378 2.4320705e-19)
(12.909644 4.3938543 -3.7871464e-19)
(2.836377 -3.2557465 5.5421719e-19)
(4.4803366 -1.8109234 0)
(6.7484024 -0.91903459 1.5069486e-18)
(8.9663136 -0.28466759 -3.3663689e-19)
(11.149101 0.29153974 -2.4496968e-19)
(13.271117 0.8484359 0)
(3.7689082 -7.4862468 0)
(5.5812281 -6.2276185 0)
(7.7770486 -5.1565538 2.0120822e-18)
(9.9187822 -4.2520554 -3.3938845e-19)
(12.04085 -3.4125737 -9.8349939e-19)