/*--------------------------------*- C++ -*----------------------------------*\
| =========                 |                                                 |
| \\      /  F ield         | OpenFOAM: The Open Source CFD Toolbox           |
|  \\    /   O peration     | Version:  2406                                  |
|   \\  /    A nd           | Website:  www.openfoam.com                      |
|    \\/     M anipulation  |                                                 |
\*---------------------------------------------------------------------------*/
FoamFile
{
    version     2.0;
    format      ascii;
    arch        "LSB;label=32;scalar=64";
    class       volScalarField;
    location    "0.013";
    object      pMean;
}
// * * * * * * * * * * * * * * * * * * * * * * * * * * * * * * * * * * * * * //

dimensions      [1 -1 -2 0 0 0 0];

internalField   nonuniform List<scalar> 
92813
(
100936.69
100874.1
100847.28
100817.08
100787.16
100761.71
100740.71
100723.71
100710.4
100700.39
100693.18
100688.21
100684.91
100682.97
100682.26
100683
100685.51
100690.02
100696.54
100704.92
100714.83
100726
100738.22
100751.33
100765.19
100779.69
100794.72
100810.19
100826.01
100842.12
100858.42
100874.84
100891.27
100907.66
100924
100940.19
100956.18
100971.74
100986.62
101000.82
101014.99
101029.32
101042.25
101054.06
101065.04
101075.14
101084.33
101092.63
101100.08
101106.83
101113.05
101118.86
101124.32
101129.51
101134.49
101139.32
101143.99
101148.54
101152.95
101157.23
101161.4
101165.46
101169.4
101173.24
101176.98
101180.62
101184.17
101187.62
101190.99
101194.27
101197.48
101200.6
101203.64
101206.6
101209.49
101212.31
101215.06
101217.74
101220.35
101222.9
101225.38
101227.79
101230.14
101232.44
101234.67
101236.84
101238.95
101241.01
101243.01
101244.96
101246.85
101248.69
101250.47
101252.21
101253.89
101255.52
101257.11
101258.64
101260.13
101261.57
101262.97
101264.32
101265.62
101266.88
101268.1
101269.27
101270.41
101271.49
101272.54
101273.54
101274.51
101275.43
101276.3
101277.14
101277.93
101278.67
101279.37
101280.02
101280.63
101281.18
101281.68
101282.12
101282.52
101282.83
101283.12
101283.28
101283.45
101080.14
101038.71
101001.5
100960.82
100923.94
100893.07
100867.41
100846.17
100828.79
100814.76
100803.58
100794.68
100787.5
100781.59
100776.81
100773.27
100771.19
100770.82
100772.42
100775.98
100781.35
100788.38
100796.9
100806.65
100817.37
100828.89
100841.06
100853.77
100866.9
100880.39
100894.13
100908.06
100922.05
100936.05
100950.09
100964.06
100977.88
100991.48
101004.65
101016.74
101029.3
101042.33
101053.93
101064.6
101074.62
101083.94
101092.52
101100.35
101107.46
101113.97
101120.01
101125.64
101130.89
101135.85
101140.58
101145.15
101149.58
101153.88
101158.05
101162.11
101166.06
101169.91
101173.66
101177.31
101180.87
101184.34
101187.73
101191.03
101194.25
101197.39
101200.46
101203.45
101206.37
101209.22
101212
101214.72
101217.36
101219.95
101222.47
101224.92
101227.32
101229.65
101231.93
101234.15
101236.31
101238.42
101240.47
101242.47
101244.41
101246.3
101248.14
101249.93
101251.67
101253.35
101254.99
101256.59
101258.13
101259.63
101261.08
101262.49
101263.85
101265.17
101266.45
101267.68
101268.87
101270.02
101271.12
101272.19
101273.22
101274.2
101275.14
101276.05
101276.91
101277.73
101278.5
101279.23
101279.92
101280.56
101281.16
101281.7
101282.19
101282.63
101283.01
101283.32
101283.6
101283.77
101283.93
101153.99
101122.22
101081.19
101036.28
100996.51
100962.97
100934.55
100910.44
100890.14
100873.18
100859.12
100847.48
100837.81
100829.78
100823.21
100818.03
100814.31
100812.21
100811.95
100813.59
100817.1
100822.4
100829.28
100837.47
100846.73
100856.89
100867.8
100879.32
100891.35
100903.79
100916.55
100929.54
100942.6
100955.71
100968.89
100982.01
100994.99
101007.83
101020.17
101031.27
101043.21
101055.49
101066.26
101076.2
101085.53
101094.19
101102.15
101109.42
101116.03
101122.12
101127.77
101133.02
101137.91
101142.53
101146.96
101151.24
101155.39
101159.42
101163.35
101167.17
101170.9
101174.53
101178.07
101181.53
101184.9
101188.2
101191.42
101194.56
101197.63
101200.62
101203.55
101206.41
101209.2
101211.93
101214.6
101217.2
101219.74
101222.23
101224.65
101227.02
101229.32
101231.58
101233.78
101235.92
101238.01
101240.05
101242.03
101243.97
101245.85
101247.68
101249.47
101251.21
101252.89
101254.54
101256.13
101257.68
101259.18
101260.64
101262.06
101263.43
101264.76
101266.05
101267.29
101268.49
101269.66
101270.78
101271.86
101272.9
101273.91
101274.87
101275.8
101276.68
101277.52
101278.33
101279.09
101279.81
101280.48
101281.11
101281.69
101282.23
101282.71
101283.14
101283.52
101283.83
101284.1
101284.26
101284.43
101215.28
101187.32
101146.74
101100.81
101059.31
101023.56
100992.61
100965.79
100942.71
100922.98
100906.22
100892.05
100880.12
100870.15
100861.95
100855.44
100850.58
100847.45
100846.13
100846.62
100848.9
100852.87
100858.37
100865.2
100873.18
100882.12
100891.9
100902.38
100913.45
100924.99
100936.92
100949.12
100961.45
100973.87
100986.39
100998.88
101011.25
101023.57
101035.15
101045.6
101057.2
101068.8
101078.89
101088.21
101096.91
101104.95
101112.29
101118.95
101125.01
101130.6
101135.78
101140.59
101145.08
101149.36
101153.46
101157.44
101161.31
101165.07
101168.74
101172.32
101175.82
101179.23
101182.57
101185.83
101189.01
101192.13
101195.17
101198.15
101201.06
101203.91
101206.7
101209.42
101212.09
101214.69
101217.24
101219.73
101222.17
101224.55
101226.88
101229.15
101231.37
101233.54
101235.66
101237.72
101239.74
101241.71
101243.63
101245.5
101247.32
101249.09
101250.82
101252.51
101254.15
101255.74
101257.29
101258.79
101260.25
101261.67
101263.05
101264.39
101265.68
101266.94
101268.15
101269.32
101270.46
101271.56
101272.61
101273.63
101274.61
101275.56
101276.46
101277.33
101278.15
101278.94
101279.68
101280.39
101281.05
101281.67
101282.24
101282.76
101283.24
101283.66
101284.04
101284.34
101284.61
101284.77
101284.93
101271.55
101245.53
101206.06
101160.3
101118.15
101081.21
101048.69
101020.06
100995
100973.2
100954.36
100938.18
100924.35
100912.66
100902.92
100895.02
100888.93
100884.63
100882.13
100881.41
100882.41
100885.05
100889.19
100894.68
100901.35
100909.06
100917.67
100927.04
100937.06
100947.61
100958.61
100969.93
100981.4
100993.03
101004.79
101016.53
101028.21
101039.89
101050.53
101060.39
101071.61
101082.41
101091.77
101100.44
101108.5
101115.88
101122.59
101128.64
101134.14
101139.21
101143.91
101148.27
101152.37
101156.29
101160.07
101163.75
101167.33
101170.82
101174.24
101177.57
101180.83
101184.02
101187.15
101190.2
101193.2
101196.13
101199
101201.81
101204.57
101207.26
101209.9
101212.49
101215.03
101217.51
101219.94
101222.31
101224.64
101226.92
101229.15
101231.33
101233.46
101235.54
101237.57
101239.56
101241.5
101243.4
101245.25
101247.06
101248.82
101250.53
101252.21
101253.83
101255.42
101256.97
101258.47
101259.93
101261.35
101262.73
101264.07
101265.36
101266.62
101267.85
101269.03
101270.17
101271.28
101272.35
101273.38
101274.37
101275.33
101276.25
101277.14
101277.98
101278.79
101279.56
101280.29
101280.98
101281.63
101282.24
101282.8
101283.31
101283.78
101284.19
101284.56
101284.86
101285.12
101285.28
101285.44
101321.7
101296.19
101257.58
101212.8
101170.98
101133.74
101100.49
101070.8
101044.45
101021.21
101000.85
100983.11
100967.78
100954.65
100943.58
100934.44
100927.17
100921.72
100918.08
100916.19
100915.99
100917.4
100920.3
100924.55
100930.02
100936.56
100944.04
100952.34
100961.33
100970.92
100980.99
100991.4
101002.01
101012.82
101023.79
101034.74
101045.69
101056.65
101066.3
101075.64
101086.38
101096.29
101104.9
101112.89
101120.26
101126.96
101133.01
101138.44
101143.38
101147.94
101152.15
101156.07
101159.78
101163.34
101166.8
101170.17
101173.46
101176.67
101179.82
101182.91
101185.93
101188.9
101191.81
101194.66
101197.46
101200.2
101202.9
101205.54
101208.13
101210.68
101213.17
101215.62
101218.02
101220.37
101222.68
101224.94
101227.16
101229.33
101231.46
101233.54
101235.58
101237.58
101239.53
101241.44
101243.3
101245.12
101246.91
101248.64
101250.34
101252
101253.61
101255.19
101256.72
101258.22
101259.67
101261.09
101262.46
101263.8
101265.1
101266.36
101267.58
101268.77
101269.92
101271.04
101272.11
101273.15
101274.16
101275.13
101276.07
101276.96
101277.83
101278.65
101279.44
101280.2
101280.91
101281.59
101282.22
101282.82
101283.37
101283.87
101284.33
101284.73
101285.1
101285.39
101285.65
101285.8
101285.96
101366.54
101340.19
101302.07
101258.84
101218.08
101181.22
101147.85
101117.7
101090.61
101066.43
101044.99
101026.11
101009.61
100995.33
100983.13
100972.92
100964.6
100958.13
100953.44
100950.49
100949.21
100949.5
100951.27
100954.39
100958.74
100964.19
100970.62
100977.9
100985.91
100994.55
101003.72
101013.24
101022.99
101033
101043.17
101053.33
101063.56
101073.71
101082.39
101091.29
101101.42
101110.41
101118.26
101125.53
101132.18
101138.18
101143.55
101148.36
101152.75
101156.78
101160.49
101163.97
101167.3
101170.51
101173.63
101176.69
101179.69
101182.62
101185.51
101188.34
101191.12
101193.86
101196.55
101199.19
101201.79
101204.35
101206.86
101209.33
101211.76
101214.15
101216.5
101218.8
101221.07
101223.29
101225.48
101227.62
101229.73
101231.79
101233.82
101235.8
101237.75
101239.65
101241.52
101243.35
101245.13
101246.88
101248.59
101250.26
101251.9
101253.49
101255.05
101256.57
101258.05
101259.49
101260.9
101262.26
101263.6
101264.89
101266.15
101267.38
101268.56
101269.72
101270.83
101271.92
101272.96
101273.98
101274.96
101275.9
101276.81
101277.69
101278.53
101279.34
101280.11
101280.84
101281.54
101282.2
101282.83
101283.41
101283.95
101284.44
101284.89
101285.29
101285.64
101285.93
101286.18
101286.34
101286.49
101406.56
101378.8
101341.09
101299.7
101260.39
101224.34
101191.33
101161.17
101133.79
101109.1
101086.98
101067.31
101049.95
101034.78
101021.68
101010.56
101001.34
100993.95
100988.34
100984.43
100982.16
100981.45
100982.18
100984.27
100987.59
100992.02
100997.45
101003.75
101010.82
101018.55
101026.82
101035.46
101044.37
101053.56
101062.92
101072.3
101081.8
101091.03
101098.78
101107.3
101116.69
101124.74
101131.82
101138.34
101144.25
101149.52
101154.21
101158.4
101162.22
101165.71
101168.95
101172
101174.93
101177.79
101180.58
101183.32
101186.02
101188.67
101191.29
101193.86
101196.4
101198.9
101201.37
101203.81
101206.21
101208.57
101210.9
101213.2
101215.46
101217.69
101219.89
101222.05
101224.17
101226.27
101228.33
101230.35
101232.34
101234.3
101236.22
101238.1
101239.95
101241.77
101243.55
101245.29
101247
101248.67
101250.31
101251.91
101253.48
101255.01
101256.51
101257.97
101259.4
101260.79
101262.15
101263.47
101264.75
101266.01
101267.22
101268.41
101269.56
101270.68
101271.76
101272.81
101273.83
101274.81
101275.77
101276.69
101277.57
101278.43
101279.25
101280.03
101280.79
101281.5
101282.19
101282.83
101283.44
101284.01
101284.54
101285.02
101285.46
101285.85
101286.2
101286.48
101286.73
101286.88
101287.03
101442.18
101413.05
101375.85
101336.35
101298.65
101263.69
101231.34
101201.52
101174.21
101149.36
101126.91
101106.76
101088.82
101073
101059.2
101047.35
101037.38
101029.2
101022.78
101018.02
101014.87
101013.24
101013.05
101014.18
101016.55
101020.03
101024.52
101029.89
101036.05
101042.89
101050.29
101058.06
101066.13
101074.5
101083.03
101091.64
101100.4
101108.55
101115.47
101123.66
101132.17
101139.26
101145.55
101151.29
101156.43
101160.97
101164.97
101168.54
101171.79
101174.75
101177.5
101180.13
101182.68
101185.18
101187.63
101190.06
101192.45
101194.82
101197.16
101199.47
101201.77
101204.03
101206.28
101208.5
101210.69
101212.86
101215.01
101217.13
101219.22
101221.29
101223.33
101225.35
101227.34
101229.3
101231.23
101233.13
101235
101236.85
101238.66
101240.44
101242.2
101243.92
101245.61
101247.27
101248.9
101250.5
101252.06
101253.6
101255.1
101256.56
101258
101259.4
101260.77
101262.11
101263.42
101264.69
101265.93
101267.14
101268.32
101269.46
101270.58
101271.66
101272.71
101273.73
101274.71
101275.67
101276.59
101277.49
101278.35
101279.18
101279.98
101280.74
101281.48
101282.18
101282.84
101283.47
101284.07
101284.62
101285.14
101285.61
101286.04
101286.42
101286.76
101287.04
101287.29
101287.43
101287.59
101473.5
101443.55
101407.24
101369.58
101333.5
101299.75
101268.28
101239.06
101212.09
101187.37
101164.86
101144.5
101126.23
101109.98
101095.68
101083.27
101072.68
101063.86
101056.73
101051.24
101047.31
101044.87
101043.83
101044.1
101045.59
101048.18
101051.78
101056.28
101061.57
101067.55
101074.08
101080.99
101088.23
101095.79
101103.48
101111.31
101119.29
101126.25
101132.51
101140.3
101147.8
101153.94
101159.42
101164.36
101168.71
101172.5
101175.82
101178.77
101181.44
101183.87
101186.16
101188.37
101190.53
101192.67
101194.79
101196.89
101198.98
101201.06
101203.12
101205.17
101207.22
101209.25
101211.26
101213.27
101215.26
101217.23
101219.19
101221.13
101223.05
101224.96
101226.84
101228.71
101230.55
101232.38
101234.18
101235.96
101237.71
101239.44
101241.15
101242.83
101244.49
101246.11
101247.72
101249.29
101250.84
101252.36
101253.85
101255.31
101256.74
101258.14
101259.52
101260.86
101262.18
101263.46
101264.72
101265.94
101267.13
101268.3
101269.43
101270.54
101271.61
101272.66
101273.67
101274.66
101275.61
101276.54
101277.43
101278.3
101279.14
101279.94
101280.72
101281.47
101282.18
101282.86
101283.51
101284.12
101284.7
101285.24
101285.75
101286.21
101286.63
101287
101287.34
101287.61
101287.85
101288
101288.15
101500.76
101470.67
101435.74
101399.89
101365.4
101332.94
101302.5
101274.07
101247.66
101223.29
101200.95
101180.6
101162.21
101145.73
101131.11
101118.3
101107.25
101097.9
101090.19
101084.07
101079.46
101076.3
101074.51
101074
101074.68
101076.45
101079.23
101082.89
101087.35
101092.49
101098.17
101104.23
101110.66
101117.38
101124.23
101131.27
101138.38
101144.16
101149.9
101157.14
101163.54
101168.75
101173.39
101177.5
101181.05
101184.1
101186.74
101189.07
101191.16
101193.08
101194.91
101196.71
101198.49
101200.27
101202.04
101203.82
101205.6
101207.39
101209.17
101210.96
101212.75
101214.54
101216.33
101218.11
101219.89
101221.67
101223.43
101225.19
101226.94
101228.68
101230.41
101232.12
101233.83
101235.51
101237.18
101238.84
101240.47
101242.09
101243.68
101245.26
101246.82
101248.35
101249.86
101251.35
101252.81
101254.25
101255.66
101257.05
101258.42
101259.75
101261.06
101262.35
101263.6
101264.83
101266.04
101267.21
101268.36
101269.48
101270.57
101271.63
101272.67
101273.67
101274.65
101275.6
101276.53
101277.42
101278.29
101279.13
101279.94
101280.73
101281.48
101282.2
101282.9
101283.56
101284.19
101284.79
101285.35
101285.88
101286.37
101286.82
101287.24
101287.6
101287.93
101288.19
101288.43
101288.57
101288.72
101524.43
101494.84
101461.54
101427.54
101394.69
101363.61
101334.32
101306.83
101281.15
101257.32
101235.33
101215.18
101196.85
101180.32
101165.54
101152.48
101141.09
101131.34
101123.16
101116.51
101111.33
101107.54
101105.07
101103.86
101103.8
101104.82
101106.81
101109.69
101113.34
101117.68
101122.53
101127.76
101133.37
101139.24
101145.25
101151.5
101157.61
101162.29
101167.62
101174.09
101179.37
101183.65
101187.44
101190.7
101193.44
101195.74
101197.71
101199.42
101200.95
101202.37
101203.76
101205.14
101206.54
101207.96
101209.39
101210.84
101212.32
101213.81
101215.31
101216.83
101218.37
101219.91
101221.47
101223.03
101224.6
101226.17
101227.75
101229.32
101230.9
101232.47
101234.04
101235.6
101237.15
101238.7
101240.24
101241.76
101243.28
101244.78
101246.26
101247.73
101249.19
101250.62
101252.04
101253.44
101254.82
101256.18
101257.51
101258.83
101260.12
101261.39
101262.64
101263.86
101265.06
101266.23
101267.38
101268.51
101269.6
101270.68
101271.72
101272.75
101273.74
101274.71
101275.65
101276.57
101277.46
101278.33
101279.17
101279.98
101280.76
101281.52
101282.25
101282.95
101283.63
101284.27
101284.88
101285.47
101286.01
101286.53
101287.01
101287.45
101287.85
101288.2
101288.52
101288.78
101289.01
101289.15
101289.3
101545.09
101516.47
101484.94
101452.84
101421.68
101392.07
101364.03
101337.59
101312.78
101289.62
101268.15
101248.36
101230.25
101213.8
101199
101185.82
101174.23
101164.18
101155.65
101148.58
101142.9
101138.57
101135.51
101133.66
101132.94
101133.25
101134.52
101136.65
101139.53
101143.08
101147.11
101151.53
101156.32
101161.33
101166.53
101171.96
101176.91
101180.62
101185.6
101191.09
101195.24
101198.61
101201.51
101203.91
101205.85
101207.42
101208.72
101209.82
101210.8
101211.74
101212.69
101213.67
101214.69
101215.74
101216.83
101217.95
101219.12
101220.31
101221.53
101222.78
101224.07
101225.36
101226.68
101228.03
101229.38
101230.75
101232.13
101233.52
101234.92
101236.32
101237.72
101239.13
101240.54
101241.94
101243.35
101244.74
101246.13
101247.51
101248.89
101250.25
101251.6
101252.94
101254.26
101255.57
101256.86
101258.14
101259.4
101260.64
101261.86
101263.06
101264.24
101265.4
101266.54
101267.66
101268.75
101269.82
101270.87
101271.9
101272.9
101273.88
101274.84
101275.77
101276.67
101277.56
101278.41
101279.25
101280.06
101280.84
101281.6
101282.33
101283.04
101283.72
101284.37
101284.99
101285.59
101286.15
101286.69
101287.19
101287.65
101288.08
101288.47
101288.82
101289.13
101289.39
101289.61
101289.75
101289.89
101563.36
101536.04
101506.36
101476.16
101446.73
101418.63
101391.92
101366.62
101342.77
101320.41
101299.57
101280.26
101262.5
101246.27
101231.57
101218.39
101206.7
101196.47
101187.67
101180.26
101174.19
101169.39
101165.82
101163.4
101162.07
101161.73
101162.32
101163.73
101165.89
101168.66
101171.89
101175.51
101179.47
101183.61
101188
101192.59
101196.18
101199.17
101203.75
101208.08
101211.13
101213.57
101215.57
101217.11
101218.26
101219.1
101219.74
101220.25
101220.71
101221.18
101221.69
101222.27
101222.92
101223.61
101224.35
101225.15
101226
101226.9
101227.84
101228.81
101229.84
101230.89
101231.97
101233.09
101234.23
101235.4
101236.58
101237.78
101239
101240.23
101241.47
101242.72
101243.98
101245.24
101246.5
101247.77
101249.03
101250.3
101251.56
101252.81
101254.05
101255.29
101256.52
101257.74
101258.94
101260.14
101261.32
101262.48
101263.63
101264.76
101265.88
101266.97
101268.05
101269.11
101270.15
101271.17
101272.17
101273.15
101274.1
101275.04
101275.95
101276.84
101277.71
101278.56
101279.38
101280.18
101280.96
101281.72
101282.45
101283.16
101283.84
101284.5
101285.13
101285.73
101286.31
101286.86
101287.37
101287.86
101288.31
101288.73
101289.11
101289.45
101289.75
101290
101290.22
101290.36
101290.5
101579.83
101554.02
101526.2
101497.88
101470.17
101443.61
101418.27
101394.17
101371.36
101349.88
101329.77
101311.04
101293.72
101277.82
101263.33
101250.24
101238.55
101228.23
101219.26
101211.6
101205.19
101200.01
101195.98
101193.06
101191.17
101190.24
101190.18
101190.92
101192.36
101194.38
101196.82
101199.65
101202.76
101206.04
101209.61
101213.21
101215.48
101217.98
101221.92
101224.99
101226.98
101228.49
101229.58
101230.27
101230.63
101230.76
101230.76
101230.71
101230.66
101230.69
101230.77
101230.96
101231.23
101231.56
101231.94
101232.42
101232.97
101233.57
101234.21
101234.91
101235.68
101236.49
101237.34
101238.23
101239.15
101240.11
101241.09
101242.1
101243.14
101244.2
101245.27
101246.37
101247.47
101248.59
101249.71
101250.85
101251.99
101253.13
101254.27
101255.41
101256.55
101257.69
101258.82
101259.94
101261.06
101262.17
101263.27
101264.36
101265.43
101266.49
101267.54
101268.57
101269.59
101270.59
101271.57
101272.54
101273.48
101274.41
101275.32
101276.22
101277.09
101277.94
101278.77
101279.58
101280.37
101281.14
101281.89
101282.61
101283.32
101284
101284.65
101285.29
101285.9
101286.48
101287.04
101287.57
101288.07
101288.55
101288.98
101289.39
101289.76
101290.09
101290.39
101290.63
101290.84
101290.97
101291.11
101594.94
101570.79
101544.81
101518.32
101492.32
101467.3
101443.35
101420.49
101398.76
101378.22
101358.9
101340.83
101324.04
101308.54
101294.34
101281.44
101269.83
101259.5
101250.43
101242.59
101235.93
101230.42
101226.01
101222.63
101220.23
101218.74
101218.08
101218.17
101218.92
101220.2
101221.87
101223.9
101226.14
101228.57
101231.29
101233.73
101234.86
101236.98
101239.97
101241.77
101242.75
101243.31
101243.5
101243.35
101242.95
101242.39
101241.78
101241.17
101240.64
101240.26
101239.92
101239.72
101239.61
101239.58
101239.62
101239.77
101240
101240.31
101240.66
101241.09
101241.6
101242.16
101242.77
101243.43
101244.14
101244.88
101245.67
101246.49
101247.34
101248.23
101249.14
101250.07
101251.02
101251.99
101252.98
101253.97
101254.99
101256
101257.03
101258.06
101259.09
101260.12
101261.16
101262.19
101263.22
101264.24
101265.25
101266.26
101267.26
101268.25
101269.23
101270.2
101271.15
101272.09
101273.02
101273.93
101274.83
101275.71
101276.57
101277.41
101278.24
101279.05
101279.85
101280.62
101281.37
101282.11
101282.83
101283.52
101284.2
101284.85
101285.49
101286.1
101286.68
101287.25
101287.79
101288.3
101288.79
101289.24
101289.67
101290.06
101290.42
101290.74
101291.03
101291.26
101291.47
101291.6
101291.74
101609.03
101586.66
101562.5
101537.79
101513.46
101489.97
101467.41
101445.8
101425.18
101405.62
101387.14
101369.79
101353.59
101338.56
101324.71
101312.06
101300.6
101290.33
101281.23
101273.27
101266.42
101260.64
101255.88
101252.1
101249.24
101247.22
101245.98
101245.44
101245.52
101246.06
101246.97
101248.19
101249.55
101251.14
101252.99
101254.01
101254.26
101256.03
101257.82
101258.39
101258.37
101257.99
101257.28
101256.32
101255.19
101253.97
101252.76
101251.61
101250.68
101249.91
101249.16
101248.54
101248.05
101247.66
101247.36
101247.18
101247.11
101247.11
101247.17
101247.33
101247.59
101247.9
101248.26
101248.7
101249.19
101249.72
101250.31
101250.94
101251.61
101252.31
101253.05
101253.82
101254.62
101255.45
101256.29
101257.15
101258.03
101258.93
101259.83
101260.75
101261.67
101262.6
101263.54
101264.47
101265.41
101266.34
101267.27
101268.2
101269.13
101270.04
101270.95
101271.85
101272.74
101273.62
101274.49
101275.35
101276.19
101277.02
101277.84
101278.64
101279.42
101280.19
101280.94
101281.68
101282.4
101283.1
101283.78
101284.45
101285.1
101285.73
101286.33
101286.92
101287.49
101288.03
101288.55
101289.04
101289.51
101289.95
101290.37
101290.75
101291.1
101291.4
101291.69
101291.91
101292.12
101292.24
101292.38
101622.47
101601.92
101579.55
101556.58
101533.87
101511.89
101490.7
101470.33
101450.84
101432.26
101414.65
101398.05
101382.47
101367.96
101354.53
101342.18
101330.93
101320.76
101311.68
101303.66
101296.66
101290.65
101285.6
101281.45
101278.15
101275.64
101273.84
101272.68
101272.09
101271.91
101272.06
101272.46
101272.93
101273.65
101274.5
101274.07
101273.78
101274.94
101275.39
101274.79
101273.79
101272.46
101270.9
101269.17
101267.32
101265.42
101263.67
101262.18
101260.84
101259.57
101258.41
101257.4
101256.54
101255.79
101255.16
101254.66
101254.27
101253.97
101253.76
101253.65
101253.64
101253.69
101253.82
101254.03
101254.3
101254.62
101255
101255.44
101255.93
101256.45
101257.03
101257.64
101258.27
101258.95
101259.65
101260.38
101261.13
101261.9
101262.68
101263.48
101264.3
101265.12
101265.95
101266.79
101267.64
101268.48
101269.33
101270.18
101271.02
101271.87
101272.7
101273.54
101274.36
101275.18
101275.99
101276.79
101277.58
101278.36
101279.13
101279.88
101280.62
101281.35
101282.06
101282.76
101283.44
101284.11
101284.76
101285.39
101286.01
101286.61
101287.19
101287.76
101288.3
101288.82
101289.32
101289.8
101290.25
101290.68
101291.07
101291.44
101291.78
101292.08
101292.35
101292.57
101292.77
101292.9
101293.03
101635.65
101616.83
101596.24
101574.95
101553.81
101533.29
101513.45
101494.31
101475.92
101458.33
101441.6
101425.75
101410.83
101396.86
101383.87
101371.86
101360.85
101350.84
101341.82
101333.77
101326.67
101320.47
101315.15
101310.66
101306.95
101303.96
101301.61
101299.84
101298.57
101297.67
101297.05
101296.63
101296.2
101296.01
101295.64
101293.98
101293.33
101293.51
101292.58
101290.91
101288.94
101286.72
101284.33
101281.82
101279.23
101276.84
101274.76
101272.8
101270.94
101269.23
101267.68
101266.29
101265.06
101263.97
101263.01
101262.18
101261.48
101260.89
101260.41
101260.02
101259.75
101259.55
101259.45
101259.43
101259.47
101259.58
101259.76
101260.01
101260.3
101260.65
101261.06
101261.5
101261.98
101262.51
101263.06
101263.65
101264.27
101264.91
101265.57
101266.26
101266.96
101267.68
101268.41
101269.15
101269.9
101270.66
101271.42
101272.19
101272.95
101273.72
101274.49
101275.25
101276.01
101276.77
101277.52
101278.26
101279
101279.72
101280.44
101281.15
101281.84
101282.52
101283.2
101283.86
101284.5
101285.14
101285.75
101286.36
101286.95
101287.52
101288.07
101288.61
101289.13
101289.63
101290.11
101290.57
101291
101291.41
101291.8
101292.15
101292.48
101292.77
101293.03
101293.25
101293.44
101293.56
101293.69
101648.85
101631.63
101612.77
101593.13
101573.54
101554.43
101535.89
101517.93
101500.61
101483.99
101468.12
101453.03
101438.77
101425.36
101412.82
101401.18
101390.44
101380.61
101371.68
101363.63
101356.44
101350.09
101344.52
101339.71
101335.6
101332.13
101329.23
101326.85
101324.89
101323.26
101321.86
101320.59
101319.27
101318.13
101316.27
101313.74
101312.72
101311.6
101309.37
101306.69
101303.81
101300.69
101297.45
101294.17
101291.14
101288.42
101285.81
101283.32
101281.02
101278.91
101276.97
101275.21
101273.62
101272.19
101270.9
101269.76
101268.75
101267.87
101267.1
101266.45
101265.91
101265.47
101265.13
101264.87
101264.69
101264.6
101264.58
101264.62
101264.73
101264.9
101265.14
101265.41
101265.74
101266.11
101266.52
101266.97
101267.46
101267.97
101268.51
101269.08
101269.67
101270.28
101270.9
101271.55
101272.2
101272.87
101273.54
101274.23
101274.91
101275.61
101276.3
101277
101277.69
101278.38
101279.07
101279.76
101280.44
101281.11
101281.77
101282.43
101283.08
101283.72
101284.35
101284.97
101285.58
101286.18
101286.77
101287.34
101287.89
101288.44
101288.97
101289.48
101289.98
101290.45
101290.91
101291.35
101291.77
101292.16
101292.53
101292.87
101293.19
101293.47
101293.73
101293.93
101294.12
101294.24
101294.36
101662.06
101647.01
101629.62
101611.47
101593.32
101575.56
101558.23
101541.38
101525.08
101509.38
101494.34
101479.99
101466.38
101453.53
101441.46
101430.19
101419.73
101410.09
101401.27
101393.24
101385.99
101379.48
101373.68
101368.55
101364.04
101360.09
101356.64
101353.62
101350.95
101348.56
101346.35
101344.23
101342
101339.77
101336.44
101333.39
101331.65
101329.11
101325.73
101322.1
101318.26
101314.23
101310.25
101306.57
101303.16
101299.86
101296.72
101293.8
101291.09
101288.58
101286.27
101284.15
101282.21
101280.44
101278.83
101277.37
101276.06
101274.89
101273.84
101272.92
101272.12
101271.44
101270.86
101270.37
101269.97
101269.67
101269.44
101269.3
101269.22
101269.21
101269.27
101269.38
101269.55
101269.77
101270.03
101270.34
101270.69
101271.08
101271.49
101271.94
101272.42
101272.92
101273.44
101273.98
101274.54
101275.12
101275.7
101276.3
101276.91
101277.52
101278.14
101278.77
101279.4
101280.02
101280.65
101281.28
101281.9
101282.52
101283.14
101283.75
101284.35
101284.94
101285.53
101286.11
101286.68
101287.24
101287.8
101288.33
101288.86
101289.38
101289.88
101290.36
101290.84
101291.29
101291.73
101292.15
101292.55
101292.93
101293.28
101293.61
101293.91
101294.18
101294.43
101294.63
101294.81
101294.93
101295.05
101675.34
101664.18
101648.14
101630.78
101613.66
101596.98
101580.71
101564.85
101549.48
101534.64
101520.38
101506.74
101493.75
101481.44
101469.82
101458.93
101448.75
101439.31
101430.6
101422.59
101415.27
101408.61
101402.57
101397.12
101392.2
101387.76
101383.74
101380.06
101376.66
101373.46
101370.39
101367.41
101364.29
101360.78
101356.2
101352.73
101349.93
101346.02
101341.56
101336.94
101332.15
101327.45
101323.1
101318.97
101314.96
101311.14
101307.57
101304.24
101301.14
101298.25
101295.57
101293.1
101290.81
101288.71
101286.78
101285.01
101283.41
101281.95
101280.63
101279.44
101278.39
101277.46
101276.64
101275.92
101275.3
101274.79
101274.36
101274.02
101273.76
101273.57
101273.45
101273.4
101273.4
101273.47
101273.59
101273.75
101273.97
101274.22
101274.52
101274.85
101275.21
101275.6
101276.01
101276.46
101276.92
101277.4
101277.9
101278.41
101278.94
101279.47
101280.02
101280.57
101281.13
101281.69
101282.26
101282.82
101283.39
101283.96
101284.52
101285.08
101285.64
101286.19
101286.73
101287.27
101287.8
101288.33
101288.84
101289.35
101289.85
101290.33
101290.8
101291.27
101291.71
101292.15
101292.56
101292.96
101293.34
101293.71
101294.04
101294.36
101294.65
101294.91
101295.15
101295.34
101295.52
101295.63
101295.75
101689.65
101681.16
101667.57
101650.96
101634.55
101618.74
101603.38
101588.41
101573.88
101559.84
101546.31
101533.33
101520.94
101509.14
101497.96
101487.42
101477.52
101468.26
101459.65
101451.66
101444.26
101437.43
101431.14
101425.34
101419.99
101415.04
101410.41
101406.05
101401.88
101397.84
101393.87
101389.96
101385.96
101380.99
101375.55
101371.56
101367.39
101362.2
101356.68
101351.13
101345.77
101340.7
101335.81
101331.07
101326.57
101322.33
101318.36
101314.63
101311.15
101307.9
101304.86
101302.04
101299.42
101296.99
101294.75
101292.68
101290.78
101289.04
101287.45
101286
101284.69
101283.52
101282.46
101281.52
101280.68
101279.96
101279.33
101278.79
101278.34
101277.97
101277.68
101277.46
101277.31
101277.22
101277.19
101277.21
101277.29
101277.42
101277.58
101277.79
101278.04
101278.32
101278.63
101278.97
101279.33
101279.72
101280.13
101280.55
101281
101281.46
101281.93
101282.41
101282.89
101283.39
101283.89
101284.4
101284.91
101285.42
101285.93
101286.44
101286.95
101287.45
101287.95
101288.45
101288.94
101289.43
101289.91
101290.38
101290.85
101291.3
101291.75
101292.18
101292.61
101293.02
101293.41
101293.79
101294.15
101294.5
101294.82
101295.12
101295.4
101295.65
101295.88
101296.06
101296.24
101296.34
101296.46
101705.07
101698.76
101686.49
101671.12
101655.64
101640.7
101626.18
101612.04
101598.3
101584.99
101572.15
101559.8
101547.96
101536.65
101525.88
101515.67
101506.02
101496.92
101488.39
101480.38
101472.88
101465.86
101459.29