/*--------------------------------*- C++ -*----------------------------------*\
| =========                 |                                                 |
| \\      /  F ield         | OpenFOAM: The Open Source CFD Toolbox           |
|  \\    /   O peration     | Version:  2406                                  |
|   \\  /    A nd           | Website:  www.openfoam.com                      |
|    \\/     M anipulation  |                                                 |
\*---------------------------------------------------------------------------*/
FoamFile
{
    version     2.0;
    format      ascii;
    arch        "LSB;label=32;scalar=64";
    class       volScalarField;
    location    "0.02";
    object      omega;
}
// * * * * * * * * * * * * * * * * * * * * * * * * * * * * * * * * * * * * * //

dimensions      [0 0 -1 0 0 0 0];

internalField   nonuniform List<scalar> 
35803
(
21859.619
19406.337
16981.503
14671.328
12519.024
10549.436
8776.8416
7207.0838
5839.4032
4668.9348
3684.8381
2871.6978
2211.3537
1684.0953
1269.5956
947.86027
698.2683
493.00298
320.69721
221.68698
177.11255
153.79198
138.78317
124.26221
115.17336
109.30471
105.44169
102.75959
101.38284
98.103406
97.330238
19103.895
17070.747
15081.917
13166.158
11350.714
9658.9811
8109.4831
6715.0633
5483.1637
4415.5358
3507.653
2749.6191
2128.4399
1628.5637
1232.9002
923.81759
682.09855
480.85806
311.56367
217.36348
175.16999
152.77669
138.12414
123.90081
114.87211
109.13955
105.38685
102.72343
101.35549
98.101256
97.332792
16481.544
14864.065
13260.17
11692.456
10182.484
8751.1012
7417.4363
6197.5604
5103.5973
4142.36
3314.5622
2615.4593
2036.7182
1566.8123
1191.9287
896.86305
663.88543
467.15862
302.2458
214.27209
173.9877
152.16976
137.72956
123.70101
114.60205
108.98264
105.35818
102.69638
101.34004
98.10057
97.335546
14016.65
12768.594
11507.478
10252.017
9020.7589
7832.4918
6705.6577
5657.3115
4701.8945
3849.6348
3105.3468
2468.7314
1935.6305
1498.3208
1146.2417
866.62806
643.2826
451.33601
292.17974
210.5215
172.24126
151.19618
137.07781
123.34862
114.21309
108.76519
105.3021
102.64865
101.30954
98.100322
97.338627
11747.78
10809.115
9842.2452
8860.9178
7879.8685
6915.024
5982.986
5100.1558
4281.5333
3539.1642
2880.7634
2309.5582
1824.9821
1422.7786
1095.5178
832.79254
619.88632
432.92589
281.09911
206.59511
170.46901
150.22039
136.44176
123.01252
113.95701
108.5828
105.25221
102.59755
101.28007
98.100477
97.342229
9699.0265
9010.8425
8287.6467
7539.6809
6777.4068
6013.0898
5260.4411
4533.9046
3847.6052
3213.9737
2642.3798
2138.5763
1704.8748
1340.0253
1039.4993
795.04018
593.20877
411.62748
269.06847
202.35806
168.3721
149.00773
135.64059
122.59419
113.7593
108.3996
105.18728
102.52565
101.24285
98.101815
97.346459
7882.5932
7391.7694
6864.0689
6308.643
5731.999
5142.6061
4550.7488
3968.0544
3406.6978
2878.291
2392.6551
1957.0219
1575.7724
1250.0888
978.00638
753.05292
562.63723
387.14853
256.30765
197.88756
166.08246
147.66916
134.77467
122.14363
113.55582
108.22668
105.11848
102.43781
101.20755
98.103892
97.35148
6302.3151
5960.8549
5586.1406
5185.1014
4761.2493
4319.7966
3867.7103
3413.5224
2966.8517
2537.6192
2135.0569
1766.8534
1438.603
1153.2538
910.96792
706.50999
527.36665
359.22772
243.24294
193.14539
163.46397
146.08263
133.75292
121.62522
113.28372
108.03755
105.03394
102.32994
101.16572
98.107091
97.357496
4953.3622
4722.0671
4463.5595
4182.5017
3880.356
3559.8564
3225.1843
2881.9951
2537.2236
2198.6225
1874.0686
1570.8148
1294.832
1050.1186
838.4299
655.05053
486.37022
328.12022
230.47417
188.12325
160.54872
144.29184
132.63931
121.07723
112.9972
107.82551
104.93855
102.20052
101.11333
98.111793
97.364717
3825.3894
3673.1214
3500.0785
3309.1396
3100.5354
2875.3381
2635.6708
2384.8462
2127.3638
1868.7176
1615.0021
1372.3766
1146.4614
941.6039
760.56123
598.02701
438.2688
295.26079
218.47187
182.76419
157.23454
142.21739
131.35731
120.39953
112.6183
107.5745
104.81115
102.04915
101.04135
98.118556
97.373188
2901.5038
2804.3465
2692.1504
2566.6016
2427.3278
2274.4449
2108.7311
1931.7997
1746.1922
1555.3696
1363.5654
1175.4917
995.89033
828.84681
677.45029
533.93272
381.7824
263.39717
207.40614
177.01993
153.52795
139.9002
129.9289
119.45325
112.14649
107.29286
104.6577
101.89879
100.95826
98.127915
97.382359
2159.8443
2100.0589
2029.8654
1950.2002
1860.4924
1760.4186
1650.0111
1529.79
1400.8898
1265.1521
1125.145
984.07439
845.52934
712.86253
588.41792
459.10098
320.27339
236.84342
197.05452
170.80069
149.38991
137.31759
128.28844
118.55504
111.62681
106.93793
104.47605
101.74954
100.85863
98.140079
97.390063
1575.7252
1540.1008
1497.8517
1449.3193
1393.8709
1330.9829
1260.3185
1181.7798
1095.6064
1002.4908
903.67314
801.00449
696.91301
593.64071
489.83005
369.68605
266.16481
216.88653
186.72083
164.12482
144.91189
134.54627
126.397
117.36439
111.07767
106.527
104.26394
101.57926
100.72901
98.156212
97.393056
1121.28
1100.8649
1076.4531
1048.1116
1015.3352
977.59393
934.36173
885.17343
829.69878
767.82265
699.70239
625.9855
548.3719
467.47385
377.11057
283.23944
230.87817
200.3333
176.24567
157.20487
140.09118
131.6085
124.18771
116.17337
110.39384
106.06988
104.01051
101.33479
100.59055
98.178433
97.396045
767.87159
756.60249
743.06662
727.20124
708.56632
686.68695
661.06822
631.09509
596.13574
555.45342
508.24877
454.81948
397.85806
336.98175
278.46438
234.53829
206.27402
184.85334
166.80473
149.90449
135.4455
128.13701
121.76265
114.72143
109.62844
105.55749
103.65633
101.08587
100.40182
98.202846
97.403976
494.16566
487.79441
480.4115
471.97571
461.97063
449.74868
434.81265
416.53098
394.43066
368.33122
339.84789
309.94331
280.82022
250.01982
225.60624
207.20639
188.30508
171.16656
155.83155
143.0963
130.2603
124.41087
119.13096
113.36224
108.73787
104.97084
103.28362
100.84417
100.19788
98.214741
97.420875
319.33102
316.15633
312.37434
308.02537
302.94759
296.83658
289.8338
281.56842
271.14623
259.20663
246.25947
233.26949
219.66773
204.10225
197.20843
186.77821
171.1301
157.18654
147.47384
136.07597
125.50927
120.45596
116.43669
111.7798
107.79233
104.3907
102.87722
100.58168
99.989094
98.218883
97.445976
224.0801
223.06881
221.92468
220.43578
218.53111
215.8753
212.32444
208.76346
204.61487
200.59901
197.26614
194.84312
187.16087
178.25649
169.87514
164.9824
158.09673
147.46711
137.63557
129.27469
120.66959
116.71113
113.65937
110.20346
106.77848
103.75882
102.44566
100.31449
99.790414
98.218601
97.484749
176.31062
175.74334
175.13294
174.44789
173.70074
173.11281
172.25927
170.19561
167.99134
166.23128
163.97801
164.09128
162.88971
160.13552
151.27901
144.70448
140.64782
134.53241
130.41738
123.00456
116.57207
112.92115
111.48906
108.32321
105.69595
103.07815
101.97726
100.03252
99.608068
98.209031
97.530896
152.23208
151.72651
151.08582
150.08696
148.65594
146.98333
145.77925
144.85989
144.24582
143.98321
144.29953
141.88113
139.92879
137.0974
136.95626
130.1884
125.95076
125.06347
121.3749
116.87563
112.48911
109.94631
109.00993
106.64959
104.57931
102.38221
101.48454
99.708397
99.413899
98.148764
97.583766
132.06851
131.8949
131.77702
131.83344
132.11348
132.47789
132.68459
132.55496
131.8575
130.11986
127.46597
125.91919
125.09869
122.95523
121.84923
120.21137
117.35688
114.99112
114.52125
111.64344
109.05415
106.93262
107.22392
104.78383
103.46343
101.7536
100.91684
99.349705
99.230818
98.061178
97.555862
121.14494
120.98538
120.72098
120.25245
119.61285
119.1071
118.75207
118.45016
118.1763
117.92819
118.29168
118.23296
116.75061
115.29613
113.08062
112.07518
111.77488
109.81917
108.60234
106.72966
105.39137
104.43039
105.15744
103.2455
102.26229
101.28972
100.39524
99.040691
98.925302
98.023581
97.434172
111.58767
111.59466
111.65313
111.80273
112.01594
112.18189
112.27954
112.27209
112.12621
111.66674
110.56606
109.46642
108.87369
108.21337
108.10931
107.54048
106.37588
105.59142
105.33705
103.96633
102.28733
102.3719
103.94579
101.80046
101.19461
100.70286
99.894489
98.79065
98.632908
98.016423
97.473
106.32248
106.26407
106.15324
105.9694
105.75396
105.59411
105.46684
105.34978
105.22461
105.082
104.90515
104.898
104.76515
104.51063
103.69243
103.67735
103.24296
102.50538
102.66971
101.88246
100.5994
100.5067
101.89985
100.65083
100.4544
100.08838
99.439183
98.593643
98.431623
98.036279
97.514065
102.309
102.31102
102.30979
102.31353
102.34719
102.40968
102.47895
102.52538
102.50703
102.38446
102.09193
101.5867
101.34052
101.18119
101.35433
101.16562
101.47873
101.15394
101.06823
100.83575
99.647035
99.347542
99.957944
100.00173
99.40074
99.653416
99.044702
98.441096
98.329412
98.049383
97.593332
100.19979
100.19259
100.17501
100.14721
100.11447
100.07557
100.02638
99.964611
99.894022
99.825432
99.750402
99.68591
99.62413
99.594771
99.572569
99.648504
99.672954
99.739051
99.765381
99.421122
98.591178
98.735999
98.88165
99.245305
98.850865
99.306692
98.705398
98.313563
98.26302
98.020251
97.68966
98.970535
98.970442
98.964535
98.953389
98.942052
98.93256
98.926767
98.926028
98.930178
98.940394
98.927227
98.867248
98.812819
98.763972
98.783498
98.802017
98.899323
98.887533
98.877634
98.772007
98.363757
98.424113
98.470958
98.606913
98.547037
98.892118
98.527065
98.218951
98.199654
98.027357
97.766273
98.418287
98.415237
98.408292
98.399276
98.390938
98.384238
98.380224
98.3815
98.387982
98.395595
98.398831
98.396878
98.398248
98.413935
98.432493
98.462303
98.466759
98.499031
98.51063
98.481581
98.373629
98.290008
98.347545
98.323754
98.391521
98.559111
98.426714
98.154358
98.148649
98.051016
97.905585
98.189722
98.184532
98.180201
98.177354
98.176587
98.178622
98.184412
98.194746
98.209108
98.225074
98.24135
98.253623
98.2591
98.264104
98.271947
98.286661
98.309845
98.341288
98.375833
98.391893
98.389031
98.278041
98.333213
98.240663
98.316273
98.434561
98.384164
98.135991
98.145605
98.124121
98.048499
98.20685
98.205619
98.204816
98.204286
98.204013
98.204092
98.204426
98.204922
98.205993
98.208475
98.210759
98.212007
98.212543
98.214924
98.221279
98.234868
98.258961
98.294631
98.32835
98.362143
98.374492
98.345791
98.3785
98.384171
98.346553
98.411926
98.400216
98.270542
98.259279
98.245486
98.238065
98.35463
98.353983
98.353325
98.352699
98.35218
98.351783
98.351521
98.351382
98.351384
98.351561
98.351662
98.351542
98.351383
98.351649
98.35267
98.355097
98.359511
98.366366
98.372314
98.350341
98.345274
98.362504
98.39557
98.432111
98.367744
98.391966
98.404578
98.364502
98.346126
98.354592
98.349417
58248.862
84667.885
103930.12
100663.26
85094.213
60320.141
42994.893
31440.835
23220.526
17096.188
12475.199
8995.3453
6403.2478
4502.6555
3130.612
2154.812
1470.1446
992.0973
658.6076
427.11274
272.73661
192.12975
157.99132
135.16363
122.29388
113.10702
107.3783
103.36567
101.96397
98.491467
97.137339
77994.644
106956.2
110234.27
99552.756
71829.491
50884.208
37632.415
28336.754
21293.095
15848.444
11655.021
8456.1832
6052.9981
4278.465
2989.3292
2067.1931
1416.5946
959.59681
639.03609
415.07745
265.89364
189.07082
156.69129
134.45628
121.92446
112.90698
107.27461
103.3227
101.93169
98.472703
97.137053
103261.11
118723.38
111911.48
88349.327
62375.072
45665.037
34443.361
26176.224
19787.475
14806.66
10942.77
7976.8689
5736.7075
4073.6336
2859.0587
1985.7977
1366.543
929.04895
620.58433
403.74277
259.83188
186.7985
155.8221
133.99027
121.67755
112.77386
107.2034
103.29475
101.90342
98.453851
97.137007
125658.83
122870.75
106575.16
75718.57
54953.576
41445.381
31761.652
24326.475
18482.29
13890.638
10307.559
7544.5569
5448.6733
3885.5226
2738.5457
1910.0195
1319.6888
900.29069
603.15613
393.02132
254.2084
184.58929
154.88201
133.45952
121.39207
112.61969
107.12157
103.26303
101.87485
98.435461
97.137242
135474.91
123191.65
90819.01
65520.246
49311.126
38018.863
29454.848
22695.921
17321.176
13069.246
9733.5771
7151.2897
5184.8695
3712.0989
2626.7628
1839.339
1275.7648
873.18264
586.67613
382.83077
248.88539
182.51313
154.01439
132.9769
121.13372
112.48267
107.04824
103.23705
101.84816
98.417225
97.137799
138463.43
107435.41
77529.399
58096.937
44928.508
35135.442
27427.398
21239.192
16276.372
12325.445
9211.1785
6791.6346
4942.3119
3551.7645
2522.8676
1773.3167
1234.5404
847.60323
571.08129
373.11356
243.83146
180.56122
153.17698
132.50135
120.87569
112.34593
106.97403
103.21238
101.82238
98.399397
97.138715
125755.37
90904.445
67771.658
52461.951
41329.616
32636.741
25624.531
19929.542
15330.613
11648.3
8733.7031
6461.5586
4718.6652
3403.2168
2426.1515
1711.574
1195.813
823.44624
556.30432
363.83191
239.0372
178.72779
152.37957
132.04728
120.62839
112.21654
106.90283
103.19119
101.79808
98.381926
97.140023
104445.51
78048.283
60561.668
48004.873
38285.33
30441.104
24011.847
18747.735
14471.261
11029.847
8296.0901
6157.8802
4512.0294
3265.3659
2336.0073
1653.7802
1159.4034
800.61055
542.28344
354.95997
234.4963
177.00632
151.61613
131.60797
120.38667
112.09092
106.83328
103.17213
101.77486
98.364886
97.14175
89555.97
69419.066
55176.504
44342.079
35649.674
28492.267
22563.108
17677.98
13688.201
10463.848
7894.2418
5877.9804
4320.8134
3137.282
2251.9081
1599.6439
1125.1524
779.00379
528.95515
346.47939
230.20259
175.39017
150.88559
131.1846
120.15183
111.97035
106.76614
103.15535
101.75271
98.348293
97.143911
78511.917
62627.756
50717.508
41200.587
33332.226
26751.58
21257.381
16707.016
12973.249
9945.1277
7524.7005
5619.6399
4143.6552
3018.1584
2173.3909
1548.9063
1092.9174
758.55941
516.26034
338.37453
226.15038
173.87302
150.18535
130.77514
119.92235
111.85394
106.70062
103.13998
101.73135
98.332204
97.146516
70369.896
57405.94
47068.272
38498.63
31282.102
25190.274
20077.253
15823.688
12319.548
9469.1953
7184.4738
5380.94
3979.3698
2907.2867
2100.0448
1501.3357
1062.5704
739.22053
504.15157
330.62796
222.33418
172.44871
149.5134
130.37873
119.69786
111.74184
106.63678
103.12552
101.71065
98.316664
97.149575
64346.382
53207.379
43955.095
36121.476
29450.907
23784.289
19007.964
15018.492
11721.161
9032.0932
6870.9368
5160.1986
3826.9134
2804.0382
2031.5022
1456.7235
1033.9984
720.92218
492.57778
323.22176
218.74769
171.11158
148.86765
129.99408
119.47747
111.63375
106.57435
103.11129
101.69047
98.301721
97.15309
59559.503
49665.471
41240.361
34011.565
27808.648
22515.127
18036.904
14283.363
11172.929
8630.314
6581.7677
4955.9267
3685.3578
2707.8504
1967.4324
1414.8809
1007.1042
703.62084
481.49822
316.14114
215.38352
169.85613
148.24623
129.62016
119.26058
111.52959
106.51328
103.09688
101.67081
98.287409
97.157055
55608.073
46618.011
38850.27
32129.154
26331.447
21366.784
17153.263
13611.509
10670.259
8260.7283
6314.9002
4766.7972
3553.8725
2618.2174
1907.5362
1375.6363
981.79519
687.26998
470.90669
309.37476
212.23352
168.67722
147.64747
129.25612
119.04656
111.42911
106.4536
103.08207
101.65171
98.273747
97.161446
52238.384
43952.691
36729.008
30442.437
24999.32
20325.542
16347.902
12996.971
10209.027
7920.5391
6068.4882
4591.6205
3431.7098
2534.6818
1851.5413
1338.8328
957.98295
671.82638
460.78704
302.91349
209.28903
167.57034
147.07001
128.90136
118.83498
111.33203
106.39551
103.06702
101.63331
98.26075
97.166229
49314.595
41601.729
34837.354
28926.498
23795.496
19379.644
15612.983
12434.429
9785.5409
7607.2463
5840.8771
4429.3269
3318.1945
2456.8284
1799.1999
1304.3264
935.59058
657.25013
451.12248
296.7505
206.54088
166.5313
146.5129
128.5557
118.62558
111.2379
106.33934
103.05223
101.61581
98.248426
97.171356
46751.933
39516.11
33144.112
27560.826
22705.448
18518.911
14941.76
11919.139
9396.5062
7318.6119
5630.5806
4278.9511
3212.715
2384.2795
1750.285
1271.9842
914.54894
643.50426
441.89523
290.88087
203.97957
165.55627
145.97558
128.21935
118.41836
111.14612
106.28545
103.03837
101.59938
98.236773
97.176776
44491.775
37657.988
31623.858
26327.926
21716.636
17734.669
14328.293
11446.881
9038.9808
7052.6299
5436.2603
4139.6205
3114.7159
2316.6908
1704.5891
1241.6879
894.79273
630.55626
433.08654
285.30145
201.59549
164.64167
145.45803
127.89297
118.21362
111.056
106.2341
103.02595
101.58423
98.225783
97.182438
42488.868
35996.389
30255.359
25212.792
20818.238
17019.459
13767.321
11013.896
8710.3341
6807.4992
5256.7096
4010.5449
3023.692
2253.7476
1661.921
1213.331
876.2603
618.37703
424.67749
280.00958
199.37916
163.78411
144.96063
127.57764
118.01193
110.9668
106.18525
103.01516
101.57049
98.21544
97.188298
40704.664
34505.344
29020.792
24202.415
20000.909
16366.833
13254.15
10616.827
8408.2105
6581.6001
5090.8388
3891.0077
2939.1835
2195.1623
1622.1046
1186.801
858.88427
606.93842
416.64973
275.00169
197.32117
162.98034
144.48417
127.27477
117.81414
110.8778
106.13858
103.00573
101.55825
98.20572
97.194312
39109.119
33163.54
27904.893
23285.586
19256.649
15771.066
12784.6
10252.677
8130.4982
6373.475
4937.6631
3780.3589
2860.7712
2140.6717
1584.9776
1161.9931
842.59458
596.21124
408.98591
270.27284
195.41227
162.22719
144.02967
126.98591
117.62128
110.78842
106.09362
102.99697
101.54746
98.196594
97.200443
37676.439
31952.879
26894.457
22452.58
18578.514
15227.069
12354.945
9918.7618
7875.3018
6181.8102
4796.2914
3678.008
2788.0732
2090.035
1550.3989
1138.8227
827.33393
586.16421
401.66907
265.81719
193.64344
161.52158
143.59824
126.71266
117.43448
110.6983
106.05013
102.98811
101.53797
98.188033
97.20666
36385.645
30858.128
25978.034
21694.946
17960.424
14730.309
11961.859
9612.6825
7640.9187
6005.4215
4665.9175
3583.419
2720.7411
2043.0313
1518.231
1117.2115
813.0507
576.77162
394.68261
261.62882
192.006
160.86048
143.19089
126.4564
117.25476
110.6074
106.00807
102.97865
101.52951
98.180011
97.212933
35218.649
29866.108
25145.69
21005.344
17396.96
14276.751
11602.375
9332.287
7425.8179
5843.2403
4545.8115
3496.1053
2658.4575
1999.4634
1488.3412
1097.0851
799.70538
567.99357
388.01369
257.70158
190.4916
160.24097
142.80835
126.21814
117.08296
110.51611
105.9675
102.96847
101.52179
98.17251
97.219241
34160.134
28965.406
24388.739
20377.334
16883.284
13862.804
11273.837
9075.6454
7228.6224
5694.3024
4435.3124
3415.6254
2600.9322
1959.1462
1460.6189
1078.375
787.2657
559.79672
381.65553
254.02864
189.09239
159.66024
142.45097
125.99843
116.91957
110.42524
105.92842
102.95759
101.51448
98.165514
97.225563
33197.179
28145.564
23699.529
19805.268
16415.121
13485.239
10973.861
8841.0272
7048.0935
5557.7378
4333.8221
3341.5783
2547.9213
1921.9061
1434.9605
1061.0185
775.69873
552.15406
375.60582
250.60303
187.80096
159.11567
142.11865
125.79725
116.76478
110.33598
105.89095
102.94611
101.50731
98.159
97.231877
32318.276
27398.096
23071.513
19284.194
15988.68
13141.163
10700.307
8626.881
6883.1179
5432.7624
4240.7979
3273.6119
2499.1829
1887.5965
1411.2709
1044.958
764.97114
545.03885
369.86364
247.41797
186.61047
158.60484
141.81084
125.61407
116.61867
110.24967
105.85528
102.93433
101.50006
98.152933
97.238157
31513.753
26715.47
22498.874
18809.642
15600.547
12828.036
10451.271
8431.8111
6732.6941
5318.6692
4155.7611
3211.3898
2454.4784
1856.0773
1389.4632
1030.1403
755.05024
538.42465
364.42764
244.4664
185.5147
158.12562
141.52655
125.44793
116.48121
110.16746
105.82171
102.92263
101.49273
98.14719
97.244352
30775.212
26091.096
21976.491
18377.634
15247.689
12543.574
10225.11
8254.5553
6595.9191
5214.8427
4078.3158
3154.6027
2413.6173
1827.2203
1369.4581
1016.517
745.90501
532.28702
359.2962
241.74076
184.50783
157.67613
141.26454
125.29753
116.35212
110.08992
105.79053
102.91137
101.48543
98.141578
97.25042
30095.372
25519.192
21499.865
17984.653
14927.408
12285.738
10020.247
8093.9601
6472.0129
5120.784
4008.0511
3103.0002
2376.4232
1800.9101
1351.184
1004.0441
737.50659
526.60385
354.46823
239.23308
183.58462
157.25466
141.02356
125.16133
116.23068
110.01712
105.76178
102.90086
101.47805
98.136175
97.25633
29467.979
24994.757
21065.057
17627.601
14637.293
12052.702
9835.4068
7949.2665
6360.3925
5035.943
3944.575
3056.3373
2342.7356
1777.0428
1334.5759
992.68172
729.82867
521.3554
349.94346
236.93703
182.73883
156.85985
140.8021
125.03785
116.11622
109.94852
105.73572
102.89148
101.47064
98.13098
97.262045
28887.705
24513.461
20668.616
17303.828
14375.364
11843.021
9669.5729
7819.8126
6260.4245
4959.8146
3887.5832
3014.3906
2312.41
1755.5249
1319.5757
982.39393
722.84773
516.52421
345.73191
234.84073
181.95834
156.49077
140.59817
124.92593
116.00844
109.88325
105.71246
102.88359
101.46312
98.126077
97.267538
28354.013
24074.232
20309.211
17012.009
14140.529
11655.827
9521.9394
7704.5263
6171.4107
4892.0451
3836.7878
2976.9635
2285.3169
1736.2728
1306.1312
973.14962
716.54312
512.09577
341.84427
232.92511
181.24284
156.14675
140.40992
124.8244
115.90713
109.82114
105.69186
102.87737
101.45543
98.121489
97.272783
27872.233
23679.828
19987.966
16752.128
13932.002
11490.221
9391.3664
7602.6062
6092.8405
4832.2412
3791.9326
2943.8822
2261.3412
1719.2119
1294.1959
964.92346
710.8976
508.05906
338.28215
231.18136
180.58949
155.82723
140.23553
124.73224
115.81217
109.76271
105.67383
102.87259
101.44747
98.117267
97.277768
27440.488
23328.793
19703.51
16522.854
13748.417
11344.481
9276.7208
7513.4138
6024.2083
4780.0544
3752.7884
2914.994
2240.3813
1704.2764
1283.7283
957.68962
705.8986
504.4064
335.04389
229.60218
179.9964
155.5319
140.07324
124.64853
115.72362
109.70843
105.65803
102.86875
101.43924
98.113458
97.282484
27038.25
23007.453
19446.97
16318.691
13586.682
11216.937
9177.1631
7436.3155
5965.0797
4735.1889
3719.1574
2890.165
2222.3489
1691.4089
1274.6927
951.42478
701.53592
501.13285
332.12672
228.18122
179.46162
155.26056
139.92166
124.57224
115.64133
109.65821
105.644
102.86537
101.43078
98.11012
97.28693
26646.38
22701.976
19209.113
16133.83
13443.372
11106.135
9091.72
7370.7436
5915.089
4697.3938
3690.8704
2869.2819
2207.1674
1680.5597
1267.0586
946.11246
697.80085
498.23635
329.5275
226.91256
178.98342
155.01309
139.77991
124.50218
115.56471
109.61215
105.63077
102.86203
101.42214
98.107268
97.291104
26275.243
22416.88
18991.195
15968.007
13317.587
11010.905
9019.6254
7316.2062
5873.9196
4666.4563
3667.7842
2852.2501
2194.7737
1671.687
1260.8002
941.73843
694.68746
495.71709
327.24292
225.79086
178.56021
154.78946
139.64688
124.43792
115.49379
109.57033
105.61766
102.85826
101.41338
98.104891
97.295008
25928.144
22154.085
18793.849
15821.022
13208.758
10930.583
8960.307
7272.296
5841.3041
4642.1988
3649.7819
2838.9917
2185.1171
1664.7567
1255.8963
938.29158
692.19239
493.57734
325.26974
224.81134
178.19051
154.58962
139.52181
124.37939
115.42875
109.53245
105.60366
102.85333
101.40466
98.102981
97.298651
25604.599
21913.633
18617.085
15692.667
13116.511
10864.733
8913.3452
7238.6873
5817.0236
4624.4775
3636.7711
2829.4465
2178.1574
1659.7426
1252.3303
935.76374
690.31481
491.8216
323.60485
223.96985
177.873
154.41351
139.40457
124.3268
115.36932
109.49816
105.58802
102.84693
101.39629
98.101508
97.302054
25302.859
21694.492
18460.323
15582.542
13040.496
10813.026
8878.4293
7215.1278
5800.9055
4613.1819
3628.6839
2823.5716
2173.866
1656.6252
1250.0897
934.14918
689.05634
490.45662
322.24543
223.26275
177.60649
154.26103
139.29561
124.28076
115.31591
109.46706
105.57063
102.83901
101.38874
98.100399
97.305244
25021.085
21495.27
18322.66
15490.082
12980.339
10775.192
8855.3345
7201.429
5792.8203
4608.2341
3625.4761
2821.3412
2172.2265
1655.3927
1249.1666
933.44511
688.42075
489.49152
321.18903
222.68695
177.39
154.13199
139.1959
124.24215
115.26962
109.43892
105.5531
102.82977
101.38258
98.099613
97.308256
24757.479
21314.477
18203.063
15414.632
12935.644
10751.005
8843.9141
7197.4545
5792.6855
4609.4636
3626.9707
2822.6153
2173.1411
1655.9808
1249.5196
933.62916
688.41233
488.93788
320.43368
222.23975
177.22261
154.02604
139.10664
124.21204
115.2316
109.41389
105.53728
102.82073
101.37893
98.099132
97.311128
24509.946
21150.496
18100.434
15355.499
12905.999
10740.277
8844.1182
7202.5823
5799.6365
4616.7486
3633.4221
2827.6837
2176.8178
1658.5227
1251.2307
934.75047
689.03909
488.8108
319.97776
221.91864
177.10341
153.94271
139.02908
124.19143
115.20352
109.39209
105.51863
102.81381
101.37781
98.098903
97.3139
24275.782
21001.487
18013.631
15311.997
12891.02
10742.667
8854.7919
7216.9424
5815.1068
4630.7196
3644.8312
2836.4149
2183.1661
1662.9599
1254.261
936.78634
690.31213
489.12721
319.81967
221.7211
177.03148
153.88142
138.96437
124.1812
115.18728
109.37366
105.49146
102.80656
101.37778
98.098898
97.316613
24051.343
20865.327
17941.528
15283.477
12890.588
10757.266
8876.8147
7241.9817
5838.656
4651.0263
3661.1784
2848.8585
2192.2194
1669.3139
1258.6213
939.74195
692.24219
489.9133
319.92908
221.64551
177.00673
153.84222
138.91377
124.18219
115.18412
109.35924
105.46905
102.79243
101.37913
98.099035
97.319306
23831.218
20739.36
17883.059
15269.453
12903.335
10784.213
8911.3807
7276.8351
5870.2343
4677.7671
3682.5328
2865.0738
2204.0226
1677.6142
1264.327
943.62371
694.84016
491.19553
320.38834
221.67921
177.02233
153.82665
138.87893
124.19302
115.1896
109.34933
105.4566
102.77858
101.38174
98.099384
97.322011
23605.823
20619.408
17836.745
15269.877
12929.583
10824.648
8957.1913
7321.4937
5909.9362
4711.0383
3708.9786
2885.1308
2218.6289
1687.8966
1271.3971
948.43835
698.11651
493.0102
321.13853
221.83087
177.08599
153.83286
138.86069
124.21717
115.20058
109.3424
105.4506
102.77222
101.38271
98.099953
97.32475
23356.943
20497.274
17798.134
15281.162
12967.659
10874.442
9009.0179
7370.4528
5953.0969
4747.2349
3737.8358
2907.0895
2234.6598
1699.1856
1279.1259
953.64622
701.62236
494.99396
321.96372
222.08693
177.18768
153.85656
138.8556
124.24454
115.20999
109.33309
105.44584
102.7668
101.38268
98.100738
97.327536
50635.946
74691.059
99131.024
98544.545
84738.385
61401.906
44083.105
32209.64
23786.064
17524.951
12799.806
9234.81
6573.7101
4619.9622
3208.8666
2205.5157
1502.0971
1011.827
670.44769
434.27631
276.36564
193.47278
158.51166
135.45354
122.45817
113.19856
107.42911
103.38692
101.98853
98.508167
97.13716
48840.278
70040.163
93719.283
96380.107
83476.202
61180.625
44106.816
32314.134
23900
17635.533
12900.071
9319.5684
6640.3229
4669.396
3243.8899
2229.3474
1517.6969
1021.7656
676.57692
438.27363
278.64388
194.3901
158.87255
135.66065
122.57852
113.26708
107.46705
103.40189
102.00547
98.519445
97.136596
47297.738
66333.402
88650.045
93527.846
81887.968
60777.074
44099.902
32404.221
24006.846
17741.942
12997.741
9402.8904
6706.3844
4718.7398
3279.0164
2253.3348
1533.4428
1031.8092
682.7894
442.305
280.97493
195.33992
159.24288
135.8736
122.7028
113.33987
107.50763
103.41847
102.02271
98.530448
97.13602
45884.045
63204.963
84061.967
90651.592
80315.495
60335.08
44071.861
32479.466
24105.9
17843.762
13092.586
9484.6422
6771.7954
4767.9345
3314.2158
2277.4642
1549.329
1041.9579
689.08321
446.35781
283.3433
196.32105
159.62477
136.09397
122.83253
113.4176
107.55115
103.43677
102.04034
98.541361
97.135395
44616.252
60505.647
79905.921
87744.687
78740.262
59857.54
44011.357
32538.824
24196.493
17940.626
13184.408
9564.7024
6836.4719
4816.9305
3349.4619
2301.7232
1565.3503
1052.2101
695.45755
450.42293
285.7426
197.32863
160.0154
136.31947
122.96676
113.49972
107.59706
103.45635
102.05788
98.552298
97.134665
43489.097
58138.326
76139.087
84832.384
77153.182
59343.103
43920.034
32581.709
24278.121
18032.23
13273.054
9642.9716
6900.3429
4865.6839
3384.7312
2326.1005
1581.502
1062.5655
701.91194
454.48704
288.17185
198.36085
160.41282
136.54811
123.10474
113.58583
107.64501
103.47695
102.07499
98.563362
97.133775
42491.245
56041.111
72726.288
81947.274
75514.555
58813.414
43801.735
32607.675
24350.385
18118.352
13358.382
9719.3575
6963.3415
4914.1531
3420.001
2350.5852
1597.7796
1073.0225
708.44594
458.53794
290.63177
199.41825
160.81675
136.77904
123.24651
113.67587
107.69486
103.49849
102.09162
98.574627
97.132677
41613.137
54172.393
69634.447
79120.419
73846.06
58257.159
43657.008
32613.884
24412.843
18198.815
13440.251
9793.7657
7025.4002
4962.2957
3455.2479
2375.1658
1614.178
1083.5799
715.05921
462.57329
293.12277
200.50167
161.22744
137.01189
123.3924
113.76978
107.74658
103.52101
102.10788
98.586062
97.131326
40846.357
52503.743
66833.405
76371.684
72123.033
57689.824
43487.852
32606.582
24465.319
18273.316
13518.509
9866.0985
7086.4498
5010.0682
3490.4477
2399.8304
1630.6923
1094.2363
721.75161
466.59104
295.64484
201.61162
161.645
137.24635
123.54278
113.86738
107.80009
103.54459
102.12389
98.597548
97.129693
40179.994
51011.785
64293.445
73717.733
70358.116
57118.43
43296.659
32584.887
24507.615
18341.589
13593
9936.2559
7146.4201
5057.4255
3525.5753
2424.5664
1647.3167
1104.9902
728.52338
470.58859
298.19769
202.74831
162.06941
137.48214
123.69796
113.9683
107.85531
103.56928
102.13978
98.608963
97.127769
39602.257
49674.737
61984.346
71159.629
68559.122
56505.114
43082.613
32543.233
24539.302
18403.407
13663.566
10004.135
7205.2409
5104.3214
3560.6046
2449.3606
1664.0456
1115.8399
735.37524
474.56912
300.78067
203.91181
162.50062
137.71911
123.85818
114.07197
107.91215
103.59513
102.15565
98.620285
97.125563
39101.425
48472.713
59877.118
68694.275
66693.28
55816.691
42842.958
32484.775
24560.086
18458.553
13730.053
10069.632
7262.8414
5150.7096
3595.5085
2474.1994
1680.8728
1126.7833
742.30866
478.54022
303.39294
205.10206
162.9386
137.95737
124.02364
114.17765
107.97054
103.62223
102.1716
98.631605
97.123105
38666.643
47388.633
57949.221
66344.836
64992.817
55074.709
42576.752
32409.347
24569.13
18506.809
13792.312
10132.64
7319.1492
5196.5433
3630.2598
2499.0685
1697.7917
1137.8181
749.32608
482.51077
306.03319
206.31891
163.38338
138.19727
124.1945
114.28445
108.03042
103.65062
102.18774
98.643079
97.120471
38288.132
46409.134
56186.13
64140.437
63437.831
54296.506
42284.345
32316.911
24566.963
18548.026
13850.2
10193.057
7374.0904
5241.7746
3664.8302
2523.9533
1714.7955
1148.9416
756.41327
486.49432
308.70041
207.56205
163.83508
138.43945
124.37078
114.39134
108.09176
103.68037
102.20417
98.654807
97.117768
37956.899
45522.252
54574.954
62087.653
61956.333
53493.034
41966.861
32207.773
24556.525
18582.166
13903.589
10250.777
7427.5903
5286.3549
3699.1911
2548.8386
1731.8771
1160.1517
763.56283
490.53786
311.39367
208.83111
164.2939
138.68475
124.55236
114.49724
108.15453
103.7115