/*--------------------------------*- C++ -*----------------------------------*\
| =========                 |                                                 |
| \\      /  F ield         | OpenFOAM: The Open Source CFD Toolbox           |
|  \\    /   O peration     | Version:  2406                                  |
|   \\  /    A nd           | Website:  www.openfoam.com                      |
|    \\/     M anipulation  |                                                 |
\*---------------------------------------------------------------------------*/
FoamFile
{
    version     2.0;
    format      ascii;
    arch        "LSB;label=32;scalar=64";
    class       volScalarField;
    location    "0.035";
    object      Ma;
}
// * * * * * * * * * * * * * * * * * * * * * * * * * * * * * * * * * * * * * //

dimensions      [0 0 0 0 0 0 0];

internalField   nonuniform List<scalar> 
92813
(
0.1422494
0.14293529
0.14366724
0.14438298
0.14501656
0.1455944
0.14613635
0.14665525
0.14716323
0.14767083
0.1481869
0.14871866
0.14927127
0.14984994
0.15045057
0.15107352
0.15171511
0.15236353
0.15300506
0.15363512
0.1542505
0.15484595
0.15542935
0.15600359
0.15656888
0.15712426
0.15766812
0.15819837
0.15871252
0.15920767
0.15968054
0.16012743
0.16054423
0.16092636
0.16126875
0.16156566
0.16181069
0.16200103
0.16212416
0.16216135
0.16211854
0.16198956
0.16175494
0.1614049
0.16093155
0.16033058
0.15960524
0.15877398
0.15788036
0.15699845
0.156216
0.15559023
0.15511916
0.15476296
0.15447798
0.15423292
0.15401013
0.15380089
0.15360087
0.15340869
0.1532237
0.15304419
0.15287052
0.15270261
0.15253964
0.15238095
0.15222648
0.15207696
0.15193145
0.15179015
0.15165305
0.15151885
0.15138863
0.15126239
0.15113884
0.15101914
0.15090284
0.1507889
0.15067816
0.15057048
0.15046586
0.15036419
0.15026461
0.15016745
0.15007349
0.14998191
0.14989282
0.14980631
0.14972178
0.14963962
0.14955993
0.14948285
0.14940797
0.14933488
0.14926388
0.14919555
0.14912926
0.14906494
0.14900294
0.1489424
0.14888391
0.14882757
0.14877296
0.14872065
0.14867032
0.14862176
0.14857547
0.14853133
0.14848904
0.14844865
0.14841
0.14837328
0.14833831
0.14830526
0.1482743
0.14824533
0.14821824
0.14819326
0.1481702
0.14814922
0.14813011
0.14811346
0.14809847
0.14808658
0.14807601
0.14807001
0.14806493
0.13976342
0.14063485
0.14150811
0.14233156
0.14309769
0.14381833
0.14450533
0.14516734
0.14581236
0.14644805
0.14708156
0.14771921
0.14836611
0.14902534
0.14969595
0.1503759
0.15106082
0.15174355
0.15241682
0.15307717
0.15372264
0.15435181
0.15496702
0.1555697
0.1561599
0.1567368
0.15729894
0.15784439
0.15837077
0.15887529
0.15935474
0.15980548
0.16022339
0.1606039
0.16094189
0.16123166
0.161467
0.16164321
0.16174698
0.16176543
0.16170348
0.16154539
0.16127913
0.16089529
0.16038659
0.15975099
0.15899653
0.15814962
0.15726479
0.15642419
0.15570992
0.15515854
0.1547491
0.15443651
0.15418084
0.15395621
0.15374902
0.15355288
0.1533645
0.15318313
0.15300833
0.1528383
0.15267368
0.15251443
0.15235965
0.15220873
0.15206168
0.15191933
0.1517806
0.15164577
0.15151482
0.15138641
0.1512618
0.15114088
0.15102232
0.15090743
0.1507957
0.15068606
0.15057953
0.1504758
0.15037493
0.1502769
0.15018076
0.15008692
0.14999613
0.14990757
0.14982134
0.14973756
0.14965563
0.14957596
0.14949863
0.14942381
0.1493511
0.14928005
0.14921104
0.14914459
0.14908009
0.14901746
0.14895708
0.14889809
0.14884107
0.14878613
0.14873285
0.1486818
0.14863267
0.14858525
0.14854005
0.14849693
0.14845559
0.14841613
0.14837834
0.14834242
0.14830822
0.14827587
0.14824556
0.1482172
0.14819067
0.14816621
0.14814362
0.14812306
0.14810433
0.14808801
0.1480733
0.14806165
0.14805125
0.14804536
0.14804033
0.13696117
0.13795393
0.13899472
0.13997805
0.14090065
0.14177447
0.14260994
0.14341453
0.14419497
0.14495779
0.14570918
0.1464547
0.14719889
0.14794459
0.14869206
0.14943976
0.15018431
0.15092082
0.15164435
0.15235193
0.15304195
0.15371359
0.15436778
0.15500542
0.15562665
0.15623088
0.1568169
0.15738296
0.15792685
0.15844591
0.15893704
0.15939665
0.15982068
0.16020454
0.1605431
0.1608306
0.16106078
0.16122779
0.16131779
0.16132414
0.16124675
0.16106472
0.16077276
0.16036119
0.15982395
0.15916194
0.15838855
0.15753888
0.15667765
0.15589038
0.15524662
0.15476167
0.15440215
0.15412351
0.15389119
0.15368386
0.15349083
0.15330716
0.15313013
0.15295943
0.15279477
0.15263416
0.15247852
0.15232788
0.15218124
0.15203804
0.15189832
0.15176305
0.151631
0.15150252
0.15137766
0.15125496
0.15113585
0.15102019
0.15090657
0.15079641
0.1506892
0.15058382
0.15048142
0.15038157
0.15028436
0.15018992
0.15009717
0.15000659
0.14991893
0.14983334
0.14974993
0.14966884
0.14958947
0.14951228
0.14943725
0.14936465
0.14929408
0.14922505
0.149158
0.1490934
0.14903068
0.14896972
0.14891094
0.14885349
0.14879792
0.14874437
0.1486924
0.1486426
0.14859466
0.14854836
0.14850423
0.14846212
0.14842174
0.14838319
0.14834626
0.14831115
0.1482777
0.14824605
0.14821639
0.14818863
0.14816266
0.14813872
0.1481166
0.14809646
0.14807811
0.14806211
0.14804767
0.14803625
0.14802603
0.14802026
0.14801528
0.13436513
0.13546679
0.13664115
0.13776414
0.13882623
0.13983677
0.14080475
0.14173663
0.14263824
0.14351524
0.14437303
0.14521648
0.14604956
0.14687491
0.14769339
0.14850433
0.1493056
0.15009395
0.15086595
0.15161922
0.15235226
0.1530643
0.15375572
0.15442704
0.15507834
0.15570912
0.15631829
0.15690428
0.157465
0.1579979
0.15849995
0.15896764
0.15939692
0.15978318
0.16012124
0.16040526
0.16062877
0.16078518
0.16086132
0.16085454
0.16075804
0.1605512
0.16023263
0.15979254
0.15922697
0.15854057
0.15775337
0.1569103
0.15608513
0.15536144
0.15479108
0.15436943
0.1540554
0.15380762
0.15359705
0.15340635
0.15322726
0.15305607
0.15289047
0.15273055
0.15257615
0.15242508
0.15227856
0.15213666
0.1519983
0.15186295
0.15173069
0.15160262
0.1514774
0.15135541
0.15123675
0.15111988
0.1510064
0.15089612
0.15078753
0.15068224
0.15057965
0.15047862
0.15038048
0.15028462
0.15019116
0.15010042
0.15001116
0.14992394
0.1498395
0.14975697
0.14967647
0.14959817
0.14952144
0.1494468
0.14937416
0.14930383
0.14923548
0.14916855
0.14910352
0.14904085
0.14897996
0.14892073
0.1488636
0.14880774
0.14875368
0.14870156
0.14865095
0.14860244
0.14855573
0.14851059
0.14846757
0.14842651
0.14838712
0.14834951
0.14831347
0.14827919
0.14824652
0.1482156
0.1481866
0.14815947
0.14813407
0.14811066
0.14808903
0.14806933
0.14805136
0.1480357
0.14802154
0.14801037
0.14800032
0.14799468
0.14798974
0.13195582
0.13315496
0.13443703
0.13567726
0.13686073
0.13799234
0.13907869
0.14012485
0.14113565
0.14211593
0.14307035
0.14400316
0.14491791
0.1458171
0.14670196
0.14757248
0.14842752
0.1492651
0.15008299
0.1508794
0.15165311
0.15240342
0.15313034
0.15383404
0.15451442
0.15517096
0.15580265
0.15640798
0.15698496
0.15753112
0.15804349
0.15851857
0.15895231
0.15934009
0.15967662
0.15995596
0.1601714
0.16031563
0.16037766
0.16035555
0.16023644
0.16000392
0.15965743
0.15918799
0.15859462
0.15788682
0.15709269
0.15626762
0.15549174
0.15484028
0.15434396
0.15398158
0.1537087
0.15348899
0.15329881
0.1531242
0.15295892
0.15280026
0.15264621
0.15249724
0.15235329
0.15221191
0.15207469
0.15194172
0.15181181
0.15168446
0.15155981
0.15143909
0.15132084
0.15120548
0.15109314
0.15098221
0.15087448
0.15076968
0.15066623
0.15056588
0.150468
0.15037142
0.15027763
0.15018584
0.1500962
0.15000921
0.14992353
0.14983975
0.1497586
0.14967919
0.14960165
0.14952617
0.14945214
0.1493801
0.1493099
0.14924189
0.1491758
0.149111
0.14904804
0.14898732
0.1489283
0.14887082
0.14881538
0.14876115
0.14870862
0.14865796
0.14860873
0.14856153
0.14851607
0.14847212
0.14843023
0.14839024
0.14835184
0.1483152
0.14828006
0.14824663
0.14821476
0.14818457
0.14815625
0.14812976
0.14810495
0.14808208
0.14806095
0.14804168
0.14802411
0.1480088
0.14799493
0.147984
0.14797414
0.14796861
0.14796373
0.129707
0.13100647
0.13238224
0.13372157
0.13500843
0.13624424
0.13743329
0.13857935
0.13968626
0.14075806
0.14179873
0.14281195
0.14380088
0.14476787
0.14571436
0.1466408
0.14754677
0.14843119
0.1492927
0.15013004
0.15094227
0.15172878
0.15248936
0.1532239
0.15393212
0.15461343
0.15526679
0.15589075
0.15648335
0.15704215
0.1575642
0.158046
0.15848347
0.15887193
0.15920601
0.15947964
0.15968593
0.15981663
0.15986331
0.15982378
0.15968015
0.1594209
0.15904533
0.15854641
0.15792685
0.15720235
0.15641043
0.15561657
0.15490275
0.15432935
0.15390515
0.15359711
0.15336119
0.15316714
0.15299627
0.15283732
0.15268579
0.15253977
0.15239739
0.15225955
0.15212624
0.1519947
0.15186694
0.15174307
0.15162176
0.15150257
0.15138566
0.15127242
0.15116128
0.15105266
0.15094676
0.15084187
0.15073998
0.15064075
0.15054253
0.15044722
0.15035414
0.15026207
0.15017272
0.15008509
0.14999932
0.14991616
0.14983414
0.14975387
0.14967607
0.14959984
0.14952532
0.14945273
0.14938144
0.14931208
0.14924435
0.1491787
0.14911492
0.1490523
0.14899145
0.14893273
0.14887561
0.14881992
0.1487662
0.14871362
0.14866266
0.14861349
0.14856567
0.14851982
0.14847564
0.1484329
0.14839216
0.14835325
0.14831588
0.14828022
0.148246
0.14821343
0.14818239
0.14815294
0.14812532
0.14809949
0.14807527
0.14805295
0.14803233
0.14801351
0.14799634
0.14798138
0.1479678
0.14795712
0.14794745
0.14794204
0.14793722
0.1276262
0.12902804
0.1304863
0.13190811
0.13328056
0.13460319
0.13587862
0.13710952
0.13829887
0.13944994
0.14056604
0.1416503
0.14270546
0.14373369
0.14473647
0.14571456
0.14666801
0.14759633
0.14849877
0.14937449
0.1502228
0.15104315
0.1518352
0.15259864
0.15333304
0.15403769
0.15471151
0.15535302
0.15596024
0.15653074
0.15706154
0.1575491
0.15798931
0.15837739
0.15870787
0.15897456
0.15917045
0.15928591
0.15931571
0.15925719
0.15908712
0.15879991
0.15839448
0.15786672
0.15722399
0.15648962
0.15571158
0.15496356
0.1543231
0.1538303
0.1534741
0.15321501
0.15301214
0.15284169
0.15268925
0.15254567
0.15240788
0.1522746
0.15214404
0.15201749
0.15189499
0.15177345
0.15165532
0.15154072
0.15142817
0.15131728
0.15120824
0.15110261
0.15099871
0.15089696
0.15079759
0.15069885
0.15060291
0.15050935
0.15041644
0.15032626
0.15023807
0.1501506
0.15006578
0.14998239
0.14990056
0.1498213
0.14974301
0.14966633
0.14959194
0.14951895
0.1494475
0.14937785
0.14930937
0.14924273
0.14917754
0.14911427
0.14905285
0.14899246
0.14893376
0.14887708
0.1488219
0.14876804
0.14871607
0.14866518
0.14861582
0.14856817
0.1485218
0.1484773
0.14843443
0.14839293
0.14835336
0.14831556
0.14827923
0.14824457
0.14821129
0.14817961
0.14814939
0.14812072
0.14809381
0.14806863
0.14804502
0.14802327
0.14800316
0.1479848
0.14796805
0.14795344
0.14794017
0.14792974
0.14792026
0.14791498
0.14791021
0.12574118
0.12723073
0.12875656
0.13024401
0.13168443
0.1330767
0.1344223
0.13572306
0.13698121
0.13819927
0.13937988
0.14052562
0.14163879
0.1427213
0.14377457
0.14479947
0.14579632
0.14676504
0.14770523
0.14861638
0.14949796
0.15034948
0.15117052
0.15196062
0.15271919
0.15344542
0.15413812
0.15479574
0.15541627
0.15599721
0.15653554
0.15702764
0.15746931
0.15785566
0.1581811
0.15843931
0.15862322
0.15872158
0.15873351
0.1586537
0.15845506
0.15813877
0.15770323
0.15714825
0.1564871
0.15575226
0.15500228
0.15431509
0.15375652
0.15334347
0.15304964
0.15283415
0.15266086
0.15251233
0.15237765
0.15224922
0.15212519
0.15200479
0.15188618
0.1517711
0.1516596
0.1515482
0.15143987
0.15133469
0.15123104
0.1511286
0.15102756
0.15092965
0.15083314
0.15073837
0.15064564
0.15055315
0.15046325
0.15037545
0.15028794
0.15020299
0.15011976
0.15003697
0.14995677
0.14987771
0.14979987
0.14972458
0.14965012
0.14957708
0.14950618
0.14943649
0.14936817
0.14930152
0.1492359
0.14917203
0.14910943
0.14904859
0.14898957
0.14893146
0.14887495
0.14882034
0.14876714
0.14871516
0.14866496
0.14861579
0.14856808
0.14852198
0.14847707
0.14843397
0.14839242
0.14835219
0.14831382
0.14827714
0.14824188
0.14820823
0.14817592
0.14814513
0.14811577
0.14808787
0.14806169
0.14803719
0.1480142
0.14799303
0.14797345
0.14795555
0.14793922
0.14792497
0.14791201
0.14790183
0.14789255
0.1478874
0.1478827
0.12405883
0.12561679
0.12719388
0.12873058
0.13022229
0.13166793
0.13306832
0.13442463
0.13573839
0.13701147
0.13824586
0.13944354
0.14060638
0.14173598
0.14283356
0.1439
0.14493572
0.14594085
0.1469152
0.14785847
0.14877023
0.14965001
0.15049731
0.15131156
0.15209203
0.15283776
0.15354746
0.15421947
0.1548517
0.15544155
0.1559859
0.15648105
0.15692265
0.15730567
0.15762435
0.15787219
0.15804194
0.15812242
0.15811545
0.15801001
0.15778139
0.15743542
0.15697031
0.15639113
0.15571863
0.15499568
0.15429001
0.15367751
0.15320551
0.15286829
0.15263035
0.15245345
0.1523068
0.15217885
0.15206144
0.151948
0.15183777
0.15173038
0.15162388
0.15152045
0.15142008
0.15131897
0.1512206
0.151125
0.15103039
0.15093655
0.15084362
0.15075353
0.15066455
0.15057688
0.15049087
0.15040475
0.15032098
0.15023901
0.15015701
0.15007737
0.14999919
0.14992117
0.14984567
0.14977102
0.14969726
0.149626
0.14955544
0.14948613
0.14941878
0.14935245
0.14928731
0.14922371
0.14916101
0.14909997
0.14904
0.14898163
0.14892506
0.14886928
0.14881501
0.14876251
0.14871132
0.14866125
0.14861287
0.14856545
0.14851941
0.14847489
0.14843148
0.1483898
0.14834961
0.14831067
0.14827351
0.14823799
0.14820381
0.1481712
0.14813987
0.14811
0.1480815
0.14805441
0.14802896
0.14800516
0.1479828
0.14796221
0.14794317
0.14792575
0.14790984
0.14789596
0.14788332
0.1478734
0.14786432
0.14785929
0.14785467
0.1225794
0.12418311
0.12579448
0.1273649
0.12889262
0.13037682
0.1318179
0.1332165
0.13457357
0.13589032
0.13716813
0.13840846
0.13961269
0.14078206
0.14191758
0.14301997
0.14408967
0.14512685
0.14613144
0.14710321
0.14804177
0.14894665
0.14981726
0.15065291
0.15145275
0.15221564
0.15294018
0.15362458
0.1542666
0.15486354
0.15541213
0.15590854
0.15634826
0.1567261
0.15703612
0.15727162
0.15742462
0.15748641
0.15745851
0.15732321
0.15706408
0.15668811
0.15619508
0.1555967
0.15492288
0.15422733
0.15358317
0.15305625
0.15267114
0.15240348
0.15221475
0.15207198
0.15194954
0.15184115
0.15174061
0.15164206
0.15154569
0.15145144
0.1513572
0.15126559
0.15117651
0.15108584
0.15099758
0.15091168
0.15082625
0.15074114
0.15065643
0.15057427
0.15049296
0.1504125
0.15033328
0.15025363
0.15017609
0.15010004
0.15002364
0.14994939
0.14987634
0.14980318
0.14973247
0.14966232
0.1495927
0.14952554
0.14945897
0.14939345
0.1493297
0.1492668
0.1492049
0.1491444
0.14908468
0.14902653
0.14896925
0.14891338
0.14885931
0.14880591
0.14875391
0.14870357
0.14865443
0.1486063
0.14855977
0.14851414
0.1484698
0.1484269
0.14838502
0.14834478
0.14830598
0.14826835
0.14823244
0.14819808
0.14816501
0.14813346
0.14810313
0.14807419
0.14804659
0.1480203
0.14799561
0.14797251
0.1479508
0.14793081
0.14791231
0.14789538
0.14787991
0.1478664
0.14785409
0.14784443
0.14783556
0.14783066
0.14782611
0.12129801
0.12292186
0.12455054
0.12614061
0.12769096
0.12920075
0.13067005
0.13209905
0.13348816
0.13483805
0.13614956
0.13742361
0.13866115
0.13986303
0.14102999
0.14216257
0.1432611
0.1443257
0.14535631
0.14635269
0.14731444
0.14824103
0.14913178
0.14998588
0.1508023
0.15157977
0.15231674
0.15301123
0.15366087
0.15426279
0.15481356
0.15530917
0.15574492
0.15611544
0.15641465
0.15663572
0.15676935
0.15681025
0.15675885
0.15659152
0.15630139
0.1558956
0.15537791
0.15476805
0.15410653
0.15345659
0.15289015
0.15245508
0.15215302
0.15194723
0.15180137
0.15168894
0.1515888
0.15149919
0.15141521
0.15133146
0.15124904
0.15116807
0.15108624
0.15100662
0.15092893
0.15084886
0.15077086
0.15069477
0.15061863
0.15054239
0.15046603
0.15039187
0.15031837
0.15024523
0.15017286
0.1500998
0.15002855
0.14995851
0.1498878
0.14981905
0.14975121
0.149683
0.14961713
0.14955158
0.14948619
0.14942318
0.14936069
0.14929903
0.14923894
0.14917952
0.14912092
0.14906358
0.1490069
0.14895168
0.14889715
0.14884383
0.1487923
0.14874132
0.14869165
0.1486435
0.14859645
0.14855031
0.14850565
0.14846185
0.14841925
0.14837799
0.14833767
0.1482989
0.14826152
0.14822523
0.14819057
0.14815741
0.14812547
0.148095
0.14806569
0.14803771
0.148011
0.14798555
0.14796162
0.14793925
0.1479182
0.14789882
0.14788087
0.14786444
0.14784941
0.14783628
0.1478243
0.14781491
0.14780626
0.14780149
0.14779701
0.12018913
0.1218186
0.12345184
0.1250498
0.12661145
0.12813571
0.12962236
0.13107119
0.13248221
0.13385561
0.13519174
0.13649109
0.13775415
0.13898144
0.14017339
0.1413303
0.14245235
0.14353955
0.14459175
0.14560864
0.14658976
0.14753448
0.148442
0.14931135
0.15014137
0.15093061
0.15167732
0.15237936
0.15303417
0.15363869
0.15418929
0.15468173
0.15511112
0.15547185
0.15575773
0.15596194
0.15607336
0.15609154
0.15601399
0.15581265
0.15549138
0.15505741
0.15452073
0.15391068
0.1532789
0.15269409
0.15221814
0.15187567
0.15164958
0.15149755
0.15138892
0.15130368
0.15122443
0.15115303
0.1510853
0.15101633
0.15094794
0.15088035
0.15081113
0.15074365
0.15067741
0.15060812
0.1505405
0.15047429
0.15040756
0.15034033
0.15027245
0.15020634
0.15014078
0.15007506
0.15000959
0.14994325
0.14987838
0.14981441
0.1497495
0.14968632
0.14962377
0.14956061
0.14949966
0.14943879
0.14937771
0.14931892
0.14926059
0.14920285
0.14914648
0.14909061
0.14903535
0.14898123
0.14892765
0.14887541
0.14882368
0.14877296
0.148724
0.1486755
0.1486282
0.14858228
0.14853735
0.14849324
0.14845051
0.14840856
0.14836773
0.14832814
0.14828942
0.14825215
0.14821621
0.14818129
0.14814791
0.14811597
0.14808518
0.14805581
0.14802754
0.14800053
0.14797475
0.14795014
0.14792699
0.14790536
0.14788498
0.14786622
0.14784884
0.14783291
0.14781834
0.1478056
0.14779396
0.14778483
0.14777641
0.14777177
0.14776736
0.11923854
0.12086229
0.12248959
0.1240853
0.12564831
0.12717729
0.12867167
0.13013094
0.13155474
0.13294286
0.13429524
0.13561196
0.13689316
0.13813898
0.13934956
0.14052497
0.14166518
0.14277002
0.14383923
0.14487237
0.14586886
0.14682794
0.14774867
0.14862993
0.14947035
0.15026831
0.15102185
0.15172864
0.1523859
0.15299034
0.15353812
0.15402476
0.15444508
0.15479323
0.15506276
0.15524699
0.15533481
0.15532874
0.15521996
0.15498383
0.15463269
0.15417448
0.15362784
0.15303318
0.15245181
0.15195042
0.15157201
0.15131762
0.15115842
0.15105243
0.15097635
0.15091569
0.1508565
0.15080287
0.15075095
0.15069676
0.15064251
0.1505884
0.15053199
0.15047681
0.15042202
0.15036372
0.15030659
0.15025029
0.15019307
0.15013499
0.15007573
0.15001772
0.14996021
0.149902
0.14984347
0.14978399
0.14972556
0.14966773
0.14960874
0.14955121
0.14949402
0.14943601
0.14938002
0.14932392
0.14926726
0.14921274
0.14915866
0.1491049
0.1490523
0.14900004
0.14894818
0.14889733
0.14884692
0.1487977
0.14874883
0.14870075
0.14865441
0.14860844
0.14856354
0.1485199
0.14847713
0.14843509
0.14839431
0.14835426
0.14831522
0.14827733
0.14824025
0.14820451
0.14817003
0.14813651
0.14810444
0.14807374
0.14804412
0.14801587
0.14798866
0.14796264
0.1479378
0.14791406
0.14789171
0.14787082
0.14785114
0.147833
0.1478162
0.14780079
0.14778668
0.14777434
0.14776304
0.14775419
0.14774599
0.14774148
0.14773716
0.11843425
0.12004277
0.12165524
0.12323991
0.12479558
0.12632065
0.12781425
0.12927557
0.13070393
0.13209876
0.13345968
0.1347864
0.13607872
0.13733648
0.13855952
0.13974767
0.14090066
0.14201816
0.1430997
0.14414471
0.14515244
0.14612198
0.14705221
0.14794182
0.14878926
0.14959268
0.15034991
0.15105839
0.15171511
0.15231653
0.15285855
0.15333643
0.15374472
0.15407727
0.15432736
0.15448795
0.15455084
0.15451826
0.1543733
0.15410371
0.15372541
0.15325002
0.15270678
0.1521476
0.15163857
0.15123433
0.15095364
0.15077889
0.15067677
0.15061014
0.15056291
0.15052447
0.15048539
0.15044902
0.1504121
0.15037283
0.15033287
0.15029232
0.15024904
0.15020629
0.1501628
0.15011576
0.15006921
0.15002282
0.14997521
0.14992639
0.14987592
0.14982602
0.14977666
0.14972606
0.14967449
0.14962202
0.14957009
0.14951846
0.14946551
0.14941371
0.14936195
0.1493092
0.14925822
0.14920696
0.14915484
0.14910465
0.14905489
0.14900517
0.14895639
0.14890779
0.14885938
0.14881186
0.1487647
0.14871853
0.14867258
0.14862719
0.14858351
0.14854011
0.14849767
0.14845633
0.14841577
0.14837584
0.14833705
0.14829893
0.14826172
0.14822556
0.14819014
0.14815596
0.14812298
0.14809089
0.14806015
0.1480307
0.14800229
0.14797518
0.14794905
0.14792403
0.14790016
0.14787729
0.14785576
0.14783564
0.14781666
0.14779917
0.14778295
0.14776807
0.14775443
0.14774249
0.14773155
0.14772297
0.147715
0.14771063
0.1477064
0.11776453
0.11934989
0.12094002
0.12250613
0.12404692
0.12556055
0.12704585
0.12850175
0.12992725
0.13132153
0.13268389
0.13401374
0.13531059
0.136574
0.13780355
0.1389988
0.14015928
0.14128442
0.14237359
0.14342601
0.14444076
0.14541672
0.14635259
0.14724685
0.14809773
0.14890314
0.14966069
0.15036755
0.15102046
0.15161562
0.15214865
0.15261451
0.1530075
0.15332122
0.15354872
0.15368197
0.15371719
0.15365527
0.15347277
0.15317226
0.15277174
0.15229049
0.1517692
0.15126901
0.15085195
0.15055106
0.1503622
0.15025683
0.15020178
0.15016943
0.15014811
0.15012949
0.15011189
0.15009173
0.15006845
0.15004461
0.15001914
0.14999218
0.14996264
0.14993239
0.14989969
0.14986436
0.14982853
0.14979188
0.14975398
0.14971458
0.14967311
0.14963132
0.14959012
0.14954723
0.14950266
0.14945736
0.14941197
0.1493666
0.14931982
0.14927381
0.14922755
0.14918019
0.14913424
0.14908791
0.14904044
0.14899464
0.14894927
0.14890365
0.14885873
0.14881387
0.14876895
0.14872482
0.14868098
0.14863789
0.1485949
0.14855227
0.14851128
0.14847051
0.14843057
0.14839158
0.14835325
0.14831548
0.14827872
0.14824255
0.14820721
0.14817281
0.14813909
0.1481065
0.14807504
0.14804441
0.14801502
0.14798686
0.14795967
0.14793372
0.14790869
0.14788469
0.1478618
0.14783984
0.14781914
0.14779979
0.14778153
0.14776469
0.14774907
0.14773473
0.14772157
0.14771004
0.14769946
0.14769116
0.14768343
0.1476792
0.14767505
0.11721755
0.11877327
0.1203349
0.12187617
0.12339568
0.12489135
0.12636176
0.12780558
0.12922158
0.13060868
0.13196595
0.13329255
0.13458775
0.13585084
0.13708117
0.13827807
0.13944083
0.14056868
0.14166076
0.14271609
0.14373355
0.14471181
0.14564934
0.14654439
0.14739495
0.1481987
0.14895295
0.14965463
0.15030018
0.15088552
0.15140599
0.15185628
0.15223037
0.15252164
0.15272312
0.15282517
0.15283098
0.15273733
0.15251737
0.15219052
0.15177705
0.1513068
0.15083106
0.15041372
0.15010155
0.14990168
0.14979536
0.14974908
0.14973093
0.14972985
0.14973079
0.14973091
0.14973621
0.14973023
0.14972004
0.14971248
0.14970152
0.14968814
0.14967327
0.14965522
0.14963251
0.14960982
0.14958476
0.14955743
0.14952934
0.14949955
0.14946744
0.1494337
0.14940058
0.14936549
0.14932798
0.14929003
0.14925123
0.14921215
0.1491717
0.14913154
0.14909082
0.14904898
0.14900809
0.14896676
0.14892407
0.1488827
0.1488418
0.14880032
0.14875931
0.14871825
0.14867687
0.14863617
0.14859573
0.14855575
0.14851579
0.14847597
0.14843771
0.14839962
0.14836221
0.14832562
0.14828957
0.14825399
0.14821929
0.14818512
0.14815167
0.14811907
0.14808708
0.14805611
0.1480262
0.14799705
0.14796904
0.14794218
0.14791624
0.14789148
0.14786757
0.14784461
0.14782273
0.14780168
0.14778182
0.14776327
0.14774574
0.14772957
0.14771456
0.14770076
0.1476881
0.14767698
0.14766677
0.14765876
0.14765127
0.14764718
0.14764312
0.11678157
0.1183026
0.11983084
0.12134218
0.12283504
0.12430717
0.12575689
0.1271827
0.12858318
0.12995708
0.13130326
0.13262069
0.13390842
0.13516556
0.13639122
0.1375845
0.13874448
0.13987016
0.14096047
0.14201421
0.14303003
0.14400637
0.14494146
0.1458333
0.14667962
0.14747781
0.14822493
0.14891759
0.14955194
0.15012361
0.15062765
0.15105845
0.15140973
0.1516745
0.15184586
0.15191542
0.15189113
0.15176034
0.15150743
0.15116267
0.15075146
0.15031525
0.14991148
0.14959632
0.14939225
0.14928463
0.14925104
0.14925261
0.14926314
0.14928784
0.1493101
0.14933076
0.14935454
0.14936393
0.14936988
0.14937748
0.14938052
0.14938065
0.14938112
0.14937417
0.14936147
0.14935265
0.14933801
0.14931932
0.14930122
0.14928136
0.14925919
0.14923335
0.149208
0.14918076
0.14915049
0.14912004
0.1490879
0.14905511
0.14902115
0.14898689
0.14895177
0.14891558
0.14887976
0.1488435
0.14880573
0.14876885
0.14873246
0.14869519
0.14865811
0.14862092
0.14858313
0.14854592
0.14850896
0.14847211
0.14843522
0.14839828
0.14836278
0.14832743
0.1482926
0.14825843
0.1482247
0.14819135
0.14815875
0.14812662
0.14809509
0.14806432
0.1480341
0.14800478
0.14797644
0.1479488
0.14792219
0.14789667
0.14787199
0.14784844
0.14782568
0.14780377
0.14778292
0.14776281
0.14774381
0.14772607
0.14770928
0.14769379
0.1476794
0.14766616
0.147654
0.1476433
0.14763348
0.14762575
0.1476185
0.14761456
0.1476106
0.11644522
0.11792805
0.11941921
0.12089649
0.1223582
0.12380191
0.12522583
0.1266283
0.1280078
0.12936297
0.13069252
0.13199528
0.13327013
0.13451598
0.13573177
0.13691638
0.13806867
0.13918742
0.14027135
0.141319
0.1423288
0.14329894
0.14422739
0.14511188
0.14594986
0.14673842
0.14747431
0.14815383
0.14877283
0.14932665
0.14981005
0.15021724
0.15054174
0.15077606
0.15091272
0.15094981
0.150894
0.15072395
0.15044716
0.15009798
0.14971125
0.14933691
0.14902973
0.14882683
0.14872502
0.14870075
0.14872156
0.14875679
0.14879704
0.14884388
0.14888776
0.14892907
0.14896688
0.14899471
0.1490184
0.14904004
0.1490571
0.1490709
0.1490843
0.14908797
0.14908869
0.14909306
0.14908784
0.14907777
0.14906969
0.1490601
0.14904856
0.14903049
0.14901237
0.14899284
0.1489702
0.14894743
0.14892205
0.14889548
0.1488682
0.14883989
0.14881039
0.14878
0.14874926
0.14871814
0.14868544
0.14865307
0.14862125
0.14858824
0.14855513
0.14852189
0.14848773
0.14845403
0.14842064
0.14838695
0.14835317
0.14831919
0.14828648
0.14825392
0.14822171
0.14819
0.14815863
0.14812756
0.14809708
0.14806702
0.14803746
0.14800854
0.14798012
0.14795248
0.14792574
0.14789965
0.14787447
0.1478503
0.14782692
0.1478046
0.14778301
0.14776217
0.14774236
0.1477232
0.14770508
0.14768817
0.14767215
0.14765735
0.14764358
0.14763092
0.14761926
0.147609
0.14759955
0.14759212
0.14758513
0.14758133
0.14757746
0.11619883
0.11764096
0.11909205
0.12053179
0.1219584
0.12336937
0.12476283
0.12613709
0.1274906
0.12882193
0.13012973
0.13141272
0.13266962
0.1338992
0.13510019
0.1362713
0.13741117
0.13851837
0.13959135
0.14062846
0.14162785
0.14258745
0.14350496
0.14437781
0.14520315
0.14597777
0.14669809
0.14736007
0.14795926
0.1484907
0.14894896
0.14932815
0.14962187
0.14982218
0.14992035
0.14992498
0.14983684
0.14963294
0.14934564
0.14901273
0.14867907
0.14839473
0.14820153
0.14810986
0.14809938
0.14813828
0.14819645
0.14826162
0.14833133
0.14840078
0.14846517
0.14852441
0.14857815
0.14862357
0.14866353
0.14869966
0.14873107
0.14875855
0.14878282
0.14879948
0.14881414
0.14882875
0.14883356
0.14883448
0.14883539
0.14883611
0.14883495
0.14882507
0.14881398
0.14880159
0.14878713
0.14877224
0.14875381
0.14873326
0.14871292
0.14869058
0.14866668
0.14864224
0.14861663
0.1485907
0.14856319
0.14853537
0.14850813
0.14847948
0.14845037
0.14842112
0.14839065
0.14836051
0.14833076
0.14830026
0.14826962
0.14823869
0.1482088
0.14817909
0.14814952
0.14812032
0.14809135
0.1480626
0.14803428
0.14800633
0.14797876
0.14795172
0.14792514
0.14789921
0.1478741
0.14784958
0.14782586
0.14780307
0.147781
0.14775994
0.14773953
0.14771979
0.14770105
0.14768286
0.14766563
0.14764956
0.14763432
0.14762022
0.14760709
0.14759501
0.14758387
0.14757405
0.147565
0.14755786
0.14755113
0.14754748
0.14754372
0.11603303
0.11743319
0.11884183
0.12024095
0.1216288
0.12300296
0.12436161
0.12570312
0.12702601
0.12832882
0.12961016
0.13086864
0.13210289
0.13331152
0.13449309
0.13564611
0.13676902
0.13786015
0.13891774
0.13993987
0.14092444
0.14186909
0.14277125
0.14362803
0.14443626
0.14519241
0.14589254
0.14653229
0.14710688
0.1476111
0.14803939
0.14838599
0.14864487
0.14880761
0.1488676
0.14884177
0.14871961
0.14849629
0.14821924
0.14793145
0.14768202
0.14750914
0.14743731
0.14744465
0.14749968
0.14758449
0.14767574
0.14777284
0.14786767
0.14795772
0.14804111
0.14811787
0.14818782
0.14824997
0.14830584
0.14835657
0.14840208
0.14844286
0.14847928
0.14850947
0.14853608
0.14855977
0.14857652
0.14858928
0.14859957
0.14860932
0.1486164
0.14861675
0.14861359
0.14860747
0.14860131
0.14859451
0.14858319
0.14856851
0.14855545
0.14853895
0.14852057
0.14850234
0.14848191
0.14846117
0.148439
0.14841575
0.1483931
0.1483689
0.1483438
0.14831862
0.14829192
0.14826534
0.14823929
0.14821202
0.14818455
0.14815676
0.14812974
0.14810291
0.14807604
0.14804937
0.14802285
0.14799645
0.14797033
0.14794452
0.14791899
0.14789385
0.14786914
0.14784496
0.14782151
0.14779859
0.14777634
0.14775496
0.14773424
0.14771445
0.14769525
0.14767661
0.14765896
0.14764178
0.14762545
0.14761023
0.14759579
0.14758241
0.14756992
0.14755843
0.14754783
0.14753846
0.1475298
0.14752297
0.14751649
0.147513
0.14750934
0.11593901
0.11729687
0.11866184
0.12001711
0.1213623
0.12269549
0.1240151
0.12531962
0.12660761
0.12787761
0.12912819
0.13035787
0.13156516
0.13274851
0.13390632
0.13503691
0.1361385
0.1372092
0.13824702
0.13924976
0.14021507
0.14114031
0.14202257
0.14285869
0.14364513
0.14437803
0.14505309
0.14566563
0.14621056
0.14668247
0.14707581
0.14738528
0.14760611
0.14772862
0.1477547
0.14770104
0.14755082
0.1473316
0.14709428
0.14688567
0.14674697
0.14669803
0.14673077
0.14681077
0.14691817
0.14703927
0.14716497
0.14728802
0.14740483
0.14751434
0.14761598
0.14770987
0.14779609
0.14787442
0.1479458
0.1480111
0.14807058
0.14812463
0.14817343
0.14821633
0.14825475
0.14828906
0.14831725
0.14834085
0.14836146
0.14837974
0.14839436
0.14840487
0.14841008
0.14841183
0.14841299
0.1484142
0.14840983
0.14840152
0.14839594
0.14838491
0.14837206
0.14836038
0.14834514
0.14832952
0.14831289
0.14829423
0.14827612
0.14825651
0.14823545
0.14821436
0.14819153
0.14816852
0.14814621
0.14812224
0.14809797
0.14807341
0.14804929
0.14802539
0.14800124
0.14797713
0.14795311
0.1479291
0.14790521
0.14788159
0.14785811
0.14783492
0.14781211
0.14778971
0.14776794
0.14774665
0.14772591
0.14770595
0.1476866
0.14766811
0.14765015
0.14763264
0.14761609
0.14759992
0.14758452
0.14757018
0.14755654
0.14754389
0.14753207
0.14752118
0.14751112
0.1475022
0.14749395
0.14748743
0.14748122
0.14747788
0.14747432
0.11590715
0.11722097
0.11854138
0.11985015
0.12114915
0.12243768
0.12371456
0.12497843
0.12622784