/*--------------------------------*- C++ -*----------------------------------*\
| =========                 |                                                 |
| \\      /  F ield         | OpenFOAM: The Open Source CFD Toolbox           |
|  \\    /   O peration     | Version:  2406                                  |
|   \\  /    A nd           | Website:  www.openfoam.com                      |
|    \\/     M anipulation  |                                                 |
\*---------------------------------------------------------------------------*/
FoamFile
{
    version     2.0;
    format      ascii;
    arch        "LSB;label=32;scalar=64";
    class       volScalarField;
    location    "0.01";
    object      p;
}
// * * * * * * * * * * * * * * * * * * * * * * * * * * * * * * * * * * * * * //

dimensions      [1 -1 -2 0 0 0 0];

internalField   nonuniform List<scalar> 
2065
(
99486.861
99667.252
99856.646
100060.33
100267.4
100460.73
100632.47
100786.27
100927.57
101045.5
101134.97
101219.85
101327.82
101415.52
101412.93
101371.58
101260.03
100997.54
100648.32
100287.25
100007.66
100065.24
100329.82
100847.67
101299.32
101307.93
101121
100991.79
101006.8
101164.56
101185.61
101146.22
101074.87
101017.78
101179.01
101354.95
101332.17
101316.06
101267.67
101253.59
101263.78
101279.35
101272.49
101273.99
101279.21
101284.81
101292.65
101302.01
101310.96
101321.05
101333.6
101347.65
101359.83
101366.45
101365.93
101364.62
101358.38
101360.33
99485.348
99673.441
99876.591
100087.57
100292.01
100479.93
100638.07
100780.57
100907.57
101001.44
101081.82
101168.91
101276.35
101353.21
101339.96
101283.47
101146.38
100878.27
100606.67
100106.44
99947.947
99996.303
100332.67
100855.31
101250.75
101251.37
101069.64
100948.75
100972.18
101140.82
101159.28
101135.33
101078.03
101017.72
101180.82
101347.16
101319.33
101312.5
101268.66
101256.46
101263.77
101278.1
101272.74
101274.15
101279.73
101284.89
101292.79
101302.19
101311.12
101321.2
101333.72
101347.72
101359.85
101366.5
101365.88
101364.49
101358.42
101360.29
99282.665
99466.703
99683.856
99897.011
100121.4
100324.37
100500.19
100644.58
100767.31
100863.71
100919.09
100994.64
101074.25
101206.09
101267.36
101255.76
101188.59
101033.27
100787.66
100564.86
99982.67
99878.04
99954.085
100356.56
100871.9
101212.45
101192.29
101015.53
100904.43
100934.73
101116.61
101129.25
101130.83
101094.35
101010.77
101183.44
101338.57
101305.27
101309.21
101270.21
101260.2
101263.74
101276.73
101272.94
101274.29
101280.26
101284.97
101292.92
101302.36
101311.28
101321.35
101333.84
101347.79
101359.86
101366.56
101365.84
101364.35
101358.47
101360.25
99036.024
99205.914
99423.987
99664.097
99908.599
100137.84
100331.19
100494.29
100629.53
100706.64
100759.25
100788.17
100855.21
100956.79
101106.07
101173.6
101167.02
101095.62
100932.51
100727.64
100479.03
99887.934
99816.671
99942.582
100386.26
100878.25
101172.76
101133.41
100963.11
100859.04
100897.37
101096.14
101104.73
101142.94
101090.32
101012.81
101184.56
101328.93
101292.02
101306.15
101271.96
101263.64
101263.56
101275.25
101273.16
101274.45
101280.81
101285.03
101293.04
101302.53
101311.44
101321.5
101333.95
101347.86
101359.87
101366.62
101365.76
101364.23
101358.49
101360.21
98913.198
99090.809
99352.441
99632.716
99919.521
100137.47
100317
100443.87
100532.71
100586.86
100601.94
100624.63
100681.62
100831.95
100985.87
101074.82
101078.47
101007.91
100847.86
100663.11
100356.09
99861.143
99793.597
99932.991
100410.61
100874.99
101133.42
101075.92
100911.12
100813.1
100864.87
101075.88
101099.42
101167.67
101060.18
101026.71
101185.32
101315.44
101283.03
101303.48
101273.6
101267.37
101263.31
101273.65
101273.37
101274.65
101281.37
101285.07
101293.16
101302.69
101311.59
101321.64
101334.05
101347.91
101359.88
101366.68
101365.67
101364.12
101358.49
101360.16
98708.141
98799.84
98979.175
99260.57
99576.605
99867.058
100090.37
100246
100343.73
100397.47
100406.57
100372.6
100431.3
100483.04
100694.16
100862.93
100977.96
100995.21
100931.28
100796.27
100595.36
100240.01
99847.961
99785.41
99908.285
100427.91
100860.77
101100.36
101018.51
100859.67
100765.18
100841.12
101056.54
101106.28
101178.16
100993.05
101031.73
101185.59
101298.46
101277.78
101301.28
101277
101268.93
101263.15
101271.92
101273.57
101274.9
101281.94
101285.12
101293.26
101302.84
101311.75
101321.78
101334.14
101347.95
101359.88
101366.73
101365.59
101364.01
101358.46
101360.06
98591.325
98592.71
98666.132
98856.463
99169.221
99511.331
99779.459
99979.289
100123.06
100194.1
100203.92
100171.84
100126.58
100150.95
100285.37
100538.62
100745.4
100887.85
100922.95
100869.4
100753.21
100534.92
100158.3
99838.526
99770.974
99918.905
100444.36
100843.91
101074.62
100960.3
100810.42
100718.01
100823.56
101036.62
101111.53
101164.39
100971.52
101035.8
101186.4
101281.99
101272.29
101299.22
101283.02
101267.65
101263.19
101270.02
101273.78
101275.22
101282.47
101285.14
101293.37
101302.98
101311.9
101321.9
101334.22
101347.99
101359.89
101366.75
101365.54
101363.9
101358.39
101359.89
98470.19
98449.445
98511.295
98744.976
99131.718
99485.26
99664.564
99840.02
99975.054
100020.08
99982.645
99894.139
99880.571
99896.748
100106.04
100384.93
100636.29
100804.89
100866.32
100820.97
100718
100501.46
100100.52
99841.595
99754.481
99974.467
100463.22
100831.93
101050.92
100904.87
100766.23
100669.42
100808.64
101017.14
101115.92
101146.6
100983.48
101051.85
101189.12
101265.87
101266.44
101297.41
101289.57
101265.75
101263.48
101267.89
101273.97
101275.77
101282.75
101285.18
101293.47
101303.12
101312.04
101322.03
101334.28
101348.01
101359.88
101366.78
101365.49
101363.8
101358.25
101359.6
98423.068
98391.596
98439.403
98743.311
99088.656
99377.589
99620.993
99765.558
99837.635
99830.123
99740.253
99651.287
99617.95
99653.255
99943.773
100253.49
100542.72
100733.78
100821.88
100786.97
100703.44
100493.74
100070.8
99867.459
99783.438
100039.67
100486.08
100826.85
101021.92
100851.64
100728.85
100618.68
100795.79
100998.91
101121.04
101135.55
100996.23
101069.06
101192.09
101249.98
101260.5
101295.54
101296.71
101263.66
101264.13
101265.47
101274.16
101276.55
101282.98
101285.24
101293.56
101303.24
101312.18
101322.15
101334.34
101348.02
101359.87
101366.8
101365.45
101363.7
101358.05
101359.18
98489.498
98468.343
98475.86
98549.44
98766.921
99081.458
99372.947
99602.435
99701.716
99706.538
99637.288
99516.928
99447.331
99389.882
99460.002
99798.254
100147.24
100465.35
100686.91
100781.1
100778.51
100702.75
100501.82
100084.75
99921.126
99842.696
100104.25
100511.91
100825.54
101003.68
100801.84
100701.02
100562.35
100784.95
100984.9
101128.65
101128.85
101006.65
101085.57
101195.19
101234.4
101256.41
101292.64
101304.66
101261.84
101264.61
101263.4
101274.36
101277.38
101283.18
101285.32
101293.66
101303.35
101312.32
101322.25
101334.39
101348.02
101359.85
101366.82
101365.4
101363.61
101357.85
101358.62
98572.945
98566.578
98604.537
98745.999
98943.661
99174.707
99397.932
99538.424
99576.96
99559.601
99468.252
99357.61
99265.065
99197.01
99331.231
99673.717
100061.93
100409.28
100654.7
100747.12
100779.93
100714.37
100520.82
100149.72
100001.56
99919.09
100173.43
100541
100826.56
100996.29
100759
100664.04
100517.7
100776.26
100975.65
101139.04
101128.14
101017.78
101105.49
101198.98
101218.92
101254.47
101290.5
101311.38
101260.68
101264.68
101261.8
101274.58
101278.28
101283.4
101285.4
101293.76
101303.46
101312.45
101322.36
101334.43
101348
101359.82
101366.85
101365.34
101363.51
101357.67
101357.93
98751.303
98757.773
98817.478
98942.79
99110.308
99278.59
99419.626
99492.285
99514.108
99484.763
99372.197
99259.411
99141.993
99058.993
99245.389
99588.398
100001.02
100370.85
100625.24
100731.01
100775.63
100739.41
100559.49
100244.9
100105.05
100009.57
100245.4
100575.26
100831.77
100988.29
100726.87
100614.05
100490.55
100767.91
100969.23
101149.28
101132.42
101031.93
101129.37
101194.67
101209.56
101253.69
101289.79
101314.87
101264.16
101264.81
101260.67
101274.5
101279.29
101283.68
101285.46
101293.86
101303.56
101312.57
101322.45
101334.45
101347.97
101359.79
101366.88
101365.28
101363.4
101357.51
101357.18
99076.025
99068.097
99089
99169.863
99303.471
99410.317
99485.933
99523.614
99521.109
99452.002
99336.43
99200.976
99063.984
99005.243
99190.396
99540.818
99964.172
100348.52
100603.72
100731.82
100782.35
100768.02
100616.5
100352.43
100229.86
100109.14
100319.19
100616.16
100841.26
100977.28
100714.09
100570.96
100467.43
100759.32
100965.41
101157.86
101141.27
101053.14
101143.74
101181.64
101206.52
101253.57
101288.82
101315.94
101269.7
101264.88
101260.25
101273.93
101280.48
101283.94
101285.5
101293.94
101303.65
101312.69
101322.53
101334.47
101347.94
101359.75
101366.91
101365.21
101363.29
101357.38
101356.48
99443.624
99426.443
99437.485
99492.01
99555.932
99597.917
99617.92
99610.904
99566.19
99463.73
99337.742
99185.889
99034.388
99006.063
99173.289
99522.259
99945.758
100339.99
100595.91
100741.48
100807.94
100803.51
100686.25
100466.2
100351.81
100226.04
100402.78
100665.93
100853.66
100967.43
100719.87
100536.09
100449.13
100751.55
100963.42
101165.47
101152.43
101080.39
101148.4
101168.75
101203.59
101254.05
101288.07
101316.04
101274.03
101264.8
101260.1
101273.17
101281.9
101284.17
101285.52
101294.01
101303.74
101312.79
101322.6
101334.48
101347.89
101359.69
101366.94
101365.14
101363.17
101357.26
101355.86
99797.446
99782.41
99786.253
99804.784
99814.888
99810.923
99783.528
99727.972
99626.503
99499.634
99356.445
99180.121
99066.538
99031.224
99193.882
99527.237
99938.699
100338.96
100604.16
100754.17
100841.77
100848.2
100765.79
100581.19
100461.06
100363.6
100492.38
100724.34
100867.79
100963.06
100740.1
100507.87
100435.23
100743.73
100962.38
101173.32
101164.5
101105.83
101154.98
101154.68
101200.84
101255.3
101287.41
101316.47
101277.43
101264.59
101259.92
101272.58
101283.29
101284.47
101285.49
101294.07
101303.82
101312.88
101322.65
101334.48
101347.83
101359.63
101366.97
101365.07
101363.05
101357.15
101355.32
100092.35
100086.57
100079.86
100060.93
100020.17
99954.352
99858.849
99695.831
99548.703
99395.942
99206.549
99106.884
99074.197
99223.714
99549.587
99940.857
100343.15
100623.12
100773.62
100860.04
100898.72
100847.41
100695.63
100575.1
100499.02
100581.33
100791.44
100885.19
100960.99
100774.44
100483.94
100433.47
100734.35
100961.14
101182.82
101177.03
101130.02
101163.84
101147.08
101191.6
101256.59
101286.76
101317.06
101280.56
101264.32
101259.76
101272.14
101284.41
101284.87
101285.44
101294.11
101303.9
101312.97
101322.7
101334.47
101347.77
101359.57
101366.99
101364.99
101362.92
101357.05
101354.84
100351.52
100346.04
100331.21
100296.44
100230.64
100134.64
100000.23
99791.386
99606.201
99442.47
99294.469
99176.358
99143.137
99271.291
99586.474
99950.975
100350.93
100643.81
100797.27
100888.77
100938.79
100913
100800.69
100694.41
100626.41
100668.35
100863.54
100909.56
100964.95
100823.74
100461.29
100444.8
100724.34
100958.92
101194.85
101190.41
101153.36
101172.56
101148.44
101174.73
101257.8
101286.13
101317.73
101283.56
101264.03
101259.61
101271.76
101285.31
101285.36
101285.42
101294.13
101303.97
101313.05
101322.73
101334.45
101347.69
101359.49
101367.02
101364.92
101362.8
101356.95
101354.4
100554.92
100558.66
100549.62
100514.52
100438.24
100326.33
100160.16
99929.14
99695.147
99518.821
99403.204
99279.056
99223.721
99344.787
99628.726
99975.251
100365.91
100662.27
100821.07
100923.43
100973.36
100973.68
100896.74
100809.35
100746.46
100752.94
100935.52
100942.48
100971.99
100874.06
100456.78
100482.73
100715.03
100955.51
101208.33
101203.66
101175.83
101180.46
101151.94
101156.92
101258
101285.36
101318.39
101286.49
101263.77
101259.53
101271.42
101286.04
101285.92
101285.45
101294.14
101304.04
101313.12
101322.76
101334.42
101347.61
101359.41
101367.03
101364.85
101362.67
101356.86
101354
100719.59
100721.25
100700.07
100634.16
100521.04
100347.25
100110.49
99839.895
99655.851
99522.497
99402.549
99332.72
99440.343
99681.845
100016.8
100381.72
100672.05
100837.32
100946.41
101016.81
101029.11
100980.58
100911.67
100856.87
100843.05
100995.84
100981.03
100971.7
100895.07
100494.21
100535.31
100707.49
100950.59
101219.34
101217.68
101197.5
101189.03
101156.27
101143.26
101253.95
101284.32
101318.94
101289.35
101263.54
101259.52
101271.11
101286.66
101286.51
101285.5
101294.14
101304.1
101313.18
101322.77
101334.38
101347.53
101359.32
101367.04
101364.78
101362.54
101356.77
101353.62
101282.99
101319.37
101292.08
101263.36
101259.61
101270.85
101287.19
101287.15
101285.59
101294.13
101304.15
101313.23
101322.78
101334.33
101347.43
101359.22
101367.04
101364.71
101362.41
101356.69
101353.27
100012.32
100047.97
99646.359
99737.439
99855.551
99950.726
100027.6
100090.89
100138.35
100170.1
99717.313
99801.662
99904.987
100013.06
100094.56
100166.7
100225.03
100267.78
100295.27
99901.458
99985.214
100077.27
100166.94
100246.31
100310.66
100359.12
100398.29
100423.14
100104.96
100175.78
100244.38
100328.76
100399.25
100453.36
100496.63
100527.98
100549.99
100303.82
100357
100418
100502.34
100548.18
100593.46
100631.67
100659.34
100676.93
100490.76
100536
100599.69
100667.29
100700.43
100740.15
100765.22
100790.04
100802.59
100664.4
100702.73
100763.99
100832.33
100854.38
100873.69
100894.41
100913.87
100924.4
100823.89
100869.23
100920.1
100962.73
100983.41
101006.65
101020.99
101035.79
101045.89
100971.1
101019.59
101058.08
101090.68
101114.2
101135.27
101147.41
101155.81
101163.07
101100.93
101151.85
101186.26
101216.99
101237.31
101254.55
101264.08
101268.12
101273.65
101193.33
101243.42
101291.74
101321.1
101340.32
101357.58
101373.08
101380.41
101389.26
101276.73
101322.27
101374.08
101411.68
101446.12
101467.73
101479.51
101487.93
101496.58
101377.01
101421.44
101463.73
101501.54
101539.98
101565.6
101582.73
101594.6
101603.4
101459.69
101499.84
101536.86
101582.36
101624.34
101658.38
101684.9
101704.05
101719.24
101477.99
101545.45
101606.35
101651.4
101688.85
101727.19
101765.94
101793.83
101816.44
101454.31
101529.91
101597
101657.79
101724.79
101769.3
101801.94
101837.19
101863.21
101361.09
101431.98
101499.6
101575.79
101649.17
101714.46
101758.92
101809.57
101845.66
101096.12
101161.27
101224.54
101305.14
101402.82
101505.84
101567.65
101622.93
101667.59
100687.56
100724.5
100804.53
100898.86
100994
101087.82
101170.25
101238.94
101292.91
100402.13
100411.23
100425.14
100481.07
100546.44
100648.51
100755.52
100831.64
100884.69
100047.18
100104.3
100143.98
100232.49
100404.51
100525.8
100574.98
100596.44
100616.99
100133.72
100228.21
100339.41
100396.96
100403.39
100444.09
100534.3
100637.79
100709.73
100342.61
100383.75
100433.34
100541.67
100719.84
100908.91
101047.23
101146.21
101215.8
100898.52
101011.31
101111.26
101207.63
101319.72
101423.2
101516.79
101590.75
101644.96
101356.7
101404.22
101462.79
101537.06
101604.47
101656.48
101693.07
101713.03
101726.9
101352.04
101388.45
101428.42
101470.82
101509.91
101540.02
101562.29
101575.69
101583.42
101160.28
101192.11
101230.76
101268.77
101305.91
101336.66
101360.79
101377.35
101388.76
101030.39
101061.22
101098.09
101137.5
101175.63
101208.71
101235.37
101255.88
101272.26
101043.68
101076.81
101114.62
101153.43
101190.78
101224.87
101254.54
101278.03
101294.6
101192.09
101222.74
101257.44
101293.35
101329.75
101365.22
101399.33
101433.24
101461.07
101210.16
101236.37
101269.44
101300.44
101330.84
101376.96
101418.94
101451.23
101479.8
101157.97
101168.11
101178.68
101190.49
101203.08
101215.93
101228.26
101238.29
101245.49
101066.99
101050.92
101034.63
101023.71
101019.03
101019.39
101023.46
101030.23
101038.19
101016.32
101020.47
101024.35
101029.32
101035.27
101041.09
101046.43
101051.52
101055.62
101183.31
101193.38
101203.65
101214.51
101224.98
101235.37
101244.45
101251.3
101256.11
101364.78
101373.21
101381.97
101390.83
101399.44
101407.53
101414.51
101420.14
101424.33
101344.19
101349.36
101358.12
101366.97
101375.05
101381.68
101386.46
101389.62
101391.36
101319.04
101320.56
101322.14
101323.79
101325.23
101326.3
101326.97
101327.3
101327.45
101266.31
101264.54
101262.74
101261.01
101259.51
101258.3
101257.33
101256.56
101255.99
101251.09
101248.82
101246.28
101243.7
101241.24
101238.94
101236.92
101235.21
101233.91
101263.92
101264.41
101265.02
101265.74
101266.48
101267.16
101267.71
101268.1
101268.34
101280.56
101281.76
101283.09
101284.48
101285.41
101285.89
101286.3
101286.59
101286.71
101272.3
101271.87
101271.04
101270.72
101270.92
101271.53
101272.37
101273.07
101273.54
101273.86
101273.78
101273.67
101273.52
101273.35
101273.19
101273.07
101272.97
101272.89
101278.82
101278.56
101278.25
101277.92
101277.62
101277.36
101277.18
101277.05
101276.97
101284.78
101284.85
101284.93
101285.01
101285.09
101285.17
101285.24
101285.3
101285.34
101292.59
101292.62
101292.67
101292.73
101292.81
101292.89
101292.95
101292.98
101293
101301.9
101301.9
101301.88
101301.86
101301.83
101301.81
101301.8
101301.81
101301.82
101310.86
101310.86
101310.86
101310.86
101310.85
101310.84
101310.83
101310.83
101310.83
101320.95
101320.94
101320.94
101320.93
101320.93
101320.95
101320.97
101320.98
101320.99
101333.52
101333.54
101333.57
101333.61
101333.63
101333.66
101333.68
101333.7
101333.71
101347.6
101347.63
101347.67
101347.71
101347.76
101347.8
101347.83
101347.85
101347.87
101359.82
101359.87
101359.91
101359.94
101359.96
101359.97
101360
101360.03
101360.05
101366.4
101366.35
101366.31
101366.28
101366.26
101366.25
101366.24
101366.21
101366.19
101365.96
101365.98
101366.01
101366.04
101366.07
101366.09
101366.1
101366.1
101366.1
101364.72
101364.79
101364.87
101364.95
101365.03
101365.1
101365.14
101365.17
101365.18
101358.35
101358.32
101358.3
101358.27
101358.25
101358.24
101358.24
101358.26
101358.27
101360.33
101360.32
101360.28
101360.22
101360.14
101360.06
101359.97
101359.88
101359.69
100065.11
100072.83
100078.84
100083.32
100087
100087.93
100184.51
100190.76
100196.73
100201.02
100203.9
100204.56
100306.51
100312.25
100317.44
100321.1
100323.52
100324.04
100431.73
100436.47
100440.85
100443.2
100446.05
100446.77
100559.83
100561.95
100564.01
100566.43
100568.85
100570.29
100683.52
100685.35
100686.64
100687.27
100687.47
100686.16
100806.14
100807.32
100806.23
100805.05
100804.86
100802.64
100926.73
100926.83
100925.57
100924.24
100924.39
100923.1
101047.37
101046.4
101044.43
101042.79
101042.73
101041.44
101163.84
101160.84
101158.64
101157.05
101156.59
101155.79
101273.8
101270.28
101270.84
101270.88
101273.33
101272.67
101392.42
101391.34
101390.42
101387.88
101387.23
101386.8
101499.12
101497.8
101497.62
101496.79
101496.73
101496.5
101605.77
101604.26
101604.44
101603.88
101603.8
101604.4
101729.64
101736.24
101742.85
101747.08
101749.2
101750.42
101834.71
101848.78
101859.04
101866.13
101870.49
101873.87
101881.06
101893.29
101901.84
101905.9
101908.09
101909.35
101868.56
101887.81
101903.1
101919.01
101929.64
101941.67
101703.45
101745.27
101776.04
101802.61
101826.76
101842.14
101337.45
101380.22
101417.9
101450.94
101476.42
101490.25
100926.66
100964.21
100982.9
100987.26
100990.47
100994.73
100634.82
100648.49
100668.64
100691.09
100704.44
100710.91
100763.28
100800.25
100830.68
100854.89
100871.05
100877.16
101254.68
101278.68
101295.87
101307.3
101314.07
101314.53
101675.61
101692.68
101704.14
101708.87
101711.02
101707.16
101732.89
101734.5
101734.97
101733.49
101731.71
101728.6
101586.72
101588.9
101590.42
101590.57
101589.98
101589.34
101396.85
101403.33
101408.02
101410.9
101412.37
101412.57
101285.94
101298.19
101308.45
101316.93
101323.44
101325.79
101305.89
101314.32
101321.56
101328.91
101334.85
101341.8
101484.14
101507.47
101528.08
101548.51
101561.4
101585.91
101503.98
101525.32
101544.51
101564.25
101580.92
101606.58
101251.24
101256.78
101261.62
101266.13
101269.95
101272.99
101049.78
101060.34
101069.07
101075.54
101078.22
101080.15
101058.56
101060.6
101062.06
101062.74
101063
101063.12
101258.72
101259.84
101260.48
101260.67
101260.49
101260.24
101427.13
101428.89
101429.65
101429.62
101429.28
101428.35
101392.73
101394.12
101394.91
101395.37
101395.6
101395.6
101327.67
101328.12
101328.58
101329.01
101329.38
101329.58
101255.83
101256.03
101256.41
101257.03
101257.64
101257.96
101233.02
101232.35
101231.91
101231.66
101231.52
101231.46
101268.45
101268.45
101268.43
101268.4
101268.37
101268.36
101286.68
101286.6
101286.45
101286.2
101285.92
101285.7
101273.95
101274.28
101274.52
101274.67
101274.74
101274.76
101272.84
101272.81
101272.78
101272.77
101272.77
101272.76
101276.91
101276.86
101276.83
101276.81
101276.81
101276.81
101285.37
101285.38
101285.38
101285.38
101285.38
101285.37
101293
101292.99
101292.98
101292.97
101292.97
101292.96
101301.82
101301.82
101301.81
101301.81
101301.81
101301.81
101310.84
101310.82
101310.82
101310.81
101310.81
101310.81
101320.99
101320.98
101320.97
101320.97
101320.96
101320.96
101333.72
101333.71
101333.7
101333.69
101333.69
101333.69
101347.89
101347.88
101347.88
101347.88
101347.87
101347.87
101360.06
101360.07
101360.07
101360.07
101360.07
101360.07
101366.17
101366.14
101366.11
101366.08
101366.06
101366.06
101366.1
101366.09
101366.09
101366.08
101366.08
101366.07
101365.19
101365.2
101365.2
101365.2
101365.2
101365.2
101358.29
101358.3
101358.31
101358.32
101358.32
101358.32
101359.62
101359.55
101359.48
101359.43
101359.39
101359.38
)
;

boundaryField
{
    Side1
    {
        type            empty;
    }
    Inlet
    {
        type            totalPressure;
        rho             rho;
        psi             none;
        gamma           1;
        p0              nonuniform List<scalar> 0();
        value           nonuniform List<scalar> 0();
    }
    Side2
    {
        type            empty;
    }
    Outlet
    {
        type            freestreamPressure;
        freestreamValue uniform 101325;
        value           nonuniform List<scalar> 
35
(
101325
101325
101325
101325
101325
101325
101325
101325
101325
101325
101325
101325
101325
101325
101325
101325
101325
101325
101325
101325
101325
101325
101325
101325
101325
101325
101325
101325
101325
101325
101325
101325
101325
101325
101325
)
;
    }
    Botwall
    {
        type            zeroGradient;
    }
    Cyli
    {
        type            zeroGradient;
    }
    procBoundary1to0
    {
        type            processor;
        value           nonuniform List<scalar> 
44
(
99306.431
99553.905
99311.549
99311.549
99127.101
99127.101
98929.191
98810.201
98810.201
98693.309
98693.309
98618.598
98512.479
98457.629
98457.629
98530.91
98613.026
98785.293
99110.204
99469.437
100106.33
99810.226
100106.33
100355.58
100547.19
100707.2
100707.2
99890.606
99928.563
99493.827
99588.359
99702.416
99806.1
99892.015
99960.081
99960.081
99553.905
99553.905
99948.982
99957.579
99964.15
99968.858
99972.974
99975.148
)
;
    }
    procBoundary1to3
    {
        type            processor;
        value           nonuniform List<scalar> 
62
(
100835.58
100846.04
100839.35
100793.96
100696.88
100533.59
100304.34
100046.03
99828.532
99655.287
99527.929
99468.957
99555.316
99746.309
100066.45
100402.39
100671.88
100847.07
100960.45
101046.45
101074.96
101050.99
101001.58
100956.94
100929.82
101039.9
101022.15
100963.32
100897.42
100555.73
100591.32
100706.11
100943.67
101225.48
101233.74
101218.6
101198.35
101160.83
101137.52
101246
101246
101281.36
101319.7
101294.71
101263.17
101259.78
101270.62
101287.68
101287.8
101285.71
101294.11
101304.19
101313.27
101322.77
101334.28
101347.33
101359.12
101367.01
101364.65
101362.29
101356.61
101352.94
)
;
    }
}


// ************************************************************************* //
