/*--------------------------------*- C++ -*----------------------------------*\
| =========                 |                                                 |
| \\      /  F ield         | OpenFOAM: The Open Source CFD Toolbox           |
|  \\    /   O peration     | Version:  2406                                  |
|   \\  /    A nd           | Website:  www.openfoam.com                      |
|    \\/     M anipulation  |                                                 |
\*---------------------------------------------------------------------------*/
FoamFile
{
    version     2.0;
    format      ascii;
    arch        "LSB;label=32;scalar=64";
    class       surfaceScalarField;
    location    "0.002";
    object      phi;
}
// * * * * * * * * * * * * * * * * * * * * * * * * * * * * * * * * * * * * * //

dimensions      [1 0 -1 0 0 0 0];

oriented        oriented;

internalField   nonuniform List<scalar> 
46078
(
0.00010362028
0.14002612
7.8895125e-05
0.14277494
5.3181229e-05
0.14558914
2.6963182e-05
0.14846003
0.15139397
0.00032561545
0.10908671
0.00031285181
0.11119452
0.00029978873
0.11334187
0.00028633661
0.11552937
0.00027241764
0.11775783
0.00025790843
0.12002969
0.00024264862
0.12234736
0.00022645646
0.12471246
0.00020921815
0.12712679
0.00019080302
0.12959467
0.00017107833
0.13211383
0.00014999536
0.13468704
0.00012760891
0.13731591
0.00010394237
0.1400052
7.9141241e-05
0.14275328
5.3334806e-05
0.14556679
2.7042311e-05
0.1484367
0.15137013
0.00058888953
0.075829974
0.00057555963
0.077290554
0.00056191761
0.0787806
0.00054739233
0.080300701
0.00053299967
0.081850061
0.00051891324
0.083429117
0.00050419316
0.085039712
0.0004894675
0.086681825
0.00047484099
0.088355871
0.00046033922
0.090062559
0.00044600529
0.091802734
0.00043188939
0.093577251
0.00041802627
0.095386905
0.00040443243
0.097232432
0.00039112643
0.09911435
0.00037809331
0.10103291
0.00036527777
0.10298845
0.00035260548
0.10498121
0.00033997815
0.10701146
0.00032728662
0.10907973
0.00031441335
0.11118663
0.00030123654
0.11333302
0.00028766225
0.11551946
0.00027361708
0.11774672
0.00025897782
0.12001732
0.00024358856
0.1223337
0.00022727741
0.12469751
0.00020993084
0.12711055
0.00019141174
0.12957722
0.00017160112
0.13209529
0.00015043273
0.13466755
0.00012796897
0.13729554
0.00010423283
0.13998406
7.9355757e-05
0.1427314
5.3475493e-05
0.14554421
2.7110631e-05
0.14841313
0.15134606
-0.00062432276
0.039720435
-0.00053766609
0.040570862
-0.00045233649
0.041432975
-0.00036839639
0.042307059
-0.0002859135
0.043193413
-0.00020495171
0.044092364
-0.00012558356
0.045004266
-4.7886619e-05
0.045929494
2.805694e-05
0.046868444
0.00010214928
0.04782154
0.00017428341
0.048789232
0.00024432934
0.049772004
0.00031213659
0.050770384
0.00037750907
0.051784953
0.0004402084
0.052816368
0.00049990707
0.05386533
0.0005560708
0.05493258
0.00060777741
0.056018718
0.0006532048
0.057123663
0.00068734779
0.058244375
0.00069852963
0.05935936
0.00069315913
0.060443792
0.0006891653
0.061556992
0.00068522617
0.062719598
0.00068038963
0.063913098
0.00067451518
0.065132608
0.00066749302
0.066377601
0.00065947885
0.067648248
0.00065045674
0.068945062
0.00064050593
0.070267891
0.0006299392
0.071617797
0.00061826448
0.072994755
0.00060564972
0.074398835
0.00059271915
0.075831074
0.00057933862
0.077291709
0.00056486196
0.078782579
0.00055065852
0.080302073
0.00053675066
0.081850799
0.00052204413
0.083430348
0.00050725449
0.085040693
0.00049244712
0.086682519
0.00047772076
0.088356187
0.00046310102
0.09006246
0.00044864695
0.091802153
0.00043441302
0.09357612
0.00042042594
0.095385178
0.0004067107
0.097230058
0.0003932851
0.099111272
0.00038013332
0.10102908
0.00036720741
0.10298384
0.00035442785
0.10497579
0.00034169225
0.10700521
0.00032889399
0.10907261
0.00031590997
0.11117861
0.00030261925
0.11332403
0.00028892676
0.11550941
0.0002747568
0.11773548
0.00025998404
0.12000482
0.00024446755
0.1223199
0.00022804305
0.12468242
0.00021058655
0.12709416
0.00019196568
0.1295596
0.00017206125
0.13207657
0.00015081166
0.13464787
0.00012827985
0.13727496
0.00010448869
0.1399627
7.9541394e-05
0.14270932
5.3592416e-05
0.14552144
2.7156611e-05
0.14838937
0.15132175
-0.0038812337
0.017281758
-0.0037986307
0.017758776
-0.0037141995
0.018246049
-0.0036280448
0.01874366
-0.0035402682
0.019251712
-0.0034509719
0.019770319
-0.0033602628
0.020299595
-0.0032682425
0.020839646
-0.003175018
0.021390572
-0.0030806959
0.021952467
-0.0029853827
0.022525417
-0.0028891867
0.023109492
-0.0027922155
0.023704752
-0.0026945757
0.02431125
-0.0025963738
0.024929022
-0.0024977175
0.025558093
-0.0023987092
0.026198473
-0.0022994546
0.026850164
-0.002200056
0.027513152
-0.0021006133
0.02818741
-0.002001227
0.028872906
-0.0019019917
0.029569592
-0.0018030048
0.03027742
-0.0017043568
0.030996335
-0.0016061391
0.031726278
-0.0015084402
0.032467199
-0.0014113438
0.033219051
-0.0013149344
0.033981797
-0.0012192919
0.034755421
-0.0011244962
0.035539926
-0.0010306249
0.036335342
-0.00093775521
0.037141732
-0.00084596393
0.037959197
-0.0007553201
0.038787878
-0.00066587574
0.039627934
-0.00057769827
0.040479509
-0.00049086281
0.041342839
-0.00040543624
0.042218197
-0.00032148268
0.043105881
-0.00023907238
0.044006223
-0.00015827448
0.044919573
-7.9165646e-05
0.045846315
-1.8259739e-06
0.046786849
7.3653839e-05
0.047741606
0.0001471731
0.048711045
0.00021861437
0.049695668
0.00028784407
0.05069602
0.00035468981
0.051712713
0.00041894749
0.052746452
0.00048031972
0.053798012
0.00053835269
0.054868309
0.00059230807
0.055958243
0.00064071506
0.05706845
0.00067972236
0.058198337
0.00069818374
0.059333644
0.00069525981
0.060439115
0.00069128081
0.061553005
0.00068755894
0.062715015
0.00068296506
0.063909039
0.00067729445
0.065129268
0.000670455
0.066375064
0.00066257089
0.067646387
0.00065368608
0.06894383
0.00064382322
0.070267265
0.00063323049
0.071617537
0.00062192518
0.072994882
0.00060962918
0.074399486
0.00059618509
0.075832569
0.0005819318
0.077293696
0.00056822941
0.078783599
0.00055458248
0.080302763
0.00053997689
0.081852094
0.00052517924
0.083431509
0.00051029412
0.085041624
0.00049538471
0.086683164
0.00048054694
0.088356457
0.00046580881
0.090062316
0.00045123123
0.091801528
0.00043687806
0.093574933
0.00042276759
0.095383393
0.00040892443
0.097227624
0.00039537633
0.09910812
0.00038210723
0.10102517
0.00036907004
0.10297913
0.00035618136
0.10497026
0.00034333947
0.10699885
0.00033043723
0.10906538
0.00031734477
0.11117047
0.0003039413
0.11331493
0.00029013049
0.11549925
0.00027583436
0.11772414
0.00026093471
0.11999222
0.00024529268
0.12230599
0.00022875555
0.12466719
0.00021119287
0.12707763
0.0001924711
0.12954184
0.00017246988
0.13205771
0.0001511559
0.13462802
0.00012856792
0.1372542
0.00010471967
0.13994117
7.9714629e-05
0.14268707
5.3703125e-05
0.1454985
2.7204842e-05
0.14836545
0.15129727
-0.0039343191
0.017201509
-0.0038532341
0.017676424
-0.0037701812
0.018161703
-0.0036852681
0.018657426
-0.0035986008
0.019163697
-0.0035102858
0.019680628
-0.0034204257
0.02020833
-0.0033291285
0.020746913
-0.0032365006
0.021296478
-0.0031426498
0.021857119
-0.0030476823
0.022428919
-0.0029517091
0.023011954
-0.0028548374
0.02360628
-0.0027571763
0.024211951
-0.0026588345
0.024829003
-0.0025599193
0.02545746
-0.002460541
0.026097334
-0.002360805
0.026748622
-0.002260818
0.027411311
-0.0021606841
0.028085373
-0.0020605082
0.028770774
-0.0019603934
0.029467467
-0.001860439
0.030175397
-0.0017607422
0.030894509
-0.0016614029
0.031624746
-0.0015625143
0.03236605
-0.0014641694
0.033118375
-0.0013664592
0.033881681
-0.0012694733
0.03465595
-0.0011732985
0.035441183
-0.00107802
0.036237407
-0.00098372236
0.037044684
-0.00089048906
0.037863114
-0.0007983914
0.038692827
-0.00070748302
0.03953396
-0.0006178424
0.040386684
-0.00052955089
0.041251236
-0.00044267634
0.042127877
-0.00035729139
0.043016907
-0.00027346484
0.043918653
-0.00019126894
0.04483347
-0.00011077667
0.045761741
-3.2068722e-05
0.046703871
4.477236e-05
0.047660294
0.00011965179
0.048631481
0.00019246449
0.049617942
0.00026308495
0.050620244
0.00033136382
0.051639017
0.00039712029
0.052675008
0.00046009992
0.053729058
0.00051992357
0.054802214
0.00057598803
0.055895616
0.00062708279
0.057010498
0.00067035504
0.058147968
0.00069621853
0.059300483
0.00069733005
0.060430362
0.00069338199
0.061548934
0.00068987996
0.06271015
0.0006855245
0.063904676
0.00068005053
0.065125662
0.00067339123
0.066372274
0.00066563662
0.067644318
0.00065687421
0.068942393
0.000647076
0.070266487
0.00063643965
0.071617231
0.00062497778
0.072995052
0.00061207412
0.074400674
0.00059878348
0.075833759
0.00058568179
0.077294416
0.00057187711
0.078784665
0.0005575304
0.080303993
0.00054301936
0.081853133
0.00052826718
0.083432491
0.00051327633
0.08504252
0.00049826943
0.086683759
0.00048331116
0.088356694
0.0004684511
0.090062137
0.0004537536
0.091800861
0.00043927595
0.093573705
0.00042503996
0.095381561
0.00041107314
0.097225135
0.0003974022
0.099104907
0.00038401421
0.10102118
0.00037086235
0.10297434
0.00035786518
0.10496465
0.00034491742
0.10699239
0.00033190977
0.10905805
0.00031870989
0.11116224
0.00030519456
0.11330573
0.00029126701
0.11548898
0.00027684759
0.1177127
0.00026181922
0.11997952
0.00024605733
0.12229199
0.00022940927
0.12465186
0.00021174149
0.12706099
0.00019292028
0.12952396
0.00017284112
0.13203871
0.00015144837
0.13460804
0.00012881005
0.13723329
0.00010491176
0.13991949
7.9855697e-05
0.14266468
5.3775762e-05
0.14547544
2.7236127e-05
0.14834138
0.15127263
-0.0039825512
0.017123109
-0.0039031898
0.017595797
-0.0038217194
0.01807894
-0.0037382522
0.01857264
-0.0036528933
0.019076991
-0.0035657539
0.019592113
-0.0034769391
0.020118111
-0.0033865568
0.020655097
-0.0032947144
0.021203171
-0.0032015186
0.021762426
-0.0031070809
0.022332951
-0.0030115069
0.022914815
-0.0029149082
0.02350808
-0.0028173951
0.024112799
-0.0027190776
0.024729007
-0.0026200675
0.025356731
-0.0025204736
0.025995978
-0.0024204067
0.026646748
-0.0023199773
0.027309027
-0.0022192953
0.027982786
-0.0021184674
0.028667989
-0.0020176015
0.029364589
-0.0019168043
0.03007253
-0.0018161817
0.030791755
-0.0017158342
0.031522203
-0.0016158658
0.032263819
-0.0015163767
0.033016551
-0.001417465
0.033780359
-0.0013192263
0.034555222
-0.0012217573
0.035341141
-0.0011251515
0.03613814
-0.0010295006
0.036946278
-0.0009348909
0.03776565
-0.00084139513
0.038596371
-0.00074908344
0.039438576
-0.00065803867
0.040292448
-0.00056833994
0.041158219
-0.0004800679
0.04203615
-0.00039329336
0.042926534
-0.0003080902
0.043829697
-0.00022453037
0.044745992
-0.00014268712
0.045675803
-6.263719e-05
0.046619538
1.5537433e-05
0.047577634
9.1748663e-05
0.048550569
0.00016589915
0.049538861
0.00023787857
0.050543089
0.00030755112
0.051563906
0.00037475777
0.052602089
0.00043927805
0.053658536
0.00050079823
0.054734391
0.00055881202
0.055831001
0.0006123679
0.056950038
0.00065942347
0.058093753
0.00069239825
0.059260166
0.0006992238
0.060415858
0.00069546866
0.06154462
0.00069219609
0.062704997
0.00068807227
0.063900017
0.00068278556
0.065121802
0.00067629993
0.06636924
0.00066867499
0.067642044
0.00066002119
0.068940767
0.00065027712
0.070265569
0.00063964644
0.071616829
0.00062815921
0.072995137
0.00061600704
0.074401018
0.00060344754
0.075834141
0.00058970027
0.077295691
0.00057504167
0.07878648
0.00056061306
0.080305152
0.00054621856
0.081853924
0.00053128671
0.083433521
0.00051619347
0.085043383
0.00050108949
0.08668431
0.00048601004
0.088356905
0.0004710288
0.09006193
0.00045621225
0.09180016
0.00044160654
0.093572446
0.00042724454
0.095379691
0.00041315368
0.0972226
0.00039935602
0.099101645
0.0003858448
0.10101714
0.00037257971
0.10296948
0.00035947178
0.10495895
0.00034642076
0.10698585
0.00033330869
0.10905063
0.00032000333
0.11115391
0.00030637697
0.11329645
0.00029233317
0.11547865
0.00027778887
0.11770119
0.00026263848
0.11996676
0.00024675701
0.12227791
0.00023000205
0.12463646
0.00021222913
0.12704428
0.00019331224
0.12950601
0.00017315343
0.13201963
0.00015169964
0.13458795
0.00012900441
0.13721228
0.00010506952
0.13989769
7.9970057e-05
0.14264218
5.3847949e-05
0.14545227
2.7262898e-05
0.14831721
0.15124788
-0.0040255626
0.01704675
-0.0039481144
0.017517085
-0.0038684297
0.017997965
-0.003786612
0.018489504
-0.0037027731
0.018991806
-0.0036170174
0.019504984
-0.0035294545
0.020029145
-0.0034401921
0.020564401
-0.0033493357
0.02111085
-0.0032569943
0.021668589
-0.0031632764
0.022237704
-0.0030682927
0.022818267
-0.0029721534
0.02341034
-0.0028749691
0.024013977
-0.002776854
0.024629215
-0.0026779181
0.025256076
-0.0025782771
0.025894575
-0.0024780439
0.026544707
-0.0023773303
0.027206458
-0.0022762506
0.027879801
-0.0021749175
0.028564698
-0.0020734428
0.029261101
-0.0019719402
0.029968955
-0.0018705182
0.0306882
-0.0017692875
0.031418775
-0.0016683583
0.032160624
-0.0015678364
0.032913692
-0.0014678286
0.033677939
-0.0013684389
0.03445334
-0.0012697721
0.035239897
-0.0011719266
0.036037629
-0.0010749994
0.03684659
-0.00097908332
0.037666874
-0.00088426042
0.038498582
-0.00079061148
0.039341849
-0.00069822125
0.040196859
-0.00060717599
0.041063848
-0.00051755643
0.041943069
-0.00042943994
0.04283481
-0.00034290142
0.043739396
-0.00025801568
0.044657179
-0.00017485758
0.04558854
-9.3500681e-05
0.046533886
-1.4024752e-05
0.047493661
6.348759e-05
0.048468343
0.00013894594
0.049458456
0.0002122481
0.050464593
0.00028327266
0.051487424
0.00035187845
0.052527747
0.00041787474
0.053586513
0.00048100038
0.054664934
0.00054084002
0.055764522
0.00059664486
0.056887285
0.00064697546
0.0580362
0.00068617122
0.059213569
0.00070025047
0.060394052
0.00069759018
0.061539169
0.00069451846
0.062699588
0.00069061222
0.063895081
0.00068551225
0.06511769
0.00067919058
0.066365973
0.0006716943
0.06763957
0.00066313271
0.068938972
0.00065345784
0.070264501
0.0006428813
0.071616284
0.00063146565
0.072995058
0.00061943825
0.074401165
0.00060637756
0.07583495
0.00059241548
0.077296983
0.00057869698
0.078787137
0.00056436166
0.080306157
0.00054934295
0.081855288
0.00053424451
0.083434599
0.0005190538
0.085044212
0.0005038435
0.086684831
0.00048864643
0.088357094
0.00047354254
0.090061702
0.00045860191
0.091799437
0.00044386516
0.09357117
0.00042937438
0.095377797
0.00041515678
0.097220034
0.00040123332
0.099098346
0.00038760123
0.10101306
0.0003742192
0.10296456
0.0003610018
0.1049532
0.00034784415
0.10697923
0.00033462906
0.10904313
0.00032121802
0.11114552
0.00030748256
0.1132871
0.00029332213
0.11546825
0.00027865816
0.11768964
0.00026338566
0.11995396
0.00024739028
0.12226379
0.00023052786
0.124621
0.00021265131
0.12702752
0.0001936416
0.129488
0.00017340434
0.13200048
0.00015188848
0.1345678
0.00012916203
0.13719118
0.00010519747
0.13987582
8.0056316e-05
0.14261963
5.3887521e-05
0.14542906
2.7272165e-05
0.14829298
0.15122306
-0.0041358556
0.016515145
-0.0040629537
0.016972614
-0.0039876162
0.017440486
-0.0039099262
0.017918986
-0.0038299786
0.018408241
-0.0037478784
0.018908363
-0.0036637279
0.019419461
-0.0035776356
0.019941651
-0.0034897045
0.020475039
-0.0034000466
0.02101973
-0.0033087667
0.021575814
-0.0032159747
0.022143383
-0.0031217813
0.02272251
-0.0030262967
0.023313256
-0.0029296352
0.023915678
-0.0028319087
0.024529811
-0.0027332334
0.025155683
-0.0026337227
0.025793303
-0.002533494
0.026442671
-0.0024326649
0.027103774
-0.0023313505
0.027776582
-0.0022296688
0.028461059
-0.002127738
0.029157156
-0.002025674
0.029864819
-0.0019235937
0.030583986
-0.001821615
0.031314598
-0.0017198509
0.032056594
-0.0016184182
0.032809921
-0.0015174299
0.033574536
-0.0014169987
0.034350415
-0.0013172326
0.035137552
-0.0012182406
0.035935969
-0.0011201276
0.036745715
-0.0010229882
0.037566871
-0.00092691569
0.03839954
-0.00083199806
0.039243848
-0.00073833091
0.040099989
-0.00064599798
0.040968184
-0.00055508665
0.04184869
-0.00046567913
0.042741789
-0.00037785347
0.043647801
-0.000291686
0.044567076
-0.00020725048
0.04549999
-0.00012462393
0.046446955
-4.3881641e-05
0.04740841
3.4897987e-05
0.048384836
0.00011162818
0.049376766
0.00018621438
0.050384797
0.00025854844
0.051409614
0.0003285029
0.052452037
0.00039591217
0.053513053
0.00046055619
0.054593932
0.00052210101
0.055696306
0.00057996805
0.05682243
0.00063315712
0.05797573
0.00067801802
0.059161221
0.00070034498
0.060363975
0.00069970738
0.061531666
0.0006968416
0.062693922
0.00069315016
0.063889873
0.00068823253
0.065113335
0.00068206888
0.066362483
0.0006746969
0.067636901
0.00066621536
0.068937023
0.00065662546
0.070263269
0.00064610581
0.071615597
0.000634651
0.072994928
0.0006225083
0.074401337
0.0006094248
0.075835669
0.00059599512
0.077297684
0.00058230647
0.078787711
0.00056731728
0.080307628
0.00055218002
0.081856606
0.00053713949
0.083435517
0.00052185232
0.085045012
0.00050652725
0.086685339
0.00049121427
0.088357267
0.00047598917
0.090061462
0.0004609191
0.091798707
0.00044604903
0.093569888
0.00043142666
0.095375892
0.00041708159
0.097217448
0.00040302927
0.099095025
0.00038927258
0.10100894
0.00037577388
0.10295961
0.00036244759
0.1049474
0.00034918543
0.10697257
0.00033586566
0.10903559
0.00032235041
0.11113707
0.00030850547
0.11327771
0.00029423043
0.11545783
0.00027944911
0.11767806
0.00026406217
0.11994113
0.00024795183
0.12224965
0.00023098369
0.12460553
0.00021300854
0.12701074
0.00019390935
0.12946998
0.0001735978
0.13198132
0.00015203202
0.13454761
0.00012926838
0.13717005
0.00010527453
0.13985391
8.0106581e-05
0.14259705
5.3906739e-05
0.14540584
2.7263605e-05
0.14826875
0.15119819
-0.004164806
0.016446102
-0.0040943405
0.016900917
-0.0040213364
0.017366224
-0.0039458654
0.01784223
-0.0038680134
0.018329076
-0.0037878758
0.018826885
-0.0037055565
0.019335772
-0.0036211572
0.019855853
-0.0035347843
0.020387237
-0.0034465426
0.020930028
-0.0033565419
0.021484321
-0.0032648895
0.022050205
-0.003171695
0.022627755
-0.0030770733
0.023217037
-0.0029811342
0.023818104
-0.0028839954
0.024430998
-0.0027857713
0.025055742
-0.0026865805
0.025692352
-0.0025865415
0.026340826
-0.0024857736
0.027001152
-0.0023843971
0.027673301
-0.0022825352
0.02835724
-0.0021803084
0.029052917
-0.0020778383
0.029760278
-0.0019752498
0.030479265
-0.0018726642
0.031209814
-0.0017702038
0.031951867
-0.0016679904
0.032705369
-0.0015661445
0.033470275
-0.0014647859
0.034246561
-0.0013640317
0.035034218
-0.0012639967
0.035833264
-0.0011647915
0.036643744
-0.0010665183
0.037465733
-0.00096928013
0.038299329
-0.00087317478
0.039144657
-0.00077829826
0.040001906
-0.00068474718
0.040871297
-0.00059260547
0.041753076
-0.0005019625
0.042647528
-0.00041290049
0.043554964
-0.00032549777
0.044475731
-0.00023983018
0.045410202
-0.00015597314
0.046358785
-7.4000964e-05
0.04732192
6.0063775e-06
0.048300091
8.3970887e-05
0.049293828
0.00015980211
0.050303742
0.00023340029
0.051330525
0.00030465053
0.052375012
0.00037341149
0.05343822
0.00043949428
0.054521465
0.00050263261
0.055626465
0.00056238884
0.056755649
0.00061807355
0.057912714
0.00066755009
0.059104188
0.00069861828
0.060325155
0.00070188109
0.061520239
0.00069916615
0.062688059
0.00069568553
0.063884401
0.00069095231
0.065108737
0.0006849415
0.066358778
0.00067769024
0.067634046
0.00066927839
0.068934933
0.00065978372
0.070261866
0.00064929484
0.071614798
0.00063787034
0.072994678
0.00062567227
0.074401474
0.00061285898
0.075836033
0.00059936334
0.07729836
0.00058512493
0.078788738
0.00057040498
0.080308759
0.00055532964
0.081857747
0.00053997492
0.0834366
0.00052458519
0.085045795
0.00050914128
0.086685845
0.00049370783
0.088357437
0.00047835913
0.09006122
0.00046316028
0.09179798
0.00044815642
0.093568612
0.00043339748
0.095373993
0.00041892001
0.097214862
0.00040474028
0.099091696
0.0003908605
0.10100481
0.00037724399
0.10295464
0.00036380614
0.10494157
0.00035043804
0.10696588
0.00033701467
0.10902802
0.00032339449
0.1111286
0.00030943999
0.1132683
0.00029505231
0.11544739
0.0002801581
0.11766648
0.00026466032
0.11992831
0.00024843999
0.12223553
0.00023136833
0.12459007
0.00021329294
0.12699399
0.00019410818
0.12945198
0.00017373782
0.13196216
0.00015212206
0.13452744
0.00012933455
0.13714892
0.00010532415
0.13983201
8.0126002e-05
0.1425745
5.3904251e-05
0.14538266
2.7255699e-05
0.14824455
0.15117335
-0.0041872346
0.016379828
-0.0041194332
0.016831888
-0.0040489811
0.017294518
-0.0039759488
0.017767916
-0.0039004153
0.018252234
-0.0038224689
0.018747601
-0.0037422067
0.019254144
-0.0036597294
0.01977198
-0.00357514
0.020301222
-0.0034885418
0.020841972
-0.0034000416
0.021394331
-0.0033097483
0.021958388
-0.0032177722
0.02253422
-0.0031242243
0.023121894
-0.0030292195
0.023721466
-0.0029328727
0.024332978
-0.0028353022
0.024956457
-0.002736628
0.02559192
-0.0026369686
0.026239363
-0.0025364491
0.026898781
-0.0024351938
0.027570144
-0.0023333254
0.028253416
-0.0022309728
0.028948553
-0.0021282632
0.029655498
-0.0020253235
0.030374193
-0.0019222841
0.031104578
-0.0018192722
0.031846589
-0.0017164164
0.032600175
-0.001613845
0.03336529
-0.0015116837
0.034141905
-0.0014100583
0.034930012
-0.0013090912
0.035729626
-0.0012088964
0.036540784
-0.0011095888
0.037363558
-0.0010112752
0.038198042
-0.00091406498
0.039044359
-0.00081806006
0.039902692
-0.00072335813
0.040773257
-0.00063005425
0.041656296
-0.00053823886
0.04255209
-0.00044799663
0.043460943
-0.00035940884
0.044383196
-0.00027255479
0.04531922
-0.00018751223
0.046269423
-0.00010435413
0.047234236
-2.3157897e-05
0.048214148
5.599801e-05
0.049209689
0.00013303169
0.050221473
0.00020784917
0.051250202
0.00028034509
0.052296725
0.00035039292
0.05336208
0.00041783741
0.054447614
0.00048246574
0.055555107
0.00054395616
0.056687101
0.00060183513
0.057847458
0.00065502593
0.059043373
0.00069442828
0.060277979
0.00070386901
0.061502617
0.00070153964
0.062681769
0.00069822665
0.063878712
0.00069367325
0.065103905
0.00068781486
0.066354862
0.00068067558
0.067631017
0.00067233362
0.068932707
0.00066292185
0.07026031
0.00065244666
0.07161391
0.00064106718
0.072994302
0.00062881027
0.074401586
0.00061590512
0.075836405
0.00060235531
0.077298996
0.0005879909
0.078789789
0.00057324588
0.080309842
0.00055813738
0.081858831
0.00054274124
0.083437594
0.00052725264
0.085046566
0.0005116867
0.08668636
0.0004961294
0.088357618
0.0004806526
0.090060992
0.0004653187
0.091797273
0.00045018044
0.093567355
0.00043528359
0.095372116
0.00042067271
0.097212291
0.00040636186
0.099088378
0.00039235746
0.10100068
0.00037862141
0.10294967
0.00036507168
0.10493574
0.00035159611
0.10695918
0.00033806921
0.10902044
0.00032434425
0.11112013
0.0003102795
0.11325891
0.00029578342
0.11543698
0.00028078368
0.11765492
0.00026517979
0.11991553
0.00024884984
0.12222146
0.00023167435
0.12457467
0.00021350375
0.1269773
0.0001942397
0.12943405
0.00017380299
0.13194307
0.00015215047
0.13450732
0.0001293398
0.13712784
0.00010531921
0.13981017
8.01246e-05
0.14255202
5.3885697e-05
0.14535957
2.722892e-05
0.14822043
0.15114857
-0.0042029233
0.016316541
-0.0041379988
0.016765741
-0.0040703132
0.017225582
-0.0039999343
0.017696261
-0.0039269375
0.018177932
-0.0038514046
0.018670735
-0.003773426
0.019174804
-0.003693097
0.01969026
-0.0036105159
0.020217219
-0.0035257873
0.02075579
-0.003439014
0.021306071
-0.0033503035
0.021868158
-0.0032597654
0.022442127
-0.0031675101
0.023028048
-0.0030736552
0.023625981
-0.0029783129
0.024235966
-0.0028816037
0.024858037
-0.0027836473
0.025492208
-0.0026845698
0.026138485
-0.0025844935
0.026796856
-0.0024835459
0.027467297
-0.0023818582
0.028149776
-0.0022795581
0.028844244
-0.0021767803
0.029550653
-0.0020736571
0.030268941
-0.0019703225
0.030999048
-0.001866912
0.031740915
-0.001763561
0.032494488
-0.0016604047
0.03325972
-0.0015575745
0.034036581
-0.0014552039
0.034825063
-0.0013534204
0.035625173
-0.0012523488
0.036436947
-0.0011521105
0.037260453
-0.0010528203
0.038095777
-0.00095459616
0.038943046
-0.0008575459
0.039802432
-0.00076177198
0.040674144
-0.00066737702
0.041558424
-0.00057445334
0.042455541
-0.00048309105
0.043365798
-0.00039337552
0.044289529
-0.00030538937
0.045227103
-0.00021920697
0.046178916
-0.00013490919
0.047145406
-5.2568074e-05
0.048127053
2.7737477e-05
0.049124392
0.00010592818
0.050138036
0.00018191547
0.051168697
0.00025560341
0.052217232
0.00032688093
0.053284694
0.00039561471
0.054372454
0.000461635
0.055482332
0.00052471638
0.056616932
0.00058454813
0.057780211
0.00064075601
0.058979479
0.00068750631
0.060223405
0.0007052436
0.061476685
0.00070387048
0.062674492
0.00070077311
0.063872762
0.00069640176
0.065098841
0.00069068942
0.066350747
0.00068365571
0.067627824
0.00067538471
0.068930349
0.00066603382
0.070258627
0.00065557114
0.071612937
0.00064421547
0.072993828
0.00063191295
0.074401663
0.00061894234
0.075836759
0.0006053007
0.077299635
0.00059084504
0.078790841
0.00057605683
0.080310864
0.0005608827
0.08185989
0.00054545219
0.083438541
0.00052985521
0.085047345
0.00051416344
0.0866869
0.00049847625
0.088357825
0.00048286463
0.090060796
0.00046739241
0.091796601
0.00045211709
0.093566132
0.00043708374
0.095370273
0.00042233456
0.097209756
0.00040789323
0.099085088
0.00039376081
0.10099658
0.00037990156
0.10294472
0.00036623683
0.10492992
0.00035265606
0.10695249
0.00033902543
0.10901288
0.00032519072
0.11111169
0.00031101959
0.11324955
0.00029641899
0.11542661
0.00028132005
0.11764342
0.00026561522
0.11990281
0.00024917877
0.12220747
0.00023190019
0.12455937
0.00021363763
0.12696071
0.00019429661
0.12941622
0.00017381006
0.13192408
0.00015212793
0.13448729
0.00012930731
0.13710686
0.0001052704
0.13978845
8.007004e-05
0.14252966
5.3837187e-05
0.14533661
2.7188983e-05
0.14819647
0.15112391
-0.0042117132
0.016256437
-0.0041498665
0.016702676
-0.0040851523
0.017159624
-0.0040176351
0.017627472
-0.0039473845
0.018106382
-0.0038744789
0.018596502
-0.0037990008
0.019097969
-0.0037210414
0.019610914
-0.0036406948
0.020135455
-0.0035580587
0.020671705
-0.0034732367
0.021219768
-0.0033863325
0.021779738
-0.0032974552
0.0223517
-0.0032067151
0.022935721
-0.0031142248
0.023531866
-0.0030201031
0.024140179
-0.0029244676
0.024760694
-0.0028274412
0.025393431
-0.0027291473
0.026038395
-0.0026297139
0.026695578
-0.0025292724
0.02736496
-0.0024279532
0.028046508
-0.0023258926
0.028740179
-0.0022232259
0.029445922
-0.0021200926
0.030163681
-0.0020166316
0.030893396
-0.001912985
0.031635008
-0.0018092933
0.032388462
-0.001705697
0.033153714
-0.0016023386
0.033930731
-0.0014993551
0.034719502
-0.0013968824
0.035520033
-0.0012950534
0.036332355
-0.0011939952
0.03715653
-0.0010938343
0.037992643
-0.00099469231
0.038840817
-0.00089668635
0.039701216
-0.0007999264
0.040574045
-0.00070451545
0.041459536
-0.00061055471
0.042357955
-0.00051813801
0.043269598
-0.00042735597
0.044194795
-0.00033829056
0.045133904
-0.00025102444
0.046087322
-0.00016563434
0.04705548
-8.219688e-05
0.048038856
-7.8808823e-07
0.049037985
7.8513381e-05
0.050053481
0.00015562287
0.051086061
0.00023045203
0.052136586
0.00030289787
0.053206126
0.00037284864
0.05429606
0.00044017297
0.055408232
0.00050471687
0.056545274
0.00056630144
0.057711177
0.00062496845
0.058913067
0.00067777708
0.060162708
0.00070552736
0.061440742
0.00070619381
0.062665157
0.00070334326
0.063866523
0.00069914325
0.065093559
0.00069357166
0.066346441
0.00068663401
0.067624483
0.00067843898
0.068927858
0.00066912116
0.070256851
0.00065868143
0.071611877
0.00064731146
0.072993298
0.0006349873
0.074401688
0.00062196079
0.075837089
0.00060820989
0.077300301
0.00059370836
0.078791859
0.00057887849
0.080311839
0.00056362725
0.081860938
0.00054809811
0.083439506
0.00053238408
0.085048151
0.00051656649
0.086687474
0.00050074497
0.088358074
0.00048499091
0.090060651
0.00046937533
0.091795983
0.00045395992
0.093564962
0.00043878817
0.095368482
0.00042390106
0.097207273
0.00040932716
0.099081845
0.00039506225
0.10099253
0.00038107777
0.10293981
0.00036730031
0.10492415
0.00035360868
0.10694585
0.00033987386
0.10900536
0.00032593478
0.11110331
0.00031165544
0.11324026
0.00029695774
0.11541631
0.00028176495
0.117632
0.00026596296
0.11989019
0.00024942013
0.12219361
0.00023204347
0.12454421
0.00021368991
0.12694428
0.0001942793
0.12939854
0.00017374396
0.13190524
0.0001520333
0.13446742
0.00012921014
0.13708602
0.00010518926
0.13976688
7.9992278e-05
0.14250749
5.3763574e-05
0.14531385
2.714157e-05
0.1481727
0.15109944
-0.0042135292
0.016199697
-0.0041549438
0.01664288
-0.0040933893
0.017096831
-0.0040289279
0.017561744
-0.0039616241
0.018037785
-0.0038915485
0.018525104
-0.0038187793
0.019023849
-0.0037434003
0.019534154
-0.0036655025
0.020056145
-0.0035851778
0.020589938
-0.0035025258
0.02113564
-0.0034176484
0.021693351
-0.0033306514
0.022263157
-0.0032416456
0.022845133
-0.0031507417
0.023439342
-0.0030580555
0.024045833
-0.0029637082
0.024664645
-0.0028678208
0.025295798
-0.002770521
0.025939303
-0.0026719364
0.026595153
-0.0025721997
0.027263332
-0.0024714473
0.027943811
-0.0023698157
0.028636547
-0.0022674463
0.029341493
-0.0021644832
0.030058596
-0.0020610705
0.030787795
-0.0019573539
0.031529034
-0.0018534818
0.032282261
-0.0017496011
0.033047427
-0.0016458607
0.033824503
-0.0015424038
0.034613472
-0.0014393747
0.03541434
-0.0013369136
0.036227133
-0.001235156
0.037051911
-0.0011342345
0.037888752
-0.0010342797
0.038737777
-0.00093541417
0.039599144
-0.00083775482
0.040473048
-0.00074141251
0.041359717
-0.0006464917
0.04225941
-0.0005530925
0.043172416
-0.00046130721
0.044099057
-0.0003712249
0.045039687
-0.0002829288
0.045994696
-0.00019649931
0.046964512
-0.00011201408
0.047949608
-2.9551812e-05
0.04895052
5.0810103e-05
0.049967859
0.00012899221
0.051002345
0.00020490752
0.052054845
0.00027846401
0.053126435
0.00034956564
0.0542185
0.00041810995
0.055332893
0.00048399955
0.056472247
0.00054716526
0.057640532
0.00060786642
0.058844571
0.00066530639
0.060097309
0.00070371302
0.06139415
0.00070851234
0.062651671
0.00070599005
0.063859921
0.00070190876
0.065088116
0.00069646431
0.066341962
0.00068961858
0.067621001
0.00068149036
0.068925249
0.00067219137
0.070255
0.00066177537
0.071610733
0.00065036302
0.072992746
0.00063803331
0.07440165
0.00062494002
0.075837413