/*--------------------------------*- C++ -*----------------------------------*\
| =========                 |                                                 |
| \\      /  F ield         | OpenFOAM: The Open Source CFD Toolbox           |
|  \\    /   O peration     | Version:  2406                                  |
|   \\  /    A nd           | Website:  www.openfoam.com                      |
|    \\/     M anipulation  |                                                 |
\*---------------------------------------------------------------------------*/
FoamFile
{
    version     2.0;
    format      ascii;
    arch        "LSB;label=32;scalar=64";
    class       volScalarField;
    location    "0.002";
    object      T;
}
// * * * * * * * * * * * * * * * * * * * * * * * * * * * * * * * * * * * * * //

dimensions      [0 0 0 1 0 0 0];

internalField   nonuniform List<scalar> 
23204
(
293.04718
293.03697
293.02919
293.02381
293.02173
293.19954
293.19523
293.18943
293.18204
293.17301
293.16235
293.15017
293.13667
293.12217
293.10716
293.09212
293.07762
293.0641
293.05211
293.04195
293.03423
293.02888
293.02682
293.14204
293.14738
293.1528
293.15825
293.16371
293.16915
293.17451
293.17974
293.18476
293.18952
293.19392
293.19789
293.20132
293.20415
293.20628
293.20764
293.20812
293.20762
293.20603
293.2032
293.19901
293.19334
293.18609
293.17719
293.16666
293.1546
293.14122
293.12682
293.11189
293.09693
293.08248
293.06902
293.05709
293.04698
293.03932
293.034
293.03196
293.2189
293.21404
293.20939
293.20494
293.20067
293.19657
293.19259
293.18871
293.18489
293.18109
293.17723
293.17324
293.16903
293.16446
293.15936
293.15348
293.14645
293.1377
293.12627
293.11056
293.09093
293.08372
293.08848
293.0938
293.09867
293.10343
293.1082
293.11304
293.11795
293.12294
293.12803
293.13324
293.13853
293.14392
293.14934
293.1548
293.16033
293.16588
293.17141
293.17686
293.18219
293.18731
293.19217
293.19668
293.20075
293.20429
293.20722
293.20945
293.21091
293.21149
293.21109
293.2096
293.20689
293.20282
293.19727
293.19015
293.18139
293.17101
293.15908
293.14581
293.13151
293.11667
293.10178
293.08739
293.07399
293.06211
293.05206
293.04445
293.03917
293.03714
293.53424
293.52161
293.5092
293.49701
293.48503
293.47327
293.46172
293.45039
293.43928
293.42837
293.41768
293.40721
293.39694
293.38688
293.37704
293.36741
293.358
293.34879
293.33981
293.33104
293.32249
293.31416
293.30606
293.29818
293.29054
293.28314
293.27597
293.26904
293.26236
293.25593
293.24974
293.24381
293.23811
293.23266
293.22745
293.22246
293.21769
293.21313
293.20876
293.20456
293.2005
293.19655
293.19266
293.18881
293.18491
293.18091
293.1767
293.17217
293.16713
293.16136
293.15449
293.14599
293.13493
293.11969
293.0991
293.08701
293.09025
293.09548
293.10036
293.10511
293.10989
293.11473
293.11966
293.12467
293.1298
293.13503
293.14036
293.14579
293.15131
293.15686
293.16244
293.16808
293.17369
293.17923
293.18465
293.18988
293.19485
293.19946
293.20364
293.20728
293.21031
293.21265
293.2142
293.21488
293.21458
293.2132
293.2106
293.20665
293.20123
293.19425
293.18563
293.17538
293.16358
293.15043
293.13624
293.12149
293.10667
293.09235
293.07899
293.06718
293.05718
293.04962
293.04438
293.04236
293.54471
293.53221
293.51991
293.5078
293.49589
293.48419
293.47268
293.46138
293.45027
293.43937
293.42867
293.41817
293.40787
293.39777
293.38787
293.37818
293.36869
293.35941
293.35033
293.34147
293.33282
293.32438
293.31617
293.30818
293.30041
293.29288
293.28559
293.27853
293.27172
293.26515
293.25883
293.25276
293.24694
293.24136
293.23602
293.23091
293.22603
293.22136
293.21689
293.21259
293.20844
293.20442
293.20047
293.19656
293.19263
293.18861
293.18441
293.1799
293.17493
293.16926
293.16257
293.15431
293.14363
293.12895
293.10819
293.0913
293.09217
293.0972
293.10207
293.10683
293.11161
293.11646
293.1214
293.12644
293.13159
293.13686
293.14222
293.14772
293.15331
293.15892
293.16457
293.17029
293.17599
293.18162
293.18714
293.19247
293.19754
293.20226
293.20655
293.2103
293.21343
293.21587
293.21752
293.2183
293.2181
293.21682
293.21433
293.2105
293.20521
293.19837
293.18989
293.17978
293.16811
293.15509
293.141
293.12634
293.11159
293.09734
293.08404
293.07228
293.06233
293.05483
293.04962
293.04763
293.55469
293.54235
293.53017
293.51818
293.50637
293.49474
293.4833
293.47205
293.46098
293.4501
293.4394
293.4289
293.41859
293.40846
293.39853
293.38879
293.37924
293.3699
293.36075
293.3518
293.34306
293.33453
293.32622
293.31812
293.31024
293.3026
293.29518
293.288
293.28106
293.27437
293.26792
293.26173
293.25578
293.25007
293.24462
293.23939
293.2344
293.22962
293.22505
293.22066
293.21642
293.21232
293.20831
293.20435
293.20039
293.19635
293.19215
293.18767
293.18276
293.1772
293.17066
293.16266
293.15236
293.13828
293.11792
293.09686
293.09433
293.09897
293.10382
293.10858
293.11335
293.11821
293.12317
293.12823
293.13341
293.13872
293.14412
293.14965
293.1553
293.161
293.16675
293.17253
293.17831
293.18404
293.18965
293.19508
293.20026
293.20508
293.20947
293.21333
293.21657
293.21911
293.22086
293.22173
293.22164
293.22046
293.21808
293.21437
293.20921
293.2025
293.19416
293.18419
293.17266
293.15977
293.14579
293.13123
293.11655
293.10236
293.08912
293.07741
293.06752
293.06007
293.0549
293.05292
293.56415
293.55198
293.53997
293.52812
293.51643
293.50491
293.49355
293.48237
293.47136
293.46052
293.44986
293.43937
293.42906
293.41893
293.40898
293.39921
293.38962
293.38023
293.37102
293.36201
293.3532
293.34459
293.33618
293.32799
293.32001
293.31226
293.30474
293.29744
293.29039
293.28358
293.27701
293.27069
293.26462
293.2588
293.25323
293.24789
293.24279
293.23791
293.23323
293.22875
293.22443
293.22025
293.21618
293.21217
293.20817
293.20411
293.19992
293.19547
293.19061
293.18515
293.17878
293.17102
293.1611
293.14763
293.12802
293.10397
293.09688
293.1008
293.10561
293.11035
293.11513
293.11999
293.12496
293.13004
293.13526
293.14059
293.14604
293.15162
293.15731
293.1631
293.16894
293.17479
293.18065
293.18647
293.19218
293.19771
293.20299
293.20792
293.21242
293.21639
293.21973
293.22237
293.22422
293.22519
293.22519
293.22412
293.22185
293.21825
293.21322
293.20665
293.19845
293.18862
293.17723
293.16447
293.15061
293.13613
293.12154
293.10741
293.09422
293.08257
293.07273
293.06533
293.06019
293.05823
293.58515
293.57305
293.56108
293.54925
293.53756
293.52602
293.51463
293.50339
293.4923
293.48138
293.4706
293.45999
293.44954
293.43926
293.42914
293.41919
293.40941
293.39981
293.39038
293.38113
293.37207
293.3632
293.35452
293.34604
293.33777
293.32971
293.32186
293.31424
293.30684
293.29968
293.29276
293.28608
293.27965
293.27346
293.26753
293.26184
293.2564
293.25119
293.2462
293.24143
293.23686
293.23246
293.22821
293.22407
293.22001
293.21598
293.2119
293.2077
293.20328
293.19848
293.19312
293.1869
293.17937
293.16983
293.15698
293.13831
293.11261
293.10004
293.10272
293.10742
293.11216
293.11694
293.1218
293.12678
293.13188
293.13712
293.14249
293.14799
293.15361
293.15936
293.16521
293.17113
293.17706
293.18301
293.18892
293.19472
293.20035
293.20573
293.21078
293.21538
293.21945
293.2229
293.22564
293.22759
293.22866
293.22876
293.22778
293.22562
293.22214
293.21724
293.2108
293.20275
293.19306
293.18182
293.16918
293.15544
293.14106
293.12654
293.11248
293.09935
293.08776
293.07796
293.07062
293.06551
293.06357
293.59318
293.58133
293.56959
293.55798
293.54648
293.53512
293.52388
293.51278
293.50182
293.491
293.48032
293.46978
293.45939
293.44916
293.43907
293.42914
293.41938
293.40977
293.40033
293.39106
293.38196
293.37305
293.36432
293.35578
293.34744
293.3393
293.33137
293.32366
293.31617
293.30892
293.30189
293.29511
293.28857
293.28228
293.27624
293.27045
293.2649
293.25959
293.25451
293.24964
293.24498
293.2405
293.23618
293.23198
293.22787
293.2238
293.2197
293.21551
293.2111
293.20636
293.20109
293.19502
293.18773
293.17855
293.16629
293.14863
293.12261
293.10414
293.10477
293.10927
293.11399
293.11877
293.12364
293.12862
293.13375
293.13901
293.14441
293.14995
293.15563
293.16143
293.16735
293.17333
293.17935
293.18538
293.19138
293.19728
293.20301
293.20849
293.21364
293.21835
293.22253
293.22608
293.22892
293.23097
293.23214
293.23233
293.23146
293.2294
293.22604
293.22126
293.21496
293.20704
293.19751
293.18641
293.17391
293.16028
293.146
293.13156
293.11757
293.10449
293.09295
293.08321
293.07591
293.07084
293.06892
293.60053
293.58896
293.57748
293.56611
293.55484
293.54367
293.53262
293.52169
293.51088
293.50018
293.48962
293.47918
293.46888
293.45872
293.44869
293.4388
293.42907
293.41948
293.41004
293.40077
293.39166
293.38272
293.37396
293.36537
293.35698
293.34878
293.34078
293.333
293.32543
293.31808
293.31097
293.30409
293.29746
293.29107
293.28493
293.27904
293.27339
293.26798
293.26281
293.25785
293.25311
293.24855
293.24416
293.2399
293.23574
293.23163
293.22752
293.22332
293.21894
293.21424
293.20906
293.20313
293.19606
293.18723
293.17556
293.15892
293.1336
293.10958
293.10702
293.11117
293.11586
293.12062
293.12549
293.13049
293.13563
293.14091
293.14635
293.15193
293.15766
293.16352
293.16949
293.17555
293.18165
293.18777
293.19385
293.19984
293.20567
293.21126
293.21651
293.22133
293.22561
293.22927
293.23221
293.23436
293.23562
293.23591
293.23514
293.23319
293.22994
293.22528
293.21911
293.21134
293.20195
293.191
293.17864
293.16513
293.15095
293.13659
293.12266
293.10964
293.09815
293.08846
293.08121
293.07617
293.07427
293.60717
293.5959
293.58472
293.57361
293.56259
293.55166
293.54082
293.53008
293.51944
293.50891
293.49848
293.48817
293.47798
293.46791
293.45796
293.44814
293.43845
293.42891
293.4195
293.41024
293.40113
293.39219
293.3834
293.37479
293.36636
293.35812
293.35007
293.34222
293.33459
293.32717
293.31997
293.31301
293.30629
293.29981
293.29358
293.28759
293.28185
293.27635
293.27109
293.26605
293.26123
293.25659
293.25213
293.24782
293.24361
293.23947
293.23533
293.23113
293.22677
293.22212
293.21702
293.21123
293.20437
293.19588
293.18476
293.16911
293.14512
293.11674
293.1096
293.11311
293.11774
293.1225
293.12737
293.13237
293.13753
293.14284
293.14831
293.15393
293.15971
293.16562
293.17165
293.17778
293.18395
293.19016
293.19633
293.20241
293.20834
293.21403
293.21939
293.22431
293.2287
293.23246
293.2355
293.23775
293.23911
293.2395
293.23882
293.23697
293.23383
293.22929
293.22325
293.21562
293.20639
293.19558
293.18336
293.16997
293.1559
293.14162
293.12776
293.11479
293.10335
293.0937
293.08651
293.0815
293.07962
293.61307
293.60214
293.59127
293.58047
293.56972
293.55905
293.54845
293.53793
293.52749
293.51714
293.50688
293.49672
293.48666
293.4767
293.46686
293.45713
293.44752
293.43803
293.42867
293.41945
293.41036
293.40143
293.39264
293.38402
293.37557
293.3673
293.35921
293.35132
293.34363
293.33615
293.32889
293.32185
293.31505
293.30849
293.30218
293.29611
293.29028
293.2847
293.27935
293.27423
293.26933
293.26462
293.2601
293.25573
293.25147
293.24729
293.24313
293.23893
293.23459
293.22999
293.22497
293.21931
293.21266
293.20449
293.19389
293.17918
293.15678
293.12588
293.11275
293.11514
293.11966
293.1244
293.12926
293.13427
293.13944
293.14478
293.15028
293.15594
293.16176
293.16773
293.17382
293.18001
293.18627
293.19255
293.19881
293.20499
293.21101
293.2168
293.22226
293.22729
293.23179
293.23565
293.2388
293.24113
293.24259
293.24307
293.24249
293.24074
293.23771
293.23329
293.22738
293.21989
293.21081
293.20015
293.18807
293.1748
293.16083
293.14664
293.13285
293.11993
293.10855
293.09894
293.09179
293.08682
293.08496
293.61821
293.60765
293.59713
293.58664
293.5762
293.56581
293.55548
293.5452
293.53499
293.52485
293.51478
293.50479
293.49489
293.48508
293.47536
293.46574
293.45622
293.44682
293.43753
293.42836
293.41932
293.41041
293.40165
293.39304
293.38458
293.3763
293.36819
293.36026
293.35253
293.345
293.33769
293.33059
293.32373
293.3171
293.31071
293.30456
293.29866
293.293
293.28757
293.28238
293.2774
293.27263
293.26805
293.26362
293.25932
293.25511
293.25093
293.24672
293.24239
293.23783
293.23289
293.22736
293.2209
293.21304
293.20294
293.1891
293.16834
293.13692
293.11684
293.11727
293.12159
293.12631
293.13118
293.13619
293.14137
293.14673
293.15226
293.15796
293.16383
293.16985
293.17599
293.18225
293.18859
293.19495
293.20129
293.20756
293.21368
293.21957
293.22513
293.23027
293.23487
293.23884
293.24208
293.24452
293.24606
293.24664
293.24615
293.24449
293.24157
293.23726
293.23148
293.22414
293.2152
293.2047
293.19276
293.17962
293.16575
293.15164
293.13792
293.12506
293.11372
293.10416
293.09706
293.09211
293.09028
293.62259
293.61242
293.60227
293.59213
293.58202
293.57194
293.56189
293.55188
293.54192
293.53202
293.52216
293.51238
293.50265
293.49301
293.48344
293.47395
293.46455
293.45525
293.44605
293.43696
293.42798
293.41913
293.4104
293.40181
293.39338
293.38509
293.37698
293.36903
293.36128
293.35372
293.34636
293.33922
293.3323
293.32561
293.31916
293.31295
293.30697
293.30124
293.29575
293.29049
293.28544
293.28061
293.27597
293.27149
293.26714
293.2629
293.2587
293.25448
293.25017
293.24565
293.24079
293.23537
293.2291
293.22152
293.2119
293.19888
293.17968
293.14937
293.12235
293.1196
293.12356
293.12825
293.1331
293.13812
293.14331
293.14869
293.15425
293.15999
293.1659
293.17197
293.17817
293.1845
293.1909
293.19734
293.20377
293.21013
293.21635
293.22233
293.22799
293.23323
293.23794
293.24201
293.24535
293.24788
293.24952
293.25019
293.24979
293.24823
293.2454
293.24121
293.23556
293.22836
293.21957
293.20921
293.19741
293.1844
293.17065
293.15662
293.14297
293.13016
293.11887
293.10935
293.10229
293.09738
293.09557
293.62621
293.61646
293.60669
293.59692
293.58716
293.57741
293.56767
293.55796
293.54828
293.53862
293.52901
293.51944
293.50993
293.50047
293.49107
293.48174
293.47248
293.46331
293.45422
293.44522
293.43633
293.42754
293.41887
293.41033
293.40193
293.39367
293.38556
293.37762
293.36985
293.36228
293.35489
293.34772
293.34076
293.33402
293.32752
293.32125
293.31521
293.30942
293.30386
293.29854
293.29344
293.28854
293.28384
293.27932
293.27493
293.27066
293.26644
293.26222
293.25792
293.25344
293.24864
293.24334
293.23724
293.22994
293.22076
293.2085
293.19075
293.16249
293.12984
293.12224
293.12558
293.1302
293.13504
293.14006
293.14526
293.15066
293.15624
293.16202
293.16797
293.17409
293.18035
293.18674
293.19321
293.19973
293.20625
293.21269
293.219
293.22508
293.23084
293.23618
293.24099
293.24516
293.2486
293.25123
293.25296
293.25371
293.2534
293.25193
293.2492
293.24512
293.2396
293.23254
293.2239
293.21369
293.20203
293.18915
293.1755
293.16157
293.14798
293.13523
293.12398
293.1145
293.10749
293.1026
293.10081
293.62908
293.61976
293.6104
293.60102
293.59163
293.58223
293.57283
293.56343
293.55404
293.54466
293.53531
293.52599
293.5167
293.50744
293.49824
293.48909
293.47999
293.47096
293.462
293.45313
293.44434
293.43564
293.42705
293.41857
293.41022
293.402
293.39392
293.386
293.37824
293.37066
293.36326
293.35607
293.34908
293.34231
293.33576
293.32945
293.32336
293.31752
293.3119
293.30652
293.30137
293.29642
293.29168
293.2871
293.28268
293.27837
293.27414
293.26991
293.26563
293.26119
293.25645
293.25125
293.24533
293.23829
293.22952
293.21796
293.20152
293.17566
293.13978
293.12547
293.12766
293.13216
293.13699
293.142
293.14722
293.15263
293.15824
293.16405
293.17004
293.17621
293.18253
293.18898
293.19552
293.20211
293.20871
293.21524
293.22164
293.22781
293.23368
293.23911
293.24402
293.2483
293.25183
293.25455
293.25637
293.25721
293.25698
293.2556
293.25296
293.24899
293.24359
293.23667
293.22818
293.21812
293.20661
293.19386
293.18032
293.16647
293.15296
293.14025
293.12905
293.1196
293.11263
293.10777
293.10601
293.63123
293.62234
293.61341
293.60444
293.59543
293.5864
293.57734
293.56828
293.5592
293.55012
293.54105
293.53199
293.52295
293.51392
293.50493
293.49598
293.48707
293.4782
293.4694
293.46066
293.45199
293.44341
293.43491
293.42652
293.41823
293.41007
293.40204
293.39415
293.38641
293.37884
293.37145
293.36425
293.35725
293.35046
293.34388
293.33753
293.33141
293.32552
293.31986
293.31443
293.30923
293.30424
293.29945
293.29483
293.29038
293.28604
293.28179
293.27756
293.27329
293.26888
293.26421
293.25911
293.25334
293.24655
293.23817
293.22726
293.21201
293.1885
293.15215
293.12972
293.12986
293.13413
293.13894
293.14395
293.14917
293.1546
293.16024
293.16608
293.17211
293.17833
293.1847
293.19121
293.19782
293.20448
293.21115
293.21777
293.22426
293.23053
293.23648
293.24202
293.24703
293.2514
293.25503
293.25784
293.25975
293.26066
293.26052
293.25922
293.25668
293.25281
293.24753
293.24075
293.2324
293.22249
293.21112
293.1985
293.18507
293.17132
293.15787
293.14521
293.13406
293.12465
293.11771
293.11288
293.11113
293.63268
293.62424
293.61574
293.60719
293.59858
293.58993
293.58124
293.57252
293.56377
293.55501
293.54623
293.53745
293.52867
293.5199
293.51114
293.5024
293.49369
293.48502
293.47638
293.4678
293.45928
293.45082
293.44244
293.43415
293.42595
293.41786
293.40989
293.40206
293.39436
293.38682
293.37945
293.37226
293.36525
293.35845
293.35186
293.34549
293.33934
293.33341
293.32772
293.32225
293.31701
293.31198
293.30715
293.3025
293.29801
293.29365
293.28939
293.28515
293.28089
293.27652
293.27191
293.26691
293.26129
293.25472
293.24671
293.23639
293.22222
293.20086
293.16628
293.1356
293.13224
293.13612
293.14089
293.1459
293.15113
293.15658
293.16224
293.16811
293.17418
293.18044
293.18687
293.19343
293.2001
293.20683
293.21358
293.22028
293.22685
293.23321
293.23926
293.2449
293.25
293.25447
293.2582
293.26109
293.26308
293.26408
293.26401
293.26279
293.26034
293.25657
293.25141
293.24476
293.23655
293.22679
293.21556
293.20308
293.18976
293.1761
293.16272
293.15011
293.139
293.12962
293.12272
293.11791
293.11619
293.63348
293.62549
293.61743
293.6093
293.60109
293.59283
293.58452
293.57616
293.56776
293.55932
293.55086
293.54237
293.53388
293.52537
293.51686
293.50835
293.49986
293.49139
293.48295
293.47454
293.46618
293.45787
293.44962
293.44145
293.43336
293.42536
293.41747
293.4097
293.40207
293.39457
293.38723
293.38006
293.37307
293.36628
293.35968
293.3533
293.34713
293.34119
293.33547
293.32997
293.32469
293.31963
293.31477
293.31009
293.30558
293.3012
293.29692
293.29268
293.28843
293.28409
293.27954
293.27463
293.26915
293.26281
293.25513
293.24536
293.23215
293.21272
293.18109
293.14389
293.13499
293.13815
293.14285
293.14785
293.15308
293.15854
293.16423
293.17013
293.17624
293.18255
293.18902
293.19564
293.20236
293.20915
293.21597
293.22276
293.22942
293.23587
293.24201
293.24774
293.25294
293.2575
293.26131
293.2643
293.26636
293.26744
293.26744
293.2663
293.26393
293.26026
293.25522
293.24869
293.24063
293.23101
293.21992
293.20757
293.19437
293.1808
293.16749
293.15493
293.14385
293.1345
293.12764
293.12285
293.12115
293.63366
293.62613
293.61851
293.6108
293.60301
293.59514
293.58721
293.57922
293.57117
293.56308
293.55494
293.54676
293.53856
293.53033
293.52208
293.51383
293.50557
293.49732
293.48909
293.48087
293.47269
293.46454
293.45644
293.44841
293.44044
293.43255
293.42476
293.41708
293.40951
293.40208
293.39479
293.38766
293.3807
293.37392
293.36734
293.36095
293.35478
293.34883
293.34309
293.33757
293.33227
293.32718
293.32229
293.31759
293.31306
293.30866
293.30437
293.30014
293.2959
293.29159
293.28709
293.28227
293.27692
293.27079
293.26342
293.25417
293.24183
293.22408
293.1957
293.15523
293.13839
293.14023
293.1448
293.14979
293.15503
293.1605
293.16621
293.17214
293.17829
293.18465
293.19116
293.19783
293.20462
293.21147
293.21834
293.2252
293.23194
293.23848
293.24471
293.25053
293.25582
293.26047
293.26438
293.26744
293.26959
293.27074
293.27081
293.26974
293.26745
293.26388
293.25894
293.25254
293.24461
293.23513
293.22419
293.21197
293.19889
293.18541
293.17217
293.15966
293.14862
293.13929
293.13246
293.12769
293.126
293.63329
293.6262
293.61902
293.61173
293.60435
293.59689
293.58934
293.58172
293.57404
293.56629
293.55848
293.55062
293.54272
293.53479
293.52682
293.51883
293.51082
293.50281
293.49479
293.48678
293.47879
293.47083
293.4629
293.45501
293.44719
293.43943
293.43175
293.42417
293.41669
293.40933
293.40211
293.39503
293.38812
293.38137
293.37481
293.36844
293.36228
293.35632
293.35057
293.34505
293.33973
293.33462
293.32972
293.325
293.32045
293.31604
293.31174
293.30751
293.30329
293.299
293.29456
293.28982
293.28461
293.27866
293.2716
293.26281
293.25126
293.23499
293.20965
293.16948
293.14299
293.14243
293.14675
293.15172
293.15696
293.16245
293.16817
293.17413
293.18032
293.18669
293.19326
293.2
293.20686
293.21381
293.22073
293.22761
293.23442
293.24105
293.24737
293.25327
293.25865
293.26339
293.26738
293.27053
293.27275
293.27396
293.27411
293.2731
293.27089
293.26741
293.26257
293.25629
293.24849
293.23915
293.22835
293.21627
293.2033
293.18991
293.17675
293.16427
293.15327
293.14397
293.13716
293.13241
293.13074
293.63241
293.62576
293.619
293.61214
293.60517
293.5981
293.59094
293.5837
293.57637
293.56897
293.56151
293.55398
293.54639
293.53875
293.53107
293.52336
293.51561
293.50785
293.50006
293.49228
293.48449
293.47672
293.46898
293.46126
293.45359
293.44597
293.43842
293.43096
293.42359
293.41632
293.40918
293.40217
293.39531
293.38861
293.38209
293.37574
293.3696
293.36365
293.35791
293.35238
293.34706
293.34195
293.33703
293.3323
293.32773
293.32332
293.31902
293.31479
293.31058
293.30633
293.30193
293.29728
293.29219
293.28642
293.27964
293.27128
293.26045
293.24547
293.2228
293.18546
293.1498
293.14488
293.1487
293.15364
293.15888
293.16437
293.17012
293.17611
293.1823
293.1887
293.19534
293.20217
293.20907
293.21607
293.2231
293.23003
293.23687
293.24356
293.24997
293.25596
293.26142
293.26625
293.27032
293.27354
293.27583
293.27711
293.27731
293.27638
293.27424
293.27083
293.2661
293.25993
293.25225
293.24305
293.23239
293.22044
293.2076
293.1943
293.1812
293.16877
293.1578
293.14851
293.14173
293.137
293.13534
293.63108
293.62486
293.61852
293.61206
293.60549
293.59882
293.59204
293.58517
293.57821
293.57116
293.56404
293.55684
293.54957
293.54224
293.53486
293.52742
293.51995
293.51244
293.50491
293.49735
293.48979
293.48223
293.47468
293.46714
293.45964
293.45218
293.44478
293.43744
293.43019
293.42303
293.41598
293.40905
293.40227
293.39563
293.38915
293.38285
293.37674
293.37081
293.36509
293.35957
293.35425
293.34913
293.34421
293.33948
293.33491
293.33049
293.32619
293.32197
293.31778
293.31356
293.30921
293.30463
293.29966
293.29407
293.28754
293.27959
293.2694
293.25557
293.23519
293.20178
293.15975
293.14785
293.15068
293.15554
293.16078
293.16628
293.17205
293.17805
293.18424
293.19069
293.1974
293.20426
293.21126
293.21831
293.22539
293.23243
293.23932
293.24603
293.2525
293.25857
293.26412
293.26903
293.27317
293.27647
293.27883
293.28017
293.28043
293.27955
293.27748
293.27415
293.26951
293.26344
293.25589
293.24682
293.2363
293.22448
293.21175
293.19855
293.18552
293.17313
293.16219
293.15292
293.14616
293.14143
293.13979
293.62935
293.62354
293.61761
293.61155
293.60537
293.59908
293.59269
293.58618
293.57958
293.57289
293.5661
293.55923
293.55229
293.54527
293.53819
293.53104
293.52385
293.51661
293.50933
293.50202
293.49468
293.48734
293.47999
293.47266
293.46534
293.45805
293.4508
293.44361
293.43649
293.42945
293.42251
293.41568
293.40898
293.40242
293.396
293.38976
293.38368
293.37779
293.3721
293.36659
293.36129
293.35618
293.35126
293.34653
293.34196
293.33754
293.33325
293.32904
293.32487
293.32068
293.31639
293.31188
293.30702
293.30159
293.29531
293.28772
293.27813
293.26532
293.24689
293.21746
293.17329
293.15162
293.15271
293.15742
293.16266
293.16817
293.17394
293.17992
293.18617
293.1927
293.19942
293.20631
293.21335
293.2205
293.22766
293.23475
293.24172
293.24849
293.25497
293.26111
293.26674
293.27172
293.27594
293.2793
293.28172
293.28312
293.28344
293.28262
293.2806
293.27735
293.27278
293.26682
293.25938
293.25044
293.24005
293.22837
293.21576
293.20265
293.18969
293.17734
293.16642
293.15716
293.15042
293.14571
293.14407
293.62728
293.62187
293.61632
293.61065
293.60485
293.59894
293.59291
293.58676
293.58052
293.57417
293.56772
293.56119
293.55456
293.54786
293.54108
293.53423
293.52731
293.52035
293.51333
293.50627
293.49918
293.49206
293.48494
293.4778
293.47068
293.46357
293.45649
293.44946
293.44249
293.43558
293.42876
293.42204
293.41544
293.40896
293.40263
293.39644
293.39043
293.38458
293.37892
293.37345
293.36817
293.36307
293.35817
293.35344
293.34888
293.34447
293.34019
293.33599
293.33185
293.32769
293.32345
293.31901
293.31426
293.30898
293.30293
293.29569
293.28664
293.27473
293.25799
293.23208
293.18988
293.15723
293.15492
293.1593
293.16451
293.17003
293.17578
293.18179
293.1881
293.19466
293.20139
293.20832
293.21541
293.22259
293.22982
293.23702
293.24406
293.2509
293.25742
293.26357
293.26926
293.27431
293.27861
293.28204
293.28451
293.28597
293.28633
293.28556
293.2836
293.28041
293.27592
293.27004
293.26272
293.2539
293.24364
293.23209
293.2196
293.20658
293.19368
293.18137
293.17048
293.16123
293.1545
293.14979
293.14816
293.62493
293.61989
293.61471
293.6094
293.60397
293.59842
293.59274
293.58696
293.58105
293.57505
293.56894
293.56272
293.55642
293.55003
293.54355
293.537
293.53037
293.52368
293.51693
293.51013
293.50328
293.4964
293.4895
293.48258
293.47566
293.46875
293.46185
293.45499
293.44817
293.44141
293.43473
293.42813
293.42164
293.41526
293.40901
293.4029
293.39695
293.39117
293.38555
293.38012
293.37487
293.3698
293.36492
293.36021
293.35567
293.35127
293.347
293.34282
293.3387
293.33458
293.33038
293.32602
293.32137
293.31624
293.31041
293.30349
293.29493
293.28383
293.26854
293.24558
293.20756
293.1658
293.15755
293.16118
293.16634
293.17186
293.17759
293.18365
293.19002
293.19657
293.20333
293.21028
293.21741
293.22464
293.23192
293.23918
293.24631
293.25323
293.25983
293.266
293.27169
293.2768
293.28116
293.28465
293.28718
293.28869
293.2891
293.28837
293.28646
293.28332
293.27889
293.2731
293.26588
293.25718
293.24705
293.23563
293.22325
293.21033
293.1975
293.18522
293.17435
293.16511
293.15838
293.15368
293.15204
293.62233
293.61764
293.61282
293.60786
293.60278
293.59757
293.59224
293.58679
293.58123
293.57555
293.56977
293.56388
293.55789
293.5518
293.54563
293.53937
293.53303
293.52662
293.52014
293.5136
293.507
293.50037
293.4937
293.487
293.48029
293.47358
293.46688
293.46019
293.45354
293.44694
293.4404
293.43394
293.42757
293.4213
293.41515
293.40913
293.40326
293.39754
293.39199
293.3866
293.38139
293.37636
293.37151
293.36682
293.3623
293.35792
293.35367
293.34952
293.34542
293.34134
293.33719
293.3329
293.32835
293.32337
293.31773
293.31111
293.30301
293.29263
293.27859
293.2581
293.22483
293.1784
293.16084
293.16308
293.16815
293.17364
293.1794
293.18548
293.19185
293.19844
293.20523
293.2122
293.21934
293.22661
293.23394
293.24126
293.24846
293.25545
293.26213
293.26838
293.27408
293.27918
293.28359
293.28713
293.28972
293.29127
293.29172
293.29103
293.28916
293.28606
293.2817
293.27598
293.26885
293.26027
293.25026
293.23896
293.2267
293.21387
293.20111
293.18887
293.17801
293.16877
293.16205
293.15734
293.1557
293.61955
293.61518
293.61069
293.60606
293.60131
293.59644
293.59143
293.58631
293.58107
293.57572
293.57025
293.56467
293.55899
293.55321
293.54734
293.54137
293.53531
293.52918
293.52297
293.51669
293.51036
293.50397
293.49754
293.49107
293.48458
293.47808
293.47157
293.46507
293.4586
293.45217
293.44578
293.43946
293.43322
293.42708
293.42104
293.41512
293.40934
293.4037
293.39821
293.39288
293.38773
293.38274
293.37792
293.37327
293.36877
293.36442
293.3602
293.35607
293.35201
293.34796
293.34387
293.33965
293.33519
293.33034
293.3249
293.31856
293.31087
293.30115
293.28821
293.2698
293.24087
293.19481
293.16558
293.1651
293.16993
293.17538
293.18117
293.18731
293.19366
293.20025
293.20708
293.21408
293.22124
293.22853
293.23588
293.24324
293.25051
293.25757
293.26431
293.27063
293.2764
293.28151
293.28589
293.28948
293.29211
293.2937
293.29418
293.29352
293.29168
293.28862
293.28431
293.27866
293.27162
293.26314
293.25326
293.24208
293.22993
293.2172
293.20449
293.19228
293.18144
293.1722
293.16548
293.16077
293.15912
293.6166
293.61255
293.60836
293.60405
293.59961
293.59505
293.59036
293.58555
293.58062
293.57557
293.57041
293.56514
293.55976
293.55428
293.5487
293.54302
293.53724
293.53139
293.52545
293.51944
293.51336
293.50722
293.50102
293.49479
293.48852
293.48224
293.47594
293.46964
293.46335
293.45709
293.45087
293.4447
293.43861
293.43259
293.42667
293.42086
293.41518
293.40962
293.40422
293.39896
293.39386
293.38893
293.38415
293.37954
293.37508
293.37076
293.36657
293.36247
293.35845
293.35444
293.3504
293.34625
293.34189
293.33717
293.3319
293.32582
293.31853
293.3094
293.29743
293.28077
293.25545
293.21355
293.17302
293.16746
293.17165
293.17711
293.18295
293.18905
293.19542
293.20202
293.20886
293.2159
293.22308
293.23038
293.23775
293.24514
293.25244
293.25956
293.26637
293.27275
293.27858
293.28374
293.28813
293.29168
293.29433
293.29596
293.29648
293.29584
293.29402
293.29099
293.28671
293.28112
293.27416
293.26578
293.25601
293.24496
293.23292
293.22028
293.20763
293.19546
293.18463
293.17538
293.16865
293.16393
293.16226
293.61354
293.60977
293.60588
293.60186
293.59771
293.59344
293.58905
293.58454
293.57991
293.57516
293.57029
293.56531
293.56023
293.55503
293.54973
293.54433
293.53884
293.53326
293.52759
293.52184
293.51601
293.51012
293.50417
293.49818
293.49214
293.48607
293.47998
293.47388
293.46779
293.46171
293.45566
293.44966
293.44371
293.43783
293.43204
293.42635
293.42078
293.41532
293.41
293.40482
293.39979
293.39492
293.3902
293.38563
293.38122
293.37694
293.37278
293.36872
293.36473
293.36077
293.35679
293.35271
293.34843
293.34384
293.33875
293.33291
293.32597
293.31739
293.30628
293.29112
293.26878
293.23224
293.18478
293.17037
293.17341
293.17879
293.18464
293.19074
293.19712
293.20374
293.21059
293.21765
293.22486
293.23218
293.23956
293.24695
293.25427
293.26142
293.26829
293.27473
293.28061
293.28582
293.29026
293.29382