/*--------------------------------*- C++ -*----------------------------------*\
| =========                 |                                                 |
| \\      /  F ield         | OpenFOAM: The Open Source CFD Toolbox           |
|  \\    /   O peration     | Version:  2406                                  |
|   \\  /    A nd           | Website:  www.openfoam.com                      |
|    \\/     M anipulation  |                                                 |
\*---------------------------------------------------------------------------*/
FoamFile
{
    version     2.0;
    format      ascii;
    arch        "LSB;label=32;scalar=64";
    class       volScalarField;
    location    "0.1";
    object      alphat;
}
// * * * * * * * * * * * * * * * * * * * * * * * * * * * * * * * * * * * * * //

dimensions      [1 -1 -1 0 0 0 0];

internalField   nonuniform List<scalar> 
8260
(
0.052952332
0.060570733
0.069748806
0.080409658
0.092547206
0.10621055
0.12150101
0.13853835
0.15745326
0.17844045
0.20172221
0.22750172
0.25596706
0.28725897
0.32137031
0.35810327
0.39694692
0.43691867
0.47640517
0.51296176
0.54300585
0.56143494
0.561354
0.53427056
0.47087136
0.36722076
0.22804343
0.11594087
0.079166153
0.060422724
0.052525537
0.062929586
0.070878345
0.079866737
0.090131103
0.10181762
0.11503265
0.12989368
0.14653364
0.16510043
0.18577939
0.20878441
0.23431472
0.26254384
0.29360159
0.3274612
0.36390615
0.40240703
0.44195797
0.48092796
0.5168463
0.54610583
0.56358735
0.56239334
0.53403355
0.46933048
0.36446527
0.22516704
0.11383794
0.078737485
0.06023583
0.052521969
0.074589423
0.082453579
0.091240229
0.10117874
0.11245492
0.12522204
0.13962892
0.15583313
0.17400205
0.19432213
0.21700153
0.24223055
0.27017413
0.3009451
0.33449616
0.37058885
0.40867322
0.44771755
0.48607133
0.5212371
0.54958004
0.56596449
0.56349306
0.53367892
0.46749714
0.36126846
0.22180424
0.11166995
0.078269711
0.06004447
0.052518645
0.088224363
0.095742978
0.1042223
0.11380091
0.12465882
0.13696706
0.15089752
0.16663042
0.18435251
0.20425813
0.2265515
0.25141943
0.27901444
0.30943015
0.34260154
0.3782645
0.41584584
0.45428596
0.49191242
0.52619798
0.55347625
0.56859381
0.5646531
0.53317476
0.46531602
0.35753929
0.21787252
0.10942225
0.077762181
0.059846662
0.052518561
0.10405214
0.11108444
0.1191561
0.12830368
0.13869832
0.15051481
0.1639363
0.1791579
0.19638175
0.21581202
0.23765253
0.2620876
0.28925877
0.31923851
0.35194162
0.38708132
0.4240545
0.46177338
0.49853973
0.53179297
0.55783226
0.57148437
0.56585151
0.53246731
0.46269221
0.35317361
0.21328219
0.10707221
0.077205418
0.059641528
0.052515448
0.12220863
0.12872427
0.13631562
0.14496729
0.15484616
0.16612806
0.1790009
0.19366766
0.21034037
0.22923157
0.25054684
0.27446788
0.30112634
0.33057296
0.36270406
0.39720581
0.43344209
0.47029902
0.50604541
0.53808477
0.56267983
0.57463439
0.56705061
0.53148239
0.45950309
0.34804547
0.20793488
0.10459705
0.076590975
0.059430581
0.052468002
0.14282719
0.14883671
0.1559182
0.16403855
0.17336502
0.18407596
0.1963624
0.21043133
0.22650025
0.24478729
0.26549981
0.2888165
0.31485947
0.34365953
0.37509348
0.4088183
0.44416421
0.47998867
0.51452362
0.54513387
0.56804276
0.57802846
0.56819292
0.53011975
0.45561456
0.34199978
0.20172387
0.1019771
0.075912753
0.059214259
0.052383193
0.16601394
0.17155656
0.1781383
0.18572789
0.19449402
0.20461778
0.21629279
0.22972848
0.24514524
0.2627641
0.28279293
0.3054067
0.33071806
0.35873994
0.38932824
0.42211046
0.45638248
0.49096994
0.52406514
0.5529909
0.57392873
0.58162844
0.56919151
0.52824368
0.45085238
0.33484442
0.19453608
0.099198449
0.075165282
0.05899038
0.052306709
0.19185326
0.19700211
0.20312219
0.21021039
0.21843723
0.22798323
0.23904225
0.25182448
0.26655107
0.28344339
0.30270787
0.32451455
0.34896648
0.37606019
0.40563014
0.43727467
0.47025517
0.50336247
0.53474676
0.56168602
0.58031799
0.5853613
0.56991727
0.52566991
0.44499081
0.32634085
0.18625696
0.096255162
0.074348881
0.05875285
0.052234329
0.22036105
0.22520596
0.23093794
0.23758725
0.24532835
0.25433708
0.26480365
0.27693592
0.29095282
0.30707299
0.32549877
0.34639353
0.36985011
0.39584945
0.4242047
0.45448582
0.48592011
0.51726111
0.5466149
0.57121252
0.58714642
0.58910173
0.57018102
0.52214777
0.43773699
0.31619302
0.17678035
0.093150448
0.073466603
0.058491012
0.052156796
0.25140034
0.25605756
0.2615309
0.26784827
0.2751901
0.28373512
0.29366624
0.30518325
0.31849784
0.33382147
0.35134865
0.37123342
0.39355696
0.41828454
0.44520833
0.47387098
0.50346633
0.53270902
0.55965977
0.58150135
0.59428017
0.59264661
0.56970809
0.51733565
0.42870902
0.30403501
0.16602692
0.089897321
0.072516137
0.058197574
0.052096615
0.284795
0.28934603
0.29467824
0.30080993
0.30788131
0.31607051
0.32555798
0.33652946
0.34918215
0.36371393
0.380306
0.39909887
0.4201591
0.44343486
0.468697
0.49546148
0.52288934
0.54965565
0.57377533
0.59238257
0.60147806
0.59567809
0.56810233
0.51076698
0.41740689
0.28941945
0.15397645
0.086450616
0.07148986
0.057872284
0.05206571
0.32016762
0.32474319
0.33004308
0.33610787
0.34305858
0.35102691
0.36018601
0.3707095
0.38277207
0.39654874
0.41219932
0.429844
0.44952929
0.4711822
0.49454997
0.5191211
0.54402369
0.56789321
0.58869909
0.60352779
0.60833615
0.5977102
0.56479504
0.50180369
0.4031749
0.27181256
0.14072115
0.082799947
0.070377756
0.057510362
0.052054952
0.35690181
0.36161903
0.36701909
0.37313338
0.38008929
0.38798944
0.39695115
0.40714002
0.4187067
0.43179358
0.44652862
0.46300168
0.48122982
0.501111
0.52236298
0.54444316
0.56644486
0.58696346
0.60392354
0.61436579
0.61420736
0.59801236
0.55897322
0.48957265
0.38515436
0.25061068
0.12654217
0.079093031
0.069167535
0.057106909
0.052056185
0.39406351
0.39901754
0.40462628
0.41091217
0.41797767
0.42591682
0.43482048
0.44479761
0.45597608
0.46846065
0.48233654
0.49764975
0.51437439
0.53236705
0.55130592
0.57060962
0.58933167
0.6060248
0.61856865
0.62396083
0.61808572
0.59550043
0.549479
0.47288066
0.36222784
0.22521514
0.11267271
0.075475734
0.067839573
0.056649567
0.052069137
0.43031615
0.43556116
0.44143934
0.44796558
0.45522757
0.46331442
0.47228127
0.48216776
0.49305272
0.50501442
0.51809058
0.53227048
0.54746891
0.56348443
0.57994072
0.59620455
0.61127917
0.62366783
0.63120243
0.63083988
0.61844217
0.58858322
0.53467071
0.45010403
0.33296531
0.19524087
0.10063439
0.072098688
0.066378571
0.056101969
0.052101124
0.46390307
0.46944342
0.47560061
0.4823834
0.48985847
0.49808405
0.50712074
0.51700387
0.52770411
0.53920471
0.55151128
0.56456587
0.5782086
0.59216552
0.60598728
0.61896966
0.63004828
0.63766351
0.6395919
0.63275061
0.61299383
0.57494876
0.51223387
0.41905384
0.29561395
0.16104133
0.089388098
0.06897537
0.064427868
0.055417893
0.052147908
0.49233163
0.49810117
0.5044716
0.51144821
0.51908245
0.52740652
0.53643674
0.54617847
0.55662662
0.56770251
0.57926365
0.59116738
0.60319351
0.61498927
0.62601556
0.63548021
0.64222915
0.64461975
0.64035928
0.62632435
0.59838242
0.55127157
0.4789324
0.37683575
0.24828841
0.12572407
0.078962528
0.065115998
0.064113218
0.054805544
0.052205774
0.51190314
0.51776994
0.52421182
0.53123327
0.53887017
0.5471312
0.55600674
0.56546193
0.57544059
0.5858609
0.59656583
0.60724928
0.61754243
0.62701726
0.63503466
0.64070185
0.64277345
0.63950019
0.62849746
0.60660067
0.56972486
0.51282095
0.43030146
0.31978321
0.18991002
0.10143184
0.070667153
0.061774001
0.061600025
0.054272443
0.052229263
0.51654806
0.52234372
0.52867429
0.5355418
0.5429652
0.55093586
0.55942141
0.5683482
0.57760978
0.58705722
0.5964792
0.60559404
0.61397281
0.62093808
0.62569787
0.62725074
0.62425752
0.61489059
0.59664322
0.5663268
0.51996885
0.45296053
0.36031802
0.24380341
0.12711153
0.081500261
0.064413871
0.059955324
0.060213048
0.053847342
0.052277385
0.49562783
0.5011726
0.50719992
0.51370648
0.52069233
0.52812759
0.5359494
0.54405754
0.55230972
0.56049856
0.56832684
0.5754346
0.58133112
0.58535144
0.58656505
0.58377853
0.57546498
0.55970039
0.53384759
0.49482255
0.43890723
0.36260909
0.261118
0.15293088
0.091639841
0.067843502
0.06093614
0.05764924
0.058199855
0.053370928
0.052342727
0.43036181
0.43566783
0.44139282
0.44751987
0.45402317
0.4608457
0.46789267
0.47502427
0.4820442
0.48868455
0.49460128
0.49932334
0.50224522
0.50267439
0.49964643
0.49194739
0.47808661
0.45612051
0.4230304
0.37568834
0.31134594
0.23093344
0.15515955
0.095996906
0.068509902
0.060089564
0.058323467
0.055804572
0.056469789
0.05292535
0.051889608
0.30841094
0.31238179
0.31662876
0.32112144
0.32581433
0.33063645
0.33548285
0.34020376
0.34458936
0.34836447
0.35117892
0.35261487
0.35211716
0.34904836
0.34270387
0.33212199
0.31661792
0.29491259
0.26548402
0.22713804
0.18075732
0.13007787
0.092166752
0.068210268
0.059651547
0.057367153
0.055769969
0.053754819
0.054519069
0.052732961
0.051630367
0.17381128
0.17641652
0.1792094
0.18214688
0.18518125
0.18824885
0.19127046
0.19413067
0.19665546
0.19865242
0.19989653
0.20011713
0.19903957
0.19619268
0.19112021
0.18352718
0.17313819
0.15948568
0.14234393
0.1217286
0.099315356
0.078412302
0.064766658
0.057875982
0.055943231
0.054620059
0.053697618
0.052268406
0.052726586
0.052468334
0.051406361
0.087080161
0.088903642
0.090847351
0.092891606
0.094994435
0.097086906
0.099058043
0.10081499
0.10235272
0.10362497
0.10454604
0.10498789
0.10476748
0.10362302
0.10138854
0.097974284
0.093334184
0.087427681
0.080477292
0.072694501
0.064960499
0.058549487
0.055188261
0.054075401
0.054031651
0.052975891
0.051943269
0.050713987
0.050788506
0.051392298
0.051245725
0.05794564
0.058487914
0.059062891
0.059664419
0.060285606
0.060916301
0.061542052
0.062147408
0.062716891
0.063229211
0.063660301
0.063977082
0.064130781
0.064054796
0.063661514
0.062775732
0.061463215
0.059785411
0.057837211
0.05570216
0.053687201
0.05225998
0.051873063
0.052136124
0.051833433
0.051219786
0.05066557
0.049751789
0.049734676
0.049361789
0.051446001
0.050266204
0.050481468
0.050700335
0.050920837
0.051139461
0.051351794
0.051550514
0.051732054
0.051894364
0.052037912
0.052161374
0.052260375
0.052326837
0.052346238
0.052294357
0.052138312
0.051876392
0.051535039
0.051126171
0.050690438
0.050373524
0.050221499
0.05015554
0.050250926
0.050466276
0.050126131
0.049699718
0.049124508
0.049230467
0.048741188
0.050159601
0.04882722
0.048892195
0.04895142
0.049005332
0.049053654
0.049096866
0.049139425
0.049181572
0.049221101
0.049256908
0.049288986
0.049318176
0.049346104
0.049370606
0.049386891
0.049390248
0.049365542
0.049330927
0.049333774
0.04932261
0.049285712
0.049253361
0.04924171
0.049386182
0.049414979
0.049164702
0.048974804
0.048809022
0.049117163
0.048552718
0.05029377
0.048403003
0.048426699
0.048448528
0.048468549
0.048485812
0.04850028
0.048512436
0.048522586
0.048531478
0.048540056
0.048550136
0.048563873
0.048582382
0.04860645
0.048634524
0.04866495
0.048695744
0.048715606
0.048759794
0.0488085
0.048857345
0.048880405
0.048839101
0.048889743
0.048883634
0.04870896
0.048608675
0.048550133
0.048582826
0.048469708
0.049185746
0.048326985
0.048331082
0.048334633
0.048337585
0.048340193
0.048342095
0.048342371
0.048341074
0.048339478
0.048340104
0.048344289
0.048352667
0.048367404
0.048390753
0.048419158
0.048443684
0.048463969
0.04851346
0.048578295
0.048652011
0.048713454
0.048763376
0.048678958
0.048642752
0.048577762
0.048455206
0.048390023
0.048350295
0.048280044
0.048299332
0.048373897
0.048310154
0.048309872
0.048309202
0.048307559
0.048304499
0.048299573
0.048292446
0.048283037
0.048271625
0.048259253
0.048247203
0.048236766
0.048228612
0.04822253
0.048218003
0.048214958
0.048213161
0.048210827
0.048207885
0.048202917
0.048200827
0.048199397
0.048173628
0.048111277
0.048090419
0.04805905
0.048038212
0.048027896
0.048012097
0.048178479
0.047995536
0.0043090935
0.0067308493
0.01014924
0.014591665
0.020170034
0.027066491
0.035498823
0.045832234
0.057923169
0.072370057
0.089463925
0.10946801
0.13265944
0.15937505
0.18992211
0.224511
0.26315761
0.30552857
0.35075684
0.3971561
0.44198065
0.4809602
0.50792056
0.51452156
0.48996731
0.42524992
0.31526928
0.18476748
0.10017151
0.068401223
0.05411672
0.0073362112
0.010614242
0.014627708
0.01953511
0.025496548
0.032759725
0.04167747
0.052317457
0.064837345
0.079668395
0.097095594
0.11740091
0.1408792
0.16784804
0.19858903
0.23328322
0.27190626
0.31407897
0.35888322
0.40458917
0.44840047
0.48601116
0.51122857
0.51575131
0.48889072
0.42202457
0.31048811
0.18053697
0.098516362
0.067875057
0.053961484
0.0092612597
0.012745849
0.01712763
0.022547337
0.02914151
0.037145006
0.046760687
0.057927132
0.071047143
0.086418329
0.10431477
0.12502839
0.14886336
0.17612766
0.20708814
0.24189958
0.28050227
0.32247485
0.36685109
0.41186101
0.45466091
0.49091204
0.51440374
0.51687409
0.48773771
0.41876751
0.30569082
0.17634609
0.096897158
0.067352483
0.053818109
0.011508061
0.015465243
0.020301536
0.026158821
0.033224915
0.041733082
0.051725533
0.063420203
0.077084627
0.092967432
0.1113322
0.1324651
0.15666651
0.1842343
0.21541731
0.2503457
0.2889249
0.33069245
0.37464021
0.41895486
0.46075145
0.49565825
0.51744727
0.51789485
0.48652293
0.41548403
0.30089059
0.17222154
0.095340055
0.066847468
0.053688202
0.013709511
0.018049872
0.023306103
0.029624092
0.037247429
0.046204366
0.05666292
0.068869385
0.083038551
0.099401411
0.11821373
0.13975274
0.1643124
0.1921763
0.22357522
0.25861352
0.2971625
0.33871947
0.38223765
0.42586153
0.46666674
0.50024883
0.52036332
0.5188228
0.48525869
0.41218918
0.29610417
0.16818639
0.09385842
0.066364191
0.053569362
0.015829461
0.020612288
0.026330361
0.033153467
0.041231631
0.050637827
0.061590323
0.074285343
0.088927874
0.10574038
0.12497506
0.146901
0.17180221
0.19994896
0.23155295
0.26669035
0.30519956
0.3465429
0.38963101
0.43257147
0.47240081
0.50468219
0.52315556
0.5196672
0.48395798
0.40889953
0.29134924
0.1642608
0.09245944
0.06590352
0.053459038
0.017972702
0.023185664
0.029354632
0.036691997
0.045185371
0.055063609
0.066492361
0.079650803
0.094740549
0.11197806
0.13161084
0.15390199
0.17912587
0.20754019
0.23933608
0.27455982
0.31302
0.35414614
0.39680741
0.43907514
0.47794838
0.50895787
0.5258288
0.52043835
0.48263477
0.40563185
0.28664336
0.16046222
0.091146462
0.065464964
0.053355478
0.020061318
0.025709531
0.032350097
0.04014506
0.049101433
0.059447952
0.071337565
0.084941101
0.10045593
0.11809591
0.13810427
0.16073948
0.18626754
0.21493261
0.24690435
0.28220217
0.32060751
0.36151342
0.40375408
0.44536354
0.48330502
0.51307663
0.528389
0.52114737
0.48130365
0.40240303
0.28200351
0.15680544
0.089920327
0.065047572
0.053264522
0.022123182
0.028202452
0.035320801
0.043529277
0.052957379
0.063764595
0.076099003
0.09012959
0.10604918
0.12407028
0.14443302
0.16739274
0.19320724
0.22210384
0.25423497
0.28959776
0.32794152
0.36862882
0.41045835
0.45142815
0.488467
0.51704004
0.53084289
0.52180598
0.47997968
0.39923002
0.27744603
0.15330254
0.088780092
0.064650505
0.053180027
0.024148379
0.030655708
0.03822463
0.046859113
0.056742233
0.067991251
0.08075145
0.095188896
0.11149272
0.12987443
0.1505719
0.17383814
0.1999201
0.22902959
0.26130506
0.29672378
0.33500271
0.37547625
0.41690776
0.45726087
0.49343114
0.52085028
0.53319787
0.52242642
0.47867823
0.39612972
0.27298655
0.14996316
0.087723589
0.064272958
0.053103443
0.026138988
0.033071875
0.041048544
0.050121022
0.060434472
0.072102981
0.085267644
0.10009064
0.11675756
0.13548024
0.15649426
0.18004693
0.20637554
0.23568258
0.26809255
0.30355731
0.34177174
0.38203948
0.42308999
0.46285398
0.49819477
0.52451011
0.53546187
0.5230212
0.47741494
0.39311878
0.26863987
0.14679466
0.086747826
0.063914153
0.053030018
0.028095874
0.035431197
0.043799675
0.053289932
0.06401003
0.076073332
0.08961917
0.10480647
0.12181757
0.14086065
0.16216968
0.18598476
0.2125427
0.24203615
0.27456851
0.31007558
0.34822894
0.38830228
0.42899298
0.46820011
0.50275562
0.52802266
0.53764312
0.52360305
0.47620554
0.39021351
0.26441986
0.14380232
0.085849269
0.063573516
0.052961461
0.030010384
0.037722813
0.04647089
0.056346819
0.067452423
0.079882168
0.09378362
0.10931109
0.12664464
0.14598536
0.16756451
0.19162396
0.21839151
0.24805922
0.28070669
0.31625571
0.35435437
0.39424846
0.43460487
0.47329218
0.5071117
0.53139127
0.53975009
0.52418462
0.47506578
0.38742966
0.26033939
0.14098963
0.085024037
0.063250657
0.052898185
0.031884193
0.039946326
0.049057423
0.059280403
0.070735425
0.083509983
0.097738869
0.1135769
0.13120191
0.15081821
0.17264442
0.19692977
0.22389682
0.25372341
0.28648156
0.32207446
0.36012806
0.39986194
0.43991397
0.47812332
0.51126117
0.53461934
0.54179124
0.52477844
0.47401125
0.38478234
0.25641029
0.13835612
0.084267944
0.062945026
0.05284013
0.033653985
0.042022474
0.051456028
0.062014872
0.073806983
0.086915511
0.10144692
0.11756621
0.13544983
0.15531202
0.17737636
0.20187061
0.22902232
0.25900016
0.29186707
0.32750847
0.36553005
0.40512673
0.44490876
0.48268675
0.51520221
0.53771022
0.54377481
0.52539662
0.47305727
0.3822859
0.25264416
0.1358983
0.083575172
0.062654027
0.052786659
0.035255063
0.043922668
0.053658855
0.064540675
0.076632184
0.090030064
0.10484585
0.12122358
0.1393509
0.15943723
0.18171568
0.20640845
0.23373593
0.26386083
0.29683693
0.33253435
0.37054044
0.41002689
0.44957772
0.48697575
0.51893289
0.54066702
0.5457087
0.52605077
0.47221872
0.37995374
0.24906516
0.13358695
0.082937182
0.062376055
0.052737027
0.036964197
0.045831815
0.055776165
0.066876662
0.079199353
0.092831293
0.10788689
0.12450296
0.14285542
0.16315439
0.18563179
0.21051162
0.23800781
0.26827689
0.30136495
0.33712883
0.37513942
0.41454655
0.45390937
0.49098348
0.52245101
0.54349239
0.54760026
0.52675178
0.47150993
0.37779821
0.24569577
0.13139629
0.082348839
0.062110553
0.052690903
0.038637619
0.047662499
0.057765683
0.069016462
0.081503571
0.095313309
0.11055587
0.12737079
0.14592966
0.16643312
0.1890957
0.21415072
0.24180852
0.27222008
0.30542516
0.3412688
0.37930729
0.41866985
0.45789211
0.49470293
0.52575401
0.54618832
0.54945616
0.5275097
0.47094446
0.37583037
0.24255664
0.12930306
0.081806759
0.061857323
0.052648134
0.040285926
0.049411851
0.059615549
0.070972662
0.083564916
0.097489219
0.11286066
0.12981933
0.14853501
0.16920295
0.19204184
0.2172717
0.24509683
0.27566187
0.30899192
0.3449314
0.38302445
0.42238095
0.46151422
0.49812676
0.52883895
0.548756
0.5512821
0.5283336
0.47053481
0.37405992
0.2396666
0.12728557
0.081308494
0.061616071
0.052608675
0.041877847
0.051052001
0.061301276
0.072713099
0.085368703
0.099368926
0.11483113
0.1318969
0.15073715
0.17154166
0.194522
0.21989724
0.2478683
0.27857601
0.31203791
0.34808794
0.3862607
0.42565463
0.46476348
0.50124725
0.53170234
0.55119578
0.55308272
0.52923134
0.47029196
0.37249508
0.23704279
0.12532287
0.080852069
0.061386125
0.052571646
0.043416612
0.05257016
0.062801593
0.074209099
0.086873802
0.10089798
0.11639921
0.13352444
0.15244913
0.17336084
0.19646403
0.22197211
0.2500835
0.28093659
0.31454368
0.35072977
0.38901963
0.42849393
0.46762802
0.50405642
0.53433122
0.55350689
0.55486132
0.53020952
0.47022302
0.37114255
0.23470088
0.12339386
0.080435889
0.061166825
0.052534938
0.044901001
0.053958926
0.064098663
0.075435395
0.08804793
0.1020374
0.1175407
0.13470395
0.15369035
0.17468428
0.1978866
0.22350576
0.25173964
0.2827272
0.31648294
0.35282734
0.3912697
0.43087318
0.47009587
0.50654587
0.53673931
0.55568809
0.55661979
0.5312733
0.47033302
0.37000739
0.23265542
0.12147683
0.080058556
0.060953244
0.052526279
0.046349784
0.05522814
0.065188816
0.076369433
0.088875582
0.10282114
0.11832093
0.13549285
0.15446591
0.17546797
0.19871804
0.22442099
0.25277134
0.2839067
0.31783283
0.35436499
0.39300504
0.43279891
0.47216134
0.50870646
0.53891086
0.55773703
0.55835627
0.53242601
0.47062608
0.36909316
0.23092045
0.11954889
0.07971904
0.060748688
0.052527093
0.047829032
0.056421904
0.066095452
0.077008103
0.089312837
0.10309975
0.11849341
0.13561535
0.15458309
0.1756055
0.19890661
0.22469095
0.25315218
0.28443144
0.31853054
0.35526084
0.39412009
0.43414083
0.47372301
0.51044741
0.5407561
0.55957076
0.56002014
0.53365201
0.47110529
0.36840299
0.22951116
0.11758559
0.079415961
0.06055446
0.052529621
0.0043102517
0.0066685904
0.009934747
0.01419894
0.019573893
0.026118887
0.034184991
0.044057006
0.055703626
0.069646249
0.086205554
0.10567868
0.12840389
0.15468105
0.184839
0.21911136
0.25754142
0.29983015
0.34514883
0.39187644
0.43728469
0.47712104
0.50522605
0.51326892
0.49040891
0.4273753
0.31878393
0.18808064
0.10153975
0.068882039
0.054254158
0.0045835898
0.0070081167
0.010214272
0.014357586
0.019573588
0.026008012
0.033946244
0.043636216
0.055186074
0.068887839
0.085126107
0.10425669
0.12663113
0.15258508
0.1824404
0.21643529
0.25462795
0.29674131
0.34197287
0.38873212
0.43432338
0.47452583
0.50321139
0.51205777
0.49022674
0.42829943
0.32079288
0.19014396
0.10238924
0.069201399
0.05438588
0.004870312
0.0073357956
0.010529512
0.014617795
0.019744133
0.026046929
0.033812246
0.043276238
0.054578602
0.068020082
0.083960941
0.10276859
0.12480742
0.15042581
0.17995676
0.21365116
0.25158365
0.29350037
0.33862717
0.3854058
0.43117698
0.47175517
0.50104567
0.51073752
0.49000217
0.42924501
0.32290208
0.19234938
0.10331152
0.069557305
0.054540159
0.0051675925
0.007657515
0.010837298
0.014870012
0.019906113
0.026082386
0.033673241
0.042916895
0.053974369
0.067145336
0.082780968
0.10125278
0.12294042
0.14820365
0.17738838
0.21075824
0.24840627
0.2901034
0.33510571
0.38188995
0.4278358
0.46879827
0.49871756
0.50929735
0.48972626
0.43020685
0.32511059
0.19470145
0.10430914
0.069956363
0.054730514
0.0054758276
0.0079750201
0.011136771
0.015114848
0.020061169
0.026114329
0.033530649
0.042558191
0.053371024
0.066265012
0.081587854
0.09970962
0.12103193
0.14592091
0.17473799
0.20775868
0.24509655
0.28654908
0.33140464
0.37817867
0.4242913
0.46564439
0.49621546
0.50772591
0.48938997
0.43117941
0.32741806
0.19720655
0.10539689
0.070399031
0.054945506
0.0058035519
0.0083026484
0.011439969
0.015360404
0.020214808
0.026144831
0.033385812
0.042199416
0.052765852
0.065379446
0.080382479
0.098150806
0.11909656
0.14359228
0.17202036
0.20466512
0.24166373
0.28284226
0.32752434
0.37426767
0.42053678
0.46228568
0.49353192
0.50601855
0.48898001
0.43217584
0.32983709
0.19988567
0.10658566
0.070879965
0.055137598
0.006134156
0.0086213603
0.011730497
0.015593471
0.020357242
0.026166671
0.033235102
0.041839604
0.052161761
0.064497215
0.079176258
0.096598535
0.11715369
0.14124299
0.16925009
0.20148894
0.23811571
0.27898702
0.32346496
0.37015278
0.41656635
0.45871381
0.49065661
0.50416498
0.48848371
0.43319489
0.33237038
0.20275177
0.10787964
0.071418425
0.055402679
0.006486415
0.0089578804
0.012036014
0.015841488
0.020516241
0.026207206
0.033105873
0.041504788
0.051583573
0.06363759
0.077989334
0.095042217
0.11519362
0.13885704
0.16642008
0.1982247
0.23444815
0.2749795
0.31922213
0.36582884
0.41237124
0.45491433
0.48757244
0.50214487
0.48789365
0.43420944
0.33500203
0.20579868
0.10928855
0.072024576
0.055747325
0.0068571792
0.0093095414
0.012353902
0.016101135
0.020687239
0.026260031
0.032993543
0.041186122
0.051020704
0.062778742
0.076810676
0.093488268
0.11322337
0.13643867
0.16353766
0.19487965
0.23066706
0.27082358
0.31479686
0.36129327
0.40794453
0.45087737
0.48426692
0.49994469
0.48719655
0.43520997
0.33772796
0.20903284
0.11082293
0.072708103
0.056132547
0.0072585633
0.0096893625
0.012696063
0.016382466
0.020878725
0.026333074
0.032905938
0.040890412
0.050481419
0.061952677
0.075649786
0.091944242
0.11125097
0.13400076
0.16061116
0.19146223
0.22677974
0.26652455
0.31019152
0.35654462
0.40328066
0.4465934
0.48072742
0.49754996
0.48637709
0.43618524
0.34054257
0.21245988
0.11249375
0.073476022
0.056519811
0.0076980767
0.010105091
0.013071557
0.016695186
0.021100334
0.026436432
0.032850616
0.040626017
0.049973414
0.061157096
0.074515864
0.090418585
0.10928509
0.13155253
0.15764894
0.1879821
0.2227949
0.26208928
0.30541008
0.35158303
0.39837482
0.44205523
0.47694206
0.49494492
0.48541728
0.43712214
0.34343846
0.21608431
0.11431244
0.074329981
0.056826038
0.0081942277
0.010572947
0.013494648
0.017052423
0.021365303
0.026579421
0.032836435
0.040402028
0.049505158
0.060399479
0.073425122
0.088920449
0.10733495
0.12910434
0.15467026
0.18445033
0.21872267
0.25752628
0.30045837
0.34641052
0.39322528
0.43725625
0.47289707
0.49211382
0.48429869
0.43800552
0.34640629
0.2199094
0.11629063
0.075263275
0.057044088
0.0087584213
0.011105245
0.013978798
0.017467302
0.021685274
0.026774207
0.032873569
0.040228086
0.049085257
0.059685302
0.072354077
0.087454756
0.10540964
0.12666669
0.15168557
0.18087861
0.21457449
0.25284579
0.29534411
0.34103102
0.3878311
0.43218862
0.46858013
0.48904327
0.4830045
0.43881872
0.34943459
0.22393697
0.11844004
0.076258407
0.057207234
0.009415631
0.011722443
0.014540693
0.017954274
0.022072966
0.027032965
0.032972676
0.040114069
0.048722755
0.059023926
0.071330248
0.086031527
0.10351894
0.12424941
0.14869136
0.17727827
0.21036296
0.24805965
0.29007699
0.33545057
0.38219307
0.42684688
0.46397973
0.4857189
0.48151704
0.43954508
0.35250979
0.22816719
0.12077245
0.077282934
0.05728392
0.010171956
0.012435438
0.015192679
0.018525645
0.022539955
0.027366702
0.033143737
0.0400695
0.048427035
0.058427455
0.070382203
0.084665451
0.10167384
0.12186371
0.14570954
0.17366171
0.20610184
0.24318132
0.28466868
0.3296774
0.37631431
0.4212273
0.45908916
0.48212462
0.47981716
0.44016634
0.3556162
0.23259844
0.12330011
0.078305462
0.057269738
0.011036483
0.01325264
0.015943638
0.019190353
0.023094989
0.027783952
0.033394763
0.040102409
0.048206119
0.057903527
0.069502815
0.083375453
0.099885559
0.11952066
0.14275228
0.17003977
0.20180601
0.23822575
0.27913283
0.32372209
0.37020048
0.41533016
0.45390284
0.47824169
0.47788521
0.44066268
0.35873607
0.2372272
0.12603644
0.079332774
0.057211194
0.012025147
0.014181824
0.016798492
0.019952612
0.023742289
0.028289036
0.033729881
0.040219189
0.048065308
0.057457164
0.06869454
0.082132083
0.098156919
0.11722985
0.13983283
0.16644402
0.19749218
0.23320922
0.27348493
0.31759754
0.36385976
0.40915716
0.4484117
0.47405401
0.47570074
0.44101285
0.36184977
0.24204784
0.12899686
0.080386108
0.057104545
0.013125616
0.015217354
0.017753569
0.020809632
0.024479737
0.028880351
0.03414816
0.040424013
0.048006411
0.057090847
0.067961427
0.080954889
0.096495053
0.11500033
0.1369626
0.16288033
0.193176
0.22814895
0.26774221
0.31131897
0.35730298
0.40271203
0.44260964
0.46954658
0.47324246
0.44119417
0.36493631
0.2470525
0.13220005
0.081491819
0.057034569
0.014322645
0.016344659
0.018796147
0.021750568
0.025298439
0.029551432
0.034645833
0.040710755
0.048028749
0.056805519
0.067311004
0.079879676
0.094913719
0.11284163
0.13415071
0.15934403
0.18887105
0.22306259
0.26192333
0.30490385
0.35054381
0.39600181
0.4364944
0.46471233
0.47048805
0.44118539
0.36797442
0.25223078
0.13566934
0.082716948
0.057103809
0.015597205
0.017545981
0.019910039
0.022761039
0.026186159
0.030292665
0.035211987
0.041069931
0.048126845
0.056598155
0.066741526
0.078886021
0.09342699
0.11076272
0.1314071
0.15586074
0.18459111
0.21796814
0.25604813
0.29837165
0.34359864
0.38903692
0.43006895
0.45954813
0.46741207
0.44097329
0.37094232
0.25756927
0.13943602
0.08413669
0.057315728
0.016925808
0.018799183
0.021074605
0.023821983
0.027125332
0.03108742
0.035834012
0.041489391
0.048291284
0.056461754
0.06624733
0.07796817
0.092003701
0.1087612
0.12873818
0.15244088
0.18034487
0.21288372
0.25013732
0.2917436
0.33648654
0.38183089
0.42333862
0.45404251
0.46400066
0.44053562
0.37381506
0.26305034
0.14353654
0.085817837
0.057684116
0.018292355
0.020089256
0.022275126
0.024918571
0.028100956
0.0319208
0.036498215
0.041955927
0.048510413
0.056386386
0.065819748
0.077118601
0.090639652
0.10683502
0.12614856
0.1490975
0.17618932
0.2078312
0.24421219
0.28504228
0.32922892
0.37440036
0.4163108
0.44818889
0.46024618
0.4398437
0.37656323
0.26865069
0.14801283
0.087835841
0.05820828
0.019665049
0.021388766
0.023487916
0.026029961
0.029094197
0.032775486
0.037188708
0.042454705
0.048770835
0.056360691
0.065450793
0.076339264
0.08937898
0.10499455
0.1236432
0.14583502
0.17208927
0.20282335
0.23829314
0.27829106
0.32184923
0.366765
0.40899687
0.44198875
0.45612545
0.43886651
0.37915108
0.27433936
0.15290482
0.090221916
0.058853137
0.021040355
0.022692545
0.024706143
0.027147871
0.030095501
0.033640849
0.037894069
0.042973701
0.049060477
0.056373442
0.065130698
0.075620314
0.088186402
0.10323812
0.12122443
0.14265735
0.1680565
0.19787151
0.23239923
0.2715135
0.31437247
0.35894727
0.40141189
0.43544409
0.45163157
0.4375735
0.38153659
0.28007622
0.15824445
0.093008752
0.059772083
0.022403579
0.023987184
0.025917865
0.028261435
0.03109448
0.034506453
0.038603517
0.043501709
0.049367851
0.056413596
0.064849386
0.074953095
0.087059548
0.10157269
0.11889416
0.1395685
0.16410948
0.19297926
0.22654811
0.26473289
0.30682463
0.35097203
0.3935743
0.42856233
0.44676079
0.43591825
0.38368113
0.28581279
0.16404971
0.096193366
0.060791879
0.023748463
0.025267407
0.027118359
0.029366183
0.032086526
0.035367073
0.039310792
0.044031213
0.04968405
0.0564714
0.06459625
0.074324826
0.085976943
0.099926461
0.11663153
0.13656585
0.1602569
0.18819697
0.22076171
0.25797223
0.29923213
0.34286608
0.38550586
0.42135299
0.44149699
0.43385332
0.385543
0.29149468
0.17032128
0.099773467
0.062141576
0.025073948
0.026531927
0.028306106
0.030460326
0.033069365
0.036219599
0.040011578
0.044556485
0.050001661
0.056538243
0.064362039
0.073727422
0.084940672
0.09836369
0.11444529
0.13364981
0.15650097
0.18351461
0.21505397
0.25125254
0.29162108
0.33465766
0.37723176
0.41383064
0.43583413
0.43135278
0.38708287
0.29706404
0.1770421
0.10369646
0.063839149
0.026374666
0.027777203
0.029479046
0.031542864
0.0340425
0.037063352
0.040704303
0.045074567
0.050315725
0.056607557
0.064139121
0.073153261
0.083943769
0.096862719
0.11233124
0.1308176
0.15283707
0.17890559
0.20943036
0.24459167
0.28401648
0.32637572
0.36878013
0.40601615
0.42977862
0.42840313
0.38825847
0.30246158
0.18417309
0.10798799
0.065727126
0.027648983
0.02900207
0.030637104