/*--------------------------------*- C++ -*----------------------------------*\
| =========                 |                                                 |
| \\      /  F ield         | OpenFOAM: The Open Source CFD Toolbox           |
|  \\    /   O peration     | Version:  2406                                  |
|   \\  /    A nd           | Website:  www.openfoam.com                      |
|    \\/     M anipulation  |                                                 |
\*---------------------------------------------------------------------------*/
FoamFile
{
    version     2.0;
    format      ascii;
    arch        "LSB;label=32;scalar=64";
    class       volScalarField;
    location    "0.1";
    object      T;
}
// * * * * * * * * * * * * * * * * * * * * * * * * * * * * * * * * * * * * * //

dimensions      [0 0 0 1 0 0 0];

internalField   nonuniform List<scalar> 
8260
(
292.16155
292.16745
292.17959
292.20273
292.23513
292.27464
292.31881
292.36575
292.41378
292.46088
292.50535
292.54617
292.58275
292.61459
292.64185
292.66481
292.68384
292.69954
292.71253
292.72325
292.7323
292.74034
292.74835
292.75774
292.77012
292.78662
292.81959
292.88218
292.96673
293.09936
293.36588
292.25872
292.2575
292.26362
292.27854
292.30095
292.32997
292.36429
292.40238
292.44263
292.48324
292.52252
292.55928
292.59274
292.62225
292.64777
292.66944
292.68752
292.70252
292.71498
292.72529
292.73404
292.74184
292.74965
292.75885
292.77115
292.78766
292.82093
292.88371
292.96703
293.09949
293.36453
292.35889
292.35266
292.35217
292.35869
292.37149
292.39035
292.41471
292.44351
292.47542
292.5089
292.54232
292.57446
292.60433
292.63112
292.65462
292.67481
292.6918
292.70599
292.71785
292.72769
292.73609
292.74362
292.75118
292.76014
292.77232
292.7888
292.82242
292.88541
292.96747
293.09958
293.36256
292.45791
292.44735
292.44086
292.43982
292.44405
292.45368
292.46861
292.48828
292.51174
292.53775
292.5649
292.59193
292.61775
292.64146
292.66264
292.68109
292.6968
292.71005
292.72118
292.73048
292.73847
292.74567
292.75294
292.76164
292.77367
292.79011
292.82414
292.88733
292.96834
293.09964
293.3614
292.55306
292.53911
292.52779
292.52044
292.51731
292.51878
292.52509
292.53611
292.55129
292.56975
292.59034
292.61187
292.63324
292.65347
292.672
292.68843
292.70265
292.71479
292.72507
292.73373
292.74123
292.74804
292.75497
292.76337
292.77526
292.79162
292.82615
292.88953
292.96995
293.09966
293.3611
292.64283
292.62652
292.61165
292.5994
292.59024
292.58475
292.58343
292.5865
292.59379
292.6048
292.61868
292.63442
292.65097
292.66735
292.68287
292.697
292.70949
292.72032
292.72961
292.73751
292.74443
292.75078
292.75733
292.76537
292.77711
292.79337
292.82849
292.89207
292.97249
293.09965
293.36162
292.7255
292.70793
292.69081
292.67509
292.66136
292.6503
292.64256
292.63863
292.6387
292.64259
292.64982
292.65962
292.67108
292.68328
292.69545
292.70697
292.71747
292.72677
292.7349
292.74192
292.74816
292.75397
292.76006
292.76769
292.7792
292.7954
292.83125
292.89498
292.97592
293.0996
293.36287
292.7998
292.78189
292.76363
292.7458
292.72897
292.71383
292.70109
292.69139
292.68517
292.68259
292.68348
292.68739
292.69363
292.70139
292.70991
292.71852
292.72676
292.73431
292.74109
292.74708
292.75251
292.75768
292.76323
292.77038
292.78159
292.79777
292.8345
292.89834
292.97983
293.09949
293.3648
292.86448
292.84679
292.82845
292.80983
292.79139
292.77371
292.7575
292.74344
292.73213
292.72399
292.71915
292.71748
292.71854
292.72174
292.72638
292.73183
292.73753
292.74309
292.74832
292.7531
292.75759
292.762
292.76693
292.77352
292.78433
292.80056
292.83835
292.9022
292.9836
293.09931
293.36747
292.91928
292.90241
292.88477
292.86641
292.84755
292.82869
292.81043
292.79346
292.7784
292.76583
292.75613
292.74944
292.74561
292.74429
292.74495
292.74702
292.74995
292.75328
292.75674
292.76013
292.76351
292.76705
292.77123
292.77718
292.78751
292.80385
292.84293
292.90661
292.98682
293.09904
293.37096
292.96502
292.94938
292.93272
292.91518
292.89681
292.87786
292.85882
292.84026
292.82281
292.80707
292.79356
292.78265
292.77445
292.76887
292.7656
292.76419
292.76416
292.76505
292.76652
292.76832
292.77043
292.77293
292.77625
292.78146
292.79122
292.80778
292.84841
292.91161
292.98941
293.09862
293.37531
293.00164
292.98774
292.97259
292.95627
292.93897
292.92077
292.90195
292.88297
292.86436
292.84669
292.83053
292.81637
292.80454
292.79517
292.78819
292.78335
292.78027
292.77855
292.77784
292.77785
292.7785
292.7798
292.78212
292.78647
292.79557
292.81252
292.85497
292.91722
292.99146
293.09802
293.38039
293.03032
293.01813
293.00475
292.99009
292.97423
292.95733
292.93949
292.921
292.90229
292.88383
292.86617
292.84982
292.83524
292.82275
292.81248
292.8044
292.7983
292.79388
292.79083
292.78888
292.78788
292.78781
292.78897
292.79234
292.80072
292.81831
292.86283
292.92338
292.99314
293.09721
293.38575
293.0524
293.04186
293.0302
293.01734
293.0032
292.98787
292.97151
292.95421
292.93622
292.91792
292.89977
292.88225
292.86587
292.85105
292.83809
292.82714
292.81819
292.8111
292.80563
292.80157
292.79875
292.79713
292.79698
292.79926
292.80688
292.82548
292.87221
292.92998
292.99455
293.09624
293.39082
293.06944
293.06037
293.05029
293.03912
293.02679
293.01329
292.99865
292.98292
292.96619
292.94872
292.93088
292.91308
292.8958
292.87949
292.86454
292.85126
292.83979
292.83017
292.82231
292.81605
292.81127
292.80795
292.80632
292.80741
292.81431
292.8345
292.88328
292.93685
292.99577
293.09521
293.3953
293.08318
293.07543
293.06678
293.05713
293.04639
293.03446
293.02138
293.00728
292.99217
292.97606
292.95918
292.94186
292.92449
292.90751
292.89133
292.87634
292.86283
292.85097
292.84083
292.83239
292.82558
292.82043
292.81721
292.81703
292.82342
292.84601
292.89607
292.9438
292.99686
293.09403
293.39962
293.09433
293.08771
293.0803
293.07201
293.06275
293.05243
293.04096
293.02828
293.01459
293.00005
292.98462
292.96837
292.95158
292.93463
292.91794
292.90191
292.88691
292.87324
292.8611
292.85059
292.84177
292.83474
292.82985
292.82844
292.83478
292.86078
292.91036
292.95079
292.99795
293.0926
293.4043
293.10333
293.09769
293.09137
293.08428
293.07633
293.06745
293.05757
293.04663
293.03452
293.02132
293.00726
292.99239
292.9767
292.96041
292.94385
292.92743
292.91157
292.8966
292.88285
292.87054
292.85986
292.851
292.8445
292.84207
292.84933
292.87967
292.92547
292.95799
292.99914
293.0908
293.40988
293.11032
293.1056
293.1003
293.09434
293.08763
293.08009
293.07164
293.06222
293.05175
293.0401
293.02726
293.01353
292.99918
292.98414
292.96841
292.95229
292.9362
292.92055
292.90571
292.89201
292.87975
292.86929
292.86143
292.85862
292.8686
292.90255
292.94008
292.96548
293.00061
293.08796
293.41691
293.11407
293.11022
293.10588
293.10098
293.09545
293.08921
293.08217
293.07428
293.06546
293.05566
293.0448
293.0327
293.0194
293.00536
292.99086
292.97575
292.96014
292.94447
292.92915
292.9146
292.90123
292.88963
292.88106
292.87947
292.895
292.92696
292.95294
292.97268
293.00225
293.0841
293.38706
293.11379
293.1108
293.10742
293.10359
293.09922
293.09427
293.08864
293.08227
293.07507
293.06697
293.05791
293.04784
293.03667
293.02428
293.01092
292.99701
292.98252
292.96755
292.95248
292.93775
292.92398
292.91215
292.90473
292.9078
292.92807
292.94922
292.96384
292.97886
293.00328
293.08137
293.3922
293.10789
293.10581
293.10343
293.10071
293.09758
293.09398
293.08985
293.08511
293.07968
293.07347
293.06638
293.05832
293.0492
293.03891
293.02727
293.01459
293.00149
292.98807
292.9743
292.96059
292.94805
292.9385
292.93595
292.94507
292.95867
292.96681
292.97376
292.98412
293.00338
293.07781
293.40906
293.094
293.09287
293.09155
293.09001
293.08819
293.08605
293.08353
293.08057
293.07708
293.07298
293.06818
293.06258
293.05613
293.04873
293.04022
293.03005
293.0181
293.00556
292.9938
292.98355
292.97532
292.97161
292.97377
292.9784
292.98035
292.98155
292.98421
292.98984
293.00363
293.07091
293.37284
293.07098
293.07075
293.07045
293.07004
293.0695
293.06879
293.06786
293.06666
293.06512
293.06317
293.06074
293.05777
293.0542
293.05006
293.0455
293.04078
293.03577
293.02911
293.02037
293.01136
293.00525
293.00266
293.00108
292.9978
292.99582
292.99526
292.99547
292.99767
293.00614
293.06053
293.32995
293.0421
293.04236
293.04262
293.04286
293.04308
293.04325
293.04337
293.0434
293.04331
293.04308
293.04265
293.04197
293.04098
293.03962
293.03793
293.03594
293.03404
293.03302
293.03266
293.03042
293.02491
293.01914
293.0145
293.01048
293.00843
293.00732
293.00619
293.00648
293.01132
293.05672
293.28375
293.02552
293.02578
293.02608
293.02642
293.02681
293.02724
293.02771
293.02821
293.02872
293.0292
293.02962
293.02992
293.03004
293.02991
293.02944
293.02855
293.02716
293.02534
293.0234
293.0226
293.0238
293.02334
293.01985
293.01783
293.01672
293.01581
293.01424
293.01314
293.01501
293.05588
293.30378
293.00818
293.00858
293.00901
293.0095
293.01004
293.01063
293.01128
293.01199
293.01274
293.01354
293.01441
293.01533
293.01631
293.01737
293.01847
293.01954
293.02055
293.02141
293.02224
293.0231
293.02337
293.02222
293.02114
293.0215
293.02167
293.02079
293.01857
293.0157
293.01516
293.0489
293.31947
293.00057
293.0009
293.00129
293.00174
293.00226
293.00286
293.00355
293.00436
293.0053
293.00642
293.00776
293.00931
293.01109
293.01307
293.01519
293.01747
293.01988
293.02225
293.02424
293.02534
293.02468
293.02444
293.02541
293.02575
293.02607
293.02414
293.02014
293.014
293.0094
293.02237
293.27558
293.02446
293.02428
293.02408
293.02387
293.02369
293.02354
293.02345
293.02343
293.0235
293.02369
293.02399
293.02441
293.02494
293.02558
293.02629
293.02704
293.02778
293.02851
293.02988
293.03172
293.03313
293.03375
293.03285
293.03094
293.02881
293.02709
293.0232
293.01394
293.00618
293.00309
293.19391
293.05216
293.05123
293.05019
293.04905
293.04781
293.04647
293.045
293.04339
293.04161
293.03973
293.03783
293.03604
293.03449
293.03322
293.03223
293.03156
293.0313
293.03151
293.03176
293.03222
293.03326
293.03271
293.0291
293.02619
293.02335
293.02348
293.02453
293.01984
293.01237
292.99861
293.1051
293.02137
293.02102
293.02065
293.02023
293.01977
293.01926
293.01869
293.01806
293.01737
293.01664
293.01589
293.01515
293.01445
293.01383
293.01335
293.01305
293.013
293.01326
293.01384
293.01462
293.01523
293.01473
293.01211
293.01855
293.02877
293.02906
293.02573
293.02817
293.02585
293.01809
293.00628
293.46185
293.3499
293.2405
293.13547
293.03652
292.94536
292.86499
292.79708
292.74242
292.70135
292.67313
292.65618
292.64845
292.64782
292.65223
292.65945
292.66802
292.67719
292.68631
292.69505
292.70354
292.71237
292.72172
292.73327
292.74812
292.76539
292.7941
292.84499
292.94896
293.11407
293.47994
293.34832
293.23242
293.12818
293.03175
292.94317
292.86397
292.79627
292.74071
292.69768
292.6671
292.64778
292.63806
292.63598
292.63965
292.64708
292.6563
292.66628
292.67642
292.68617
292.6953
292.70405
292.71305
292.72253
292.73416
292.74906
292.76636
292.79529
292.84685
292.95079
293.11458
293.47507
293.24182
293.13246
293.03471
292.94494
292.86434
292.79473
292.73722
292.69207
292.6591
292.63756
292.62587
292.62238
292.62526
292.63262
292.64254
292.65355
292.66481
292.67586
292.68615
292.69564
292.70464
292.71381
292.7234
292.73509
292.75002
292.76731
292.79645
292.8487
292.95258
293.11502
293.47001
293.11707
293.01904
292.93136
292.85222
292.78322
292.72571
292.68013
292.64626
292.62347
292.61067
292.60619
292.60859
292.61595
292.62646
292.63862
292.65124
292.66369
292.67553
292.68628
292.69611
292.70533
292.71463
292.7243
292.73604
292.75099
292.76826
292.79762
292.85055
292.9543
293.11535
293.46487
292.98263
292.89741
292.82255
292.75712
292.70214
292.6582
292.62532
292.60301
292.59025
292.58596
292.58848
292.59635
292.60765
292.62103
292.63523
292.64937
292.66293
292.67539
292.68656
292.69668
292.70609
292.71551
292.72524
292.73702
292.75197
292.76922
292.79881
292.85238
292.95596
293.11554
293.45968
292.8316
292.76534
292.70898
292.66096
292.62212
292.59279
292.57315
292.56253
292.55958
292.56356
292.57262
292.58534
292.60029
292.61628
292.63237
292.64796
292.66245
292.67542
292.68698
292.69736
292.70694
292.71644
292.72621
292.73801
292.75295
292.77018
292.8
292.85422
292.95754
293.11561
293.45442
292.67444
292.63149
292.596
292.56652
292.5446
292.53037
292.52408
292.52516
292.53176
292.54329
292.55829
292.57552
292.59382
292.61219
292.63007
292.64697
292.66218
292.67563
292.68754
292.69814
292.70785
292.71742
292.72722
292.73903
292.75393
292.77114
292.8012
292.85604
292.95902
293.11554
293.4491
292.51963
292.50002
292.48473
292.47463
292.47032
292.47184
292.47887
292.4907
292.50633
292.52494
292.54547
292.56683
292.58814
292.60878
292.62838
292.64629
292.66211
292.67601
292.68823
292.69902
292.70884
292.71845
292.72826
292.74006
292.7549
292.77211
292.80239
292.85785
292.9604
293.11534
293.44473
292.3659
292.37092
292.37789
292.38775
292.40094
292.4175
292.4371
292.45924
292.48328
292.50849
292.53406
292.55915
292.58326
292.60613
292.62716
292.64582
292.66225
292.67656
292.68904
292.69999
292.7099
292.71953
292.72932
292.7411
292.75587
292.77306
292.80357
292.85963
292.96168
293.11502
293.44116
292.22001
292.24935
292.27813
292.30717
292.33696
292.36762
292.399
292.43081
292.46259
292.4938
292.52393
292.55245
292.57928
292.60414
292.62624
292.64562
292.6626
292.67726
292.68997
292.70105
292.71103
292.72064
292.73041
292.74216
292.75683
292.77402
292.80475
292.8614
292.96283
293.11457
293.43741
292.08613
292.13816
292.1872
292.23398
292.27902
292.32258
292.36473
292.40534
292.44411
292.48074
292.51507
292.5469
292.57624
292.60257
292.62558
292.64569
292.66313
292.67811
292.69101
292.70219
292.71221
292.7218
292.73153
292.74322
292.75778
292.77496
292.80591
292.86313
292.96387
293.11401
293.43295
291.9703
292.0409
292.10711
292.16926
292.22767
292.28264
292.33438
292.38278
292.42777
292.46942
292.50773
292.54258
292.57384
292.60129
292.62523
292.646
292.66385
292.67909
292.69215
292.70341
292.71345
292.72299
292.73266
292.74429
292.75872
292.7759
292.80704
292.86482
292.96479
293.11333
293.42779
291.87577
291.96031
292.03978
292.11422
292.18363
292.24821
292.30827
292.36353
292.41403
292.46016
292.50188
292.53912
292.57189
292.6004
292.6252
292.64653
292.66473
292.68019
292.69339
292.7047
292.71474
292.72422
292.73382
292.74536
292.75965
292.77682
292.80816
292.86648
292.96559
293.11253
293.4221
291.80121
291.89771
291.98733
292.07093
292.14835
292.21999
292.28683
292.34793
292.40311
292.45279
292.49717
292.53625
292.57029
292.59989
292.62543
292.64725
292.66576
292.68141
292.69471
292.70605
292.71608
292.72548
292.735
292.74644
292.76056
292.77773
292.80925
292.8681
292.96627
293.1116
293.41601
291.72664
291.83853
291.9407
292.03446
292.11916
292.19701
292.2696
292.33523
292.39422
292.44669
292.49299
292.53373
292.56914
292.59972
292.6259
292.64815
292.66692
292.68273
292.6961
292.70747
292.71746
292.72676
292.7362
292.7475
292.76145
292.77863
292.81031
292.86966
292.96684
293.11057
293.40972
291.66526
291.78342
291.89408
291.99632
292.09083
292.17735
292.25442
292.32377
292.38594
292.44106
292.48952
292.53184
292.56845
292.59985
292.6266
292.64922
292.66821
292.68413
292.69757
292.70894
292.71887
292.72807
292.73741
292.74857
292.76233
292.77951
292.81134
292.87118
292.96731
293.10948
293.40334
291.65324
291.76538
291.87345
291.9761
292.07289
292.16213
292.24242
292.31474
292.37944
292.43673
292.48697
292.53061
292.5682
292.60029
292.62751
292.65043
292.6696
292.68562
292.69909
292.71044
292.72031
292.7294
292.73863
292.74963
292.7632
292.78037
292.81234
292.87264
292.96767
293.10837
293.397
291.65589
291.7641
291.86882
291.96927
292.06463
292.15349
292.23492
292.30884
292.37512
292.43387
292.48535
292.53
292.56836
292.60101
292.62862
292.65178
292.67109
292.68718
292.70066
292.71199
292.72178
292.73075
292.73985
292.75068
292.76406
292.78122
292.81332
292.87404
292.96793
293.10724
293.3908
291.67547
291.77703
291.87643
291.97263
292.06468
292.15148
292.23218
292.30618
292.37301
292.43247
292.48468
292.53001
292.56892
292.602
292.62991
292.65326
292.67267
292.6888
292.70227
292.71356
292.72326
292.73211
292.74108
292.75172
292.76492
292.78205
292.81428
292.87539
292.96808
293.10612
293.38478
291.71247
291.80416
291.89564
291.98548
292.07251
292.15567
292.23402
292.30676
292.3731
292.43251
292.48495
292.53061
292.56987
292.60323
292.63135
292.65483
292.67432
292.69046
292.70392
292.71515
292.72476
292.73348
292.74231
292.75275
292.76578
292.78286
292.81521
292.87667
292.96813
293.10502
293.37897
291.76622
291.84525
291.92631
292.00761
292.08782
292.16573
292.24026
292.31045
292.37533
292.43399
292.48612
292.53179
292.57117
292.60467
292.63292
292.6565
292.67601
292.69215
292.70558
292.71675
292.72626
292.73486
292.74353
292.75377
292.76665
292.78365
292.81612
292.87789
292.96806
293.10394
293.37351
291.83475
291.89885
291.96738
292.03812
292.10984
292.18108
292.2505
292.31698
292.37953
292.43679
292.48815
292.53348
292.57279
292.60631
292.63461
292.65822
292.67775
292.69386
292.70724
292.71834
292.72776
292.73622
292.74474
292.75477
292.76752
292.78442
292.81701
292.87905
292.96789
293.10276
293.37061
291.91671
291.96299
292.01625
292.07445
292.13636
292.20009
292.26366
292.32566
292.38525
292.44067
292.49089
292.53561
292.57467
292.60809
292.63637
292.65999
292.6795
292.69558
292.7089
292.71992
292.72924
292.73758
292.74594
292.75576
292.76838
292.78516
292.81788
292.88016
292.96759
293.10153
293.36929
292.01969
292.04547
292.07845
292.12056
292.16984
292.22413
292.2805
292.33706
292.39282
292.44573
292.49438
292.53817
292.57677
292.60998
292.63817
292.66176
292.68124
292.69728
292.71053
292.72147
292.73071
292.73893
292.74712
292.75673
292.76924
292.78588
292.81871
292.88119
292.96716
293.10033
293.36907
293.46952
293.35545
293.25211
293.15344
293.05948
292.97201
292.89249
292.82357
292.76681
292.72264
292.69091
292.67038
292.65932
292.65578
292.65778
292.66319
292.67041
292.67855
292.68693
292.69517
292.70332
292.71193
292.72115
292.73263
292.74747
292.76476
292.79338
292.8437
292.94757
293.1133
293.48118
293.44585
293.33524
293.23748
293.14646
293.06096
292.98022
292.90551
292.83921
292.78316
292.73831
292.70496
292.68231
292.66897
292.66323
292.66327
292.66707
292.67303
292.68019
292.68785
292.69558
292.70338
292.71177
292.72084
292.73227
292.74708
292.7644
292.793
292.843
292.94693
293.11353
293.48416
293.42951
293.32479
293.23194
293.1473
293.067
292.99077
292.9195
292.85515
292.7996
292.7541
292.71924
292.6946
292.67904
292.67112
292.66917
292.67129
292.67592
292.68205
292.68892
292.69608
292.7035
292.71163
292.72055
292.73191
292.74668
292.76404
292.79261
292.84228
292.94627
293.1138
293.487
293.41484
293.3154
293.22741
293.14743
293.07166
292.99964
292.93184
292.86977
292.81524
292.76958
292.7336
292.70724
292.68961
292.67956
292.67558
292.67595
292.67916
292.68415
292.69017
292.69671
292.70369
292.71153
292.72028
292.73156
292.74627
292.76367
292.79222
292.84155
292.94559
293.11412
293.48944
293.39847
293.30513
293.2218
293.14587
293.07457
293.00684
292.9427
292.88329
292.83021
292.78482
292.74808
292.72025
292.7007
292.68855
292.68252
292.68107
292.68277
292.68654
292.69162
292.69747
292.70397
292.71149
292.72003
292.73121
292.74585
292.7633
292.79183
292.84082
292.94487
293.1145
293.49063
293.38144
293.29478
293.21605
293.14393
293.07671
293.01304
292.95255
292.89597
292.84464
292.79986
292.76267
292.73359
292.71228
292.6981
292.69001
292.68668
292.68677
292.68924
292.69329
292.69838
292.70435
292.71149
292.71981
292.73088
292.74544
292.76293
292.79144
292.84008
292.94413
293.11495
293.48954
293.3653
293.28462
293.21036
293.14214
293.07872
293.01881
292.9618
292.90808
292.85866
292.81474
292.77736
292.74723
292.72433
292.70819
292.69806
292.6928
292.69121
292.69227
292.69522
292.69947
292.70484
292.71156
292.71961
292.73054
292.74501
292.76255
292.79104
292.83934
292.94335
293.11548
293.48819
293.3503
293.27516
293.20521
293.14079
293.08095
293.02451
292.97076
292.91981
292.87238
292.82949
292.79216
292.76119
292.73684
292.71885
292.70668
292.69944
292.69609
292.69567
292.69742
292.70076
292.70546
292.7117
292.71947
292.73023
292.7446
292.76218
292.79066
292.8386
292.94255
293.11613
293.48663
293.33693
293.26696
293.2012
293.14043
293.08391
293.03062
292.97984
292.93148
292.88601
292.84423
292.8071
292.77546
292.74981
292.73005
292.71589
292.70665
292.70147
292.69947
292.69993
292.70227
292.70623
292.71194
292.71938
292.72995
292.7442
292.76183
292.79028
292.83788
292.94173
293.11693
293.48491
293.32566
293.26086
293.19942
293.14195
293.08828
293.0377
292.98951
292.94345
292.89978
292.8591
292.82227
292.7901
292.76323
292.74181
292.72569
292.71443
292.70736
292.7037
292.70277
292.70402
292.70717
292.71229
292.71936
292.7297
292.74382
292.76149
292.78992
292.83718
292.9409
293.1179
293.48315
293.31754
293.25746
293.2
293.14566
293.09455
293.04627
293.00024
292.95611
292.91399
292.8743
292.83775
292.80513
292.77714
292.75413
292.73609
292.7228
292.71378
292.70838
292.70598
292.70605
292.70831
292.71277
292.71941
292.7295
292.74348
292.76118
292.78959
292.83651
292.94008
293.11907
293.4815
293.31395
293.25822
293.2039
293.15219
293.10327
293.05685
293.01249
292.96987
292.92895
292.89004
292.85369
292.82063
292.79156
292.76702
292.74711
292.73179
292.72077
292.71354
292.70958
292.70838
292.70967
292.7134
292.71957
292.72937
292.74317
292.7609
292.78928
292.83589
292.93927
293.12045
293.48003
293.31554
293.2631
293.21161
293.16215
293.11496
293.06992
293.02672
292.98509
292.94497
292.90654
292.87022
292.83666
292.80654
292.78047
292.75873
292.74139
292.72834
292.71922
292.71361
292.71105
292.71127
292.7142
292.71984
292.72929
292.74289
292.76065
292.78901
292.83532
292.93849
293.12204
293.47876
293.32243
293.27295
293.22386
293.17611
293.13009
293.08586
293.04327
293.00212
292.96233
292.92402
292.8875
292.85332
292.82211
292.79452
292.77096
292.75161
292.7365
292.72543
292.71808
292.71407
292.71314
292.71519
292.72024
292.72928
292.74267
292.76044
292.78879
292.83482
292.93774
293.12386
293.47753
293.33497
293.28802
293.24075
293.19417
293.1488
293.10486
293.06234
293.02114
292.98121
292.94263
292.90564
292.87067
292.83831
292.80917
292.7838
292.76244
292.74526
292.73219
292.72303
292.71748
292.7153
292.71641
292.72079
292.72936
292.7425
292.76028
292.78862
292.8344
292.93705
293.12582
293.47602
293.3528
293.30778
293.26185
293.21601
293.17088
293.12679
293.0839
293.04219
293.00169
292.96246
292.92469
292.88875
292.85514
292.82444
292.79723
292.77388
292.75461
292.73951
292.72847
292.7213
292.71779
292.71787
292.72151
292.72957
292.7424
292.76016
292.78852
292.83407
292.93642
293.12784
293.47387
293.37495
293.33131
293.28631
293.2409
293.19572
293.1512
293.10761
293.06507
293.02365
292.98346
292.94466
292.90756
292.87259
292.84029
292.81123
292.7859
292.76455
292.74738
292.73442
292.72554
292.72062
292.71958
292.72242
292.72991
292.74239
292.76011
292.7885
292.83386
292.93585
293.12983
293.47084
293.39913
293.35681
293.31266
293.26762
293.22232
293.17728
293.13288
293.08933
293.04679
293.00544
292.96543
292.92702
292.8906
292.85667
292.82578
292.79845
292.77504
292.7558
292.74087
292.73023
292.72382
292.72158
292.72354
292.73039
292.74249
292.76011
292.78855
292.83378
292.93535
293.1317
293.46752
293.42319
293.3823
293.33918
293.29467
293.24942
293.20401
293.15888
293.11435
293.07067
293.02808
292.98676
292.94698
292.90907
292.87349
292.84078
292.81148
292.78604
292.76473
292.74782
292.73537
292.72739
292.72388
292.72491
292.73104
292.74271
292.76018
292.78871
292.83385
292.93491
293.1334
293.46475
293.44575
293.40649
293.36463
293.32091
293.27597
293.23042
293.18477
293.13943
293.09473
293.05095
293.00835
292.9672
292.92781
292.89063
292.85615
292.82493
292.79748
292.77415
292.75525
292.74095
292.73135
292.72651
292.72651
292.73187
292.74306
292.76037
292.78896
292.83409
292.93454
293.13478
293.45646
293.46525
293.42796
293.3877
293.34513
293.30088
293.25555
293.20972
293.16385
293.11835
293.07357
293.02982
292.98739
292.94661
292.9079
292.87174
292.83869
292.8093
292.78399
292.76312
292.74697
292.73571
292.72946
292.72837
292.73292
292.74355
292.7607
292.78935
292.83451
292.93422
293.13574
293.45152
293.48107
293.4461
293.4078
293.36675
293.32353
293.27878
293.23309
293.187
293.14098
293.09545
293.05075
293.00722
292.96519
292.92509
292.88739
292.85263
292.82138
292.79417
292.77139
292.75339
292.74045
292.73276
292.73051
292.7342
292.7442
292.7612
292.78989
292.83513
292.93396
293.13623
293.4465
293.49151
293.45927
293.42345
293.38446
293.34285
293.29919
293.25413
293.20825
293.16209
293.11611
293.07074
293.02633
292.98327
292.94196
292.90288
292.86657
292.83362
292.8046
292.77999
292.76019
292.74557
292.7364
292.73294
292.73574
292.74507
292.76186
292.7906
292.83596
292.93375
293.1362
293.4404
293.49713
293.46787
293.43482
293.39828
293.35867
293.31655
293.27253
293.22724
293.18128
293.13518
293.08942
293.04442
293.00056
292.95827
292.91802
292.88035
292.84587
292.81517
292.78883
292.7673
292.75102
292.74036
292.73566
292.73748
292.74617
292.76276
292.7915
292.83704
292.93359
293.13569
293.43863
293.49689
293.47083
293.44091
293.40726
293.37018
293.33012
293.28767
293.24346
293.19813
293.15229
293.10648
293.06116
293.01677
292.97375
292.93257
292.89378
292.85796
292.82577
292.79782
292.77465
292.75677
292.74464
292.73866
292.73941
292.74748
292.7639
292.7926
292.83835
292.93351
293.1347
293.44393
293.49141
293.46862
293.442
293.41152
293.37734
293.33979
293.29936
293.25668
293.21241
293.1672
293.12167
293.07634
293.0317
292.98821
292.94635
292.90666
292.86974
292.83625
292.80685
292.78217
292.76277
292.74919
292.74195
292.74162
292.74906
292.76524
292.79388
292.83993
292.93358
293.13346
293.43882
293.48052
293.46098
293.43776
293.41069
293.37975
293.34513
293.30723
293.26657
293.22382
293.17967
293.13478
293.08976
293.04515
293.00145
292.95917
292.91883
292.88105
292.84648
292.81582
292.78977
292.76895
292.754
292.74551
292.74414
292.75093
292.76676
292.79532
292.84179
292.93393
293.13234
293.44368
293.46509
293.44864
293.42874
293.40511
293.37759
293.34621
293.31121
293.27303
293.23225
293.18957
293.1457
293.10131
293.05702
293.01337
292.9709
292.93016
292.89175
292.85632
292.82461
292.79735
292.77525
292.759
292.74932
292.74696
292.75309
292.76847
292.79695
292.84399
292.93477
293.1317
293.45361
293.44591
293.4323
293.41556
293.39529
293.37123
293.34326
293.31145
293.2761
293.23769
293.19689
293.1544
293.11097
293.06726
293.02391
292.98149
292.94056
292.90174
292.86568
292.83311
292.80482
292.78158
292.76415
292.75334
292.75002
292.75548
292.77047
292.79884
292.84653
292.93626
293.13141
293.43547
293.42405
293.41299
293.3991
293.38199
293.36128
293.33673
293.30825
293.27598
293.24028
293.20171
293.16096
293.11878
293.07593
293.03309
292.99091
292.95
292.91096
292.87447
292.84125
292.81211
292.78788
292.76939
292.75754
292.75331
292.75809
292.77274
292.80106
292.84939
292.93846
293.13053
293.40199
293.40043
293.39157
293.38023
293.36598
293.3484
293.32716
293.30203
293.27298
293.24022
293.20419
293.16549
293.12487
293.08312
293.04101
292.99925
292.9585
292.91941
292.88266
292.84897
292.81915
292.79408
292.77466
292.76186
292.75678
292.7609
292.7753
292.80362
292.85262
292.94135
293.12918
293.39058
293.37592
293.36889
293.35975
293.34802
293.33328
293.31513
293.29324
293.26744
293.23777
293.20449
293.16812
293.12935
293.08896
293.04778
293.0066
292.96615
292.92714
292.89025
292.85624
292.8259
292.80014
292.7799
292.76625
292.76038
292.76386
292.77807
292.80655
292.85628
292.94491
293.12789
293.35435
293.35099
293.34546
293.33815
293.32862
293.31641
293.30108
293.28225
293.25963
293.23309
293.20274
293.16894
293.13228
293.09352
293.0535
293.01307
292.97305
292.93422
292.8973
292.86307
292.83234
292.80602
292.78509
292.77068
292.76406
292.76687
292.78101
292.80994
292.86036
292.94906
293.12679
293.34972
293.32591
293.32162
293.31583
293.30815
293.29816
293.28537
293.26935
293.24975
293.22631
293.19898
293.16795
293.13367
293.09681
293.05819
293.01871
292.97927
292.94072
292.90387
292.86951
292.83849
292.81171
292.7902
292.77511
292.76781
292.76999
292.78419
292.81361
292.86476
292.9536
293.12603
293.32834
293.30076
293.29749
293.29296
293.28685
293.27874
293.2682
293.25474
293.23794
293.21748
293.19317
293.16504
293.13337
293.09869
293.06177
293.0235
292.98483
292.9467
292.91
292.87559
292.84435
292.81721
292.79521
292.77954
292.77164
292.77331
292.78742
292.81732
292.86951
292.95823
293.12594
293.34591
293.27563
293.27316
293.26966
293.26483
293.25831
293.24969
293.23852
293.22433
293.2067
293.18534
293.16015
293.13123
293.09899
293.06406
293.02729
292.98964
292.95212
292.91571
292.88134
292.84996
292.82252
292.8001
292.78394
292.77552
292.7768
292.79081
292.82121
292.87444
292.96269
293.1284
293.36829
293.25092
293.24905
293.24635
293.24256
293.23734
293.23034
293.22112
293.2092
293.19415
293.17561
293.15332
293.12725
293.09762
293.06493
293.02994
292.99359
292.95691
292.92095
292.88675
292.85531
292.82765
292.80489
292.78829
292.77943
292.78041
292.79432
292.82523
292.87943
292.96732
293.13236
293.36986
293.22716
293.22571
293.22357
293.22054
293.21633
293.21061
293.20298
293.19301
293.18023
293.16421
293.14465
293.12137
293.09444
293.06419
293.03126
292.99649
292.96092
292.92565
292.89178
292.8604
292.8326
292.80954
292.79256
292.7833
292.78399
292.79783
292.82924
292.88457
292.97285
293.13772
293.37125
293.2047
293.2035
293.20176
293.19927
293.19581
293.19107
293.1847
293.1763
293.16543
293.15164
293.13455
293.11389
293.08962
293.06189
293.03119
292.99826
292.96407
292.92972
292.89637
292.86519
292.83735
292.81406
292.79671
292.78704
292.78743
292.80125
292.83316
292.88999
292.97926
293.14351
293.35944
293.18355
293.18252
293.18104
293.17895
293.17604
293.17206
293.16669
293.15958
293.15029
293.13842
293.12352
293.10526
293.08349
293.05825
293.02986
292.99894
292.96634
292.93314
292.90051
292.86968
292.84189
292.81841
292.80071
292.79059
292.79058
292.8043
292.83691
292.89566
292.9862
293.14995