/*--------------------------------*- C++ -*----------------------------------*\
| =========                 |                                                 |
| \\      /  F ield         | OpenFOAM: The Open Source CFD Toolbox           |
|  \\    /   O peration     | Version:  2406                                  |
|   \\  /    A nd           | Website:  www.openfoam.com                      |
|    \\/     M anipulation  |                                                 |
\*---------------------------------------------------------------------------*/
FoamFile
{
    version     2.0;
    format      ascii;
    arch        "LSB;label=32;scalar=64";
    class       volScalarField;
    location    "0.07";
    object      alphat;
}
// * * * * * * * * * * * * * * * * * * * * * * * * * * * * * * * * * * * * * //

dimensions      [1 -1 -1 0 0 0 0];

internalField   nonuniform List<scalar> 
8260
(
0.039993487
0.045351324
0.051649172
0.058760776
0.066523393
0.074763564
0.083261321
0.091720421
0.099739883
0.10674558
0.11192819
0.11416899
0.11195353
0.1033926
0.086456491
0.060282595
0.031969605
0.014999359
0.0097376486
0.0080777761
0.0071000519
0.0064252712
0.0059995386
0.0056713326
0.0054519024
0.0052834798
0.0051565009
0.0050691711
0.0050067196
0.0049658448
0.0049451163
0.047339933
0.052858175
0.058913256
0.065573449
0.072796824
0.08045231
0.088331756
0.096138635
0.10346395
0.10972542
0.11408448
0.11540015
0.11213881
0.10242251
0.084277035
0.057390895
0.029218529
0.014119704
0.0094669113
0.0079758751
0.0070457563
0.0063938144
0.0059789599
0.0056584123
0.00544374
0.0052788683
0.0051534292
0.0050673269
0.0050055442
0.0049650655
0.0049445901
0.055757235
0.061066513
0.066816546
0.073044958
0.079728057
0.086760837
0.093953214
0.1010171
0.1075388
0.11292198
0.1163151
0.11655179
0.11208095
0.10104476
0.081561834
0.053888526
0.026506753
0.013204554
0.0092739464
0.007921126
0.0070169884
0.0063772149
0.0059681613
0.00565158
0.0054392995
0.0052764226
0.0051517282
0.0050662148
0.0050046913
0.0049643711
0.0049440132
0.065353752
0.070230783
0.075535936
0.08124699
0.087325102
0.093665936
0.10008545
0.10629937
0.11189019
0.11625047
0.11851445
0.11749447
0.11162585
0.099083187
0.078129694
0.049695518
0.023703112
0.012403979
0.0091076259
0.0078339485
0.006967615
0.0063477798
0.0059486658
0.0056390596
0.005430967
0.0052717824
0.0051484806
0.005064183
0.0050033388
0.00496343
0.0049433565
0.076124517
0.080403537
0.08513872
0.090216303
0.095583954
0.10112923
0.10666388
0.11189981
0.11641201
0.11958188
0.12052888
0.11804757
0.11056667
0.096310557
0.073759522
0.044727454
0.020884594
0.011631335
0.0089223856
0.0077528891
0.0069231388
0.0063220343
0.0059318317
0.0056284313
0.0054238994
0.0052678575
0.0051457596
0.0050624421
0.0050020761
0.0049624692
0.0049426088
0.087862129
0.091472802
0.095523303
0.09984914
0.10438599
0.10901116
0.11352709
0.11763595
0.12090069
0.12268918
0.12210653
0.11793296
0.10860247
0.092415032
0.068175378
0.038947864
0.018358332
0.0109184
0.0087441441
0.0076529872
0.0068653442
0.0062875616
0.0059086977
0.0056137133
0.005413984
0.0052622674
0.0051418802
0.0050599798
0.0050003994
0.0049612801
0.0049417564
0.10019668
0.10309744
0.1063747
0.1098455
0.11343427
0.11700802
0.12035819
0.12317411
0.12500365
0.12519904
0.12285158
0.11673213
0.10530094
0.086971945
0.061048078
0.032452962
0.015974259
0.010273387
0.0085560973
0.0075495645
0.0068066502
0.0062532554
0.0058856831
0.0055993891
0.0054042864
0.0052567543
0.0051381029
0.0050575566
0.0049986724
0.0049599971
0.0049407857
0.11252209
0.1146822
0.11711744
0.11964483
0.12217729
0.12457077
0.12660429
0.12795256
0.12814677
0.12652287
0.12215997
0.11382782
0.10005131
0.079416741
0.052041111
0.025611293
0.013800242
0.0097694158
0.0083678035
0.0074300055
0.0067364042
0.0062113279
0.0058567258
0.0055814393
0.0053920372
0.0052496458
0.0051332617
0.0050544326
0.0049965276
0.0049584624
0.004939681
0.12388034
0.12527288
0.12680853
0.12831717
0.12969748
0.13079161
0.13136387
0.13107238
0.12943089
0.12576024
0.11913179
0.10832719
0.092009481
0.069039827
0.041003449
0.020058321
0.012008706
0.0093826767
0.0081662127
0.0073027159
0.0066624008
0.0061677303
0.0058262905
0.0055630723
0.0053793481
0.0052421025
0.0051282453
0.0050511613
0.0049942163
0.0049567638
0.0049384249
0.13276891
0.13338574
0.13397656
0.13440639
0.134557
0.13425238
0.13323823
0.13115357
0.12749524
0.12157399
0.11246326
0.098975349
0.080051414
0.05509582
0.028589952
0.015661129
0.010631003
0.0090030264
0.0079541717
0.0071602523
0.0065769857
0.0061163519
0.0057896129
0.0055411611
0.0053640074
0.0052327029
0.0051221087
0.0050471288
0.00499142
0.0049547607
0.0049369958
0.13693775
0.13679976
0.13643849
0.13575687
0.13462363
0.13284699
0.13015204
0.12615828
0.1203509
0.11204473
0.10033849
0.084093373
0.062865468
0.037281371
0.019760903
0.012536844
0.0098589646
0.0086896129
0.0077312837
0.007010245
0.0064863268
0.0060618419
0.0057507697
0.0055183304
0.0053476258
0.0052223326
0.0051155052
0.0050428034
0.0049883355
0.0049525134
0.0049353667
0.13309741
0.1321652
0.13085729
0.12908713
0.12669187
0.12345087
0.119066
0.11314369
0.10517771
0.094529744
0.080391499
0.061621266
0.039530001
0.022871862
0.01425199
0.010568534
0.0093474134
0.0083192788
0.0075006712
0.0068434404
0.0063858023
0.0059990067
0.0057061312
0.0054914331
0.0053281864
0.0052098874
0.0051075034
0.0050376312
0.004984684
0.0049498841
0.0049330259
0.11652997
0.1149508
0.11281359
0.11002822
0.106432
0.10179383
0.095796309
0.0880661
0.078181389
0.065717822
0.05067441
0.036028923
0.023240686
0.014957996
0.011055275
0.0097594954
0.0087880524
0.0080150016
0.0072576937
0.0066860322
0.0062750282
0.0059314344
0.0056603822
0.0054625881
0.0053071203
0.0051964804
0.0050986415
0.0050319917
0.0049806774
0.0049469284
0.0049303033
0.081948154
0.079760311
0.077085787
0.073952383
0.070217437
0.065700067
0.060204666
0.053670579
0.046058262
0.037449875
0.028366598
0.020122764
0.014248298
0.011141485
0.009692375
0.0089739243
0.0083648046
0.0076319915
0.0070194338
0.0065051091
0.006161937
0.0058610009
0.0056055232
0.0054284076
0.005282877
0.0051813449
0.0050882073
0.0050252527
0.0049760655
0.0049435289
0.0049272926
0.0461172
0.04472458
0.043005394
0.040959791
0.038445507
0.03540203
0.032048832
0.028311314
0.024221009
0.019891937
0.015695045
0.012356227
0.010402249
0.0094889759
0.0090848475
0.0084309847
0.0078197239
0.0073272798
0.006774656
0.0063540368
0.0060413219
0.0057819693
0.0055525628
0.0053926621
0.005256794
0.0051648349
0.0050770193
0.0050177469
0.0049710495
0.0049397683
0.0049240819
0.022842903
0.022346292
0.021612162
0.020682047
0.019528294
0.018152452
0.016629449
0.014988574
0.013285203
0.011638387
0.010185514
0.0092466484
0.0087899863
0.0088468343
0.0081414872
0.0076513909
0.0074053856
0.0069636026
0.0065531324
0.0061731141
0.0059254071
0.0057065708
0.0054851914
0.0053530197
0.0052280841
0.0051460333
0.0050645338
0.0050087985
0.0049653831
0.0049355338
0.0049208125
0.012150538
0.012032361
0.011787717
0.011446543
0.011025109
0.010547852
0.010039924
0.0094998835
0.0089155326
0.0084737364
0.0082652689
0.008124198
0.0081969781
0.0077223615
0.0076064758
0.0073231586
0.0068845312
0.0066702897
0.0063252378
0.0060345513
0.0058006844
0.0056133098
0.0054291804
0.0053132476
0.00519664
0.0051254
0.0050510667
0.004999385
0.0049591827
0.0049308941
0.0049168039
0.0082384399
0.0082108464
0.0081360771
0.0080328596
0.0078992742
0.0077632693
0.0076425033
0.007532329
0.0074737681
0.0074781243
0.0075707284
0.0074659399
0.007038465
0.0070315772
0.0068802671
0.0066438813
0.0064348274
0.0062563307
0.0060961145
0.0058496183
0.0056778342
0.0055292988
0.0053575601
0.0052664399
0.0051641188
0.0051032493
0.0050361887
0.0049885383
0.0049522794
0.0049257446
0.0049124245
0.0069645208
0.0069168448
0.0068855606
0.0068704245
0.0068677073
0.0068631612
0.0068811615
0.0068499344
0.0068170809
0.0067938489
0.0066822559
0.0065786261
0.0066318692
0.0064006838
0.0063498531
0.0062950664
0.0060180303
0.0059318391
0.0058460196
0.0057058319
0.005541718
0.00542291
0.00529583
0.0052266638
0.0051320403
0.005077295
0.0050212648
0.0049779404
0.0049445197
0.0049202193
0.0049077783
0.0063786546
0.0063746734
0.006366439
0.0063563302
0.0063670773
0.0063864465
0.006370817
0.0063533972
0.0063017748
0.006187721
0.0061365382
0.0061067441
0.005979736
0.0059972511
0.0058996375
0.0058308004
0.0057675742
0.0056185325
0.0055716385
0.0054779144
0.0054170827
0.0053426146
0.0052298264
0.0051811135
0.0050980213
0.0050523661
0.005004416
0.0049666392
0.0049358198
0.0049142454
0.0049024994
0.0059564058
0.0059524331
0.005944745
0.005925896
0.0058931751
0.005845763
0.005840513
0.0058297491
0.0058149717
0.005799875
0.0057893539
0.0057687755
0.0056935774
0.0056905563
0.0057042799
0.0056399296
0.0055215419
0.005460053
0.005392109
0.0053746433
0.0053311938
0.0052371976
0.0051773182
0.0051415329
0.0050710242
0.0050249747
0.0049886522
0.0049550711
0.004926766
0.0049077912
0.0048972236
0.0055552226
0.0055564065
0.0055546151
0.005550028
0.0055461653
0.0055529959
0.0055616389
0.0055592884
0.0055504569
0.0055300553
0.0055029488
0.0054758328
0.0054964327
0.0054316978
0.0054365286
0.0053845459
0.0053701418
0.0053141292
0.0052727499
0.0052471024
0.0052093497
0.005159029
0.0051437582
0.0050897126
0.0050438065
0.0050021783
0.0049702785
0.0049422355
0.0049177873
0.0049008357
0.0048911785
0.0053418397
0.0053430095
0.0053414896
0.0053377871
0.0053312894
0.0053205717
0.0053069887
0.0052945392
0.0052890992
0.005286086
0.0052849778
0.0052925094
0.0052874525
0.0053143438
0.0052608606
0.0052640326
0.0052073543
0.0051926523
0.0051615891
0.0051482373
0.0051409821
0.0050898003
0.0050844912
0.0050546498
0.0050200718
0.0049783857
0.0049555847
0.0049283852
0.0049085055
0.0048936842
0.0048856133
0.0051405818
0.0051420444
0.0051417185
0.0051402906
0.0051385828
0.0051370268
0.0051363799
0.0051424208
0.0051474529
0.005150021
0.0051506706
0.0051461179
0.005136488
0.0051138503
0.0051150894
0.0051131333
0.0051191914
0.0050725486
0.0050947949
0.0050761657
0.0050726393
0.0050461831
0.0050221246
0.0049917577
0.0049988642
0.0049571067
0.0049356224
0.0049155901
0.0048995978
0.0048866531
0.0048795928
0.0050404402
0.0050421484
0.0050422445
0.005041237
0.005039359
0.0050365746
0.005032581
0.0050272553
0.005025584
0.0050256326
0.0050252094
0.0050237243
0.0050216666
0.0050217146
0.0050357213
0.0050214245
0.0050196909
0.0050182052
0.0050366091
0.0050187724
0.0050265091
0.0050040894
0.0049826979
0.0049571798
0.0049649659
0.0049351639
0.0049231803
0.0049045746
0.0048906803
0.0048800292
0.0048740836
0.0049564034
0.0049572216
0.004957189
0.0049567949
0.0049564493
0.0049563117
0.0049563515
0.0049567163
0.004958269
0.0049603025
0.0049614758
0.0049610642
0.0049595631
0.0049573153
0.0049561925
0.0049576317
0.0049599359
0.0049568168
0.0049544931
0.004949405
0.0049433342
0.004950203
0.0049420018
0.0049316831
0.0049239006
0.0049230221
0.0049054534
0.0048940956
0.0048829435
0.004873937
0.0048681007
0.0049188945
0.0049196007
0.0049195521
0.0049190362
0.0049182382
0.0049174506
0.004916929
0.0049167391
0.0049165373
0.0049167869
0.0049175286
0.0049185389
0.0049201544
0.0049216926
0.0049239077
0.0049251587
0.0049338651
0.0049282609
0.0049182713
0.0049199814
0.0049167106
0.0049197865
0.0049182298
0.0049188233
0.0049035481
0.0049067553
0.0048950519
0.0048866819
0.0048761614
0.0048679239
0.0048638864
0.004885824
0.0048862009
0.0048864234
0.0048866356
0.0048869932
0.0048875201
0.0048881737
0.0048889266
0.0048898231
0.0048909438
0.0048930981
0.0048971245
0.0049020508
0.0049056897
0.004905184
0.004904571
0.0049008289
0.0049063279
0.0049032876
0.004904866
0.004906319
0.004904174
0.0048978994
0.0049049226
0.0048936097
0.004888646
0.0048838623
0.0048761612
0.0048696857
0.0048644951
0.0048619829
0.0048726803
0.0048729739
0.0048731809
0.0048733937
0.0048736749
0.0048740284
0.0048744385
0.0048748898
0.0048754208
0.0048760371
0.00487682
0.0048778644
0.0048790501
0.0048800876
0.0048800356
0.0048802121
0.0048821025
0.0048824725
0.0048884909
0.0048873523
0.004887594
0.0048843885
0.0048864552
0.0048830513
0.0048838683
0.0048780114
0.004875099
0.0048707605
0.004866357
0.0048621734
0.0048581152
0.0048662116
0.004866389
0.0048665381
0.0048667121
0.0048669329
0.0048672048
0.0048675208
0.0048678549
0.0048681255
0.0048684471
0.0048688877
0.0048697039
0.0048708875
0.0048713896
0.0048710047
0.0048708785
0.0048711714
0.0048709797
0.0048728931
0.0048719887
0.0048730369
0.0048725616
0.0048745264
0.0048725857
0.004873211
0.0048719937
0.0048703945
0.0048680921
0.0048624998
0.0048585496
0.0048585869
0.0048594029
0.0048595415
0.004859734
0.0048599796
0.0048602888
0.0048606705
0.0048611318
0.0048616841
0.004862349
0.0048631545
0.0048641159
0.0048654175
0.004866704
0.0048669657
0.0048668208
0.0048666671
0.0048664318
0.004866337
0.0048663918
0.004866272
0.0048678324
0.0048676931
0.0048683731
0.0048684877
0.0048685651
0.0048681459
0.0048667938
0.0048642204
0.0048625321
0.0048616793
0.0048599872
0.00084985474
0.0018423697
0.0037060866
0.0065143737
0.010241217
0.014979134
0.020822592
0.027827708
0.0361216
0.045124703
0.055007785
0.065331958
0.075316796
0.083735659
0.08873777
0.087694424
0.077309987
0.056468671
0.032075683
0.015530131
0.0091341079
0.0072043435
0.0064574464
0.0059484915
0.0056112134
0.0053731039
0.0052189883
0.0051098033
0.0050354498
0.0049884055
0.0049639167
0.0020823459
0.0042145925
0.0070555791
0.010453
0.014602246
0.019633762
0.025619053
0.032881457
0.040939737
0.049882792
0.059572236
0.069501644
0.078837955
0.086291047
0.089952152
0.087164837
0.07475066
0.052434597
0.02827793
0.013994099
0.0086361269
0.0070530332
0.006395281
0.0059132944
0.0055923202
0.0053625517
0.0052130354
0.0051064017
0.0050335434
0.0049872999
0.0049633879
0.003883862
0.0062156593
0.0090900056
0.012688256
0.017157364
0.022594105
0.029107621
0.036595073
0.044875563
0.053954272
0.063565603
0.073172106
0.0819029
0.088417804
0.09076421
0.086280708
0.071971798
0.048569071
0.025336808
0.01253656
0.0082638879
0.0069859601
0.0063661727
0.0058965274
0.0055833663
0.0053574952
0.0052100913
0.0051046534
0.0050323263
0.0049863781
0.0049627974
0.005672953
0.0082267348
0.011455741
0.015451659
0.020261872
0.02600492
0.032797164
0.040331614
0.048727158
0.057829885
0.067296365
0.076541988
0.084644219
0.090209329
0.09124564
0.085102748
0.069020128
0.044870331
0.022762647
0.011673427
0.0080573038
0.0069035418
0.0063215524
0.0058698244
0.0055688884
0.0053492889
0.0052052276
0.0051017678
0.0050306414
0.0049853244
0.00496211
0.0074108221
0.010322862
0.01390271
0.018203521
0.023319138
0.029378657
0.036253241
0.043968369
0.052471352
0.061551941
0.070828266
0.079674497
0.087118198
0.091715519
0.09144246
0.083675022
0.065940628
0.041317847
0.020486447
0.010773319
0.0078508703
0.006844872
0.00629219
0.0058523708
0.0055595869
0.0053439878
0.0052020136
0.0050998271
0.005029349
0.0049843722
0.004961378
0.0092585141
0.012474126
0.01633083
0.020905735
0.026361918
0.032638565
0.039691253
0.047560639
0.056124153
0.065137613
0.074184295
0.082596718
0.089354655
0.092968679
0.091389367
0.082028806
0.062780788
0.037920404
0.018492825
0.010184948
0.0077143144
0.006785059
0.0062567747
0.005830625
0.005547759
0.0053372034
0.0051978594
0.0050973167
0.0050278162
0.0049833482
0.0049606323
0.01104957
0.014552216
0.0187088
0.023617903
0.02934411
0.035817352
0.043078503
0.051078534
0.059670704
0.068584957
0.077371346
0.085322409
0.091373453
0.093994403
0.091116455
0.080204471
0.059585932
0.034730882
0.016792679
0.0096353132
0.0075893222
0.0067358914
0.0062294324
0.0058140089
0.0055388607
0.005332095
0.0051946374
0.0050953391
0.0050265059
0.0049823809
0.0049598746
0.012783913
0.016604231
0.021074922
0.026330923
0.032270014
0.038965177
0.046404332
0.054506449
0.063101083
0.071890632
0.080392553
0.087861473
0.093191589
0.094816871
0.090653728
0.078238046
0.056393823
0.031788614
0.015377752
0.0092525832
0.0074967546
0.006688921
0.0062003786
0.0057958931
0.0055289728
0.0053263872
0.0051909991
0.0050930991
0.0050250807
0.0049813768
0.0049591104
0.014514797
0.018634393
0.023425117
0.028949262
0.035132339
0.042045485
0.049646003
0.057830835
0.06640726
0.075051654
0.083250726
0.090223472
0.094826283
0.095462178
0.090040251
0.07616923
0.053259589
0.029127873
0.014256454
0.0089561971
0.0074141219
0.0066480459
0.0061760009
0.0057808656
0.0055208369
0.0053217032
0.0051879161
0.0050911746
0.0050237865
0.0049804059
0.0049583386
0.016190218
0.020614284
0.025729424
0.031487793
0.037926507
0.04504777
0.052793216
0.061042789
0.069583193
0.078066275
0.085949736
0.092419119
0.096296247
0.095957101
0.089315912
0.074053847
0.050224648
0.026767584
0.013307579
0.0087343833
0.0073475574
0.0066101809
0.0061517827
0.0057656974
0.0055124732
0.0053168718
0.005184691
0.0050891507
0.0050224453
0.0049794178
0.0049575608
0.017850108
0.0225702
0.02796576
0.033969091
0.040652426
0.047963309
0.055836426
0.064134355
0.072624066
0.080934124
0.08849496
0.094460837
0.097622185
0.096330348
0.088513895
0.071932359
0.04732614
0.024715091
0.012578256
0.0085587723
0.0072886069
0.0065766825
0.0061305926
0.0057526122
0.005505247
0.0053127182
0.0051818259
0.0050873287
0.0050211869
0.0049784506
0.0049567765
0.019465467
0.024483584
0.030126978
0.036387344
0.043297358
0.050780311
0.058766378
0.06709849
0.075526267
0.083656224
0.090893364
0.096362673
0.09882523
0.09661383
0.087668455
0.069843792
0.044608173
0.022968645
0.011981902
0.0084251175
0.0072395709
0.006546327
0.0061103287
0.0057400391
0.0054981657
0.0053086419
0.0051789623
0.0050854932
0.005019918
0.0049774776
0.0049559863
0.021056386
0.026346234
0.032232387
0.03873402
0.045839779
0.053488489
0.061574132
0.069929252
0.078287527
0.086235087
0.093153332
0.098139563
0.099926387
0.096831825
0.086812747
0.067828757
0.042101711
0.021511477
0.011537852
0.0083199804
0.0071966597
0.0065195806
0.0060922772
0.0057290379
0.0054919015
0.0053050566
0.0051763581
0.0050838004
0.0050187071
0.0049765193
0.0049551903
0.022621937
0.028155164
0.034278658
0.040999922
0.04827547
0.056082143
0.064251502
0.07262075
0.08090688
0.088675696
0.095284954
0.099808419
0.10094865
0.097012777
0.085978422
0.065915849
0.039830793
0.020324026
0.011214776
0.0082400041
0.0071608804
0.006495926
0.0060754746
0.0057188383
0.0054859615
0.0053016565
0.0051738307
0.0050821386
0.0050175058
0.0049755615
0.0049543887
0.024165242
0.029914606
0.036258017
0.043180098
0.050631004
0.058528791
0.066793945
0.075171001
0.08338383
0.090983727
0.097297671
0.10138406
0.10191805
0.097193647
0.085210476
0.064126482
0.037810564
0.019386596
0.010988474
0.0081786196
0.0071305809
0.0064754964
0.0060605164
0.0057099246
0.0054806676
0.0052986451
0.0051715112
0.005080588
0.0050163512
0.0049746164
0.0049535806
0.025664442
0.031618597
0.038160595
0.045261216
0.052863943
0.060878678
0.069170295
0.077568785
0.085712885
0.093151306
0.099199833
0.10288335
0.10285833
0.097406844
0.084550067
0.06249283
0.036051183
0.018686765
0.010824572
0.0081312849
0.0071060365
0.0064580426
0.0060469921
0.0057019084
0.0054757731
0.0052958684
0.0051693072
0.0050790909
0.0050152198
0.0049736773
0.0049527644
0.027065434
0.033224369
0.039952755
0.047216716
0.054953059
0.063066762
0.071406817
0.079773543
0.087862735
0.095180863
0.10099121
0.10431939
0.10379087
0.097682381
0.084034377
0.06107859
0.034600293
0.018099102
0.010655583
0.0080919832
0.0070867918
0.0064435694
0.0060351952
0.005694989
0.0054714239
0.0052934247
0.0051672839
0.0050776876
0.0050141295
0.0049727496
0.0049519402
0.028346001
0.034670825
0.041563957
0.048977674
0.056844355
0.065057213
0.073462892
0.081842711
0.089868133
0.097041934
0.10266783
0.10570325
0.1047355
0.098047398
0.083695679
0.059936934
0.033435032
0.017608434
0.010513987
0.0080632612
0.007073283
0.0064319441
0.0060249696
0.0056889652
0.0054674945
0.0052912381
0.0051653954
0.0050763489
0.0050130685
0.0049718302
0.0049511085
0.029697372
0.036096586
0.043076717
0.050586958
0.058546029
0.066839515
0.075304503
0.083710652
0.091714596
0.098806716
0.10426169
0.10701735
0.10570732
0.098525629
0.083561666
0.059106558
0.032535362
0.017195367
0.01038412
0.0080426938
0.0070652754
0.0064231769
0.0060164697
0.0056839171
0.0054640477
0.0052893555
0.0051636753
0.0050750956
0.0050120463
0.0049709225
0.0049502699
0.031038146
0.03748857
0.044514263
0.052073407
0.060084888
0.068430667
0.076940386
0.085373805
0.093373125
0.100417
0.10575998
0.10833463
0.1067243
0.099108594
0.083654005
0.058616379
0.031889116
0.01684408
0.010268383
0.0080313139
0.0070622275
0.0064172811
0.0060096653
0.0056797634
0.0054610312
0.0052877437
0.0051621038
0.0050739142
0.0050110575
0.004970025
0.0049494248
0.03235211
0.038815223
0.045849338
0.053420448
0.061449993
0.06982361
0.078364818
0.086827193
0.094838833
0.10186984
0.10715472
0.10961255
0.10779652
0.099879345
0.083979787
0.058487167
0.031496022
0.016532716
0.010160001
0.0080286645
0.0070631283
0.0064143649
0.0060046774
0.0056765651
0.0054584854
0.005286428
0.0051606991
0.0050728142
0.0050101055
0.0049691384
0.0049485736
0.033624155
0.040060733
0.047063739
0.054611012
0.06262525
0.071011186
0.07959991
0.088117549
0.096181474
0.10322305
0.10847456
0.11086353
0.10892433
0.10080495
0.084588874
0.058746263
0.031374574
0.016232526
0.010054544
0.0080325359
0.0070696969
0.0064145018
0.0060015257
0.0056743018
0.0054563875
0.0052853866
0.0051594464
0.005071784
0.0050091835
0.0049682598
0.0049477158
0.034866905
0.041207879
0.048123442
0.055609105
0.063620704
0.072034533
0.080662361
0.089215806
0.097302659
0.10438072
0.10966661
0.11206917
0.11010635
0.10189249
0.085463778
0.059418578
0.03152218
0.015898821
0.0099533279
0.0080453374
0.0070794045
0.0064163088
0.0060001461
0.0056729401
0.0054547091
0.0052845991
0.0051583354
0.0050708174
0.0050082866
0.0049673875
0.0049468507
0.036074062
0.04221641
0.048944278
0.056280019
0.064202617
0.072580586
0.081214307
0.089818086
0.09799096
0.10516707
0.11055588
0.11305013
0.11114672
0.10293535
0.086390949
0.060241576
0.031951714
0.015455098
0.0098462948
0.0080630549
0.007090688
0.0064208061
0.0060001597
0.0056722973
0.0054533417
0.0052840019
0.0051573355
0.0050699004
0.0050074093
0.0049665215
0.0049459798
0.0008720441
0.0017809256
0.0035356401
0.0061926912
0.0097339043
0.014187447
0.019703306
0.026392266
0.034417666
0.043230207
0.053001796
0.063315819
0.07343187
0.082188401
0.087787638
0.087636807
0.078379859
0.058372148
0.033771692
0.01613836
0.009271518
0.0072485332
0.0064782007
0.0059598008
0.0056171352
0.0053762719
0.0052209911
0.0051110689
0.0050363622
0.0049891225
0.0049641944
0.00092478285
0.0018281834
0.0035543465
0.0061357752
0.0095797268
0.01395926
0.019390603
0.02597178
0.033855923
0.042578772
0.05219979
0.062390749
0.072483255
0.081316516
0.087128966
0.087362845
0.078701265
0.059250402
0.034671605
0.016534441
0.0093598882
0.0072763451
0.006491864
0.005966928
0.0056206978
0.0053785498
0.0052224701
0.0051120201
0.0050370432
0.0049896206
0.004964481
0.00098959656
0.0018800531
0.0035814313
0.0061132288
0.0094886293
0.013779213
0.019096429
0.025542999
0.033250481
0.041847946
0.051345336
0.061444596
0.071502545
0.080405526
0.086428315
0.087051784
0.078999814
0.060144168
0.035629614
0.016966111
0.0094635469
0.007305392
0.0065059041
0.0059745431
0.0056247811
0.0053804151
0.0052236917
0.0051128186
0.0050376938
0.0049901917
0.0049648225
0.0010675803
0.0019371269
0.0036081907
0.00608925
0.0093946042
0.013595194
0.018798428
0.025112236
0.032641021
0.041105585
0.05047322
0.060472355
0.070489252
0.07945424
0.085683229
0.08669992
0.079269534
0.061049958
0.036645349
0.01744253
0.0095734746
0.0073392574
0.0065217913
0.0059823047
0.0056284627
0.0053833102
0.0052255519
0.0051140103
0.0050385225
0.00499075
0.0049652542
0.0011615116
0.0020037046
0.0036366135
0.0060646495
0.009299399
0.013409137
0.018497664
0.024670088
0.032027274
0.040352968
0.049584412
0.059474889
0.069443626
0.078462278
0.084892211
0.086304525
0.079505727
0.061968806
0.037717628
0.017968428
0.0097102405
0.007372795
0.0065374348
0.0059911813
0.0056335968
0.0053853855
0.0052269119
0.0051149003
0.0050392634
0.004991368
0.0049655741
0.0012755368
0.0020796101
0.0036724827
0.0060452066
0.0092075388
0.013224659
0.018196765
0.024224922
0.031411088
0.039592669
0.048681482
0.058456069
0.068367664
0.077430961
0.084055312
0.085864023
0.079703044
0.06289403
0.03883375
0.01854885
0.0098427193
0.0074138974
0.0065560308
0.005999991
0.005637702
0.0053880763
0.0052286379
0.0051160118
0.0050401246
0.0049920231
0.0049659077
0.0014146913
0.0021783364
0.003714287
0.0060273806
0.0091162763
0.013040549
0.017896409
0.023784024
0.030794703
0.038828937
0.047767823
0.057418711
0.067262932
0.076360814
0.083171164
0.085374689
0.079855352
0.06381331
0.039995986
0.019186224
0.010020382
0.0074568312
0.0065747088
0.0060093371
0.0056425902
0.005390873
0.0052304374
0.0051171758
0.0050410372
0.004992715
0.0049663165
0.0015845732
0.0022926442
0.0037717282
0.0060209941
0.0090346525
0.012865184
0.017604105
0.023349863
0.030186595
0.038063691
0.046846943
0.056365127
0.066128702
0.075250902
0.082236463
0.084830157
0.079963569
0.06472271
0.041239753
0.019887897
0.010192745
0.0075036588
0.0065945611
0.0060192649
0.0056476936
0.0053938417
0.0052323332
0.0051183934
0.0050420063
0.0049934428
0.0049669191
0.0017905647
0.0024316939
0.0038448966
0.0060265156
0.00896354
0.012699849
0.017321672
0.022925939
0.029597243
0.037304096
0.045923631
0.055300638
0.06497429
0.074106889
0.081255514
0.084231998
0.080021075
0.065614488
0.042546705
0.020659322
0.01040807
0.0075551964
0.0066153437
0.006029389
0.0056529655
0.0053968788
0.0052342881
0.0051196654
0.0050430299
0.0049942076
0.0049675748
0.0020428086
0.0026107428
0.0039456305
0.006050611
0.0089072917
0.012548417
0.017052991
0.022514579
0.029006403
0.036551407
0.045002546
0.054230625
0.063812193
0.072932813
0.080229875
0.083578542
0.080023265
0.066489415
0.04390726
0.021506327
0.010634795
0.0076114333
0.0066375824
0.0060402798
0.005658514
0.0054001299
0.0052363684
0.0051209975
0.0050441186
0.0049950091
0.0049682936
0.0023425411
0.0028258886
0.0040675677
0.0060930586
0.0088682491
0.012414282
0.016801917
0.022119766
0.028434333
0.03580937
0.044088865
0.053159921
0.062631014
0.071731913
0.079161787
0.082869158
0.079965782
0.067335247
0.045319392
0.022436649
0.010900067
0.0076735547
0.0066605401
0.0060512027
0.0056640429
0.0054033936
0.0052384747
0.0051223878
0.0050452617
0.0049958511
0.0049689735
0.0026967624
0.003094549
0.0042417024
0.0061665365
0.008853212
0.012302664
0.016573554
0.021748625
0.027897863
0.035093542
0.043190448
0.052094914
0.061442046
0.070508856
0.078054339
0.082104148
0.07984425
0.068132038
0.046739935
0.023448583
0.011192949
0.0077414283
0.0066854391
0.0060629647
0.0056700226
0.0054069045
0.0052407552
0.0051238482
0.0050464788
0.004996731
0.004969697
0.0030986598
0.0034131437
0.0044467837
0.0062726409
0.0088662495
0.012218117
0.016373264
0.021407397
0.027393175
0.034403359
0.042314532
0.051042872
0.060253577
0.069268438
0.0769114
0.081284761
0.079655531
0.068872142
0.048154392
0.024547804
0.011526376
0.0078161158
0.0067105606
0.0060747836
0.0056755794
0.0054103769
0.0052429939
0.0051253667
0.0050477413
0.0049976572
0.0049704747
0.0035408846
0.0037854386
0.0047038338
0.0064235005
0.0089182113
0.012169732
0.016209014
0.021103274
0.026923817
0.033728776
0.041463872
0.050010993
0.059072508
0.068008607
0.075737439
0.080413318
0.079397749
0.069547615
0.04957567
0.025736402
0.011899926
0.0078987776
0.0067383531
0.0060869325
0.0056818984
0.0054140564
0.0052454747
0.0051269762
0.0050490916
0.0049986189
0.004971291
0.0040100715
0.0042045583
0.0050196799
0.0066228477
0.0090139691
0.012164049
0.016088614
0.020844236
0.026500788
0.03311083
0.040665496
0.049012144
0.05791035
0.066768472
0.074541769
0.079493661
0.079070057
0.070150387
0.050991499
0.027016444
0.012322071
0.0079879417
0.0067654798
0.0060998919
0.0056873522
0.0054177701
0.0052478318
0.0051286328
0.0050504672
0.0049996299
0.0049721469
0.0044955353
0.0046670211
0.0053988791
0.0068915941
0.0091732805
0.012217433
0.016026655
0.020643124
0.026134383
0.032555098
0.039905536
0.048053256
0.056776845
0.065539329
0.073331975
0.078530927
0.078672753
0.070671489
0.052394451
0.028374757
0.012794079
0.0080899524
0.0067960233
0.0061114937
0.0056936703
0.0054214168
0.005250466
0.0051304191
0.005051952
0.0050006685
0.0049730402
0.0049827621
0.0051634987
0.0058477237
0.0072449046
0.0094193605
0.012353265
0.01604259
0.020517486
0.025836578
0.032063505
0.039183971
0.047138349
0.055679772
0.064317093
0.072115094
0.077531533
0.078208385
0.071104077
0.053776512
0.029839926
0.013328305
0.0081961664
0.0068245763
0.0061256708
0.0056994078
0.00542552
0.0052529908
0.0051322234
0.0050534304
0.0050017574
0.0049739632
0.0054557751
0.0056717518
0.0063430832
0.0076738083
0.0097544974
0.01258152
0.016150049
0.020482563
0.025623293
0.031655435
0.038565146
0.046321788
0.054640398
0.063127043
0.070901623
0.076503372
0.077682167
0.071451896
0.055135761
0.031403822
0.013919514
0.0083228033
0.0068563111
0.0061359527
0.0057049063
0.0054288228
0.0052556211
0.0051342007
0.0050550461
0.0050028709
0.0049749127
0.0059433309
0.0062248456
0.0069203786
0.0082199323
0.010215203
0.012933996
0.01637621
0.020561099
0.025514458
0.031346753
0.038035538
0.045540785
0.053658399
0.061978863
0.069695599
0.075454235
0.077097882
0.07171917
0.056463575
0.032989004
0.014588381
0.0084493421
0.0068861132
0.0061505477
0.0057119196
0.0054335609
0.0052585191
0.0051361715
0.0050566256
0.0050040311
0.0049758908
0.006495589
0.0068639849
0.0076143075
0.0089052978
0.010833637
0.013445833
0.016752901
0.020778331
0.025533612
0.031153945
0.037606945
0.044847875
0.052744558
0.060882986
0.068518843
0.07439387
0.076459188
0.071894507
0.057715063
0.034631604
0.015316367
0.008609002
0.006913056
0.0061597021
0.0057159356
0.0054363553
0.0052608681
0.0051382898
0.0050583594
0.0050052281
0.0049768963
0.0071994746
0.0076550014
0.008466488
0.0097611077
0.011643867
0.014140015
0.01729835
0.021149998
0.025698374
0.031092525
0.037300538
0.044291647
0.051954381
0.059863802
0.067399121
0.073335326
0.075772609
0.071978028
0.058882014
0.036346453
0.016144092
0.0087612856
0.0069486731
0.006173389
0.0057242614