/*--------------------------------*- C++ -*----------------------------------*\
| =========                 |                                                 |
| \\      /  F ield         | OpenFOAM: The Open Source CFD Toolbox           |
|  \\    /   O peration     | Version:  2406                                  |
|   \\  /    A nd           | Website:  www.openfoam.com                      |
|    \\/     M anipulation  |                                                 |
\*---------------------------------------------------------------------------*/
FoamFile
{
    version     2.0;
    format      ascii;
    arch        "LSB;label=32;scalar=64";
    class       volScalarField;
    location    "0.07";
    object      rho;
}
// * * * * * * * * * * * * * * * * * * * * * * * * * * * * * * * * * * * * * //

dimensions      [1 -3 0 0 0 0 0];

internalField   nonuniform List<scalar> 
8260
(
1.2000286
1.199095
1.1985497
1.1978686
1.1972287
1.1967454
1.1964531
1.1963538
1.1964391
1.1966921
1.1971208
1.1977016
1.1984053
1.1991874
1.1999978
1.2008181
1.2011936
1.2012623
1.2013597
1.20152
1.201673
1.201802
1.2019227
1.2020256
1.2021197
1.2021968
1.2022605
1.2023122
1.2023548
1.2023816
1.2024012
1.2016072
1.2008122
1.2000262
1.199168
1.1984067
1.1978126
1.1974049
1.1971953
1.1971674
1.1973143
1.1976433
1.198137
1.1987604
1.1994816
1.200201
1.2009409
1.2012444
1.2013124
1.2014093
1.2015625
1.2017074
1.2018293
1.2019446
1.2020431
1.2021339
1.2022083
1.20227
1.2023201
1.2023616
1.2023876
1.2024068
1.2025643
1.2018583
1.2010172
1.2001063
1.1992977
1.1986452
1.1981658
1.1978811
1.1977794
1.1978336
1.1980861
1.1985111
1.1990749
1.1997574
1.2004139
1.2010948
1.2013134
1.2013794
1.201471
1.2016132
1.2017481
1.2018615
1.2019703
1.2020635
1.2021503
1.2022217
1.202281
1.2023293
1.2023695
1.2023945
1.2024131
1.2032921
1.2026486
1.2018332
1.200926
1.2001
1.1994108
1.1988776
1.1985225
1.1983477
1.1983377
1.1985228
1.1988848
1.1993955
1.2000425
1.2006455
1.20126
1.2013993
1.2014567
1.201542
1.2016707
1.2017942
1.2018981
1.2019994
1.2020867
1.202169
1.2022369
1.2022934
1.2023397
1.2023783
1.2024023
1.2024203
1.2038821
1.2032998
1.2025423
1.2016752
1.2008621
1.2001622
1.1995969
1.1991887
1.198951
1.1988839
1.1990048
1.199304
1.1997609
1.2003638
1.2009085
1.2014309
1.2015039
1.2015459
1.2016235
1.2017362
1.2018466
1.2019399
1.2020326
1.2021131
1.2021902
1.2022543
1.2023075
1.2023515
1.2023884
1.2024112
1.2024285
1.204325
1.2037972
1.2031162
1.202322
1.2015559
1.2008761
1.2003061
1.1998701
1.1995883
1.1994718
1.1995347
1.199774
1.2001783
1.2007281
1.2012054
1.2016055
1.2016281
1.2016491
1.2017165
1.2018107
1.2019062
1.2019874
1.2020704
1.2021432
1.2022143
1.202274
1.2023236
1.2023649
1.2023998
1.2024213
1.2024378
1.2046229
1.204148
1.2035475
1.2028511
1.2021624
1.201532
1.2009854
1.2005479
1.200244
1.2000918
1.2001071
1.2002933
1.2006494
1.2011363
1.2015317
1.2017864
1.2017696
1.2017696
1.2018224
1.2018954
1.2019738
1.2020415
1.2021133
1.2021775
1.2022416
1.2022964
1.2023419
1.2023802
1.2024128
1.2024329
1.2024483
1.2047981
1.2043806
1.2038738
1.2032846
1.2026886
1.2021288
1.2016291
1.2012144
1.2009104
1.2007395
1.2007202
1.2008629
1.2011776
1.2015847
1.2018772
1.2019835
1.201926
1.2019098
1.2019421
1.2019913
1.2020503
1.2021029
1.2021621
1.2022166
1.2022727
1.2023219
1.2023626
1.2023977
1.2024275
1.202446
1.2024602
1.2049092
1.2045364
1.2041195
1.2036417
1.2031495
1.2026759
1.2022419
1.2018704
1.2015864
1.2014139
1.2013738
1.2014844
1.2017626
1.2020625
1.2022319
1.2022018
1.2021007
1.2020709
1.2020765
1.2020996
1.2021367
1.2021724
1.2022174
1.2022611
1.2023082
1.2023509
1.2023862
1.2024176
1.2024443
1.2024609
1.2024738
1.204975
1.2046803
1.204337
1.2039618
1.2035782
1.2031994
1.2028421
1.2025272
1.202278
1.2021179
1.20207
1.2021571
1.2023902
1.2025682
1.2025845
1.2024308
1.2023013
1.2022523
1.202226
1.2022212
1.2022337
1.2022508
1.20228
1.2023116
1.2023487
1.202384
1.202413
1.2024403
1.2024635
1.202478
1.2024892
1.205008
1.2049131
1.2047073
1.2044076
1.2040818
1.2037652
1.2034701
1.2032092
1.2029996
1.2028617
1.2028182
1.2028871
1.2030495
1.2030782
1.2029032
1.2026716
1.2025338
1.2024518
1.2023905
1.202356
1.2023424
1.2023391
1.2023506
1.2023687
1.2023948
1.2024217
1.2024436
1.2024661
1.2024855
1.2024974
1.2025068
1.2052859
1.2051759
1.2049975
1.2047889
1.2045656
1.204342
1.2041277
1.2039332
1.203773
1.2036674
1.2036379
1.2036733
1.2036831
1.2035053
1.2031853
1.2029438
1.202789
1.2026645
1.2025691
1.2025034
1.2024638
1.2024379
1.2024302
1.2024333
1.202447
1.2024646
1.2024785
1.2024952
1.2025104
1.2025196
1.2025269
1.2056198
1.2056487
1.2056047
1.2054496
1.2052679
1.2050931
1.204931
1.2047828
1.2046533
1.2045519
1.2044754
1.2043754
1.2041493
1.2037939
1.2034748
1.2032411
1.2030484
1.20289
1.20276
1.2026632
1.2025963
1.2025478
1.2025194
1.2025057
1.2025055
1.2025129
1.2025183
1.2025283
1.2025387
1.2025448
1.2025501
1.2064792
1.2064236
1.2062811
1.2060954
1.2059214
1.2057874
1.2056804
1.2055681
1.20543
1.2052587
1.2050384
1.2047491
1.2044038
1.2040691
1.2037794
1.2035277
1.2033096
1.2031194
1.2029594
1.2028325
1.2027401
1.202668
1.202618
1.2025859
1.2025707
1.202567
1.2025633
1.2025656
1.2025705
1.2025732
1.2025766
1.2067675
1.2068291
1.2068635
1.2068708
1.2067907
1.2066003
1.2063752
1.2061427
1.2058822
1.2055895
1.2052761
1.2049498
1.2046393
1.2043427
1.2040579
1.2037965
1.2035574
1.2033458
1.2031619
1.2030091
1.2028917
1.2027975
1.2027255
1.2026747
1.2026428
1.2026267
1.2026139
1.2026076
1.202606
1.2026051
1.2026069
1.2067708
1.2066975
1.2065837
1.2064414
1.2063353
1.2062815
1.2062385
1.2061923
1.2060636
1.2058177
1.2055099
1.2051892
1.204883
1.2045827
1.2042975
1.2040329
1.2037881
1.2035617
1.2033608
1.2031878
1.2030491
1.2029339
1.2028409
1.202772
1.2027224
1.2026925
1.20267
1.2026547
1.2026457
1.2026406
1.2026411
1.2067624
1.2067057
1.206631
1.2065414
1.2064451
1.2063346
1.2061809
1.2059757
1.205801
1.2057107
1.2055935
1.2053782
1.2050935
1.204795
1.2045068
1.2042365
1.2039931
1.203764
1.2035504
1.2033636
1.203208
1.2030749
1.2029634
1.2028772
1.2028097
1.2027648
1.2027312
1.2027071
1.2026898
1.2026798
1.2026794
1.2064799
1.2064308
1.2063709
1.2063038
1.2062286
1.2061437
1.2060493
1.2059447
1.2058212
1.2056586
1.2054936
1.2053859
1.2052305
1.204977
1.2046913
1.2044139
1.2041703
1.2039468
1.2037268
1.2035297
1.2033637
1.2032167
1.2030896
1.2029891
1.2029043
1.2028435
1.2027974
1.2027643
1.2027389
1.2027233
1.2027217
1.2062944
1.2062573
1.2062111
1.2061581
1.2060967
1.2060247
1.2059397
1.2058413
1.205732
1.2056177
1.2054851
1.2053008
1.2051317
1.2050247
1.2048271
1.204572
1.2043223
1.2041049
1.2038874
1.203683
1.2035096
1.2033537
1.203217
1.2031048
1.2030034
1.2029282
1.2028689
1.2028264
1.202793
1.2027716
1.202768
1.2060141
1.2059823
1.2059434
1.2058997
1.2058507
1.2057955
1.2057333
1.2056633
1.2055829
1.2054878
1.2053806
1.2052749
1.2051431
1.2049858
1.2048812
1.2046949
1.2044561
1.2042389
1.2040337
1.2038261
1.2036438
1.2034809
1.2033392
1.2032199
1.2031056
1.203018
1.2029459
1.2028931
1.2028525
1.202825
1.2028186
1.2058091
1.2057859
1.205757
1.2057242
1.2056867
1.2056432
1.2055923
1.2055328
1.205464
1.2053858
1.2052959
1.2051863
1.2050714
1.2049476
1.204807
1.2047272
1.2045613
1.2043549
1.2041643
1.2039654
1.2037695
1.2035997
1.2034568
1.2033309
1.2032099
1.2031116
1.2030289
1.2029653
1.2029172
1.2028839
1.2028734
1.205546
1.2055262
1.2055021
1.2054751
1.2054448
1.2054105
1.2053716
1.2053275
1.2052775
1.20522
1.2051544
1.2050826
1.2049964
1.2048975
1.2047778
1.2046423
1.2045767
1.204449
1.2042721
1.2040799
1.2038926
1.2037228
1.2035747
1.2034396
1.2033149
1.2032086
1.2031175
1.2030426
1.202987
1.2029482
1.2029328
1.2053481
1.2053342
1.205317
1.2052977
1.2052758
1.2052503
1.2052205
1.2051856
1.2051447
1.2050969
1.2050412
1.2049757
1.2049026
1.2048208
1.2047361
1.2046354
1.2045027
1.2044026
1.2043033
1.2041522
1.2039888
1.2038401
1.2036902
1.2035489
1.2034202
1.2033054
1.2032087
1.2031246
1.2030615
1.2030175
1.2029971
1.20511
1.205098
1.2050835
1.2050674
1.2050494
1.205029
1.2050059
1.2049795
1.2049495
1.2049156
1.2048774
1.2048351
1.2047869
1.2047308
1.2046637
1.2045828
1.2044923
1.2043773
1.2042587
1.2041691
1.20404
1.2039119
1.2037816
1.2036485
1.2035209
1.2033971
1.2032983
1.2032092
1.2031396
1.2030912
1.2030661
1.2049364
1.2049286
1.204919
1.2049083
1.204896
1.2048815
1.2048646
1.204845
1.2048222
1.2047955
1.2047639
1.2047262
1.2046822
1.2046324
1.2045759
1.2045182
1.2044505
1.2043781
1.2043005
1.2041871
1.2040641
1.20394
1.2038244
1.203714
1.2036051
1.2034822
1.2033833
1.203294
1.2032204
1.2031684
1.2031396
1.2047384
1.2047319
1.2047241
1.2047155
1.2047061
1.2046954
1.2046832
1.2046692
1.2046531
1.2046345
1.2046131
1.2045887
1.2045615
1.2045299
1.204493
1.2044438
1.2043858
1.2043207
1.2042381
1.2041948
1.2041401
1.2040207
1.203882
1.203761
1.2036674
1.2035653
1.2034647
1.2033784
1.2033033
1.2032483
1.2032166
1.2046009
1.204597
1.2045921
1.2045866
1.2045801
1.2045725
1.2045637
1.2045533
1.2045413
1.2045272
1.2045105
1.2044899
1.2044637
1.2044317
1.2043947
1.2043577
1.2043171
1.2042718
1.2042325
1.2041712
1.2041177
1.2040676
1.203958
1.2038317
1.2037287
1.2036437
1.2035454
1.2034601
1.203386
1.2033296
1.2032959
1.2044548
1.2044512
1.204447
1.2044423
1.2044371
1.2044312
1.2044245
1.2044169
1.2044082
1.2043983
1.2043872
1.2043749
1.2043619
1.2043476
1.2043306
1.2043069
1.2042782
1.2042436
1.2041965
1.2041403
1.2040691
1.2040229
1.2039815
1.203886
1.2037899
1.2037048
1.2036198
1.2035367
1.2034657
1.2034097
1.203375
1.204378
1.2043756
1.2043728
1.2043696
1.2043661
1.2043621
1.2043574
1.2043519
1.2043456
1.2043382
1.2043294
1.2043188
1.2043056
1.2042888
1.2042681
1.2042445
1.204217
1.2041853
1.2041484
1.20411
1.2040728
1.2039986
1.2039333
1.2039008
1.2038316
1.203752
1.2036791
1.203606
1.2035391
1.2034844
1.2034501
1.2042733
1.2042709
1.2042682
1.2042651
1.2042616
1.2042575
1.2042528
1.2042474
1.2042411
1.2042339
1.2042255
1.2042159
1.2042051
1.2041928
1.2041794
1.2041638
1.2041455
1.2041233
1.2040977
1.2040658
1.2040229
1.2039845
1.2039544
1.203917
1.2038612
1.2037966
1.2037292
1.2036644
1.2036037
1.2035528
1.2035206
1.2041608
1.2041599
1.2041589
1.2041578
1.2041564
1.2041549
1.2041531
1.204151
1.2041485
1.2041455
1.2041419
1.2041375
1.2041322
1.204126
1.2041183
1.204109
1.2040975
1.2040834
1.2040665
1.2040467
1.2040239
1.2039964
1.2039566
1.2039056
1.2038585
1.2038086
1.2037529
1.2036946
1.2036388
1.2035917
1.2035626
1.1885395
1.1888948
1.1893092
1.1896787
1.1899732
1.190255
1.1906118
1.1910666
1.191594
1.1922378
1.1929874
1.1938279
1.1947476
1.1957241
1.1967359
1.1978339
1.1988034
1.1997959
1.2002714
1.2005454
1.2007876
1.2010499
1.2012993
1.2015101
1.2016889
1.2018341
1.2019539
1.2020483
1.2021224
1.2021705
1.2022026
1.1894001
1.1896883
1.1898384
1.189984
1.1901586
1.1904098
1.190779
1.191269
1.1918564
1.1925414
1.1933133
1.1941619
1.1950771
1.1960328
1.1970175
1.1980696
1.1990142
1.199904
1.200283
1.2005706
1.2008171
1.2010808
1.2013258
1.2015319
1.2017069
1.201849
1.2019663
1.2020588
1.2021316
1.2021788
1.2022102
1.1892379
1.1893457
1.1894315
1.1896109
1.1898856
1.1902478
1.1907158
1.1912954
1.1919482
1.1926842
1.1934944
1.1943683
1.195296
1.1962497
1.197231
1.19825
1.1992015
1.200001
1.2003207
1.2006069
1.2008538
1.2011153
1.2013543
1.2015551
1.2017259
1.2018646
1.2019793
1.2020698
1.2021411
1.2021873
1.2022181
1.1888256
1.1889556
1.1891084
1.1893594
1.1897018
1.1901352
1.190671
1.1913064
1.1920127
1.1927935
1.1936377
1.1945346
1.1954749
1.1964309
1.1974232
1.1984097
1.199364
1.2000917
1.2003712
1.2006438
1.2008908
1.2011493
1.2013824
1.201578
1.2017448
1.2018802
1.2019922
1.2020807
1.2021506
1.2021959
1.2022261
1.188222
1.1884222
1.1886618
1.1890099
1.1894547
1.1899885
1.1906121
1.1913158
1.1920816
1.1929078
1.1937839
1.1947014
1.195652
1.1966102
1.1976156
1.1985786
1.1995114
1.2001718
1.2004203
1.2006811
1.2009291
1.2011836
1.2014106
1.2016011
1.2017638
1.2018959
1.2020053
1.2020918
1.2021603
1.2022046
1.2022342
1.1874884
1.1877894
1.1881558
1.1886362
1.1892048
1.1898478
1.1905613
1.1913359
1.1921601
1.1930292
1.1939349
1.1948709
1.1958296
1.1967889
1.1978057
1.1987525
1.1996342
1.2002367
1.2004666
1.2007192
1.2009681
1.2012177
1.2014386
1.2016241
1.2017829
1.2019116
1.2020185
1.202103
1.20217
1.2022133
1.2022424
1.1866041
1.1870791
1.1876225
1.1882601
1.1889627
1.1897174
1.1905208
1.1913664
1.1922458
1.1931547
1.1940871
1.1950394
1.1960038
1.1969627
1.1979828
1.1989124
1.1997537
1.2002949
1.2005107
1.2007585
1.2010077
1.2012517
1.2014666
1.2016471
1.2018019
1.2019275
1.2020317
1.2021142
1.2021797
1.2022221
1.2022506
1.1857273
1.1864004
1.1871247
1.1879158
1.188748
1.1896094
1.1904985
1.1914107
1.1923403
1.1932845
1.1942402
1.195206
1.1961736
1.1971321
1.1981428
1.1990645
1.1998854
1.2003487
1.2005537
1.2007991
1.2010477
1.2012855
1.2014945
1.2016701
1.201821
1.2019434
1.202045
1.2021255
1.2021896
1.2022309
1.2022589
1.1849417
1.1857998
1.1866857
1.1876204
1.1885745
1.1895334
1.1905002
1.1914719
1.1924452
1.1934195
1.1943944
1.1953707
1.1963398
1.1973071
1.1983048
1.1992089
1.200006
1.2004025
1.2005969
1.2008411
1.2010878
1.2013191
1.2015222
1.201693
1.2018401
1.2019592
1.2020583
1.2021368
1.2021995
1.2022398
1.2022672
1.1842839
1.1853132
1.1863308
1.1873974
1.1884595
1.1894988
1.1905315
1.1915529
1.192562
1.1935601
1.1945498
1.1955337
1.196505
1.1974861
1.1984625
1.1993444
1.2001109
1.2004577
1.2006412
1.2008842
1.2011278
1.2013524
1.2015498
1.2017158
1.2018591
1.2019751
1.2020717
1.2021482
1.2022094
1.2022487
1.2022756
1.1837815
1.1849445
1.1861042
1.1872738
1.1884151
1.1895126
1.1905977
1.1916561
1.1926913
1.1937065
1.1947064
1.1956968
1.1966763
1.1976645
1.1986054
1.1994734
1.2002037
1.2005137
1.2006867
1.2009282
1.2011677
1.2013855
1.2015772
1.2017385
1.201878
1.201991
1.202085
1.2021596
1.2022194
1.2022577
1.202284
1.1835167
1.1847778
1.1860216
1.1872446
1.188432
1.189585
1.1907058
1.1917851
1.1928351
1.1938602
1.1948669
1.1958643
1.1968528
1.1978153
1.1987302
1.1995985
1.2002887
1.200569
1.2007332
1.2009727
1.2012074
1.2014183
1.2016044
1.201761
1.2018969
1.2020068
1.2020983
1.2021711
1.2022294
1.2022667
1.2022924
1.1835253
1.1848249
1.1860935
1.1873343
1.1885416
1.1897124
1.1908504
1.1919475
1.1930012
1.1940292
1.1950387
1.1960388
1.1969985
1.1979327
1.1988595
1.1997152
1.2003689
1.2006232
1.2007806
1.2010175
1.2012467
1.2014508
1.2016313
1.2017834
1.2019156
1.2020226
1.2021117
1.2021825
1.2022394
1.2022757
1.2023009
1.1837966
1.1850892
1.1863314
1.1875495
1.1887438
1.1899076
1.1910458
1.1921485
1.1932037
1.1942246
1.1952201
1.1961805
1.1971201
1.1980573
1.1989815
1.1998177
1.2004477
1.2006769
1.2008291
1.2010624
1.2012856
1.2014829
1.201658
1.2018055
1.2019342
1.2020382
1.2021249
1.2021939
1.2022494
1.2022848
1.2023094
1.1842026
1.1854997
1.1867092
1.1878865
1.1890459
1.1901846
1.1913049
1.1923791
1.193412
1.1943988
1.1953433
1.1962919
1.1972566
1.1981802
1.1990924
1.1999207
1.200526
1.2007309
1.2008784
1.2011071
1.201324
1.2015147
1.2016843
1.2018275
1.2019526
1.2020538
1.2021381
1.2022053
1.2022594
1.2022938
1.2023179
1.184588
1.1858873
1.1870996
1.1882638
1.1893924
1.1904895
1.1915653
1.1925695
1.1935324
1.1945062
1.1954857
1.1964416
1.1973945
1.1982981
1.1991981
1.2000259
1.2006024
1.2007859
1.2009281
1.2011515
1.201362
1.201546
1.2017103
1.2018491
1.2019708
1.2020692
1.2021512
1.2022166
1.2022694
1.2023029
1.2023264
1.1855895
1.1866186
1.1876276
1.1886628
1.1897086
1.1907348
1.1917166
1.1927103
1.193726
1.1946948
1.195653
1.1965953
1.1975293
1.1984111
1.1992996
1.2001266
1.2006758
1.2008416
1.2009774
1.2011953
1.2013993
1.2015768
1.2017359
1.2018704
1.2019887
1.2020845
1.2021642
1.2022279
1.2022794
1.202312
1.202335
1.1873134
1.1880616
1.1887612
1.1895251
1.1903593
1.1912306
1.1921078
1.193032
1.1939848
1.1949071
1.1958274
1.1967463
1.1976606
1.19852
1.1993967
1.2002232
1.2007459
1.2008975
1.2010265
1.2012384
1.2014361
1.2016072
1.2017611
1.2018915
1.2020064
1.2020996
1.202177
1.202239
1.2022893
1.202321
1.2023435
1.1888778
1.1894745
1.1899739
1.1905257
1.1911597
1.1918572
1.1925959
1.1934092
1.1942736
1.1951314
1.1960053
1.1968953
1.1977883
1.1986254
1.1994894
1.2003163
1.2008133
1.2009535
1.2010754
1.2012808
1.2014722
1.2016369
1.2017858
1.2019121
1.2020238
1.2021145
1.2021897
1.2022501
1.2022992
1.2023301
1.2023521
1.1905938
1.1909793
1.191251
1.1915861
1.192019
1.1925327
1.1931236
1.1938192
1.1945816
1.1953674
1.1961868
1.1970419
1.1979111
1.1987274
1.1995773
1.2004045
1.2008785
1.2010091
1.2011239
1.2013224
1.2015075
1.201666
1.20181
1.2019322
1.2020409
1.202129
1.2022023
1.2022611
1.202309
1.2023391
1.2023607
1.1924908
1.1926268
1.1926396
1.1927312
1.1929398
1.1932507
1.1936996
1.1942615
1.1949057
1.1956149
1.1963719
1.1971851
1.1980277
1.1988256
1.19966
1.2004852
1.2009412
1.2010628
1.2011713
1.2013626
1.2015415
1.2016941
1.2018334
1.2019518
1.2020574
1.2021433
1.2022146
1.2022719
1.2023187
1.2023481
1.2023692
1.1945706
1.194418
1.1941542
1.1939792
1.1939365
1.1940576
1.1943476
1.1947406
1.1952643
1.1958872
1.196572
1.1973337
1.1981439
1.1989233
1.1997386
1.2005568
1.2009987
1.2011111
1.2012164
1.2014009
1.2015741
1.2017211
1.201856
1.2019708
1.2020736
1.2021574
1.2022267
1.2022826
1.2023284
1.2023571
1.2023778
1.1969199
1.1964872
1.1959699
1.1955063
1.1952033
1.195091
1.1951484
1.1953606
1.1957265
1.1962342
1.196827
1.1975194
1.1982824
1.199035
1.1998209
1.200621
1.2010475
1.2011517
1.2012597
1.2014383
1.201606
1.2017477
1.2018783
1.2019895
1.2020897
1.2021713
1.2022388
1.2022934
1.202338
1.2023661
1.2023865
1.1993156
1.198785
1.1982128
1.1975416
1.1969335
1.1964962
1.1962588
1.1962259
1.1963856
1.1967082
1.1971727
1.1977688
1.1984635
1.1991783
1.1999233
1.2006961
1.2010979
1.2011962
1.2013072
1.2014787
1.2016399
1.2017756
1.2019015
1.2020087
1.2021059
1.2021853
1.2022509
1.202304
1.2023476
1.202375
1.202395
1.1889961
1.1893582
1.1897564
1.1901243
1.1904496
1.1907532
1.1910888
1.1914998
1.1919718
1.192555
1.1932429
1.1940246
1.1948881
1.1958133
1.1967689
1.1978015
1.1987174
1.1996538
1.2002105
1.2004962
1.2007492
1.2010171
1.2012725
1.2014883
1.2016711
1.2018195
1.2019418
1.2020382
1.2021137
1.2021627
1.202195
1.189196
1.1895935
1.1899803
1.1903205
1.1906281
1.1909264
1.1912508
1.1916091
1.1920496
1.1926002
1.1932571
1.1940122
1.1948545
1.1957662
1.1967164
1.1977424
1.198687
1.1995962
1.2001984
1.2004795
1.2007294
1.200998
1.201256
1.2014743
1.2016593
1.2018096
1.2019336
1.2020312
1.2021076
1.2021573
1.2021898
1.189236
1.1896212
1.1900261
1.1903934
1.1907176
1.1910271
1.1913537
1.1917083
1.1921397
1.1926692
1.1933011
1.1940314
1.1948514
1.1957456
1.1966861
1.1976979
1.1986605
1.1995646
1.2001833
1.2004696
1.2007159
1.2009834
1.2012426
1.2014624
1.2016488
1.2018005
1.2019257
1.2020243
1.2021015
1.2021517
1.2021811
1.1892798
1.1896431
1.1900646
1.1904599
1.1908112
1.1911381
1.1914723
1.191834
1.1922593
1.1927693
1.1933758
1.1940794
1.1948735
1.1957455
1.1966705
1.1976595
1.1986256
1.1995327
1.2001615
1.2004563
1.2007012
1.200968
1.2012284
1.2014497
1.2016376
1.2017908
1.2019172
1.2020169
1.2020949
1.2021457
1.2021732
1.189355
1.1896987
1.1901359
1.1905453
1.1909128
1.1912541
1.1915963
1.191963
1.1923823
1.1928755
1.1934587
1.1941361
1.1949042
1.1957525
1.1966593
1.1976214
1.1985852
1.1994941
1.2001348
1.2004405
1.2006842
1.2009506
1.2012126
1.2014357
1.2016253
1.2017801
1.201908
1.2020089
1.2020877
1.2021393
1.2021656
1.1894489
1.1897709
1.1902105
1.1906302
1.1910094
1.1913624
1.1917129
1.1920835
1.1924982
1.1929781
1.193541
1.1941943
1.1949374
1.1957621
1.1966497
1.1975837
1.1985422
1.1994538
1.2001048
1.2004234
1.2006663
1.2009319
1.2011956
1.2014206
1.201612
1.2017686
1.201898
1.2020003
1.2020801
1.2021324
1.20216
1.1895482
1.1898455
1.1902782
1.1907056
1.1910965
1.1914612
1.1918204
1.1921954
1.1926075
1.1930771
1.1936227
1.1942541
1.1949734
1.1957746
1.1966422
1.1975486
1.1985027
1.1994145
1.2000763
1.2004053
1.2006485
1.2009127
1.2011778
1.2014047
1.2015979
1.2017564
1.2018874
1.2019911
1.2020719
1.202125
1.2021521
1.1896539
1.189926
1.1903454
1.1907763
1.1911773
1.1915531
1.191921
1.1923007
1.1927118
1.1931735
1.1937044
1.194316
1.1950129
1.1957909
1.1966378
1.1975212
1.1984674
1.1993715
1.200052
1.2003875
1.200631
1.2008932
1.2011595
1.2013882
1.2015832
1.2017435
1.2018763
1.2019813
1.2020632
1.2021172
1.2021435
1.1897655
1.1900159
1.1904182
1.1908478
1.1912558
1.1916407
1.1920166
1.1924011
1.1928122
1.1932679
1.1937864
1.1943804
1.195056
1.1958115
1.1966373
1.1975028
1.1984295
1.1993214
1.2000278
1.200371
1.2006141
1.2008735
1.2011407
1.201371
1.2015678
1.20173
1.2018645
1.201971
1.202054
1.2021088
1.202134
1.1898794
1.1901185
1.1904989
1.1909222
1.1913339
1.1917259
1.1921086
1.1924976
1.1929093
1.1933607
1.1938689
1.1944472
1.1951031
1.1958368
1.1966412
1.1974897
1.1983898
1.1992718
1.2000005
1.2003556
1.2005978
1.2008538
1.2011215
1.2013533
1.2015517
1.2017159
1.2018521
1.2019601
1.2020442
1.2021
1.2021244
1.1900068
1.1902277
1.1905857
1.1910002
1.1914126
1.1918095
1.1921979
1.1925911
1.1930041
1.1934525
1.1939522
1.1945166
1.1951543
1.195867
1.19665
1.1974809
1.1983601
1.1992283
1.1999666
1.2003412
1.2005824
1.200834
1.2011017
1.2013348
1.2015349
1.2017009
1.2018389
1.2019485
1.2020339
1.2020905
1.2021153
1.1901354
1.1903438
1.1906786
1.1910808
1.1914915
1.1918921
1.1922855
1.1926828
1.1930976
1.1935441
1.194037
1.1945894
1.1952103
1.1959029
1.1966642
1.1974766
1.1983368
1.1991902
1.199932
1.2003284
1.2005682
1.2008144
1.2010817
1.2013158
1.2015174
1.2016853
1.2018251
1.2019363
1.2020229
1.2020805
1.2021061
1.1902669
1.1904633
1.1907757
1.1911631
1.1915706
1.191974
1.1923721
1.1927737
1.193191
1.1936368
1.1941243
1.1946663
1.1952717
1.195945
1.1966848
1.1974775
1.1983174
1.1991496
1.1998953
1.2003193
1.2005556
1.2007954
1.2010614
1.2012963
1.2014993
1.201669
1.2018106
1.2019234
1.2020112
1.2020699
1.2020964
1.1903963
1.1905868
1.1908781
1.1912489
1.1916509
1.1920559
1.1924588
1.1928654
1.1932859
1.1937319
1.1942155
1.1947483
1.1953395
1.1959941
1.1967124
1.1974844
1.1983022
1.1991125
1.1998556
1.2003109
1.2005447
1.200777
1.2010411
1.2012763
1.2014805
1.2016519
1.2017954
1.2019098
1.2019989
1.2020587
1.202086
1.1905217
1.1907021
1.1909718
1.1913302
1.1917294
1.1921378
1.1925467
1.1929594
1.1933842
1.1938316
1.1943122
1.194837
1.1954148
1.1960513
1.196748
1.197498
1.1982922
1.1990815
1.199818
1.2003017
1.2005357
1.2007598
1.201021
1.2012561
1.2014612
1.2016342
1.2017794
1.2018955
1.201986
1.2020468
1.2020748
1.1906344
1.1908147
1.1910767
1.1914215
1.1918139
1.1922246
1.1926399
1.1930593
1.1934894
1.1939388
1.1944171
1.1949344
1.1954993
1.1961178
1.1967925
1.1975193
1.1982882
1.1990555
1.1997826
1.2002934
1.2005284
1.200744
1.2010013
1.2012357
1.2014413
1.2016159
1.2017628
1.2018805
1.2019723
1.2020342
1.2020628
1.1907608
1.1909467
1.1911964
1.191515
1.1919038
1.1923196
1.1927425
1.1931697
1.1936055
1.1940573
1.1945335
1.1950432
1.195595
1.1961952
1.1968471
1.1975488
1.1982886
1.1990309
1.1997524
1.2002876
1.2005239
1.20073
1.2009822
1.2012152
1.2014212
1.201597
1.2017455
1.2018647
1.2019579
1.2020208
1.2020501
1.1908863
1.1910668
1.1913255
1.1916555
1.1920365
1.1924465
1.1928702
1.1933013
1.1937405
1.1941928
1.1946656
1.1951669
1.1957045
1.1962853
1.1969133
1.1975875
1.198294
1.1990113
1.1997403
1.2002861
1.2005229
1.2007184
1.200964
1.201195
1.2014008
1.2015776
1.2017276
1.2018483
1.2019427
1.2020068
1.2020367
1.1910579
1.1912385
1.1914993
1.1918283
1.1922018
1.1926076
1.1930309
1.1934627
1.1939019
1.1943519
1.1948186
1.1953091
1.1958306
1.1963902
1.1969926
1.1976376
1.1983131
1.1990072
1.1997284
1.200282
1.2005223
1.2007092
1.2009469
1.2011752
1.2013804
1.2015579
1.2017091
1.2018311
1.2019269
1.201992
1.2020226
1.1913392
1.1915216
1.1917553
1.1920494
1.1924149
1.1928176
1.1932372
1.1936648
1.1940989
1.1945417
1.1949979
1.1954738
1.1959764
1.1965123
1.1970868
1.1977012
1.1983473
1.1990143
1.1997025
1.200273
1.2005305
1.2007039
1.2009311
1.2011558
1.2013601
1.2015378
1.20169
1.2018133
1.2019103
1.2019765
1.2020077
1.1917046
1.1918818
1.1921207
1.1924132
1.192752
1.1931251
1.1935202
1.1939281
1.194345
1.1947711
1.1952095
1.1956652
1.1961443
1.1966533
1.1971973
1.1977792
1.1983942
1.1990321
1.199688
1.2002669
1.2005404
1.2007005
1.2009174
1.201138
1.2013403
1.2015178
1.2016705
1.2017949
1.201893
1.2019602
1.2019921
1.1922012
1.1923623
1.1925873
1.1928654
1.1931728
1.1935113
1.193874
1.1942526
1.1946426
1.1950432
1.1954562
1.1958854
1.1963362
1.1968142
1.1973249
1.197872
1.198453
1.1990607
1.1996899
1.2002588
1.2005535
1.2007038
1.2009049
1.2011198
1.201321
1.2014976
1.2016507
1.2017759
1.2018749
1.2019431
1.2019758
1.192788
1.1929432
1.1931506
1.1933888
1.1936596
1.1939615
1.1942873
1.1946303
1.1949866
1.195355
1.1957365
1.1961338
1.1965515
1.1969951
1.1974697
1.1979792
1.1985239
1.1990988
1.1996987
1.2002544
1.2005627
1.2007081
1.2008955
1.2011052
1.2013029
1.2014779
1.2016306
1.2017564
1.2018563
1.2019253
1.2019586
1.1934281
1.1935668
1.1937447
1.1939506
1.1941868
1.1944516
1.1947396
1.1950453
1.1953652
1.1956982
1.1960444
1.1964062
1.1967876
1.1971938
1.1976299
1.1981002
1.1986063
1.1991447
1.1997056
1.2002374
1.2005854
1.2007222
1.2008917
1.2010904
1.2012859
1.2014586
1.2016106
1.2017365
1.201837
1.2019068
1.2019407
1.1940779
1.1941955
1.1943446
1.19452
1.1947237
1.1949541
1.1952068
1.195477
1.1957617
1.1960594
1.1963699
1.1966951
1.1970391
1.1974065
1.1978029
1.198233
1.1986993
1.1991993
1.1997224
1.200249
1.2006199
1.2007375
1.2008805
1.201079
1.2012701
1.2014399
1.2015904
1.2017163
1.2018172
1.2018876
1.201922
1.1947057
1.1947991
1.1949232
1.1950713
1.195245
1.1954441
1.1956649
1.1959036
1.1961569
1.1964225
1.1966998
1.1969904
1.197298
1.1976275
1.1979847
1.1983748
1.1988014
1.1992641
1.1997557
1.200267
1.2006399
1.2007465
1.2008859
1.2010779
1.201257
1.2014222
1.2015709
1.201696
1.2017969
1.2018679
1.2019026
1.195293
1.1953671
1.1954681
1.1955904
1.1957359
1.1959056
1.1960976
1.1963083
1.196534
1.1967717
1.1970201
1.1972801
1.1975549
1.1978494
1.1981696
1.1985215
1.1989099
1.199336
1.1997952
1.200278
1.2006521
1.2007727
1.2009034
1.2010701
1.2012416
1.201406
1.2015512
1.2016756
1.2017763
1.2018474
1.2018825
1.1958491
1.1959033
1.195981
1.1960774
1.1961942
1.1963338
1.1964961
1.1966791
1.1968793
1.1970929
1.1973173
1.197552
1.1977994
1.1980638
1.1983512
1.1986684
1.199021
1.1994116
1.1998382
1.2002918
1.2006772
1.2008054
1.2009082
1.2010662
1.2012343
1.2013901
1.2015329
1.2016556
1.2017554
1.2018267
1.2018619
1.1963552
1.196395
1.1964526
1.1965261
1.1966167
1.196727
1.1968594
1.1970137
1.1971881
1.1973788
1.1975823
1.1977965
1.1980221
1.1982623
1.1985228
1.1988102
1.199131
1.1994892
1.1998846
1.2003122
1.2006991
1.2008318
1.2009159
1.2010695
1.2012326
1.2013783
1.2015157
1.2016358
1.2017346
1.2018054
1.2018407
1.1967219
1.19677
1.1968367
1.1969068
1.1969802
1.1970688
1.1971771
1.1973065
1.1974568
1.1976258
1.1978103
1.1980074
1.1982163
1.1984385
1.1986784
1.1989422
1.1992363
1.1995659
1.1999322
1.2003329
1.2007147
1.2008604
1.2009387
1.2010804
1.2012265
1.2013667
1.2014994
1.2016168
1.2017139
1.2017841
1.2018193
1.1970429
1.197058
1.1970889
1.1971428
1.1972207
1.1973152
1.1974192
1.1975335
1.1976676
1.1978211
1.1979922
1.1981778
1.1983761
1.1985872
1.1988137
1.1990605
1.1993338
1.1996395
1.1999803
1.2003557
1.2007276
1.2009002
1.2009692
1.2010898
1.2012218
1.2013574
1.2014874
1.2015992
1.2016936
1.2017627
1.2017975
1.1973033
1.1973239
1.1973507
1.1973834
1.1974252
1.1974814
1.1975642
1.1976767
1.1978098
1.1979591
1.198123
1.1983038
1.1984986
1.1987057
1.198926
1.1991628
1.1994219
1.199709
1.2000283
1.2003806
1.2007422
1.2009421
1.2009966
1.2010977
1.2012275
1.2013561
1.2014739
1.2015818
1.201674
1.2017414
1.2017759
1.1974274
1.1974539
1.1974859
1.1975241
1.197571
1.197629
1.197701
1.1977916
1.197905
1.1980451
1.1982103
1.1983933
1.1985904
1.1987987
1.1990179
1.1992504
1.1995006
1.1997742
1.200076
1.2004086
1.2007618
1.2009823
1.2010294
1.2011186
1.2012362
1.2013499
1.2014617
1.2015674
1.2016551
1.2017208
1.2017544
1.1974964
1.1975213
1.1975516
1.1975889
1.197636
1.1976961
1.1977723
1.1978677
1.1979846
1.1981247
1.1982872
1.1984694
1.1986674
1.1988775
1.1990975
1.199328
1.1995726
1.1998359
1.2001234
1.200439
1.2007795
1.2010205
1.2010667
1.2011384
1.2012388
1.2013525
1.2014602
1.2015541
1.2016374
1.2017004
1.2017332
1.1975873
1.1976125
1.1976424
1.1976789
1.1977252
1.1977845
1.1978597
1.197954
1.1980693
1.1982029
1.1983582
1.1985398
1.1987395
1.198951
1.1991717
1.1994009
1.1996407
1.1998955
1.2001706
1.200471
1.2007971
1.2010567
1.2011066
1.2011626
1.2012576
1.2013563
1.2014499
1.2015407
1.2016209
1.2016814
1.2017128
1.1977282
1.1977509
1.197778
1.1978112
1.1978537
1.1979087
1.1979788
1.1980661
1.1981703
1.1982994
1.1984577
1.1986351
1.1988279
1.199034
1.1992504
1.1994751
1.1997087
1.1999549
1.2002183
1.2005041
1.2008145
1.2010865
1.2011482
1.2011925
1.2012753
1.2013584
1.2014481
1.2015343
1.2016066
1.2016631
1.201693
1.1979527
1.1979703
1.197992
1.1980187
1.1980533
1.1980983
1.1981564
1.1982302
1.1983274
1.1984506
1.1985924
1.1987525
1.1989319
1.1991274
1.1993349
1.1995516
1.1997772
1.2000139
1.2002658
1.2005379
1.2008334
1.2011139
1.2011909
1.2012228
1.2012888
1.2013706
1.2014528
1.2015247
1.2015923
1.2016464
1.2016747
1.1982406
1.1982538
1.198271
1.1982922
1.1983192
1.198354
1.1984008
1.198463
1.198541
1.1986364
1.1987521
1.1988901
1.1990497
1.199228
1.1994216
1.199627
1.1998427
1.2000695
1.2003104
1.2005698
1.2008521
1.2011357
1.2012349
1.2012557
1.2013125
1.2013854
1.2014514
1.2015196
1.2015841
1.2016321
1.2016578
1.1985395
1.1985499
1.1985641
1.1985817
1.1986033
1.1986312
1.1986694
1.1987176
1.1987754
1.1988475
1.1989376
1.1990488
1.1991822
1.1993368
1.1995103
1.1996997
1.1999027
1.2001186
1.200349
1.2005973
1.2008685
1.2011563
1.201278
1.2012908
1.2013366
1.2013947
1.20146
1.2015217
1.2015744
1.2016182
1.2016421
1.1987896
1.1987988
1.1988114
1.1988266
1.1988447
1.198866
1.1988905
1.1989264
1.1989793
1.199041
1.1991121
1.1992007
1.1993098
1.1994406
1.1995928
1.1997645
1.1999535
1.2001583
1.2003793
1.2006184
1.2008808
1.2011677
1.2013177
1.2013281
1.2013629
1.2014136
1.2014702
1.2015179