/*--------------------------------*- C++ -*----------------------------------*\
| =========                 |                                                 |
| \\      /  F ield         | OpenFOAM: The Open Source CFD Toolbox           |
|  \\    /   O peration     | Version:  2406                                  |
|   \\  /    A nd           | Website:  www.openfoam.com                      |
|    \\/     M anipulation  |                                                 |
\*---------------------------------------------------------------------------*/
FoamFile
{
    version     2.0;
    format      ascii;
    arch        "LSB;label=32;scalar=64";
    class       volScalarField;
    location    "0.017";
    object      alphat;
}
// * * * * * * * * * * * * * * * * * * * * * * * * * * * * * * * * * * * * * //

dimensions      [1 -1 -1 0 0 0 0];

internalField   nonuniform List<scalar> 
23203
(
0.024925794
0.026529104
0.028144986
0.02972849
0.031268254
0.032755964
0.034184497
0.035548148
0.036842428
0.038063797
0.039209486
0.040277294
0.041265241
0.042171143
0.042992707
0.043726888
0.044368742
0.044909909
0.045337249
0.027346355
0.02878267
0.030221124
0.031637562
0.033021467
0.034362328
0.035651132
0.036880836
0.038045975
0.03914229
0.040166485
0.041115991
0.041988608
0.042782071
0.043493957
0.044121255
0.044659185
0.045100828
0.045435466
0.029761151
0.031041617
0.032316498
0.033568664
0.034791177
0.035974884
0.037111319
0.038193551
0.039215987
0.040174139
0.041064443
0.04188405
0.042630503
0.043301373
0.04389399
0.04440502
0.044829672
0.045161017
0.045387821
0.032094544
0.033215762
0.034329326
0.035418464
0.03647816
0.03750091
0.038479414
0.039407478
0.040279919
0.041092439
0.041841503
0.042524173
0.043137834
0.043679872
0.044147347
0.044536553
0.044842386
0.045057586
0.045170423
0.034289435
0.035251118
0.036204065
0.037131262
0.038028729
0.038890175
0.039709395
0.040481062
0.041200637
0.041864245
0.042468585
0.043010785
0.04348816
0.043897918
0.044236821
0.044500754
0.044684165
0.044779344
0.044774126
0.036287964
0.037091402
0.0378853
0.038652573
0.039389965
0.04009206
0.040753535
0.041369868
0.041937186
0.042452111
0.042911658
0.043313086
0.043653679
0.043930459
0.044139857
0.044277309
0.044336756
0.044309996
0.044184477
0.03803354
0.038681583
0.039319588
0.039930489
0.04051162
0.041058255
0.041565791
0.042030396
0.042448796
0.042818083
0.043135574
0.043398654
0.043604547
0.043750053
0.043831227
0.043843009
0.043778798
0.043629882
0.043383398
0.039470125
0.039967496
0.040454649
0.040914588
0.041345147
0.041742185
0.042101701
0.042420437
0.042695622
0.04292473
0.043105307
0.04323479
0.04331028
0.043328278
0.043284396
0.043173032
0.042987004
0.042717092
0.042350205
0.040541875
0.040895455
0.041238922
0.0415554
0.041843152
0.042098542
0.042318075
0.042498961
0.042638815
0.042735376
0.042786306
0.04278898
0.042740266
0.042636272
0.04247209
0.042241521
0.041936782
0.041548163
0.041062448
0.04119364
0.0414127
0.041621973
0.041804763
0.041959696
0.042083567
0.0421733
0.04222646
0.042240923
0.042214556
0.042144988
0.042029396
0.041864284
0.041645259
0.041366818
0.041022128
0.040602814
0.040098731
0.039496694
0.04137198
0.041468371
0.041555422
0.041616696
0.041651108
0.041655812
0.041628055
0.041565641
0.041466565
0.041328663
0.041149372
0.040925515
0.040653099
0.040327134
0.039941467
0.039488634
0.038959726
0.038344279
0.037629349
0.041026654
0.04101494
0.040994308
0.040948673
0.040877171
0.04077723
0.040646319
0.040482348
0.040283274
0.040046734
0.039769804
0.039448802
0.039079127
0.038655126
0.038169999
0.037615715
0.036982961
0.036261144
0.03543782
0.04011272
0.040010176
0.039898905
0.039763303
0.039602656
0.03941458
0.039196644
0.038946718
0.038662553
0.038341411
0.037979848
0.03757356
0.037117274
0.036604686
0.036028432
0.035380082
0.034650148
0.033828181
0.032902528
0.038593244
0.038419644
0.038237007
0.038030413
0.037799234
0.037541167
0.037253746
0.036934637
0.036581205
0.036190179
0.035757479
0.035278123
0.034746203
0.034154886
0.033496464
0.032762404
0.031943416
0.031029588
0.030010402
0.036442589
0.036219697
0.035986676
0.035729593
0.03544783
0.03513904
0.034800559
0.034429664
0.034023178
0.033577184
0.033086931
0.032546835
0.03195053
0.031290947
0.030560422
0.029750802
0.028853537
0.027859817
0.026760702
0.033650146
0.033401017
0.033139617
0.032853435
0.032541758
0.032202022
0.031831172
0.031425938
0.030982497
0.030496281
0.029961997
0.029373719
0.028725011
0.028009074
0.027218893
0.026347379
0.025387483
0.024332294
0.023175063
0.030224983
0.029973331
0.029705969
0.029412364
0.029091555
0.028740553
0.028355743
0.027933227
0.027468585
0.026956814
0.026392444
0.025769724
0.025082799
0.02432589
0.023493467
0.022580419
0.021582191
0.02049484
0.019314713
0.026203806
0.025973673
0.025722768
0.025443254
0.025133744
0.024790646
0.024409757
0.023986706
0.023516828
0.02299521
0.022416906
0.021777161
0.021071616
0.020296494
0.019448794
0.01852649
0.017528721
0.01645583
0.015308515
0.021667369
0.021483044
0.021270828
0.021026517
0.020748193
0.020431728
0.020072684
0.019666812
0.019209981
0.018698306
0.018128388
0.017497545
0.016804005
0.016047094
0.015227449
0.014347257
0.013410497
0.012422995
0.011391023
0.016773775
0.01666
0.016508738
0.016320391
0.016092914
0.015822403
0.01550524
0.015138471
0.014719717
0.014247326
0.0137206
0.013139995
0.012507283
0.011825723
0.011100264
0.010337762
0.0095471546
0.0087393771
0.0079255754
0.011834833
0.011811273
0.011740104
0.011626263
0.011468707
0.011265402
0.01101517
0.010717767
0.010373706
0.0099844593
0.0095526569
0.0090822109
0.0085783957
0.0080479156
0.0074989515
0.0069411472
0.0063854516
0.0058436523
0.0053265595
0.0074391329
0.0074985832
0.0075071661
0.0074731586
0.0073972201
0.0072799599
0.0071230474
0.0069291651
0.0067015144
0.0064440399
0.0061615641
0.0058597673
0.0055451068
0.0052246856
0.0049060582
0.0045969576
0.0043049293
0.0040368568
0.0037979468
0.0043842625
0.0044742366
0.0045235389
0.0045431646
0.0045344476
0.0044989694
0.0044386536
0.0043567481
0.0042567163
0.0041422946
0.0040175498
0.0038867537
0.0037542385
0.0036242319
0.0035006762
0.0033870494
0.0032862231
0.003200403
0.0031309765
0.0029624036
0.0030285896
0.0030774599
0.0031105585
0.0031303278
0.0031392114
0.0031379255
0.0031280544
0.0031112107
0.0030890889
0.0030635073
0.0030362862
0.0030091737
0.0029837712
0.002961455
0.0029433192
0.0029301756
0.0029226759
0.0029214059
0.002567328
0.0026041351
0.0026388522
0.0026672229
0.0026923844
0.0027130031
0.0027308869
0.0027465303
0.002760178
0.0027721405
0.0027828464
0.0027927894
0.0028025013
0.0028125073
0.0028232731
0.0028351725
0.0028485163
0.002863717
0.0028813576
0.0024867295
0.0025232374
0.0025553237
0.0025833267
0.0026109553
0.0026350996
0.0026579285
0.0026795136
0.002700084
0.0027196909
0.0027384226
0.0027565094
0.0027742602
0.0027919902
0.0028099814
0.002828469
0.0028476768
0.0028679878
0.0028899021
0.0024760568
0.0025063343
0.0025391976
0.0025722715
0.0026019232
0.0026290933
0.002654747
0.0026793362
0.0027028485
0.0027249829
0.002745933
0.0027661557
0.002786104
0.0028060892
0.0028263129
0.0028469167
0.0028680398
0.0028899904
0.0029130642
0.0025240093
0.0025389112
0.0025620801
0.0025883977
0.0026181321
0.0026468963
0.0026713678
0.0026951779
0.0027189904
0.0027422663
0.0027648014
0.0027867951
0.0028086024
0.0028303628
0.002852144
0.002874017
0.0028961038
0.0029187216
0.0029420125
0.002579703
0.0026003805
0.0026207632
0.0026419169
0.0026619197
0.0026852635
0.0027119288
0.002734722
0.0027553216
0.0027759701
0.0027972146
0.0028190293
0.0028412926
0.0028635544
0.0028856736
0.002907708
0.00292983
0.0029524073
0.0029754368
0.0026293729
0.0026485016
0.0026751207
0.0027016739
0.0027230976
0.0027422124
0.0027628153
0.0027883449
0.0028107474
0.0028294007
0.0028470993
0.0028660632
0.002886398
0.00290695
0.0029274178
0.0029478893
0.0029686144
0.0029899881
0.0030118659
0.0026821496
0.0026982858
0.0027225596
0.0027445559
0.0027717596
0.0027952229
0.0028135071
0.0028336607
0.0028589104
0.0028832273
0.002900754
0.0029168802
0.0029340856
0.0029516936
0.0029696092
0.0029878249
0.0030066093
0.0030263839
0.0030468604
0.0027308902
0.0027460253
0.0027661159
0.0027872024
0.0028080984
0.0028292717
0.0028526142
0.0028706463
0.0028888443
0.0029134011
0.0029358114
0.0029544999
0.0029704653
0.0029864743
0.0030034055
0.0030210034
0.0030393792
0.0030588978
0.0030790068
0.0027743814
0.0027884155
0.0028072247
0.0028264163
0.0028450571
0.0028635332
0.0028814973
0.0029027219
0.0029206617
0.0029382636
0.0029573301
0.0029805715
0.0029996906
0.0030168398
0.0030340672
0.0030520397
0.0030709649
0.0030910383
0.0031111376
0.0028157389
0.0028290225
0.0028467824
0.0028647392
0.002882317
0.0028995783
0.0029162012
0.0029330878
0.002955806
0.0029729806
0.0029933151
0.0030127711
0.0030318541
0.0030519433
0.0030700132
0.0030876091
0.0031059855
0.0031254783
0.0031440667
0.0028561609
0.0028687105
0.0028857611
0.0029031099
0.0029199863
0.0029366536
0.0029526797
0.0029679046
0.0029847119
0.0030005474
0.0030267425
0.0030464275
0.0030636751
0.0030829452
0.0031015687
0.0031197989
0.0031379301
0.0031564629
0.0031720976
0.0028959684
0.0029078831
0.0029239341
0.0029404343
0.0029564872
0.0029722062
0.0029874731
0.0030009571
0.0030121898
0.0030264689
0.003040173
0.0030603139
0.003083466
0.0031007384
0.0031180985
0.0031365775
0.0031558479
0.0031748704
0.0031874863
0.002935105
0.0029463955
0.0029615454
0.0029770422
0.0029922426
0.0030071201
0.0030217677
0.0030354291
0.0030456873
0.0030584843
0.0030674242
0.0030779643
0.0030939991
0.0031133421
0.0031318658
0.0031478921
0.0031660516
0.0031847168
0.0029737061
0.0029842858
0.0029985639
0.0030131245
0.0030273837
0.0030415581
0.0030555983
0.0030693679
0.0030827123
0.0030937175
0.0031070696
0.0031169624
0.0031266555
0.0031387223
0.003155159
0.0031702518
0.0031877691
0.0032045614
0.0030115231
0.0030214199
0.0030347805
0.003048442
0.0030617777
0.0030750194
0.0030882367
0.0031014113
0.0031143887
0.003127256
0.0031389588
0.0031526771
0.0031675423
0.0031797761
0.003192323
0.0032090139
0.0032252638
0.0032407434
0.0030485147
0.003057744
0.0030702189
0.0030829952
0.0030954962
0.0031078617
0.0031202183
0.0031327166
0.0031452409
0.0031574466
0.0031694046
0.0031826868
0.0031944439
0.003212985
0.0032249567
0.0032476791
0.0032658842
0.0032813134
0.0030844872
0.0030930907
0.003104739
0.0031167258
0.0031284625
0.0031400341
0.0031515429
0.0031631947
0.003174951
0.003186792
0.0031985835
0.0032099365
0.003220674
0.003231578
0.0032456332
0.0032603071
0.0032836266
0.003305259
0.0031199975
0.0031279663
0.0031388185
0.0031500291
0.0031610181
0.0031717685
0.0031824231
0.003193171
0.0032039464
0.0032148217
0.0032258061
0.0032366456
0.0032465296
0.0032540977
0.0032660342
0.003275443
0.0032889129
0.0033065078
0.0031557836
0.0031631136
0.0031731488
0.003183568
0.0031937858
0.0032037566
0.0032136279
0.0032235676
0.003233594
0.0032438174
0.0032542515
0.003264696
0.0032749836
0.0032851929
0.003293913
0.0033074688
0.0033170882
0.0033274692
0.003191922
0.0031986577
0.0032078643
0.0032174508
0.0032269039
0.0032361751
0.0032453555
0.0032545743
0.003263907
0.0032735044
0.0032834467
0.0032936268
0.0033039921
0.003314713
0.0033262882
0.0033369891
0.00335157
0.0033637081
0.0032274518
0.0032337046
0.0032421398
0.0032508943
0.0032595644
0.0032681522
0.0032767374
0.0032853754
0.0032941352
0.0033031432
0.0033124835
0.0033221492
0.0033322591
0.0033430291
0.0033543535
0.0033661204
0.0033787832
0.0033905797
0.0032612179
0.003267122
0.0032748949
0.003282875
0.0032907633
0.0032986233
0.0033065721
0.0033146543
0.003322904
0.0033313968
0.003340217
0.0033494396
0.0033593086
0.0033699756
0.0033813171
0.0033929685
0.0034039745
0.0034143087
0.0032925372
0.0032981901
0.0033054141
0.0033127277
0.0033199089
0.0033270676
0.0033343732
0.0033419089
0.0033496972
0.0033577805
0.0033662283
0.0033750797
0.0033845233
0.0033946413
0.003405346
0.0034166561
0.0034282178
0.0034371457
0.0033217557
0.0033271858
0.0033339344
0.0033406681
0.0033472185
0.0033537156
0.0033603712
0.0033673288
0.0033746474
0.0033823534
0.003390457
0.0033989525
0.0034079226
0.0034174545
0.0034276746
0.003438816
0.0034507929
0.0034619451
0.0033504539
0.0033555911
0.0033618564
0.0033680309
0.0033739849
0.0033798523
0.0033858673
0.0033922173
0.0033990021
0.0034062574
0.003413967
0.0034220881
0.0034306328
0.0034397211
0.0034496204
0.0034605832
0.0034723816
0.0034831714
0.0033802769
0.0033850711
0.0033908396
0.0033964538
0.003401819
0.0034070693
0.0034124437
0.0034181527
0.0034243341
0.0034310591
0.0034383298
0.0034461075
0.0034543708
0.0034632358
0.003472979
0.0034838192
0.0034955169
0.0035063058
0.0034114766
0.0034159629
0.0034212753
0.0034263743
0.0034312013
0.0034358904
0.0034406761
0.003445776
0.0034513544
0.0034575247
0.0034643342
0.0034717656
0.0034797969
0.0034884987
0.0034980699
0.0035086826
0.0035201344
0.0035307293
0.0034430942
0.0034473372
0.0034522537
0.0034569034
0.0034612691
0.0034654843
0.0034697753
0.0034743552
0.0034793908
0.0034850135
0.0034913097
0.003498301
0.003505988
0.003514418
0.0035237157
0.0035340072
0.0035450813
0.0035552441
0.0034741381
0.0034781697
0.0034827284
0.0034869798
0.0034909499
0.0034947711
0.0034986573
0.0035028108
0.0035073887
0.0035125191
0.0035183056
0.003524813
0.0035320947
0.0035402236
0.0035493024
0.0035594112
0.0035702672
0.0035801373
0.0035043614
0.0035081758
0.003512395
0.0035162832
0.0035199042
0.0035233864
0.00352693
0.0035307273
0.0035349244
0.0035396361
0.0035449646
0.0035510036
0.0035578545
0.0035656339
0.0035744642
0.003584394
0.0035950543
0.0036046816
0.0035343435
0.0035379321
0.003541826
0.0035453746
0.0035486739
0.003551848
0.0035550861
0.0035585745
0.0035624536
0.003566827
0.0035717877
0.0035774365
0.0035838977
0.0035913205
0.0035998564
0.0036095547
0.0036199945
0.0036293735
0.0035652271
0.003568545
0.0035720991
0.0035753044
0.0035782815
0.0035811506
0.0035840918
0.0035872898
0.0035908843
0.0035949737
0.0035996409
0.0036049799
0.0036111163
0.0036182127
0.0036264419
0.0036358648
0.0036460446
0.0036551655
0.0035985471
0.0036015466
0.0036047403
0.0036075906
0.0036102373
0.0036127975
0.003615444
0.00361836
0.0036216866
0.0036255202
0.0036299371
0.0036350209
0.003640887
0.0036476919
0.0036556091
0.0036646999
0.0036745197
0.0036832682
0.0036354087
0.0036380638
0.0036408909
0.0036433881
0.003645709
0.003647967
0.0036503271
0.0036529699
0.0036560374
0.0036596261
0.0036638096
0.0036686648
0.0036742944
0.0036808391
0.0036884552
0.0036971844
0.0037065628
0.0037148203
0.0036760555
0.0036783659
0.0036808389
0.0036830024
0.0036850179
0.0036869924
0.0036890815
0.0036914615
0.0036942749
0.0036976197
0.0037015699
0.0037061996
0.0037116029
0.0037179028
0.0037252275
0.0037335809
0.0037424633
0.0037501361
0.0037200174
0.0037220074
0.00372415
0.0037260037
0.0037277365
0.0037294483
0.0037312833
0.003733412
0.0037359774
0.0037390798
0.0037427948
0.0037471963
0.0037523725
0.0037584311
0.0037654711
0.0037734531
0.003781837
0.0037889197
0.0037662786
0.0037679833
0.0037698261
0.0037713986
0.0037728757
0.00377435
0.0037759526
0.0037778464
0.0037801738
0.0037830378
0.0037865164
0.0037906829
0.0037956207
0.0038014237
0.0038081641
0.0038157616
0.0038236419
0.0038301472
0.0038136881
0.0038151591
0.0038167465
0.0038180753
0.0038193278
0.0038205912
0.0038219842
0.0038236618
0.0038257654
0.0038284006
0.003831647
0.0038355773
0.0038402696
0.0038458062
0.003852236
0.0038594439
0.0038668322
0.0038728005
0.0038616081
0.0038628778
0.0038642448
0.0038653632
0.0038664215
0.0038675017
0.0038687107
0.0038701951
0.0038720946
0.0038745165
0.0038775416
0.0038812409
0.0038856874
0.0038909529
0.0038970665
0.003903884
0.0039107915
0.0039162477
0.003910679
0.0039117352
0.0039128881
0.003913812
0.0039146973
0.0039156189
0.0039166705
0.003917988
0.003919708
0.0039219386
0.0039247611
0.0039282445
0.0039324563
0.0039374573
0.0039432579
0.0039496876
0.0039561188
0.0039610616
0.0039626274
0.0039634355
0.003964366
0.0039651036
0.0039658341
0.003966622
0.0039675453
0.0039687272
0.0039702981
0.0039723651
0.003975009
0.0039782958
0.0039822863
0.0039870298
0.0039925183
0.0039985584
0.004004513
0.0040089393
0.0040190108
0.0040195585
0.0040202761
0.0040208506
0.0040214578
0.0040221487
0.0040229842
0.0040240722
0.004025534
0.0040274726
0.004029966
0.0040330757
0.0040368545
0.004041339
0.0040465034
0.0040521363
0.0040576014
0.0040615161
0.0040798562
0.0040801837
0.0040807348
0.0040811991
0.0040817382
0.0040823888
0.0040831936
0.0040842431
0.0040856462
0.0040874981
0.0040898715
0.0040928212
0.0040963904
0.0041006022
0.0041054153
0.0041106093
0.0041155707
0.0041190131
0.0041427822
0.0041429821
0.0041434469
0.004143878
0.0041444224
0.0041451026
0.0041459437
0.0041470173
0.0041484166
0.0041502258
0.0041525086
0.0041553105
0.0041586634
0.0041625771
0.0041669993
0.0041717156
0.0041761671
0.004179218
0.0042028554
0.0042030704
0.0042035585
0.0042040497
0.0042046801
0.004205462
0.0042064053
0.0042075625
0.004209009
0.0042108144
0.0042130305
0.0042156915
0.0042188171
0.0042224055
0.0042264005
0.0042306114
0.0042345695
0.0042373473
0.0042535363
0.0042539298
0.0042545599
0.0042552041
0.0042559947
0.0042569405
0.0042580409
0.0042593309
0.0042608667
0.0042627015
0.0042648734
0.0042674047
0.0042703039
0.0042735607
0.0042771223
0.0042808358
0.0042843471
0.0042869736
0.0042892708
0.0042899634
0.0042908222
0.0042916835
0.0042926835
0.0042938343
0.0042951292
0.0042965879
0.004298248
0.0043001458
0.004302306
0.0043047403
0.0043074485
0.0043104155
0.0043135958
0.0043168773
0.0043200206
0.0043225807
0.0043085045
0.0043095238
0.0043106336
0.0043117268
0.0043129474
0.0043143137
0.0043158158
0.0043174609
0.0043192701
0.0043212644
0.0043234575
0.0043258529
0.0043284449
0.0043312158
0.0043341267
0.0043370973
0.0043399771
0.0043425105
0.0043144935
0.0043157826
0.0043171074
0.0043184038
0.0043198215
0.004321384
0.0043230794
0.0043249055
0.0043268708
0.0043289851
0.0043312538
0.0043336753
0.0043362406
0.0043389306
0.0043417089
0.004344511
0.0043472382
0.004349764
0.0043129518
0.0043144281
0.0043159129
0.0043173692
0.0043189465
0.0043206703
0.0043225275
0.0043245105
0.0043266199
0.0043288587
0.004331227
0.0043337204
0.0043363279
0.0043390289
0.0043417859
0.0043445363
0.0043471983
0.004349726
0.0043086711
0.0043102784
0.0043118848
0.004313469
0.004315175
0.0043170276
0.0043190139
0.0043211238
0.0043233546
0.0043257057
0.0043281748
0.0043307556
0.0043334359
0.0043361936
0.0043389888
0.0043417529
0.0043443917
0.0043468759
0.004304029
0.0043057436
0.0043074545
0.00430915
0.0043109658
0.0043129253
0.0043150162
0.0043172286
0.0043195588
0.0043220047
0.0043245629
0.0043272258
0.0043299805
0.0043328042
0.0043356559
0.0043384616
0.0043410909
0.0042997387
0.0043015496
0.004303356
0.0043051525
0.0043070662
0.0043091186
0.0043112984
0.0043135968
0.0043160101
0.0043185359
0.0043211696
0.0043239034
0.0043267235
0.0043296073
0.0043325155
0.00433538
0.0043380857
0.0042959879
0.0042978844
0.0042997764
0.0043016635
0.0043036639
0.0043057974
0.004308054
0.0043104259
0.0043129097
0.0043155027
0.0043181999
0.0043209928
0.0043238674
0.0043268013
0.0043297567
0.0043326702
0.0043354371
0.0042928714
0.0042948409
0.0042968066
0.0042987721
0.004300847
0.0043030497
0.0043053713
0.0043078047
0.0043103469
0.0043129951
0.0043157439
0.0043185844
0.0043215024
0.0043244757
0.004327468
0.0043304201
0.004333236
0.0042904615
0.0042924905
0.0042945173
0.0042965482
0.0042986851
0.0043009449
0.0043033194
0.0043058025
0.0043083914
0.0043110831
0.0043138718
0.0043167484
0.0043196986
0.0043227005
0.0043257192
0.004328699
0.0043315516
0.0042888175
0.0042908929
0.0042929681
0.0042950518
0.0042972383
0.0042995431
0.0043019589
0.0043044801
0.0043071042
0.0043098277
0.0043126449
0.0043155464
0.0043185177
0.0043215373
0.0043245715
0.004327568
0.0043304451
0.0042879893
0.0042900986
0.0042922103
0.0042943347
0.0042965592
0.0042988976
0.0043013434
0.0043038917
0.0043065397
0.0043092842
0.0043121188
0.0043150342
0.0043180158
0.0043210425
0.0043240818
0.0043270841
0.0043299735
0.004288021
0.004290153
0.0042922904
0.0042944445
0.0042966959
0.0042990574
0.0043015228
0.0043040876
0.0043067494
0.0043095043
0.004312346
0.0043152649
0.0043182466
0.0043212701
0.0043243043
0.0043273018
0.0043301919
0.0042889559
0.0042911006
0.0042932538
0.0042954275
0.004297696
0.0043000708
0.0043025463
0.0043051182
0.004307784
0.0043105398
0.004313379
0.0043162918
0.0043192639
0.0043222747
0.0043252938
0.0043282764
0.0043311558
0.0042908402
0.0042929885
0.0042951489
0.0042973333
0.0042996101
0.0043019895
0.0043044664
0.0043070368
0.004309698
0.0043124459
0.0043152738
0.0043181715
0.004321125
0.0043241138
0.0043271087
0.0043300665
0.0043329245
0.0042937274
0.0042958715
0.0042980314
0.0043002186
0.0043024957
0.004304872
0.0043073426
0.0043099036
0.0043125523
0.0043152843
0.0043180926
0.0043209671
0.0043238934
0.0043268516
0.0043298132
0.004332737
0.0043355631
0.0042976826
0.0042998154
0.0043019679
0.0043041507
0.0043064211
0.0043087872
0.0043112444
0.004313789
0.004316418
0.0043191267
0.0043219078
0.004324751
0.0043276421
0.0043305613
0.0043334809
0.0043363612
0.0043391453
0.004302786
0.0043049008
0.0043070396
0.0043092115
0.0043114685
0.0043138178
0.004316255
0.0043187765
0.0043213788
0.004324057
0.0043268036
0.0043296079
0.0043324556
0.0043353274
0.0043381962
0.0043410237
0.0043437556
0.0043091354
0.0043112259
0.004313345
0.0043154996
0.0043177367
0.0043200628
0.0043224736
0.0043249652
0.0043275341
0.0043301747
0.0043328791
0.0043356366
0.0043384326
0.0043412481
0.0043440568
0.0043468219
0.0043494912
0.0043168484
0.0043189081
0.0043210015
0.0043231322
0.0043253429
0.0043276391
0.0043300167
0.0043324715
0.0043349996
0.004337595
0.0043402494
0.0043429516
0.0043456869
0.0043484365
0.0043511751
0.0043538674
0.0043564634
0.0043260621
0.0043280842
0.0043301452
0.0043322451
0.0043344222
0.0043366814
0.0043390184
0.0043414288
0.0043439083
0.0043464503
0.0043490458
0.0043516833
0.0043543478
0.0043570207
0.0043596779
0.0043622861
0.0043647977
0.0043369315
0.0043389086
0.0043409297
0.0043429909
0.0043451265
0.0043473405
0.0043496286
0.0043519861
0.0043544081
0.0043568873
0.0043594142
0.0043619765
0.0043645588
0.0043671428
0.0043697058
0.0043722172
0.0043746328
0.0043496243
0.004351548
0.0043535207
0.0043555343
0.0043576193
0.004359779
0.0043620088
0.0043643038
0.0043666582
0.0043690643
0.0043715116
0.0043739868
0.0043764741
0.0043789553
0.0043814092
0.0043838097
0.0043861177
0.0043643133
0.0043661741
0.0043680887
0.0043700446
0.0043720688
0.0043741638
0.0043763248
0.0043785463
0.0043808221
0.0043831435
0.004385499
0.0043878743
0.0043902523
0.0043926148
0.0043949428
0.0043972163
0.0043994051
0.0043811647
0.0043829522
0.0043847977
0.0043866847
0.0043886368
0.0043906556
0.004392736
0.0043948722
0.0043970571
0.0043992812
0.0044015319
0.0044037933
0.0044060469
0.0044082734
0.004410456
0.0044125833
0.004414642
0.0044003233
0.0044020257
0.0044037904
0.0044055963
0.004407464
0.0044093941
0.0044113813
0.0044134193
0.0044155003
0.0044176139
0.0044197462
0.0044218795
0.0044239932
0.0044260656
0.0044280806
0.0044300377
0.0044319535
0.0044218933
0.0044234986
0.00442517
0.0044268819
0.0044286522
0.0044304806
0.0044323613
0.0044342878
0.0044362514
0.0044382409
0.0044402412
0.0044422328
0.004444192
0.004446093
0.0044479163
0.0044496693
0.0044514182
0.0044459178
0.0044474138
0.004448979
0.0044505841
0.0044522437
0.0044539571
0.0044557181
0.0044575195
0.0044593523
0.0044612045
0.0044630599
0.0044648974
0.0044666901
0.0044684063
0.0044700158
0.0044715156
0.0044730185
0.0044723557
0.0044737306
0.0044751775
0.004476663
0.0044781994
0.004479785
0.0044814135
0.0044830772
0.0044847665
0.0044864689
0.0044881676
0.0044898404
0.0044914585
0.0044929845
0.0044943727
0.0044955693
0.0045010606
0.0045023042
0.0045036217
0.0045049763
0.004506378
0.0045078243
0.0045093088
0.0045108233
0.004512358
0.0045138999
0.0045154318
0.0045169314
0.0045183694
0.0045197086
0.0045209039
0.004521905
0.0045317633
0.0045328674
0.0045340464
0.0045352608
0.0045365184
0.0045378162
0.0045391473
0.0045405037
0.004541875
0.004543248
0.0045446057
0.0045459254
0.0045471781
0.0045483269
0.0045493276
0.0045501312
0.0045640609
0.0045650205
0.004566055
0.0045671228
0.0045682299
0.0045693728
0.0045705445
0.0045717368
0.0045729393
0.0045741388
0.0045753183
0.0045764556
0.0045775222
0.0045784821
0.0045792922
0.0045799057
0.0045974172
0.0045982312
0.0045991187
0.0046000374
0.0046009914
0.0046019769
0.0046029871
0.0046040136
0.0046050462
0.0046060718
0.004607074
0.0046080312
0.0046089159
0.0046096937
0.0046103234
0.0046107608
0.0046311758
0.0046318475
0.0046325901
0.0046333615
0.0046341643
0.0046349947
0.0046358459
0.0046367096
0.004637576
0.0046384325
0.0046392633
0.0046400482
0.004640761
0.0046413695
0.0046418349
0.0046421163
0.0046645892
0.0046651266
0.0046657311
0.0046663618
0.0046670203
0.0046677027
0.0046684023
0.0046691115
0.0046698207
0.0046705182
0.0046711893
0.004671815
0.0046723715
0.004672829
0.0046731521
0.0046733034
0.0046968626
0.0046972783
0.0046977561
0.0046982575
0.0046987833
0.0046993297
0.0046998905
0.0047004584
0.0047010246
0.0047015784
0.0047021063
0.0047025913
0.004703012
0.0047033418
0.0047035491
0.0047036006
0.0047272118
0.0047275222
0.0047278888
0.0047282766
0.0047286856
0.0047291124
0.0047295512
0.0047299955
0.0047304374
0.0047308671
0.0047312727
0.0047316395
0.0047319488
0.0047321775
0.0047322984
0.0047322823
0.0047549286
0.0047551527
0.0047554266
0.0047557192
0.0047560305
0.0047563572
0.0047566943
0.0047570359
0.004757375
0.0047577032
0.0047580103
0.0047582836
0.0047585077
0.0047586632
0.0047587275
0.0047586757
0.0047794463
0.0047796043
0.0047798053
0.004780023
0.0047802571
0.0047805047
0.0047807616
0.0047810227
0.0047812821
0.0047815324
0.0047817652
0.0047819701
0.0047821346
0.0047822436
0.0047822787
0.0047822197
0.004800394
0.0048005054
0.0048006532
0.0048008157
0.0048009927
0.0048011819
0.0048013798
0.0048015822
0.0048017839
0.0048019789
0.0048021602
0.0048023196
0.0048024475
0.0048025326
0.0048025613
0.0048025179
0.0048176308
0.0048177126
0.0048178246
0.0048179498
0.0048180879
0.0048182373
0.004818395
0.0048185576
0.004818721
0.0048188802
0.0048190295
0.0048191624
0.0048192719
0.0048193501
0.0048193883
0.0048193755
0.0048312477
0.0048313134
0.0048314039
0.0048315061
0.0048316201
0.0048317444
0.004831877
0.0048320152
0.0048321556
0.0048322942
0.0048324262
0.0048325466
0.0048326501
0.004832732
0.0048327879
0.0048328125
0.0048415397
0.0048415988
0.0048416779
0.0048417675
0.0048418678
0.0048419778
0.004842096
0.0048422205
0.0048423485
0.0048424768
0.0048426015
0.0048427183
0.004842823
0.0048429126
0.0048429866
0.0048430473
0.0048489506
0.0048490084
0.0048490823
0.0048491657
0.0048492587
0.0048493609
0.0048494713
0.0048495885
0.0048497103
0.0048498343
0.0048499572
0.0048500752
0.0048501842
0.0048502811
0.0048503665
0.0048504507
0.0048540045
0.0048540631
0.0048541348
0.004854215
0.0048543039
0.0048544016
0.0048545073
0.0048546201
0.0048547385
0.0048548605
0.0048549837
0.0048551046
0.0048552193
0.0048553227
0.0048554092
0.0048572408
0.0048572999
0.00485737
0.0048574478
0.0048575337
0.0048576277
0.0048577296
0.0048578387
0.004857954
0.004858074
0.0048581968
0.0048583201
0.0048584408
0.0048585552
0.0048586591
0.0048591605
0.0048592189
0.0048592868
0.0048593619
0.0048594445
0.0048595349
0.0048596328
0.0048597377
0.0048598488
0.0048599651
0.004860085
0.0048602067
0.0048603279
0.0048604457
0.0048605567
0.004860195
0.0048602515
0.0048603163
0.004860388
0.0048604668
0.0048605529
0.0048606459
0.0048607455
0.0048608508
0.004860961
0.0048610747
0.0048611905
0.0048613065
0.0048614204
0.0048615294
0.0048606885
0.0048607419
0.004860803
0.0048608707
0.0048609449
0.0048610257
0.0048611127
0.0048612052
0.0048613025
0.0048614036
0.0048615073
0.0048616124
0.0048617173
0.0048618204
0.0048619192
0.0048608964
0.004860946
0.0048610026
0.0048610654
0.0048611339
0.004861208
0.0048612871
0.0048613702
0.0048614565
0.0048615448
0.0048616343
0.0048617237
0.0048618121
0.0048618981
0.00486198
0.004860991
0.0048610356
0.0048610866
0.0048611431
0.0048612044
0.0048612699
0.0048613386
0.0048614096
0.0048614816
0.0048615537
0.0048616251
0.0048616951
0.0048617629
0.0048618279
0.0048618888
0.0048610693
0.0048611084
0.0048611531
0.0048612021
0.0048612547
0.0048613099
0.0048613665
0.0048614233
0.0048614792
0.0048615333
0.0048615851
0.0048616344
0.004861681
0.0048617248
0.0048617652
0.0048611681
0.0048612012
0.0048612388
0.0048612796
0.0048613227
0.004861367
0.0048614111
0.004861454
0.0048614945
0.004861532
0.0048615664
0.0048615979
0.004861627
0.0048616539
0.0048616786
0.0048612815
0.0048613075
0.0048613369
0.0048613684
0.0048614013
0.0048614345
0.0048614669
0.0048614976
0.0048615257
0.0048615507
0.0048615726
0.004861592
0.0048616094
0.0048616255
0.0048616407
0.0048614213
0.0048614381
0.0048614567
0.0048614765
0.0048614969
0.0048615174
0.0048615372
0.0048615559
0.0048615731
0.0048615885
0.004861602
0.0048616136
0.0048616234
0.0048616319
0.0048616396
0.0048616135
0.0048616204
0.0048616279
0.0048616359
0.0048616443
0.0048616531
0.0048616619
0.0048616706
0.0048616786
0.0048616859
0.0048616923
0.0048616978
0.0048617023
0.0048617057
0.0048619066
0.0048619072
0.0048619081
0.0048619093
0.0048619108
0.0048619125
0.0048619145
0.0048619164
0.0048619183
0.0048619199
0.0048619212
0.004861922
0.004861922
0.0048619212
0.0017997857
0.0024444106
0.0030276836
0.0035776481
0.004142958
0.0047740866
0.0055125709
0.0063871407
0.0074115884
0.0085858709
0.0098999891
0.011338264
0.012883091
0.014517541
0.01622685
0.017999147
0.019825872
0.021702048
0.023621346
0.0021098973
0.002693625
0.0032282755
0.0037714473
0.0043732135
0.0050773126
0.0059139472
0.0068984572
0.0080322318
0.009306191
0.010705428
0.012212858
0.013811774
0.015487327
0.01722725
0.019022277
0.020866619
0.022757801
0.0023831029
0.0029111364
0.0034348802
0.0040104815
0.0046854761
0.0054921973
0.0064465326
0.0075499296
0.008793262
0.010161506
0.011637586
0.013204918
0.014848767
0.016556852
0.018319602
0.020130428
0.021986115
0.023881955
0.0025955257
0.0031071729
0.003659437
0.0043058692
0.0050829675
0.0060087888
0.0070852814
0.0083028849