/*--------------------------------*- C++ -*----------------------------------*\
| =========                 |                                                 |
| \\      /  F ield         | OpenFOAM: The Open Source CFD Toolbox           |
|  \\    /   O peration     | Version:  2406                                  |
|   \\  /    A nd           | Website:  www.openfoam.com                      |
|    \\/     M anipulation  |                                                 |
\*---------------------------------------------------------------------------*/
FoamFile
{
    version     2.0;
    format      ascii;
    arch        "LSB;label=32;scalar=64";
    class       volScalarField;
    location    "0.017";
    object      nut;
}
// * * * * * * * * * * * * * * * * * * * * * * * * * * * * * * * * * * * * * //

dimensions      [0 2 -1 0 0 0 0];

internalField   nonuniform List<scalar> 
23203
(
0.020836933
0.022182881
0.02353369
0.024859142
0.026148369
0.027393443
0.028588162
0.029727719
0.030808355
0.03182713
0.032781772
0.033670507
0.034491745
0.035243739
0.035924671
0.036532103
0.037062013
0.037507541
0.037857843
0.022832523
0.024034572
0.025237224
0.026423031
0.027581817
0.028704046
0.029782073
0.030810001
0.031783242
0.032698231
0.033552234
0.034343146
0.035069184
0.035728519
0.036319197
0.036838793
0.03728342
0.037647348
0.03792169
0.024831582
0.025901998
0.026968735
0.028017794
0.02904177
0.030032588
0.030983219
0.031887898
0.032741946
0.033541617
0.034283961
0.034966639
0.035587655
0.036145045
0.036636656
0.037059792
0.037410509
0.037683057
0.037868108
0.026762444
0.027699369
0.028631502
0.029544619
0.030432738
0.031289219
0.032108052
0.032884108
0.033613061
0.034291334
0.034916007
0.035484671
0.035995196
0.036445462
0.036833083
0.037155039
0.037407125
0.037583328
0.03767392
0.028576645
0.029379992
0.030177973
0.030955973
0.031708757
0.03243069
0.033116689
0.033762365
0.034363937
0.03491819
0.035422402
0.035874218
0.036271449
0.036611824
0.0368927
0.037110708
0.03726127
0.037338005
0.037330824
0.03022651
0.030897454
0.03156262
0.032207195
0.03282647
0.03341553
0.03397004
0.03448629
0.034961063
0.035391561
0.035775327
0.036110119
0.036393716
0.036623689
0.036797115
0.036910243
0.036958073
0.036933811
0.036827048
0.031665292
0.03220632
0.032741352
0.033255483
0.033744455
0.034203928
0.034630174
0.035020063
0.035370882
0.035680228
0.035945895
0.036165743
0.036337501
0.036458549
0.036525646
0.036534624
0.036480025
0.036354631
0.036147769
0.032846666
0.033261807
0.033670945
0.034059156
0.034422592
0.0347574
0.035060359
0.035328821
0.035560492
0.035753289
0.035905196
0.036014114
0.036077664
0.036092973
0.036056426
0.035963397
0.035807942
0.035582413
0.035275947
0.03372451
0.034019575
0.034308825
0.034577384
0.034821774
0.03503857
0.035224976
0.035378731
0.035497867
0.035580519
0.035624763
0.035628446
0.03558899
0.03550319
0.035366993
0.035175268
0.034921567
0.034597829
0.034193084
0.034253303
0.034436088
0.034613391
0.034770456
0.034904141
0.03501139
0.035089755
0.03513727
0.035152184
0.035132732
0.035076965
0.034982555
0.034846619
0.034665528
0.034434727
0.034148552
0.033800057
0.033380816
0.032879878
0.034388967
0.034469416
0.034544781
0.034600507
0.034633748
0.034641759
0.034622358
0.034573777
0.034494358
0.034382311
0.03423552
0.034051358
0.033826523
0.03355688
0.03323733
0.032861678
0.032422526
0.031911182
0.031316888
0.034090116
0.034080428
0.034065999
0.034032567
0.033977542
0.033898424
0.033793209
0.033660214
0.033497747
0.033303848
0.033076093
0.032811431
0.032506048
0.032155252
0.031753397
0.031293815
0.030768765
0.030169442
0.029485501
0.033319798
0.033234427
0.03314443
0.033035958
0.032906637
0.032754141
0.032576542
0.032372121
0.032139008
0.031874927
0.031577017
0.031241702
0.030864604
0.030440484
0.029963222
0.029425812
0.028820365
0.028138189
0.027369596
0.032047738
0.03190321
0.031753721
0.031586011
0.031397884
0.031187106
0.030951713
0.030689806
0.030399192
0.030077147
0.029720273
0.029324429
0.028884701
0.028395405
0.027850131
0.027241783
0.026562633
0.025804433
0.024958433
0.030253049
0.030067546
0.029876049
0.029666157
0.029435811
0.029182763
0.028904876
0.028599924
0.028265255
0.027897603
0.02749301
0.027046828
0.026553758
0.026007916
0.025402924
0.024731999
0.023988025
0.023163668
0.022251485
0.027927318
0.027720081
0.027504898
0.0272706
0.027015195
0.02673629
0.026431411
0.026097868
0.025732469
0.025331404
0.02489026
0.024404099
0.023867562
0.023274986
0.02262053
0.021898291
0.021102401
0.020227101
0.019266767
0.02507842
0.024869226
0.024648997
0.024408277
0.024145045
0.023856587
0.023539955
0.023191926
0.022808813
0.022386437
0.021920237
0.021405419
0.020837103
0.020210471
0.019520915
0.018764174
0.01793645
0.017034451
0.016055124
0.021737076
0.021545956
0.021339295
0.021109976
0.020855825
0.020573669
0.020260057
0.019911367
0.019523703
0.019092964
0.01861502
0.018085905
0.017501978
0.016860085
0.016157718
0.015393179
0.014565737
0.013675664
0.012723523
0.017970397
0.017817564
0.017642902
0.017442443
0.017213806
0.016953414
0.016657611
0.016322866
0.01594573
0.015522953
0.015051692
0.014529701
0.013955489
0.013328481
0.012649189
0.011919416
0.011142457
0.010323139
0.0094666646
0.013909503
0.013815476
0.013691227
0.013536771
0.013349877
0.013127194
0.012865734
0.012563038
0.012217112
0.011826561
0.011390787
0.010910152
0.010386111
0.0098213572
0.0092199867
0.0085876848
0.0079318685
0.0072616186
0.0065861941
0.009812811
0.0097937505
0.0097356807
0.0096425344
0.0095131388
0.0093457345
0.0091393441
0.0088937541
0.0086093741
0.0082874076
0.0079300229
0.0075404543
0.0071230694
0.0066834262
0.0062283117
0.0057657318
0.0053047804
0.0048552529
0.0044261367
0.0061677789
0.006217539
0.006225295
0.0061978784
0.0061357003
0.0060392207
0.0059098152
0.0057496992
0.0055615164
0.0053485285
0.0051147283
0.004864823
0.0046041676
0.0043386562
0.0040745608
0.0038183049
0.0035761595
0.0033538488
0.0031557063
0.0036348552
0.003709845
0.003751137
0.0037678692
0.0037611087
0.0037321465
0.0036825701
0.0036150668
0.0035325032
0.0034379738
0.0033348487
0.0032266704
0.0031170331
0.0030094464
0.0029071844
0.0028131373
0.0027296931
0.002658688
0.0026012789
0.0024559285
0.0025111017
0.002551927
0.0025796863
0.0025963958
0.0026040754
0.0026033184
0.002595437
0.0025817663
0.0025637097
0.0025427743
0.0025204695
0.0024982456
0.0024774317
0.0024591707
0.0024443719
0.0024337104
0.0024277288
0.0024269149
0.0021283777
0.0021591236
0.0021881338
0.0022119164
0.0022330529
0.0022504158
0.002265508
0.0022787445
0.0022903268
0.0023005114
0.0023096533
0.0023181612
0.002326476
0.0023350332
0.0023442191
0.0023543439
0.0023656656
0.0023785267
0.0023934115
0.0020615223
0.0020920333
0.0021188714
0.0021423119
0.0021654409
0.0021856986
0.0022048757
0.0022230247
0.0022403344
0.0022568467
0.0022726341
0.0022878871
0.0023028618
0.0023178194
0.0023329936
0.0023485793
0.0023647623
0.0023818602
0.0024002884
0.0020526397
0.0020779066
0.0021054008
0.0021330779
0.0021579046
0.0021806626
0.0022021625
0.0022227847
0.0022425202
0.0022611172
0.0022787342
0.0022957492
0.0023125379
0.0023293583
0.0023463778
0.0023637134
0.0023814805
0.0023999346
0.002419321
0.0020924668
0.002105
0.0021243357
0.0021463386
0.0021712491
0.002195359
0.0022158846
0.002235851
0.0022558218
0.0022753531
0.0022942747
0.0023127502
0.0023310734
0.0023493596
0.0023676649
0.0023860478
0.0024046092
0.002423612
0.0024431738
0.0021386269
0.002155955
0.0021730655
0.0021907758
0.0022075158
0.0022270984
0.0022494523
0.0022685839
0.0022858872
0.0023032293
0.0023210697
0.002339388
0.0023580822
0.0023767778
0.0023953573
0.0024138679
0.0024324525
0.0024514162
0.0024707558
0.0021798458
0.0021958808
0.0022181266
0.002240337
0.002258278
0.0022742914
0.0022915966
0.0023129945
0.0023317987
0.0023474877
0.0023623796
0.0023783232
0.0023954088
0.0024126787
0.0024298815
0.002447089
0.0024645083
0.0024824671
0.0025008454
0.0022236361
0.0022371813
0.0022574834
0.0022759047
0.0022986493
0.0023182587
0.0023335771
0.0023505131
0.0023716866
0.0023920826
0.0024068361
0.0024204179
0.002434896
0.0024497134
0.0024647903
0.0024801188
0.0024959209
0.0025125463
0.0025297556
0.002264091
0.0022767988
0.0022936237
0.0023112814
0.0023287872
0.0023465322
0.0023660459
0.0023811497
0.002396446
0.0024170422
0.0024358519
0.0024515616
0.0024650068
0.002478489
0.0024927409
0.0025075496
0.0025230063
0.0025394133
0.002556312
0.0023002013
0.0023119893
0.0023277449
0.0023438243
0.002359452
0.0023749488
0.0023900316
0.0024078071
0.0024228572
0.0024376265
0.0024536098
0.0024730949
0.0024891672
0.0025035999
0.0025180959
0.0025332107
0.0025491183
0.0025659808
0.0025828666
0.0023345472
0.0023457056
0.0023605842
0.0023756325
0.0023903715
0.0024048526
0.0024188086
0.002432973
0.0024519765
0.0024663981
0.0024834531
0.0024997762
0.0025157931
0.0025326585
0.0025478512
0.0025626481
0.0025780945
0.0025944698
0.0026100963
0.0023681239
0.0023786666
0.0023929497
0.0024074854
0.0024216332
0.002435611
0.0024490607
0.0024618524
0.0024759259
0.0024892129
0.0025111554
0.0025276902
0.002542185
0.0025583494
0.0025739811
0.002589296
0.0026045324
0.0026201043
0.0026332726
0.0024011973
0.0024112073
0.0024246554
0.0024384813
0.0024519403
0.0024651263
0.0024779418
0.0024892848
0.0024987652
0.0025107468
0.0025222411
0.002539136
0.0025585498
0.0025730739
0.00258766
0.0026031725
0.0026193428
0.0026353116
0.0026459656
0.0024337201
0.0024432067
0.0024559019
0.0024688897
0.0024816357
0.0024941181
0.0025064139
0.0025178967
0.0025265622
0.0025373472
0.0025449128
0.0025537556
0.0025671954
0.0025834467
0.0025990342
0.0026125221
0.0026277615
0.0026434223
0.0024658038
0.0024746955
0.0024866621
0.0024988677
0.002510827
0.0025227199
0.0025345054
0.0025460701
0.0025572857
0.0025665622
0.0025777919
0.0025861699
0.0025943483
0.002604479
0.0026183007
0.0026310148
0.0026457242
0.0026598303
0.0024972418
0.0025055621
0.0025167624
0.0025282168
0.0025394045
0.002550518
0.0025616151
0.0025726807
0.0025835867
0.002594406
0.0026042631
0.0026157901
0.0026282819
0.0026385987
0.0026491399
0.0026631313
0.0026767818
0.0026897983
0.0025279991
0.002535761
0.002546222
0.002556937
0.002567427
0.002577808
0.0025881855
0.0025986841
0.0026092082
0.0026194717
0.0026295335
0.002640699
0.0026506019
0.0026661089
0.0026761751
0.0026952012
0.002710483
0.0027234492
0.0025579144
0.0025651529
0.0025749236
0.002584979
0.00259483
0.0026045473
0.0026142158
0.0026240065
0.0026338872
0.0026438416
0.002653758
0.002663314
0.0026723631
0.0026815539
0.0026933281
0.0027056163
0.0027251503
0.0027432878
0.0025874494
0.0025941571
0.0026032633
0.0026126703
0.0026218964
0.0026309277
0.0026398826
0.0026489182
0.0026579799
0.0026671276
0.002676369
0.0026854933
0.0026938276
0.002700243
0.0027102922
0.0027182221
0.0027294958
0.0027442426
0.0026172158
0.0026233896
0.0026318141
0.0026405604
0.0026491423
0.0026575223
0.0026658228
0.0026741831
0.0026826183
0.00269122
0.0026999995
0.0027087905
0.0027174545
0.0027260567
0.0027334263
0.0027448196
0.00275294
0.0027616479
0.0026472768
0.002652954
0.0026606872
0.0026687386
0.002676682
0.0026844773
0.0026922002
0.0026999578
0.0027078128
0.0027158901
0.0027242564
0.002732823
0.0027415461
0.0027505674
0.0027603014
0.0027693118
0.0027815344
0.0027917403
0.0026768355
0.0026821083
0.0026891979
0.0026965553
0.0027038451
0.0027110693
0.0027182941
0.0027255655
0.0027329408
0.0027405246
0.0027483868
0.0027565218
0.0027650281
0.0027740851
0.0027836053
0.0027934955
0.0028041315
0.0028140522
0.0027049335
0.0027099134
0.00271645
0.0027231611
0.0027297984
0.0027364148
0.0027431076
0.0027499138
0.0027568615
0.0027640136
0.0027714399
0.0027792027
0.0027875045
0.002796471
0.002806
0.0028157895
0.0028250483
0.0028337568
0.0027310038
0.002735772
0.0027418496
0.0027480041
0.002754051
0.0027600816
0.0027662368
0.0027725855
0.0027791463
0.0027859545
0.0027930677
0.0028005184
0.0028084631
0.0028169699
0.0028259663
0.0028354678
0.0028451817
0.0028527134
0.0027553333
0.0027599134
0.0027655931
0.0027712628
0.0027767827
0.0027822606
0.0027878725
0.0027937376
0.0027999047
0.0028063956
0.0028132191
0.0028203703
0.0028279177
0.0028359339
0.0028445235
0.0028538801
0.0028639324
0.0028733029
0.0027792326
0.0027835665
0.002788842
0.0027940444
0.0027990658
0.0028040176
0.0028090943
0.0028144513
0.0028201715
0.0028262845
0.0028327769
0.0028396132
0.0028468035
0.0028544473
0.0028627665
0.0028719707
0.0028818708
0.0028909359
0.0028040662
0.0028081126
0.0028129728
0.0028177072
0.0028222367
0.0028266731
0.0028312147
0.0028360362
0.002841252
0.002846921
0.0028530453
0.0028595927
0.0028665454
0.0028739999
0.0028821854
0.0028912838
0.0029010963
0.0029101568
0.002830043
0.0028338312
0.0028383102
0.002842614
0.002846694
0.0028506615
0.0028547113
0.002859024
0.0028637358
0.002868941
0.0028746789
0.0028809351
0.0028876915
0.0028950065
0.0029030454
0.002911951
0.0029215553
0.0029304508
0.0028563677
0.0028599515
0.0028640992
0.0028680275
0.0028717216
0.0028752929
0.0028789291
0.002882807
0.0028870652
0.0028918126
0.0028971211
0.0029030085
0.0029094755
0.0029165614
0.0029243697
0.0029330049
0.0029422921
0.0029508254
0.0028822177
0.0028856236
0.0028894718
0.0028930669
0.0028964299
0.0028996713
0.0029029685
0.0029064896
0.0029103647
0.0029147004
0.0029195825
0.002925065
0.0029311922
0.0029380247
0.0029456477
0.0029541278
0.0029632303
0.0029715168
0.0029073881
0.0029106114
0.0029141753
0.0029174664
0.0029205371
0.0029234943
0.0029265044
0.0029297269
0.0029332829
0.0029372679
0.0029417668
0.0029468573
0.0029526236
0.0029591626
0.0029665759
0.0029749039
0.0029838403
0.0029919216
0.0029323593
0.002935393
0.0029386848
0.0029416914
0.0029444926
0.0029471916
0.0029499453
0.0029529086
0.0029561979
0.0029598992
0.0029640897
0.0029688532
0.0029742929
0.0029805326
0.0029876983
0.0029958308
0.003004581
0.0030124528
0.0029580796
0.0029608866
0.0029638941
0.0029666135
0.0029691449
0.0029715882
0.0029740931
0.0029768126
0.002979863
0.0029833257
0.0029872698
0.0029917732
0.0029969403
0.0030029061
0.003009814
0.0030177147
0.0030262458
0.0030339
0.0029858225
0.0029883632
0.0029910695
0.0029934921
0.002995747
0.0029979316
0.0030001895
0.0030026725
0.003005498
0.0030087459
0.0030124794
0.0030167684
0.0030217082
0.0030274292
0.0030340753
0.0030416973
0.0030499266
0.0030572686
0.0030165051
0.0030187582
0.0030211582
0.0030232858
0.0030252681
0.0030271996
0.0030292175
0.0030314715
0.0030340795
0.0030371216
0.0030406591
0.0030447556
0.0030494966
0.003054999
0.0030613924
0.0030687115
0.0030765715
0.003083503
0.0030503299
0.0030522952
0.0030543994
0.003056248
0.0030579749
0.0030596691
0.0030614598
0.0030634935
0.0030658884
0.0030687258
0.0030720672
0.0030759742
0.0030805249
0.0030858215
0.0030919705
0.0030989751
0.0031064207
0.0031128641
0.003086907
0.0030886047
0.0030904329
0.0030920226
0.0030935129
0.0030949871
0.0030965649
0.003098388
0.0031005748
0.0031032088
0.0031063528
0.0031100681
0.003114428
0.0031195219
0.0031254322
0.003132126
0.0031391553
0.0031451062
0.0031253935
0.0031268528
0.0031284307
0.0031297851
0.0031310614
0.0031323366
0.0031337196
0.0031353457
0.003137333
0.0031397671
0.0031427127
0.0031462308
0.0031503906
0.0031552701
0.0031609293
0.0031673016
0.0031739104
0.0031793795
0.0031648345
0.0031660983
0.0031674625
0.003168613
0.0031697012
0.0031707995
0.0031720067
0.0031734515
0.0031752511
0.0031774933
0.0031802442
0.0031835641
0.003187518
0.0031921742
0.0031975734
0.00320362
0.003209818
0.003214839
0.0032047007
0.003205796
0.0032069756
0.0032079498
0.0032088751
0.0032098196
0.0032108724
0.0032121549
0.0032137832
0.0032158465
0.0032184118
0.003221538
0.0032252859
0.0032297149
0.0032348495
0.0032405699
0.0032463666
0.0032509601
0.0032455237
0.0032464403
0.0032474406
0.0032482518
0.0032490318
0.003249843
0.0032507633
0.0032519056
0.0032533832
0.0032552858
0.0032576811
0.0032606262
0.0032641772
0.0032683848
0.0032732576
0.003278654
0.0032840532
0.0032882184
0.0032887365
0.0032894458
0.00329026
0.003290915
0.0032915649
0.0032922634
0.0032930756
0.0032941036
0.0032954557
0.0032972208
0.003299466
0.0033022461
0.0033056117
0.0033096037
0.0033142154
0.0033192865
0.0033242881
0.0033280224
0.0033356319
0.0033361237
0.0033367597
0.0033372779
0.0033378239
0.0033384404
0.0033391781
0.0033401266
0.0033413865
0.0033430433
0.0033451619
0.0033477932
0.0033509813
0.0033547566
0.0033590976
0.0033638288
0.0033684222
0.0033717298
0.0033862325
0.0033865403
0.0033870367
0.0033874619
0.00338795
0.0033885316
0.0033892423
0.0033901573
0.0033913668
0.0033929502
0.0033949675
0.0033974645
0.003400477
0.0034040242
0.0034080718
0.0034124371
0.0034166105
0.0034195243
0.003438562
0.0034387626
0.0034391861
0.0034395823
0.0034400733
0.0034406781
0.0034414175
0.003442351
0.0034435559
0.0034451023
0.0034470429
0.0034494156
0.003452247
0.0034555451
0.0034592667
0.0034632337
0.0034669822
0.0034695692
0.0034885254
0.0034887372
0.0034891787
0.0034896235
0.0034901846
0.0034908723
0.0034916951
0.0034926965
0.0034939391
0.0034954808
0.0034973645
0.0034996188
0.0035022599
0.0035052864
0.0035086517
0.0035121974
0.0035155346
0.0035178932
0.0035306941
0.0035310528
0.0035316109
0.0035321813
0.0035328739
0.0035336963
0.003534648
0.0035357581
0.0035370733
0.0035386378
0.0035404833
0.0035426283
0.0035450797
0.0035478293
0.0035508332
0.0035539642
0.0035569287
0.0035591599
0.0035604571
0.0035610629
0.0035618094
0.0035625585
0.0035634235
0.0035644145
0.0035655261
0.0035667747
0.0035681915
0.0035698066
0.0035716407
0.0035737034
0.0035759946
0.0035785018
0.0035811872
0.0035839579
0.003586615
0.003588789
0.003576523
0.0035773986
0.003578352
0.0035792921
0.0035803387
0.003581507
0.0035827891
0.0035841908
0.0035857296
0.0035874232
0.0035892828
0.0035913114
0.0035935043
0.0035958468
0.0035983067
0.0036008172
0.0036032535
0.0036054034
0.0035815936
0.0035826917
0.003583822
0.0035849294
0.003586138
0.0035874676
0.0035889085
0.0035904588
0.0035921256
0.003593917
0.0035958376
0.003597886
0.0036000549
0.0036023283
0.0036046761
0.0036070448
0.0036093523
0.0036114938
0.0035804113
0.0035816636
0.0035829252
0.0035841638
0.0035855034
0.0035869654
0.003588539
0.0035902179
0.0035920027
0.0035938957
0.0035958972
0.0035980035
0.0036002056
0.0036024863
0.0036048145
0.0036071381
0.0036093895
0.0036115304
0.0035769539
0.0035783136
0.0035796748
0.0035810181
0.003582463
0.0035840305
0.0035857097
0.0035874924
0.0035893763
0.003591361
0.0035934444
0.0035956216
0.0035978823
0.0036002082
0.0036025662
0.0036048993
0.0036071295
0.0036092323
0.0035731948
0.0035746423
0.003576089
0.0035775233
0.003579058
0.0035807128
0.0035824774
0.0035843436
0.0035863085
0.0035883703
0.0035905261
0.0035927698
0.0035950906
0.0035974695
0.0035998726
0.0036022385
0.0036044587
0.0035697262
0.0035712525
0.0035727772
0.0035742941
0.0035759087
0.0035776391
0.0035794762
0.0035814124
0.0035834448
0.0035855714
0.0035877885
0.0035900893
0.0035924628
0.00359489
0.0035973383
0.0035997512
0.0036020331
0.0035667039
0.0035683002
0.0035698947
0.0035714855
0.0035731708
0.0035749674
0.0035768669
0.0035788627
0.0035809523
0.0035831332
0.0035854015
0.0035877499
0.0035901671
0.0035926343
0.0035951202
0.0035975721
0.0035999031
0.0035642065
0.0035658624
0.0035675169
0.0035691717
0.0035709177
0.0035727705
0.0035747226
0.0035767682
0.003578905
0.0035811303
0.00358344
0.0035858266
0.0035882783
0.0035907766
0.0035932916
0.003595774
0.003598144
0.0035622942
0.0035639985
0.0035657026
0.0035674105
0.0035692069
0.0035711058
0.0035731007
0.0035751864
0.0035773606
0.0035796208
0.0035819623
0.0035843775
0.0035868545
0.0035893752
0.0035919106
0.0035944144
0.0035968134
0.0035610161
0.0035627579
0.0035645012
0.0035662519
0.0035680884
0.0035700236
0.0035720516
0.0035741678
0.0035763699
0.0035786554
0.0035810193
0.0035834538
0.003585947
0.003588481
0.0035910279
0.0035935441
0.003595962
0.0035604135
0.0035621826
0.0035639552
0.0035657388
0.0035676057
0.0035695678
0.0035716196
0.0035737571
0.0035759781
0.0035782797
0.0035806569
0.0035831017
0.0035856022
0.0035881408
0.0035906905
0.0035932103
0.0035956369
0.0035605233
0.0035623103
0.0035641033
0.0035659105
0.0035677988
0.0035697791
0.0035718462
0.0035739964
0.0035762276
0.0035785368
0.0035809188
0.0035833653
0.0035858647
0.0035883994
0.0035909436
0.0035934581
0.0035958839
0.0035613812
0.0035631779
0.0035649831
0.0035668057
0.0035687073
0.0035706976
0.0035727721
0.0035749272
0.0035771608
0.0035794697
0.0035818484
0.0035842888
0.0035867791
0.003589302
0.0035918326
0.0035943334
0.0035967491
0.0035630256
0.0035648246
0.0035666349
0.0035684655
0.0035703731
0.0035723664
0.0035744411
0.003576594
0.0035788228
0.0035811241
0.0035834923
0.0035859192
0.0035883929
0.0035908965
0.0035934058
0.0035958849
0.0035982816
0.0035655011
0.0035672959
0.003569105
0.003570937
0.003572844
0.0035748338
0.0035769024
0.0035790466
0.0035812641
0.0035835512
0.0035859023
0.0035883088
0.0035907589
0.0035932361
0.0035957166
0.0035981662
0.0036005354
0.0035688618
0.0035706464
0.0035724486
0.0035742762
0.0035761768
0.0035781573
0.0035802139
0.0035823436
0.0035845438
0.0035868107
0.0035891382
0.0035915178
0.0035939377
0.0035963815
0.0035988261
0.0036012386
0.0036035718
0.0035731742
0.0035749432
0.0035767334
0.0035785511
0.0035804398
0.0035824056
0.0035844448
0.0035865544
0.0035887316
0.0035909723
0.0035932703
0.0035956166
0.0035979995
0.0036004029
0.0036028044
0.0036051721
0.0036074608
0.0035785197
0.0035802679
0.003582041
0.0035838437
0.0035857151
0.0035876608
0.0035896773
0.0035917614
0.00359391
0.0035961186
0.0035983807
0.0036006873
0.0036030264
0.0036053821
0.0036077327
0.0036100476
0.0036122834
0.0035849959
0.0035867179
0.0035884689
0.0035902511
0.0035920999
0.0035940201
0.0035960083
0.003598061
0.003600175
0.0036023453
0.0036045651
0.0036068249
0.0036091127
0.0036114128
0.0036137043
0.0036159578
0.0036181318
0.0035927167
0.0035944069
0.0035961303
0.0035978863
0.0035997066
0.0036015953
0.0036035491
0.0036055643
0.0036076371
0.0036097623
0.0036119324
0.0036141377
0.0036163659
0.0036186015
0.0036208245
0.0036230073
0.0036251103
0.0036018106
0.0036034629
0.0036051526
0.0036068758
0.003608661
0.0036105116
0.0036124241
0.0036143947
0.0036164191
0.0036184915
0.0036206039
0.003622746
0.0036249051
0.0036270662
0.0036292101
0.0036313117
0.0036333341
0.003612417
0.0036140244
0.0036156734
0.0036173565
0.0036190991
0.0036209041
0.0036227676
0.0036246855
0.0036266533
0.0036286642
0.0036307098
0.0036327789
0.0036348585
0.0036369334
0.003638986
0.0036409947
0.003642927
0.0036246794
0.0036262342
0.0036278343
0.0036294689
0.0036311606
0.0036329113
0.003634717
0.0036365735
0.0036384753
0.0036404153
0.003642384
0.0036443695
0.0036463577
0.0036483333
0.0036502807
0.0036521832
0.0036540158
0.0036387359
0.0036402293
0.0036417716
0.0036433486
0.0036449798
0.0036466667
0.0036484051
0.0036501901
0.0036520159
0.0036538746
0.0036557557
0.003657646
0.0036595302
0.0036613923
0.0036632182
0.0036649987
0.0036667225
0.003654707
0.0036561294
0.0036576041
0.0036591132
0.0036606739
0.0036622866
0.0036639471
0.0036656501
0.0036673891
0.0036691554
0.0036709376
0.0036727211
0.0036744885
0.003676222
0.0036779082
0.0036795466
0.0036811512
0.0036726794
0.0036740207
0.0036754175
0.0036768482
0.0036783275
0.0036798553
0.0036814269
0.0036830367
0.0036846777
0.0036863406
0.0036880126
0.0036896779
0.0036913165
0.0036929071
0.0036944335
0.0036959018
0.0036973671
0.0036926889
0.003693939
0.0036952473
0.0036965888
0.0036979758
0.0036994077
0.0037008795
0.003702385
0.003703917
0.0037054652
0.0037070165
0.0037085532
0.003710053
0.0037114896
0.0037128379
0.0037140954
0.0037153558
0.0037147016
0.0037158509
0.0037170605
0.0037183023
0.0037195866
0.003720912
0.0037222732
0.003723664
0.0037250763
0.0037264998
0.0037279204
0.0037293199
0.0037306741
0.0037319522
0.0037331162
0.0037341213
0.0037385959
0.0037396358
0.0037407376
0.0037418704
0.0037430424
0.0037442517
0.0037454929
0.0037467594
0.0037480429
0.0037493326
0.0037506144
0.0037518695
0.0037530737
0.0037541962
0.0037551994
0.0037560417
0.0037641482
0.0037650719
0.0037660584
0.0037670744
0.0037681263
0.0037692119
0.0037703255
0.0037714602
0.0037726076
0.0037737567
0.0037748932
0.0037759985
0.0037770484
0.0037780123
0.0037788534
0.0037795311
0.0037910238
0.0037918273
0.0037926933
0.0037935872
0.0037945139
0.0037954705
0.0037964513
0.0037974494
0.0037984562
0.0037994608
0.003800449
0.0038014023
0.0038022972
0.0038031037
0.0038037861
0.0038043055
0.0038187773
0.0038194595
0.0038202032
0.0038209729
0.0038217721
0.0038225977
0.003823444
0.0038243041
0.0038251694
0.0038260292
0.0038268697
0.0038276731
0.0038284165
0.0038290714
0.0038296034
0.003829976
0.0038468634
0.0038474272
0.0038480502
0.0038486973
0.0038493706
0.0038500671
0.0038507809
0.0038515055
0.0038522324
0.0038529514
0.0038536492
0.003854309
0.0038549093
0.0038554231
0.0038558184
0.003856061
0.0038746611
0.0038751131
0.0038756211
0.0038761511
0.0038767043
0.0038772774
0.0038778652
0.003878461
0.0038790571
0.0038796436
0.0038802084
0.0038807357
0.0038812057
0.0038815938
0.0038818704
0.0038820046
0.0039015102
0.0039018608
0.0039022633
0.0039026856
0.0039031283
0.0039035883
0.0039040603
0.0039045385
0.0039050155
0.0039054824
0.0039059279
0.003906338
0.0039066949
0.0039069765
0.0039071566
0.0039072074
0.0039267591
0.003927022
0.0039273319
0.0039276595
0.0039280049
0.0039283652
0.0039287358
0.003929111
0.0039294844
0.0039298478
0.0039301915
0.003930503
0.0039307671
0.0039309644
0.0039310723
0.0039310667
0.0039498193
0.0039500103
0.003950243
0.0039504913
0.0039507553
0.0039510322
0.0039513179
0.0039516075
0.0039518953
0.0039521742
0.0039524357
0.0039526693
0.0039528622
0.0039529984
0.0039530589
0.0039530233
0.0039702199
0.0039703558
0.0039705278
0.0039707136
0.0039709132
0.0039711241
0.003971343
0.0039715655
0.0039717868
0.0039720007
0.0039722002
0.0039723767
0.0039725198
0.003972617
0.003972653
0.0039726111
0.0039876529
0.0039877498
0.0039878772
0.003988017
0.003988169
0.0039883313
0.0039885009
0.0039886743
0.0039888474
0.0039890151
0.0039891716
0.00398931
0.0039894224
0.0039894994
0.0039895298
0.0039895004
0.0040020008
0.004002073
0.0040021705
0.0040022791
0.0040023985
0.0040025274
0.0040026634
0.0040028036
0.0040029446
0.0040030823
0.0040032119
0.004003328
0.0040034248
0.0040034959
0.0040035339
0.0040035296
0.0040133392
0.0040133979
0.0040134773
0.0040135666
0.0040136657
0.0040137736
0.0040138885
0.0040140082
0.0040141299
0.0040142502
0.0040143652
0.0040144707
0.0040145623
0.0040146361
0.0040146885
0.004014715
0.0040219131
0.004021966
0.0040220358
0.0040221145
0.004022202
0.0040222978
0.0040224006
0.0040225086
0.0040226198
0.0040227313
0.00402284
0.0040229423
0.0040230346
0.0040231146
0.0040231817
0.004023238
0.0040280908
0.0040281426
0.0040282079
0.0040282812
0.0040283626
0.0040284517
0.0040285478
0.0040286496
0.0040287554
0.0040288631
0.0040289701
0.0040290731
0.0040291688
0.0040292546
0.004029331
0.0040294065
0.0040323079
0.0040323601
0.0040324234
0.0040324939
0.0040325717
0.0040326569
0.0040327489
0.0040328469
0.0040329497
0.0040330557
0.0040331627
0.004033268
0.0040333681
0.0040334592
0.0040335363
0.0040350121
0.0040350647
0.0040351265
0.0040351948
0.00403527
0.004035352
0.0040354407
0.0040355355
0.0040356356
0.0040357397
0.0040358462
0.0040359533
0.0040360583
0.0040361583
0.0040362496
0.0040366198
0.0040366717
0.0040367316
0.0040367975
0.0040368699
0.0040369487
0.0040370339
0.0040371251
0.0040372216
0.0040373224
0.0040374264
0.004037532
0.0040376373
0.00403774
0.004037837
0.0040374894
0.0040375395
0.0040375967
0.0040376597
0.0040377288
0.0040378039
0.004037885
0.0040379716
0.0040380631
0.0040381587
0.0040382575
0.004038358
0.0040384588
0.0040385581
0.0040386534
0.0040379066
0.004037954
0.004038008
0.0040380675
0.0040381327
0.0040382033
0.0040382792
0.0040383599
0.0040384446
0.0040385325
0.0040386228
0.0040387143
0.0040388058
0.0040388959
0.0040389825
0.0040380834
0.0040381276
0.0040381778
0.0040382331
0.0040382934
0.0040383584
0.0040384276
0.0040385003
0.0040385757
0.004038653
0.0040387312
0.0040388096
0.0040388873
0.004038963
0.0040390354
0.0040381627
0.0040382027
0.0040382482
0.0040382982
0.0040383524
0.0040384101
0.0040384706
0.0040385331
0.0040385966
0.0040386602
0.0040387234
0.0040387855
0.0040388459
0.004038904
0.0040389589
0.004038225
0.0040382604
0.0040383005
0.0040383443
0.0040383911
0.0040384402
0.0040384906
0.0040385412
0.0040385912
0.0040386398
0.0040386866
0.0040387314
0.0040387741
0.0040388146
0.0040388524
0.0040383006
0.004038331
0.0040383651
0.004038402
0.0040384409
0.0040384809
0.0040385209
0.0040385599
0.004038597
0.0040386318
0.0040386642
0.0040386942
0.0040387223
0.0040387487
0.0040387734
0.004038385
0.0040384094
0.0040384367
0.0040384658
0.0040384962
0.004038527
0.0040385572
0.0040385861
0.0040386129
0.0040386373
0.0040386592
0.0040386791
0.0040386976
0.004038715
0.0040387318
0.0040384868
0.0040385035
0.0040385218
0.0040385412
0.0040385613
0.0040385814
0.0040386011
0.0040386201
0.0040386378
0.0040386542
0.0040386691
0.0040386825
0.0040386946
0.0040387056
0.0040387162
0.0040386295
0.004038638
0.0040386471
0.0040386567
0.0040386667
0.0040386772
0.0040386879
0.0040386984
0.0040387086
0.0040387182
0.0040387273
0.0040387356
0.0040387434
0.0040387502
0.004038857
0.0040388602
0.0040388638
0.0040388677
0.0040388719
0.0040388765
0.0040388813
0.0040388863
0.0040388912
0.0040388961
0.0040389008
0.0040389053
0.0040389093
0.0040389125
0.0015200971
0.0020646248
0.0025567079
0.0030197716
0.0034949535
0.0040250261
0.004645136
0.0053795721
0.0062399551
0.007226225
0.0083298803
0.0095376305
0.010834567
0.012206359
0.013640505
0.015126936
0.016658385
0.018230603
0.019838216
0.0017814651
0.0022737427
0.0027237747
0.0031800899
0.0036852585
0.0042764117
0.0049790551
0.0058060782
0.0067585616
0.0078287646
0.009004016
0.01026982
0.011612022
0.013018048
0.014477516
0.01598258
0.017528319
0.019112604
0.0020116351
0.0024564203
0.0028968346
0.0033803344
0.0039472526
0.0046249407
0.0054267483
0.0063538149
0.0073983798
0.0085476875
0.0097872705
0.011103088
0.012482671
0.013915623
0.015393837
0.01691172
0.018466519
0.020054231
0.002190323
0.0026208363
0.0030849171
0.0036279066
0.0042807418
0.0050586671
0.005963258
0.0069863681