/*--------------------------------*- C++ -*----------------------------------*\
| =========                 |                                                 |
| \\      /  F ield         | OpenFOAM: The Open Source CFD Toolbox           |
|  \\    /   O peration     | Version:  2406                                  |
|   \\  /    A nd           | Website:  www.openfoam.com                      |
|    \\/     M anipulation  |                                                 |
\*---------------------------------------------------------------------------*/
FoamFile
{
    version     2.0;
    format      ascii;
    arch        "LSB;label=32;scalar=64";
    class       volScalarField;
    location    "0.017";
    object      p;
}
// * * * * * * * * * * * * * * * * * * * * * * * * * * * * * * * * * * * * * //

dimensions      [1 -1 -2 0 0 0 0];

internalField   nonuniform List<scalar> 
23203
(
100698.07
100669.85
100667.96
100659.5
100650.75
100645.23
100643.32
100644.72
100649.08
100656.04
100665.28
100676.45
100689.27
100703.49
100718.83
100735.01
100751.83
100769.04
100786.42
100838.72
100822.21
100811.97
100797.03
100782.96
100772.23
100764.82
100760.39
100758.73
100759.59
100762.72
100767.86
100774.73
100783.1
100792.75
100803.43
100814.89
100827.07
100839.87
100927.91
100914.34
100898.25
100878.96
100862.29
100849.36
100839.67
100832.86
100828.71
100826.99
100827.47
100829.9
100834.04
100839.66
100846.51
100854.35
100863.08
100872.62
100882.92
101007.29
100993.75
100975.52
100953.99
100935.25
100920.25
100908.4
100899.35
100892.89
100888.82
100886.91
100886.92
100888.65
100891.87
100896.37
100901.94
100908.47
100915.86
100924.02
101081.9
101068.49
101049.43
101026.69
101006.49
100989.83
100976.17
100965.16
100956.62
100950.37
100946.21
100943.92
100943.32
100944.2
100946.37
100949.68
100953.98
100959.18
100965.15
101151.37
101138.34
101118.97
101095.6
101074.45
101056.59
101041.51
101028.9
101018.59
101010.44
101004.27
100999.9
100997.14
100995.84
100995.82
100996.94
100999.07
101002.1
101005.93
101215.99
101203.45
101184.11
101160.52
101138.84
101120.14
101103.99
101090.08
101078.3
101068.51
101060.57
101054.32
101049.61
101046.29
101044.22
101043.28
101043.33
101044.31
101046.09
101276.26
101264.31
101245.26
101221.75
101199.84
101180.61
101163.66
101148.73
101135.71
101124.51
101115.01
101107.08
101100.58
101095.41
101091.43
101088.55
101086.65
101085.66
101085.49
101332.58
101321.32
101302.73
101279.53
101257.61
101238.08
101220.55
101204.81
101190.77
101178.36
101167.48
101158.04
101149.93
101143.04
101137.3
101132.6
101128.86
101126.02
101124
101385.33
101374.81
101356.81
101334.04
101312.28
101292.61
101274.68
101258.3
101243.4
101229.95
101217.86
101207.06
101197.48
101189.03
101181.65
101175.27
101169.81
101165.23
101161.47
101434.83
101425.08
101407.72
101385.47
101363.96
101344.26
101326.05
101309.16
101293.54
101279.18
101266.02
101254
101243.09
101233.22
101224.34
101216.4
101209.35
101203.15
101197.76
101481.37
101472.37
101455.66
101433.95
101412.74
101393.08
101374.67
101357.35
101341.12
101325.96
101311.84
101298.74
101286.62
101275.46
101265.21
101255.84
101247.33
101239.64
101232.74
101525.14
101516.86
101500.76
101479.58
101458.66
101439.06
101420.49
101402.82
101386.04
101370.17
101355.21
101341.13
101327.94
101315.6
101304.12
101293.47
101283.62
101274.58
101266.31
101566.3
101558.65
101543.1
101522.37
101501.73
101482.18
101463.47
101445.48
101428.22
101411.72
101395.99
101381.05
101366.9
101353.53
101340.95
101329.15
101318.12
101307.85
101298.35
101604.91
101597.77
101582.65
101562.3
101541.86
101522.35
101503.5
101485.21
101467.52
101450.46
101434.08
101418.38
101403.4
101389.13
101375.6
101362.8
101350.73
101339.39
101328.78
101640.96
101634.15
101619.32
101599.25
101578.96
101559.44
101540.45
101521.89
101503.82
101486.29
101469.34
101453.01
101437.33
101422.31
101407.98
101394.34
101381.39
101369.13
101357.58
101674.35
101667.65
101652.94
101633.04
101612.85
101593.3
101574.17
101555.38
101537
101519.08
101501.69
101484.86
101468.63
101453.03
101438.06
101423.74
101410.07
101397.06
101384.72
101704.99
101698.04
101683.26
101663.45
101643.32
101623.73
101604.5
101585.55
101566.95
101548.78
101531.09
101513.91
101497.3
101481.26
101465.83
101451
101436.79
101423.2
101410.24
101732.86
101725.06
101709.97
101690.21
101670.14
101650.58
101631.32
101612.33
101593.66
101575.38
101557.56
101540.21
101523.39
101507.1
101491.37
101476.21
101461.62
101447.61
101434.19
101757.72
101748.33
101732.69
101713.04
101693.15
101673.74
101654.62
101635.76
101617.2
101599.01
101581.23
101563.89
101547.02
101530.64
101514.76
101499.39
101484.54
101470.19
101456.36
101778.46
101767.07
101750.95
101731.7
101712.26
101693.23
101674.48
101655.95
101637.7
101619.77
101602.19
101584.98
101568.18
101551.78
101535.81
101520.29
101505.2
101490.57
101476.41
101794.1
101780.57
101764.41
101746.04
101727.41
101709.03
101690.85
101672.84
101655.03
101637.46
101620.16
101603.16
101586.49
101570.15
101554.19
101538.61
101523.45
101508.72
101494.45
101806.64
101790.6
101774.23
101756.77
101739.04
101721.41
101703.88
101686.45
101669.17
101652.06
101635.16
101618.5
101602.12
101586.04
101570.3
101554.92
101539.93
101525.35
101511.2
101816.66
101799.58
101782.59
101765.47
101748.36
101731.4
101714.54
101697.75
101681.06
101664.51
101648.13
101631.97
101616.03
101600.37
101584.99
101569.93
101555.21
101540.85
101526.85
101820.44
101804.78
101789.65
101773.28
101756.33
101739.83
101723.65
101707.5
101691.44
101675.49
101659.68
101644.04
101628.59
101613.36
101598.38
101583.66
101569.23
101555.11
101541.32
101823.97
101807.75
101792.01
101776.89
101762.14
101746.87
101731.29
101715.76
101700.31
101684.96
101669.73
101654.65
101639.72
101624.97
101610.42
101596.1
101582.01
101568.2
101554.66
101826.09
101813.44
101797.39
101781.24
101765.91
101751.27
101736.8
101722.27
101707.64
101692.99
101678.4
101663.92
101649.55
101635.32
101621.25
101607.35
101593.65
101580.16
101566.92
101823.06
101810.61
101800.12
101787.44
101771.52
101755.61
101741.16
101727.39
101713.63
101699.77
101685.85
101671.97
101658.18
101644.49
101630.91
101617.46
101604.16
101591.04
101578.12
101822.86
101810.85
101797.83
101785.99
101774.62
101760.45
101745.78
101731.9
101718.56
101705.4
101692.2
101678.97
101665.75
101652.58
101639.5
101626.51
101613.64
101600.91
101588.34
101820.59
101809.07
101797.55
101785.66
101774.88
101763.55
101749.56
101736.06
101722.87
101709.98
101697.42
101684.92
101672.35
101659.73
101647.13
101634.6
101622.16
101609.82
101597.62
101818.28
101807.51
101796.36
101784.98
101773.49
101764.05
101754.2
101740.66
101726.9
101713.85
101701.54
101689.74
101677.92
101665.94
101653.86
101641.79
101629.77
101617.84
101606.01
101815.5
101805.37
101794.92
101784.25
101773.48
101762.65
101753.25
101743.42
101730.84
101717.94
101705.86
101694.26
101682.79
101671.33
101659.75
101648.14
101636.55
101625.02
101613.57
101812.4
101802.9
101793.03
101782.92
101772.62
101762.13
101751.4
101741.6
101731.53
101721.17
101711.2
101699.52
101687.71
101676.26
101664.95
101653.73
101642.55
101631.42
101620.35
101809.05
101800.14
101790.88
101781.38
101771.7
101761.85
101751.88
101742.6
101733.54
101723.73
101712.75
101701.87
101691.28
101680.32
101669.33
101658.54
101647.8
101637.07
101626.39
101805.41
101797.06
101788.38
101779.5
101770.49
101761.39
101752.2
101742.87
101734.96
101725.82
101713.97
101702.97
101692.77
101682.84
101672.87
101662.61
101652.31
101642
101631.71
101801.48
101793.64
101785.45
101777.06
101768.53
101759.85
101751.03
101742.04
101732.96
101724.67
101716.74
101706.66
101695.73
101685.3
101675.4
101665.65
101655.96
101646.17
101636.32
101797.32
101789.94
101782.22
101774.3
101766.23
101758
101749.6
101741.04
101732.31
101723.29
101715.02
101708.19
101699.97
101689.29
101678.03
101668.02
101658.86
101649.65
101792.97
101786.02
101778.75
101771.28
101763.66
101755.9
101747.98
101739.92
101731.74
101723.54
101715.29
101706.48
101698.52
101690.89
101681.01
101671.15
101661.99
101652.93
101788.48
101781.93
101775.06
101768.01
101760.82
101753.48
101745.99
101738.35
101730.55
101722.59
101714.5
101706.5
101698.22
101689.65
101682.06
101673.94
101665
101656.11
101783.88
101777.7
101771.21
101764.55
101757.75
101750.81
101743.73
101736.49
101729.11
101721.58
101713.92
101706.1
101698.2
101691.33
101684.05
101675.21
101666.28
101657.77
101779.21
101773.37
101767.23
101760.93
101754.5
101747.93
101741.23
101734.39
101727.41
101720.3
101713.06
101705.7
101698.24
101690.81
101684.47
101677.96
101668.82
101659.64
101774.48
101768.96
101763.14
101757.18
101751.09
101744.87
101738.52
101732.03
101725.42
101718.68
101711.82
101704.84
101697.76
101690.65
101683.42
101676.85
101670.78
101663.05
101769.71
101764.49
101758.98
101753.32
101747.55
101741.66
101735.63
101729.48
101723.21
101716.81
101710.3
101703.68
101696.94
101690.09
101683.15
101676
101669.12
101663.41
101764.91
101759.96
101754.74
101749.39
101743.92
101738.33
101732.61
101726.77
101720.81
101714.74
101708.56
101702.26
101695.85
101689.32
101682.65
101675.91
101669.6
101663.09
101760.08
101755.4
101750.46
101745.38
101740.19
101734.89
101729.46
101723.92
101718.26
101712.49
101706.61
101700.62
101694.52
101688.32
101682
101675.62
101669.2
101662.6
101755.24
101750.81
101746.12
101741.31
101736.4
101731.36
101726.21
101720.94
101715.56
101710.07
101704.47
101698.77
101692.96
101687.05
101681.04
101674.91
101668.61
101662.13
101750.4
101746.2
101741.76
101737.2
101732.53
101727.76
101722.87
101717.87
101712.75
101707.52
101702.18
101696.73
101691.19
101685.54
101679.79
101673.95
101667.99
101661.94
101745.55
101741.58
101737.36
101733.04
101728.62
101724.09
101719.45
101714.7
101709.84
101704.87
101699.78
101694.6
101689.31
101683.92
101678.44
101672.88
101667.22
101661.48
101740.72
101736.95
101732.95
101728.85
101724.66
101720.36
101715.96
101711.45
101706.83
101702.11
101697.28
101692.35
101687.31
101682.18
101676.95
101671.64
101666.25
101660.78
101735.91
101732.33
101728.53
101724.64
101720.66
101716.58
101712.4
101708.12
101703.73
101699.25
101694.66
101689.97
101685.18
101680.29
101675.31
101670.24
101665.09
101659.85
101731.11
101727.72
101724.11
101720.41
101716.63
101712.76
101708.79
101704.72
101700.55
101696.28
101691.92
101687.46
101682.9
101678.25
101673.5
101668.67
101663.74
101658.74
101726.35
101723.12
101719.69
101716.17
101712.58
101708.9
101705.13
101701.26
101697.3
101693.24
101689.09
101684.84
101680.5
101676.07
101671.55
101666.93
101662.24
101657.45
101721.61
101718.54
101715.28
101711.94
101708.52
101705.02
101701.44
101697.76
101693.99
101690.13
101686.18
101682.14
101678.01
101673.78
101669.47
101665.08
101660.6
101656.03
101716.89
101713.97
101710.87
101707.69
101704.44
101701.12
101697.71
101694.21
101690.63
101686.96
101683.2
101679.35
101675.42
101671.4
101667.3
101663.11
101658.83
101654.48
101712.2
101709.43
101706.47
101703.45
101700.36
101697.19
101693.94
101690.62
101687.21
101683.72
101680.14
101676.48
101672.74
101668.91
101665
101661.01
101656.93
101652.78
101707.55
101704.9
101702.09
101699.21
101696.27
101693.25
101690.16
101686.99
101683.74
101680.42
101677.02
101673.54
101669.97
101666.33
101662.6
101658.8
101654.91
101650.95
101702.92
101700.4
101697.72
101694.98
101692.18
101689.31
101686.36
101683.34
101680.25
101677.08
101673.84
101670.52
101667.13
101663.66
101660.11
101656.48
101652.77
101648.99
101698.32
101695.92
101693.37
101690.76
101688.09
101685.36
101682.55
101679.68
101676.73
101673.72
101670.63
101667.47
101664.23
101660.92
101657.54
101654.08
101650.55
101646.94
101693.76
101691.48
101689.04
101686.56
101684.02
101681.41
101678.74
101676.01
101673.2
101670.33
101667.39
101664.37
101661.29
101658.14
101654.91
101651.61
101648.24
101644.8
101689.23
101687.06
101684.74
101682.37
101679.95
101677.47
101674.93
101672.32
101669.65
101666.92
101664.11
101661.24
101658.31
101655.3
101652.23
101649.09
101645.87
101642.59
101684.75
101682.68
101680.47
101678.21
101675.91
101673.55
101671.12
101668.64
101666.09
101663.49
101660.82
101658.08
101655.29
101652.42
101649.5
101646.5
101643.44
101640.32
101680.3
101678.33
101676.23
101674.08
101671.88
101669.63
101667.32
101664.96
101662.53
101660.05
101657.5
101654.9
101652.23
101649.51
101646.72
101643.87
101640.95
101637.97
101675.89
101674.02
101672.01
101669.97
101667.88
101665.73
101663.53
101661.28
101658.97
101656.6
101654.18
101651.7
101649.16
101646.56
101643.9
101641.18
101638.4
101635.56
101671.52
101669.74
101667.83
101665.88
101663.89
101661.85
101659.76
101657.61
101655.41
101653.15
101650.84
101648.48
101646.06
101643.58
101641.04
101638.45
101635.8
101633.09
101667.19
101665.49
101663.67
101661.82
101659.93
101657.98
101655.99
101653.95
101651.85
101649.7
101647.5
101645.25
101642.94
101640.58
101638.16
101635.69
101633.16
101630.57
101662.89
101661.28
101659.55
101657.79
101655.98
101654.14
101652.24
101650.3
101648.3
101646.26
101644.16
101642.01
101639.81
101637.56
101635.26
101632.9
101630.48
101628.02
101658.64
101657.1
101655.46
101653.78
101652.07
101650.31
101648.51
101646.66
101644.76
101642.81
101640.82
101638.77
101636.68
101634.53
101632.33
101630.09
101627.78
101625.43
101654.43
101652.97
101651.41
101649.82
101648.19
101646.52
101644.8
101643.04
101641.24
101639.38
101637.48
101635.54
101633.54
101631.5
101629.4
101627.26
101625.06
101622.82
101650.27
101648.89
101647.4
101645.89
101644.34
101642.75
101641.12
101639.45
101637.73
101635.97
101634.16
101632.31
101630.41
101628.46
101626.46
101624.42
101622.32
101620.18
101646.17
101644.85
101643.44
101642
101640.53
101639.02
101637.47
101635.88
101634.24
101632.57
101630.85
101629.08
101627.28
101625.42
101623.52
101621.57
101619.58
101617.53
101642.12
101640.86
101639.52
101638.15
101636.75
101635.32
101633.85
101632.33
101630.78
101629.19
101627.55
101625.87
101624.15
101622.39
101620.58
101618.72
101616.82
101614.87
101638.12
101636.93
101635.65
101634.35
101633.02
101631.66
101630.25
101628.82
101627.34
101625.82
101624.27
101622.67
101621.03
101619.35
101617.63
101615.87
101614.06
101612.2
101634.18
101633.04
101631.83
101630.59
101629.33
101628.03
101626.7
101625.33
101623.92
101622.48
101621
101619.48
101617.92
101616.33
101614.69
101613.01
101611.28
101609.52
101630.29
101629.21
101628.06
101626.88
101625.68
101624.44
101623.17
101621.87
101620.54
101619.16
101617.76
101616.31
101614.83
101613.31
101611.75
101610.15
101608.51
101606.83
101626.45
101625.43
101624.33
101623.21
101622.07
101620.89
101619.69
101618.45
101617.18
101615.87
101614.54
101613.16
101611.75
101610.3
101608.82
101607.3
101605.74
101604.13
101622.67
101621.7
101620.66
101619.59
101618.5
101617.39
101616.24
101615.07
101613.86
101612.62
101611.34
101610.03
101608.69
101607.32
101605.9
101604.46
101602.97
101618.95
101618.02
101617.03
101616.02
101614.99
101613.93
101612.84
101611.72
101610.57
101609.39
101608.18
101606.94
101605.66
101604.35
101603.01
101601.63
101600.22
101615.28
101614.4
101613.46
101612.5
101611.52
101610.51
101609.48
101608.41
101607.32
101606.2
101605.05
101603.87
101602.66
101601.41
101600.13
101598.82
101597.48
101611.68
101610.84
101609.94
101609.03
101608.1
101607.14
101606.16
101605.15
101604.11
101603.05
101601.96
101600.83
101599.68
101598.5
101597.29
101596.04
101594.77
101608.13
101607.34
101606.49
101605.62
101604.74
101603.83
101602.89
101601.94
101600.95
101599.94
101598.9
101597.84
101596.74
101595.62
101594.47
101593.28
101592.07
101604.65
101603.9
101603.09
101602.27
101601.43
101600.57
101599.68
101598.77
101597.84
101596.88
101595.89
101594.88
101593.84
101592.77
101591.68
101590.56
101589.4
101601.24
101600.52
101599.76
101598.98
101598.18
101597.36
101596.52
101595.66
101594.77
101593.86
101592.92
101591.96
101590.98
101589.96
101588.93
101587.86
101586.77
101597.9
101597.22
101596.49
101595.75
101595
101594.22
101593.42
101592.6
101591.76
101590.9
101590.01
101589.1
101588.16
101587.2
101586.21
101585.2
101584.16
101594.63
101593.98
101593.3
101592.59
101591.88
101591.14
101590.38
101589.61
101588.81
101587.99
101587.14
101586.28
101585.39
101584.48
101583.54
101582.58
101581.6
101591.43
101590.82
101590.17
101589.5
101588.82
101588.12
101587.41
101586.67
101585.91
101585.13
101584.34
101583.51
101582.67
101581.81
101580.92
101580.01
101579.07
101588.3
101587.72
101587.11
101586.48
101585.83
101585.17
101584.49
101583.8
101583.08
101582.34
101581.58
101580.8
101580
101579.18
101578.34
101577.48
101576.59
101585.25
101584.7
101584.12
101583.52
101582.91
101582.29
101581.64
101580.98
101580.3
101579.6
101578.89
101578.15
101577.39
101576.61
101575.81
101574.99
101574.15
101582.27
101581.75
101581.19
101580.63
101580.06
101579.46
101578.86
101578.23
101577.59
101576.93
101576.25
101575.55
101574.83
101574.09
101573.34
101572.56
101571.76
101579.36
101578.87
101578.34
101577.81
101577.27
101576.71
101576.13
101575.54
101574.93
101574.31
101573.67
101573.01
101572.33
101571.63
101570.91
101570.17
101569.42
101576.52
101576.06
101575.57
101575.06
101574.55
101574.02
101573.48
101572.92
101572.34
101571.75
101571.14
101570.52
101569.88
101569.22
101568.54
101567.84
101567.12
101573.77
101573.33
101572.86
101572.39
101571.9
101571.4
101570.89
101570.36
101569.82
101569.26
101568.68
101568.09
101567.49
101566.86
101566.22
101565.56
101564.88
101571.1
101570.68
101570.24
101569.79
101569.33
101568.86
101568.38
101567.88
101567.36
101566.84
101566.29
101565.73
101565.16
101564.57
101563.96
101563.33
101562.69
101568.51
101568.12
101567.71
101567.28
101566.85
101566.4
101565.94
101565.47
101564.98
101564.48
101563.97
101563.44
101562.89
101562.33
101561.76
101561.16
101560.55
101566.02
101565.65
101565.26
101564.85
101564.44
101564.02
101563.59
101563.14
101562.68
101562.2
101561.72
101561.21
101560.7
101560.17
101559.62
101559.06
101558.48
101563.61
101563.26
101562.89
101562.51
101562.12
101561.72
101561.31
101560.88
101560.45
101560
101559.54
101559.06
101558.57
101558.07
101557.55
101557.01
101556.46
101561.29
101560.96
101560.61
101560.25
101559.88
101559.5
101559.11
101558.71
101558.29
101557.87
101557.43
101556.98
101556.51
101556.03
101555.54
101555.03
101554.51
101559.05
101558.74
101558.41
101558.06
101557.71
101557.36
101556.98
101556.6
101556.21
101555.81
101555.39
101554.96
101554.52
101554.06
101553.6
101553.11
101552.62
101556.89
101556.6
101556.28
101555.96
101555.62
101555.28
101554.93
101554.57
101554.2
101553.81
101553.42
101553.01
101552.59
101552.16
101551.72
101551.26
101550.79
101554.81
101554.53
101554.23
101553.92
101553.61
101553.29
101552.95
101552.61
101552.26
101551.89
101551.52
101551.13
101550.73
101550.32
101549.9
101549.47
101552.81
101552.54
101552.26
101551.97
101551.67
101551.36
101551.05
101550.72
101550.38
101550.04
101549.68
101549.32
101548.94
101548.55
101548.15
101547.74
101550.89
101550.63
101550.36
101550.09
101549.8
101549.51
101549.21
101548.91
101548.59
101548.26
101547.92
101547.57
101547.22
101546.85
101546.47
101546.08
101549.05
101548.81
101548.55
101548.29
101548.02
101547.75
101547.46
101547.17
101546.87
101546.56
101546.24
101545.91
101545.57
101545.22
101544.86
101544.49
101547.3
101547.07
101546.82
101546.58
101546.32
101546.06
101545.79
101545.51
101545.23
101544.93
101544.63
101544.31
101543.99
101543.66
101543.32
101542.97
101545.63
101545.41
101545.18
101544.95
101544.7
101544.46
101544.2
101543.94
101543.66
101543.38
101543.1
101542.8
101542.49
101542.18
101541.86
101541.52
101544.05
101543.84
101543.62
101543.4
101543.17
101542.93
101542.69
101542.44
101542.18
101541.92
101541.65
101541.36
101541.07
101540.78
101540.47
101540.15
101542.55
101542.36
101542.15
101541.94
101541.72
101541.5
101541.27
101541.03
101540.79
101540.53
101540.27
101540.01
101539.73
101539.45
101539.16
101538.86
101541.15
101540.96
101540.77
101540.56
101540.36
101540.15
101539.93
101539.7
101539.47
101539.23
101538.98
101538.73
101538.47
101538.2
101537.92
101537.64
101539.83
101539.65
101539.47
101539.28
101539.08
101538.88
101538.67
101538.46
101538.24
101538.01
101537.78
101537.54
101537.29
101537.03
101536.77
101536.5
101538.6
101538.44
101538.26
101538.08
101537.89
101537.7
101537.5
101537.3
101537.09
101536.87
101536.65
101536.42
101536.18
101535.94
101535.69
101535.43
101537.47
101537.31
101537.14
101536.97
101536.79
101536.61
101536.42
101536.22
101536.02
101535.82
101535.61
101535.39
101535.16
101534.93
101534.69
101534.45
101536.42
101536.26
101536.11
101535.94
101535.77
101535.6
101535.42
101535.24
101535.05
101534.85
101534.65
101534.44
101534.23
101534.01
101533.78
101533.54
101535.46
101535.31
101535.16
101535.01
101534.84
101534.68
101534.51
101534.33
101534.15
101533.97
101533.77
101533.58
101533.37
101533.16
101532.94
101532.72
101534.59
101534.45
101534.31
101534.16
101534.01
101533.85
101533.69
101533.52
101533.35
101533.17
101532.98
101532.8
101532.6
101532.4
101532.19
101531.98
101533.82
101533.69
101533.55
101533.41
101533.26
101533.11
101532.95
101532.79
101532.63
101532.46
101532.28
101532.1
101531.92
101531.72
101531.52
101531.32
101533.15
101533.02
101532.89
101532.75
101532.61
101532.47
101532.32
101532.16
101532
101531.84
101531.67
101531.5
101531.32
101531.13
101530.94
101532.58
101532.46
101532.33
101532.2
101532.06
101531.92
101531.78
101531.63
101531.48
101531.32
101531.16
101530.99
101530.82
101530.64
101530.45
101532.11
101531.99
101531.87
101531.74
101531.61
101531.48
101531.34
101531.19
101531.05
101530.89
101530.74
101530.57
101530.41
101530.24
101530.06
101531.74
101531.63
101531.51
101531.39
101531.26
101531.13
101531
101530.86
101530.71
101530.57
101530.42
101530.26
101530.1
101529.93
101529.76
101531.48
101531.37
101531.25
101531.13
101531.01
101530.89
101530.76
101530.62
101530.49
101530.34
101530.2
101530.05
101529.89
101529.73
101529.57
101531.32
101531.22
101531.11
101530.99
101530.87
101530.75
101530.63
101530.5
101530.36
101530.23
101530.08
101529.94
101529.79
101529.63
101529.47
101531.29
101531.18
101531.07
101530.96
101530.85
101530.73
101530.61
101530.48
101530.35
101530.22
101530.08
101529.93
101529.79
101529.64
101529.48
101531.37
101531.26
101531.16
101531.05
101530.94
101530.82
101530.7
101530.58
101530.45
101530.32
101530.18
101530.04
101529.9
101529.75
101529.6
101531.57
101531.47
101531.37
101531.26
101531.15
101531.03
101530.92
101530.79
101530.67
101530.54
101530.41
101530.27
101530.13
101529.98
101529.83
101531.88
101531.78
101531.68
101531.58
101531.47
101531.36
101531.24
101531.12
101531
101530.87
101530.74
101530.6
101530.46
101530.32
101530.17
101532.34
101532.24
101532.14
101532.04
101531.93
101531.82
101531.71
101531.59
101531.47
101531.34
101531.21
101531.08
101530.94
101530.79
101530.64
101532.88
101532.78
101532.69
101532.58
101532.47
101532.36
101532.25
101532.13
101532.01
101531.88
101531.75
101531.62
101531.48
101531.34
101533.41
101533.32
101533.22
101533.12
101533.01
101532.9
101532.79
101532.67
101532.55
101532.43
101532.3
101532.17
101532.03
101531.89
100031.33
100023.38
100028.12
100041.56
100058.32
100075.13
100091.51
100107.03
100121.64
100135.11
100147.95
100160.59
100173.46
100186.82
100200.93
100215.96
100232.01
100249.1
100267.2
100055.4
100061.8
100074.15
100093.04
100110.76
100124.69
100135.82
100145.26
100153.95
100162.44
100171.45
100181.46
100192.71
100205.27
100219.1
100234.14
100250.34
100267.61
100066.52
100073.81
100084.78
100098.64
100111.14
100121.75
100131.44
100140.88
100150.24
100160.06
100170.67
100182.24
100194.89
100208.65
100223.52
100239.48
100256.5
100274.51
100073.6
100080.98
100092.46
100105.23
100116.54
100126.26
100135.14
100143.83
100152.81
100162.52
100173.23
100185.06
100198.09
100212.32
100227.72
100244.25
100261.85
100081.13
100088.35
100098.57
100109.42
100118.78
100127.01
100135.05
100143.5
100152.72
100162.96
100174.33
100186.9
100200.68
100215.66
100231.79
100249.03
100267.29
100086.92
100093.11
100101.84
100110.86
100118.8
100126.29
100134.13
100142.78
100152.45
100163.28
100175.33
100188.63
100203.17
100218.91
100235.8
100253.77
100090.11
100095.37
100102.46
100109.87
100116.85
100124.03
100132.02
100141.09
100151.38
100162.94
100175.8
100189.94
100205.32
100221.9
100239.6
100258.35
100090.26
100094.44
100100.1
100106.45
100113.07
100120.4
100128.85
100138.59
100149.66
100162.09
100175.85
100190.92
100207.22
100224.69
100243.25
100087.2
100090.21
100094.98
100100.97
100107.74
100115.57
100124.73
100135.31
100147.32
100160.74
100175.52
100191.59
100208.88
100227.31
100246.77
100081.43
100083.49
100087.67
100093.76
100101.04
100109.62
100119.69
100131.29
100144.39
100158.93
100174.83
100192
100210.35
100229.78
100072.54
100074.33
100078.49
100084.95
100092.98
100102.55
100113.75
100126.56
100140.9
100156.68
100173.81
100192.16
100211.64
100232.13
100060.51
100062.48
100067.13
100074.41
100083.53
100094.37
100106.93
100121.14
100136.89
100154.05
100172.5
100192.12
100212.8
100234.4
100045.41
100048.05
100053.68
100062.18
100072.74
100085.12
100099.28
100115.09
100132.4
100151.07
100170.96
100191.93
100213.86
100027.12
100030.97
100038.08
100048.27
100060.62
100074.85
100090.85
100108.46
100127.5
100147.81
100169.23
100191.63
100214.87
100005.52
100011.2
100020.36
100032.7
100047.24
100063.64
100081.73
100101.34
100122.26
100144.33
100167.38
100191.27
100215.87
99980.523
99988.748
100000.58
100015.57
100032.7
100051.58
100072.02
100093.82
100116.78
100140.72
100165.48
100190.92
99952.159
99963.739
99978.899
99997.061
100017.17
100038.84
100061.86
100086.03
100111.16
100137.06
100163.6
100190.64
99920.654
99936.438
99955.58
99977.402
100000.87
100025.6
100051.42
100078.11
100105.52
100133.47
100161.83
100190.5
99886.463
99907.272
99931.002
99956.92
99984.065
100012.11
100040.88
100070.23
100099.99
100130.04
100160.27
100190.58
99850.268
99876.824
99905.645
99936.012
99967.086
99998.611
100030.47
100062.55
100094.72
100126.9
100159
99812.955
99845.809
99880.08
99915.13
99950.294
99985.411
100020.42
100055.26
100089.86
100124.17
100158.13
99775.536
99815.025
99854.931
99894.768
99934.08
99972.815
100010.98
100048.57
100085.58
100121.97
100157.76
99739.089
99785.303
99830.85
99875.438
99918.843
99961.14
100002.4
100042.68
100082.02
100120.44
100157.98
99704.648
99757.447
99808.484
99857.662
99904.981
99950.701
99994.937
100037.78
100079.35
100119.69
100158.9
99673.157
99732.243
99788.503
99841.976
99892.863
99941.798
99988.832
100034.08
100077.72
100119.86
100160.61
99645.944
99710.627
99771.569
99828.829
99882.818
99934.74
99984.349
100031.75
100077.29
100121.06
100163.21
99623.437
99693.156
99757.761
99818.242
99875.382
99929.913
99981.73
100030.98
100078.24
100123.45
100166.83
99606.26
99680.175
99747.886
99811.061
99870.686
99927.272
99980.989
100032.04
100080.74
100127.09
100171.41
99595.019
99672.18
99742.213
99807.344
99868.782
99927.071
99982.472
100035.04
100084.82
100132.02
100177
99590.342
99669.611
99741.008
99807.165
99869.61
99929.214
99986.269
100040.36
100091.07
100138.83
100184.11
99592.931
99673.23
99745.114
99811.458
99874.084
99934.263
99992.588
100048.02
100099.69
100149.07
100195.65
100240.27
99601.719
99682.927
99755.041
99823.288
99887.523
99945.908
100001.32
100055.34
100108.27
100160.96
100210.01
100255.03
99609.604
99692.016
99764.423
99835.791
99905.582
99967.726
100020.88
100068.56
100117.25
100167.44
100215.56
100261.74
99624.827
99704.222
99775.624
99844.802
99908.318
99970.86
100033.45
100089.09
100136.88
100180.74
100225.97
100269.97
99657.278
99740.906
99809.583
99868.231
99925.816
99983.015
100037.38
100091.84
100145.11
100193.2
100238.8
100282.6
100324.31
99691.706
99769.297
99833.727
99893.158
99950.204
100005.49
100058.77
100111.35
100162.2
100210.08
100255.35
100298.63
100340.06
99735.087
99807.672
99868.382
99925.206
99980.069
100033.12
100084.36
100134.24
100182.58
100228.92
100273.2
100315.62
100356.34
99783.013
99851.132
99907.251
99960.337
100012.21
100062.62
100111.47
100158.93
100205.02
100249.59
100292.49
100333.77
100373.54
100411.88
99836.281
99899.672
99950.675
99999.322
100047.48
100094.74
100140.87
100185.84
100229.62
100272.2
100313.41
100353.28
100391.9
100429.24
99894.812
99953.131
99998.609
100042.31
100086.2
100129.79
100172.87
100215.16
100256.44
100296.81
100336.08
100374.23
100411.44
100447.63
99958.414
100011.25
100050.91
100089.28
100128.36
100167.69
100207.43
100246.96
100285.51
100323.49
100360.57
100396.63
100432.22
100467.12
100500.8
100026.76
100073.63
100107.32
100140.1
100173.85
100208.34
100244.63
100281.2
100316.76
100352.18
100386.87
100420.56
100454.49
100487.73
100519.91
100099.36
100140.04
100167.43
100194.12
100222.89
100253.14
100284.81
100317.17
100349.7
100382.31
100414.78
100446.94
100478.62
100509.15
100539.85
100570.49
100177.12
100211.27
100230.96
100251.46
100274.92
100300.39
100327.43
100355.71
100384.79
100414.38
100444.22
100474.15
100503.96
100533.1
100561.26
100589.72
100258.37
100285.44
100297.89
100311.83
100329.59
100349.97
100372.36
100396.44
100421.84
100448.21
100475.21
100502.6
100530.21
100557.76
100584.66
100610.6
100636.85
100342.89
100361.73
100366.75
100373.9
100385.72
100400.87
100418.54
100438.37
100459.99
100483.03
100507.12
100531.94
100557.22
100582.75
100608.26
100633.13
100656.95
100433.23
100441.46
100438.18
100437.9
100443.33
100453.02
100465.9
100481.45
100499.26
100518.92
100540.02
100562.21
100585.13
100608.5
100632.2
100655.93
100678.85
100700.62
100536.05
100535.29
100525.53
100517.67
100515.58
100518.58
100525.55
100535.77
100548.72
100563.94
100581.01
100599.54
100619.13
100639.53
100660.65
100682.23
100703.69
100724.21
100642.67
100646.67
100644.07
100635.63
100627.94
100623.57
100622.68
100625.01
100630.23
100638.01
100648.01
100659.89
100673.29
100688.02
100704.03
100720.97
100738.41
100755.83
100772.67
100075.76
100084.86
100097.79
100111.38
100122.78
100130.7
100136.29
100143.88
100151.98
100160.75
100170.45
100181.11
100192.68
100205.16
100218.6
100233.02
100248.42
100264.79
100282.08
100063.13
100067.68
100077.26
100090.31
100103.81
100115.24
100126.18
100136.12
100145.81
100155.9
100166.59
100177.91
100189.95
100202.8
100216.52
100231.14
100246.67