/*--------------------------------*- C++ -*----------------------------------*\
| =========                 |                                                 |
| \\      /  F ield         | OpenFOAM: The Open Source CFD Toolbox           |
|  \\    /   O peration     | Version:  2406                                  |
|   \\  /    A nd           | Website:  www.openfoam.com                      |
|    \\/     M anipulation  |                                                 |
\*---------------------------------------------------------------------------*/
FoamFile
{
    version     2.0;
    format      ascii;
    arch        "LSB;label=32;scalar=64";
    class       volScalarField;
    location    "0.017";
    object      pMean;
}
// * * * * * * * * * * * * * * * * * * * * * * * * * * * * * * * * * * * * * //

dimensions      [1 -1 -2 0 0 0 0];

internalField   nonuniform List<scalar> 
23203
(
101340.94
101260.53
101218.77
101170.99
101121.64
101076.16
101035.59
100999.62
100967.86
100940.06
100915.67
100894.62
100876.86
100861.72
100849.05
100838.53
100829.97
100823.36
100818.51
101493.63
101434
101379.52
101319.88
101263.02
101211.49
101165.03
101123.27
101085.66
101051.94
101021.88
100995.38
100972.1
100951.67
100933.76
100918.11
100904.76
100893.58
100884.34
101573.68
101522.33
101462.01
101398.22
101338.96
101285.47
101237.01
101192.95
101153.01
101116.94
101084.53
101055.6
101029.84
101006.92
100986.57
100968.6
100952.93
100939.41
100927.93
101640.92
101591.62
101531.04
101467
101407.07
101352.41
101302.41
101256.62
101214.85
101176.87
101142.35
101111.2
101083.3
101058.25
101035.78
101015.74
100998.07
100982.59
100969.18
101701.48
101652.56
101593.04
101530.02
101470.35
101415.35
101364.57
101317.71
101274.6
101235.07
101198.93
101166.07
101136.22
101109.22
101084.85
101062.91
101043.35
101026
101010.74
101753.61
101704.89
101646.74
101585.35
101526.66
101472.02
101421.16
101373.84
101329.96
101289.43
101252.11
101217.86
101186.54
101157.97
101131.98
101108.44
101087.16
101068.11
101051.21
101797.97
101749.43
101692.93
101633.57
101576.36
101522.62
101472.18
101424.93
101380.79
101339.72
101301.63
101266.42
101233.98
101204.17
101176.87
101151.93
101129.26
101108.78
101090.34
101835.3
101787.16
101732.64
101675.59
101620.19
101567.72
101518.14
101471.35
101427.37
101386.14
101347.66
101311.84
101278.61
101247.88
101219.55
101193.5
101169.64
101147.87
101128.11
101866.24
101818.92
101766.64
101712.07
101658.71
101607.8
101559.37
101513.37
101469.85
101428.82
101390.27
101354.15
101320.44
101289.06
101259.95
101233.02
101208.19
101185.37
101164.5
101891.79
101845.75
101795.82
101743.76
101692.52
101643.32
101596.24
101551.27
101508.47
101467.88
101429.53
101393.4
101359.46
101327.69
101298.05
101270.46
101244.87
101221.2
101199.41
101913.09
101868.74
101821.05
101771.34
101722.19
101674.75
101629.13
101585.35
101543.46
101503.52
101465.58
101429.65
101395.73
101363.8
101333.84
101305.8
101279.65
101255.31
101232.77
101930.72
101888.48
101842.86
101795.3
101748.15
101702.48
101658.38
101615.88
101575.04
101535.92
101498.57
101463.03
101429.31
101397.42
101367.33
101339.04
101312.5
101287.67
101264.55
101944.91
101905.08
101861.46
101815.92
101770.72
101726.81
101684.27
101643.12
101603.42
101565.24
101528.63
101493.64
101460.29
101428.6
101398.56
101370.18
101343.43
101318.28
101294.73
101955.8
101918.65
101877.01
101833.43
101790.14
101748
101707.04
101667.3
101628.81
101591.66
101555.9
101521.59
101488.75
101457.4
101427.57
101399.25
101372.45
101347.13
101323.29
101963.69
101929.34
101889.68
101848.05
101806.64
101766.25
101726.9
101688.59
101651.39
101615.35
101580.54
101547
101514.78
101483.91
101454.42
101426.3
101399.57
101374.22
101350.24
101968.91
101937.34
101899.67
101859.95
101820.42
101781.78
101744.05
101707.21
101671.33
101636.46
101602.67
101570
101538.51
101508.22
101479.18
101451.38
101424.84
101399.58
101375.6
101971.78
101942.88
101907.16
101869.33
101831.66
101794.78
101758.67
101723.32
101688.79
101655.14
101622.43
101590.71
101560.03
101530.42
101501.91
101474.54
101448.32
101423.25
101399.36
101972.62
101946.14
101912.33
101876.38
101840.54
101805.4
101770.92
101737.09
101703.94
101671.55
101639.97
101609.26
101579.45
101550.59
101522.72
101495.86
101470.04
101445.26
101421.57
101971.44
101947.18
101915.25
101881.2
101847.21
101813.82
101780.98
101748.67
101716.93
101685.84
101655.43
101625.76
101596.89
101568.85
101541.68
101515.41
101490.08
101465.69
101442.28
101968.39
101946.45
101916.33
101884.08
101851.9
101820.25
101789.04
101758.26
101727.94
101698.15
101668.93
101640.36
101612.46
101585.29
101558.88
101533.28
101508.5
101484.57
101461.53
101962.85
101944.03
101916.14
101885.48
101854.92
101824.91
101795.3
101766.02
101737.12
101708.64
101680.64
101653.18
101626.29
101600.03
101574.44
101549.55
101525.38
101501.98
101479.38
101956.13
101939.02
101914.11
101885.66
101856.61
101828.07
101799.96
101772.16
101744.65
101717.48
101690.7
101664.36
101638.51
101613.19
101588.43
101564.3
101540.81
101517.99
101495.87
101949.15
101933.2
101910.12
101884.21
101857.15
101830.03
101803.29
101776.87
101750.71
101724.83
101699.26
101674.04
101649.23
101624.87
101600.99
101577.64
101554.86
101532.66
101511.09
101941.51
101927.04
101905.42
101881.07
101856.17
101830.88
101805.5
101780.36
101755.47
101730.84
101706.45
101682.36
101658.58
101635.19
101612.2
101589.66
101567.62
101546.08
101525.1
101933.46
101920.26
101900.3
101877.28
101853.8
101830.37
101806.63
101782.8
101759.13
101735.68
101712.44
101689.44
101666.7
101644.26
101622.17
101600.47
101579.18
101558.33
101537.96
101925.19
101913.12
101894.6
101873.05
101850.79
101828.69
101806.66
101784.3
101761.84
101739.52
101717.37
101695.43
101673.7
101652.22
101631.02
101610.15
101589.63
101569.48
101549.76
101916.69
101905.79
101888.63
101868.39
101847.45
101826.52
101805.64
101784.73
101763.61
101742.42
101721.36
101700.44
101679.7
101659.15
101638.84
101618.8
101599.05
101579.62
101560.55
101908.03
101898.15
101882.38
101863.43
101843.65
101823.85
101804.11
101784.35
101764.53
101744.53
101724.51
101704.6
101684.81
101665.18
101645.73
101626.51
101607.53
101588.82
101570.42
101899.39
101890.36
101875.84
101858.18
101839.57
101820.85
101802.15
101783.45
101764.71
101745.88
101726.93
101707.98
101689.14
101670.4
101651.79
101633.37
101615.15
101597.16
101579.42
101890.89
101882.51
101869.09
101852.66
101835.23
101817.6
101799.9
101782.14
101764.36
101746.54
101728.65
101710.69
101692.74
101674.88
101657.11
101639.47
101621.99
101604.7
101587.63
101882.62
101874.82
101862.22
101846.86
101830.63
101814.12
101797.38
101780.51
101763.63
101746.75
101729.79
101712.78
101695.73
101678.69
101661.73
101644.86
101628.11
101611.52
101595.1
101874.5
101867.25
101855.48
101841.03
101825.8
101810.34
101794.62
101778.68
101762.63
101746.55
101730.46
101714.31
101698.12
101681.93
101665.74
101649.62
101633.59
101617.67
101601.9
101866.58
101859.9
101848.91
101835.28
101820.86
101806.3
101791.58
101776.62
101761.42
101746.08
101730.74
101715.4
101700.02
101684.61
101669.2
101653.81
101638.48
101623.22
101608.07
101858.88
101852.76
101842.52
101829.67
101815.97
101802.15
101788.29
101774.24
101759.9
101745.37
101730.76
101716.13
101701.49
101686.83
101672.15
101657.48
101642.82
101628.2
101613.66
101851.39
101845.81
101836.24
101824.09
101811.11
101798
101784.85
101771.56
101758.08
101744.4
101730.52
101716.57
101702.6
101688.62
101674.64
101660.65
101646.66
101632.66
101618.71
101844.11
101839
101830.02
101818.55
101806.3
101793.87
101781.3
101768.68
101755.99
101743.09
101730.01
101716.75
101703.41
101690.05
101676.7
101663.36
101650.01
101636.62
101623.26
101836.85
101832.22
101823.88
101813.08
101801.46
101789.63
101777.72
101765.72
101753.64
101741.48
101729.14
101716.61
101703.95
101691.2
101678.41
101665.65
101652.9
101640.14
101829.77
101825.64
101817.84
101807.57
101796.51
101785.33
101774.07
101762.65
101751.13
101739.58
101727.93
101716.14
101704.16
101692.05
101679.85
101667.64
101655.45
101643.31
101822.79
101819
101811.68
101801.99
101791.58
101781.01
101770.3
101759.49
101748.57
101737.53
101726.47
101715.33
101704.01
101692.53
101680.97
101669.35
101657.7
101646.09
101815.76
101812.37
101805.62
101796.53
101786.63
101776.55
101766.42
101756.18
101745.81
101735.34
101724.79
101714.2
101703.55
101692.75
101681.78
101670.72
101659.64
101648.53
101808.97
101805.89
101799.52
101790.87
101781.5
101772.01
101762.43
101752.72
101742.93
101733.01
101722.97
101712.85
101702.72
101692.56
101682.25
101671.78
101661.23
101650.66
101801.96
101799.22
101793.32
101785.27
101776.47
101767.45
101758.36
101749.18
101739.88
101730.45
101720.93
101711.32
101701.66
101691.99
101682.29
101672.47
101662.5
101652.43
101795.02
101792.66
101787.21
101779.56
101771.17
101762.67
101754.1
101745.41
101736.6
101727.69
101718.69
101709.59
101700.42
101691.21
101681.99
101672.75
101663.38
101653.85
101788.05
101785.85
101780.74
101773.62
101765.82
101757.86
101749.75
101741.52
101733.18
101724.75
101716.23
101707.62
101698.94
101690.2
101681.41
101672.62
101663.84
101654.93
101781.03
101779.14
101774.4
101767.71
101760.37
101752.83
101745.18
101737.43
101729.57
101721.62
101713.58
101705.46
101697.26
101689
101680.67
101672.32
101663.97
101655.62
101773.99
101772.42
101767.99
101761.61
101754.62
101747.58
101740.49
101733.29
101725.94
101718.45
101710.84
101703.17
101695.42
101687.61
101679.74
101671.83
101663.9
101655.94
101766.96
101765.72
101761.68
101755.72
101749.14
101742.44
101735.7
101728.88
101721.96
101714.95
101707.85
101700.67
101693.41
101686.07
101678.67
101671.22
101663.72
101656.2
101759.99
101759.08
101755.37
101749.82
101743.66
101737.39
101731.07
101724.71
101718.26
101711.69
101705.02
101698.25
101691.42
101684.52
101677.55
101670.52
101663.45
101656.34
101753.18
101752.59
101749.21
101744.03
101738.28
101732.42
101726.52
101720.54
101714.51
101708.39
101702.16
101695.84
101689.44
101682.97
101676.45
101669.86
101663.22
101656.53
101746.65
101746.34
101743.27
101738.44
101733.08
101727.63
101722.13
101716.56
101710.92
101705.23
101699.45
101693.55
101687.57
101681.51
101675.4
101669.24
101663.02
101656.74
101740.42
101740.37
101737.56
101733.07
101728.09
101723.04
101717.94
101712.76
101707.51
101702.18
101696.83
101691.38
101685.81
101680.16
101674.45
101668.68
101662.87
101656.99
101734.55
101734.72
101732.15
101727.99
101723.38
101718.71
101713.99
101709.2
101704.33
101699.37
101694.37
101689.32
101684.19
101678.94
101673.62
101668.23
101662.8
101657.3
101729.06
101729.42
101727.06
101723.22
101718.96
101714.65
101710.3
101705.88
101701.38
101696.8
101692.14
101687.43
101682.69
101677.86
101672.92
101667.9
101662.84
101657.71
101723.99
101724.53
101722.35
101718.79
101714.88
101710.92
101706.92
101702.85
101698.7
101694.47
101690.17
101685.79
101681.37
101676.92
101672.38
101667.73
101663
101658.21
101719.38
101720.05
101718.05
101714.78
101711.18
101707.55
101703.88
101700.14
101696.32
101692.43
101688.46
101684.42
101680.3
101676.15
101671.97
101667.7
101663.33
101658.86
101715.24
101716.04
101714.21
101711.18
101707.88
101704.56
101701.19
101697.76
101694.25
101690.67
101687.02
101683.29
101679.49
101675.62
101671.72
101667.8
101663.79
101659.65
101711.58
101712.47
101710.8
101708.03
101705
101701.96
101698.88
101695.73
101692.52
101689.22
101685.87
101682.43
101678.93
101675.35
101671.71
101668.05
101664.36
101660.57
101708.42
101709.37
101707.85
101705.31
101702.55
101699.77
101696.95
101694.07
101691.11
101688.1
101685
101681.85
101678.62
101675.32
101671.95
101668.51
101665.07
101661.58
101705.69
101706.68
101705.31
101702.98
101700.47
101697.95
101695.39
101692.76
101690.05
101687.27
101684.43
101681.53
101678.55
101675.5
101672.39
101669.21
101665.95
101662.69
101703.42
101704.46
101703.25
101701.13
101698.84
101696.55
101694.21
101691.81
101689.32
101686.77
101684.15
101681.46
101678.72
101675.9
101673.01
101670.06
101667.04
101663.94
101701.62
101702.74
101701.7
101699.77
101697.66
101695.54
101693.39
101691.18
101688.9
101686.55
101684.12
101681.63
101679.08
101676.46
101673.78
101671.04
101668.22
101665.32
101700.28
101701.49
101700.67
101698.89
101696.92
101694.94
101692.93
101690.87
101688.74
101686.56
101684.31
101681.99
101679.6
101677.16
101674.65
101672.09
101669.46
101666.76
101699.31
101700.65
101700.06
101698.4
101696.52
101694.63
101692.73
101690.78
101688.78
101686.73
101684.61
101682.45
101680.22
101677.93
101675.57
101673.16
101670.69
101668.16
101698.63
101700.05
101699.65
101698.08
101696.26
101694.46
101692.65
101690.8
101688.9
101686.95
101684.96
101682.92
101680.83
101678.68
101676.47
101674.19
101671.86
101669.46
101698.09
101699.54
101699.24
101697.74
101695.99
101694.27
101692.55
101690.79
101688.99
101687.15
101685.26
101683.32
101681.33
101679.31
101677.23
101675.08
101672.89
101670.61
101697.57
101698.86
101698.56
101697.14
101695.51
101693.89
101692.28
101690.62
101688.92
101687.18
101685.39
101683.55
101681.67
101679.74
101677.78
101675.76
101673.68
101671.53
101697.03
101698.05
101697.66
101696.33
101694.81
101693.3
101691.79
101690.23
101688.63
101686.99
101685.29
101683.56
101681.77
101679.93
101678.04
101676.1
101674.14
101672.11
101696.37
101697.07
101696.59
101695.32
101693.9
101692.48
101691.05
101689.58
101688.06
101686.5
101684.89
101683.23
101681.53
101679.78
101677.97
101676.11
101674.2
101672.24
101695.42
101695.79
101695.2
101693.99
101692.65
101691.31
101689.95
101688.55
101687.1
101685.61
101684.08
101682.5
101680.87
101679.19
101677.46
101675.68
101673.84
101671.95
101694.02
101694.08
101693.38
101692.21
101690.95
101689.68
101688.38
101687.04
101685.65
101684.23
101682.76
101681.24
101679.67
101678.06
101676.39
101674.68
101672.9
101671.08
101692.05
101691.8
101691
101689.89
101688.7
101687.48
101686.24
101684.96
101683.64
101682.27
101680.85
101679.39
101677.88
101676.32
101674.71
101673.05
101671.34
101669.58
101689.21
101688.68
101687.8
101686.72
101685.59
101684.44
101683.25
101682.02
101680.76
101679.44
101678.08
101676.68
101675.22
101673.72
101672.17
101670.56
101668.9
101667.18
101685.62
101684.93
101684.06
101683.09
101682.07
101680.99
101679.87
101678.69
101677.47
101676.2
101674.89
101673.52
101672.11
101670.64
101669.13
101667.55
101665.93
101664.25
101680.85
101680.01
101679.07
101678.1
101677.11
101676.07
101674.99
101673.87
101672.7
101671.49
101670.22
101668.91
101667.55
101666.13
101664.67
101663.16
101661.59
101659.96
101675.39
101674.54
101673.6
101672.66
101671.69
101670.69
101669.65
101668.56
101667.44
101666.27
101665.06
101663.81
101662.5
101661.16
101659.76
101658.31
101656.82
101655.27
101669.77
101668.96
101668.07
101667.17
101666.24
101665.29
101664.29
101663.26
101662.19
101661.08
101659.93
101658.74
101657.49
101656.22
101654.89
101653.51
101652.09
101664.31
101663.53
101662.68
101661.81
101660.93
101660.01
101659.06
101658.07
101657.05
101655.99
101654.89
101653.75
101652.58
101651.36
101650.09
101648.79
101647.44
101658.99
101658.24
101657.43
101656.6
101655.76
101654.88
101653.97
101653.03
101652.05
101651.05
101650
101648.92
101647.8
101646.63
101645.43
101644.19
101642.91
101653.82
101653.11
101652.33
101651.54
101650.73
101649.89
101649.02
101648.12
101647.19
101646.23
101645.23
101644.2
101643.13
101642.02
101640.88
101639.69
101638.47
101648.8
101648.11
101647.37
101646.61
101645.83
101645.04
101644.2
101643.34
101642.45
101641.53
101640.58
101639.59
101638.57
101637.52
101636.43
101635.31
101634.14
101643.91
101643.26
101642.54
101641.81
101641.07
101640.3
101639.51
101638.69
101637.84
101636.96
101636.05
101635.11
101634.13
101633.13
101632.09
101631.02
101629.91
101639.15
101638.52
101637.84
101637.14
101636.43
101635.7
101634.93
101634.15
101633.34
101632.5
101631.63
101630.73
101629.8
101628.84
101627.85
101626.83
101625.77
101634.51
101633.91
101633.26
101632.59
101631.9
101631.2
101630.48
101629.72
101628.95
101628.15
101627.32
101626.46
101625.57
101624.66
101623.71
101622.74
101621.73
101629.99
101629.41
101628.79
101628.15
101627.49
101626.82
101626.12
101625.41
101624.66
101623.9
101623.1
101622.29
101621.44
101620.57
101619.66
101618.73
101617.77
101625.58
101625.02
101624.42
101623.82
101623.19
101622.55
101621.88
101621.19
101620.48
101619.75
101618.99
101618.21
101617.4
101616.57
101615.71
101614.82
101613.91
101621.28
101620.75
101620.17
101619.58
101618.99
101618.37
101617.74
101617.08
101616.4
101615.7
101614.97
101614.23
101613.46
101612.66
101611.84
101610.99
101610.12
101617.07
101616.57
101616.01
101615.45
101614.88
101614.3
101613.68
101613.06
101612.41
101611.74
101611.04
101610.33
101609.6
101608.84
101608.05
101607.24
101606.41
101612.97
101612.48
101611.96
101611.42
101610.88
101610.31
101609.73
101609.13
101608.51
101607.87
101607.21
101606.53
101605.82
101605.1
101604.35
101603.58
101602.78
101608.96
101608.5
101607.99
101607.48
101606.96
101606.42
101605.86
101605.29
101604.7
101604.09
101603.46
101602.81
101602.14
101601.44
101600.73
101599.99
101599.23
101605.05
101604.6
101604.12
101603.63
101603.13
101602.62
101602.08
101601.54
101600.97
101600.39
101599.79
101599.17
101598.52
101597.86
101597.18
101596.48
101595.76
101601.23
101600.8
101600.34
101599.87
101599.4
101598.91
101598.4
101597.87
101597.33
101596.77
101596.2
101595.61
101595
101594.37
101593.72
101593.04
101592.35
101597.49
101597.09
101596.65
101596.2
101595.75
101595.28
101594.79
101594.29
101593.77
101593.24
101592.69
101592.13
101591.54
101590.94
101590.33
101589.68
101589.03
101593.85
101593.46
101593.04
101592.62
101592.18
101591.73
101591.27
101590.79
101590.3
101589.79
101589.27
101588.73
101588.17
101587.6
101587
101586.4
101585.77
101590.29
101589.92
101589.52
101589.11
101588.7
101588.27
101587.83
101587.37
101586.9
101586.42
101585.92
101585.41
101584.87
101584.32
101583.76
101583.18
101582.58
101586.82
101586.46
101586.08
101585.69
101585.3
101584.89
101584.47
101584.03
101583.59
101583.12
101582.65
101582.16
101581.65
101581.13
101580.59
101580.04
101579.46
101583.43
101583.09
101582.73
101582.36
101581.98
101581.59
101581.19
101580.77
101580.35
101579.9
101579.45
101578.98
101578.5
101578
101577.49
101576.96
101576.42
101580.13
101579.8
101579.46
101579.1
101578.74
101578.37
101577.99
101577.59
101577.18
101576.76
101576.33
101575.89
101575.42
101574.95
101574.46
101573.96
101573.44
101576.9
101576.59
101576.26
101575.93
101575.58
101575.23
101574.86
101574.49
101574.1
101573.7
101573.29
101572.86
101572.42
101571.97
101571.51
101571.02
101570.53
101573.77
101573.47
101573.16
101572.84
101572.51
101572.17
101571.82
101571.46
101571.09
101570.71
101570.32
101569.91
101569.5
101569.07
101568.62
101568.16
101570.71
101570.43
101570.13
101569.82
101569.51
101569.19
101568.86
101568.52
101568.16
101567.8
101567.43
101567.04
101566.64
101566.23
101565.81
101565.37
101567.74
101567.47
101567.18
101566.89
101566.59
101566.28
101565.97
101565.64
101565.31
101564.96
101564.6
101564.23
101563.85
101563.47
101563.06
101562.65
101564.84
101564.59
101564.32
101564.04
101563.76
101563.46
101563.16
101562.85
101562.53
101562.2
101561.86
101561.51
101561.15
101560.78
101560.4
101560
101562.04
101561.8
101561.53
101561.27
101561
101560.72
101560.44
101560.14
101559.83
101559.52
101559.19
101558.86
101558.51
101558.16
101557.8
101557.42
101559.31
101559.08
101558.83
101558.58
101558.32
101558.05
101557.78
101557.5
101557.21
101556.91
101556.6
101556.28
101555.96
101555.62
101555.27
101554.91
101556.67
101556.45
101556.21
101555.97
101555.72
101555.47
101555.21
101554.94
101554.67
101554.38
101554.09
101553.78
101553.47
101553.14
101552.82
101552.47
101554.11
101553.9
101553.67
101553.44
101553.21
101552.96
101552.72
101552.46
101552.2
101551.93
101551.64
101551.36
101551.06
101550.75
101550.44
101550.11
101551.63
101551.43
101551.21
101551
101550.77
101550.54
101550.31
101550.06
101549.81
101549.55
101549.28
101549.01
101548.73
101548.43
101548.13
101547.82
101549.24
101549.04
101548.84
101548.63
101548.42
101548.2
101547.97
101547.74
101547.5
101547.25
101546.99
101546.74
101546.46
101546.18
101545.9
101545.6
101546.93
101546.74
101546.55
101546.35
101546.15
101545.94
101545.72
101545.5
101545.27
101545.03
101544.79
101544.54
101544.28
101544.01
101543.74
101543.45
101544.7
101544.53
101544.34
101544.15
101543.95
101543.76
101543.55
101543.34
101543.12
101542.89
101542.66
101542.42
101542.18
101541.92
101541.66
101541.38
101542.56
101542.39
101542.21
101542.03
101541.85
101541.66
101541.46
101541.26
101541.05
101540.83
101540.61
101540.38
101540.14
101539.9
101539.65
101539.39
101540.5
101540.34
101540.17
101540
101539.82
101539.64
101539.45
101539.26
101539.06
101538.85
101538.64
101538.42
101538.19
101537.96
101537.72
101537.47
101538.54
101538.38
101538.22
101538.06
101537.89
101537.71
101537.53
101537.34
101537.15
101536.95
101536.75
101536.54
101536.32
101536.1
101535.87
101535.64
101536.65
101536.51
101536.35
101536.19
101536.03
101535.86
101535.69
101535.51
101535.33
101535.14
101534.94
101534.74
101534.54
101534.32
101534.1
101533.87
101534.86
101534.72
101534.57
101534.42
101534.27
101534.1
101533.94
101533.77
101533.59
101533.41
101533.22
101533.03
101532.83
101532.63
101532.41
101533.16
101533.03
101532.88
101532.74
101532.59
101532.43
101532.27
101532.11
101531.94
101531.76
101531.58
101531.4
101531.2
101531.01
101530.8
101531.55
101531.42
101531.28
101531.14
101530.99
101530.84
101530.69
101530.53
101530.37
101530.2
101530.03
101529.85
101529.67
101529.48
101529.28
101530.03
101529.91
101529.77
101529.64
101529.5
101529.35
101529.21
101529.05
101528.9
101528.74
101528.57
101528.4
101528.22
101528.03
101527.84
101528.61
101528.49
101528.36
101528.23
101528.09
101527.95
101527.81
101527.66
101527.51
101527.35
101527.19
101527.03
101526.85
101526.67
101526.49
101527.28
101527.16
101527.04
101526.92
101526.79
101526.65
101526.51
101526.37
101526.22
101526.07
101525.91
101525.76
101525.59
101525.41
101525.24
101526.07
101525.95
101525.83
101525.71
101525.58
101525.45
101525.32
101525.18
101525.03
101524.88
101524.73
101524.57
101524.41
101524.25
101524.07
101524.95
101524.83
101524.72
101524.6
101524.47
101524.34
101524.21
101524.08
101523.94
101523.79
101523.64
101523.49
101523.34
101523.17
101523
101523.95
101523.83
101523.72
101523.6
101523.48
101523.36
101523.23
101523.09
101522.96
101522.82
101522.67
101522.52
101522.37
101522.21
101522.04
101523.04
101522.93
101522.82
101522.7
101522.58
101522.46
101522.34
101522.2
101522.07
101521.93
101521.79
101521.64
101521.49
101521.33
101521.17
101522.29
101522.18
101522.07
101521.96
101521.84
101521.72
101521.59
101521.47
101521.34
101521.2
101521.05
101520.91
101520.76
101520.6
101520.45
101521.62
101521.51
101521.4
101521.29
101521.18
101521.05
101520.93
101520.8
101520.67
101520.53
101520.39
101520.25
101520.09
101519.94
101520.84
101520.74
101520.62
101520.51
101520.39
101520.27
101520.14
101520.01
101519.88
101519.74
101519.6
101519.46
101519.3
101519.15
99846.48
99841.273
99843.384
99849.181
99856.19
99863.578
99871.527
99880.38
99890.523
99901.822
99914.137
99927.374
99941.632
99957.167
99974.193
99992.679
100012.43
100033.31
100055.25
99857.508
99860.548
99865.931
99872.166
99877.855
99883.178
99888.718
99895.259
99903.396
99913.439
99925.345
99938.949
99954.109
99970.739
99988.739
100007.91
100028.18
100049.47
99852.25
99850.503
99852.149
99856.253
99861.208
99867.06
99874.077
99882.587
99892.771
99904.796
99918.59
99933.98
99950.808
99968.968
99988.326
100008.78
100030.26
100052.67
99839.942
99837.186
99838.564
99843.122
99848.84
99855.509
99863.463
99873.03
99884.385
99897.585
99912.548
99929.126
99947.195
99966.587
99987.156
100008.8
100031.41
99824.093
99821.404
99822.784
99827.632
99833.904
99841.473
99850.692
99861.768
99874.758
99889.597
99906.154
99924.29
99943.864
99964.682
99986.604
100009.52
100033.31
99804.54
99802.257
99804.255
99809.954
99817.424
99826.496
99837.429
99850.312
99865.1
99881.688
99899.947
99919.728
99940.84
99963.113
99986.408
100010.59
99781.459
99780.074
99783.308
99790.427
99799.554
99810.485
99823.395
99838.289
99855.063
99873.582
99893.69
99915.209
99937.944
99961.732
99986.424
100011.89
99755.243
99755.286
99760.269
99769.323
99780.56
99793.722
99808.902
99826.035
99844.979
99865.568
99887.614
99910.921
99935.33
99960.662
99986.758
99726.099
99728.163
99735.413
99746.886
99760.649
99776.375
99794.084
99813.661
99834.94
99857.709
99881.769
99906.941
99933.074
99959.989
99987.507
99694.128
99698.86
99708.969
99723.366
99740.061
99758.67
99779.156
99801.368
99825.121
99850.145
99876.3
99903.415
99931.304
99959.826
99659.623
99667.718
99681.278
99699.072
99719.064
99740.84
99764.319
99789.327
99815.673
99843.026
99871.352
99900.484
99930.019
99959.972
99623.05
99635.166
99652.684
99674.308
99697.926
99723.145
99749.832
99777.75
99806.802
99836.571
99866.929
99897.922
99929.212
99960.702
99585.062
99601.721
99623.552
99649.452
99676.984
99705.912
99736.004
99766.817
99798.418
99830.594
99863.181
99896.096
99929.1
99546.158
99567.729
99594.419
99625.036
99656.703
99689.301
99722.687
99756.566
99790.886
99825.514
99860.3
99895.085
99929.712
99506.386
99533.888
99566.025
99601.229
99637.216
99673.664
99710.43
99747.36
99784.39
99821.428
99858.338
99894.925
99931.125
99467.007
99500.737
99538.535
99578.613
99618.981
99659.288
99699.432
99739.363
99779.051
99818.407
99857.352
99895.713
99428.842
99469.009
99512.576
99557.608
99602.303
99646.386
99689.88
99732.772
99775.037
99816.635
99857.5
99897.511
99392.649
99439.374
99488.681
99538.6
99587.514
99635.293
99682.041
99727.767
99772.495
99816.232
99858.879
99900.401
99359.155
99412.464
99467.39
99522.008
99574.986
99626.314
99676.135
99724.522
99771.564
99817.297
99861.594
99904.497
99329.201
99388.931
99449.19
99508.237
99565.055
99619.708
99672.39
99723.249
99772.417
99819.932
99865.715
99303.508
99369.35
99434.561
99497.705
99558.047
99615.734
99671.028
99724.143
99775.226
99824.273
99871.327
99282.753
99354.274
99423.977
99490.795
99554.272
99614.648
99672.249
99727.347
99780.081
99830.416
99878.54
99267.556
99344.242
99417.885
99487.862
99554.028
99616.704
99676.264
99733.013
99787.067
99838.449
99887.466
99258.533
99339.758
99416.675
99489.227
99557.589
99622.154
99683.303
99741.309
99796.294
99848.463
99898.154
99256.245
99341.277
99420.721
99495.197
99565.209
99631.187
99693.5
99752.365
99807.916
99860.549
99910.649
99261.181
99349.246
99430.399
99506.09
99577.153
99644.016
99706.96
99766.19
99822.033
99874.939
99925.281
99273.543
99363.891
99445.923
99522.146
99593.697
99660.929
99724.053
99783.29
99839.138
99892.093
99942.463
99293.179
99384.873
99467.071
99543.237
99614.709
99681.744
99744.539
99803.504
99859.097
99911.737
99961.599
99319.915
99411.743
99493.324
99568.793
99639.503
99705.733
99767.669
99825.736
99880.41
99932.019
99980.93
99351.779
99443.279
99523.491
99597.623
99667.117
99732.016
99792.397
99849.004
99902.394
99952.727
100000.2
99390.827
99480.934
99558.246
99629.535
99696.355
99759.045
99817.997
99873.511
99925.907
99975.43
100022.25
100066.8
99443.458
99530.553
99603.385
99670.395
99733.799
99793.641
99850.229
99903.845
99954.663
100002.81
100048.46
100091.85
99504.781
99587.959
99656.003
99718.334
99777.648
99834.185
99888.076
99939.287
99987.822
100033.9
100077.71
100119.33
99573.314
99651.448
99713.976
99771.69
99827.237
99880.308
99930.782
99978.821
100024.52
100068.05
100109.51
100149.06
99649.219
99722.627
99779.615
99831.956
99882.55
99931.146
99977.6
100022.02
100064.47
100105.07
100143.9
100181.04
100216.63
99732.366
99800.139
99850.696
99897.084
99942.327
99986.081
100028.13
100068.54
100107.39
100144.73
100180.61
100215.09
100248.26
99821.708
99883.273
99926.795
99966.733
100006.22
100044.76
100082.07
100118.18
100153.13
100186.94
100219.62
100251.21
100281.74
99916.99
99971.964
100007.93
100040.94
100074.24
100107.2
100139.42
100170.92
100201.68
100231.68
100260.92
100289.39
100317.07
100344.03
100018.2
100066.14
100094.06
100119.68
100146.38
100173.37
100200.18
100226.74
100253.02
100278.96
100304.51
100329.63
100354.27
100378.43
100125.12
100165.61
100185.05
100202.86
100222.57
100243.24
100264.29
100285.61
100307.13
100328.75
100350.37
100371.92
100393.31
100414.49
100237.4
100270.11
100280.68
100290.32
100302.71
100316.72
100331.7
100347.49
100363.98
100381.02
100398.48
100416.23
100434.19
100452.23
100470.37
100354.64
100379.3
100380.71
100381.89
100386.66
100393.72
100402.34
100412.34
100423.55
100435.76
100448.82
100462.57
100476.9
100491.65
100506.74
100476.4
100492.83
100484.89
100477.36
100474.27
100474.14
100476.16
100480.11
100485.78
100492.93
100501.36
100510.92
100521.43
100532.7
100544.61
100557.09
100602.15
100610.21
100592.91
100576.51
100565.38
100557.86
100553.06
100550.73
100550.63
100552.5
100556.1
100561.24
100567.72
100575.35
100583.94
100593.38
100731.18
100730.59
100704.1
100678.83
100659.56
100644.54
100632.77
100623.95
100617.9
100614.3
100612.87
100613.38
100615.66
100619.48
100624.63
100630.94
100638.25
100863.17
100852.78
100817.28
100783.2
100755.87
100733.42
100714.7
100699.37
100687.24
100678.03
100671.45
100667.21
100665.17
100665.06
100666.66
100669.74
100674.1
101001.34
100978.23
100933.53
100890.55
100855.08
100825.31
100799.83
100778.09
100759.9
100745.04
100733.21
100724.15
100717.65
100713.44
100711.3
100711
100712.25
100714.88
101152.36
101115.89
101065.09
101013.79
100969.23
100931.11
100898.1
100869.33
100844.47
100823.33
100805.61
100791.05
100779.46
100770.49
100763.9
100759.48
100756.88
100755.89
101296.18
101260.36
101221.68
101171.95
101120.68
101073.13
101030.39
100992.09
100958.03
100928.15
100902.15
100879.82
100861.05
100845.38
100832.56
100822.25
100814.13
100808.03
100803.82
99915.579
99919.842
99918.697
99919.444
99921.099
99922.996
99925.751
99929.975
99935.801
99943.227
99952.194
99962.626
99974.483
99987.822
100002.69
100019.05
100036.74
100055.59
100075.54
99915.395
99920.76
99922.404
99924.318
99926.955
99930.235
99934.129
99938.85
99944.682
99951.855
99960.421
99970.398
99981.848
99994.837
100009.36
100025.34
100042.64
100061.13