/*--------------------------------*- C++ -*----------------------------------*\
| =========                 |                                                 |
| \\      /  F ield         | OpenFOAM: The Open Source CFD Toolbox           |
|  \\    /   O peration     | Version:  2406                                  |
|   \\  /    A nd           | Website:  www.openfoam.com                      |
|    \\/     M anipulation  |                                                 |
\*---------------------------------------------------------------------------*/
FoamFile
{
    version     2.0;
    format      ascii;
    arch        "LSB;label=32;scalar=64";
    class       volScalarField;
    location    "0.017";
    object      rho;
}
// * * * * * * * * * * * * * * * * * * * * * * * * * * * * * * * * * * * * * //

dimensions      [1 -3 0 0 0 0 0];

internalField   nonuniform List<scalar> 
23203
(
1.1962314
1.1959269
1.1959445
1.1958776
1.1958013
1.1957593
1.1957571
1.1957913
1.1958583
1.1959544
1.1960758
1.1962188
1.1963802
1.196557
1.196746
1.1969442
1.1971487
1.1973568
1.1975656
1.1976931
1.1975528
1.1974821
1.197348
1.1972187
1.1971249
1.1970668
1.197041
1.1970451
1.1970767
1.197133
1.197211
1.1973078
1.1974208
1.1975473
1.1976846
1.1978296
1.1979815
1.1981393
1.1985201
1.1984256
1.1982949
1.1981194
1.1979703
1.1978616
1.1977877
1.1977444
1.1977293
1.1977401
1.1977742
1.1978289
1.1979014
1.1979892
1.1980894
1.1981994
1.1983176
1.1984436
1.1985764
1.1992381
1.1991523
1.1990054
1.1988127
1.1986486
1.198525
1.198435
1.1983745
1.1983413
1.198333
1.1983473
1.1983815
1.1984331
1.1984996
1.1985787
1.1986679
1.1987659
1.1988716
1.1989839
1.1999112
1.1998342
1.1996851
1.1994862
1.1993131
1.1991782
1.199075
1.1989996
1.1989498
1.1989237
1.1989189
1.198933
1.1989639
1.1990093
1.199067
1.1991351
1.1992121
1.1992966
1.1993876
1.2005343
1.2004679
1.2003218
1.2001223
1.1999452
1.1998032
1.1996905
1.1996033
1.1995398
1.1994981
1.1994763
1.1994723
1.199484
1.1995094
1.1995467
1.1995941
1.1996501
1.1997136
1.1997833
1.2011113
1.2010557
1.2009152
1.200719
1.2005415
1.2003959
1.2002767
1.2001805
1.2001057
1.2000507
1.2000139
1.1999934
1.1999875
1.1999944
1.2000124
1.20004
1.2000759
1.200119
1.2001681
1.2016478
1.2016033
1.2014706
1.2012801
1.201105
1.2009582
1.2008348
1.2007318
1.2006477
1.2005813
1.2005312
1.2004957
1.2004735
1.200463
1.2004627
1.2004715
1.200488
1.2005114
1.2005406
1.2021486
1.2021154
1.2019917
1.2018087
1.2016376
1.2014914
1.2013656
1.2012573
1.2011655
1.2010892
1.2010271
1.200978
1.2009407
1.2009138
1.2008963
1.200887
1.2008849
1.2008893
1.2008992
1.202618
1.202596
1.2024818
1.202307
1.2021409
1.2019964
1.2018693
1.201757
1.2016586
1.2015734
1.2015004
1.2014387
1.2013872
1.201345
1.2013111
1.2012845
1.2012647
1.2012508
1.2012421
1.2030597
1.2030483
1.2029436
1.2027771
1.2026163
1.2024739
1.202346
1.2022303
1.202126
1.2020327
1.2019497
1.2018761
1.2018113
1.2017546
1.201705
1.2016621
1.2016252
1.2015938
1.2015673
1.2034765
1.2034749
1.203379
1.2032202
1.2030644
1.2029241
1.2027955
1.2026765
1.2025667
1.2024657
1.2023731
1.2022884
1.202211
1.2021404
1.2020761
1.2020176
1.2019644
1.2019163
1.2018727
1.2038704
1.2038774
1.2037891
1.203637
1.2034854
1.2033465
1.2032168
1.2030944
1.202979
1.2028705
1.2027687
1.2026733
1.2025839
1.2025001
1.2024218
1.2023485
1.20228
1.202216
1.2021562
1.2042424
1.2042563
1.2041741
1.2040271
1.2038784
1.20374
1.2036086
1.2034823
1.2033611
1.2032451
1.2031343
1.2030285
1.2029276
1.2028315
1.2027399
1.2026527
1.2025696
1.2024906
1.2024153
1.2045923
1.204611
1.2045326
1.204389
1.2042417
1.2041026
1.2039684
1.2038376
1.2037103
1.2035867
1.203467
1.2033513
1.2032395
1.2031317
1.2030277
1.2029275
1.2028309
1.2027377
1.2026479
1.2049186
1.2049394
1.2048624
1.2047199
1.2045724
1.2044312
1.2042933
1.2041573
1.2040235
1.2038923
1.203764
1.2036388
1.2035168
1.2033981
1.2032827
1.2031705
1.2030614
1.2029551
1.2028517
1.2052188
1.2052378
1.2051594
1.205016
1.2048664
1.2047219
1.2045793
1.2044375
1.204297
1.2041583
1.2040218
1.2038879
1.2037566
1.2036281
1.2035024
1.2033793
1.2032588
1.2031406
1.2030248
1.205489
1.2055011
1.2054179
1.2052716
1.2051186
1.2049696
1.2048218
1.204674
1.204527
1.2043814
1.2042375
1.2040958
1.2039563
1.2038192
1.2036844
1.2035519
1.2034215
1.203293
1.2031663
1.2057257
1.2057229
1.2056309
1.2054801
1.2053228
1.2051689
1.2050158
1.2048626
1.20471
1.2045585
1.2044086
1.2042605
1.2041144
1.2039702
1.2038281
1.2036879
1.2035494
1.2034126
1.2032773
1.205922
1.2058941
1.2057895
1.2056339
1.2054728
1.2053149
1.2051578
1.2050008
1.2048443
1.2046888
1.2045348
1.2043823
1.2042315
1.2040824
1.2039349
1.2037892
1.2036451
1.2035026
1.203362
1.2060594
1.206001
1.2058843
1.2057269
1.205565
1.2054057
1.2052474
1.2050892
1.2049315
1.2047747
1.2046191
1.2044647
1.2043117
1.2041602
1.2040103
1.2038623
1.2037165
1.2035732
1.2034331
1.2061283
1.2060372
1.2059133
1.2057608
1.2056032
1.2054469
1.2052911
1.2051352
1.2049797
1.2048248
1.2046709
1.2045181
1.2043669
1.2042175
1.2040704
1.2039263
1.2037856
1.203649
1.2035172
1.2061726
1.2060441
1.2059114
1.2057649
1.2056146
1.2054643
1.2053141
1.2051639
1.2050141
1.2048651
1.2047173
1.204571
1.2044269
1.2042852
1.2041466
1.2040114
1.20388
1.2037528
1.2036297
1.2062255
1.20608
1.2059357
1.2057894
1.2056435
1.2054994
1.2053561
1.205213
1.2050706
1.2049293
1.2047893
1.204651
1.2045148
1.2043808
1.2042495
1.2041208
1.2039951
1.2038725
1.2037529
1.2062371
1.2061075
1.205983
1.2058425
1.2056966
1.2055564
1.2054192
1.2052823
1.2051459
1.2050105
1.2048763
1.2047434
1.2046122
1.2044828
1.2043555
1.2042304
1.2041078
1.2039878
1.2038705
1.2062588
1.2061173
1.2059834
1.2058593
1.2057384
1.2056098
1.2054777
1.2053459
1.2052147
1.2050845
1.2049554
1.2048275
1.2047011
1.2045762
1.2044531
1.2043319
1.2042127
1.2040958
1.2039812
1.2062793
1.2061823
1.20604
1.2058967
1.2057638
1.2056396
1.2055182
1.2053962
1.2052728
1.2051489
1.2050256
1.2049033
1.204782
1.2046619
1.204543
1.2044255
1.2043096
1.2041955
1.2040834
1.2062363
1.2061336
1.2060618
1.2059596
1.2058184
1.2056781
1.2055537
1.2054371
1.2053215
1.2052047
1.2050874
1.2049702
1.2048537
1.204738
1.2046232
1.2045094
1.2043969
1.2042859
1.2041765
1.2062426
1.2061386
1.2060213
1.2059276
1.205844
1.2057229
1.2055952
1.2054754
1.205362
1.2052513
1.2051403
1.2050285
1.2049167
1.2048052
1.2046945
1.2045846
1.2044757
1.204368
1.2042618
1.2062197
1.2061226
1.2060271
1.205923
1.2058292
1.2057437
1.205629
1.205513
1.2053988
1.2052888
1.2051828
1.2050773
1.2049709
1.2048641
1.2047574
1.2046515
1.2045464
1.2044422
1.2043391
1.2061999
1.2061096
1.2060154
1.2059187
1.205821
1.2057425
1.2056628
1.2055498
1.2054335
1.2053209
1.2052146
1.2051143
1.2050148
1.2049139
1.2048121
1.2047104
1.2046092
1.2045087
1.204409
1.2061751
1.2060904
1.2060025
1.2059122
1.2058201
1.2057247
1.2056462
1.2055716
1.2054702
1.205358
1.2052504
1.2051502
1.2050536
1.2049577
1.2048607
1.2047632
1.2046657
1.2045687
1.2044722
1.2061472
1.2060676
1.2059847
1.2058994
1.2058126
1.2057242
1.2056315
1.2055459
1.2054618
1.2053789
1.2052976
1.205199
1.2050981
1.2050008
1.2049053
1.2048108
1.2047165
1.2046225
1.2045289
1.2061178
1.2060433
1.2059652
1.2058849
1.205803
1.2057197
1.2056354
1.2055571
1.2054789
1.2053936
1.2053036
1.2052163
1.2051286
1.2050354
1.2049421
1.204851
1.2047601
1.2046694
1.2045788
1.2060859
1.2060162
1.2059431
1.2058681
1.2057922
1.2057154
1.2056376
1.2055575
1.2054932
1.2054202
1.2053186
1.2052219
1.2051346
1.2050525
1.2049695
1.204883
1.204796
1.2047088
1.2046218
1.2060519
1.2059863
1.2059174
1.2058466
1.2057745
1.2057014
1.2056268
1.2055499
1.2054713
1.2054059
1.2053459
1.205258
1.2051616
1.2050716
1.2049877
1.2049058
1.2048243
1.2047419
1.204659
1.2060159
1.2059542
1.2058892
1.2058223
1.2057542
1.2056848
1.205614
1.2055415
1.205467
1.2053866
1.2053161
1.2052697
1.2052059
1.2051118
1.2050114
1.2049246
1.2048474
1.2047704
1.2059784
1.2059204
1.205859
1.205796
1.2057317
1.2056662
1.2055995
1.2055315
1.2054626
1.2053935
1.2053222
1.2052427
1.2051795
1.2051248
1.2050407
1.204954
1.2048758
1.2047992
1.2059397
1.2058851
1.2058271
1.2057676
1.205707
1.2056451
1.2055819
1.2055174
1.2054516
1.2053842
1.2053156
1.2052485
1.205176
1.2051003
1.2050413
1.2049777
1.2049035
1.2048277
1.2059002
1.2058487
1.2057939
1.2057376
1.2056803
1.2056218
1.2055621
1.2055011
1.2054388
1.2053753
1.2053106
1.2052441
1.2051768
1.2051215
1.2050619
1.2049858
1.2049086
1.2048374
1.2058602
1.2058115
1.2057596
1.2057064
1.2056522
1.2055969
1.2055404
1.2054828
1.205424
1.2053642
1.2053034
1.2052415
1.2051783
1.2051139
1.2050642
1.2050146
1.2049341
1.2048532
1.2058197
1.2057736
1.2057245
1.2056742
1.2056228
1.2055704
1.2055169
1.2054623
1.2054066
1.2053498
1.205292
1.2052332
1.2051735
1.2051129
1.2050487
1.2049946
1.2049525
1.204889
1.2057789
1.2057353
1.2056888
1.2056411
1.2055924
1.2055427
1.2054919
1.2054401
1.2053873
1.2053334
1.2052786
1.2052227
1.2051659
1.205108
1.2050491
1.2049859
1.2049257
1.2048854
1.2057379
1.2056967
1.2056526
1.2056073
1.2055612
1.2055141
1.2054659
1.2054167
1.2053666
1.2053155
1.2052634
1.2052104
1.2051565
1.2051015
1.2050453
1.2049886
1.2049357
1.2048786
1.2056967
1.2056577
1.2056159
1.205573
1.2055293
1.2054846
1.2054389
1.2053922
1.2053445
1.205296
1.2052465
1.2051961
1.2051447
1.2050925
1.2050392
1.2049851
1.2049303
1.2048745
1.2056555
1.2056186
1.2055789
1.2055383
1.2054968
1.2054544
1.205411
1.2053666
1.2053213
1.2052751
1.205228
1.20518
1.2051312
1.2050816
1.205031
1.2049795
1.2049261
1.2048701
1.2056143
1.2055793
1.2055417
1.2055032
1.2054639
1.2054236
1.2053824
1.2053403
1.2052972
1.2052532
1.2052083
1.2051625
1.2051158
1.2050684
1.2050201
1.2049708
1.2049205
1.2048689
1.2055731
1.20554
1.2055043
1.2054678
1.2054305
1.2053923
1.2053532
1.2053132
1.2052723
1.2052304
1.2051877
1.2051441
1.2050996
1.2050544
1.2050084
1.2049617
1.2049142
1.204866
1.205532
1.2055006
1.2054668
1.2054321
1.2053968
1.2053606
1.2053235
1.2052855
1.2052466
1.2052068
1.2051662
1.2051247
1.2050824
1.2050393
1.2049954
1.2049507
1.2049054
1.2048594
1.2054911
1.2054613
1.2054292
1.2053963
1.2053627
1.2053284
1.2052931
1.2052571
1.2052202
1.2051824
1.2051438
1.2051043
1.205064
1.205023
1.2049811
1.2049385
1.2048952
1.2048512
1.2054504
1.2054221
1.2053916
1.2053603
1.2053285
1.2052958
1.2052624
1.2052281
1.205193
1.2051571
1.2051204
1.2050829
1.2050446
1.2050055
1.2049656
1.204925
1.2048837
1.2048417
1.20541
1.2053831
1.2053541
1.2053244
1.2052941
1.2052631
1.2052313
1.2051987
1.2051653
1.2051312
1.2050963
1.2050605
1.2050241
1.2049868
1.2049488
1.2049101
1.2048706
1.2048304
1.2053698
1.2053442
1.2053166
1.2052884
1.2052596
1.2052301
1.2051999
1.2051689
1.2051372
1.2051047
1.2050715
1.2050375
1.2050028
1.2049673
1.2049311
1.2048941
1.2048565
1.2048181
1.2053298
1.2053055
1.2052792
1.2052523
1.205225
1.2051969
1.2051682
1.2051387
1.2051086
1.2050777
1.2050461
1.2050138
1.2049807
1.2049469
1.2049125
1.2048773
1.2048414
1.2048048
1.20529
1.2052669
1.2052419
1.2052163
1.2051903
1.2051636
1.2051363
1.2051082
1.2050795
1.2050502
1.2050201
1.2049894
1.2049579
1.2049257
1.2048929
1.2048593
1.2048251
1.2047902
1.2052506
1.2052285
1.2052047
1.2051804
1.2051556
1.2051302
1.2051041
1.2050775
1.2050501
1.2050222
1.2049936
1.2049643
1.2049343
1.2049037
1.2048724
1.2048405
1.2048078
1.2047745
1.2052113
1.2051904
1.2051677
1.2051445
1.2051209
1.2050967
1.2050719
1.2050465
1.2050205
1.2049938
1.2049666
1.2049387
1.2049102
1.204881
1.2048512
1.2048207
1.2047896
1.2047578
1.2051724
1.2051524
1.2051308
1.2051088
1.2050863
1.2050632
1.2050396
1.2050154
1.2049906
1.2049653
1.2049393
1.2049127
1.2048855
1.2048577
1.2048293
1.2048003
1.2047706
1.2047403
1.2051337
1.2051147
1.2050941
1.2050731
1.2050517
1.2050298
1.2050073
1.2049843
1.2049607
1.2049365
1.2049118
1.2048864
1.2048605
1.204834
1.2048069
1.2047792
1.204751
1.2047221
1.2050954
1.2050773
1.2050577
1.2050377
1.2050173
1.2049964
1.204975
1.204953
1.2049306
1.2049076
1.204884
1.2048599
1.2048352
1.20481
1.2047841
1.2047578
1.2047308
1.2047033
1.2050574
1.2050402
1.2050215
1.2050024
1.204983
1.2049631
1.2049427
1.2049218
1.2049004
1.2048785
1.204856
1.2048331
1.2048096
1.2047855
1.2047609
1.2047358
1.2047101
1.2046839
1.2050198
1.2050033
1.2049855
1.2049674
1.2049489
1.2049299
1.2049105
1.2048906
1.2048702
1.2048493
1.2048279
1.204806
1.2047837
1.2047608
1.2047373
1.2047134
1.2046889
1.2046639
1.2049825
1.2049668
1.2049499
1.2049326
1.2049149
1.2048969
1.2048784
1.2048594
1.20484
1.2048201
1.2047997
1.2047789
1.2047575
1.2047357
1.2047134
1.2046906
1.2046672
1.2046434
1.2049455
1.2049306
1.2049144
1.204898
1.2048812
1.204864
1.2048464
1.2048283
1.2048098
1.2047909
1.2047714
1.2047516
1.2047312
1.2047104
1.2046891
1.2046674
1.2046452
1.2046224
1.2049088
1.2048946
1.2048793
1.2048636
1.2048476
1.2048313
1.2048145
1.2047973
1.2047797
1.2047616
1.2047431
1.2047242
1.2047048
1.204685
1.2046647
1.2046439
1.2046227
1.204601
1.2048724
1.204859
1.2048443
1.2048294
1.2048143
1.2047987
1.2047828
1.2047664
1.2047496
1.2047324
1.2047148
1.2046968
1.2046783
1.2046594
1.20464
1.2046202
1.2046
1.2045793
1.2048364
1.2048236
1.2048097
1.2047956
1.2047811
1.2047663
1.2047512
1.2047356
1.2047196
1.2047033
1.2046865
1.2046693
1.2046517
1.2046337
1.2046152
1.2045964
1.2045771
1.2045573
1.2048008
1.2047887
1.2047754
1.204762
1.2047483
1.2047342
1.2047198
1.204705
1.2046898
1.2046742
1.2046582
1.2046419
1.2046251
1.2046079
1.2045904
1.2045724
1.204554
1.2045351
1.2047656
1.2047541
1.2047415
1.2047287
1.2047157
1.2047023
1.2046886
1.2046745
1.2046601
1.2046453
1.2046301
1.2046145
1.2045985
1.2045822
1.2045654
1.2045483
1.2045307
1.2045128
1.2047309
1.2047199
1.204708
1.2046958
1.2046834
1.2046707
1.2046577
1.2046443
1.2046306
1.2046165
1.204602
1.2045872
1.204572
1.2045565
1.2045405
1.2045242
1.2045074
1.2044903
1.2046967
1.2046862
1.2046749
1.2046633
1.2046515
1.2046394
1.2046271
1.2046143
1.2046013
1.2045879
1.2045741
1.20456
1.2045456
1.2045308
1.2045156
1.2045
1.2044841
1.2044678
1.2046629
1.204653
1.2046422
1.2046312
1.20462
1.2046085
1.2045967
1.2045846
1.2045722
1.2045594
1.2045464
1.2045329
1.2045192
1.2045051
1.2044906
1.2044758
1.2044607
1.2044451
1.2046296
1.2046201
1.2046099
1.2045994
1.2045888
1.2045778
1.2045666
1.2045551
1.2045433
1.2045312
1.2045187
1.204506
1.2044929
1.2044795
1.2044657
1.2044516
1.2044372
1.2044224
1.2045967
1.2045878
1.204578
1.204568
1.2045579
1.2045475
1.2045369
1.2045259
1.2045147
1.2045031
1.2044913
1.2044792
1.2044667
1.204454
1.2044409
1.2044275
1.2044137
1.2043997
1.2045644
1.2045558
1.2045465
1.2045371
1.2045274
1.2045176
1.2045074
1.204497
1.2044863
1.2044753
1.2044641
1.2044525
1.2044407
1.2044286
1.2044161
1.2044034
1.2043903
1.2043769
1.2045324
1.2045243
1.2045155
1.2045065
1.2044973
1.2044879
1.2044783
1.2044684
1.2044582
1.2044478
1.2044371
1.2044261
1.2044149
1.2044033
1.2043915
1.2043793
1.2043669
1.204501
1.2044933
1.2044849
1.2044763
1.2044676
1.2044587
1.2044495
1.2044401
1.2044305
1.2044205
1.2044104
1.2043999
1.2043892
1.2043782
1.204367
1.2043555
1.2043436
1.20447
1.2044627
1.2044547
1.2044466
1.2044383
1.2044298
1.2044211
1.2044122
1.204403
1.2043936
1.2043839
1.204374
1.2043638
1.2043534
1.2043427
1.2043317
1.2043205
1.2044396
1.2044326
1.204425
1.2044173
1.2044094
1.2044014
1.2043931
1.2043846
1.2043759
1.204367
1.2043578
1.2043484
1.2043387
1.2043288
1.2043186
1.2043082
1.2042975
1.2044096
1.204403
1.2043958
1.2043885
1.204381
1.2043734
1.2043655
1.2043575
1.2043492
1.2043407
1.204332
1.204323
1.2043139
1.2043044
1.2042948
1.2042849
1.2042748
1.2043803
1.204374
1.2043671
1.2043602
1.2043531
1.2043459
1.2043384
1.2043307
1.2043229
1.2043148
1.2043065
1.204298
1.2042893
1.2042804
1.2042712
1.2042618
1.2042522
1.2043515
1.2043455
1.204339
1.2043324
1.2043257
1.2043188
1.2043117
1.2043045
1.204297
1.2042894
1.2042815
1.2042734
1.2042652
1.2042567
1.204248
1.2042391
1.2042299
1.2043233
1.2043176
1.2043114
1.2043052
1.2042988
1.2042923
1.2042856
1.2042787
1.2042716
1.2042643
1.2042569
1.2042492
1.2042414
1.2042333
1.2042251
1.2042166
1.2042079
1.2042957
1.2042903
1.2042845
1.2042785
1.2042725
1.2042663
1.2042599
1.2042534
1.2042467
1.2042398
1.2042327
1.2042254
1.204218
1.2042103
1.2042025
1.2041945
1.2041862
1.2042687
1.2042636
1.2042581
1.2042524
1.2042467
1.2042409
1.2042348
1.2042286
1.2042223
1.2042157
1.204209
1.2042021
1.2041951
1.2041878
1.2041804
1.2041727
1.2041649
1.2042423
1.2042375
1.2042323
1.204227
1.2042215
1.204216
1.2042103
1.2042044
1.2041984
1.2041922
1.2041858
1.2041793
1.2041726
1.2041657
1.2041586
1.2041514
1.204144
1.2042166
1.204212
1.2042071
1.204202
1.2041969
1.2041917
1.2041862
1.2041807
1.204175
1.2041691
1.2041631
1.2041569
1.2041506
1.204144
1.2041373
1.2041305
1.2041235
1.2041915
1.2041872
1.2041825
1.2041777
1.2041729
1.2041679
1.2041628
1.2041575
1.2041521
1.2041466
1.2041409
1.204135
1.204129
1.2041228
1.2041165
1.20411
1.2041033
1.204167
1.2041629
1.2041585
1.204154
1.2041494
1.2041447
1.2041399
1.2041349
1.2041298
1.2041245
1.2041192
1.2041136
1.2041079
1.2041021
1.2040961
1.2040899
1.2040836
1.2041432
1.2041393
1.2041351
1.2041309
1.2041266
1.2041221
1.2041175
1.2041128
1.204108
1.2041031
1.204098
1.2040927
1.2040873
1.2040818
1.2040761
1.2040703
1.2040643
1.20412
1.2041164
1.2041124
1.2041084
1.2041043
1.2041001
1.2040958
1.2040914
1.2040868
1.2040821
1.2040773
1.2040724
1.2040673
1.204062
1.2040567
1.2040512
1.2040455
1.2040976
1.2040942
1.2040904
1.2040866
1.2040828
1.2040788
1.2040747
1.2040705
1.2040662
1.2040618
1.2040572
1.2040525
1.2040477
1.2040428
1.2040377
1.2040325
1.2040271
1.2040759
1.2040727
1.2040691
1.2040655
1.2040619
1.2040581
1.2040543
1.2040503
1.2040462
1.204042
1.2040377
1.2040333
1.2040287
1.2040241
1.2040192
1.2040143
1.2040092
1.204055
1.2040519
1.2040486
1.2040452
1.2040417
1.2040382
1.2040345
1.2040308
1.2040269
1.2040229
1.2040188
1.2040146
1.2040103
1.2040059
1.2040013
1.2039966
1.2039918
1.2040348
1.2040319
1.2040287
1.2040255
1.2040223
1.2040189
1.2040154
1.2040119
1.2040082
1.2040044
1.2040006
1.2039966
1.2039925
1.2039883
1.203984
1.2039795
1.2039749
1.2040153
1.2040126
1.2040096
1.2040066
1.2040035
1.2040003
1.203997
1.2039936
1.2039902
1.2039866
1.2039829
1.2039791
1.2039752
1.2039712
1.2039671
1.2039629
1.2039586
1.2039966
1.2039939
1.2039911
1.2039882
1.2039853
1.2039823
1.2039792
1.203976
1.2039727
1.2039693
1.2039658
1.2039622
1.2039585
1.2039548
1.2039509
1.2039468
1.2039427
1.2039784
1.203976
1.2039733
1.2039705
1.2039678
1.2039649
1.203962
1.2039589
1.2039558
1.2039526
1.2039493
1.2039459
1.2039424
1.2039388
1.2039351
1.2039313
1.2039274
1.203961
1.2039586
1.2039561
1.2039535
1.2039508
1.2039481
1.2039453
1.2039425
1.2039395
1.2039365
1.2039333
1.2039301
1.2039268
1.2039234
1.2039199
1.2039163
1.2039441
1.2039419
1.2039395
1.203937
1.2039345
1.203932
1.2039293
1.2039266
1.2039238
1.2039209
1.2039179
1.2039149
1.2039117
1.2039085
1.2039051
1.2039017
1.203928
1.2039258
1.2039236
1.2039212
1.2039189
1.2039164
1.2039139
1.2039113
1.2039087
1.2039059
1.2039031
1.2039002
1.2038972
1.2038941
1.203891
1.2038877
1.2039125
1.2039105
1.2039083
1.2039061
1.2039039
1.2039015
1.2038992
1.2038967
1.2038942
1.2038916
1.2038889
1.2038862
1.2038833
1.2038804
1.2038774
1.2038743
1.2038977
1.2038958
1.2038937
1.2038916
1.2038895
1.2038873
1.2038851
1.2038827
1.2038803
1.2038779
1.2038753
1.2038727
1.20387
1.2038673
1.2038644
1.2038615
1.2038836
1.2038818
1.2038799
1.2038779
1.2038758
1.2038738
1.2038716
1.2038694
1.2038671
1.2038648
1.2038624
1.2038599
1.2038574
1.2038548
1.2038521
1.2038493
1.2038702
1.2038685
1.2038667
1.2038648
1.2038629
1.2038609
1.2038589
1.2038568
1.2038546
1.2038524
1.2038501
1.2038478
1.2038453
1.2038429
1.2038403
1.2038377
1.2038576
1.2038559
1.2038542
1.2038524
1.2038506
1.2038487
1.2038468
1.2038448
1.2038428
1.2038406
1.2038385
1.2038363
1.203834
1.2038316
1.2038292
1.2038267
1.2038456
1.2038441
1.2038424
1.2038407
1.203839
1.2038372
1.2038354
1.2038335
1.2038316
1.2038296
1.2038275
1.2038254
1.2038232
1.203821
1.2038187
1.2038163
1.2038345
1.203833
1.2038314
1.2038298
1.2038282
1.2038265
1.2038248
1.203823
1.2038211
1.2038192
1.2038173
1.2038153
1.2038132
1.2038111
1.2038089
1.2038067
1.2038241
1.2038227
1.2038212
1.2038196
1.2038181
1.2038165
1.2038148
1.2038131
1.2038114
1.2038096
1.2038077
1.2038058
1.2038038
1.2038018
1.2037998
1.2037976
1.2038144
1.2038131
1.2038117
1.2038102
1.2038087
1.2038072
1.2038056
1.203804
1.2038024
1.2038006
1.2037989
1.2037971
1.2037952
1.2037933
1.2037913
1.2037893
1.2038056
1.2038043
1.2038029
1.2038016
1.2038002
1.2037987
1.2037972
1.2037957
1.2037941
1.2037925
1.2037908
1.2037891
1.2037873
1.2037855
1.2037836
1.2037817
1.2037975
1.2037963
1.203795
1.2037937
1.2037923
1.203791
1.2037895
1.2037881
1.2037866
1.203785
1.2037834
1.2037818
1.2037801
1.2037784
1.2037766
1.2037747
1.2037902
1.2037891
1.2037879
1.2037866
1.2037853
1.203784
1.2037826
1.2037812
1.2037798
1.2037783
1.2037768
1.2037752
1.2037736
1.203772
1.2037703
1.2037685
1.2037838
1.2037827
1.2037815
1.2037803
1.2037791
1.2037779
1.2037766
1.2037752
1.2037738
1.2037724
1.203771
1.2037695
1.2037679
1.2037664
1.2037647
1.203763
1.2037783
1.2037772
1.2037761
1.2037749
1.2037737
1.2037725
1.2037713
1.20377
1.2037687
1.2037673
1.2037659
1.2037645
1.203763
1.2037615
1.2037599
1.2037735
1.2037725
1.2037714
1.2037703
1.2037692
1.203768
1.2037668
1.2037656
1.2037643
1.203763
1.2037616
1.2037602
1.2037588
1.2037573
1.2037558
1.2037697
1.2037687
1.2037676
1.2037666
1.2037655
1.2037643
1.2037632
1.203762
1.2037607
1.2037595
1.2037582
1.2037568
1.2037554
1.203754
1.2037526
1.2037666
1.2037657
1.2037647
1.2037637
1.2037626
1.2037615
1.2037604
1.2037592
1.203758
1.2037568
1.2037555
1.2037542
1.2037529
1.2037515
1.2037501
1.2037645
1.2037636
1.2037626
1.2037616
1.2037606
1.2037595
1.2037584
1.2037573
1.2037562
1.203755
1.2037537
1.2037525
1.2037512
1.2037499
1.2037485
1.2037633
1.2037624
1.2037614
1.2037605
1.2037595
1.2037584
1.2037574
1.2037563
1.2037552
1.203754
1.2037529
1.2037516
1.2037504
1.2037491
1.2037478
1.203763
1.2037621
1.2037612
1.2037603
1.2037593
1.2037584
1.2037573
1.2037563
1.2037552
1.2037541
1.2037529
1.2037518
1.2037505
1.2037493
1.203748
1.2037638
1.203763
1.2037621
1.2037612
1.2037603
1.2037593
1.2037583
1.2037573
1.2037562
1.2037551
1.203754
1.2037528
1.2037516
1.2037504
1.2037492
1.2037658
1.2037649
1.2037641
1.2037632
1.2037623
1.2037613
1.2037603
1.2037593
1.2037582
1.2037572
1.203756
1.2037549
1.2037537
1.2037525
1.2037513
1.2037687
1.2037679
1.203767
1.2037661
1.2037652
1.2037643
1.2037633
1.2037623
1.2037612
1.2037602
1.2037591
1.2037579
1.2037567
1.2037555
1.2037543
1.203773
1.2037722
1.2037713
1.2037704
1.2037695
1.2037686
1.2037676
1.2037666
1.2037656
1.2037645
1.2037634
1.2037623
1.2037611
1.2037599
1.2037587
1.203778
1.2037772
1.2037764
1.2037755
1.2037746
1.2037736
1.2037726
1.2037716
1.2037706
1.2037695
1.2037684
1.2037673
1.2037661
1.2037649
1.2037828
1.203782
1.2037812
1.2037803
1.2037794
1.2037785
1.2037775
1.2037765
1.2037755
1.2037744
1.2037733
1.2037722
1.2037711
1.2037699
1.1839939
1.1839491
1.1842118
1.1847413
1.1854115
1.1861008
1.1867405
1.1872953
1.1877631
1.1881544
1.1884912
1.1887925
1.189073
1.1893424
1.1896078
1.1898739
1.1901437
1.1904185
1.1906991
1.1843607
1.1846657
1.1852212
1.1859562
1.1866776
1.1872834
1.187765
1.188144
1.1884529
1.1887177
1.1889614
1.1891987
1.1894374
1.1896812
1.1899313
1.1901881
1.1904518
1.1907222
1.1846596
1.1851133
1.1857357
1.1864156
1.1870221
1.1875174
1.1879181
1.1882514
1.1885389
1.1888017
1.1890533
1.1893014
1.1895505
1.1898032
1.1900608
1.1903241
1.1905934
1.1908686
1.1849968
1.1855654
1.1862351
1.1868743
1.1874034
1.1878206
1.1881561
1.1884408
1.1886972
1.1889412
1.1891819
1.1894242
1.1896709
1.1899234
1.1901823
1.1904479
1.1907201
1.1854336
1.1860678
1.1867029
1.1872506
1.1876802
1.1880189
1.1883033
1.1885594
1.1888027
1.1890423
1.1892831
1.1895279
1.1897783
1.1900351
1.1902985
1.1905686
1.1908451
1.185911
1.1865309
1.1870821
1.1875285
1.1878771
1.1881639
1.1884193
1.1886611
1.1888985
1.1891369
1.1893793
1.1896273
1.1898817
1.1901431
1.1904114
1.1906865
1.1863659
1.1869156
1.1873639
1.1877217
1.1880127
1.1882675
1.1885072
1.1887426
1.1889791
1.1892196
1.1894658
1.1897188
1.1899787
1.1902458
1.1905199
1.1908005
1.1867462
1.1871947
1.1875506
1.1878457
1.1881023
1.1883409
1.1885745
1.1888093
1.1890484
1.1892934
1.1895453
1.1898044
1.1900709
1.1903445
1.1906249
1.1870215
1.1873716
1.1876617
1.1879204
1.1881599
1.1883924
1.1886258
1.1888638
1.1891081
1.1893595
1.1896185
1.189885
1.1901588
1.1904397
1.1907269
1.187195
1.1874728
1.1877207
1.1879605
1.1881935
1.1884261
1.1886634
1.1889074
1.1891591
1.1894187
1.1896861
1.1899611
1.1902432
1.1905319
1.1872825
1.1875169
1.1877428
1.1879739
1.1882068
1.1884441
1.1886886
1.1889413
1.1892025
1.1894718
1.1897489
1.1900333
1.1903245
1.1906216
1.1872996
1.1875122
1.1877308
1.1879627
1.1882017
1.1884478
1.1887027
1.1889665
1.189239
1.1895195
1.1898075
1.1901022
1.1904031
1.1907092
1.187263
1.1874697
1.1876911
1.1879307
1.1881804
1.1884389
1.1887069
1.1889839
1.1892694
1.1895625
1.1898625
1.1901684
1.1904796
1.187182
1.1873942
1.1876264
1.1878795
1.1881442
1.1884184
1.1887021
1.1889945
1.1892947
1.1896017
1.1899146
1.1902325
1.1905545
1.1870619
1.1872888
1.1875386
1.1878106
1.1880945
1.1883876
1.1886896
1.1889993
1.1893158
1.1896378
1.1899645
1.1902949
1.1906283
1.1869061
1.1871559
1.1874301
1.187726
1.1880329
1.1883481
1.1886707
1.1889996
1.1893336
1.1896717
1.190013
1.1903565
1.1867175
1.1869983
1.1873031
1.1876278
1.1879616
1.1883016
1.1886469
1.1889966
1.1893494
1.1897044
1.1900608
1.1904178
1.1864998
1.1868197
1.1871612
1.1875191
1.187883
1.1882502
1.1886201
1.1889919
1.1893644
1.189737
1.1901089
1.1904796
1.1862587
1.1866249
1.1870084
1.1874033
1.1878
1.1881964
1.1885923
1.188987
1.1893799
1.1897704
1.1901581
1.1905426
1.1860016
1.1864203
1.1868499
1.1872844
1.1877159
1.1881429
1.1885656
1.1889839
1.1893974
1.1898059
1.1902093
1.1857375
1.186213
1.1866913
1.1871671
1.1876342
1.1880924
1.1885423
1.1889841
1.1894182
1.1898446
1.1902635
1.1854764
1.1860109
1.1865387
1.1870559
1.1875588
1.1880479
1.1885246
1.1889897
1.1894439
1.1898876
1.1903215
1.1852285
1.1858217
1.1863981
1.1869558
1.1874933
1.1880124
1.188515
1.1890024
1.1894759
1.1899362
1.1903842
1.1850029
1.1856526
1.1862756
1.1868715
1.1874413
1.1879887
1.1885157
1.1890241
1.1895156
1.1899913
1.1904525
1.1848079
1.1855108
1.1861772
1.1868081
1.1874061
1.1879794
1.188529
1.1890565
1.1895644
1.1900542
1.1905273
1.1846567
1.1854052
1.1861091
1.1867692
1.1873903
1.1879873
1.1885572
1.1891012
1.1896238
1.1901258
1.1906093
1.1845516
1.18534
1.1860701
1.1867535
1.1873994
1.1880162
1.1886024
1.1891598
1.1896952
1.1902076
1.1906997
1.1844974
1.1853174
1.1860685
1.1867702
1.1874337
1.1880644
1.1886641
1.189235
1.1897804
1.1903001
1.1907975
1.1844993
1.1853414
1.1861058
1.1868185
1.1874928
1.1881342
1.1887456
1.1893273
1.1898792
1.1904029
1.1909028
1.1845632
1.1854159
1.186184
1.1868983
1.1875752
1.1882239
1.1888475
1.1894409
1.189998
1.190523
1.1910215
1.1846959
1.1855491
1.1863125
1.18702
1.1876913
1.18834
1.1889723
1.1895754
1.1901385
1.1906779
1.1911881
1.1916784
1.1848827
1.185739
1.1864975
1.1872198
1.1879033
1.1885256
1.1891177
1.1896977
1.1902694
1.1908436
1.1913814
1.1918741
1.1850344
1.185902
1.1866602
1.1874129
1.188155
1.1888182
1.1893813
1.1898828
1.1903971
1.1909358
1.1914596
1.1919655
1.1852593
1.1860841
1.1868256
1.1875459
1.1882077
1.1888686
1.1895393
1.190136
1.1906456
1.191112
1.1915955
1.1920704
1.1856783
1.186551
1.1872554
1.1878516
1.1884429
1.1890321
1.1895959
1.190172
1.1907454
1.1912628
1.1917527
1.1922253
1.1926774
1.1860965
1.1868976
1.1875507
1.1881551
1.1887396
1.1893091
1.189862
1.1904138
1.190953
1.1914644
1.1919502
1.1924167
1.1928654
1.1866028
1.187346
1.187957
1.1885311
1.1890901
1.189635
1.1901654
1.1906855
1.1911938
1.1916852
1.1921581
1.1926141
1.1930541
1.1871385
1.1878339
1.1883945
1.1889272
1.1894533
1.1899694
1.1904736
1.190967
1.1914499
1.1919207
1.1923772
1.1928197
1.1932487
1.1936645
1.1877174
1.1883634
1.1888689
1.1893536
1.1898398
1.190322
1.1907971
1.1912638
1.1917219
1.1921708
1.1926087
1.1930353
1.1934513
1.1938559
1.1883402
1.188934
1.1893809
1.189813
1.1902537
1.190697
1.1911399
1.1915788
1.1920106
1.1924362
1.1928533
1.1932612
1.193662
1.1940542
1.1890056
1.1895435
1.1899294
1.1903054
1.1906953
1.1910936
1.191502
1.1919128
1.1923164
1.1927174
1.1931117
1.1934975
1.1938812
1.19426
1.1946274
1.1897102
1.1901874
1.1905118
1.1908298
1.1911638
1.191511
1.1918845
1.1922657
1.1926386
1.1930138
1.1933837
1.1937448
1.1941119
1.1944735
1.194825
1.1904486
1.1908638
1.1911236
1.1913786
1.1916621
1.1919668
1.192292
1.192629
1.1929717
1.1933186
1.1936669
1.1940144
1.1943583
1.1946908
1.1950274
1.1953657
1.191233
1.1915831
1.1917622
1.1919539
1.1921836
1.1924401
1.192718
1.1930134
1.1933213
1.193638
1.1939604
1.1942861
1.1946126
1.1949327
1.1952424
1.1955573
1.1920434
1.1923227
1.192428
1.1925526
1.1927246
1.19293
1.193161
1.1934143
1.1936854
1.1939702
1.1942646
1.1945655
1.1948707
1.1951767
1.1954759
1.1957642
1.1960573
1.1928786
1.1930737
1.1931033
1.193159
1.1932714
1.1934245
1.1936087
1.1938199
1.1940538
1.194306
1.1945721
1.1948482
1.1951311
1.1954181
1.1957057
1.1959859
1.1962534
1.1937711
1.1938536
1.1937977
1.1937772
1.193825
1.1939239
1.1940611
1.1942305
1.1944273
1.1946467
1.1948842
1.1951354
1.1953959
1.1956626
1.1959336
1.1962052
1.1964668
1.1967141
1.1948016
1.1947923
1.1946745
1.1945773
1.1945477
1.194578
1.1946549
1.19477
1.1949175
1.1950919
1.1952884
1.1955024
1.1957292
1.1959657
1.196211
1.1964618
1.1967108
1.1969477
1.1958605
1.1959242
1.1959115
1.1958248
1.1957432
1.195698
1.1956922
1.1957231
1.1957871
1.1958807
1.1960001
1.1961412
1.1963001
1.1964744
1.1966636
1.1968636
1.197069
1.1972733
1.1974697
1.1846387
1.1847983
1.1851079
1.1855601
1.1860943
1.186632
1.1871237
1.187591
1.1880018
1.188359
1.1886771
1.1889687
1.1892437
1.1895095
1.1897718
1.190034
1.1902985
1.1905666
1.190839
1.1846016
1.1847354
1.1850017
1.1854103
1.1859173
1.1864509
1.1869809
1.1874619
1.1878858
1.1882598
1.1885934
1.1888971
1.189181
1.1894534
1.1897202