/*--------------------------------*- C++ -*----------------------------------*\
| =========                 |                                                 |
| \\      /  F ield         | OpenFOAM: The Open Source CFD Toolbox           |
|  \\    /   O peration     | Version:  2406                                  |
|   \\  /    A nd           | Website:  www.openfoam.com                      |
|    \\/     M anipulation  |                                                 |
\*---------------------------------------------------------------------------*/
FoamFile
{
    version     2.0;
    format      ascii;
    arch        "LSB;label=32;scalar=64";
    class       surfaceScalarField;
    location    "0.011";
    object      phi;
}
// * * * * * * * * * * * * * * * * * * * * * * * * * * * * * * * * * * * * * //

dimensions      [1 0 -1 0 0 0 0];

oriented        oriented;

internalField   nonuniform List<scalar> 
184887
(
0.0079694018
-0.0098736867
0.010151765
-0.0082474484
0.0077158234
-0.010275993
0.010529601
0.0074674561
-0.010665587
0.010913982
0.0072216847
-0.011049009
0.011294806
0.0069792103
-0.011429328
0.011671825
0.0067410838
-0.011806798
0.012044946
0.0065082293
-0.012181132
0.012414005
0.0062815231
-0.012552117
0.012778839
0.0060619156
-0.012919615
0.013139238
0.0058494605
-0.013284219
0.013496688
0.0056446062
-0.01364636
0.013851228
0.0054475986
-0.014006527
0.014203549
0.0052589677
-0.014365321
0.014553966
0.0050785961
-0.014722792
0.01490318
0.004905968
-0.015080258
0.015252904
0.0047413046
-0.015438202
0.015602883
0.0045845364
-0.015797034
0.015953821
0.0044353429
-0.016157351
0.016306565
0.0042936262
-0.016520432
0.016662172
0.0041590923
-0.016886482
0.017021036
0.0040314257
-0.017256004
0.01738369
0.0039103862
-0.017629802
0.01775086
0.0037957045
-0.018008467
0.018123165
0.0036871002
-0.01839258
0.018501198
0.0035842912
-0.018782705
0.018885525
0.0034869965
-0.019179392
0.019276694
0.0033949375
-0.019583165
0.019675228
0.0033078434
-0.019994539
0.020081634
0.0032254577
-0.020414016
0.020496398
0.0031475248
-0.020841978
0.020919905
0.0030737829
-0.021278874
0.021352606
0.0030039991
-0.021725325
0.021795093
0.0029380369
-0.022181612
0.022247556
0.0028756712
-0.022648085
0.022710428
0.0028165729
-0.023125385
0.023184458
0.0027606018
-0.023613968
0.023669909
0.0027075726
-0.024114365
0.024167361
0.002657285
-0.024627101
0.024677352
0.0026095654
-0.025152481
0.025200161
0.0025642536
-0.025690743
0.025736011
0.0025212053
-0.026242141
0.026285142
0.0024802827
-0.026806997
0.026847869
0.002441355
-0.027385709
0.027424583
0.0024043042
-0.027978681
0.028015675
0.0023690189
-0.028586307
0.028621532
0.0023353964
-0.02920898
0.029242539
0.0023033415
-0.029846988
0.029878977
0.0022727531
-0.03050062
0.03053114
0.0022435435
-0.031170184
0.031199322
0.0022156303
-0.031855982
0.031883822
0.0021889342
-0.03255831
0.03258493
0.0021633856
-0.033277449
0.033302919
0.0021389176
-0.034013685
0.034038072
0.0021154612
-0.034767379
0.034790752
0.0020929551
-0.035538873
0.035561294
0.0020713404
-0.036328493
0.03635002
0.0020505562
-0.037136553
0.037157248
0.0020305529
-0.037963368
0.03798328
0.0020112743
-0.038809235
0.03882842
0.0019926698
-0.039674452
0.039692961
0.0019746896
-0.040559303
0.040577186
0.0019572832
-0.041464062
0.041481369
0.0019404
-0.04238899
0.042405772
0.0019239907
-0.043334332
0.043350638
0.0019080016
-0.044300314
0.044316199
0.00189238
-0.04528714
0.045302656
0.0018770663
-0.046294983
0.046310189
0.0018620009
-0.047323988
0.047338944
0.0018471153
-0.048374253
0.048389028
0.0018323359
-0.049445829
0.049460496
0.0018175804
-0.050538706
0.050553348
0.0018027535
-0.051652796
0.051667509
0.0017877498
-0.052787924
0.052802812
0.0017724444
-0.053943794
0.053958983
0.0017566915
-0.05511997
0.055135607
0.0017403168
-0.056315833
0.05633209
0.0017231166
-0.057530525
0.057547608
0.0017048372
-0.058762908
0.058781069
0.0016851791
-0.060011418
0.060030959
0.0016637445
-0.061274062
0.061295379
0.0016400685
-0.062548146
0.062571708
0.0016135525
-0.063829454
0.063855853
0.0015833256
-0.065113472
0.065143581
0.0015482196
-0.066392803
0.066427799
0.0015065513
-0.067656401
0.067697963
0.0014558552
-0.068888599
0.068939195
0.0013922303
-0.070063594
0.070127125
0.001307567
-0.071132328
0.071216923
0.0012017352
-0.072037114
0.072142949
0.0011150908
-0.072925448
0.073012085
0.0010661089
-0.074152649
0.074201595
0.0010303163
-0.075567005
0.075602745
0.00099651924
-0.077041183
0.077074925
0.00096341415
-0.078548214
0.078581262
0.00093085873
-0.080087419
0.080119917
0.00089881779
-0.081657904
0.081689887
0.00086726367
-0.083260403
0.083291899
0.00083617131
-0.084895447
0.084926479
0.00080553424
-0.086563767
0.086594341
0.00077530699
-0.088266239
0.088296399
0.00074544519
-0.090003499
0.090033288
0.00071593177
-0.091776266
0.0918057
0.00068673533
-0.093585381
0.093614492
0.00065782473
-0.095431637
0.095460454
0.00062917173
-0.097315666
0.097344217
0.00060074196
-0.099238242
0.099266561
0.00057249846
-0.10120015
0.10122828
0.00054440625
-0.1032021
0.10323007
0.00051644219
-0.10524506
0.10527288
0.00048858009
-0.10732968
0.10735738
0.00046078407
-0.10945687
0.1094845
0.00043304552
-0.11162712
0.11165468
0.00040532225
-0.11384151
0.11386905
0.00037758096
-0.11610108
0.11612862
0.00034979003
-0.11840646
0.11843404
0.00032191636
-0.12075907
0.12078672
0.00029393854
-0.12315935
0.1231871
0.00026581577
-0.12560856
0.12563644
0.0002375194
-0.12810745
0.12813548
0.00020902017
-0.13065712
0.13068534
0.00018027249
-0.13325824
0.1332867
0.00015123843
-0.13591245
0.13594118
0.00012186239
-0.13862005
0.13864911
9.2118752e-05
-0.14138348
0.14141289
6.1932844e-05
-0.14420189
0.14423173
3.1258341e-05
-0.14707978
0.14711009
-0.15001472
0.15004561
0.0078718766
-0.0096437879
-0.0081017408
0.0076391051
-0.010043189
0.0074086607
-0.010435113
0.0071814137
-0.010821734
0.0069573123
-0.011205201
0.00673657
-0.011586033
0.0065196802
-0.011964222
0.0063072871
-0.012339704
0.0061001587
-0.012712468
0.0058987722
-0.013082815
0.0057035596
-0.01345113
0.0055148648
-0.013817815
0.0053328763
-0.014183315
0.0051580065
-0.014547904
0.0049900909
-0.014912323
0.0048291362
-0.015277228
0.0046753801
-0.015643258
0.0045287139
-0.016010662
0.0043886265
-0.016380322
0.0042550385
-0.016752875
0.0041279267
-0.017128874
0.0040070777
-0.017508936
0.0038922609
-0.017893636
0.0037832426
-0.018283549
0.0036797856
-0.018679239
0.0035816473
-0.019081247
0.0034885864
-0.019490101
0.0034003573
-0.019906311
0.003316708
-0.020330372
0.003237469
-0.020762746
0.0031624394
-0.021203856
0.0030912946
-0.021654197
0.0030238628
-0.022114201
0.0029600223
-0.022584268
0.0028995292
-0.02306492
0.0028422015
-0.023556671
0.0027878371
-0.024060035
0.0027362243
-0.024575526
0.0026871786
-0.025103476
0.002640548
-0.025644156
0.0025961986
-0.026197838
0.0025540072
-0.026764856
0.0025138493
-0.027345605
0.0024756029
-0.02794049
0.002439157
-0.02854992
0.002404402
-0.029174287
0.0023712301
-0.029813881
0.0023395498
-0.030469007
0.0023092708
-0.031139975
0.0022803091
-0.031827093
0.0022525888
-0.032530664
0.0022260398
-0.033250977
0.0022005976
-0.033988322
0.0021761972
-0.034743059
0.0021527694
-0.035515528
0.0021302561
-0.036306064
0.002108597
-0.03711498
0.0020877353
-0.037942594
0.0020676168
-0.038789207
0.0020481888
-0.039655116
0.0020293976
-0.040540605
0.002011194
-0.041445954
0.0019935247
-0.042371417
0.001976338
-0.043317243
0.001959579
-0.044283655
0.0019431916
-0.045270854
0.0019271163
-0.04627901
0.0019112874
-0.047308263
0.0018956373
-0.048358708
0.0018800875
-0.049430385
0.001864552
-0.050523278
0.0018489323
-0.051637284
0.0018331171
-0.052772218
0.0018169764
-0.053927763
0.0018003569
-0.055103461
0.0017830787
-0.056298666
0.0017649258
-0.057512484
0.0017456338
-0.058743728
0.0017248856
-0.059990781
0.0017022735
-0.061251562
0.001677264
-0.062523245
0.0016492605
-0.063801563
0.0016173717
-0.065081699
0.0015802793
-0.06635582
0.0015361987
-0.067612426
0.0014824559
-0.068834956
0.0014147111
-0.069995944
0.0013243461
-0.071042026
0.0012146871
-0.071927449
0.0011313825
-0.072842157
0.0010852543
-0.074106561
0.00104917
-0.075530975
0.0010147293
-0.077006798
0.00098099461
-0.078514537
0.00094783084
-0.080054314
0.00091519693
-0.081625329
0.00088306003
-0.083228326
0.00085139089
-0.084863839
0.00082018536
-0.086532626
0.00078939833
-0.088235521
0.00075898198
-0.089973158
0.0007289199
-0.091746284
0.00069918428
-0.093555733
0.00066974063
-0.095402288
0.0006405597
-0.097286588
0.00061160754
-0.099209403
0.00058284562
-0.10117152
0.00055423879
-0.10317363
0.0005257618
-0.10521673
0.00049738944
-0.10730146
0.00046908453
-0.10942873
0.00044083896
-0.11159905
0.00041261297
-0.11381348
0.00038436693
-0.11607303
0.000356074
-0.11837838
0.00032769482
-0.12073092
0.00029921152
-0.12313111
0.00027058283
-0.12558018
0.00024177705
-0.12807891
0.00021275834
-0.13062838
0.00018350248
-0.13322928
0.00015394322
-0.13588319
0.00012403842
-0.13859047
9.3758067e-05
-0.14135353
6.3029822e-05
-0.14417152
3.1811804e-05
-0.14704893
-0.14998329
0.0077329168
-0.0094479496
-0.007928718
0.0075292546
-0.0098394919
0.0073240655
-0.010229891
0.0071191581
-0.010616797
0.0069153151
-0.01100133
0.0067131141
-0.011383806
0.006513161
-0.011764244
0.0063161169
-0.012142637
0.0061226924
-0.012519022
0.0059334871
-0.012893588
0.005748993
-0.013266615
0.0055696199
-0.013638421
0.0053956919
-0.014009365
0.0052275858
-0.014379775
0.0050654623
-0.014750177
0.0049094222
-0.015121165
0.0047594708
-0.015493284
0.0046157387
-0.015866906
0.0044780767
-0.016242638
0.0043463763
-0.016621153
0.0042205829
-0.017003061
0.0041005727
-0.017388908
0.0039861917
-0.01777924
0.0038772683
-0.018174614
0.0037736145
-0.018575576
0.0036750351
-0.018982662
0.0035813275
-0.019396391
0.0034922862
-0.019817271
0.003407705
-0.020245796
0.003327389
-0.020682439
0.0032511568
-0.021127637
0.0031787881
-0.021581846
0.0031100994
-0.022045533
0.0030449424
-0.022519135
0.0029831338
-0.023003139
0.0029244854
-0.023498054
0.0028688097
-0.024004395
0.0028158893
-0.024522644
0.0027655427
-0.025053171
0.0027176214
-0.02559628
0.0026720045
-0.02615227
0.0026285722
-0.026721475
0.0025872065
-0.027304294
0.0025477842
-0.027901126
0.002510185
-0.028512382
0.0024742898
-0.029138456
0.0024399995
-0.029779658
0.0024072199
-0.030436298
0.0023758634
-0.031108691
0.002345848
-0.031797153
0.0023170982
-0.032501993
0.0022895439
-0.033223503
0.0022631247
-0.033961985
0.0022377718
-0.034717791
0.0022134211
-0.035491264
0.0021900046
-0.036282737
0.0021674657
-0.037092533
0.0021457442
-0.037920966
0.0021247856
-0.038768344
0.0021045331
-0.03963496
0.0020849351
-0.040521106
0.0020659372
-0.041427057
0.002047485
-0.042353067
0.0020295254
-0.043299388
0.0020120007
-0.044266236
0.0019948525
-0.045253813
0.0019780195
-0.046262286
0.0019614337
-0.047291788
0.0019450221
-0.048342407
0.0019287044
-0.04941418
0.0019123902
-0.050507077
0.0018959776
-0.051620986
0.0018793478
-0.052755703
0.0018623663
-0.053910897
0.0018448731
-0.055086084
0.0018266778
-0.056280587
0.0018075546
-0.057493477
0.0017872255
-0.058723516
0.0017653568
-0.059969028
0.0017415191
-0.061227839
0.001715128
-0.062496966
0.0016855775
-0.063772128
0.0016519246
-0.065048162
0.0016127218
-0.066316728
0.0015660637
-0.067565875
0.0015090514
-0.068778044
0.0014367899
-0.069923777
0.0013405373
-0.070945827
0.0012284499
-0.071815352
0.0011497381
-0.072763464
0.0011058617
-0.074062727
0.0010692633
-0.075494432
0.0010341038
-0.076971696
0.00099969357
-0.078480186
0.00096587137
-0.080020552
0.00093259783
-0.081592116
0.00089982988
-0.083195619
0.00086753747
-0.08483161
0.00083572012
-0.086500875
0.00080432952
-0.088204202
0.0007733168
-0.089942221
0.00074266802
-0.091715718
0.00071235386
-0.093525509
0.00068233836
-0.09537237
0.00065259187
-0.097256947
0.00062308153
-0.099180008
0.00059376526
-0.10114232
0.00056460998
-0.10314461
0.00053558663
-0.10518785
0.00050667383
-0.10727271
0.0004778271
-0.10940006
0.00044904421
-0.11157045
0.00042028395
-0.11378491
0.00039150611
-0.11604446
0.0003626818
-0.11834977
0.00033377097
-0.12070224
0.00030475696
-0.12310234
0.00027559323
-0.12555128
0.00024625113
-0.12804983
0.00021669896
-0.13059911
0.00018689084
-0.13319976
0.00015678813
-0.1358534
0.00012632957
-0.13856034
9.5488252e-05
-0.14132303
6.4200339e-05
-0.14414059
3.2394398e-05
-0.1470175
-0.14995128
0.0075805646
-0.0092801728
-0.0077483023
0.0074057992
-0.0096646894
0.0072264125
-0.01005047
0.0070445527
-0.010434904
0.0068614974
-0.010818244
0.0066781884
-0.011200468
0.0064954457
-0.011581474
0.0063140391
-0.011961204
0.0061347116
-0.012339669
0.0059581248
-0.012716977
0.0057848487
-0.013093314
0.005615376
-0.013468924
0.0054501276
-0.013844092
0.0052895052
-0.014219128
0.0051338041
-0.014594451
0.0049832075
-0.014970544
0.0048378221
-0.015347874
0.0046977869
-0.015726847
0.0045631389
-0.016107967
0.0044338619
-0.016491855
0.004309925
-0.016879104
0.0041912684
-0.017270234
0.0040778041
-0.017665761
0.0039694171
-0.018066215
0.0038659738
-0.018472124
0.003767325
-0.018884008
0.0036733113
-0.019302375
0.003583765
-0.019727726
0.0034985123
-0.020160548
0.0034173794
-0.020601315
0.0033402039
-0.021050474
0.0032668121
-0.021508471
0.0031970383
-0.02197578
0.0031307342
-0.022452856
0.0030677369
-0.022940171
0.0030078766
-0.023438227
0.0029509714
-0.023947526
0.0028968233
-0.024468535
0.0028452549
-0.025001646
0.00279612
-0.025547191
0.0027492943
-0.026105493
0.0027046701
-0.026676903
0.0026621284
-0.027261808
0.0026215533
-0.02786061
0.0025828253
-0.028473716
0.0025458205
-0.029101517
0.0025104377
-0.029744344
0.0024765848
-0.030402516
0.0024441747
-0.031076355
0.0024131262
-0.031766181
0.0023833596
-0.032472305
0.0023548084
-0.033195033
0.0023274117
-0.033934672
0.0023011035
-0.034691569
0.0022758149
-0.035466064
0.0022514844
-0.036258497
0.0022280489
-0.037069189
0.0022054486
-0.03789846
0.0021836259
-0.038746617
0.002162526
-0.039613958
0.0021420928
-0.040500773
0.002122269
-0.041407334
0.0021030042
-0.042333906
0.0020842376
-0.043280727
0.0020659121
-0.044248017
0.0020479684
-0.045235978
0.0020303389
-0.046244766
0.0020129562
-0.047274516
0.0019957429
-0.048325306
0.0019786159
-0.049397166
0.001961479
-0.050490055
0.0019442296
-0.051603852
0.0019267409
-0.052738331
0.0019088715
-0.053893145
0.0018904544
-0.055067785
0.0018712906
-0.056261542
0.0018511415
-0.057473447
0.0018297168
-0.058702211
0.001806661
-0.059946091
0.0017815258
-0.061202822
0.0017536812
-0.062469236
0.0017224975
-0.063741063
0.0016869621
-0.065012745
0.0016455089
-0.066275388
0.0015960971
-0.067516572
0.0015355829
-0.068717632
0.0014584695
-0.069846759
0.0013561949
-0.070843596
0.0012429553
-0.071702101
0.0011693056
-0.072689839
0.0011267042
-0.074020172
0.0010895715
-0.075457356
0.0010537052
-0.076935889
0.0010186106
-0.078445152
0.00098412372
-0.079986126
0.00095019929
-0.081558252
0.00091679198
-0.083162274
0.00088387107
-0.084798753
0.00085143392
-0.086468506
0.000819432
-0.088172272
0.00078781667
-0.089910684
0.0007565739
-0.09168456
0.00072567278
-0.093494699
0.00069508032
-0.095341877
0.00066476387
-0.097226739
0.00063468728
-0.099150049
0.00060481309
-0.10111258
0.00057510135
-0.10311504
0.00054552565
-0.10515843
0.00051606503
-0.10724341
0.00048667132
-0.10937084
0.00045734651
-0.11154132
0.0004280452
-0.11375581
0.00039872696
-0.11601536
0.00036936719
-0.11832064
0.00033991713
-0.12067302
0.0003103646
-0.12307303
0.00028066302
-0.12552184
0.00025077741
-0.12802022
0.00022067815
-0.1305693
0.00019031847
-0.13316971
0.00015966052
-0.13582306
0.00012864254
-0.13852965
9.7240767e-05
-0.14129198
6.5368228e-05
-0.14410908
3.2981252e-05
-0.14698549
-0.14991869
0.007424954
-0.0091381979
-0.0075668888
0.0072756851
-0.0095153824
0.0071204423
-0.0098951906
0.0069608884
-0.010275316
0.0067983153
-0.010655639
0.0066337942
-0.011035916
0.0064682642
-0.011415915
0.0063025793
-0.011795491
0.0061375297
-0.012174591
0.0059738311
-0.01255325
0.0058121202
-0.012931576
0.005652961
-0.013309737
0.0054968502
-0.013687954
0.005344238
-0.014066489
0.0051954928
-0.014445679
0.0050508875
-0.014825912
0.0049106263
-0.015207587
0.0047748961
-0.015591091
0.0046438293
-0.015976876
0.0045174906
-0.016365494
0.0043959081
-0.016757502
0.0042790848
-0.017153393
0.0041669904
-0.017553651
0.0040595665
-0.017958779
0.0039567295
-0.018369278
0.0038583775
-0.01878565
0.003764393
-0.019208389
0.0036746473
-0.019637982
0.0035889991
-0.020074906
0.0035073078
-0.020519633
0.0034294286
-0.020972609
0.003355224
-0.021434284
0.0032845477
-0.021905125
0.0032172605
-0.022385595
0.0031532195
-0.02287616
0.0030922679
-0.023377309
0.0030342357
-0.023889531
0.0029789444
-0.024413285
0.002926226
-0.024948971
0.0028759394
-0.025496952
0.0028279641
-0.026057569
0.0027821893
-0.026631183
0.0027385052
-0.027218181
0.0026967983
-0.027818964
0.0026569532
-0.028433935
0.0026188513
-0.029063482
0.0025823884
-0.029707951
0.0025474714
-0.030367672
0.0025140151
-0.031042974
0.0024819339
-0.031734178
0.0024511546
-0.032441606
0.0024216055
-0.033165567
0.0023932281
-0.03390638
0.0023659546
-0.034664383
0.0023397224
-0.035439921
0.0023144636
-0.03623333
0.0022901169
-0.037044937
0.002266622
-0.037875061
0.0022439214
-0.038724014
0.002221956
-0.039592093
0.0022006693
-0.040479588
0.0021800058
-0.041386775
0.0021599066
-0.042313912
0.0021403145
-0.043261242
0.0021211694
-0.044228981
0.002102406
-0.045217325
0.0020839591
-0.046226431
0.0020657555
-0.047256426
0.0020477157
-0.048307382
0.0020297517
-0.049379319
0.0020117662
-0.050472187
0.001993646
-0.05158585
0.0019752637
-0.052720068
0.0019564704
-0.053874472
0.0019370879
-0.055048523
0.0019169105
-0.056241486
0.0018956878
-0.057452345
0.0018731093
-0.058679754
0.0018488049
-0.059921908
0.001822294
-0.06117643
0.0017929187
-0.062439978
0.0017600078
-0.063708274
0.00172246
-0.064975317
0.001678603
-0.066231646
0.0016262445
-0.067464324
0.0015619702
-0.068653461
0.0014796071
-0.06976449
0.001371271
-0.070735293
0.001258223
-0.071589044
0.0011901007
-0.07262175
0.0011479249
-0.073978045
0.0011102215
-0.075419711
0.0010736498
-0.076899377
0.0010378673
-0.078409431
0.001002704
-0.079951024
0.00096812286
-0.081523734
0.00093406583
-0.08312828
0.00090050307
-0.084765256
0.00086743588
-0.086435508
0.00083481356
-0.088139724
0.00080258536
-0.089878536
0.00077073844
-0.0916528
0.00073924017
-0.093463295
0.00070805864
-0.095310797
0.0006771601
-0.097195951
0.00064650968
-0.099119518
0.00061606492
-0.10108226
0.00058578775
-0.10308491
0.00055565216
-0.10512845
0.00052563227
-0.10721356
0.00049568173
-0.10934107
0.00046580265
-0.11151163
0.00043595202
-0.11372617
0.00040608522
-0.1159857
0.00037617633
-0.11829095
0.00034618057
-0.12064327
0.00031607905
-0.12304318
0.00028582599
-0.12549185
0.00025538773
-0.12799007
0.00022473089
-0.13053894
0.00019381655
-0.1331391
0.00016260038
-0.13579217
0.00013101356
-0.13849841
9.9022945e-05
-0.14126035
6.6568847e-05
-0.144077
3.3591037e-05
-0.1469529
-0.1498855
0.0072686351
-0.0090198011
-0.0073869916
0.0071424861
-0.0093891953
0.0070094871
-0.0097621552
0.006870957
-0.010136752
0.0067280485
-0.010512697
0.0065818047
-0.01088964
0.0064331823
-0.011267261
0.006283065
-0.011645343
0.0061322725
-0.012023769
0.0059815574
-0.012402506
0.0058316044
-0.012781594
0.0056830316
-0.013161136
0.0055363934
-0.013541287
0.0053921878
-0.013922255
0.0052508405
-0.014304305
0.0051126997
-0.014687744
0.0049780493
-0.015072911
0.0048471351
-0.015460152
0.0047201526
-0.01584987
0.0045972367
-0.016242556
0.0044784806
-0.016638726
0.004363944
-0.017038839
0.0042536529
-0.017443345
0.0041476009
-0.017852715
0.0040457547
-0.018267423
0.003948059
-0.018687949
0.0038544355
-0.019114764
0.003764795
-0.019548344
0.0036790351
-0.019989152
0.0035970385
-0.020437647
0.0035186959
-0.02089428
0.0034438897
-0.021359496
0.0033724989
-0.021833757
0.003304399
-0.022317521
0.0032394614
-0.022811253
0.0031775459
-0.023315428
0.0031184992
-0.023830523
0.0030621609
-0.024356988
0.0030083769
-0.024895233
0.0029570114
-0.025445636
0.0029079489
-0.026008559
0.0028610806
-0.02658437
0.0028163018
-0.027173462
0.0027735019
-0.027776226
0.0027325698
-0.028393069
0.0026933918
-0.029024373
0.0026558665
-0.029670497
0.0026198987
-0.030331779
0.0025854021
-0.031008554
0.0025522983
-0.031701154
0.002520508
-0.032409898
0.0024899652
-0.033135109
0.0024606054
-0.033877107
0.0024323649
-0.034636232
0.0024051781
-0.035412826
0.0023789823
-0.036207228
0.002353715
-0.037019765
0.0023293137
-0.037850758
0.0023057171
-0.038700518
0.0022828693
-0.039569348
0.0022607128
-0.040457536
0.002239187
-0.041365355
0.0022182337
-0.042293067
0.0021977923
-0.04324091
0.0021778014
-0.044209102
0.0021581958
-0.045197833
0.0021389047
-0.046207255
0.0021198513
-0.047237489
0.0021009559
-0.048288604
0.0020821249
-0.049360606
0.0020632559
-0.050453437
0.0020442319
-0.051566947
0.0020249207
-0.052700878
0.0020051605
-0.053854834
0.0019847727
-0.055028259
0.0019635345
-0.056220371
0.0019411823
-0.057430117
0.001917395
-0.05865609
0.001891776
-0.059896413
0.0018638112
-0.061148587
0.0018328227
-0.062409108
0.001798086
-0.063673661
0.0017583904
-0.064935743
0.0017119656
-0.066185338
0.0016564496
-0.06740892
0.0015881189
-0.068585234
0.0015000614
-0.069676524
0.0013857939
-0.070621046
0.0012742808
-0.071477528
0.0012116579
-0.072559166
0.001169491
-0.07393593
0.0011311981
-0.075381477
0.0010939302
-0.076862171
0.0010574486
-0.078373011
0.0010216019
-0.079915241
0.00098634869
-0.081488544
0.00095163274
-0.083093629
0.0009174205
-0.084731111
0.00088371306
-0.086401872
0.00085046011
-0.088106548
0.00081760651
-0.089845765
0.00078514487
-0.091620427
0.0007530421
-0.093431288
0.00072126225
-0.095279122
0.00068977304
-0.097164575
0.00065853717
-0.099088405
0.00062751343
-0.10105137
0.0005966592
-0.1030542
0.00056595168
-0.1050979
0.00053536348
-0.10718314
0.00050484811
-0.10931074
0.00047440678
-0.11148138
0.00044399471
-0.11369596
0.00041356868
-0.1159555
0.00038310383
-0.11826072
0.00035254956
-0.12061296
0.0003218911
-0.12301278
0.00029107856
-0.12546131
0.00026007853
-0.12795935
0.00022885238
-0.13050801
0.00019736831
-0.13310794
0.00016557264
-0.13576071
0.00013340821
-0.13846659
0.00010083244
-0.14122814
6.7787822e-05
-0.14404434
3.4197517e-05
-0.14691971
-0.14985171
0.0071141967
-0.0089226615
-0.0072112969
0.007008972
-0.009283933
0.0068963514
-0.0096494985
0.006777383
-0.010017748
0.0066530416
-0.010388322
0.0065242716
-0.010760837
0.0063919843
-0.011134942
0.0062570481
-0.011510376
0.0061202842
-0.011886975
0.0059824608
-0.012264653
0.0058442896
-0.012643393
0.0057064236
-0.013023241
0.0055694576
-0.013404292
0.005433929
-0.013786698
0.0053003106
-0.014170658
0.0051690087
-0.014556415
0.0050403701
-0.014944245
0.0049146943
-0.015334451
0.0047922294
-0.015727381
0.0046731697
-0.016123474
0.0045576669
-0.016523203
0.0044458347
-0.01692699
0.004337751
-0.017335247
0.0042334586
-0.017748411
0.0041329719
-0.018166928
0.0040362762
-0.018591249
0.0039433406
-0.019021827
0.0038541084
-0.019459114
0.0037685113
-0.019903561
0.003686472
-0.020355618
0.0036079005
-0.020815724
0.0035327086
-0.021284323
0.0034607945
-0.021761866
0.0033920535
-0.022248807
0.0033263754
-0.022745606
0.0032636346
-0.023252722
0.0032036955
-0.023770623
0.0031464149
-0.024299751
0.0030916573
-0.024840522
0.0030392945
-0.025393323
0.0029892134
-0.025958532
0.0029413141
-0.026536528
0.0028954892
-0.027127697
0.0028516396
-0.02773244
0.0028096552
-0.028351151
0.0027694294
-0.028984217
0.0027308615
-0.029632002
0.0026938611
-0.030294854
0.0026583418
-0.030973114
0.002624222
-0.031667115
0.002591429
-0.032377189
0.0025598933
-0.03310366
0.0025295523
-0.033846855
0.0025003428
-0.034607114
0.0024721996
-0.035384777
0.0024450597
-0.036180184
0.0024188582
-0.036993662
0.0023935362
-0.037825536
0.0023690332
-0.038676117
0.0023452873
-0.039545706
0.0023222396
-0.040434594
0.0022998328
-0.041343056
0.0022780043
-0.042271349
0.0022566936
-0.043219712
0.0022358343
-0.044188356
0.0022153592
-0.045177473
0.0021951965
-0.046187209
0.0021752679
-0.047217679
0.0021554855
-0.048268941
0.0021357554
-0.049340997
0.00211597
-0.050433774
0.0020960069
-0.051547107
0.0020757237
-0.052680719
0.0020549593
-0.053834194
0.0020335175
-0.055006942
0.0020111681
-0.056198148
0.0019876344
-0.057406709
0.0019625746
-0.058631157
0.0019355703
-0.059869536
0.0019060626
-0.061119203
0.0018733791
-0.062376546
0.0018367096
-0.063637119
0.0017947158
-0.064893873
0.0017455473
-0.066136289
0.0016866422
-0.067350128
0.00161392
-0.068512618
0.0015197049
-0.069582395
0.001399889
-0.070501239
0.0012913033
-0.071368946
0.0012335988
-0.072501495
0.0011914074
-0.073893792
0.0011525116
-0.075342642
0.001114545
-0.076824266
0.0010773591
-0.078335889
0.0010408196
-0.079878766
0.0010048867
-0.081452677
0.00096950031
-0.083058309
0.0009346267
-0.084696306
0.00090026949
-0.086367588
0.00086637378
-0.08807273
0.00083288855
-0.089812364
0.00079980286
-0.091587432
0.00076708377
-0.093398667
0.00073469626
-0.09524684
0.00070260453
-0.097132598
0.00067077398
-0.0990567
0.00063916079
-0.1010199
0.00060772147
-0.10302291
0.00057643234
-0.10506677
0.00054526599
-0.10715215
0.00051417318
-0.10927984
0.00048315955
-0.11145057
0.00045217812
-0.11366519
0.00042118263
-0.11592473
0.00039015161
-0.11822993
0.00035903141
-0.12058209
0.00032780343
-0.12298182
0.00029642251
-0.12543021
0.00026485072
-0.12792807
0.00023305087
-0.13047652
0.00020098802
-0.1330762
0.00016861016
-0.13572867
0.00013585282
-0.13843419
0.00010268274
-0.14119534
6.9025812e-05
-0.14401107
3.4826201e-05
-0.14688591
-0.1498173
0.006963614
-0.0088446245
-0.0070416131
0.0068773376
-0.0091976204
0.0067833385
-0.0095554644
0.0066824302
-0.0099168062
0.0065754158
-0.010281274
0.006463125
-0.010648514
0.0063463968
-0.011018182
0.0062260584
-0.011390006
0.0061029096
-0.011763795
0.0059777134
-0.012139426
0.0058511883
-0.012516838
0.0057240042
-0.012896027
0.0055967793
-0.013277038
0.0054700783
-0.013659968
0.0053444087
-0.01404496
0.0052202201
-0.014432199
0.0050979059
-0.014821905
0.0049778103
-0.01521433
0.004860227
-0.015609775
0.0047453999
-0.016008626
0.0046335297
-0.016411314
0.0045247804
-0.016818223
0.0044192751
-0.017229728
0.0043171031
-0.017646228
0.0042183211
-0.018068138
0.0041229592
-0.018495883
0.004031021
-0.018929888
0.0039424909
-0.019370587
0.0038573355
-0.019818413
0.0037755041
-0.020273798
0.003696941
-0.020737176
0.0036215763
-0.021208978
0.0035493352
-0.021689649
0.0034801327
-0.022179633
0.0034138722
-0.022679377
0.0033504495
-0.023189336
0.0032897471
-0.023709961
0.0032316407
-0.024241688
0.0031760071
-0.024784936
0.0031227321
-0.0253401
0.0030717106
-0.025907565
0.0030228417
-0.026487718
0.0029760311
-0.027080949
0.0029311774
-0.027687652
0.0028881805
-0.028308223
0.0028469392
-0.028943047
0.0028073573
-0.029592495
0.0027693442
-0.030256919
0.0027328164
-0.030936667
0.0026976964
-0.031632078
0.0026639096
-0.032343488
0.0026313879
-0.033071226
0.0026000688
-0.033815627
0.0025698899
-0.034577028
0.0025407855
-0.035355768
0.0025126939
-0.03615219
0.0024855534
-0.036966621
0.0024593002
-0.037799385
0.0024338742
-0.038650795
0.0024092161
-0.039521154
0.0023852632
-0.04041075
0.0023619557
-0.04131986
0.0023392321
-0.042248737
0.0023170276
-0.043197621
0.0022952779
-0.044166723
0.0022739095
-0.045156222
0.0022528487
-0.046166268
0.0022320132
-0.047196964
0.0022113152
-0.048248365
0.0021906541
-0.04932046
0.0021699174
-0.050413163
0.0021489759
-0.051526292
0.0021276841
-0.052659554
0.0021058685
-0.053812506
0.002083326
-0.054984528
0.0020598139
-0.056174765
0.0020350394
-0.057382064
0.0020086406
-0.058604888
0.001980175
-0.0598412
0.0019490461
-0.0610882
0.0019145642
-0.062342187
0.0018758351
-0.06359852
0.001831391
-0.064849555
0.0017792899
-0.066084309
0.0017167435
-0.067287696
0.0016392402
-0.068435221
0.0015384038
-0.069481639
0.0014137163
-0.070376551
0.0013095283
-0.071264769
0.001255956
-0.072447952
0.0012137265
-0.073851618
0.0011741701
-0.075303147
0.0011355011
-0.076785661
0.0010976035
-0.078298055
0.00106036
-0.079841588
0.0010237367
-0.08141612
0.00098766953
-0.08302231
0.00095212592
-0.084660833
0.00091710814
-0.086332645
0.00088256248
-0.088038265
0.00084843122
-0.089778319
0.00081471154
-0.091553806
0.00078136556
-0.093365421
0.00074836034
-0.095213944
0.00071565856
-0.097100015
0.00068322154
-0.099024391
0.00065100896
-0.10098782
0.00061897394
-0.10299102
0.00058709285
-0.10503506
0.00055533909
-0.10712058
0.00052366119
-0.10924835
0.00049206517
-0.11141918
0.00046050262
-0.11363385
0.00042892992
-0.11589338
0.00039732115
-0.11819856
0.00036562309
-0.12055064
0.00033381986
-0.12295029
0.00030185847
-0.12539853
0.00026970422
-0.12789622
0.00023731434
-0.13044444
0.00020466986
-0.13304388
0.00017168813
-0.13569603
0.0001383351
-0.13840119
0.0001045552
-0.14116194
7.0289225e-05
-0.1439772
3.54583e-05
-0.1468515
-0.14978227
0.0068186122
-0.0087837701
-0.0068794305
0.0067494914
-0.0091284648
0.0066724425
-0.0094783818
0.0065880769
-0.0098324076
0.0064970588
-0.010190224
0.0064001174
-0.010551541
0.0062980183
-0.010916052
0.0061915352
-0.011283492
0.0060814319
-0.011653661
0.0059684486
-0.012026412
0.0058532935
-0.012401653
0.0057366354
-0.012779339
0.0056190999
-0.013159473
0.0055012655
-0.013542105
0.0053836612
-0.013927327
0.0052667643
-0.014315275
0.0051510021
-0.014706116
0.0050367533
-0.015100056
0.0049243483
-0.015497346
0.0048140709
-0.015898327
0.0047061641
-0.016303388
0.0046008319
-0.016712874
0.0044982402
-0.017127122
0.0043985186
-0.017546495
0.0043017658
-0.017971378
0.0042080482
-0.018402161
0.0041174087
-0.018839248
0.004029865
-0.019283047
0.0039454152
-0.019733971
0.0038640439
-0.020192438
0.0037857188
-0.020658867
0.0037103977
-0.021133678
0.003638026
-0.021617302
0.0035685398
-0.022110176
0.0035018631
-0.022612734
0.0034379079
-0.023125418
0.0033765772
-0.023648672
0.003317764
-0.024182921
0.0032613608
-0.024728582
0.0032072663
-0.025286059
0.0031553826
-0.025855738
0.0031056187
-0.026438014
0.0030578809
-0.027033275
0.0030120774
-0.027641916
0.0029681144
-0.02826433
0.0029258959
-0.028900902
0.0028853298
-0.029552006
0.0028463312