/*--------------------------------*- C++ -*----------------------------------*\
| =========                 |                                                 |
| \\      /  F ield         | OpenFOAM: The Open Source CFD Toolbox           |
|  \\    /   O peration     | Version:  2406                                  |
|   \\  /    A nd           | Website:  www.openfoam.com                      |
|    \\/     M anipulation  |                                                 |
\*---------------------------------------------------------------------------*/
FoamFile
{
    version     2.0;
    format      ascii;
    arch        "LSB;label=32;scalar=64";
    class       volScalarField;
    location    "0.017";
    object      p;
}
// * * * * * * * * * * * * * * * * * * * * * * * * * * * * * * * * * * * * * //

dimensions      [1 -1 -2 0 0 0 0];

internalField   nonuniform List<scalar> 
35803
(
101180.58
101099.88
101051.42
100991.14
100931.05
100880.63
100843.11
100819.67
100810.17
100810.79
100821.82
100849.85
100889.36
100942.46
101000.21
101071.46
101140.59
101212.19
101246.11
101276.58
101301.65
101323.52
101353.12
101370.24
101396.96
101399.96
101418.64
101416.27
101434.12
101439
101419.58
101334.17
101266.51
101197.79
101121.78
101050.3
100989.32
100941.44
100908.13
100890.66
100881.14
100882.39
100901.33
100933.35
100979.19
101030.64
101094.62
101155.54
101222.08
101253.33
101283.02
101306.64
101327.44
101356.43
101372.8
101400.74
101402.86
101420.93
101418.12
101436.31
101439.34
101421.33
101431.18
101374.41
101301.95
101220.66
101144.07
101077.05
101022.15
100982.18
100955.76
100938.76
100930.14
100941.36
100967
101007.03
101054.81
101115.34
101172.09
101233.45
101262.72
101290.71
101312.52
101332.08
101360.65
101375.9
101404.7
101405.83
101422.98
101419.95
101438.39
101439.61
101423.32
101523.64
101469.63
101397.49
101314.04
101233.63
101161.45
101099.83
101051.29
101015.64
100991.19
100976.8
100981.03
101000.46
101034.86
101079.42
101137.08
101190.69
101246
101274.05
101299.52
101319.28
101337.47
101365.74
101379.66
101409.01
101409
101424.63
101421.77
101440.31
101439.84
101425.53
101612.65
101560.8
101490.71
101407.29
101324.75
101248.73
101181.49
101125.33
101081.38
101049.44
101029.37
101026.5
101039.38
101067.68
101108.52
101162.31
101212.01
101259.88
101287.34
101309.59
101327.05
101343.72
101371.36
101384.11
101414.01
101412.65
101426.2
101423.64
101442.11
101440.09
101427.99
101690.81
101642.39
101576.13
101495.26
101413.19
101335.68
101264.99
101203.4
101152.77
101114
101087.85
101077.9
101084.02
101105.9
101142.66
101191.53
101236.33
101275.7
101302.7
101321.09
101335.95
101350.95
101377.17
101389.18
101419.41
101416.8
101428.07
101425.63
101443.8
101440.46
101430.69
101755.43
101710.43
101649.34
101573.56
101494.88
101418.72
101347.28
101282.8
101227.54
101183.24
101151.37
101134.76
101134.19
101149.61
101182.18
101224.97
101263.83
101294.38
101320.2
101334.24
101346.13
101359.29
101383.26
101394.89
101424
101421.32
101430.58
101427.88
101445.38
101441.04
101433.64
101806.99
101762.48
101706.61
101638.96
101567.15
101495.52
101426.27
101361.67
101304.18
101256.09
101219.52
101197.04
101190.13
101199.3
101227.62
101262.89
101294.78
101317.23
101339.8
101349.27
101357.77
101368.86
101390.16
101401.4
101427.31
101426.13
101433.95
101430.65
101446.94
101441.92
101436.84
101844.55
101803.07
101752.91
101693.96
101630.5
101565.5
101500.88
101438.73
101381.49
101331.69
101291.86
101264.66
101252.11
101255.47
101279.17
101306.23
101329.12
101345.22
101361.48
101366.39
101371.08
101379.79
101398.28
101408.82
101430.35
101431.09
101438.53
101434.14
101448.64
101443.08
101440.32
101875.68
101836.26
101792.3
101741.61
101686.62
101629.29
101570.97
101513.36
101458.62
101409.26
101367.95
101337.46
101320.28
101318.62
101337.52
101355.38
101367.06
101377.97
101385.48
101385.78
101386.3
101392.22
101407.69
101417.24
101434.18
101436.06
101444.73
101438.29
101450.66
101444.57
101444.13
101899.99
101864.53
101825.59
101782.14
101736.11
101687.71
101637.19
101585.8
101535.46
101488.49
101447.49
101415.31
101394.84
101389.3
101403.11
101409.99
101410.4
101413.99
101412.22
101407.54
101403.65
101406.3
101418.5
101426.77
101439.1
101441.17
101452.14
101442.97
101453.08
101446.59
101448.33
101910.53
101895.63
101867.32
101829.06
101788.74
101747.22
101703.6
101658.47
101613.28
101569.93
101530.74
101498.43
101476.25
101468.16
101475.42
101469.73
101459.21
101451.88
101441.81
101431.6
101423.36
101422.21
101430.92
101437.56
101445.27
101447.05
101460.32
101448.05
101455.94
101449.24
101452.97
101936.16
101925.69
101908.19
101882.49
101849.47
101812.45
101773.67
101733.87
101693.82
101654.83
101618.76
101588.05
101565.94
101555.59
101551.98
101533.05
101510.32
101491.48
101473.67
101457.79
101445.4
101440.15
101445.13
101449.7
101452.91
101454.14
101468.75
101453.55
101459.35
101452.62
101458.13
101977.81
101967.9
101947.72
101922.39
101897.12
101869.99
101840.64
101809.36
101776.83
101744.36
101713.83
101687.02
101665.46
101647.71
101625.83
101594.17
101561.17
101532.31
101507.35
101486.11
101469.38
101460.09
101461.24
101463.37
101462.3
101462.3
101476.4
101459.62
101463.43
101456.78
101463.87
102024.1
102021.01
102010.09
101988.41
101961.22
101936.31
101914.44
101892.01
101867.17
101840.51
101813.46
101786.65
101759.22
101727.17
101688.53
101647.69
101608.55
101573.61
101542.92
101516.16
101495.09
101481.76
101479.35
101478.79
101473.59
101471.45
101483
101466.26
101468.35
101461.73
101470.36
102098.41
102100.94
102100.32
102094.42
102079.09
102053.15
102023.1
101992.8
101961.86
101930.31
101897.67
101862.35
101823.89
101782.01
101737.35
101693.12
101651.7
101613.77
101579.04
101547.66
101522.17
101505.06
101499.57
101495.98
101486.8
101481.79
101489.06
101473.41
101474.38
101467.59
101478.05
102101.56
102095.81
102085.44
102071.88
102061.03
102054.12
102046.88
102037.46
102018.41
101987.38
101951.36
101913.53
101871.44
101825.31
101778.73
101733.47
101690.19
101650.32
101613.69
101579.61
101550.55
101530.05
101521.52
101514.68
101502.11
101493.66
101495.75
101480.9
101481.91
101474.53
101488.64
102099.75
102093.28
102084.73
102074.15
102061.82
102047.03
102029.07
102008.14
101989.14
101972.84
101954.43
101934.1
101904.69
101861.04
101813.77
101769.2
101725.09
101682.99
101644.83
101610.01
101579.42
101556.7
101545.09
101534.42
101519.13
101507.14
101503.77
101488.94
101491.51
101482.67
101497.47
102071.87
102066.61
102060.14
102052.45
102043.42
102032.8
102020.22
102005.53
101989.63
101972.77
101952.33
101925.32
101899.66
101875.6
101840.39
101798.9
101755.13
101712.68
101673.08
101637.71
101607.53
101584.4
101569.7
101554.43
101536.63
101521.63
101512.92
101498.36
101503.29
101492.02
101507.77
102036.1
102031.59
102026.11
102019.72
102012.33
102003.75
101993.81
101982.36
101969.17
101953.85
101936.07
101916.05
101891.84
101867.88
101848.2
101819.52
101779.64
101738.43
101699.74
101664.15
101634.24
101612.08
101594.84
101573.93
101553.32
101537.19
101524.89
101510.57
101515.86
101501.61
101514.86
101994.71
101991.24
101987.02
101982.12
101976.47
101969.91
101962.31
101953.49
101943.27
101931.43
101917.74
101901.92
101884.04
101863.97
101839.57
101814.4
101790.81
101758.16
101723.22
101691.02
101662.04
101639.32
101618.82
101593.09
101569.43
101553.24
101541.03
101525.18
101527.85
101511.45
101519.08
101948.09
101945.58
101942.54
101939.01
101934.94
101930.2
101924.68
101918.22
101910.65
101901.78
101891.38
101879.22
101865.12
101848.7
101830.86
101811.36
101792.54
101774.74
101746.55
101716.95
101690.57
101666.39
101640.39
101611.72
101585.9
101567.59
101555.34
101538.17
101538.59
101520.75
101523.78
101910.12
101908.34
101906.19
101903.69
101900.8
101897.43
101893.54
101889.03
101883.73
101877.5
101870.2
101861.66
101851.7
101840.27
101826.92
101812.68
101796.43
101780.27
101765.61
101740.75
101714.58
101689.49
101659.06
101629.67
101603.91
101581.74
101565.62
101548.61
101548.27
101527.5
101530.28
101887.73
101886.42
101884.85
101883.02
101880.9
101878.42
101875.49
101872.04
101868.01
101863.32
101857.86
101851.49
101844.1
101835.54
101825.8
101814.27
101801.35
101785.92
101769.43
101752.3
101726.84
101700.63
101672.57
101645.49
101622.03
101598.9
101578.33
101561.87
101558.89
101536.91
101546.54
101863.23
101862.22
101861.01
101859.62
101858.01
101856.15
101854
101851.5
101848.6
101845.23
101841.32
101836.75
101831.36
101824.93
101817.13
101807.77
101796.29
101782.57
101766.51
101751.17
101733.24
101707.13
101682.14
101658.69
101636.1
101613.54
101592.42
101577.27
101571.68
101552.96
101565.55
101834.5
101833.69
101832.71
101831.59
101830.28
101828.76
101826.97
101824.88
101822.43
101819.56
101816.2
101812.27
101807.7
101802.4
101796.25
101789.05
101780.62
101770.66
101759.31
101747.06
101731.94
101711.88
101692.06
101672.67
101650.37
101626.93
101607
101592.63
101585.13
101565.7
101589.3
101806.17
101805.64
101804.99
101804.26
101803.4
101802.39
101801.21
101799.82
101798.17
101796.2
101793.84
101791
101787.57
101783.42
101778.42
101772.47
101765.46
101757.31
101748.06
101736.99
101726.59
101715.42
101698.4
101679.37
101660.66
101641.81
101627.39
101611.09
101598.62
101577.11
101602.32
101781.38
101781.01
101780.56
101780.04
101779.45
101778.74
101777.91
101776.92
101775.74
101774.34
101772.64
101770.56
101767.97
101764.76
101760.92
101756.48
101751.3
101745.02
101737.84
101729.97
101718.94
101708.54
101698.8
101683.05
101669.07
101656.48
101642.7
101623.27
101609.01
101587.17
101608.83
101762.14
101761.33
101760.47
101759.59
101758.66
101757.68
101756.65
101755.55
101754.38
101753.14
101751.85
101750.49
101749.04
101747.49
101745.81
101743.86
101741.51
101738.8
101735.4
101730.58
101723.46
101714.73
101706.72
101698.43
101683.51
101667.5
101650.14
101630.33
101617.22
101597.11
101611.72
101766.76
101766.46
101766.1
101765.68
101765.18
101764.6
101763.91
101763.11
101762.19
101761.13
101759.9
101758.51
101756.94
101755.16
101753.13
101750.77
101747.99
101744.52
101739.83
101733.09
101726.74
101719.78
101708.51
101697.97
101684.69
101666.41
101654.79
101639.51
101621.33
101604.16
101613.56
101762.49
101761.97
101761.44
101760.89
101760.32
101759.71
101759.03
101758.26
101757.37
101756.32
101755.06
101753.55
101751.72
101749.48
101746.73
101743.44
101739.63
101735.22
101729.56
101724.59
101715.74
101707.95
101698.4
101677.25
101663.74
101662.05
101651.05
101637.02
101627.77
101615.12
101607.2
100128.71
100132.62
100144.26
100154.01
100166.1
100180.05
100196.83
100214.39
100237
100268.43
100310.91
100365.32
100431.49
100508.19
100595.11
100686.91
100786.33
100882.79
100979.74
101058.41
101113.27
101172.98
101228.3
101266.33
101303.47
101324.48
101347.15
101361.7
101382.49
101399.15
101396.7
100138.62
100152.62
100172.51
100183.85
100195.88
100206.3
100215.75
100228.94
100250.79
100283.21
100327.43
100383.32
100450.54
100527.66
100614.13
100704.28
100801.6
100891.73
100988.87
101060.13
101116.46
101176.24
101231
101268.51
101305.16
101325.77
101348.35
101362.72
101383.37
101400.61
101396.63
100150.77
100169.33
100178.26
100182.27
100190.39
100201.14
100212.68
100228.89
100253.64
100288.56
100335.01
100392.53
100460.88
100538.58
100625.05
100714.58
100811.84
100900.11
100996.93
101063.07
101120.48
101179.79
101233.85
101270.77
101306.9
101327.09
101349.57
101363.75
101384.25
101401.99
101396.62
100160.17
100176.24
100176.93
100179.89
100187.65
100197.3
100209.17
100227.13
100253.93
100291.01
100339.4
100398.48
100468
100546.44
100633.23
100722.65
100820.5
100908.79
101004.18
101066.36
101124.76
101183.34
101236.69
101273.02
101308.64
101328.42
101350.81
101364.78
101385.13
101403.31
101396.68
100162.49
100172.56
100171.87
100174.94
100182.52
100192.01
100205.17
100225.25
100254.25
100293.64
100343.99
100404.69
100475.45
100554.7
100641.8
100731.15
100829.41
100917.96
101010.5
101069.63
101129.11
101186.86
101239.52
101275.28
101310.38
101329.75
101352.06
101365.82
101386.02
101404.59
101396.78
100158.87
100163.34
100164.25
100168.81
100176.29
100186.26
100201.14
100223.46
100254.84
100296.64
100348.97
100411.34
100483.32
100563.32
100650.68
100739.92
100838.42
100926.97
101016.33
101072.89
101133.5
101190.35
101242.34
101277.54
101312.12
101331.08
101353.32
101366.87
101386.9
101405.82
101396.95
100153.46
100153.81
100155.73
100161.17
100168.77
100179.84
100196.78
100221.52
100255.46
100299.7
100354.04
100418.08
100491.23
100571.95
100659.51
100748.66
100847.22
100935.85
101022.53
101076.18
101137.94
101193.81
101245.15
101279.79
101313.85
101332.42
101354.59
101367.91
101387.79
101407.01
101397.18
100146.18
100144.81
100146.47
100151.89
100160.12
100172.83
100192.11
100219.41
100256.09
100302.77
100359.15
100424.86
100499.15
100580.55
100668.27
100757.33
100855.68
100944.77
101029.44
101079.49
101142.41
101197.25
101247.96
101282.04
101315.58
101333.76
101355.88
101368.96
101388.68
101408.17
101397.51
100135.27
100133.16
100134.9
100140.87
100150.46
100165.29
100187.14
100217.23
100256.74
100305.86
100364.34
100431.7
100507.09
100589.16
100677
100765.94
100864.12
100953.2
101036.42
101082.96
101146.89
101200.67
101250.77
101284.29
101317.31
101335.11
101357.17
101370.01
101389.57
101409.3
101397.95
100121.36
100119.19
100121.47
100128.54
100139.96
100157.25
100181.91
100215
100257.4
100309.03
100369.62
100438.61
100515.08
100597.77
100685.69
100774.51
100872.6
100960.74
101042.98
101086.81
101151.37
101204.06
101253.56
101286.53
101319.04
101336.45
101358.48
101371.06
101390.46
101410.4
101398.53
100104.39
100102.78
100106.2
100114.91
100128.64
100148.75
100176.47
100212.78
100258.11
100312.3
100375.02
100445.6
100523.1
100606.39
100694.34
100783.07
100881.06
100967.97
101049.12
101091.07
101155.83
101207.43
101256.34
101288.77
101320.76
101337.81
101359.8
101372.1
101391.35
101411.48
101399.29
100084.39
100084.03
100089.14
100100.04
100116.53
100139.81
100170.91
100210.57
100258.91
100315.71
100380.54
100452.67
100531.17
100615.02
100702.96
100791.73
100889.29
100975.25
101054.82
101095.61
101160.26
101210.78
101259.12
101291
101322.48
101339.16
101361.12
101373.14
101392.24
101412.54
101400.23
100061.44
100062.91
100070.29
100083.95
100103.7
100130.53
100165.28
100208.41
100259.83
100319.27
100386.19
100459.84
100539.29
100623.65
100711.55
100800.51
100897.01
100982.59
101060.09
101100.31
101164.66
101214.11
101261.89
101293.23
101324.19
101340.52
101362.45
101374.17
101393.13
101413.57
101400.89
100035.47
100039.37
100049.69
100066.73
100090.25
100120.99
100159.65
100206.36
100260.94
100323.02
100391.99
100467.11
100547.46
100632.29
100720.11
100809.33
100904.27
100989.92
101065.05
101105.13
101169.01
101217.42
101264.64
101295.46
101325.9
101341.87
101363.79
101375.2
101394.01
101414.59
101401.57
100006.44
100013.49
100027.47
100048.52
100076.28
100111.31
100154.08
100204.46
100262.26
100326.97
100397.96
100474.48
100555.68
100640.93
100728.65
100818.21
100911.27
100997.14
101069.82
101110.09
101173.32
101220.72
101267.39
101297.68
101327.6
101343.23
101365.13
101376.21
101394.9
101415.58
101402.28
99974.372
99985.381
100003.77
100029.47
100061.95
100101.61
100148.64
100202.82
100263.85
100331.16
100404.1
100481.96
100563.95
100649.58
100737.19
100827.19
100918.12
101004.27
101074.47
101115.14
101177.59
101224
101270.12
101299.89
101329.3
101344.59
101366.47
101377.22
101395.79
101416.56
101403.04
99939.388
99955.239
99978.822
100009.79
100047.45
100092.03
100143.46
100201.51
100265.76
100335.61
100410.44
100489.56
100572.29
100658.23
100745.79
100836.33
100925.39
101011.3
101079.06
101120.25
101181.81
101227.26
101272.85
101302.1
101330.99
101345.95
101367.81
101378.21
101396.68
101417.51
101403.85
99901.744
99923.385
99952.943
99989.758
100033
100082.7
100138.66
100200.59
100268.03
100340.35
100416.98
100497.29
100580.68
100666.9
100754.55
100845.44
100933.2
101018.24
101083.63
101125.4
101185.99
101230.5
101275.56
101304.31
101332.67
101347.31
101369.14
101379.19
101397.57
101418.44
101404.72
99861.898
99890.289
99926.54
99969.697
100018.84
100073.81
100134.37
100200.17
100270.71
100345.4
100423.75
100505.16
100589.14
100675.57
100763.4
100853.79
100940.76
101025.07
101088.19
101130.57
101190.12
101233.73
101278.25
101306.5
101334.36
101348.67
101370.47
101380.15
101398.45
101419.35
101405.63
99820.578
99856.588
99900.12
99949.992
100005.24
100065.58
100130.72
100200.3
100273.85
100350.8
100430.75
100513.17
100597.65
100684.27
100771.97
100861.56
100948.32
101031.63
101092.77
101135.78
101194.21
101236.95
101280.94
101308.69
101336.03
101350.03
101371.78
101381.09
101399.34
101420.23
101406.59
99778.781
99823.088
99874.271
99931.07
99992.488
100058.2
100127.84
100201.09
100277.51
100356.58
100438.01
100521.32
100606.23
100693.03
100780.59
100869.36
100956.24
101037.88
101097.39
101141
101198.25
101240.14
101283.61
101310.87
101337.7
101351.38
101373.08
101382.01
101400.22
101421.08
101407.58
99737.707
99790.736
99849.628
99913.368
99980.919
100051.92
100125.88
100202.61
100281.72
100362.76
100445.54
100529.62
100614.89
100701.94
100789
100876.94
100963.99
101044.15
101102.09
101146.24
101202.25
101243.33
101286.26
101313.05
101339.36
101352.73
101374.37
101382.91
101401.1
101421.89
101408.59
99698.706
99760.588
99826.818
99897.326
99970.868
100046.97
100124.97
100204.94
100286.55
100369.38
100453.34
100538.08
100623.71
100710.81
100797.2
100884.53
100971.03
101050.67
101106.86
101151.49
101206.21
101246.49
101288.9
101315.22
101341.02
101354.08
101375.63
101383.79
101401.98
101422.66
101409.6
99663.108
99733.492
99806.487
99883.437
99962.681
100043.58
100125.27
100208.18
100292.05
100376.44
100461.43
100546.79
100632.9
100719.48
100805.41
100892.07
100977.7
101057.55
101111.72
101156.73
101210.12
101249.64
101291.53
101317.38
101342.67
101355.43
101376.86
101384.65
101402.86
101423.4
101410.62
99631.391
99709.486
99789.779
99872.335
99956.698
100041.88
100126.91
100212.42
100298.24
100383.97
100469.88
100556.01
100642.35
100727.85
100813.72
100899.54
100984.4
101064.63
101116.66
101161.96
101214
101252.77
101294.14
101319.53
101344.32
101356.77
101378.07
101385.47
101403.74
101424.11
101411.64
99605.297
99690.531
99776.845
99864.455
99953.068
100041.89
100130.05
100217.78
100305.2
100392.04
100478.94
100566.06
100651.03
100736
100821.99
100906.93
100991.17
101071.62
101121.71
101167.17
101217.84
101255.89
101296.73
101321.68
101345.96
101358.11
101379.27
101386.27
101404.61
101424.79
101412.69
99585.775
99677.118
99768.214
99859.999
99952.22
100044.07
100134.61
100224.23
100313.09
100400.97
100489.1
100575.14
100659
100744.77
100830.22
100914.25
100997.94
101078.43
101126.89
101172.35
101221.64
101258.98
101299.31
101323.82
101347.61
101359.44
101380.45
101387.05
101405.49
101425.46
101413.77
99573.525
99669.78
99764.406
99859.329
99954.338
100048.46
100140.81
100231.92
100322.26
100411.53
100499.33
100583.45
100668.12
100753.62
100838.42
100921.5
101004.69
101085.09
101132.18
101177.5
101225.41
101262.06
101301.88
101325.95
101349.25
101360.77
101381.64
101387.79
101406.36
101426.13
101414.48
99569.166
99669.002
99765.81
99862.718
99959.597
100055.33
100148.98
100241.47
100333.5
100423.36
100507.95
100592.02
100677.41
100762.44
100846.59
100928.66
101011.42
101091.61
101137.56
101182.62
101229.15
101265.11
101304.42
101328.07
101350.88
101362.1
101382.82
101388.52
101407.24
101426.81
101415.14
99573.281
99675.236
99772.781
99870.458
99968.336
100065.35
100160.27
100254.23
100346.13
100432.52
100515.88
100601.87
100686.72
100771.29
100854.76
100935.74
101018.1
101098.03
101143
101187.69
101232.86
101268.14
101306.96
101330.18
101352.51
101363.44
101384.01
101389.24
101408.11
101427.49
101415.38
99586.545
99689.178
99786.062
99883.412
99981.596
100079.94
100176.46
100268.5
100354.69
100440.48
100526.46
100612.01
100696.13
100780.18
100862.92
100942.78
101024.72
101104.35
101148.49
101192.73
101236.53
101271.15
101309.47
101332.29
101354.15
101364.79
101385.22
101389.97
101408.97
101428.17
101415.49
99609.399
99711.781
99807.017
99903.411
100001.17
100098.66
100192.22
100278.37
100363.5
100451.7
100537.61
100622.29
100705.66
100789.12
100871.08
100949.88
101031.31
101110.59
101153.99
101197.71
101240.17
101274.13
101311.97
101334.38
101355.78
101366.14
101386.46
101390.71
101409.82
101428.83
101415.52
99638.749
99740.224
99832.921
99927.543
100023.26
100116.37
100202.52
100288.19
100376.71
100464.4
100549.04
100632.79
100715.3
100798.11
100879.24
100957.01
101037.93
101116.77
101159.49
101202.62
101243.78
101277.09
101314.44
101336.47
101357.42
101367.51
101387.77
101391.48
101410.69
101429.49
101415.53
99669.075
99769.805
99859.141
99949.715
100041.86
100128.79
100214.74
100303.95
100391.51
100477.78
100560.93
100643.56
100725.07
100807.14
100887.36
100963.71
101044.57
101122.88
101164.97
101207.47
101247.36
101280.02
101316.9
101338.55
101359.06
101368.89
101389.16
101392.31
101411.58
101430.12
101415.56
99702.342
99800.315
99885.447
99971.965
100058.53
100145.09
100234.9
100321.76
100407.24
100491.9
100573.34
100654.6
100734.96
100816.22
100895.36
100970.22
101051.14
101128.91
101170.43
101212.24
101250.91
101282.93
101319.34
101340.62
101360.7
101370.28
101390.66
101393.22
101412.51
101430.71
101415.69
99753.743
99849.445
99928.098
100008.07
100089.79
100173.54
100258.38
100341.08
100424.09
100506.85
100586.3
100665.92
100744.96
100825.33
100903.31
100977
101057.57
101134.86
101175.84
101216.94
101254.43
101285.81
101321.76
101342.68
101362.36
101371.68
101392.29
101394.24
101413.47
101431.25
101415.52
99826.692
99913.445
99982.858
100054.26
100128.79
100205.85
100284.31
100362.15
100442.22
100522.67
100599.82
100677.53
100755.1
100834.48
100911.21
100983.83
101063.87
101140.73
101181.22
101221.57
101257.92
101288.66
101324.16
101344.73
101364.04
101373.1
101394.01
101395.39
101414.47
101431.71
101415.33
99905.102
99983.508
100042.83
100104.81
100171.12
100240.75
100312.65
100385.08
100461.69
100539.33
100613.92
100689.44
100765.36
100843.65
100919.07
100990.63
101070.02
101146.52
101186.55
101226.13
101261.39
101291.48
101326.53
101346.77
101365.74
101374.55
101395.78
101396.64
101415.5
101432.08
101415.14
99990.386
100059.47
100107.62
100159.38
100216.78
100278.56
100343.44
100409.84
100482.55
100556.85
100628.62
100701.67
100775.75
100852.84
100926.87
100997.42
101076.03
101152.2
101191.82
101230.61
101264.83
101294.27
101328.88
101348.79
101367.47
101376.03
101397.57
101397.96
101416.58
101432.38
101414.97
100081.53
100140.55
100176.84
100217.88
100265.89
100319.39
100376.61
100436.39
100504.87
100575.22
100643.94
100714.22
100786.27
100862.04
100934.6
101004.23
101081.87
101157.79
101197.03
101235.03
101268.23
101297.03
101331.2
101350.8
101369.25
101377.56
101399.38
101399.35
101417.71
101432.69
101414.83
100175.65
100225.04
100249.61
100279.93
100318.38
100363.22
100412.11
100464.77
100528.75
100594.44
100659.91
100727.13
100796.93
100871.24
100942.27
101011.06
101087.53
101163.25
101202.17
101239.37
101271.62
101299.76
101333.49
101352.8
101371.1
101379.15
101401.18
101400.79
101418.9
101433.07
101414.73
100270.61
100311.82
100325.54
100345.5
100374.32
100410.11
100449.93
100495.18
100554.16
100614.51
100676.52
100740.42
100807.72
100880.42
100949.84
101017.94
101093.08
101168.59
101207.23
101243.63
101274.97
101302.45
101335.76
101354.79
101373.06
101380.84
101402.99
101402.3
101420.16
101433.54
101414.7
100366.91
100401.38
100405.21
100415.05
100434.04
100460.15
100490.18
100528.19
100580.69
100635.42
100693.79
100754.09
100818.66
100889.55
100957.28
101024.88
101098.72
101173.79
101212.2
101247.82
101278.29
101305.1
101337.99
101356.76
101375.17
101382.64
101404.81
101403.86
101421.5
101434.11
101414.73
100467.89
100495.81
100490.08
100489.45
100497.93
100513.29
100533.48
100563.78
100607.75
100657.29
100711.72
100768.14
100829.73
100898.61
100964.56
101031.91
101104.45
101178.85
101217.08
101251.93
101281.58
101307.73
101340.2
101358.72
101377.49
101384.59
101406.68
101405.49
101422.92
101434.77
101414.85
100578.05
100597.6
100581.57
100569.32
100565.99
100569.47
100580.29
100601.47
100635.47
100679.83
100730.3
100782.62
100840.98
100907.61
100971.64
101039.03
101110.11
101183.76
101221.86
101255.98
101284.86
101310.32
101342.38
101360.65
101380.06
101386.71
101408.59
101407.17
101424.43
101435.5
101415.08
100700.79
100707.91
100680.06
100654.7
100637.65
100630.15
100631.21
100640.9
100664.43
100703.2
100749.81
100797.86
100852.69
100916.76
100978.72
101046.26
101115.71
101188.41
101226.52
101259.94
101288.08
101312.87
101344.51
101362.56
101382.92
101389.01
101410.54
101408.92
101426.05
101436.26
101415.45
100838.57
100827.67
100786.75
100746.95
100716.81
100697.85
100686.53
100684.54
100698.42
100729.53
100771.56
100815.01
100865.87
100926.9
100986.52
101053.81
101121.28
101192.56
101230.87
101263.71
101291.22
101315.33
101346.56
101364.41
101386.08
101391.5
101412.47
101410.7
101427.82
101437.02
101416
100993.54
100961.37
100909.47
100855.3
100810.36
100777.01
100753.21
100739.63
100745.07
100764.37
100798.27
100836.1
100882.21
100939.42
100996.29
101062.23
101127.01
101196.12
101234.67
101267.25
101294.26
101317.72
101348.52
101366.22
101389.52
101394.19
101414.39
101412.53
101429.77
101437.75
101416.78
101142.07
101100.07
101049.06
100984.15
100922.43
100871.92
100834.06
100810.09
100804.57
100811.94
100830.78
100861.29
100901.71
100954.38
101008.21
101071.96
101133.45
101200.47
101238.31
101270.91
101297.41
101320.22
101350.53
101368.07
101393.17
101397.05
101416.42
101414.4
101431.91
101438.43
101417.89
100162.72
100176.42
100190.81
100201.12
100207.19
100214.51
100225.41
100239.74
100260.66
100290.84
100331.75
100384.17
100448.18
100522.53
100606.68
100695.6
100790.1
100884.87
100969.75
101051.44
101107.82
101169.34
101225.57
101264.14
101301.74
101323.18
101345.96
101360.7
101381.63
101397.75
101396.71
100154
100164.97
100180.06
100197.57
100207.38
100215.04
100225.14
100239.35
100260.19
100290.02
100330.34
100382.07
100445.4
100519.16
100602.82
100691.72
100785.91
100883.28
100965.41
101050.13
101105.98
101167.42
101223.8
101262.62
101300.48
101322.19
101345.03
101359.91
101380.98
101396.57
101396.09
100149.56
100158.33
100172.28
100190.85
100202.22
100211.37
100223.48
100239.15
100260.77
100290.73
100330.73
100381.81
100444.34
100517.34
100600.27
100688.9
100782.63
100880.91
100963.02
101048.55
101104.19
101165.71
101222.21
101261.21
101299.3
101321.24
101344.13
101359.13
101380.33
101395.36
101395.14
100150.12
100158.65
100171.53
100188.2
100199.87
100210.68
100224.48
100241.39
100263.7
100293.81
100333.45
100383.78
100445.38
100517.39
100599.35
100687.38
100780.31
100878.54
100960.65
101046.39
101102.05
101163.81
101220.53
101259.73
101298.06
101320.24
101343.2
101358.33
101379.65
101394.15
101393.87
100150.88
100159.5
100171.75
100187.34
100199.55
100211.54
100226.35
100244.17
100267.1
100297.38
100336.74
100386.42
100447.13
100518.18
100599.12
100686.45
100778.48
100876.31
100958.1
101044.04
101099.79
101161.81
101218.76
101258.18
101296.76
101319.2
101342.24
101357.5
101378.95
101392.98
101392.28
100150.8
100159.36
100171.08
100186.29
100199.34
100212.27
100227.85
100246.53
100270.12
100300.67
100339.88
100389.04
100448.97
100519.12
100599.08
100685.7
100776.85
100874.2
100955.5
101041.63
101097.59
101159.8
101216.98
101256.61
101295.45
101318.15
101341.28
101356.66
101378.23
101391.83
101390.41
100150.32
100158.7
100169.95
100184.82
100198.7
100212.53
100228.88
100248.48
100272.78
100303.68
100342.83
100391.56
100450.8
100520.12
100599.14
100685.04
100775.34
100872.17
100952.96
101039.15
101095.45
101157.81
101215.22
101255.05
101294.13
101317.09
101340.32
101355.83
101377.52
101390.72
101388.37
100149.65
100157.87
100168.71
100183.18
100197.78
100212.5
100229.64
100250.18
100275.21
100306.52
100345.68
100394.07
100452.67
100521.21
100599.31
100684.49
100773.95
100870.23
100950.51
101036.61
101093.35
101155.83
101213.46
101253.49
101292.81
101316.03
101339.36
101355
101376.8
101389.65
101386.53
100148.87
100156.96
100167.46
100181.48
100196.74
100212.36
100230.26
100251.72
100277.5
100309.25
100348.49
100396.59
100454.61
100522.4
100599.61
100684.06
100772.68
100868.35
100948.15
101034.08
101091.27
101153.87
101211.72
101251.93
101291.49
101314.96
101338.41
101354.17
101376.07
101388.61
101384.89
100148.06
100156.01
100166.19
100179.75
100195.66
100212.15
100230.8
100253.17
100279.69
100311.91
100351.26
100399.14
100456.64
100523.71
100600.04
100683.75
100771.54
100866.55
100945.9
101031.53
101089.2
101151.92
101209.97
101250.36
101290.15
101313.88
101337.45
101353.33
101375.34
101387.62
101383.44
100147.28
100155.05
100164.93
100178.12
100194.64
100211.95
100231.34
100254.56
100281.82
100314.52
100354.04
100401.74
100458.75
100525.14
100600.62
100683.57
100770.53
100864.82
100943.79
101028.97
101087.15
101149.99
101208.23
101248.8
101288.8
101312.79
101336.49
101352.5
101374.6
101386.65
101382.11
100146.6
100154.2
100163.81
100176.79
100193.77
100211.81
100231.91
100255.95
100283.92
100317.12
100356.83
100404.4
100460.96
100526.69
100601.33
100683.51
100769.65
100863.17
100941.77
101026.37
101085.13
101148.07
101206.5
101247.23
101287.45
101311.69
101335.53
101351.67
101373.86
101385.71
101380.89
100146.13
100153.58
100162.98
100175.88
100193.1
100211.75
100232.59
100257.38
100286.05
100319.74
100359.65
100407.12
100463.27
100528.36
100602.19
100683.59
100768.91
100861.71
100939.88
101023.72
101083.12
101146.16
101204.78
101245.66
101286.09
101310.58
101334.56
101350.84
101373.1
101384.79
101379.75
100145.92
100153.29
100162.55
100175.39
100192.67
100211.82
100233.4
100258.9
100288.23
100322.41
100362.54
100409.92
100465.69
100530.17
100603.19
100683.79
100768.3
100860.47
100938.28
101021.25
101081.11
101144.28
101203.06
101244.09
101284.72
101309.46
101333.6
101350.02
101372.35
101383.89
101378.66
100146.04
100153.36
100162.51
100175.26
100192.53
100212.13
100234.4
100260.56
100290.52
100325.16
100365.51
100412.82
100468.23
100532.11
100604.33
100684.13
100767.82
100859.26
100936.9
101019.21
101079.15
101142.42
101201.36
101242.52
101283.34
101308.33
101332.64
101349.19
101371.58