/*--------------------------------*- C++ -*----------------------------------*\
| =========                 |                                                 |
| \\      /  F ield         | OpenFOAM: The Open Source CFD Toolbox           |
|  \\    /   O peration     | Version:  2406                                  |
|   \\  /    A nd           | Website:  www.openfoam.com                      |
|    \\/     M anipulation  |                                                 |
\*---------------------------------------------------------------------------*/
FoamFile
{
    version     2.0;
    format      ascii;
    arch        "LSB;label=32;scalar=64";
    class       volScalarField;
    location    "0.066";
    object      Ma;
}
// * * * * * * * * * * * * * * * * * * * * * * * * * * * * * * * * * * * * * //

dimensions      [0 0 0 0 0 0 0];

internalField   nonuniform List<scalar> 
8260
(
0.14454319
0.14568813
0.14687579
0.14813622
0.14939999
0.15064585
0.15187916
0.15309624
0.1543951
0.15586194
0.15733884
0.15885377
0.16035085
0.16168467
0.16234481
0.16178862
0.15915044
0.15574536
0.1539152
0.15276687
0.15178328
0.15104101
0.15045425
0.14987708
0.14932774
0.14887335
0.14850625
0.14821548
0.14798501
0.14784098
0.14774138
0.14084442
0.14234544
0.14394767
0.14556886
0.14717803
0.14876122
0.15031617
0.15184998
0.15341649
0.15505583
0.15669549
0.15833146
0.15990444
0.16126033
0.16187567
0.16119606
0.15844787
0.15519237
0.15357062
0.15251776
0.15159005
0.15089202
0.15033525
0.14977796
0.1492457
0.14880692
0.14845262
0.14817095
0.14794713
0.14780763
0.14771076
0.13658327
0.13843059
0.14047093
0.14250957
0.14451347
0.14647528
0.14839055
0.15026276
0.1521239
0.1539939
0.1558302
0.15761631
0.15929022
0.16068634
0.16128078
0.16049785
0.15765779
0.15462696
0.153209
0.15224672
0.15137713
0.15072475
0.15020078
0.14966669
0.14915378
0.14873214
0.14839197
0.14812042
0.14790409
0.14776973
0.14767593
0.1325021
0.1346379
0.13700679
0.13939347
0.14174938
0.14406106
0.1463185
0.14851607
0.15066779
0.15278292
0.15482575
0.15677195
0.15855421
0.15998857
0.16055493
0.15964667
0.15673371
0.15399635
0.15279189
0.15193088
0.15112926
0.15053078
0.15004491
0.14953738
0.14904721
0.14864573
0.14832219
0.14806248
0.14785488
0.14772647
0.14763629
0.12872223
0.13106592
0.13366114
0.1363112
0.13895721
0.14157329
0.14413988
0.14664043
0.14907117
0.15142859
0.15367922
0.15578906
0.1576819
0.15914796
0.15966834
0.15860617
0.15566371
0.15331245
0.15232238
0.15157228
0.15084831
0.15031026
0.14986755
0.14939038
0.14892637
0.14854766
0.14824297
0.14799668
0.147799
0.14767728
0.14759122
0.12534415
0.12781433
0.13054195
0.13336393
0.1362204
0.13907492
0.14189771
0.14466099
0.14734436
0.14992913
0.1523789
0.15464782
0.15664673
0.15813131
0.15857664
0.15733713
0.15444462
0.15257013
0.15179168
0.15116345
0.15052845
0.15005847
0.1496648
0.14922224
0.14878839
0.14843565
0.14815264
0.14792168
0.14773543
0.14762128
0.14753996
0.12247359
0.12499997
0.12777241
0.13067017
0.13364309
0.1366507
0.13965578
0.14262069
0.14551061
0.14829128
0.1509173
0.1533283
0.15541733
0.15689474
0.15722187
0.15578814
0.15310749
0.15176427
0.151194
0.15069883
0.15016603
0.14977196
0.1494333
0.14903054
0.14863148
0.14830818
0.14804992
0.14783636
0.14766325
0.14755756
0.14748175
0.12026992
0.12274899
0.12546903
0.12834245
0.13133005
0.13439259
0.13748935
0.14057588
0.14360598
0.14653087
0.14929182
0.1518104
0.15395538
0.15538105
0.15553184
0.15390403
0.15169161
0.15088738
0.15052183
0.15017179
0.14975601
0.14944652
0.14916855
0.14881123
0.14845265
0.14816298
0.14793297
0.14773918
0.14758118
0.14748498
0.1474157
0.11876394
0.1211132
0.12369747
0.126456
0.12936148
0.13237889
0.13546824
0.13858262
0.14166868
0.14466553
0.14749903
0.15006819
0.15220757
0.15351471
0.15341662
0.15168769
0.15026032
0.14992938
0.14976891
0.14957638
0.14929271
0.14907815
0.14886674
0.14856019
0.1482491
0.14799801
0.14779998
0.14762862
0.14748782
0.14740226
0.14734081
0.11792898
0.12009151
0.12247978
0.12505023
0.12778549
0.13066056
0.1336408
0.13668133
0.13972577
0.14270399
0.14552575
0.14806182
0.1500969
0.15117659
0.1507434
0.14932178
0.14884047
0.14888033
0.14893227
0.14890688
0.14876826
0.14866224
0.14852495
0.14827373
0.14801744
0.1478107
0.14764868
0.14750285
0.14738146
0.14730782
0.14725577
0.11766497
0.11960321
0.12175286
0.12407937
0.1265759
0.12922585
0.1320042
0.13487158
0.13777125
0.14062548
0.14332691
0.14570972
0.14748594
0.14814671
0.14755236
0.14712903
0.14739743
0.14774195
0.14801382
0.14815978
0.14817475
0.14819443
0.14814044
0.14795033
0.14775391
0.14759833
0.14747664
0.14735982
0.14726029
0.14719993
0.14715885
0.11794092
0.11957712
0.12141932
0.12343932
0.12563103
0.12798471
0.13048112
0.13308348
0.13573185
0.13833752
0.14076849
0.14280228
0.14410551
0.1443924
0.14450242
0.14516305
0.1459212
0.14652023
0.14700141
0.14733092
0.14751816
0.14767015
0.14770765
0.14758715
0.14745448
0.14735771
0.14728099
0.14719691
0.14712239
0.1470768
0.14704782
0.11827392
0.11960532
0.12113162
0.12282328
0.12467412
0.12668246
0.12883228
0.13108195
0.13336011
0.1355653
0.13756586
0.13914204
0.14005391
0.14079607
0.14206644
0.14337144
0.14438106
0.14522902
0.14591075
0.14642779
0.14679674
0.14708104
0.14721974
0.14717832
0.14711758
0.14708516
0.14705862
0.14701128
0.14696586
0.14693681
0.14692011
0.11825371
0.11932442
0.12054921
0.12192865
0.12346389
0.12513171
0.12690112
0.1287352
0.13056912
0.13231517
0.13387866
0.13526203
0.13667989
0.13839114
0.1401069
0.14158455
0.14284026
0.14389231
0.14476485
0.14546536
0.14601423
0.14642706
0.14666627
0.14671723
0.14674325
0.14677642
0.14680609
0.14680078
0.14678868
0.14677865
0.14677315
0.11793165
0.11862342
0.1194974
0.1205625
0.1218348
0.12322515
0.12466137
0.1261732
0.12775641
0.12938117
0.13103985
0.13282992
0.13475781
0.13660087
0.13833502
0.13994765
0.14132298
0.14255502
0.14360243
0.14446747
0.14518214
0.14570947
0.146041
0.14620085
0.14632709
0.14642993
0.14652116
0.14656448
0.14658898
0.14660128
0.14660477
0.11905224
0.11957182
0.12013813
0.12075779
0.12149333
0.12242345
0.12354018
0.12483008
0.12624605
0.12777249
0.12946167
0.13134815
0.13321845
0.13504425
0.13684336
0.13849295
0.13992978
0.14125659
0.14245754
0.14346166
0.14431755
0.14494591
0.14535986
0.14562776
0.14586429
0.14604894
0.14620444
0.14630148
0.14636547
0.14640366
0.14641355
0.12043147
0.12095978
0.12155792
0.1222205
0.12290896
0.12364191
0.12443125
0.12518574
0.12605487
0.12722512
0.12870851
0.1302251
0.13187408
0.13364049
0.1355204
0.13722547
0.1386983
0.14005524
0.14134844
0.14247755
0.14343922
0.14414594
0.14464787
0.14501081
0.14535914
0.14563871
0.14585934
0.14601077
0.14611749
0.1461842
0.14619879
0.12183967
0.12217315
0.1225622
0.12301873
0.12355957
0.12420928
0.12500997
0.12598911
0.12696287
0.12786589
0.12866496
0.12979265
0.13121192
0.13271309
0.13420615
0.13590377
0.13759526
0.13898495
0.14027948
0.14150858
0.14255599
0.14332203
0.143923
0.144382
0.14482289
0.14519893
0.14548686
0.14569397
0.14584387
0.14594041
0.1459602
0.12364328
0.12395328
0.12430821
0.12470794
0.12515261
0.12563841
0.12615429
0.12670007
0.12733939
0.12816955
0.12920345
0.13012158
0.13109023
0.13232063
0.13353475
0.13487954
0.13644259
0.13799183
0.13925468
0.14051826
0.14165267
0.14248066
0.14317605
0.14375903
0.1442696
0.14472611
0.14508705
0.1453497
0.14554336
0.14566946
0.14569763
0.12514222
0.12534662
0.12558276
0.12585638
0.12617747
0.12655895
0.12701864
0.12757022
0.12819951
0.12886303
0.12955379
0.1304464
0.13140539
0.13229541
0.13332604
0.13445951
0.13570241
0.13702182
0.1383007
0.13950892
0.14070743
0.14162893
0.14239417
0.14311799
0.14370796
0.14422542
0.14465562
0.14497385
0.14521341
0.14536887
0.14541108
0.12683851
0.12702478
0.12723818
0.12748039
0.12775408
0.12806103
0.12840063
0.128773
0.12919204
0.12969192
0.13029088
0.13090702
0.13154466
0.13242765
0.13337195
0.1343246
0.13533289
0.13641532
0.13756949
0.13865093
0.13974957
0.1407964
0.14160528
0.14243855
0.1431407
0.14370574
0.14419178
0.14456499
0.14485161
0.14503715
0.14510015
0.12822369
0.12834382
0.12848235
0.12864244
0.1288294
0.12904999
0.129312
0.12962365
0.12998921
0.13040292
0.1308636
0.13141759
0.13206012
0.13262828
0.13335911
0.13421869
0.13510771
0.13609859
0.13716756
0.1381679
0.13905602
0.14006349
0.1409104
0.14176233
0.14256814
0.14318112
0.14370903
0.14412682
0.14445833
0.14467424
0.14476323
0.12980517
0.1299172
0.13004568
0.13019207
0.13035815
0.13054519
0.13075399
0.13098543
0.13124227
0.13153263
0.1318641
0.13222127
0.13261982
0.13314213
0.13363292
0.13421294
0.1349684
0.13578239
0.13669927
0.13776434
0.13866851
0.13955063
0.14039829
0.1411932
0.14200848
0.14266568
0.14321957
0.14366913
0.14403369
0.14428144
0.14439863
0.13103593
0.13110262
0.13117979
0.13126928
0.13137392
0.13149727
0.13164372
0.13181813
0.1320251
0.13226762
0.13254855
0.13287984
0.13325894
0.13365896
0.13413982
0.13462011
0.13511186
0.13567906
0.13641997
0.13721514
0.13819401
0.13914691
0.13997183
0.14076327
0.14149134
0.14214741
0.14271902
0.1431954
0.14358179
0.14386083
0.14400453
0.13243585
0.13250096
0.13257584
0.13266139
0.1327586
0.13286812
0.13299024
0.13312509
0.13327306
0.13343558
0.13361518
0.13381309
0.13403963
0.13431951
0.13463758
0.13505026
0.13556604
0.13602779
0.13643134
0.13702097
0.13770613
0.1385141
0.13939733
0.14031147
0.1409948
0.14161172
0.1421946
0.14270459
0.14310926
0.14341462
0.1435813
0.13349864
0.13353046
0.1335673
0.13360983
0.13365946
0.13371832
0.13378959
0.13387751
0.13398716
0.13412424
0.13429478
0.13450509
0.13475657
0.1350446
0.13536861
0.1356814
0.13596584
0.13638588
0.1368021
0.13709143
0.13756943
0.13818359
0.13894494
0.13974658
0.14044736
0.14107697
0.14165584
0.14219557
0.14262203
0.1429476
0.14313423
0.13465048
0.13467615
0.13470499
0.134738
0.13477645
0.13482178
0.13487544
0.13493898
0.13501424
0.13510353
0.13520947
0.13533442
0.13548057
0.13564639
0.13583733
0.13606579
0.13633845
0.13659893
0.13694585
0.13738155
0.13771002
0.1381337
0.13876534
0.13936167
0.13992481
0.14058599
0.14115089
0.14168605
0.1421347
0.14246948
0.14267016
0.1352925
0.1353079
0.13532657
0.13534922
0.13537686
0.13541045
0.13545036
0.13549732
0.13555245
0.13561737
0.13569489
0.1357862
0.13589323
0.13602008
0.13617602
0.1363559
0.13656301
0.13684133
0.13710987
0.13749322
0.13789932
0.13827877
0.13870469
0.13913652
0.13963392
0.14018173
0.14072184
0.14121778
0.14166175
0.14199596
0.1422012
0.13602264
0.13604202
0.1360635
0.13608717
0.136113
0.13614126
0.13617313
0.13620985
0.13625245
0.13630123
0.13635509
0.13641415
0.13647812
0.13655074
0.13665248
0.13678528
0.13695211
0.13714625
0.13740226
0.13764668
0.13795886
0.1383002
0.13864008
0.13899317
0.13944426
0.13988154
0.14035837
0.14080962
0.14121879
0.14154636
0.14174806
0.13647084
0.13648072
0.13649257
0.13650694
0.13652446
0.1365458
0.13657166
0.13660272
0.13663987
0.13668446
0.13673856
0.13680526
0.13688795
0.13698404
0.1370827
0.13719336
0.13732137
0.13747021
0.1376427
0.13784295
0.13807513
0.13832487
0.13859592
0.13891801
0.1392875
0.13968069
0.14009653
0.14050659
0.14088341
0.14119155
0.14138256
0.13683375
0.13684239
0.13685295
0.13686566
0.13688084
0.13689886
0.13692015
0.13694525
0.13697475
0.13700939
0.13704993
0.1370977
0.13715613
0.13722789
0.13730667
0.13739651
0.13750082
0.13762287
0.13776652
0.13793547
0.13813374
0.13836347
0.13861153
0.13888963
0.13921997
0.13958382
0.13996997
0.14035673
0.14071713
0.14101518
0.14120015
0.078195997
0.095016881
0.10619918
0.11452256
0.12155308
0.12784571
0.13358923
0.13845471
0.14319421
0.14759547
0.15161902
0.1552701
0.15856678
0.16149386
0.16401962
0.16595143
0.16688364
0.16640685
0.16363373
0.15965202
0.15700507
0.15523464
0.15388627
0.15279638
0.15181729
0.15098242
0.150273
0.14973333
0.14931249
0.14904032
0.14886077
0.10069274
0.10925088
0.11577005
0.12146438
0.12692864
0.13224739
0.13717294
0.14169289
0.14596608
0.14989752
0.15349311
0.15677396
0.15975382
0.16240589
0.16468556
0.1663418
0.1669699
0.1661674
0.16305253
0.159146
0.15670274
0.15502488
0.15372719
0.15266743
0.15170886
0.15089169
0.15019815
0.14967077
0.14925861
0.14899217
0.14882335
0.10738577
0.11357747
0.1194589
0.12512201
0.13052606
0.13555505
0.14013205
0.14430313
0.14817118
0.15172169
0.15498019
0.15796938
0.16069604
0.16312448
0.16519943
0.16660999
0.16698427
0.16587962
0.16249034
0.15873334
0.15645264
0.15483658
0.15357753
0.15254365
0.15160432
0.15080376
0.15012507
0.14960902
0.14920506
0.14894408
0.14877925
0.11349301
0.11934503
0.12484161
0.1299486
0.13469978
0.13909064
0.14311213
0.1468091
0.1502423
0.15341227
0.15634398
0.15905541
0.16154313
0.16376079
0.16563595
0.16679653
0.16694231
0.16552851
0.1619306
0.15833035
0.15619333
0.15463984
0.15342222
0.15241555
0.15149628
0.15071318
0.15005021
0.14954609
0.14915076
0.14889553
0.14873463
0.12000973
0.12521873
0.13000197
0.13443639
0.13856742
0.14238504
0.14589373
0.14913534
0.15215345
0.1549624
0.15758669
0.16003833
0.16230241
0.16432115
0.16599688
0.16692434
0.16686429
0.16513558
0.16136223
0.15795219
0.15594585
0.15444852
0.15326935
0.15228845
0.15138884
0.15062292
0.14997545
0.14948295
0.14909616
0.14884667
0.14868908
0.12697209
0.13121511
0.13516853
0.13886985
0.14232748
0.14553583
0.1485128
0.15129104
0.15390398
0.15636928
0.1587055
0.16091553
0.16297164
0.16480418
0.16628466
0.16699901
0.16675032
0.16469154
0.16079831
0.1575952
0.15570206
0.15425753
0.1531159
0.1521603
0.15128034
0.15053172
0.14989994
0.14941915
0.14904104
0.1487974
0.14864305
0.13385232
0.1371425
0.14023537
0.14315368
0.14590404
0.14849388
0.15093927
0.15326321
0.15548918
0.15763142
0.15969974
0.16168649
0.16355072
0.1652117
0.16650694
0.16703741
0.16658084
0.16419674
0.16024803
0.15725899
0.15546387
0.15406901
0.15296346
0.15203231
0.15117182
0.15044041
0.14982424
0.14935502
0.14898557
0.1487478
0.14859682
0.14076878
0.14299185
0.14513483
0.14722396
0.14925915
0.15123591
0.15316157
0.15504853
0.15690925
0.15875033
0.16057123
0.16235297
0.16404185
0.16554696
0.16666867
0.16703289
0.16635752
0.16365822
0.15972038
0.15694042
0.15522946
0.15388204
0.15281148
0.15190409
0.15106298
0.15034874
0.1497482
0.14929047
0.14892973
0.14869786
0.14855021
0.1473292
0.14848736
0.14970443
0.15099593
0.15234574
0.15373486
0.15516664
0.15664235
0.15816333
0.15972684
0.16132137
0.16291652
0.16444632
0.1658046
0.1667539
0.16697825
0.16607988
0.1630934
0.15922087
0.15663696
0.15499886
0.15369695
0.15266034
0.15177602
0.15095416
0.15025702
0.14967203
0.14922565
0.14887361
0.14864764
0.14850342
0.15329245
0.15348068
0.15386924
0.15442245
0.15512828
0.15596953
0.15694382
0.15804026
0.15925015
0.16056131
0.16195122
0.16337841
0.16476511
0.16597957
0.16677846
0.16688536
0.16575368
0.16251972
0.1587503
0.15634591
0.15477154
0.15351362
0.15251005
0.1516481
0.15084539
0.15016526
0.14959575
0.1491606
0.14881722
0.14859715
0.14845635
0.15859832
0.15793679
0.15756936
0.15744943
0.15756823
0.15792059
0.15848299
0.15923795
0.16016847
0.16125419
0.1624617
0.16373916
0.16499647
0.16606939
0.16674653
0.16675274
0.16538457
0.16194591
0.15830778
0.15606523
0.15454743
0.1533321
0.15236075
0.15152055
0.15073686
0.15007362
0.14951947
0.1490954
0.14876064
0.14854645
0.14840909
0.16312632
0.16175293
0.1607313
0.16003115
0.1596488
0.15957415
0.15977214
0.16023065
0.16091676
0.16180556
0.16285295
0.1639978
0.1651347
0.16608899
0.16668288
0.16657985
0.16498193
0.1613795
0.15789159
0.15579305
0.15432641
0.15315242
0.15221254
0.15139347
0.15062871
0.14998222
0.14944326
0.14903012
0.14870392
0.14849555
0.14836159
0.16674487
0.16482852
0.16330115
0.1621448
0.16135333
0.16091319
0.16080809
0.16101027
0.16149022
0.16221231
0.16312206
0.16414944
0.16518872
0.16606564
0.1665824
0.16636592
0.16455182
0.16082721
0.15749916
0.15552807
0.1541085
0.15297465
0.15206556
0.15126702
0.15052113
0.14989117
0.14936722
0.14896484
0.14864709
0.14844451
0.14831392
0.16940254
0.16712392
0.16524949
0.16376201
0.16265895
0.16193439
0.16157823
0.16156637
0.16187155
0.16245467
0.1632546
0.16419986
0.16518656
0.16599795
0.16643083
0.16610212
0.16409853
0.16029158
0.15712804
0.15526935
0.15389376
0.15279888
0.15191996
0.15114141
0.15041424
0.14980059
0.14929144
0.14889963
0.14859022
0.14839334
0.14826606
0.17117574
0.16863567
0.16653096
0.16482517
0.16350939
0.16257937
0.16203231
0.16186052
0.162042
0.16253541
0.16328208
0.16418609
0.16512245
0.16587435
0.16623469
0.16579785
0.16362507
0.15977527
0.15677619
0.15501636
0.15368233
0.15262526
0.15177588
0.15101691
0.15030812
0.1497106
0.14921601
0.14883456
0.14853335
0.14834208
0.14821804
0.17224283
0.16953589
0.16725752
0.16539258
0.16393375
0.16287236
0.16220253
0.16195132
0.16208201
0.16252488
0.16322731
0.16409297
0.16498384
0.16569442
0.16599691
0.16546208
0.16314129
0.15928032
0.15644166
0.1547688
0.15347434
0.15245389
0.15163348
0.15089371
0.15020292
0.14962129
0.14914099
0.14876969
0.14847655
0.14829076
0.14816985
0.17271201
0.16998186
0.16761762
0.16565433
0.16410488
0.16296722
0.16223669
0.16193548
0.16201512
0.16240712
0.16306015
0.16389671
0.16476878
0.16545881
0.16571887
0.16509624
0.1626557
0.15880741
0.15612166
0.1545264
0.15326991
0.15228489
0.15149285
0.15077194
0.15009877
0.14953276
0.14906647
0.14870511
0.14841985
0.14823943
0.14812153
0.17193968
0.16952561
0.16734649
0.16546937
0.16394486
0.1628054
0.16207096
0.1617376
0.16176772
0.16213131
0.16276793
0.16359919
0.16447641
0.16516853
0.16540368
0.16470934
0.16217408
0.15835628
0.15581433
0.15428903
0.15306908
0.15211828
0.15135405
0.15065174
0.14999579
0.14944512
0.14899253
0.14864089
0.14836333
0.14818812
0.14807309
0.17006246
0.16801213
0.16616197
0.16454994
0.16321546
0.16220104
0.16154848
0.16125985
0.16131353
0.16169617
0.16234996
0.16320116
0.16410626
0.16482443
0.16505427
0.16430708
0.16170163
0.15792687
0.15551793
0.15405648
0.15287193
0.15195422
0.15121726
0.15053334
0.14989418
0.14935852
0.14891932
0.14857715
0.14830707
0.14813689
0.14802456
0.16749175
0.16581089
0.1643141
0.16302593
0.16196592
0.16116922
0.16068622
0.16051319
0.16065246
0.16110207
0.16180678
0.16270311
0.16365815
0.16442704
0.16467345
0.16389473
0.161242
0.15751833
0.15523103
0.15382909
0.15267905
0.15179326
0.15108298
0.1504172
0.14979428
0.14927321
0.14884699
0.148514
0.14825114
0.14808576
0.14797595
0.16416754
0.16295628
0.16189203
0.16099358
0.16027242
0.15976674
0.15951325
0.15950904
0.15979079
0.16035079
0.1611398
0.16210647
0.16313249
0.16397687
0.16426375
0.16347922
0.16079857
0.15713128
0.15495433
0.15360845
0.15249199
0.1516366
0.15095208
0.150304
0.14969658
0.14918947
0.14877571
0.14845153
0.14819558
0.14803472
0.14792725
0.16007773
0.1594317
0.15890193
0.15847852
0.15817319
0.15801943
0.1580344
0.15825814
0.15873142
0.15944183
0.16034797
0.16141072
0.16252824
0.16347289
0.16382722
0.16306614
0.16037655
0.15677143
0.15469139
0.15339708
0.15231258
0.15148539
0.15082524
0.15019417
0.14960127
0.14910736
0.14870544
0.14838965
0.14814029
0.1479837
0.1478784
0.1551559
0.15512794
0.15523946
0.1554061
0.1556101
0.15587303
0.1562311
0.15673943
0.15745465
0.15835984
0.15941905
0.16060679
0.16183791
0.16290888
0.163362
0.16266123
0.15998597
0.15644767
0.15444454
0.15319475
0.15214
0.15133863
0.15070139
0.15008674
0.14950754
0.14902623
0.14863571
0.14832807
0.14808505
0.14793261
0.14782936
0.14954033
0.149864
0.15054075
0.15135805
0.15219734
0.15302622
0.15387268
0.15476379
0.15581735
0.1570025
0.15827582
0.15963475
0.16101366
0.16224749
0.1628462
0.16226221
0.15963926
0.15615381
0.15420368
0.1529919
0.15196644
0.15119047
0.15057628
0.14997881
0.14941348
0.14894497
0.14856592
0.14826656
0.14802984
0.14788158
0.1477802
0.071842532
0.090497983
0.10261378
0.11163235
0.1190527
0.12557558
0.13151681
0.13676325
0.14170426
0.14630822
0.15053742
0.15438262
0.1578554
0.16094163
0.16361045
0.16570406
0.1668127
0.16651824
0.16393766
0.15996683
0.1572166
0.15539717
0.15401669
0.1529034
0.15190669
0.1510571
0.15033482
0.14978511
0.14935691
0.14907964
0.1488949
0.070769697
0.090217499
0.10249428
0.11147514
0.1188207
0.12524754
0.13108033
0.13633081
0.14124089
0.14584151
0.15010056
0.15399658
0.15752881
0.16067723
0.16340091
0.16556086
0.16672636
0.1665305
0.16406634
0.1601187
0.15732327
0.15548703
0.154094
0.1529703
0.15196534
0.15110823
0.15037866
0.14982294
0.14939024
0.14910962
0.14892252
0.070379214
0.090246159
0.10259917
0.11145407
0.11863157
0.1249082
0.13061457
0.13580744
0.14068161
0.14528169
0.14957464
0.15352824
0.15712918
0.16035067
0.16314279
0.16538278
0.16662754
0.16652748
0.16421056
0.16028418
0.15743104
0.15557449
0.1541692
0.15303607
0.15202399
0.15116018
0.1504239
0.14986244
0.14942543
0.14914145
0.14895932
0.069918019
0.090090145
0.10253446
0.11135661
0.11840515
0.12455501
0.13014716
0.13527761
0.14011561
0.14470855
0.14902719
0.1530324
0.15669935
0.15999416
0.16285882
0.16518222
0.16651445
0.16651739
0.16435735
0.16046568
0.15755154
0.15567094
0.15425158
0.15310777
0.15208774
0.15121657
0.15047298
0.14990524
0.14946345
0.1491757
0.14899425
0.069295452
0.089661809
0.1023237
0.11115661
0.11816159
0.124219
0.12970959
0.13477634
0.13957073
0.14414397
0.14847486
0.15252095
0.15624733
0.15961254
0.16255101
0.16495785
0.16638322
0.16649502
0.16449593
0.16065726
0.15768275
0.15577624
0.15434152
0.15318593
0.1521571
0.15127775
0.15052615
0.14995148
0.14950439
0.14921247
0.14903249
0.068730673
0.08910127
0.10207351
0.11097655
0.11795092
0.12392445
0.12931677
0.13431177
0.13905156
0.1435921
0.14792141
0.15199667
0.15577463
0.15920603
0.16221799
0.16470581
0.1662318
0.16645847
0.16462535
0.16085193
0.1578203
0.15588702
0.15443666
0.1532689
0.15223088
0.15134293
0.1505829
0.15000086
0.14954812
0.14925177
0.14906061
0.068291311
0.088545266
0.10178863
0.11081708
0.11777375
0.12366687
0.12896154
0.13387638
0.13855183
0.14304896
0.14736472
0.15145821
0.15527985
0.15877276
0.16185686
0.16442093
0.1660617
0.16640736
0.16474638
0.16105092
0.15796211
0.15600123
0.15453527
0.1533554
0.15230823
0.1514116
0.15064296
0.15005327
0.1495946
0.1492936
0.14910029
0.068172325
0.08805302
0.10150536
0.11065993
0.11761092
0.12343086
0.12863063
0.13346005
0.13806401
0.14250944
0.14680182
0.15090376
0.15476144
0.15831093
0.16146494
0.16410005
0.16586051
0.16633969
0.16484715
0.16125687
0.15810799
0.15611837
0.15463683
0.15344499
0.15238891
0.15148355
0.15070624
0.1501087
0.14964391
0.14933811
0.1491403
0.068255098
0.087602452
0.10119504
0.11047657
0.11743851
0.12319765
0.12830858
0.13305094
0.13757936
0.14196744
0.14622882
0.15033093
0.15421756
0.15781866
0.16103991
0.16374451
0.16561933
0.16625126
0.16492813
0.16146268
0.15825799
0.1562383
0.15474129
0.15353777
0.15247299
0.15155898
0.15077296
0.15016736
0.14969625
0.14938543
0.14919247
0.068530559
0.08721856
0.10089524
0.11027706
0.11724698
0.12295085
0.12797809
0.13263436
0.13708609
0.1414143
0.1456401
0.14973627
0.153646
0.15729417
0.16058019
0.16335656
0.1653458
0.1661386
0.16499541
0.16166761
0.15841198
0.15636085
0.15484852
0.15363365
0.15256058
0.15163802
0.15084329
0.15022944
0.14975179
0.14943572
0.1492417
0.069215327
0.087076812
0.10061857
0.11003993
0.11701121
0.12266491
0.12761534
0.13219039
0.13656845
0.1408382
0.14502741
0.14911443
0.15304322
0.15673493
0.16008374
0.1629348
0.16503382
0.1659788
0.16503911
0.16187058
0.15856947
0.15648543
0.15495812
0.1537325
0.15265161
0.15172068
0.15091731
0.15029506
0.14981068
0.14948914
0.14929082
0.070337993
0.087113867
0.10029257
0.10970753
0.11668413
0.1223007
0.1271878
0.13169281
0.13600605
0.14022393
0.14438006
0.14845839
0.15240478
0.15613812
0.15954861
0.16247721
0.16468592
0.16579047
0.16504905
0.16206156
0.15872957
0.15661124
0.1550695
0.15383383
0.15274591
0.15180695
0.15099509
0.15036434
0.14987303
0.14954585
0.1493426
0.071674705
0.087275418
0.099991659
0.10929445
0.11624074
0.12182133
0.12665909
0.1311104
0.13537391
0.1395525
0.1436846
0.14775923
0.15172504
0.15550018
0.15897243
0.16198132
0.16430154
0.16556819
0.16503022
0.16223156
0.15889119
0.15673711
0.1551818
0.15393735
0.15284319
0.15189665
0.1510766
0.15043734
0.14993897
0.14960599
0.14939804
0.073225225
0.087640631
0.09972784
0.10879274
0.11564912
0.12118445
0.12598715
0.1304068
0.13464315
0.13880191
0.14292526
0.14700643
0.15099733
0.15481702
0.15835268
0.1614448
0.16387813
0.16530059
0.16497669
0.16238695
0.15905393
0.1568621
0.15529417
0.15404208
0.15294313
0.15198967
0.15116185
0.15051412
0.1500086
0.14966973
0.14945746
0.074894584
0.088037359
0.099311756
0.10804039
0.11479357
0.12030778
0.12511177
0.12953743
0.1337809
0.13794858
0.14208544
0.14618868
0.15021446
0.15408425
0.15768673
0.16086548
0.1634135
0.16498467
0.16487739
0.16252324
0.15921601
0.15698442
0.15540542
0.15414787
0.15304522
0.15208572
0.15125068
0.15059472
0.15008202
0.14973717
0.14952093
0.076338973
0.088110148
0.09850272
0.10687807
0.11356392
0.11911332
0.12397629
0.1284606
0.13275647
0.13696998
0.14114916
0.14529522
0.14936951
0.15329778
0.15697208
0.16024137
0.16290619
0.16462122
0.1647264
0.16263075
0.1593774
0.15710351
0.15551448
0.15425315
0.15314903
0.15218446
0.1513431
0.15067914
0.15015931
0.14980846
0.14958835
0.077278613
0.08787497
0.097381011
0.1053689
0.11198095
0.11759204
0.12256071
0.1271549
0.13155082
0.13585078
0.14010445
0.1443176
0.14845705
0.15245431
0.15620662
0.15957026
0.16235273
0.16420572
0.16452808
0.16270158
0.15953187
0.15721609
0.1556199
0.15435771
0.15325377
0.15228574
0.15143877
0.15076731
0.15024051
0.14988365
0.14965963
0.077321464
0.086988184
0.095790228
0.10346425
0.11003738
0.11574831
0.12086823
0.12561998
0.13016104
0.13458705
0.13894758
0.14325262
0.14747486
0.15155229
0.15538889
0.15884892
0.16174414
0.16374108
0.16430284
0.16274533
0.15968574
0.157322
0.15572024
0.15446042
0.15335882
0.15238837
0.15153759
0.15085922
0.15032567
0.14996289
0.14973491
0.076737132
0.08547944
0.093733535
0.1011813
0.1077666
0.11362015
0.11893294
0.1238821
0.12860545
0.13319076
0.13768614
0.14210501
0.14642568
0.15059329
0.15451917
0.15807521
0.16107587
0.16320817
0.16399777
0.1627462
0.15982168
0.157417
0.15581442
0.15455817
0.15346305
0.15249326
0.15163918
0.15095461
0.15041468
0.15004614
0.14981415
0.075299533
0.083404117
0.091266619
0.098587435
0.10524654
0.111283
0.11681945
0.12199388
0.12692473
0.13169173
0.13634097
0.14088897
0.14531909
0.14958351
0.15360135
0.15725215
0.16035753
0.16263819
0.16366652
0.1627151
0.15992541
0.15750011
0.15589935
0.15465563
0.15356588
0.15259688
0.15174298
0.15105343
0.1505077
0.15013355
0.14989754
0.073319422
0.080923902
0.08851376
0.095790806
0.10257674
0.10883095
0.11461417
0.1200296
0.12517928
0.13013677
0.13494691
0.13962913
0.14417212
0.14853458
0.15264343
0.1563867
0.15959678
0.16202055
0.16326894
0.16261977
0.16002627
0.15757062
0.155978
0.1547391
0.15366468
0.15270295
0.15184895
0.15115519
0.15060414
0.15022494
0.14998511
0.071007955
0.078230814
0.085625492
0.09290876
0.099855807
0.10635323
0.11240162
0.11806807
0.12343845
0.12858332
0.13354914
0.13835964
0.14300938
0.14746381
0.15165747
0.15548757
0.15879872
0.16135946
0.1628125
0.16244255
0.16010973
0.15762267
0.15603838
0.15482622
0.15376157
0.15280428
0.15195559
0.15125973
0.15070462
0.15032044
0.15007703
0.068683266
0.075565256
0.082780298
0.090066765
0.09717704
0.10393148
0.11025949
0.1161831
0.12177067
0.12709156
0.13219768
0.13711991
0.14186054
0.14639277
0.15065897
0.15456551
0.1579697
0.16066022
0.16231213
0.16222856
0.16012553
0.15766722
0.15609813
0.15489378
0.15384889
0.15290672
0.15206331
0.15136642
0.15080756
0.15041975
0.15017308
0.06675812
0.073297449
0.080288175
0.087510524
0.094716275
0.10168297
0.10827103
0.11444291
0.12023669
0.12571608
0.13093997
0.13594923
0.14075653
0.14534472
0.14966489
0.15363251
0.15711728
0.15992684
0.16176541
0.16198565
0.16010884
0.15766892
0.15613044
0.15495071
0.15393156
0.15300457
0.15217036
0.15147457
0.15091463
0.15052279
0.1502732
0.065569154
0.0717637
0.078469015
0.085521318
0.092703171
0.099775369
0.10654652
0.11291933
0.11888818
0.12449909
0.12981277
0.13487958
0.13972428
0.14434117
0.14869154
0.15270033
0.15624871
0.15915938
0.16115508
0.16169538
0.16007158
0.15766935
0.15614227
0.15500769
0.15401136
0.15309455
0.15227547
0.15158391
0.15102263
0.1506293
0.15037734
0.065282309
0.071144435
0.077530685
0.084328438
0.09135363
0.098385305
0.10521326
0.11169493
0.11777631
0.12347405
0.12884046
0.13393076
0.13878094
0.143397
0.14775112
0.15177839
0.15537006
0.15835985
0.16048467
0.16126535
0.16000838
0.15767912
0.15613527
0.15501962
0.15405847
0.15318859
0.15238009
0.15169265
0.15113457
0.15073866
0.15048481
0.065980904
0.071465345
0.077517065
0.083997018
0.090751206
0.097600089
0.10434752
0.11082355
0.11693103
0.12265338
0.12802662
0.133104
0.13792838
0.14251572
0.14684866
0.15087195
0.15448673
0.15753791
0.15978383
0.1607998
0.15988513
0.15767019
0.15611427
0.15502227
0.15413175
0.15326114
0.15247793
0.15180124
0.15124584
0.15085101
0.15059605
0.067929814
0.072870782
0.078376964
0.084415056
0.090831232
0.097409275
0.10394468
0.11028877
0.11632431
0.12200356
0.1273389
0.13237272
0.1371478
0.14168599
0.14597895
0.14998073
0.15360194
0.15669957
0.15905142
0.16027998
0.15971143
0.15763323
0.15606839
0.15502831
0.15417773
0.15333535
0.15257303
0.15190724
0.15135941
0.15096464
0.15070935
0.07084562
0.075313043
0.080285493
0.085725702
0.091567646
0.097696738
0.10392511
0.11001962
0.11589052
0.12146236
0.12672022
0.13168802
0.13640072
0.14088122
0.14512589
0.14909668
0.15271359
0.15584563
0.15828895
0.15970272
0.15940643
0.15755969
0.15604385
0.15502227
0.154179
0.15340083
0.15266491
0.15200945
0.1514719
0.15108057
0.15082595
0.074114375
0.078112539
0.082577862
0.087493723
0.09280065
0.098397219
0.1041461
0.10991752
0.11555015
0.12095836
0.12610541
0.13099302
0.13564099
0.14006633
0.1442652
0.14820494
0.15181468
0.15497471
0.15750002
0.15908678
0.15912249
0.15747976
0.15598356
0.15498867
0.15418901
0.15343714
0.15273568
0.15211052
0.15158227
0.15119577
0.15094281
0.077312617
0.080864018
0.084838632
0.089234141
0.094013901
0.09910814
0.10441446
0.10980847
0.11516664
0.12038734
0.12541361
0.13022385
0.13481868
0.13920331
0.14337065
0.14728955
0.1508962
0.15408254
0.15668138
0.15842342
0.15878522
0.15734856
0.15588068
0.15495526
0.15418617
0.15347197
0.15281396
0.15219806