/*--------------------------------*- C++ -*----------------------------------*\
| =========                 |                                                 |
| \\      /  F ield         | OpenFOAM: The Open Source CFD Toolbox           |
|  \\    /   O peration     | Version:  2406                                  |
|   \\  /    A nd           | Website:  www.openfoam.com                      |
|    \\/     M anipulation  |                                                 |
\*---------------------------------------------------------------------------*/
FoamFile
{
    version     2.0;
    format      ascii;
    arch        "LSB;label=32;scalar=64";
    class       volScalarField;
    location    "0.061";
    object      omega;
}
// * * * * * * * * * * * * * * * * * * * * * * * * * * * * * * * * * * * * * //

dimensions      [0 0 -1 0 0 0 0];

internalField   nonuniform List<scalar> 
8260
(
19422.581
16557.126
13861.187
11453.093
9369.1642
7594.3946
6100.3133
4855.9619
3830.9292
2995.5247
2322.2525
1785.9944
1363.8462
1035.1912
779.84502
577.11828
397.62748
263.97434
199.02405
166.08876
145.09635
131.27282
121.27935
113.47922
108.7213
105.41506
103.29507
101.59566
100.41553
99.596325
99.165936
16035.912
13813.096
11770.224
9915.4004
8258.5195
6801.7485
5540.1719
4463.6042
3558.4252
2808.0858
2194.4201
1699.5288
1305.8057
996.51618
753.73171
557.85969
381.38293
253.55775
194.66165
163.71549
143.63298
130.43456
120.78347
113.18549
108.57282
105.33117
103.24667
101.56307
100.395
99.583236
99.157501
13132.79
11495.384
9954.9711
8524.4833
7213.9022
6030.9932
4980.3887
4062.8412
3275.2084
2610.3706
2058.0295
1606.458
1242.907
954.35739
725.13229
536.63863
364.89616
246.52301
192.26677
162.44
142.82775
129.97933
120.5189
113.02962
108.49509
105.28675
103.22057
101.54472
100.38111
99.572462
99.148236
10638.537
9470.881
8334.2668
7249.2941
6228.8794
5284.2227
4424.5236
3656.2668
2982.6288
2402.9693
1913.1229
1506.54
1174.7926
908.30794
693.5809
512.75584
346.93512
238.2597
188.71866
160.35705
141.45458
129.18152
120.04645
112.74772
108.35107
105.20343
103.17063
101.50973
100.35791
99.55694
99.137661
8522.3004
7712.1627
6890.7218
6085.0351
5306.9984
4568.1349
3879.0624
3248.7527
2683.7792
2187.6147
1760.5004
1400.0075
1101.3886
858.11435
658.62832
485.4166
326.97866
230.02153
185.37394
158.46015
140.23942
128.48832
119.64206
112.51316
108.23079
105.13523
103.12927
101.48096
100.33708
99.541669
99.125593
6753.0551
6200.1401
5619.3449
5034.6765
4455.2975
3890.9651
3351.5111
2846.1417
2382.6686
1966.748
1601.4635
1287.4089
1022.7951
803.58367
619.73865
453.85449
305.29531
221.62088
181.49215
156.12083
138.68527
127.57101
119.09689
112.19088
108.06032
105.03843
103.06989
101.43971
100.30887
99.522255
99.111802
5289.7273
4918.3581
4516.5175
4102.1929
3681.4525
3261.4152
2849.9097
2454.9386
2084.0148
1743.4501
1437.8009
1169.6103
939.28561
744.54512
576.16096
417.38125
282.67431
213.34049
177.50594
153.75823
137.15008
126.66733
118.56592
111.88733
107.89553
104.94747
103.01274
101.40034
100.2805
99.501679
99.096059
4092.5396
3847.5654
3575.6949
3289.2128
2991.6006
2687.4157
2382.1562
2081.9446
1793.0592
1521.3674
1271.7779
1047.8023
851.30421
680.78027
526.71968
375.56499
260.42132
205.18665
173.13511
151.06928
135.37069
125.57986
117.91665
111.51409
107.68413
104.83152
102.93881
101.34962
100.245
99.476695
99.078102
3124.625
2966.3518
2786.7187
2593.6778
2388.8918
2174.8917
1955.0873
1733.6347
1515.1803
1304.4928
1106.0222
923.42704
759.3707
611.82932
469.6152
329.56667
240.23572
197.18298
168.60385
148.29525
133.5788
124.4667
117.24935
111.14842
107.46828
104.71565
102.86258
101.29769
100.20741
99.449246
99.057639
2351.5763
2251.715
2136.123
2009.6621
1872.8865
1726.9425
1573.6338
1415.416
1255.3162
1096.755
943.24492
797.95953
663.72137
536.52546
402.80001
283.86299
223.22855
189.17779
163.81085
145.27488
131.61401
123.19444
116.45951
110.71964
107.20796
104.5731
102.76819
101.23354
100.16187
99.416518
99.034296
1741.8764
1680.4362
1608.4495
1528.2739
1439.9012
1343.6623
1240.2753
1130.9096
1017.2304
901.35939
785.68209
672.38035
563.64203
451.07372
328.32062
246.78707
209.22379
181.12341
158.93648
142.23081
129.65773
121.89758
115.62235
110.28438
106.94365
104.42351
102.66757
101.16505
100.11228
99.379916
99.00758
1266.2925
1229.7407
1186.5088
1137.58
1082.6332
1021.4848
954.13915
880.87374
802.34048
719.58041
633.84116
545.49643
454.74186
353.43898
264.82763
222.56673
196.09555
172.6998
154.08037
138.99844
127.64253
120.49965
114.66352
109.77443
106.64068
104.24178
102.54561
101.08275
100.0534
99.336805
98.976834
897.71896
877.10478
852.3365
823.71436
790.7437
752.93737
709.89735
661.37179
607.3668
548.10989
483.99293
413.75997
338.73222
271.39078
228.99443
204.09388
183.02487
165.13898
149.02969
136.10957
125.60956
119.06202
113.70091
109.24544
106.33229
104.05123
102.41279
100.99528
99.988812
99.288332
98.937086
608.00285
596.39352
582.2213
565.68298
546.16436
522.84648
495.33075
463.38943
426.89132
385.37538
340.80493
297.0076
259.08407
227.87656
206.16357
186.87084
172.14021
156.59233
144.17034
132.87848
123.71485
117.69033
112.64381
108.63668
105.97017
103.83401
102.25451
100.89501
99.913284
99.231908
98.887842
389.66081
382.88523
375.24582
366.77111
356.53364
343.90251
329.03775
312.53286
293.98369
273.90335
253.71551
233.76964
217.79054
203.9434
187.75769
173.41787
160.31885
149.55006
139.29641
129.97918
121.74578
116.24399
111.63635
108.06528
105.60401
103.60672
102.08357
100.78882
99.829758
99.16889
98.831269
266.8725
263.60776
259.68291
255.52738
250.91837
245.62403
239.39088
232.75402
224.09752
215.81908
207.25833
200.01086
194.84577
183.25269
171.86253
159.77045
151.50698
141.87489
134.32014
126.31068
119.92634
114.99365
110.47766
107.40586
105.20325
103.35527
101.88568
100.66359
99.732938
99.09725
98.768922
201.55889
200.34806
198.94762
197.27772
195.56892
193.5209
190.94454
188.50072
185.99698
184.04247
178.6776
173.28874
167.70979
163.6181
158.00321
149.43433
141.03148
135.232
129.41965
123.0508
117.7154
113.43209
109.3895
106.82278
104.78096
103.08991
101.6809
100.51966
99.626227
99.018804
98.703014
167.62093
166.72907
166.03
165.3281
164.81254
165.00231
164.98287
163.49992
161.2283
157.02415
155.01489
154.33924
149.9246
145.05826
143.51498
138.66019
133.04084
127.64125
124.2436
118.94864
115.47363
111.90236
108.09329
106.18708
104.28912
102.79629
101.42708
100.35113
99.508627
98.931102
98.632218
148.73224
148.73401
148.54837
147.9713
146.89548
145.09301
142.62854
141.19355
140.44598
140.16902
139.38381
135.58216
133.61309
131.64185
129.55678
129.60011
125.3629
121.50946
118.63152
115.7255
113.05263
109.94953
106.99972
105.52096
103.78058
102.47462
101.16572
100.17459
99.372173
98.835787
98.555837
130.85761
130.66388
130.46773
130.21369
129.95806
130.00063
130.67886
130.69546
129.94928
128.00913
125.76198
124.89085
124.75641
124.58744
122.39826
119.68987
118.61451
116.31088
113.8275
111.44591
110.62935
108.5768
105.84982
104.77082
103.21829
102.12203
100.86429
99.960894
99.221059
98.732192
98.473752
121.63523
121.72487
121.69793
121.53418
121.20265
120.60968
119.34214
118.80438
118.45861
118.15183
118.30594
118.04672
116.54753
115.8315
115.57246
114.10763
112.23304
111.93517
110.22098
108.77262
108.14361
106.88486
105.18471
104.01778
102.6714
101.66361
100.56621
99.743183
99.056345
98.622067
98.389527
112.62828
112.62683
112.59372
112.51293
112.42452
112.38729
112.70582
113.03378
112.92977
112.60316
112.0541
111.47829
111.94707
111.08298
110.81671
109.445
109.23454
107.96033
107.25586
106.53654
105.49964
105.0259
104.25359
103.16104
102.11756
101.15795
100.18873
99.468651
98.894983
98.50492
98.298342
107.909
108.01167
108.03804
108.00357
107.92022
107.77082
107.47127
107.00132
106.88428
106.88156
106.8935
107.1211
106.76529
106.80912
106.45925
105.82312
105.62782
105.47028
104.7696
104.72121
104.09085
102.97835
103.10492
102.07451
101.5056
100.54889
99.799813
99.213279
98.72588
98.38748
98.211419
103.51078
103.55488
103.55917
103.53842
103.51075
103.48799
103.49329
103.66471
103.85271
103.97991
104.07902
103.99594
103.96315
103.75911
103.2418
103.34225
102.89367
102.38845
102.83898
102.96016
102.87638
101.95011
101.47265
100.90557
100.53908
99.922552
99.381291
98.931383
98.553928
98.277685
98.123637
101.39024
101.44313
101.45516
101.43642
101.39958
101.35728
101.3053
101.20488
101.15246
101.13563
101.12997
101.12849
101.11491
101.10542
101.3379
101.17067
101.39992
101.06331
101.55747
101.42051
101.23935
100.92403
100.35076
99.895594
99.606383
99.398327
99.014436
98.704695
98.413097
98.17476
98.054209
99.72908
99.750925
99.755237
99.751559
99.74919
99.750235
99.752217
99.753616
99.753998
99.755163
99.754068
99.75073
99.757073
99.760996
99.790664
99.835401
99.848928
99.976312
99.87331
99.764254
99.587247
99.532188
99.484431
99.355576
99.115004
98.954197
98.750935
98.508282
98.286938
98.104115
98.006998
99.031751
99.047955
99.048133
99.038112
99.020844
98.99969
98.981311
98.976275
98.985547
99.001632
99.014308
99.032129
99.062229
99.099895
99.139289
99.147602
99.175365
99.171561
99.112639
99.035547
99.007583
98.947558
99.020347
99.017062
98.854875
98.72173
98.597574
98.392391
98.213339
98.065044
97.982538
98.452719
98.460374
98.463984
98.467533
98.474662
98.486591
98.503483
98.525051
98.55164
98.585594
98.639287
98.71479
98.788167
98.827494
98.822681
98.82443
98.814902
98.808847
98.759798
98.752035
98.812815
98.737532
98.774181
98.73185
98.712635
98.577054
98.455124
98.318453
98.172519
98.049606
97.969341
98.241499
98.248139
98.253309
98.259104
98.267212
98.278081
98.29177
98.308464
98.328559
98.352526
98.380318
98.410395
98.443982
98.470463
98.483648
98.504888
98.528361
98.543236
98.538347
98.547651
98.60817
98.621173
98.596788
98.54218
98.532307
98.464202
98.3808
98.278666
98.158612
98.066406
98.026249
98.16309
98.167974
98.172483
98.177815
98.184839
98.193834
98.204916
98.218307
98.234451
98.25406
98.277979
98.305917
98.335604
98.363117
98.375959
98.381811
98.392007
98.404906
98.407725
98.414203
98.445905
98.443174
98.451668
98.464497
98.449408
98.418819
98.353737
98.271617
98.221613
98.178244
98.132004
98.280475
98.279905
98.278876
98.277507
98.276067
98.274641
98.273223
98.271984
98.271536
98.273336
98.281188
98.301598
98.330669
98.349745
98.353899
98.35811
98.363132
98.37176
98.372323
98.37792
98.404243
98.414806
98.410888
98.441554
98.435773
98.425791
98.39146
98.362159
98.344448
98.310122
98.304633
106370.59
89311.375
70078.698
53935.299
41223.384
31121.801
23214.245
17182.533
12625.678
9190.5253
6624.1
4731.2752
3351.8967
2357.3459
1646.9645
1142.8724
784.75652
525.55007
343.41276
231.86665
177.12176
149.14236
131.83288
120.16444
112.33468
107.54
104.45651
102.38406
100.94843
99.970483
99.4624
92693.532
69876.447
53758.84
42074.603
32761.813
25257.263
19303.774
14589.604
10892.621
8033.4545
5859.4885
4231.9464
3029.5091
2151.4583
1516.7933
1061.12
732.95954
492.30814
322.22934
220.35183
172.10054
146.7077
130.43374
119.34226
111.89056
107.301
104.33272
102.31684
100.9109
99.949995
99.453256
74389.781
59210.652
47438.492
37539.158
29237.653
22486.134
17131.478
12939.794
9683.398
7176.7566
5269.0939
3833.8516
2765.9481
1979.7753
1406.5499
991.04232
688.31903
464.04199
305.77257
213.62444
169.76958
145.57728
129.76961
118.94535
111.67427
107.17356
104.26623
102.27728
100.88555
99.933733
99.444574
65714.091
52888.292
41995.055
32972.187
25671.84
19834.856
15201.49
11545.997
8686.3033
6474.2315
4782.4354
3502.4454
2544.0405
1833.6025
1311.7126
930.18465
649.26997
439.47603
291.22712
206.62948
166.616
143.86581
128.72215
118.31004
111.32855
106.97958
104.16478
102.22038
100.85239
99.914783
99.434534
58510.254
46633.062
36958.969
29126.896
22794.636
17697.504
13622.173
10390.779
7854.6414
5885.4414
4372.2814
3221.249
2354.3212
1707.641
1229.3414
876.86072
614.79379
417.41757
278.02418
200.86346
164.3865
142.69339
128.02154
117.89139
111.10482
106.8486
104.09635
102.17931
100.82619
99.898168
99.423302
52101.956
41574.138
33034.867
26089.357
20461.236
15928.292
12300.183
9419.4376
7152.9844
5386.6147
4023.0417
2980.4384
2190.8335
1598.387
1157.4082
829.84871
584.18606
397.22339
266.13414
195.70303
162.05824
141.34512
127.18124
117.37372
110.82218
106.6866
104.01123
102.12969
100.79609
99.880142
99.411668
47096.533
37552.204
29818.887
23559.312
18507.386
14442.49
11187.731
8599.9113
6558.6411
4962.0615
3724.2599
2773.2927
2049.4025
1503.3214
1094.4168
788.32751
556.89177
378.79984
255.51521
191.27441
160.14263
140.25835
126.52334
116.97452
110.60903
106.56158
103.94562
102.08928
100.7701
99.863465
99.399787
43047.854
34208.976
27132.479
21447.87
16874.124
13196.406
10251.613
7907.4732
6054.1578
4599.9282
3468.1068
2594.7737
1926.8733
1420.5174
1039.2115
751.70068
532.49166
362.05854
246.1088
187.4046
158.30088
139.14845
125.83219
116.54274
110.37296
106.42449
103.87323
102.04513
100.74241
99.846123
99.387737
39573.086
31394.22
24890.687
19685.886
15506.041
12149.527
9462.6004
7321.6384
5625.5172
4290.815
3248.4029
2440.9057
1820.7492
1348.4478
990.95363
719.42805
510.94128
346.90802
237.84754
184.05486
156.6872
138.18803
125.24986
116.18175
110.17908
106.31058
103.81304
102.00661
100.7173
99.8296
99.375581
36715.833
29062.907
23023.799
18211.763
14357.888
11269.025
8797.1911
6825.9272
5261.4096
4027.121
3060.1438
2308.4623
1728.9972
1285.8661
948.93517
691.09997
491.59777
333.23562
230.64845
181.13387
155.17886
137.2612
124.6797
115.81912
109.98038
106.19438
103.75123
101.9669
100.6917
99.812824
99.363308
34277.592
27095.528
21453.429
16972.808
13393.36
10528.587
8236.4377
6406.9794
4952.6249
3802.6322
2899.2233
2194.7852
1649.9303
1231.7271
912.47746
666.3623
474.34687
320.9598
224.42011
178.58781
153.8226
136.43663
124.18407
115.5038
109.80976
106.09406
103.69766
101.93092
100.66787
99.79659
99.350938
32218.621
25437.349
20132.448
15932.094
12584.131
9906.9503
7764.9935
6053.9207
4691.6364
3612.2456
2762.2518
2097.6661
1582.1343
1185.214
881.02293
644.94666
459.04552
310.01006
219.07445
176.36107
152.57058
135.66581
123.71884
115.20091
109.64348
105.99644
103.64509
101.89511
100.64417
99.780332
99.338467
30460.074
24033.831
19020.397
15059.346
11906.499
9386.7596
7370.3303
5757.9044
4472.2993
3451.7694
2646.4242
2015.2604
1524.4503
1145.5084
854.0411
626.59043
445.54354
300.33297
214.52313
174.41332
151.43626
134.97568
123.31071
114.9334
109.498
105.91075
103.59854
101.86203
100.62179
99.764475
99.325902
28957.517
22845.654
18085.372
14329.562
11341.956
8954.2789
7042.2872
5511.7315
4289.6413
3317.8474
2549.4844
1946.1476
1475.8756
1111.8876
831.10289
610.96677
433.70479
291.88285
210.68591
172.70969
150.40008
134.34519
122.93896
114.68447
109.36148
105.8302
103.55423
101.82985
100.59987
99.748718
99.313247
27676.03
21845.16
17305.698
13725.369
10877.111
8599.2687
6773.3878
5310.057
4139.8862
3208.0304
2469.7941
1889.0909
1435.5986
1083.9191
811.97664
597.77385
423.39095
284.61415
207.49069
171.22481
149.4656
133.78432
122.61438
114.46468
109.24194
105.75935
103.51469
101.7999
100.57904
99.733313
99.300482
26616.995
21026.125
16673.09
13238.39
10504.09
8315.4052
6558.8527
5149.3743
4020.3732
3120.036
2405.7686
1843.0005
1402.9741
1061.205
796.43602
586.9593
414.51564
278.50234
204.85927
169.93905
148.62478
133.28336
122.32681
114.26591
109.1335
105.69467
103.47793
101.77126
100.55887
99.718121
99.287572
25777.566
20384.279
16180.537
12861.107
10216.199
8096.8191
6393.8102
5025.4868
3928.0838
3051.6903
2355.8609
1807.0512
1377.4628
1043.4121
784.27224
578.51603
407.09842
273.50889
202.67985
168.8386
147.87839
132.84528
122.0799
114.09285
109.03991
105.63826
103.44518
101.74462
100.53964
99.703245
99.274519
25000.999
19827.183
15774.896
12562.423
9994.7087
7931.9304
6270.893
4933.7075
3860.0414
3001.5167
2319.175
1780.5899
1358.6503
1030.2747
775.30319
572.33298
401.1741
269.524
200.95103
167.91466
147.22305
132.46503
121.86823
113.94154
108.95821
105.58823
103.4154
101.71952
100.52114
99.68862
99.261329
24200.98
19285.186
15405.157
12308.717
9819.0435
7808.8759
6183.6848
4871.1727
3814.6284
2968.3677
2295.0252
1763.1477
1346.2308
1021.5961
769.38991
568.32597
396.76436
266.48795
199.63615
167.16246
146.65909
132.14292
121.69272
113.81399
108.89011
105.5455
103.3892
101.69635
100.50353
99.674304
99.248009
23540.413
18844.468
15112.805
12116.991
9694.5063
7728.2034
6131.1288
4836.2644
3790.757
2951.5327
2282.9276
1754.4183
1340.0052
1017.242
766.43971
566.4156
393.88694
264.34687
198.72256
166.58244
146.18689
131.877
121.55111
113.70859
108.83428
105.50914
103.3661
101.67491
100.48668
99.660261
99.234567
22956.604
18484.473
14894.179
11988.128
9621.9826
7689.9655
6112.8576
4828.4487
3787.9097
2950.656
2282.6518
1754.251
1339.8593
1017.1516
766.41313
566.50739
392.56656
263.0631
198.20089
166.1821
145.81101
131.66885
121.44459
113.6266
108.79159
105.47958
103.34637
101.6554
100.47067
99.646497
99.221003
22433.731
18189.928
14740.636
11918.542
9600.7476
7693.4708
6126.3568
4844.5469
3802.9994
2963.9342
2293.5232
1762.4958
1345.7724
1021.3227
769.31727
568.63703
392.76371
262.63413
198.08105
165.97479
145.53748
131.51928
121.37278
113.56727
108.76119
105.4562
103.32964
101.63762
100.45534
99.63294
99.20732
21945.492
17944.284
14642.784
11903.757
9625.2136
7733.1986
6169.6532
4886.1824
3840.0293
2994.1039
2316.6629
1779.4934
1357.8256
1029.7967
775.20068
572.81932
394.55522
262.9259
198.25229
165.96841
145.36784
131.42603
121.33388
113.52943
108.7422
105.43853
103.3156
101.62143
100.44059
99.619539
99.193512
21442.007
17717.802
14581.616
11929.535
9688.7525
7808.3116
6242.3128
4949.4432
3891.7721
3034.5316
2346.983
1801.4405
1373.2466
1040.4726
782.43728
577.80171
397.33473
263.8969
198.73298
166.0662
145.2874
131.37703
121.32034
113.50847
108.73173
105.42517
103.30349
101.60657
100.4263
99.606306
99.17958
103684.44
87123.151
68964.803
53588.294
41406.938
31766.798
24006.257
17903.589
13196.986
9626.02
6944.5591
4959.5715
3509.8119
2463.6808
1716.815
1187.7283
812.93454
542.46218
352.95555
236.03512
178.62449
149.86138
132.28557
120.44974
112.49301
107.64189
104.50931
102.415
100.96807
99.98315
99.465882
98313.179
82767.731
66404.796
52354.046
40868.896
31504.518
23921.028
17919.159
13271.606
9716.853
7030.0275
5030.5855
3564.4394
2503.4308
1744.477
1206.2351
825.02089
550.09075
357.86212
238.43114
179.51061
150.29309
132.57721
120.64277
112.60442
107.70563
104.5435
102.43544
100.98147
99.992355
99.469145
93093.069
78684.642
63643.994
50737.467
39983.943
31076.973
23773.203
17918.387
13339.762
9806.0981
7116.6693
5103.9386
3621.5761
2545.3792
1773.8564
1225.982
837.92891
558.21972
363.10852
241.03058
180.4757
150.75381
132.87648
120.83312
112.71131
107.78459
104.5828
102.45831
100.99594
100.00171
99.474484
88106.771
74876.777
60980.913
49105.578
39061.911
30615.035
23598.751
17905.993
13399.733
9892.4413
7203.6927
5179.228
3681.0738
2589.5123
1804.9969
1247.0312
851.70075
566.93364
368.68652
243.83907
181.48895
151.22664
133.20831
121.05969
112.84707
107.85024
104.62046
102.48137
101.01111
100.01216
99.48085
83336.844
71322.539
58416.009
47465.619
38102.563
30115.243
23394.261
17873.493
13449.244
9974.5029
7290.2965
5256.0646
3742.7959
2635.826
1837.9512
1269.4535
866.38612
576.28988
374.56326
246.90667
182.67641
151.76995
133.54061
121.26396
112.96382
107.94516
104.66711
102.50835
101.0279
100.02319
99.486162
78681.439
67965.776
55955.655
45827.547
37107.773
29575.326
23156.104
17815.654
13485.763
10050.822
7375.6465
5334.0383
3806.5939
2684.3101
1872.7716
1293.3214
882.03086
586.3195
380.58165
250.07137
183.82792
152.29987
133.92291
121.52906
113.12502
108.0366
104.71496
102.53674
101.04561
100.03495
99.489381
74144.473
64695.897
53548.372
44170.102
36066.051
28988.005
22879.602
17731.668
13506.542
10119.698
7458.691
5412.5444
3872.1721
2734.8615
1909.4583
1318.6766
898.73723
597.08737
387.03102
253.55495
185.13331
152.87483
134.30866
121.78642
113.28354
108.13478
104.76635
102.56713
101.06431
100.04742
99.494757
69739.331
61485.035
51199.874
42508.32
34986.027
28355.541
22563.499
17618.19
13505.717
10178.652
7537.8708
5490.6519
3939.0534
2787.2908
1947.9792
1345.5413
916.57471
608.61889
394.17151
257.29414
186.54325
153.48323
134.71168
122.06081
113.45567
108.23935
104.82119
102.5997
101.08418
100.06063
99.502706
65495.018
58297.347
48873.235
40829.693
33862.163
27673.345
22203.861
17473.143
13491.114
10226.67
7612.136
5567.766
4006.9719
2841.5166
1988.34
1373.943
935.57348
620.9879
401.88555
261.30517
188.06773
154.11756
135.13683
122.34861
113.64017
108.35181
104.88037
102.63453
101.10507
100.07457
99.51358
61312.286
55133.612
46554.108
39131.434
32694.585
26940.365
21798.542
17293.601
13452.869
10261.532
7680.0541
5642.9817
4075.446
2897.3353
2030.4847
1403.8941
955.76863
634.30124
410.15864
265.61638
189.72014
154.7945
135.57425
122.65744
113.84091
108.47071
104.94316
102.67181
101.12735
100.08929
99.524928
57247.955
51960.668
44227.807
37410.157
31484.38
26156.967
21346.253
17076.544
13385.682
10280.33
7740.0279
5715.3075
4143.9088
2954.4772
2074.3234
1435.3951
977.18506
648.51832
419.07454
270.27
191.51034
155.49263
136.04415
122.98025
114.05579
108.59974
105.01182
102.71171
101.1507
100.10471
99.535905
53329.216
48766.041
41883.474
35667.557
30235.757
25325.823
20847.307
16820.578
13290.16
10278.682
7790.1599
5783.6452
4211.7207
3012.6164
2119.7286
1468.4273
999.84534
663.61104
428.35111
275.24656
193.46105
156.25175
136.51047
123.32578
114.28701
108.73392
105.08366
102.75419
101.17567
100.12098
99.546698
49579.876
45555.066
39508.959
33901.475
28953.656
24451.752
20304.129
16526.141
13166.614
10264.181
7829.8253
5846.9506
4278.18
3071.3686
2166.5319
1502.9488
1023.7663
679.62758
437.98396
280.59633
195.56177
157.01381
137.0306
123.69021
114.53716
108.88246
105.16391
102.79975
101.20174
100.13792
99.558134
46043.015
42443.633
37171.18
32146.712
27658.905
23546.987
19722.983
16195.677
13014.661
10228.437
7857.5221
5904.1601
4342.5382
3130.292
2214.5214
1538.8928
1048.9544
696.60342
448.24527
286.36613
197.86397
157.88101
137.51772
124.06675
114.79576
109.03234
105.24573
102.84775
101.22965
100.15581
99.570534
42695.939
39478.605
34915.569
30435.915
26373.697
22626.753
19113.004
15833.511
12834.812
10169.822
7871.5182
5954.2196
4404.0217
3188.8976
2263.4397
1576.1657
1075.3985
714.54175
459.16894
292.55319
200.32963
158.70463
138.08587
124.48309
115.08806
109.20446
105.33993
102.89964
101.2588
100.17418
99.583655
39552.13
36699.893
32764.236
28790.243
25120.193
21708.152
18485.45
15445.786
12629.486
10090.392
7869.6003
5995.8464
4461.7707
3246.6491
2313.0077
1614.6525
1103.0867
733.42692
470.93001
299.24346
203.08379
159.72235
138.59162
124.87343
115.36597
109.37058
105.43271
102.95357
101.28983
100.19358
99.597147
36677.893
34193.759
30794.987
27258.41
23928.745
20812.648
17854.506
15040.792
12402.951
9992.7279
7858.0507
6029.0299
4515.0756
3302.9662
2362.8847
1654.2161
1132.03
753.30485
483.57135
306.28024
205.97685
160.62147
139.18454
125.3472
115.70729
109.56942
105.54233
103.01283
101.32247
100.21334
99.610842
34110.353
31977.316
29040.281
25875.556
22829.921
19963.013
17235.875
14628.258
12160.427
9878.3817
7831.2278
6052.9378
4563.2203
3357.2408
2412.6759
1694.679
1162.2278
774.36147
497.34929
314.26196
209.29757
161.8078
139.71894
125.74054
116.00166
109.7548
105.64817
103.07355
101.35657
100.2342
99.624667
31836.173
30038.451
27503.562
24658.222
21845.492
19178.78
16644.224
14217.864
11907.314
9749.3068
7789.9753
6067.1954
4605.5209
3408.8261
2461.9268
1735.7848
1193.5172
796.59852
512.1249
322.70618
212.72671
162.87551
140.29523
126.23188
116.38017
109.97477
105.77179
103.14137
101.393
100.25526
99.638543
29836.408
28339.055
26158.913
23598.567
20981.802
18472.23
16091.165
13817.969
11648.466
9607.5076
7734.9597
6068.2648
4640.678
3456.9355
2510.098
1777.1998
1225.7137
819.8289
527.78178
331.44808
216.73115
164.14609
140.87933
126.67732
116.71983
110.19083
105.89696
103.20989
101.42979
100.27716
99.652328
28034.817
26806.31
24949.564
22661.673
20225.389
17843.496
15582.06
13433.954
11387.438
9454.8561
7667.6904
6062.0135
4668.4408
3500.7595
2556.5751
1818.5468
1258.6342
844.01966
544.35725
340.99497
220.84343
165.57573
141.38792
127.05965
117.07037
110.40928
106.02922
103.2855
101.47018
100.29946
99.665893
26366.543
25364.487
23798.369
21780.083
19533.482
17273.894
15111.677
13065.821
11125.314
9292.1569
7588.1812
6044.7206
4688.2743
3539.5001
2600.6747
1859.3976
1292.0535
869.08101
561.80085
351.22944
225.5515
166.76878
142.05929
127.61808
117.5139
110.67759
106.18509
103.36162
101.50992
100.32152
99.679043
24783.064
23959.048
22638.88
20877.433
18837.151
16717.455
14656.854
12703.969
10858.335
9117.2916
7493.6414
6011.4196
4696.0198
3571.518
2641.4769
1899.1879
1325.6818
894.88245
580.03393
361.85278
230.99308
168.92367
142.38109
127.89188
117.76851
110.87838
106.32022
103.43951
101.55421
100.34463
99.691602
23204.965
22528.815
21416.603
19892.876
18072.851
16122.173
14183.49
12329.867
10577.441
8925.644
7381.5282
5962.8656
4692.8318
3595.7922
2678.0394
1937.2963
1359.1799
921.27728
599.0519
373.2334
236.24874
170.64781
143.04783
128.29775
118.24
111.18851
106.50689
103.52357
101.59853
100.36546
99.703247
21562.54
21000.816
20075.401
18780.759
17192.01
15439.726
13653.593
11919.359
10269.485
8710.7049
7248.9638
5898.2342
4679.7272
3612.1891
2709.6409
1973.0885
1392.1452
948.09357
618.84969
385.82391
242.14499
172.51359
143.59169
128.78068
118.54437
111.43139
106.64801
103.59984
101.64414
100.38796
99.713707
19855.407
19373.758
18598.261
17515.677
16163.831
14633.523
13034.116
11448.613
9920.0503
8464.6414
7091.4082
5813.1257
4648.6896
3615.3181
2734.5126
2005.7679
1424.1384
975.07974
639.32597
399.28555
248.59513
174.50529
144.01366
128.89056
118.763
111.66988
106.82849
103.6978
101.69173
100.40665
99.722485
18091.076
17677.337
17031.697
16136.454
15011.744
13714.575
12323.625
10910.915
9522.8474
8183.3934
6906.5981
5706.5028
4601.2862
3610.487
2752.7793
2034.7968
1454.7415
1001.9629
660.26473
413.37687
255.33784
176.39889
144.29528
129.16835
119.23026
112.02351
106.99747
103.77997
101.73134
100.42595
99.729191
16335.978
15982.309
15451.815
14724.96
13807.476
12732.227
11551.583
10321.291
9084.8485
7870.4122
6696.5758
5579.8571
4539.1892
3595.4914
2764.242
2059.8195
1483.577
1028.5053
681.56827
428.20592
262.92051
179.02497
145.11322
129.58606
119.38857
112.16884
107.13566
103.88131
101.77414
100.44346
99.733147
14684.904
14385.255
13953.168
13369.436
12631.191
11753.281
10766.979
9712.1565
8626.1409
7537.8062
6468.607
5437.1788
4463.1023
3567.1005
2767.3126
2080.4323
1510.3936
1054.5058
703.09261
443.59149
270.7209
181.91256
145.78977
129.575
119.49622
112.43195
107.32719
103.97352
101.80966
100.45608
99.733873
13223.496
12969.954
12616.695
12146.217
11551.223
10835.605
10015.978
9118.2485
8171.4147
7202.3953
6233.8232
5285.6421
4377.8154
3531.1206
2765.34
2097.2366
1535.2132
1079.8715
724.76854
459.53746
279.12146
184.99474
146.15978
129.62642
119.89643
112.68124
107.43678
104.04845
101.84219
100.46964
99.730571
12008.042
11790.562
11496.236
11109.913
10621.571
10029.776
9341.977
8574.0223
7747.1191
6883.8601
6006.2106
5134.7565
4289.5037
3490.9482
2759.3508
2110.9997
1558.292
1104.6286
746.5691
476.0181
288.3339
188.11322
146.92729
129.92394
119.93827
112.71847
107.59711
104.13215
101.87211
100.47416
99.722682
11059.197
10866.661
10612.673
10285.483
9875.1401
9375.4893
8786.8683
8117.7859
7384.0751
6605.7667
5803.3282
4996.8488
4206.2045
3451.0632
2750.828
2122.8342
1580.1188
1128.8923
768.47879
493.02193
298.29575
191.51838
147.93838
130.00103
119.92116
112.81852
107.70359
104.18856
101.89577
100.473
99.709485
10368.429
10197.023
9972.2845
9685.2349
9326.4035
8888.576
8368.9838
7771.2469
7105.9815
6389.8225
5642.8803
4885.5957
4137.6261
3418.0801
2745.1845
2134.8326
1601.4691
1152.8874
790.50543
510.47853
309.00413
195.23548
148.97047
130.03311
119.94386
112.82948
107.71709
104.22478
101.89831
100.46657
99.690303
9847.7094
9700.7445
9505.37
9253.4744
8935.7862
8544.546
8075.3551
7529.0532
6913.1185
6241.5824
5533.4526
4809.9065
4091.5132
3397.2631
2745.1361
2148.522
1623.1789
1176.9542
812.7243
528.34829
320.4479
199.51245
149.94024
130.15288
119.88906
112.78775
107.72245
104.22181
101.89358
100.45547
99.664881
9381.91
9265.1377
9105.6349
8894.5554
8621.4916
8277.2812
7855.8382
7355.7904
6781.9765
6146.5143
5467.8172
4767.9096
4068.8687
3390.6086
2750.1087
2165.2297
1645.881
1201.218
835.12327
546.6286
332.71948
204.12976
151.131
130.32901
119.67661
112.7155
107.68327
104.19898
101.88081
100.42739
99.632359
8886.044
8799.427
8676.4617
8508.3016
8284.4114
7994.1593
7628.4378
7182.2752
6657.2814
6062.9928
5416.3133
4739.3662
4056.3611
3389.9995
2762.1325
2184.3539
1669.2333
1225.5544
857.67084
565.29406
345.78786
209.3983
152.43995
130.36315
119.49767
112.48634
107.56705
104.16494
101.83594
100.39939
99.593241
8330.0666
8269.3646
8178.3131
8048.1001
7868.8002
7629.9797
7321.8586
6937.0483
6472.9269
5933.983
5333.4206
4691.7279
4033.1166
3384.005
2767.2032
2200.4414
1690.9087
1248.9817
879.79257
583.98314
359.30827
214.95348
153.47649
130.33337
119.22783
112.10598
107.49261
104.05674
101.79347
100.35455
99.546877
7723.5177
7679.6595
7611.6707
7511.2238
7369.1335
7175.3501
6919.8781
6594.3764
6194.2004
5720.4267
5181.4298
4593.4918
3979.0827
3361.0618
2762.1288
2206.6507
1707.2573
1269.7848
900.71818
602.26715
372.85897
220.55942
154.11979
130.20121
118.84862
111.79364
107.28779
103.92078
101.72215
100.29129
99.494028
7110.4592
7071.6986
7013.9748
6930.2764
6812.8905
6653.0443
6441.493
6169.6622
5831.3504
5424.7031
4954.0828
4430.9902
3873.2098
3302.8758
2740.1956
2203.3747
1716.8112
1286.5977
919.92912
620.06598
386.65266
226.82438
154.77252
130.11434
118.51665
111.51446
107.01293
103.78405
101.62407
100.22673
99.435615
6556.2001
6514.8652
6457.8676
6379.8335
6274.6992
6135.3919
5954.1463
5723.2327
5436.1608
5089.2964
4683.5331
4225.3935
3727.9574
3209.3507
2689.4205
2187.3954
1717.2135
1298.6437
937.05396
637.52348
401.18602
234.46364
156.12759
130.1477
118.36747
111.31668
106.80295
103.63065