/*--------------------------------*- C++ -*----------------------------------*\
| =========                 |                                                 |
| \\      /  F ield         | OpenFOAM: The Open Source CFD Toolbox           |
|  \\    /   O peration     | Version:  2406                                  |
|   \\  /    A nd           | Website:  www.openfoam.com                      |
|    \\/     M anipulation  |                                                 |
\*---------------------------------------------------------------------------*/
FoamFile
{
    version     2.0;
    format      ascii;
    arch        "LSB;label=32;scalar=64";
    class       volScalarField;
    location    "0.061";
    object      T;
}
// * * * * * * * * * * * * * * * * * * * * * * * * * * * * * * * * * * * * * //

dimensions      [0 0 0 1 0 0 0];

internalField   nonuniform List<scalar> 
8260
(
292.77438
292.77561
292.77783
292.78538
292.79687
292.81047
292.8245
292.83739
292.84746
292.85339
292.85405
292.8485
292.8364
292.81824
292.79675
292.77941
292.80223
292.87554
292.92342
292.94711
292.96393
292.97739
292.98912
292.99963
293.00881
293.01664
293.02293
293.02812
293.03246
293.03509
293.03687
292.84027
292.83511
292.83279
292.83471
292.83954
292.84629
292.85388
292.86099
292.86614
292.86796
292.86533
292.85719
292.84311
292.8234
292.80156
292.78588
292.81365
292.88673
292.9298
292.95133
292.9672
292.97994
292.99114
293.00123
293.01005
293.01764
293.02376
293.02881
293.03306
293.03562
293.03736
292.91098
292.9012
292.89367
292.88949
292.88763
292.88751
292.88843
292.88931
292.88893
292.88615
292.87963
292.86835
292.8518
292.83014
292.80762
292.7936
292.82733
292.89858
292.9364
292.95591
292.97081
292.98279
292.99342
293.00305
293.01148
293.01879
293.02471
293.0296
293.03374
293.03622
293.03792
292.98309
292.96934
292.957
292.94716
292.93913
292.93256
292.92701
292.92169
292.91561
292.90772
292.89684
292.88195
292.8625
292.8386
292.81519
292.80333
292.84384
292.91151
292.94376
292.96118
292.97501
292.98611
292.99606
293.00515
293.01313
293.02012
293.02581
293.03051
293.03452
293.03691
293.03855
293.05463
293.03764
293.02131
293.00657
292.99304
292.98054
292.96885
292.95746
292.9456
292.93238
292.9168
292.89792
292.8752
292.84884
292.82456
292.81626
292.86375
292.92538
292.95193
292.96715
292.97977
292.98988
292.99906
293.00756
293.01501
293.02163
293.02706
293.03155
293.03541
293.0377
293.03928
293.12452
293.10522
293.08581
293.06705
293.04878
293.03098
293.01361
292.9964
292.97882
292.96017
292.93965
292.91646
292.89013
292.86118
292.8363
292.8336
292.88735
292.94008
292.96099
292.9739
292.98517
292.99417
293.00248
293.0103
293.01716
293.02335
293.02848
293.03273
293.03643
293.03859
293.0401
293.19164
293.17089
293.14934
293.12751
293.1054
293.0831
293.06071
293.03812
293.01506
292.99104
292.96548
292.93777
292.90757
292.87605
292.85136
292.85692
292.91434
292.95551
292.97103
292.98151
292.99127
292.99903
293.00635
293.01342
293.0196
293.02531
293.03009
293.03407
293.03758
293.03961
293.04103
293.25462
293.23316
293.21031
293.1864
293.16148
293.13566
293.1091
293.08183
293.05377
293.02469
292.9942
292.96193
292.92777
292.89412
292.87139
292.88822
292.94372
292.97163
292.98216
292.99008
292.99812
293.00454
293.01074
293.01696
293.02239
293.02754
293.03193
293.0356
293.03889
293.04077
293.04209
293.31206
293.29062
293.26727
293.24221
293.21548
293.18717
293.15742
293.12637
293.09407
293.06048
293.02547
292.98889
292.95103
292.91642
292.89906
292.92895
292.97346
292.98851
292.99451
292.99973
293.0058
293.01075
293.01572
293.02096
293.02554
293.03007
293.03402
293.03735
293.04037
293.04209
293.04329
293.36287
293.34185
293.31871
293.29333
293.26569
293.23588
293.20402
293.17025
293.13471
293.0975
293.05871
293.01852
292.97797
292.9447
292.93946
292.97696
293.00176
293.00637
293.00821
293.01059
293.01439
293.01776
293.02137
293.02549
293.02913
293.03295
293.0364
293.03934
293.04206
293.0436
293.04465
293.40605
293.38553
293.36278
293.33764
293.30999
293.27976
293.24698
293.21174
293.17419
293.13454
293.09311
293.05065
293.01006
292.98459
292.99742
293.02408
293.02838
293.02529
293.02317
293.02272
293.02405
293.02565
293.02781
293.03064
293.0332
293.03623
293.03912
293.04163
293.04399
293.04532
293.04619
293.43981
293.42042
293.39861
293.37428
293.34724
293.31738
293.28466
293.24914
293.21095
293.17039
293.12824
293.08697
293.05391
293.04637
293.06223
293.06435
293.05409
293.04552
293.03951
293.03605
293.03477
293.03455
293.03507
293.03654
293.03787
293.03999
293.04223
293.04425
293.04619
293.04729
293.04796
293.46206
293.44364
293.42301
293.4002
293.37484
293.34664
293.3155
293.28145
293.24486
293.20656
293.16853
293.1364
293.12114
293.12267
293.11548
293.09732
293.08047
293.06695
293.05711
293.05043
293.04672
293.04443
293.04326
293.04323
293.0432
293.04426
293.04576
293.04724
293.04869
293.04952
293.04998
293.47336
293.45785
293.44037
293.42061
293.39819
293.3728
293.34455
293.31417
293.2829
293.25275
293.22691
293.2087
293.1964
293.17812
293.15273
293.12826
293.10677
293.0898
293.07605
293.06594
293.05957
293.0553
293.05237
293.05072
293.04922
293.0491
293.04977
293.05062
293.05155
293.05206
293.0523
293.48852
293.47422
293.45752
293.43855
293.41824
293.39769
293.37672
293.35488
293.33263
293.31091
293.28997
293.26813
293.24124
293.21171
293.18331
293.15654
293.13327
293.11337
293.09628
293.08263
293.07334
293.06699
293.06236
293.05892
293.05585
293.05455
293.05428
293.0544
293.05478
293.05491
293.05497
293.49354
293.48638
293.47883
293.47032
293.45904
293.44338
293.42358
293.40002
293.37505
293.35036
293.32443
293.29542
293.26521
293.23699
293.20947
293.18318
293.15843
293.13663
293.11715
293.10069
293.08812
293.07938
293.07308
293.06777
293.06313
293.0606
293.05934
293.05864
293.05841
293.05812
293.05802
293.47156
293.46334
293.45413
293.44425
293.43388
293.42348
293.41394
293.40589
293.39397
293.37202
293.34316
293.31481
293.28724
293.25828
293.23075
293.20672
293.18245
293.15857
293.13736
293.11937
293.10402
293.09275
293.08455
293.07719
293.0711
293.06733
293.06504
293.06339
293.06244
293.0617
293.06149
293.45853
293.45327
293.44719
293.43982
293.43091
293.4201
293.40659
293.39025
293.37403
293.36119
293.34911
293.32851
293.3026
293.27531
293.24939
293.22561
293.20262
293.17838
293.15599
293.13732
293.12031
293.10714
293.09703
293.08744
293.07984
293.07472
293.07141
293.06866
293.0669
293.06568
293.06538
293.42933
293.42447
293.41897
293.41277
293.40587
293.39831
293.39018
293.38129
293.37071
293.35685
293.34098
293.32888
293.31509
293.29071
293.26515
293.24116
293.21746
293.19479
293.17294
293.15342
293.13563
293.12202
293.11043
293.09849
293.08939
293.08277
293.07831
293.07452
293.07185
293.07008
293.06967
293.41045
293.40727
293.40359
293.39926
293.3941
293.38792
293.38046
293.37156
293.36146
293.3507
293.33881
293.32292
293.30717
293.29766
293.27814
293.25348
293.23088
293.20837
293.18799
293.16823
293.14955
293.13597
293.1237
293.1099
293.09954
293.0914
293.08568
293.08088
293.07732
293.07494
293.07438
293.38287
293.37996
293.37664
293.37285
293.36852
293.36361
293.35812
293.35203
293.34509
293.33682
293.32716
293.31726
293.30553
293.29022
293.28017
293.26376
293.24204
293.22142
293.2018
293.18244
293.16388
293.1486
293.13521
293.12095
293.10974
293.10049
293.09349
293.08776
293.08331
293.08032
293.07948
293.36327
293.36142
293.35927
293.35673
293.35372
293.35013
293.34582
293.34064
293.33448
293.32737
293.31919
293.3093
293.29834
293.2871
293.27201
293.26138
293.25006
293.23208
293.21334
293.19559
293.17873
293.16134
293.14498
293.1315
293.11987
293.11004
293.10179
293.09513
293.08985
293.08625
293.08501
293.33698
293.33522
293.3332
293.33087
293.32818
293.32513
293.32168
293.31781
293.31347
293.30859
293.30311
293.29713
293.2901
293.28151
293.27318
293.26063
293.24768
293.23892
293.22238
293.20483
293.19002
293.17424
293.15613
293.14242
293.13034
293.12001
293.11064
293.10294
293.09694
293.09274
293.091
293.31972
293.31878
293.31767
293.31634
293.31472
293.31271
293.31028
293.30734
293.30379
293.2995
293.29432
293.28815
293.2811
293.27341
293.26397
293.25559
293.24681
293.23467
293.22655
293.21213
293.19852
293.1833
293.16814
293.15433
293.14116
293.12989
293.11983
293.11115
293.10444
293.09976
293.09746
293.29542
293.2944
293.29324
293.29192
293.29043
293.28875
293.28684
293.28465
293.28211
293.27916
293.27576
293.27184
293.26738
293.2623
293.25695
293.24973
293.2418
293.23429
293.22449
293.21483
293.20003
293.18767
293.17583
293.16383
293.15131
293.13899
293.1285
293.11949
293.11224
293.10718
293.10439
293.28154
293.28105
293.28045
293.27972
293.27881
293.27769
293.27629
293.27462
293.27266
293.27038
293.26773
293.26448
293.26055
293.25588
293.25044
293.24474
293.23767
293.2294
293.22252
293.21347
293.20339
293.18992
293.17916
293.1694
293.15856
293.14669
293.13629
293.12763
293.1202
293.11486
293.11177
293.26199
293.26135
293.26063
293.25981
293.25889
293.25788
293.25678
293.25556
293.25419
293.25268
293.25104
293.24943
293.24782
293.24599
293.24341
293.23952
293.23485
293.22852
293.21955
293.21265
293.20379
293.19363
293.18259
293.17263
293.16337
293.15372
293.14395
293.13546
293.12828
293.12276
293.11947
293.25037
293.25014
293.24985
293.2495
293.24905
293.2485
293.24782
293.24698
293.24594
293.24465
293.24304
293.241
293.23846
293.23535
293.23186
293.2283
293.22441
293.22034
293.21566
293.21002
293.20562
293.19855
293.1882
293.17847
293.17006
293.16097
293.15192
293.14347
293.13645
293.1308
293.12737
293.23522
293.23498
293.2347
293.23436
293.23396
293.23349
293.23294
293.23228
293.2315
293.23058
293.22949
293.2282
293.22673
293.22519
293.22348
293.22128
293.2185
293.21526
293.21203
293.20774
293.20287
293.19947
293.19405
293.18459
293.17547
293.16749
293.15935
293.15139
293.14433
293.13879
293.13537
293.22902
293.22886
293.22867
293.22844
293.22816
293.22783
293.22743
293.22695
293.22637
293.22566
293.22481
293.22376
293.22249
293.22099
293.21911
293.21694
293.21456
293.21174
293.20841
293.20506
293.2007
293.19487
293.1905
293.18605
293.17885
293.17179
293.16456
293.15737
293.15071
293.14545
293.14225
293.22196
293.22179
293.2216
293.22137
293.2211
293.22078
293.2204
293.21996
293.21945
293.21885
293.21815
293.21735
293.21638
293.21514
293.2137
293.21203
293.21006
293.20785
293.20519
293.2019
293.19828
293.19438
293.18964
293.18516
293.18058
293.17443
293.16785
293.16131
293.15518
293.15014
293.14705
293.8723
293.75037
293.62588
293.51093
293.41098
293.32324
293.24375
293.17218
293.1062
293.04684
292.99383
292.94658
292.9038
292.8641
292.82573
292.78605
292.74631
292.71724
292.73299
292.8005
292.85985
292.89686
292.92393
292.94632
292.96524
292.98052
292.99241
293.00194
293.00929
293.01416
293.01722
293.70177
293.58914
293.49539
293.41236
293.33424
293.25955
293.18946
293.12498
293.06558
293.01245
292.96522
292.92297
292.88433
292.84798
292.8121
292.77478
292.73713
292.71481
292.73943
292.81108
292.86682
292.90119
292.92717
292.94892
292.96732
292.98219
292.99377
293.00308
293.01028
293.01504
293.01799
293.63686
293.5396
293.45059
293.36627
293.28642
293.21247
293.14538
293.08496
293.03094
292.98318
292.94086
292.90284
292.86768
292.83412
292.80025
292.76507
292.7295
292.71381
292.74677
292.82081
292.8727
292.90494
292.93008
292.95128
292.96924
292.98374
292.99504
293.00415
293.01122
293.01588
293.01869
293.56575
293.47129
293.3849
293.30448
293.23002
293.16215
293.10121
293.04691
292.99887
292.95654
292.91897
292.88491
292.85293
292.82187
292.78971
292.7565
292.72371
292.71378
292.75507
292.83035
292.87838
292.90877
292.9331
292.95373
292.97121
292.98533
292.99634
293.00524
293.01217
293.01672
293.01946
293.48544
293.39646
293.31627
293.24214
293.17412
293.11287
293.05852
293.01067
292.96869
292.93176
292.8988
292.86851
292.83952
292.81078
292.78025
292.74894
292.71975
292.71478
292.76477
292.83953
292.8837
292.9125
292.93608
292.95614
292.97316
292.9869
292.99764
293.00634
293.01313
293.01757
293.02024
293.39438
293.31551
293.24375
293.17746
293.11735
293.06395
293.01706
292.97614
292.94037
292.9088
292.88029
292.85358
292.8274
292.80081
292.77189
292.74247
292.71711
292.71686
292.77564
292.84822
292.88875
292.91619
292.93905
292.95856
292.97512
292.98848
292.99894
293.00744
293.01409
293.01843
293.02104
293.29846
293.23021
293.16797
293.11123
293.06059
293.01608
292.9773
292.94358
292.91406
292.88774
292.86349
292.84014
292.81659
292.79197
292.76467
292.73707
292.7151
292.72023
292.78728
292.85631
292.89355
292.91982
292.94199
292.96095
292.97705
292.99006
293.00025
293.00855
293.01505
293.01929
293.02185
293.19379
293.13901
293.08928
293.04442
293.00466
292.96984
292.93958
292.9132
292.88985
292.86859
292.84839
292.82819
292.80706
292.78421
292.75849
292.73276
292.71362
292.7254
292.79921
292.86378
292.89818
292.92342
292.94491
292.96332
292.97898
292.99163
293.00156
293.00966
293.01602
293.02015
293.02266
293.08422
293.04567
293.01067
292.97893
292.95065
292.92587
292.90425
292.88514
292.8678
292.85138
292.83498
292.81771
292.79881
292.77742
292.75334
292.72949
292.71295
292.73249
292.81089
292.87066
292.90267
292.92697
292.9478
292.96567
292.98089
292.9932
293.00286
293.01077
293.01699
293.02102
293.02348
292.97612
292.95443
292.9346
292.91607
292.89936
292.88471
292.87162
292.85958
292.84798
292.83613
292.82328
292.80871
292.79179
292.77175
292.74931
292.7271
292.71329
292.74114
292.82198
292.87705
292.90704
292.93048
292.95066
292.96801
292.98279
292.99476
293.00417
293.01188
293.01797
293.0219
293.0243
292.87251
292.86772
292.86232
292.85684
292.85166
292.84688
292.84197
292.83665
292.83046
292.82287
292.81329
292.80116
292.78599
292.76731
292.74651
292.72557
292.71471
292.75064
292.83236
292.88302
292.91133
292.93395
292.95348
292.97031
292.98467
292.99631
293.00547
293.01299
293.01894
293.02277
293.02512
292.77547
292.78653
292.79547
292.80278
292.8086
292.81283
292.81551
292.81645
292.81528
292.8116
292.80499
292.79505
292.78148
292.76436
292.74475
292.72489
292.71709
292.76078
292.84207
292.88865
292.91554
292.93737
292.95627
292.9726
292.98653
292.99785
293.00677
293.0141
293.01992
293.02365
293.02595
292.68862
292.71393
292.73588
292.75469
292.77039
292.783
292.79256
292.79906
292.80242
292.80227
292.79836
292.79044
292.77862
292.76274
292.74361
292.72505
292.72037
292.77135
292.8511
292.894
292.91968
292.94075
292.95903
292.97485
292.98838
292.99938
293.00806
293.01521
293.0209
293.02453
293.02678
292.61583
292.65237
292.68502
292.71349
292.73766
292.75754
292.77314
292.78457
292.79192
292.79496
292.79358
292.78769
292.77714
292.76197
292.74338
292.72587
292.72448
292.78207
292.85943
292.89914
292.92375
292.94408
292.96175
292.97708
292.9902
293.0009
293.00935
293.01632
293.02187
293.02541
293.02761
292.56112
292.60521
292.64514
292.6806
292.71131
292.73705
292.75774
292.7736
292.78451
292.79033
292.79115
292.78656
292.77663
292.76214
292.74407
292.72728
292.72949
292.7927
292.86711
292.9041
292.92775
292.94735
292.96443
292.97928
292.99199
293.00241
293.01062
293.01742
293.02285
293.02629
293.02844
292.52084
292.57198
292.61716
292.65729
292.69255
292.7227
292.74742
292.7669
292.78074
292.78842
292.79013
292.78638
292.77723
292.76332
292.74565
292.72958
292.73543
292.80297
292.8742
292.90891
292.93168
292.95058
292.96707
292.98145
292.99378
293.0039
293.0119
293.01852
293.02383
293.02717
293.02928
292.48078
292.5414
292.59441
292.64043
292.68013
292.71392
292.74189
292.7634
292.77842
292.78753
292.79047
292.78753
292.77899
292.76551
292.7481
292.73278
292.74224
292.81279
292.88087
292.9136
292.93555
292.95377
292.96968
292.9836
292.99554
293.00539
293.01317
293.01962
293.0248
293.02806
293.03012
292.45617
292.5169
292.57352
292.62433
292.66855
292.70605
292.73686
292.76074
292.7778
292.7884
292.79243
292.79013
292.78196
292.76874
292.75144
292.73671
292.7496
292.82213
292.88716
292.9182
292.93937
292.95692
292.97226
292.98572
292.99729
293.00686
293.01443
293.02071
293.02577
293.02894
293.03096
292.46071
292.5158
292.56904
292.61886
292.66378
292.70282
292.73541
292.761
292.77952
292.79127
292.7961
292.79421
292.78618
292.773
292.75568
292.74131
292.75727
292.83098
292.89312
292.92269
292.94313
292.96003
292.97481
292.98782
292.99902
293.00831
293.01569
293.02179
293.02674
293.02982
293.0318
292.47871
292.5291
292.5781
292.62468
292.66767
292.706
292.73868
292.76476
292.78391
292.79626
292.80152
292.79979
292.79166
292.77831
292.7608
292.74655
292.76505
292.83936
292.89879
292.92708
292.94682
292.96309
292.97733
292.98988
293.00072
293.00975
293.01693
293.02287
293.02771
293.0307
293.03264
292.50884
292.55331
292.59727
292.6396
292.67928
292.71534
292.74658
292.77204
292.79104
292.80337
292.8087
292.80687
292.79843
292.78466
292.76677
292.75241
292.77282
292.84733
292.9042
292.93136
292.95044
292.96609
292.97978
292.9919
293.00239
293.01117
293.01815
293.02393
293.02867
293.03158
293.03349
292.551
292.58758
292.62499
292.66195
292.69732
292.72984
292.7585
292.78253
292.80074
292.81249
292.81748
292.81533
292.8064
292.79199
292.77356
292.75887
292.78048
292.85487
292.9093
292.93546
292.95392
292.96898
292.98217
292.99387
293.00402
293.01255
293.01936
293.02499
293.02962
293.03246
293.03433
292.60501
292.63101
292.65941
292.68938
292.71927
292.74767
292.77344
292.79535
292.81227
292.82315
292.82755
292.82492
292.81538
292.80016
292.78105
292.76577
292.7879
292.86182
292.91398
292.93931
292.95723
292.97176
292.98446
292.99578
293.00561
293.01391
293.02055
293.02604
293.03057
293.03335
293.03518
292.67598
292.69008
292.70601
292.72569
292.74791
292.77075
292.79243
292.81138
292.82618
292.83582
292.8393
292.83594
292.82564
292.80934
292.78922
292.77275
292.79442
292.86779
292.91821
292.94297
292.96043
292.97449
292.98674
292.99769
293.00721
293.01529
293.02176
293.02711
293.03155
293.03425
293.03606
293.87078
293.76958
293.64864
293.53259
293.43021
293.34113
293.26138
293.18777
293.12134
293.06119
293.00695
292.95819
292.91392
292.87284
292.83341
292.79295
292.75252
292.72075
292.73097
292.79531
292.85642
292.89453
292.9221
292.94481
292.96401
292.97952
292.9916
293.00126
293.00871
293.01365
293.01674
293.84889
293.74781
293.63124
293.52213
293.42513
293.33972
293.2631
293.19247
293.12787
293.06873
293.01473
292.96564
292.92069
292.87876
292.83848
292.79731
292.75627
292.72334
292.72985
292.79217
292.85446
292.89311
292.92088
292.94374
292.96307
292.97871
292.9909
293.00064
293.00815
293.01314
293.01628
293.82794
293.73191
293.62002
293.5161
293.42372
293.3417
293.26761
293.19906
293.1357
293.07722
293.02331
292.97379
292.9281
292.88527
292.84403
292.80208
292.76025
292.72587
292.72857
292.78839
292.85209
292.89144
292.91947
292.94252
292.96202
292.9778
292.99011
292.99995
293.00752
293.01258
293.01551
293.80848
293.72045
293.61289
293.51245
293.42328
293.34384
293.27186
293.20502
293.14292
293.08525
293.03163
292.98191
292.93565
292.89203
292.8499
292.80724
292.76464
292.72871
292.7277
292.78439
292.84939
292.88953
292.91787
292.94114
292.96083
292.97677
292.98923
292.99918
293.00684
293.01196
293.01509
293.78857
293.70919
293.60602
293.50908
293.42253
293.34541
293.27544
293.21036
293.14966
293.09298
293.03987
292.99013
292.94345
292.89914
292.85619
292.81289
292.7695
292.73193
292.72727
292.78034
292.84652
292.88749
292.91616
292.93965
292.95955
292.97568
292.98829
292.99837
293.0061
293.0113
293.0144
293.76708
293.69714
293.59895
293.50512
293.4213
293.34653
293.2786
293.21538
293.1562
293.10062
293.04814
292.99854
292.95156
292.90666
292.86296
292.81908
292.77492
292.73558
292.7273
292.77632
292.84351
292.88535
292.91435
292.93808
292.9582
292.97451
292.98729
292.99749
293.00532
293.0106
293.01402
293.74444
293.68393
293.59167
293.50128
293.42014
293.34765
293.28171
293.22033
293.16269
293.10825
293.0565
293.00716
292.96001
292.91461
292.87023
292.82583
292.78082
292.73974
292.72773
292.77239
292.84043
292.88319
292.91251
292.93646
292.95679
292.97328
292.98623
292.99657
293.00449
293.00985
293.01305
293.72221
293.67024
293.5846
293.49792
293.41937
293.34901
293.28494
293.22531
293.16918
293.11592
293.06496
293.01598
292.96877
292.92298
292.878
292.83306
292.78724
292.74459
292.72859
292.76854
292.83725
292.88098
292.91063
292.93478
292.95531
292.97199
292.98511
292.99559
293.00361
293.00906
293.01247
293.70214
293.65659
293.57782
293.49525
293.41933
293.35096
293.28862
293.23062
293.17591
293.12378
293.07363
293.02507
292.9779
292.9318
292.88629
292.84076
292.79425
292.75029
292.72992
292.76486
292.83395
292.87871
292.90869
292.93304
292.95376
292.97063
292.98394
292.99455
293.00267
293.00821
293.01153
293.6842
293.64371
293.57169
293.49351
293.42031
293.35385
293.29309
293.23653
293.18309
293.13199
293.08261
293.0345
292.98742
292.9411
292.89512
292.84897
292.80178
292.75668
292.73187
292.76144
292.83056
292.87641
292.90672
292.93124
292.95215
292.9692
292.98269
292.99345
293.00168
293.00731
293.01066
293.66961
293.63272
293.56698
293.49325
293.42276
293.35808
293.2987
293.24335
293.19097
293.14075
293.09204
293.04435
292.99739
292.95089
292.90449
292.85772
292.80986
292.76358
292.73489
292.7584
292.82708
292.87406
292.9047
292.92938
292.95047
292.96771
292.98138
292.99229
293.00062
293.00635
293.00978
293.6594
293.62475
293.56451
293.49509
293.4272
293.3641
293.30581
293.25137
293.19979
293.15025
293.10207
293.05472
293.00786
292.96121
292.91443
292.86706
292.81848
292.77098
292.73884
292.75597
292.82352
292.8717
292.90266
292.92747
292.94872
292.96614
292.98
292.99106
292.9995
293.00533
293.00889
293.65387
293.62051
293.56497
293.49958
293.43412
293.37234
293.31481
293.26091
293.2098
293.16068
293.11283
293.0657
293.0189
292.9721
292.92495
292.877
292.82771
292.77909
292.74366
292.75431
292.8199
292.86933
292.90062
292.92553
292.94692
292.96451
292.97855
292.98976
292.99832
293.00425
293.00793
293.65326
293.62142
293.56949
293.5074
293.44395
293.38313
293.32597
293.27222
293.2212
293.1722
293.12446
293.0774
293.03056
292.98358
292.93607
292.88757
292.8376
292.78794
292.74936
292.75349
292.81624
292.86698
292.89858
292.92355
292.94506
292.96281
292.97703
292.9884
292.99707
293.00311
293.00686
293.65588
293.62483
293.57645
293.51775
293.45629
293.39631
293.3393
293.28539
293.23413
293.18491
293.13706
293.08989
293.04292
292.99571
292.94783
292.89879
292.84816
292.79763
292.75606
292.75376
292.81262
292.86467
292.89657
292.92156
292.94315
292.96105
292.97545
292.98696
292.99575
293.0019
293.00572
293.66174
293.63182
293.58646
293.53079
293.47116
293.41182
293.35475
293.30042
293.24863
293.19891
293.15066
293.10323
293.056
293.00851
292.96026
292.91071
292.8595
292.80821
292.76402
292.75498
292.80913
292.86239
292.89461
292.91957
292.94122
292.95924
292.97379
292.98546
292.99437
293.00061
293.00451
293.66993
293.64189
293.59944
293.54642
293.48835
293.42948
293.37212
293.31715
293.2646
293.21416
293.1653
293.11742
293.06984
293.022
292.97338
292.92341
292.87181
292.8199
292.77295
292.75707
292.80589
292.86023
292.89272
292.9176
292.93925
292.95736
292.97208
292.98389
292.99291
292.99926
293.00323
293.6789
293.65295
293.61371
293.56356
293.50715
293.44876
293.39106
293.33532
293.28187
293.23055
293.18093
293.13243
293.08442
293.0362
292.98722
292.93694
292.88518
292.83279
292.78323
292.75988
292.80288
292.85812
292.89092
292.91568
292.93729
292.95546
292.9703
292.98225
292.99138
292.99783
293.00186
293.68831
293.66448
293.62856
293.58155
293.52705
293.46924
293.41121
293.35466
293.30022
293.24793
293.19745
293.14825
293.0997
293.0511
293.00179
292.95124
292.89928
292.84636
292.79404
292.76401
292.80053
292.85629
292.88923
292.91381
292.93532
292.95351
292.96848
292.98055
292.98979
292.99633
293.00041
293.69831
293.67652
293.6438
293.60003
293.54771
293.49069
293.43238
293.37498
293.31949
293.26615
293.21475
293.16479
293.11565
293.06664
293.01702
292.96622
292.91392
292.86007
292.80596
292.76983
292.79897
292.85443
292.8877
292.91205
292.93338
292.95155
292.96659
292.97878
292.98812
292.99476
292.99888
293.70892
293.68883
293.65902
293.61855
293.56871
293.51279
293.45439
293.39618
293.33958
293.28513
293.23275
293.182
293.13224
293.08278
293.03287
292.98182
292.92913
292.87454
292.81914
292.77732
292.79769
292.85309
292.88626
292.9104
292.93153
292.9496
292.96469
292.97697
292.98639
292.99311
292.99728
293.72024
293.70137
293.67401
293.63666
293.58959
293.53523
293.47707
293.41818
293.36048
293.30486
293.25144
293.19984
293.14943
293.09949
293.04927
292.99797
292.94493
292.88969
292.83306
292.78661
292.79769
292.85145
292.88517
292.90899
292.92967
292.9476
292.96273
292.97508
292.98459
292.99139
292.9956
293.73239
293.71421
293.68856
293.65385
293.60958
293.55726
293.49991
293.44074
293.38212
293.32534
293.27082
293.2183
293.16719
293.11675
293.06617
293.01463
292.96127
292.90545
292.84762
292.79692
292.79946
292.85091
292.8841
292.90772
292.92804
292.94572
292.96079
292.97318
292.98275
292.98959
292.99385
293.74444
293.72686
293.70258
293.66992
293.6282
293.57821
293.52226
293.4634
293.40423
293.34647
293.29087
293.23739
293.18552
293.13453
293.08356
293.03174
292.97812
292.92186
292.8632
292.8093
292.80182
292.85003
292.88401
292.90688
292.92646
292.9438
292.95883
292.97121
292.98084
292.98774
292.99204
293.75504
293.73816
293.71508
293.68439
293.64517
293.59767
293.54358
293.4856
293.42641
293.36801
293.31149
293.25706
293.20439
293.15279
293.1014
293.04929
292.99546
292.93898
292.87984
292.82289
292.80491
292.84903
292.88416
292.90623
292.92494
292.94197
292.95686
292.96924
292.9789
292.98582
292.99016
293.7613
293.74553
293.72411
293.69553
293.65884
293.61414
293.56255
293.50628
293.44787
293.38942
293.33233
293.27713
293.22369
293.17147
293.11964
293.06722
293.01322
292.95665
292.89727
292.83806
292.80921
292.8484
292.88427
292.906
292.92404
292.94044
292.95504
292.96726
292.9769
292.98385
292.98821
293.76112
293.74673
293.72715
293.70105
293.66744
293.626
293.57764
293.52407
293.46742
293.40979
293.35276
293.29716
293.24316
293.19039
293.13813
293.08545
293.03129
292.97464
292.91491
292.85402
292.81628
292.84865
292.88501
292.90614
292.92276
292.93858
292.95305
292.96524
292.97491
292.98185
292.98622
293.75298
293.74017
293.72275
293.69951
293.66945
293.63213
293.58791
293.53796
293.48408
293.42822
293.37204
293.31662
293.26241
293.20929
293.1567
293.1038
293.04954
292.99285
292.93295
292.87098
292.82537
292.8497
292.88574
292.90571
292.92171
292.93749
292.95142
292.96336
292.97288
292.97979
292.98417
293.7372
293.72611
293.71107
293.69098
293.66488
293.63212
293.5926
293.54707
293.49691
293.4438
293.38936
293.33483
293.28093
293.22778
293.17508
293.12208
293.06782
293.01118
292.95125
292.88853
292.83638
292.85098
292.88582
292.90651
292.92216
292.93643
292.94971
292.96133
292.97086
292.97775
292.98212
293.71457
293.70519
293.69257
293.67577
293.65379
293.62578
293.59146
293.55109
293.50549
293.45601
293.40416
293.35126
293.29824
293.2455
293.19296
293.14006
293.08594
293.02949
292.96968
292.90651
292.84926
292.85388
292.88719
292.90746
292.92179
292.93468
292.94798
292.95961
292.96888
292.97565
292.98
293.68695
293.67932
293.66902
293.65523
293.6371
293.61388
293.58497
293.55016
293.50978
293.46471
293.4162
293.36561
293.31403
293.26214
293.21007
293.15751
293.1037
293.04761
292.98814
292.92496
292.86479
292.85785
292.88947
292.90798
292.92174
292.93458
292.94715
292.95777
292.96686
292.97362
292.97792
293.65599
293.64989
293.64171
293.63083
293.61656
293.59803
293.57445
293.54526
293.51037
293.47022
293.42568
293.37797
293.32831
293.2776
293.22628
293.17425
293.12092
293.06534
293.00641
292.94354
292.8809
292.86228
292.89045
292.90905
292.92283
292.93435
292.94547
292.95613
292.96506
292.97155
292.9758
293.62427
293.61918
293.61264
293.60416
293.59308
293.57861
293.55992
293.53623
293.50701
293.47219
293.43224
293.38811
293.34094
293.29183
293.24151
293.19017
293.13745
293.08252
293.02429
292.96191
292.89736
292.86812
292.89277
292.91142
292.92334
292.93392
292.94463
292.95487
292.96315
292.96958
292.97376
293.597
293.59231
293.58643
293.57901
293.56968
293.55788
293.54283
293.52366
293.49957
293.47008
293.43514
293.39523
293.3513
293.30443
293.25554
293.20515
293.15318
293.099
293.04157
292.97986
292.91476
292.87559
292.8957
292.91305
292.92367
292.93461
292.94439
292.9533
292.96153
292.96769
292.97173
293.5767
293.57223
293.56693
293.56049
293.5524
293.54207
293.52891
293.51231
293.49163
293.46622
293.43565
293.3999
293.35948
293.31528
293.26827
293.21913
293.16806
293.11469
293.05814
292.99726
292.93224
292.88439
292.89837
292.91452
292.92512
292.93474
292.94391
292.95262
292.96011
292.96585
292.96981
293.56571
293.56066
293.55493
293.54836
293.54066
293.53143
293.52003
293.50568
293.4875
293.46485
293.43728
293.40467
293.3672
293.32547
293.28029
293.23242
293.18226
293.12968
293.07399
293.01408
292.94965
292.89569
292.90141
292.9173
292.92679
292.9352
292.94418
292.95188
292.95856
292.96432
292.96803
293.56691
293.56137
293.55515
293.54808
293.53992
293.53034
293.51888
293.50498
293.488
293.46716
293.44177
293.41135
293.37593
293.33599
293.29226
293.24546
293.19608
293.14418
293.08927
293.03034
292.96669
292.90797
292.90507
292.92014
292.92853
292.93655
292.94414
292.95083
292.95776
292.96278
292.96634
293.57346
293.56803
293.56181
293.55464
293.54628
293.53646
293.52483
293.51093
293.49414
293.47376
293.44909
293.41975
293.38561
293.34694
293.30431
293.2584
293.20973
293.15843
293.10417
293.04614
292.98332
292.92137
292.90943
292.92291
292.93092
292.93759
292.94438
292.95126
292.95692
292.96149
292.96494
293.57582
293.57118
293.56576
293.55938
293.55176
293.54261
293.53153
293.51804
293.50161
293.48173
293.458
293.42988
293.39673
293.35888
293.31692
293.27155
293.22336
293.17254
293.11889
293.06166
292.99962
292.93484
292.91461
292.9261
292.93343
292.93917
292.94546
292.95136
292.95619
292.96055
292.96366
293.56725
293.56379
293.55966
293.5547
293.54865
293.5412
293.53192
293.52033
293.50583
293.48777
293.46541
293.43827
293.40649
293.37004
293.32921
293.28461
293.23693
293.18658
293.13349
293.07701
293.01578
292.9499
292.92046
292.92945
292.93603
292.94137
292.9462
292.9515