/*--------------------------------*- C++ -*----------------------------------*\
| =========                 |                                                 |
| \\      /  F ield         | OpenFOAM: The Open Source CFD Toolbox           |
|  \\    /   O peration     | Version:  2406                                  |
|   \\  /    A nd           | Website:  www.openfoam.com                      |
|    \\/     M anipulation  |                                                 |
\*---------------------------------------------------------------------------*/
FoamFile
{
    version     2.0;
    format      ascii;
    arch        "LSB;label=32;scalar=64";
    class       volScalarField;
    location    "0.003";
    object      k;
}
// * * * * * * * * * * * * * * * * * * * * * * * * * * * * * * * * * * * * * //

dimensions      [0 2 -2 0 0 0 0];

internalField   nonuniform List<scalar> 
8950
(
268.14852
276.81459
284.4962
290.38123
294.64965
297.81791
300.27734
302.26428
303.91943
305.34572
306.62134
307.79347
308.87965
309.88923
310.81777
311.65713
312.38618
312.97835
313.39644
313.60507
313.6094
313.48162
313.14534
312.62033
311.91139
310.97132
309.82806
308.52062
307.06683
305.44778
303.79829
302.20277
300.56375
298.90419
297.35924
295.93912
294.6254
293.4866
292.52353
291.72266
291.08959
290.62486
290.30575
290.06612
290.00311
290.06273
290.13055
290.1844
290.21513
290.26208
290.37783
290.55669
290.80112
291.12216
291.53536
292.05492
292.68772
293.42823
294.28625
295.24744
296.27051
297.31201
298.32201
299.25452
300.05062
300.64465
300.97176
300.97314
300.63456
299.84189
298.56371
296.77973
294.47239
291.63909
288.29389
284.46387
280.13492
275.3353
228.85277
241.33933
253.47046
263.22392
270.69987
276.5032
281.13145
284.91566
288.09111
290.83342
293.26765
295.47955
297.5173
299.40362
301.14312
302.731
304.15352
305.39291
306.42805
307.234
307.81207
308.17291
308.28498
308.20429
307.89482
307.24805
306.38563
305.30823
304.02894
302.59637
301.13071
299.64576
298.07784
296.51525
295.05047
293.73032
292.54431
291.5272
290.70114
290.07964
289.67153
289.46903
289.46632
289.56231
289.80391
290.16221
290.55228
290.96358
291.41985
292.00282
292.65554
293.3603
294.13286
294.98714
295.93225
296.97154
298.1003
299.30725
300.57745
301.87536
303.15275
304.35705
305.43324
306.32558
306.97337
307.31699
307.30199
306.90912
306.02582
304.63744
302.72419
300.27331
297.2853
293.77641
289.77441
285.30743
280.37903
189.03999
201.66609
214.62363
225.99438
235.60701
243.7577
250.74969
256.82379
262.17733
266.96944
271.32361
275.33207
279.05392
282.52018
285.74283
288.72264
291.45149
293.91487
296.09323
297.9716
299.54928
300.82846
301.80627
302.48298
302.80368
302.76639
302.49494
301.87146
300.99718
299.95232
298.80325
297.54241
296.16156
294.7768
293.48327
292.29859
291.24004
290.39141
289.75089
289.34862
289.21511
289.25928
289.45975
289.83797
290.37322
291.05479
291.85919
292.74467
293.70983
294.77276
295.91619
297.13005
298.41861
299.78436
301.22488
302.73071
304.28406
305.8594
307.42152
308.9216
310.30445
311.51201
312.48567
313.16847
313.50668
313.45348
312.98469
311.98985
310.46783
308.40158
305.78336
302.61714
298.92208
294.73006
290.07772
284.99643
279.51462
154.67802
166.12507
178.1884
189.48478
199.76342
209.0692
217.52643
225.25096
232.35601
238.94344
245.0987
250.88767
256.3521
261.51216
266.37366
270.93302
275.17869
279.09365
282.65832
285.85985
288.69479
291.16029
293.24591
294.93041
296.18763
297.03592
297.51271
297.56887
297.39209
296.94322
296.26699
295.41109
294.39253
293.33328
292.31685
291.37314
290.55294
289.9219
289.56075
289.42632
289.46593
289.69746
290.18824
290.91086
291.83556
292.93553
294.16361
295.49681
296.93354
298.47388
300.10238
301.80538
303.57495
305.40081
307.26721
309.15051
311.01805
312.82904
314.53374
316.07551
317.39531
318.43291
319.13162
319.44352
319.33275
318.7632
317.64067
315.96547
313.7266
310.92081
307.55804
303.65936
299.2607
294.40667
289.13358
283.48638
277.5224
128.87174
138.80787
149.33345
159.632
169.4898
178.85327
187.73515
196.17083
204.20474
211.88126
219.2395
226.30708
233.09595
239.60493
245.82493
251.74082
257.33201
262.57488
267.44499
271.92908
276.01675
279.69293
282.93558
285.72034
288.03425
289.88764
291.29536
292.27143
292.89993
293.18976
293.16237
292.93087
292.43787
291.85831
291.26343
290.70051
290.23608
289.95023
289.85233
289.9562
290.30495
290.91468
291.78682
292.89452
294.2086
295.70927
297.36109
299.14214
301.04051
303.04294
305.12801
307.27372
309.45926
311.66106
313.84952
315.98651
318.02492
319.91181
321.589
322.99747
324.07783
324.77233
325.03717
324.8504
324.15789
322.88874
321.04449
318.61674
315.60829
312.03304
307.91892
303.30816
298.24006
292.75321
286.91035
280.77783
111.5375
119.97059
128.93741
137.95664
146.87605
155.63375
164.20792
172.60236
180.82264
188.87432
196.7613
204.47869
212.01113
219.33762
226.43435
233.27396
239.82582
246.0593
251.94703
257.46866
262.60463
267.32782
271.6084
275.42377
278.76229
281.62163
284.01379
285.9579
287.49258
288.63487
289.41175
289.88141
290.08525
290.13575
290.10964
290.0672
290.08344
290.21021
290.53743
291.05024
291.8155
292.84182
294.11017
295.61911
297.35204
299.27521
301.35925
303.58028
305.91667
308.34309
310.82853
313.34021
315.84473
318.30607
320.68174
322.92027
324.96284
326.7496
328.22056
329.3196
329.98961
330.18734
329.90809
329.07282
327.64121
325.61328
322.98547
319.76365
315.96874
311.64093
306.81106
301.51364
295.80327
289.75282
283.43402
276.91503
100.86821
108.03876
115.59734
123.33789
131.1921
139.09173
147.00882
154.94299
162.88154
170.81054
178.71443
186.56708
194.33587
201.98807
209.49096
216.80847
223.9029
230.73975
237.28887
243.5234
249.41689
254.9314
260.0357
264.71023
268.93967
272.71322
276.03273
278.90723
281.34839
283.37209
285.00279
286.28409
287.27887
288.07182
288.73219
289.33171
289.9458
290.64405
291.48916
292.51276
293.75698
295.25226
296.99219
298.95286
301.12862
303.487
305.99713
308.63297
311.36237
314.14806
316.94832
319.71951
322.41727
324.99578
327.40182
329.57254
331.4423
332.95026
334.04315
334.66956
334.78354
334.39654
333.40492
331.79707
329.57776
326.74232
323.30583
319.30641
314.76027
309.69357
304.16346
298.23354
291.97651
285.46643
278.77446
271.98115
94.523809
100.78993
107.26082
113.88258
120.74266
127.78884
134.96787
142.28802
149.7287
157.26879
164.8859
172.54312
180.20099
187.82401
195.37655
202.81806
210.10803
217.21195
224.09916
230.7395
237.10244
243.14346
248.83669
254.16541
259.1093
263.64627
267.76831
271.47225
274.7575
277.63333
280.11496
282.24081
284.07107
285.66931
287.10005
288.43446
289.74644
291.10409
292.56603
294.17992
295.98692
298.00687
300.25095
302.70704
305.35
308.12864
311.0384
314.0409
317.09281
320.14576
323.14845
326.04822
328.79294
331.33145
333.60201
335.53164
337.05691
338.11945
338.68688
338.7041
338.19793
337.04055
335.2561
332.83738
329.80131
326.18034
321.97098
317.18856
311.88691
306.13727
300.0001
293.54447
286.85087
279.99165
273.04874
266.09324
91.09578
96.628105
102.27396
108.04002
114.0052
120.26838
126.75401
133.45209
140.32992
147.37043
154.55477
161.84053
169.18829
176.5656
183.93872
191.26552
198.5059
205.62902
212.60639
219.40752
226.00203
232.34766
238.42263
244.21315
249.68669
254.8187
259.59399
264.00079
268.03079
271.68455
274.97163
277.92392
280.58414
283.00568
285.24485
287.36503
289.43411
291.51384
293.66145
295.92552
298.34229
300.9327
303.70436
306.64927
309.75786
312.91945
316.17332
319.47078
322.74955
325.95461
329.02813
331.91174
334.5498
336.89168
338.86716
340.39042
341.4201
341.89095
341.82848
341.18069
339.87241
337.90594
335.30823
332.11484
328.29912
323.85911
318.85001
313.33951
307.39104
301.06241
294.42784
287.5674
280.55741
273.48172
266.41477
89.604753
94.547478
99.544331
104.6749
109.94542
115.47441
121.30841
127.40019
133.72321
140.23886
146.94098
153.77866
160.71875
167.73608
174.80229
181.87326
188.91054
195.89104
202.79106
209.58264
216.2389
222.72764
229.0178
235.09832
240.93725
246.50867
251.79278
256.77244
261.43392
265.77106
269.78832
273.5074
276.95942
280.18372
283.22532
286.13988
288.98402
291.80957
294.6701
297.60685
300.6508
303.81929
307.11542
310.52853
314.04052
317.50883
321.05161
324.54642
327.9352
331.16238
334.16646
336.88694
339.26873
341.27061
342.80822
343.77042
344.199
343.99758
343.23426
341.77953
339.68113
336.95327
333.57601
329.53669
324.89297
319.69528
314.00575
307.88393
301.39121
294.6044
287.6058
280.47111
273.28822
266.13222
259.06555
89.296419
93.819804
98.366353
102.97391
107.73283
112.69759
117.91003
123.40619
129.17784
135.17764
141.37391
147.74033
154.23843
160.84869
167.54983
174.29164
181.04035
187.78642
194.5107
201.19276
207.79715
214.29993
220.68168
226.92387
232.99727
238.8779
244.5441
249.97578
255.15583
260.07392
264.72989
269.13647
273.31384
277.28837
281.09288
284.76996
288.36638
291.91464
295.47622
299.06771
302.71586
306.42991
310.20489
314.02074
317.83507
321.58776
325.29374
328.86026
332.23518
335.35087
338.14734
340.56656
342.55811
344.09959
345.04463
345.33369
345.11456
344.26828
342.72803
340.52043
337.62682
334.04159
329.82432
325.02212
319.67902
313.84534
307.5861
300.96618
294.06446
286.96442
279.74342
272.48888
265.27783
258.17161
251.22464
89.92676
94.02215
98.159943
102.39373
106.76742
111.3019
116.03877
121.01963
126.25366
131.73146
137.41357
143.28313
149.31653
155.49727
161.7901
168.16702
174.59799
181.06888
187.56544
194.07771
200.5622
207.00294
213.38838
219.69521
225.90152
231.9871
237.92841
243.70431
249.29691
254.69416
259.89248
264.89616
269.71498
274.36227
278.85941
283.23623
287.52516
291.75352
295.94309
300.12799
304.31782
308.50529
312.67668
316.80255
320.84276
324.74948
328.50489
332.0241
335.2525
338.13228
340.60045
342.59846
344.0803
344.9992
345.3143
345.07378
344.24694
342.62521
340.25728
337.18931
333.46044
329.1229
324.2064
318.75874
312.82969
306.47934
299.77792
292.81104
285.65513
278.39471
271.11604
263.89419
256.79289
249.86355
243.15144
91.29177
95.015625
98.766068
102.60871
106.60633
110.79213
115.17103
119.74338
124.54542
129.56738
134.78848
140.1908
145.76065
151.48122
157.33476
163.30383
169.38031
175.54173
181.77372
188.06113
194.37984
200.70939
207.04154
213.34519
219.60821
225.81563
231.94054
237.96471
243.87256
249.65229
255.29729
260.80096
266.16394
271.3884
276.48595
281.4738
286.36922
291.18654
295.90018
300.58379
305.22102
309.77476
314.23336
318.56085
322.71575
326.65511
330.33891
333.69809
336.66666
339.19536
341.23251
342.72907
343.69279
344.1154
343.86622
342.96555
341.25121
338.7753
335.61665
331.80952
327.39302
322.41227
316.91181
310.94204
304.55857
297.83392
290.85711
283.70322
276.45933
269.21197
262.03453
254.99037
248.13233
241.50117
235.13005
93.206033
96.593867
99.991089
103.47286
107.10119
110.91475
114.93817
119.16699
123.58632
128.21861
133.05442
138.06674
143.24668
148.56728
154.02146
159.60246
165.30995
171.1341
177.05998
183.06546
189.16084
195.32157
201.53278
207.77167
214.02742
220.28229
226.50779
232.69315
238.82682
244.89746
250.89386
256.79275
262.59268
268.28792
273.88099
279.37134
284.76347
290.05344
295.2444
300.28324
305.19185
309.97467
314.59985
319.01086
323.16383
327.01655
330.52511
333.6489
336.32609
338.49495
340.10153
341.1116
341.51156
341.20454
340.20654
338.48905
336.0383
332.88224
329.05557
324.61515
319.6253
314.13127
308.18445
301.83409
295.15572
288.23165
281.1454
273.9848
266.83168
259.76102
252.83555
246.10762
239.61803
233.39498
227.45587
95.535926
98.607444
101.66903
104.80572
108.08136
111.53693
115.1954
119.06496
123.14067
127.39959
131.86259
136.512
141.33143
146.30869
151.42187
156.67023
162.05391
167.56806
173.20407
178.94098
184.7831
190.72944
196.75833
202.86517
209.03821
215.25928
221.5142
227.77837
234.05056
240.31901
246.56626
252.75055
258.87747
264.93473
270.91151
276.78044
282.54275
288.18169
293.68649
299.03096
304.17909
309.09961
313.76863
318.15321
322.21188
325.90061
329.16962
331.95453
334.1982
335.85276
336.88459
337.26038
337.0113
336.06969
334.39816
332.01866
328.93887
325.18727
320.79787
315.85552
310.43435
304.5762
298.3326
291.77761
284.98139
278.03488
271.02806
264.04106
257.14579
250.40637
243.87437
237.58956
231.57938
225.85921
98.170528
100.93187
103.66385
106.46187
109.3926
112.49863
115.80403
119.31842
123.04207
126.96266
131.06916
135.36811
139.84091
144.47618
149.26224
154.1971
159.27937
164.50534
169.8686
175.36249
180.97468
186.70681
192.54768
198.49142
204.52519
210.64021
216.83685
223.09121
229.39779
235.75
242.13384
248.52913
254.87276
261.17766
267.41586
273.53168
279.5347
285.39623
291.08733
296.55337
301.78373
306.73485
311.36201
315.62392
319.47864
322.88096
325.78232
328.132
329.898
331.04648
331.53982
331.3706
330.54548
328.99843
326.74022
323.79607
320.19421
315.96373
311.14825
305.85837
300.16323
294.10585
287.74851
281.16426
274.43802
267.66077
260.91374
254.26837
247.78645
241.51986
235.50714
229.77423
224.33484
219.19386
100.99733
103.44789
105.85206
108.3149
110.9066
113.67138
116.63443
119.80651
123.18854
126.77603
130.54898
134.51405
138.65804
142.97058
147.44497
152.07979
156.87329
161.82112
166.91902
172.16403
177.54976
183.07355
188.72698
194.50214
200.39016
206.38489
212.47556
218.66253
224.92209
231.24333
237.61066
244.02664
250.43929
256.83526
263.19094
269.47336
275.5934
281.55522
287.31291
292.78193
297.9682
302.81131
307.27869
311.3203
314.89534
317.96045
320.47532
322.40151
323.70724
324.36319
324.35136
323.68512
322.31745
320.25965
317.51608
314.12697
310.13356
305.56559
300.48306
295.01164
289.21884
283.14334
276.85273
270.43133
263.9641
257.53382
251.21271
245.062
239.13141
233.45884
228.06864
222.9725
218.17085
213.65722
103.90497
106.04304
108.12364
110.25668
112.51714
114.95074
117.58373
120.42756
123.48356
126.74679
130.20632
133.85623
137.68984
141.69713
145.87446
150.22158
154.73633
159.41374
164.25236
169.25231
174.40915
179.71813
185.17244
190.76531
196.49117
202.34328
208.31579
214.39971
220.57801
226.82749
233.12124
239.43626
245.76346
252.07555
258.33653
264.54528
270.62155
276.52761
282.22719
287.65572
292.72177
297.38743
301.63039
305.39603
308.64913
311.34956
313.46547
314.9679
315.8302
316.03273
315.58203
314.45609
312.6548
310.19221
307.0877
303.39238
299.15564
294.4078
289.23165
283.75957
278.04918
272.13708
266.10165
260.02621
253.9904
248.06743
242.31874
236.79313
231.52647
226.54176
221.84906
217.44635
213.32187
209.45825
106.79345
108.62378
110.38476
112.19638
114.13672
116.25235
118.57037
121.10256
123.85024
126.80845
129.96927
133.32227
136.86264
140.58044
144.47489
148.54551
152.78955
157.20188
161.78451
166.53861
171.45905
176.54068
181.77775
187.16437
192.69714
198.37178
204.17966
210.10939
216.14971
222.26782
228.44495
234.65162
240.84539
247.00859
253.09714
259.07207
264.92331
270.58818
276.02431
281.22978
286.09063
290.56282
294.54356
298.0073
300.92535
303.26092
304.98979
306.09502
306.56011
306.37667
305.54968
304.06504
301.94334
299.20289
295.87933
292.02936
287.709
282.9497
277.85968
272.56744
267.11821
261.54831
255.94127
250.375
244.92101
239.64088
234.5831
229.78248
225.2603
221.02483
217.07273
213.38969
209.95399
206.74654
109.57286
111.09954
112.55026
114.05699
115.6932
117.50875
119.53107
121.77171
124.23151
126.90512
129.78457
132.8593
136.12478
139.57007
143.19325
146.99757
150.97728
155.12835
159.45599
163.9599
168.63429
173.47453
178.47514
183.63079
188.93965
194.39881
199.9995
205.72716
211.56064
217.48161
223.4685
229.47317
235.47127
241.43386
247.31328
253.06511
258.65416
264.02528
269.12682
273.93787
278.42053
282.54539
286.21723
289.39487
291.99341
293.98885
295.36761
296.12603
296.26552
295.7772
294.66595
292.94081
290.62478
287.74642
284.35408
280.50727
276.26621
271.67131
266.84097
261.9001
256.87691
251.80905
246.77998
241.85921
237.10724
232.57218
228.28839
224.27631
220.54311
217.08352
213.88335
210.92524
208.17613
205.59312
112.15117
113.39093
114.55654
115.7766
117.12889
118.66786
120.41885
122.39234
124.58818
127.00016
129.61964
132.43636
135.4437
138.63353
142.00016
145.54741
149.27186
153.16651
157.23727
161.48638
165.90624
170.49259
175.23974
180.14225
185.19939
190.40868
195.76036
201.23819
206.82146
212.49058
218.21484
223.95242
229.6898
235.3795
240.97803
246.4411
251.72734
256.78759
261.57059
266.0277
270.12388
273.81605
277.08183
279.88761
282.17422
283.89595
284.98143
285.46874
285.36867
284.67071
283.38965
281.54611
279.16961
276.29898
272.98962
269.30267
265.30147
261.03582
256.62684
252.18746
247.73063
243.29645
238.96313
234.78897
230.82143
227.09431
223.6279
220.42916
217.49303
214.80554
212.34475
210.0705
207.94805
205.9411
114.44935
115.43197
116.33673
117.29456
118.39716
119.69115
121.2012
122.93692
124.89691
127.07391
129.45831
132.04035
134.81078
137.76133
140.88775
144.19017
147.66658
151.31326
155.13247
159.12512
163.2834
167.60579
172.08735
176.71987
181.50341
186.43557
191.50572
196.69674
201.98792
207.35726
212.77447
218.20444
223.6228
228.98789
234.25629
239.38392
244.3273
249.04056
253.47684
257.5893
261.34059
264.68344
267.58569
270.00884
271.95062
273.39325
274.26802
274.57203
274.32486
273.52265
272.18905
270.35332
268.05191
265.33131
262.25
258.86984
255.25574
251.464
247.61206
243.79358
240.01167
236.30693
232.74806
229.38042
226.23778
223.33993
220.69441
218.29651
216.13194
214.17701
212.39728
210.75747
209.21741
207.73792
116.39116
117.15291
117.83545
118.57847
119.46931
120.55392
121.8584
123.39041
125.14708
127.11981
129.2977
131.67119
134.229
136.96303
139.8687
142.94438
146.18734
149.59444
153.1666
156.9053
160.80631
164.86341
169.06962
173.42269
177.91925
182.55642
187.32299
192.20168
197.17205
202.21135
207.29101
212.37926
217.44727
222.45699
227.36687
232.1345
236.71747
241.07309
245.15779
248.92809
252.3459
255.3717
257.97801
260.1295
261.80368
262.99417
263.69543
263.89631
263.59304
262.79202
261.52163
259.81667
257.71879
255.27866
252.55518
249.60943
246.50565
243.30234
240.10789
236.99364
233.95662
231.03573
228.28717
225.74299
223.42421
221.3377
219.48062
217.83881
216.39094
215.10655
213.9497
212.88163
211.8618
210.85034
117.91965
118.51062
119.02377
119.59772
120.31613
121.23589
122.3782
123.74661
125.33754
127.14151
129.14632
131.34175
133.71639
136.26093
138.9701
141.84069
144.86953
148.05412
151.39418
154.88919
158.5359
162.33278
166.26909
170.33967
174.54579
178.88099
183.33374
187.88743
192.52255
197.21685
201.94387
206.67449
211.37896
216.02191
220.56487
224.96828
229.19249
233.19808
236.9448
240.39333
243.50822
246.25604
248.61123
250.54755
252.047
253.10176
253.69082
253.86846
253.60153
252.90359
251.80469
250.3423
248.56064
246.51142
244.25175
241.84
239.33688
236.79934
234.32292
231.95659
229.69248
227.56715
225.62294
223.87921
222.34669
221.02074
219.88892
218.93699
218.13399
217.44749
216.84077
216.27466
215.70933
215.10543
118.98845
119.46538
119.8638
120.32179
120.9264
121.72997
122.75301
124.00217
125.47173
127.149
129.02071
131.07359
133.29831
135.68548
138.22813
140.92182
143.76242
146.74745
149.87583
153.14627
156.55611
160.10248
163.78005
167.5795
171.5014
175.53939
179.6805
183.90988
188.20969
192.55917
196.93422
201.30822
205.65253
209.93471
214.11989
218.17213
222.05533
225.73384
229.1715
232.33362
235.18851
237.70769
239.86871
241.65445
243.04834
244.04362
244.63246
244.86153
244.72316
244.22116
243.38783
242.26111
240.88515
239.31012
237.58964
235.77698
233.92664
232.0922
230.35351
228.7387
227.23512
225.87752
224.6958
223.69685
222.8768
222.23594
221.75762
221.41342
221.17351
221.00537
220.87292
220.73862
220.56385
220.31003
119.53268
119.96536
120.31758
120.72765
121.28112
122.02544
122.9844
124.16385
125.55718
127.15312
128.93714
130.89303
133.00878
135.27513
137.68503
140.234
142.91804
145.7338
148.6789
151.75152
154.94919
158.26878
161.70582
165.25419
168.91092
172.66798
176.51195
180.43082
184.40898
188.42785
192.4659
196.49918
200.50142
204.44354
208.29458
212.02259
215.59549
218.98174
222.15013
225.07138
227.71739
230.06412
232.09219
233.78774
235.14777
236.1615
236.8406
237.19482
237.25698
237.02586
236.53091
235.80809
234.89861
233.8488
232.70819
231.52268
230.33807
229.20545
228.18617
227.29007
226.50072
225.84989
225.34596
225.00945
224.83443
224.79965
224.87769
225.05352
225.29236
225.56336
225.83232
226.06357
226.22051
226.26425
119.59926
120.04642
120.40879
120.82481
121.37892
122.11991
123.07102
124.23468
125.60371
127.16701
128.90937
130.81488
132.86995
135.06352
137.38682
139.8331
142.39857
145.07987
147.87441
150.78029
153.79571
156.91902
160.14562
163.47087
166.89129
170.39546
173.96836
177.60263
181.28504
184.99969
188.72789
192.44867
196.13887
199.77313
203.32459
206.76559
210.06824
213.20502
216.14908
218.87618
221.36536
223.59589
225.55275
227.22372
228.61132
229.71332
230.53414
231.09227
231.40812
231.49896
231.38985
231.11096
230.69793
230.18994
229.63423
229.06745
228.52682
228.06324
227.71078
227.46364
227.30049
227.27186
227.38843
227.63775
228.00344
228.47103
229.0194
229.62641
230.26272
230.89831
231.5012
232.03816
232.47516
232.77707
119.15139
119.68187
120.12063
120.60658
121.22309
122.0186
123.01561
124.217
125.61568
127.1977
128.94765
130.84982
132.89002
135.05636
137.33924
139.73124
142.22722
144.82259
147.51397
150.29859
153.17369
156.13713
159.18744
162.32271
165.54279
168.83023
172.16817
175.55454
178.97715
182.42369
185.87853
189.32404
192.74054
196.10665
199.3997
202.59642
205.67344
208.60772
211.37706
213.96127
216.3443
218.51047
220.44858
222.15206
223.61936
224.85427
225.8632
226.66428
227.27665
227.71855
228.01324
228.18983
228.27541
228.29361
228.28984
228.30377
228.36631
228.49517
228.71066
229.02609
229.44897
229.96992
230.59663
231.32134
232.13155
233.01164
233.94201
234.9
235.85941
236.79233
237.6693
238.45964
239.13197
239.6547
118.19193
118.87062
119.44926
120.06727
120.80666
121.71532
122.81531
124.10944
125.59037
127.2442
129.05485
131.00612
133.08308
135.27295
137.56515
139.95142
142.42508
144.98117
147.61585
150.3261
153.10955
155.96364
158.88637
161.87682
164.93839
168.05135
171.19743
174.38302
177.58948
180.81138
184.03638
187.25028
190.43708
193.57962
196.65935
199.65728
202.55451
205.33268
207.97437
210.46389
212.78695
214.93265
216.8934
218.66525
220.24822
221.64841
222.87409
223.93926
224.86164
225.65869
226.34995
226.96174
227.5139
228.02842
228.52528
229.03734
229.60742
230.26858
231.016
231.82412
232.70801
233.66777
234.70478
235.81163
236.97658
238.18444
239.41704
240.6534
241.86998
243.04144
244.14081
245.13984
246.0096
246.72304
116.74381
117.62925
118.40614
119.21394
120.13298
121.21051
122.46832
123.90937
125.52624
127.30506
129.22938
131.28251
133.44889
135.71483
138.06889
140.5017
143.00575
145.57511
148.20529
150.89275
153.63474
156.42895
159.27374
162.16909
165.12249
168.11413
171.12083
174.14634
177.18455
180.22966
183.27247
186.30186
189.30531
192.27017
195.18209
198.02599
200.78718
203.45155
206.00588
208.43763
210.73642
212.89476
214.90791
216.77405
218.49456
220.07473
221.52402
222.85335
224.078
225.21304
226.27242
227.26132
228.211
229.14611
230.09915
231.07964
232.11187
233.20856
234.36132
235.55945
236.80849
238.11172
239.4682
240.87068
242.30836
243.76752
245.23196
246.683
248.09976
249.45941
250.73741
251.90763
252.943
253.81927
289.55101
365.00038
462.42401
531.60673
561.75578
562.83666
545.74526
514.79222
480.19939
293.11892
363.01845
456.69303
524.26064
554.25933
556.02279
539.11745
508.97424
474.89389
296.35614
361.2086
450.99233
516.9448
546.77966
549.14727
532.51043
503.10655
469.5292
299.43662
359.52145
445.34706
509.69227
539.34404
542.22504
525.9121
497.19078
464.10515
302.10639
357.94739
439.78676
502.51575
531.94378
535.26532
519.31413
491.22925
458.62372
304.33668
356.44312
434.33951
495.41522
524.5812
528.27979
512.71323
485.22603
453.08866
306.20928
354.9868
429.02285
488.41824
517.26189
521.2807
506.10918
479.18593
447.50437
307.832
353.57764
423.84974
481.50797
509.99279
514.2794
499.50348
473.1138
441.87532
309.31302
352.21906
418.83153
474.71502
502.78626
507.28701
492.89887
467.01435
436.20584
310.66448
350.87495
413.97548
468.05592
495.65086
500.31362
486.29889
460.89231
430.50039
311.92723
349.61423
409.29165
461.53228
488.59448
493.36835
479.70759
454.75239
424.76341
313.1219
348.39631
404.79171
455.15542
481.62593
486.45972
473.12931
448.59946
418.9995
314.24016
347.21851
400.46055
448.92821
474.75252
479.59557
466.56851
442.43825
413.21324
315.26498
346.06718
396.28091
442.85418
467.98034
472.78274
460.02922
436.27312
407.40907
316.18402
344.92919
392.25717
436.93245
461.31398
466.02604
453.51359
430.10768
401.59109
316.99344
343.79301
388.3796
431.16067
454.75632
459.32916
447.0271
423.94676
395.76339
317.69042
342.64388
384.63122
425.53302
448.30838
452.69532
440.573
417.79372
389.92994
318.19794
341.46564
380.99461
420.04144
441.96998
446.12669
434.15301
411.65113
384.09366
318.49973
340.23142
377.45062
414.67715
435.74479
439.62459
427.76824
405.5211
378.2573
318.5068
338.92719
373.9826
409.43592
429.62634
433.1907
421.41919
399.40524
372.42348
318.37909
337.56096
370.56701
404.31011
423.59568
426.82391
415.10573
393.30504
366.59439
318.07345
335.99259
367.1843
399.28819
417.64315
420.52116
408.82958
387.22244
360.77214
317.56744
334.39228
363.87043
394.36505
411.76557
414.28083
402.59047
381.15787
354.95821
316.85881
332.83071
360.58403
389.52468
405.95741
408.10009
396.38482
375.11068
349.15368
316.0102
331.09796
357.28436
384.74893
400.21241
401.97434
390.21113
369.08114
343.35972
314.97223
329.21218
353.98172
380.03058
394.52587
395.8981
384.06814
363.06959
337.57756
313.74721
327.23601
350.69003
375.36828
388.89441
389.86734
377.95489
357.07654
331.80857
312.37727
325.20409
347.41584
370.75744
383.31526
383.88067
371.87124
351.10287
326.05431
310.94125
323.11787
344.16636
366.19156
377.78567
377.9387
365.81773
345.14989
320.31657
309.29707
320.96207
340.94228
361.66374
372.32004
372.03967
359.79511
339.21916
314.59735
307.62541
318.85221
337.76875
357.18044
366.92336
366.18334
353.80446
333.31252
308.89879
306.12721
316.78549
334.64602
352.746
361.59466
360.37171
347.84727
327.43199
303.22314
304.56129
314.69358
331.55707
348.36067
356.33226
354.60358
341.92545
321.57997
297.57272
302.94018
312.63213
328.51353
344.03086
351.13916
348.8901
336.04378
315.7594
291.95005
301.41887
310.65499
325.5379
339.76501
346.01929
343.23472
330.20285
309.97178
286.35715
299.98737
308.76359
322.63507
335.56692
340.97503
337.63833
324.4049
304.21946
280.79606
298.66883
306.94867
319.80151
331.43752
336.00734
332.10158
318.65364
298.50557
275.26916
297.47145
305.2119
317.03641
327.37709
331.11547
326.6251
312.95216
292.83288
269.77882
296.39356
303.55597
314.33772
323.38373
326.29725
321.20881
307.30096
287.20293
264.32714
295.42929
301.97686
311.69925
319.45309
321.54916
315.85151
301.69973
281.61683
258.91611
294.57193
300.46529
309.11203
315.57972
316.86599
310.55094
296.14779
276.07551
253.54776
293.81799
299.01344
306.56763
311.751
312.24295
305.30416
290.64449
270.58001
248.22435
293.14748
297.6002
304.03325
307.98845
307.66757
300.10687
285.18888
265.1314
242.94838
292.53547
296.22172
301.46227
304.31464
303.12325
294.95424
279.77993
259.73087
237.72257
291.99325
294.86662
298.85876
300.70087
298.6087
289.8429
274.41686
254.37977
232.54979
291.49995
293.50776
296.2335
297.12748
294.12118
284.76978
269.09916
249.0797
227.43314
291.01722
292.11956
293.59318
293.5828
289.65675
279.73224
263.82656
243.83237
222.37568
290.50302
290.63879
291.04223
290.03104
285.21001
274.72857
258.59948
238.63981
217.38046
289.95338
289.13953
288.50959
286.47085
280.77929
269.7583
253.41912
233.50452
212.45079
289.39439
287.64804
285.96821
282.90396
276.36517
264.82262
248.2878
228.42973
207.59034
288.84727
286.16502
283.4237
279.33641
271.97098
259.92477
243.20934
223.4197
202.80358
288.32885
284.6996
280.88654
275.77792
267.60321
255.07041
238.18934
218.4801
198.09602
287.85507
283.267
278.37223
272.24226
263.27188
250.26794
233.23551
213.61814
193.47423
287.44496
281.88798
275.90136
268.74754
258.99077
245.52876
228.35797
208.8431
188.94684
287.12041
280.58778
273.49919
265.31616
254.7775
240.86729
223.56926
204.1662
184.52383
286.90569
279.39407
271.19486
261.9745
250.65331
236.30089
218.88418
199.6006
180.21716
286.82665
278.33379
269.02038
258.75232
246.64254
231.84933
214.3194
195.16077
176.0397
286.86425
277.43317
267.00948
255.68158
242.77188
227.53413
209.89252
190.86152
172.00392
287.05399
276.7235
265.19494
252.79478
239.0692
223.37759
205.62144
186.71755
168.12233
287.43093
276.22062
263.60417
250.1228
235.5623
219.40194
201.5234
182.74227
164.40542
287.9426
275.92807
262.25637
247.69271
232.27768
215.62868
197.61429
178.9469
160.86063
288.56471
275.84409
261.15942
245.52683
229.23956
212.07783
193.9085
175.34104
157.49399
289.24925
275.89623
260.31433
243.6428
226.46906
208.76721
190.41854
171.93239
154.30963
289.97223
276.11143
259.72594
242.05169
223.98297
205.71187
187.15466
168.72628
151.30871
290.68628
276.4788
259.37523
240.75417
221.79222
202.92373
184.12553
165.72732
148.49229
291.32247
276.90588
259.23289
239.73843
219.90015
200.41129
181.33876
162.94064
145.8638
291.81113
277.32764
259.23361
238.97863
218.30263
198.17921
178.79953
160.36857
143.42216
292.07926
277.67874
259.30818
238.44692
216.98991
196.22868
176.51119
158.01225
141.16508
292.06935
277.90506
259.456
238.10644
215.94527
194.55776
174.47711
155.87582
139.0966
291.79225
277.92538
259.57709
237.90532
215.14375
193.15875
172.69835
153.96443
137.22641
291.09403
277.75842
259.60145
237.7939
214.55037
192.01234
171.16514
152.27431
135.55388
289.94104
277.2619
259.5174
237.7151
214.11519
191.08611
169.85933
150.79885
134.06342
288.31088
276.3396
259.21423
237.57824
213.77123
190.33669
168.75972
149.51361
132.73105
286.17865
274.98619
258.54434
237.29276
213.44985
189.72229
167.84491
148.39684
131.56962
283.54026
273.17669
257.51784
236.80188
213.09055
189.19332
167.04052
147.4157
130.53209
280.41705
270.89932
256.10069
236.05128
212.63365
188.68635
166.33811
146.58647
129.64774
276.77818
268.11508
254.2373
234.95806
211.95432
272.61058
441.34126
394.36545
346.89975
299.77363
253.51598
208.15858
163.31074
117.80888