/*--------------------------------*- C++ -*----------------------------------*\
| =========                 |                                                 |
| \\      /  F ield         | OpenFOAM: The Open Source CFD Toolbox           |
|  \\    /   O peration     | Version:  2406                                  |
|   \\  /    A nd           | Website:  www.openfoam.com                      |
|    \\/     M anipulation  |                                                 |
\*---------------------------------------------------------------------------*/
FoamFile
{
    version     2.0;
    format      ascii;
    arch        "LSB;label=32;scalar=64";
    class       volScalarField;
    location    "0.003";
    object      omega;
}
// * * * * * * * * * * * * * * * * * * * * * * * * * * * * * * * * * * * * * //

dimensions      [0 0 -1 0 0 0 0];

internalField   nonuniform List<scalar> 
8950
(
159735.25
152571.68
145461.03
138931.24
132825.72
127125.65
121806.12
116835.31
112184.43
107828.4
103744.29
99908.949
96297.988
92891.104
89666.131
86606.687
83698.761
80948.916
78339.597
75853.944
73477.202
71193.531
68995.61
66880.956
64838.385
62857.943
60933.031
59062.287
57241.643
55463.237
53731.718
52054.906
50423.548
48835.025
47299.577
45820.423
44396.478
43034.46
41736.62
40503.823
39337.469
38238.08
37205.451
36238.391
35335.291
34494.308
33713.153
32989.182
32319.466
31700.892
31130.23
30604.142
30119.207
29671.907
29258.609
28875.56
28518.89
28184.649
27868.852
27567.569
27276.997
26993.526
26713.806
26434.894
26154.378
25870.454
25581.797
25287.532
24987.1
24680.275
24367.364
24049.004
23726.546
23401.766
23076.101
22750.49
22429.468
22131.404
132566.88
130104.89
126546.66
122718.55
118727.9
114738.61
110848.86
107108.04
103539.65
100151.67
96942.829
93906.252
91030.473
88301.792
85705.83
83229.187
80863.072
78597.365
76420.408
74321.722
72290.517
70317.602
68399.341
66529.785
64699.358
62909.996
61156.69
59431.924
57730.769
56050.895
54399.324
52777.342
51179.895
49612.963
48084.742
46602.531
45168.019
43786.796
42464.514
41205.112
40010.074
38881.429
37819.849
36824.926
35895.433
35029.825
34225.97
33481.182
32792.402
32156.292
31569.347
31027.849
30527.938
30065.618
29636.757
29237.112
28862.363
28508.191
28170.357
27844.772
27527.606
27215.369
26904.965
26593.878
26280.152
25962.468
25639.953
25312.25
24979.572
24642.344
24300.453
23955.005
23607.889
23261.027
22915.594
22573.488
22243.878
100491.26
99632.534
98535.92
97205.943
95619.229
93871.889
92033.928
90156.083
88276.717
86422.232
84609.474
82848.127
81141.288
79487.483
77883.282
76324.868
74805.052
73316.207
71853.297
70410.545
68981.178
67561.035
66147.363
64733.353
63310.715
61865.43
60404.547
58930.789
57444.702
55950.346
54466.43
52987.565
51506.375
50032.773
48574.921
47142.114
45740.13
44379.977
43067.566
41807.02
40605.655
39466.011
38390.201
37379.134
36432.577
35549.592
34728.421
33966.6
33261.095
32608.465
32005.013
31446.735
30929.405
30448.637
29999.913
29578.642
29180.229
28800.201
28434.272
28078.394
27728.936
27382.735
27037.093
26690.054
26340.166
25986.717
25629.755
25269.431
24904.874
24536.132
24165.286
23794.298
23424.912
23058.783
22697.013
22342.533
22007.655
72742.085
72706.71
72860.565
72985.113
72947.334
72794.392
72498.211
72106.059
71643.956
71132.456
70587.2
70019.049
69433.888
68833.822
68218.676
67586.694
66934.61
66257.565
65557.605
64829.73
64067.272
63269.099
62432.534
61550.99
60618.654
59639.548
58610.355
57528.003
56393.592
55211.262
53973.433
52691.071
51373.851
50042.041
48713.339
47385.297
46065.699
44764.912
43497.428
42268.59
41085.569
39956.079
38883.604
37870.527
36918.179
36026.604
35194.694
34420.442
33701.093
33033.31
32413.306
31836.909
31299.695
30797.07
30324.323
29876.728
29449.632
29038.653
28639.664
28248.846
27862.977
27479.357
27095.784
26711.141
26325.237
25937.436
25546.346
25151.468
24754.492
24357.086
23960.903
23567.659
23179.136
22796.819
22421.818
22059.21
21723.393
52702.335
52991.44
53577.087
54234.814
54872.791
55465.229
55994.761
56464.792
56880.788
57248.363
57572.491
57856.344
58100.811
58305.077
58467.361
58585.016
58654.637
58669.811
58643.703
58560.142
58408.374
58195.563
57915.826
57561.902
57128.536
56622.952
56036.762
55363.187
54606.488
53772.157
52862.019
51873.611
50815.818
49691.872
48520.696
47319.504
46114.285
44913.427
43724.029
42554.972
41417.979
40320.191
39268.983
38269.009
37322.955
36432.212
35596.605
34814.862
34084.75
33403.224
32766.615
32170.784
31611.37
31083.821
30583.463
30105.678
29645.975
29200.328
28764.923
28336.333
27911.949
27489.864
27070.043
26649.978
26228.075
25803.291
25377.119
24950.955
24525.994
24103.674
23685.684
23273.789
22869.672
22474.478
22090.082
21723.671
39795.182
40016.433
40530.363
41211.153
41974.553
42781.353
43606.733
44436.856
45262.026
46075.144
46870.595
47642.932
48386.554
49096.072
49766.365
50392.395
50969.476
51494.287
51962.729
52367.621
52704.43
52969.629
53156.17
53256.438
53261.392
53196.797
53023.846
52736.875
52353.09
51870.576
51280.84
50587.531
49798.6
48929.528
47986.241
46978.819
45916.122
44824.95
43727.426
42642.083
41573.328
40529.178
39516.356
38543.727
37616.057
36735.57
35903.292
35119.053
34381.395
33687.778
33034.891
32418.866
31835.74
31281.284
30751.066
30240.792
29746.357
29264.394
28791.654
28326.242
27866.719
27409.131
26951.548
26492.738
26033.967
25576.32
25120.427
24667.378
24218.467
23775.297
23339.615
22913.077
22497.009
22092.864
21703.194
21336.161
31778.005
31801.342
32080.845
32593.213
33253.766
34022.322
34869.653
35775.202
36721.598
37694.747
38682.671
39674.316
40659.747
41630.34
42578.421
43496.879
44379.257
45219.691
46012.2
46750.235
47428.041
48038.349
48573.376
49026.688
49392.909
49669.05
49838.349
49889.12
49844.134
49686.863
49393.098
48987.028
48466.087
47840.436
47117.601
46312.116
45437.742
44508.002
43532.986
42537.013
41537.349
40555.823
39597.328
38665.488
37766.686
36905.165
36082.706
35300.988
34559.357
33855.929
33188.002
32552.201
31945.353
31363.828
30803.555
30261.069
29734.309
29220.631
28714.769
28214.216
27715.527
27218.746
26723.859
26231.981
25742.928
25257.459
24776.405
24301.069
23832.867
23373.475
22924.548
22487.371
22063.544
21654.68
21263.866
20900.261
26715.422
26547.189
26632.704
26935.839
27442.575
28096.461
28863.539
29721.686
30650.892
31634.452
32657.957
33708.028
34773.047
35843.156
36909.536
37963.91
38998.76
40007.301
40982.895
41918.68
42807.745
43641.251
44411.715
45112.201
45735.043
46270.709
46706.917
47036.626
47258.698
47355.574
47328.452
47188.228
46907.192
46511.29
46001.811
45390.99
44691.623
43919.073
43092.868
42223.961
41325.486
40414.514
39508.846
38617.697
37749.674
36910.97
36104.552
35330.732
34589.395
33879.548
33199.539
32547.665
31922.434
31319.411
30734.487
30164.888
29607.557
29058.026
28514.576
27976.359
27442.789
26914.167
26389.86
25870.455
25356.31
24848.222
24347.258
23854.844
23372.45
22901.696
22443.875
22000.562
21573.432
21164.05
20776.72
20421.096
23400.563
23079.559
23027.21
23184.692
23547.377
24082.753
24749.734
25523.858
26384.061
27313.859
28299.061
29325.902
30382.76
31459.915
32548.569
33640.221
34727.264
35803.034
36860.963
37894.096
38895.298
39855.735
40768.084
41624.849
42415.931
43130.509
43757.592
44288.083
44713.201
45021.151
45207.465
45262.38
45200.363
45011.005
44691.815
44260.708
43727.744
43107.169
42414.545
41664.342
40876.878
40061.52
39232.634
38399.735
37576.496
36764.985
35976.441
35213.022
34475.195
33762.884
33075.196
32410.604
31765.897
31138.552
30525.443
29925.28
29335.489
28754.306
28181.388
27614.785
27054.289
26500.06
25952.177
25411.247
24877.907
24353.022
23837.843
23333.854
22842.488
22365.058
21903.16
21458.44
21032.296
20626.968
20247.197
21148.28
20716.15
20569.228
20646.199
20906.907
21340.294
21912.96
22599.165
23379.147
24234.867
25153.871
26122.276
27129.438
28166.611
29225.774
30298.639
31378.035
32458.134
33532.961
34595.944
35640.407
36658.572
37642.129
38583.421
39472.04
40297.082
41047.562
41712.704
42281.357
42742.402
43087.777
43309.921
43407.029
43379.195
43234.441
42958.833
42574.561
42092.481
41526.262
40890.801
40202.697
39474.331
38719.711
37953.834
37184.664
36412.108
35652.99
34907.651
34178.525
33467.04
32773.332
32096.533
31435.035
30788.047
30155.277
29534.013
28922.237
28319.071
27723.771
27135.531
26554.66
25981.567
25416.697
24860.743
24314.481
23778.884
23255.332
22745.29
22249.944
21770.955
21309.966
20868.293
20447.814
20050.696
19681.127
19564.785
19073.131
18866.795
18886.909
19082.631
19444.755
19938.084
20543.752
21244.936
22024.9
22869.431
23767.482
24708.533
25684.862
26689.544
27714.345
28752.956
29801.027
30853.314
31904.164
32946.562
33973.709
34978.251
35951.971
36884.876
37766.495
38585.823
39331.39
39991.387
40554.509
41011.126
41352.982
41575.432
41674.159
41652.532
41518.035
41259.066
40897.673
40444.927
39914.512
39320.801
38676.807
37996.074
37291.512
36571.438
35842.381
35115.207
34392.95
33679.483
32976.583
32285.389
31606.154
30938.822
30283.241
29638.702
29003.674
28377.284
27759.218
27148.92
26546.344
25952.315
25367.474
24792.484
24228.127
23675.292
23135.118
22608.936
22098.092
21604.16
21128.813
20673.382
20239.619
19829.098
19443.728
19087.139
18429.387
17906.756
17665.726
17647.165
17800.152
18112.53
18547.98
19088.246
19718.462
20424.98
21194.854
22018.466
22887.18
23794.069
24731.606
25693.948
26675.588
27672.193
28679.29
29692.397
30704.278
31709.064
32700.213
33669.507
34607.943
35505.709
36351.912
37135.12
37843.65
38466.232
38992.694
39414.159
39723.969
39917.383
39992.124
39955.376
39807.376
39546.343
39191.476
38754.202
38247.041
37682.31
37072.471
36429.046
35761.337
35077.438
34386.501
33692.671
33000.438
32312.733
31631.268
30957.109
30291.384
29634.333
28985.54
28344.532
27711.367
27086.028
26468.306
25858.848
25258.967
24669.459
24091.188
23525.001
22971.861
22432.948
21909.618
21403.659
20916.462
20449.611
20004.783
19583.329
19186.521
18816.201
18475.575
17603.813
17066.771
16805.822
16760.811
16885.477
17157.955
17549.012
18038.71
18611.766
19254.479
19956.428
20708.97
21504.838
22337.636
23201.837
24092.986
25007.671
25941.24
26889.554
27848.071
28811.39
29773.626
30728.824
31668.685
32585.389
33469.959
34311.709
35099.913
35823.564
36471.823
37034.542
37502.283
37867.519
38124.595
38270.889
38306.061
38239.919
38064.234
37791.097
37434.495
37004.789
36512.877
35969.938
35386.538
34772.121
34135.268
33483.876
32823.249
32157.905
31491.351
30826.209
30164.582
29507.682
28856.487
28211.109
27571.947
26939.628
26314.437
25696.6
25087.493
24488.887
23901.641
23326.766
22765.044
22217.45
21685.414
21170.905
20675.096
20199.767
19746.597
19316.849
18911.594
18531.977
18179.82
17857.987
16999.361
16456.785
16184.221
16120.835
16223.054
16462.85
16814.895
17259.865
17782.734
18370.825
19013.49
19702.771
20432.247
21195.386
21988.159
22807.328
23650.346
24513.883
25394.086
26286.221
27187.71
28092.77
28995.334
29888.213
30764.097
31614.33
32428.753
33197.916
33911.784
34560.168
35133.154
35620.641
36015.313
36311.229
36505.034
36595.39
36585.289
36478.368
36272.891
35985.037
35623.415
35197.348
34716.758
34191.277
33629.949
33041.088
32431.912
31808.092
31174.423
30534.814
29892.019
29249.015
28608.034
27969.549
27334.69
26704.461
26079.951
25461.879
24850.865
24249.077
23658.588
23080.203
22514.949
21963.442
21427.248
20908.053
20407.516
19927.33
19469.079
19034.108
18623.439
18237.969
17878.728
17547.525
17246.917
16556.633
16011.974
15732.147
15654.615
15735.992
15946.857
16263.467
16667.161
17143.07
17679.219
18265.889
18895.53
19562.085
20260.665
20986.608
21737.366
22510.686
23303.919
24113.978
24936.583
25768.997
26607.503
27445.976
28278.987
29099.654
29899.927
30671.446
31404.562
32090.733
32720.49
33284.242
33771.399
34175.887
34491.749
34714.93
34842.394
34875.044
34817.666
34668.982
34439.002
34136.507
33769.296
33346.173
32875.725
32366.263
31825.485
31260.123
30675.841
30077.471
29469.09
28854.041
28234.979
27615.41
26995.78
26377.553
25762.564
25152.335
24547.868
23950.176
23362.298
22786.327
22222.837
21672.714
21137.449
20618.327
20117.315
19636.325
19176.858
18740.214
18327.505
17939.555
17577.076
17240.944
16932.822
16233.722
15687.259
15400.935
15310.718
15371.066
15554.415
15837.448
16201.873
16633.181
17119.871
17652.884
18225.109
18830.959
19466.049
20126.8
20810.826
21515.991
22239.984
22980.157
23733.574
24496.52
25265.716
26036.292
26803.198
27560.106
28300.375
29017.404
29702.4
30347.373
30944.086
31484.076
31959.234
32359.664
32681.545
32920.071
33070.563
33134.368
33114.199
33011.474
32830.137
32578.795
32263.901
31893.311
31474.468
31014.811
30521.299
30000.183
29456.894
28896.166
28322.167
27738.499
27148.093
26554.41
25958.689
25362.567
24768.496
24178.393
23593.41
23015.053
22447.166
21891.416
21348.36
20819.216
20305.438
19808.864
19331.506
18875.021
18440.733
18029.732
17642.892
17280.812
16943.98
16633.045
16349.173
15999.225
15449.577
15155.075
15051.901
15090.784
15246.961
15497.249
15823.611
16211.901
16651.037
17132.417
17649.423
18196.947
18771.041
19368.782
19988.048
20626.872
21283.11
21954.5
22638.587
23332.29
24032.334
24734.515
25434.144
26125.842
26803.849
27461.524
28092.571
28688.779
29242.596
29746.495
30194.772
30579.094
30894.481
31136.877
31303.396
31388.009
31397.305
31330.92
31190.228
30983.207
30714.746
30391.937
30020.978
29608.477
29160.624
28683.2
28181.329
27659.574
27122.121
26572.582
26014.401
25450.466
24882.88
24313.607
23745.478
23180.703
22620.483
22066.976
21524.464
20994.347
20477.045
19973.969
19487.056
19018.2
18569.205
18141.529
17736.306
17354.391
16996.388
16662.634
16353.362
16068.934
15809.98
15829.217
15274.019
14969.038
14851.982
14868.791
14997.753
15215.735
15504.936
15851.536
16244.839
16676.647
17140.78
17632.55
18148.329
18685.673
19242.729
19817.663
20408.472
21013.285
21630.047
22256.054
22888.221
23522.899
24155.991
24782.965
25398.673
25997.539
26573.44
27119.598
27628.694
28093.539
28507.603
28866.298
29164.425
29397.636
29565.416
29661.066
29689.74
29651.949
29548.119
29380.072
29153.025
28873.567
28546.733
28178.465
27774.217
27339.313
26878.583
26396.375
25896.818
25383.51
24859.997
24329.121
23793.297
23254.973
22717.187
22182.323
21651.569
21127.947
20615.871
20116.234
19629.465
19157.446
18702.154
18265.391
17848.751
17453.469
17080.434
16730.225
16403.147
16099.261
15818.535
15561.034
15326.957
15705.932
15142.914
14824.808
14692.159
14686.919
14788.622
14974.762
15227.775
15534.135
15883.482
16267.981
16681.821
17120.63
17581.059
18061.091
18559.008
19073.078
19601.456
20142.702
20694.995
21255.843
21822.481
22391.748
22960.111
23523.749
24078.299
24618.71
25139.497
25635.084
26098.609
26524.255
26905.905
27237.948
27516.349
27736.889
27897.034
27994.228
28031.148
28009.847
27931.476
27795.973
27607.341
27367.143
27080.874
26753.929
26391.05
25997.13
25576.802
25134.209
24673.278
24197.741
23710.881
23215.671
22714.748
22210.949
21707.333
21206.417
20709.381
20220.197
19742.98
19278.182
18826.32
18389.558
17969.781
17568.632
17187.445
16827.176
16488.42
16171.455
15876.285
15602.706
15350.437
15119.29
14909.178
15615.706
15042.705
14709.482
14558.712
14533.017
14607.608
14762.688
14980.838
15248.76
15556.376
15896.161
16262.611
16651.688
17060.222
17486.313
17928.607
18385.314
18854.833
19336.131
19827.423
20326.459
20830.831
21337.796
21844.334
22347.256
22842.865
23326.764
23794.013
24239.215
24657.308
25043.059
25390.099
25694.611
25952.444
26159.646
26313.56
26410.897
26452.529
26442.899
26379.416
26265.32
26104.567
25898.186
25649.952
25361.711
25037.954
24683.414
24302.585
23899.427
23477.642
23040.827
22592.26
22134.903
21671.561
21205.324
20739.179
20275.696
19816.342
19365.431
18926.83
18500.478
18087.034
17688.766
17307.38
16944.269
16600.457
16276.576
15972.909
15689.435
15425.889
15181.838
14956.809
14750.433
14562.469
15547.602
14963.333
14614.056
14444.217
14398.928
14447.173
14572.551
14757.698
14989.492
15258.094
15556.236
15878.623
16221.445
16581.904
16957.984
17348.501
17751.962
18166.752
18592.044
19026.342
19467.587
19913.674
20362.22
20810.654
21256.349
21696.166
22126.245
22542.213
22939.436
23313.5
23659.386
23971.902
24248.297
24483.978
24675.584
24820.61
24916.274
24960.979
24962.126
24913.468
24817.831
24677.805
24497.094
24278.989
24025.67
23739.827
23423.265
23081.064
22717.034
22334.637
21937.322
21528.306
21110.577
20687.076
20260.931
19835.032
19411.961
18993.493
18583.978
18186.801
17801.48
17428.857
17071.123
16729.706
16405.685
16099.737
15812.165
15542.952
15291.823
15058.301
14841.788
14641.693
14457.559
14289.116
15493.233
14897.422
14532.09
14342.971
14279.506
14303.018
14400.733
14555.336
14753.865
14986.68
15246.717
15528.874
15829.479
16145.876
16476.24
16819.307
17173.828
17538.532
17912.473
18294.281
18682.127
19074.357
19468.945
19863.583
20256.152
20643.993
21023.722
21391.512
21743.368
22075.353
22383.169
22662.658
22910.81
23123.901
23298.86
23433.295
23524.971
23570.808
23578.826
23543.116
23464.908
23346.117
23189.322
22996.838
22772.636
22519.903
22240.374
21935.848
21610.478
21267.478
20910.164
20541.677
20164.994
19783.092
19399
19015.478
18635.076
18259.758
17893.676
17539.522
17196.593
16865.838
16549.211
16247.804
15962.347
15693.181
15440.305
15203.453
14982.165
14775.839
14583.8
14405.427
14240.275
14088.154
15446.221
14839.19
14459.66
14252.427
14171.996
14173.264
14245.939
14372.996
14541.645
14742.394
14968.323
15214.46
15477.251
15754.172
16043.487
16343.949
16654.405
16973.74
17301.037
17635.213
17974.819
18318.165
18663.404
19008.959
19352.944
19693.084
20026.424
20349.648
20659.327
20952.023
21224.124
21472.167
21693.229
21884.203
22042.352
22165.439
22251.752
22297.623
22310.015
22284.761
22221.39
22121.7
21987.868
21821.715
21625.666
21402.718
21156.937
20888.737
20601.198
20297.363
19980.288
19652.961
19318.271
18979.101
18638.292
18298.433
17961.952
17630.845
17308.876
16997.964
16697.321
16407.904
16131.32
15868.307
15619.265
15384.246
15163.014
14955.114
14760.009
14577.067
14405.637
14245.142
14095.234
13955.888
15402.606
14786.098
14394.777
14171.328
14073.353
14057.527
14108.191
14211.231
14353.879
14526.746
14723.001
14937.755
15167.54
15409.916
15663.189
15926.127
16197.671
16476.852
16762.802
17054.54
17350.861
17650.543
17951.757
18253.08
18553.32
18850.354
19141.609
19424.251
19695.375
19952.04
20191.224
20410.01
20605.742
20775.767
20917.698
21029.538
21109.829
21155.158
21170.434
21153.907
21103.624
21021.208
20908.379
20766.795
20598.49
20405.824
20191.516
19958.457
19707.933
19442.852
19165.926
18879.908
18587.506
18291.399
17994.168
17698.165
17405.59
17118.329
16839.631
16570.662
16310.585
16060.319
15821.065
15593.243
15376.979
15172.117
14978.287
14794.917
14621.594
14457.758
14302.796
14156.223
14017.825
13887.78
15359.492
14735.783
14334.996
14097.924
13985.281
13955.879
13988.025
14071.037
14192.1
14341.731
14513.154
14701.535
14903.457
15116.527
15339.069
15569.869
15807.936
16052.402
16302.465
16557.268
16815.82
17077.036
17339.6
17602.034
17863.516
18122.28
18376.002
18622.329
18858.845
19083.083
19292.53
19484.729
19657.355
19808.145
19935.047
20036.326
20110.688
20155.361
20172.855
20164.017
20125.697
20059.28
19966.144
19847.847
19705.973
19542.42
19359.578
19160.422
18946.192
18719.188
18481.843
18236.619
17985.957
17732.247
17477.749
17224.502
16974.374
16729.065
16491.234
16261.345
16038.536
15823.68
15617.574
15420.391
15232.06
15052.345
14880.854
14717.247
14560.866
14411.184
14267.814
14130.519
13999.314
13874.656
15315.112
14687.016
14279.648
14032.53
13908.655
13868.864
13886.649
13954.027
14058.035
14189.294
14340.995
14508.286
14687.757
14877.023
15074.412
15278.714
15488.971
15704.392
15924.246
16147.786
16374.192
16602.56
16831.842
17060.858
17288.836
17514.339
17735.281
17949.786
18155.893
18351.575
18534.761
18703.406
18855.528
18989.22
19102.749
19194.628
19263.71
19308.079
19327.789
19326.073
19299.101
19247.88
19173.508
19077.242
18960.788
18825.46
18673.509
18506.982
18327.8
18137.662
17938.64
17732.842
17522.366
17309.242
17095.362
16882.392
16671.778
16465.039
16264.21
16069.089
15878.899
15694.433
15516.129
15344.059
15178.037
15017.806
14863.082
14713.456
14568.551
14428.057
14291.775
14159.67
14031.984
13909.444
15268.762
14639.381
14228.42
13975.401
13843.827
13797.128
13805.18
13861.555
13953.382
14071.345
14208.568
14360.182
14522.752
14693.864
14871.817
15055.374
15243.621
15435.812
15631.272
15829.35
16029.363
16230.579
16432.175
16633.254
16833.12
17030.545
17223.614
17410.969
17591.052
17762.245
17922.87
18071.254
18205.755
18324.799
18426.947
18510.951
18575.782
18620.414
18643.233
18647.816
18631.881
18595.297
18539.047
18464.057
18371.843
18263.706
18141.145
18006.023
17860.162
17705.015
17542.246
17373.551
17200.62
17025.073
16848.428
16671.943
16496.584
16323.77
16154.806
15988.979
15825.736
15665.767
15509.249
15356.054
15206.278
15059.716
14916.024
14775.03
14636.579
14500.586
14367.078
14236.246
14108.552
13985.006
15220.408
14593.141
14181.961
13927.018
13791.801
13741.537
13744.174
13794.402
13879.19
13989.067
14117.213
14258.683
14409.963
14568.581
14732.804
14901.411
15073.51
15248.34
15425.276
15603.748
15783.183
15962.993
16142.542
16321.194
16498.471
16673.049
16843.261
17008.283
17166.844
17317.73
17459.621
17591.188
17711.112
17818.13
17911.082
17988.965
18050.944
18096.279
18123.584
18134.267
18128.996
18106.555
18067.692
18013.192
17943.987
17861.288
17766.375
17660.794
17545.972
17423.209
17293.778
17158.915
17019.862
16877.775
16733.821
16588.908
16443.595
16299.16
16155.744
16012.328
15869.461
15727.589
15586.739
15446.758
15307.399
15168.592
15030.4
14892.868
14756.079
14620.19
14485.461
14352.302
14221.384
14093.978
15170.825
14549.122
14141.183
13888.042
13753.428
13703.105
13704.724
13754.033
13837.02
13944.265
14068.875
14205.845
14351.583
14503.539
14659.906
14819.405
14981.084
15144.227
15308.259
15472.682
15637.033
15800.862
15963.714
16125.174
16285.041
16441.931
16594.296
16741.972
16883.56
17018.37
17145.415
17263.684
17372.162
17469.872
17555.924
17629.569
17690.224
17737.185
17769.331
17786.891
17791.474
17782.587
17760.27
17725.009
17677.294
17618.075
17548.641
17470.074
17383.358
17289.597
17189.815
17084.695
16975.024
16861.464
16744.09
16623.856
16501.869
16379.066
16255.263
16129.552
16001.703
15871.867
15740.141
15606.661
15471.526
15334.881
15196.97
15058.069
14918.51
14778.694
14639.109
14500.372
14363.336
14229.419
15121.735
14508.786
14107.332
13859.505
13729.675
13682.852
13687.934
13740.044
13825.487
13934.653
14060.566
14198.113
14343.596
14494.363
14648.519
14804.705
14961.923
15119.428
15276.642
15433.09
15588.36
15742.081
15893.91
16043.595
16191.279
16335.74
16475.408
16610.087
16739.167
16862.078
16978.129
17086.589
17186.721
17277.811
17359.218
17430.449
17491.4
17541.916
17578.249
17602.987
17616.742
17619.733
17612.652
17595.857
17568.109
17529.93
17483.173
17428.538
17366.469
17296.985
17220.941
17139.377
17052.804
16961.702
16866.888
16767.852
16665.015
16558.571
16447.761
16332.172
16211.899
16087.208
15958.329
15825.525
15689.093
15549.419
15406.97
15262.274
15115.914
14968.527
14820.819
14673.606
14527.891
14384.989
148489.1
100174.83
68880.637
50494.309
39631.08
33681.121
31221.339
31327.164
32942.933
143062.85
97550.002
67767.241
50022.518
39440.221
33626.756
31265.803
31378.362
33093.065
137168.47
94755.048
66432.503
49391.102
39162.551
33545.191
31298.581
31432.528
33225.178
131478.79
92131.601
65151.659
48770.801
38884.217
33458.958
31319.751
31485.376
33341.76
126101.8
89658.408
63920.517
48161.966
38604.96
33367.359
31330.925
31535.024
33444.696
121037.71
87308.636
62731.265
47560.799
38323.775
33270.022
31333.265
31580.042
33535.305
116265.65
85059.453
61579.073
46968.031
38040.636
33166.816
31326.972
31618.936
33614.51
111767.73
82893.089
60458.041
46380.669
37755.093
33057.697
31312.273
31651.398
33683.136
107519.3
80795.276
59362.823
45798.35
37467.072
32942.811
31289.989
31678.615
33742.074
103507.84
78750.453
58289.662
45221.046
37176.698
32822.429
31260.855
31700.778
33792.093
99708.213
76758.159
57235.418
44647.735
36884.008
32696.882
31225.526
31718.484
33833.871
96116.297
74809.339
56198.55
44078.356
36589.209
32566.426
31184.526
31730.063
33867.717
92696.288
72901.64
55177.357
43512.913
36292.301
32430.206
31138.908
31735.518
33893.953
89451.382
71031.664
54169.127
42951.059
35992.163
32290.238
31092.163
31734.876
33912.977
86332.542
69196.743
53173.316
42392.7
35689.475
32151.328
31050.537
31730.021
33925.464
83354.902
67397.133
52189.81
41837.952
35385.855
32010.235
30986.204
31719.288
33930.91
80390.944
65634.499
51218.318
41286.872
35081.361
31865.579
30916.921
31702.224
33929.451
77627.819
63915.244
50258.675
40739.461
34776.022
31718.216
30845.993
31682.282
33924.129
75035.666
62237.94
49310.573
40195.671
34469.876
31568.864
30773.659
31657.811
33912.969
72574.462
60601.338
48373.834
39655.249
34163.122
31418.141
30699.849
31628.379
33895.168
70227.947
59006.223
47447.732
39117.357
33856.815
31266.48
30623.054
31593.51
33871.468
67974.914
57439.413
46531.127
38582.294
33551.955
31104.702
30528.797
31552.047
33841.648
65795.951
55906.338
45624.042
38050.638
33246.96
30928.326
30429.058
31505.336
33805.851
63703.688
54426.13
44730.499
37522.806
32940.71
30744.175
30343.46
31455.137
33764.355
61698.414
52980.251
43847.929
36997.996
32633.958
30564.922
30254.507
31400.671
33717.161
59765.76
51566.395
42976.024
36475.823
32329.155
30399.511
30161.919
31341.776
33664.278
57897.703
50187.015
42115.674
35956.776
32027.857
30243.103
30066.378
31278.414
33605.722
56092.089
48843.358
41267.645
35441.768
31730.285
30084.759
29967.517
31210.529
33541.526
54349.702
47534.255
40432.474
34931.647
31436.009
29922.969
29865.237
31138.115
33471.744
52653.659
46257.126
39610.83
34427.135
31144.599
29759.471
29759.858
31061.256
33396.473
51010.058
45016.01
38804.718
33929.02
30857.069
29601.025
29652.199
30980.137
33315.85
49439.082
43815.905
38016.226
33438.001
30574.208
29447.87
29542.074
30894.865
33230.022
47919.515
42651.376
37245.073
32955.358
30300.922
29308.927
29427.171
30805.259
33139.073
46446.205
41523.485
36492.563
32483.655
30027.353
29117.145
29308.364
30710.99
33043.053
45029.366
40436.268
35761.168
32022.755
29753.689
28928.371
29200.954
30614.403
32942.442
43670.173
39391.44
35052.556
31572.918
29481.658
28743.377
29089.675
30514.676
32837.34
42369.939
38389.139
34367.641
31133.64
29212.549
28560.211
28964.976
30410.067
32727.451
41129.577
37430.329
33707.016
30703.257
28949.547
28377.42
28827.826
30299.938
32612.481
39949.877
36516.07
33071.438
30283.935
28692.881
28195.26
28690.384
30185.298
32492.353
38831.241
35646.92
32461.651
29877.062
28442.207
28014.315
28553.803
30066.672
32366.979
37773.916
34823.109
31878.101
29483.629
28197.449
27834.872
28417.56
29944.393
32236.204
36777.591
34043.75
31318.223
29106.159
27958.903
27657
28279.566
29818.085
32099.664
35841.366
33308.083
30784.076
28747.191
27725.245
27480.546
28139.508
29687.297
31956.839
34963.764
32615.247
30276.855
28407.273
27496.502
27304.354
27996.823
29551.433
31807.06
34143.229
31964.714
29798.842
28088.21
27264.996
27126.831
27850.762
29409.764
31649.543
33377.975
31355.65
29349.255
27782.162
27034.881
26948.639
27700.61
29261.48
31483.423
32665.938
30786.531
28925.46
27484.948
26809.897
26769.998
27546.079
29105.795
31307.806
32004.806
30255.289
28525.21
27197.211
26589.829
26589.301
27386.177
28941.858
31121.811
31391.969
29759.885
28147.507
26920.436
26370.775
26406.684
27220.108
28768.864
30924.626
30824.767
29298.343
27791.16
26653.263
26152.814
26221.352
27047.138
28586.098
30715.55
30300.481
28868.723
27454.902
26394.673
25935.908
26032.657
26866.665
28392.983
30494.047
29816.361
28469.147
27137.545
26143.951
25720.004
25840.121
26678.239
28189.101
30259.746
29369.637
28097.795
26838.034
25900.618
25505.073
25643.443
26481.581
27974.22
30012.495
28957.497
27752.888
26555.446
25664.383
25291.156
25442.499
26276.593
27748.303
29752.349
28577.064
27432.647
26288.953
25435.099
25078.378
25237.336
26063.356
27511.507
29479.589
28225.348
27135.246
26037.777
25212.723
24866.949
25028.171
25842.134
27264.2
29194.732
27899.237
26858.763
25801.134
24997.287
24657.162
24815.388
25613.372
27006.938
28898.477
27595.485
26601.155
25578.205
24788.874
24449.386
24599.507
25377.728
26740.501
28591.794
27310.732
26360.274
25368.103
24587.622
24244.166
24381.468
25136.103
26465.912
28275.895
27041.565
26133.822
25169.831
24393.614
24041.99
24162.599
24889.674
26184.391
27952.121
26784.563
25919.367
24982.241
24206.836
23843.085
23943.298
24639.749
25897.331
27622.112
26536.357
25714.372
24803.983
24027.212
23647.979
23723.879
24387.418
25606.232
27287.577
26293.671
25516.187
24633.515
23854.642
23457.269
23505.582
24134.033
25312.703
26950.276
26053.386
25322.045
24468.911
23689.557
23271.389
23289.79
23881.172
25018.476
26612.079
25812.826
25129.445
24308.227
23532.575
23090.268
23078.28
23630.627
24725.469
26275.096
25569.863
24936.349
24150.344
23382.24
22915.234
22872.622
23384.044
24435.248
25940.583
25322.828
24741.006
23993.831
23237.205
22747.879
22673.956
23142.597
24149.068
25610.005
25070.444
24541.86
23837.258
23096.286
22589.725
22482.415
22906.866
23868.064
25284.927
24811.68
24337.387
23679.076
22959.467
22438.214
22296.656
22677.43
23593.644
24967.073
24545.653
24125.966
23516.855
22824.378
22288.388
22116.193
22455.404
23326.607
24656.316
24272.045
23906.304
23348.058
22685.827
22140.951
21941.966
22242.021
23068.112
24354.327
23991.034
23677.848
23171.227
22542.6
21996.415
21773.232
22036.369
22818.563
24061.248
23703.457
23440.753
22985.716
22393.81
21853.225
21609.309
21838.291
22577.704
23779.091
23410.506
23195.643
22791.343
22238.41
21709.384
21448.869
21645.396
22343.303
23506.477
23113.632
22943.675
22588.5
22076.129
21564.457
21294.518
21459.698
22120.128
23247.514
22815.067
22686.507
22378.415
21907.537
21416.273
21136.977
21276.265
21903.39
22996.788
22514.199
22421.607
22156.91
21726.348
21260.737
22229.111
36643.006
43772.348
53919.206