/*--------------------------------*- C++ -*----------------------------------*\
| =========                 |                                                 |
| \\      /  F ield         | OpenFOAM: The Open Source CFD Toolbox           |
|  \\    /   O peration     | Version:  2406                                  |
|   \\  /    A nd           | Website:  www.openfoam.com                      |
|    \\/     M anipulation  |                                                 |
\*---------------------------------------------------------------------------*/
FoamFile
{
    version     2.0;
    format      ascii;
    arch        "LSB;label=32;scalar=64";
    class       volScalarField;
    location    "0.03";
    object      alphat;
}
// * * * * * * * * * * * * * * * * * * * * * * * * * * * * * * * * * * * * * //

dimensions      [1 -1 -1 0 0 0 0];

internalField   nonuniform List<scalar> 
2257
(
0.06214254
0.070353896
0.080306661
0.091867956
0.10507883
0.12003593
0.13687837
0.15580139
0.17710487
0.20121216
0.22873835
0.26048598
0.29750692
0.34123908
0.393474
0.45640251
0.53260059
0.62502375
0.7370987
0.87316985
1.0393792
1.2452795
1.5060416
1.8447746
2.2936161
2.8914423
3.671716
4.6395108
5.7704298
6.9255972
7.7584067
0.072609796
0.081185981
0.090945564
0.10212963
0.11490919
0.12942827
0.14585118
0.16439321
0.18536082
0.20918187
0.23646696
0.26802505
0.30491725
0.34857179
0.40077951
0.46372105
0.5399617
0.63244621
0.74459572
0.88074248
1.0470097
1.2529018
1.5134819
1.8516815
2.2993861
2.8952602
3.6727257
4.6375584
5.7645858
6.9152784
7.7444596
0.084862357
0.093386948
0.10295476
0.11381809
0.12619092
0.14026311
0.15623544
0.17435201
0.19493585
0.21842514
0.24543007
0.27676418
0.31349408
0.3570347
0.4091686
0.47206665
0.54827983
0.64074566
0.75288601
0.88902629
1.0552636
1.2610232
1.521201
1.8584596
2.3043348
2.8971293
3.6701945
4.6299623
5.7505311
6.8938608
7.7166969
0.099175266
0.10739468
0.11667289
0.12718262
0.13913643
0.15274598
0.16824047
0.1858922
0.20604606
0.22915603
0.25583767
0.28690978
0.32344545
0.36684622
0.41888259
0.48171693
0.55788364
0.65030871
0.76241175
0.89850892
1.0646668
1.2702228
1.5298886
1.8660286
2.3097863
2.8990673
3.6671234
4.6211152
5.7344025
6.8695236
7.6854517
0.11577856
0.12355939
0.13244518
0.14253134
0.1540221
0.16713608
0.18211919
0.19926587
0.21894321
0.24162408
0.26793445
0.29870065
0.3350016
0.37822966
0.43014125
0.49288676
0.56898987
0.6613617
0.77341906
0.90946954
1.0755474
1.2808953
1.5400239
1.8749669
2.3164319
2.9018619
3.6643835
4.611887
5.7169499
6.8427473
7.6507443
0.13481991
0.14212209
0.15053841
0.16013487
0.17111161
0.18369006
0.19812594
0.21472987
0.23388861
0.2560944
0.28198723
0.31240329
0.34842708
0.3914474
0.44320576
0.50583636
0.58185624
0.6741612
0.78616044
0.92215027
1.0881263
1.2932236
1.5517286
1.8853013
2.3241668
2.9052256
3.661487
4.6015538
5.6972977
6.8126383
7.611864
0.15640999
0.16324075
0.17115088
0.18021828
0.1906455
0.20265746
0.21651781
0.23255015
0.25115812
0.27285222
0.29828808
0.32831354
0.36401977
0.40679488
0.45836974
0.52085967
0.59677101
0.68899187
0.80091723
0.93682945
1.1026811
1.3074904
1.5653005
1.8973653
2.333369
2.9096277
3.6589422
4.5906664
5.6759341
6.7794921
7.5687626
0.1805802
0.18698644
0.1943962
0.20293365
0.21280912
0.22425111
0.23753078
0.25298352
0.27102786
0.292191
0.31714442
0.3467488
0.3821037
0.42459902
0.47596123
0.5382864
0.61406432
0.70618185
0.81801853
0.95383655
1.11954
1.3240185
1.5810484
1.9114338
2.3442528
2.9151493
3.6566759
4.5788827
5.6522822
6.7426068
7.5208756
0.20718555
0.21325998
0.22024449
0.22831106
0.23768481
0.24860172
0.26133919
0.27624292
0.29374486
0.31438751
0.33885799
0.36803083
0.40301613
0.44520911
0.49633528
0.55847801
0.63410696
0.72610285
0.83783934
0.9735487
1.1390794
1.3431807
1.5993382
1.9278651
2.3571685
2.9221477
3.655031
4.5665334
5.6266073
6.7021031
7.4680669
0.23593459
0.24177811
0.24848475
0.25622401
0.26521589
0.27571577
0.28801008
0.3024518
0.31948373
0.33966218
0.36368944
0.39245487
0.4270815
0.46897362
0.51985923
0.58181772
0.6572982
0.74916644
0.86079822
0.9963922
1.1617296
1.3654067
1.6205945
1.94707
2.3724964
2.9309344
3.6541983
4.5535898
5.5986155
6.6575028
7.4098462
0.26639753
0.2721636
0.27875202
0.28635379
0.29516046
0.3054237
0.31744472
0.33158112
0.34828297
0.36811766
0.39180127
0.42023826
0.45456658
0.49620308
0.54688283
0.6086854
0.68404721
0.77581269
0.88735177
1.0228399
1.1879746
1.3911857
1.6453039
1.9695244
2.3906904
2.9419284
3.6545367
4.5403179
5.5684634
6.6088259
7.3460038
0.29786968
0.30379136
0.31047131
0.31815182
0.32701781
0.33729479
0.349288
0.36335553
0.37995047
0.39964676
0.42317077
0.45144051
0.48560931
0.52710879
0.5776845
0.63941897
0.71474491
0.80648231
0.91798111
1.053401
1.2183477
1.421065
1.6740177
1.9957728
2.4122736
2.9556065
3.6564282
4.5269196
5.5361114
6.5558154
7.2765291
0.32932632
0.33565068
0.34268938
0.35071458
0.3599154
0.37052055
0.38280597
0.39712762
0.41393683
0.43380718
0.45746916
0.48585002
0.52011593
0.56171225
0.61239536
0.67425195
0.7497115
0.84157552
0.95316289
1.0886023
1.2534174
1.4556427
1.707349
2.0264279
2.4378418
2.9725234
3.6603474
4.5137336
5.5017463
6.4984961
7.2008926
0.35926519
0.36624901
0.37391698
0.38259882
0.39248506
0.40378169
0.41674539
0.43173293
0.44918582
0.46966948
0.49391131
0.52284018
0.55762745
0.59972498
0.65089383
0.71322016
0.78912548
0.8813975
0.99331682
1.1289568
1.2937635
1.4955515
1.7459619
2.0621647
2.4680591
2.9933056
3.6668375
4.5011495
5.465555
6.4368346
7.1191622
0.38553274
0.39345122
0.40203635
0.41170327
0.42262768
0.43500885
0.4491142
0.46528576
0.48394442
0.50564128
0.53109228
0.56121632
0.59717597
0.64041458
0.69268312
0.75605416
0.83293059
0.92607687
1.038736
1.174909
1.3399398
1.5414281
1.7905496
2.1037039
2.5036455
3.0186405
3.6765084
4.4896411
5.4278339
6.3709625
7.0311911
0.40528891
0.41438502
0.42416904
0.4351561
0.44752623
0.46148507
0.47728088
0.49523864
0.51578525
0.53945743
0.56694865
0.59915175
0.63720062
0.68250671
0.73678573
0.80207206
0.88072835
0.97547714
1.0895114
1.2267551
1.3924204
1.5938666
1.8417971
2.1517815
2.5453505
3.0492532
3.6900151
4.4797397
5.3889504
6.3010758
6.9370629
0.41556918
0.42604212
0.43728947
0.44991989
0.46413062
0.48014923
0.49821989
0.51864728
0.54185997
0.56839605
0.5989239
0.63429925
0.67560696
0.72419804
0.78171784
0.85012483
0.93170533
1.0291083
1.1454512
1.2845693
1.4515133
1.6533596
1.9003241
2.2070996
2.5939084
3.0858645
3.7080194
4.4720063
5.3493213
6.2274849
6.8370815
0.41395219
0.42591601
0.43883878
0.4533874
0.46978563
0.4882753
0.50915236
0.53274221
0.5594337
0.58976061
0.62439316
0.66415223
0.71005827
0.76337275
0.82563086
0.89866919
0.98464951
1.086101
1.2060249
1.3481292
1.5172768
1.7202158
1.9666138
2.2702545
2.6499701
3.1291248
3.7311274
4.466976
5.3093826
6.1505832
6.7331678
0.39969122
0.41316207
0.427878
0.44451201
0.4633226
0.48459649
0.50866298
0.53591889
0.5667992
0.60178979
0.64152206
0.68681168
0.73862793
0.79813048
0.86671506
0.94605344
1.03813
1.145296
1.2703775
1.416895
1.5894675
1.794464
2.0409241
2.3416433
2.7140068
3.1795184
3.7597964
4.465072
5.2695162
6.07076
6.6250023
0.37487618
0.38977066
0.40627253
0.42501475
0.44630518
0.47048558
0.49793959
0.52910304
0.56447425
0.60462791
0.65019058
0.70190315
0.76065188
0.82754608
0.90384753
0.99104263
1.0908929
1.2055148
1.3374895
1.490069
1.6675414
1.8758046
2.1231776
2.4213567
2.7861846
3.2372319
3.7942042
4.4664806
5.2299414
5.9883277
6.5126453
0.34545999
0.36158794
0.3797022
0.40037644
0.42397249
0.45089383
0.48159119
0.51656809
0.55638631
0.60167538
0.6531384
0.71152944
0.77767366
0.8525791
0.93742129
1.0335463
1.1424565
1.2660195
1.4065072
1.5668003
1.7507423
1.9636252
2.2129039
2.5090456
2.8662247
3.3019893
3.8340778
4.4709839
5.1905622
5.9033959
6.3964093
0.32046887
0.33759358
0.357013
0.37926662
0.40476725
0.43397804
0.46741711
0.50566157
0.54934987
0.5991843
0.65593699
0.72045359
0.79363397
0.87639377
0.96979157
1.0750716
1.1936152
1.3269994
1.477191
1.6465334
1.8383347
2.0571075
2.3092508
2.6038419
2.9532391
3.37287
3.87849
4.477752
5.1507701
5.8156943
6.2763406
0.30721834
0.32516361
0.34559685
0.36906908
0.39603465
0.42700735
0.46256566
0.50335703
0.5501003
0.60358615
0.66467579
0.73429883
0.81344436
0.90315618
1.0044886
1.1185413
1.246578
1.3899814
1.5503097
1.7294629
1.9299995
2.1555113
2.4111164
2.7043566
3.0456191
3.4481329
3.9256562
4.4851194
5.1092125
5.7243402
6.151961
0.30793494
0.32662546
0.34792422
0.37241705
0.40059188
0.43300512
0.47028831
0.51315385
0.56239833
0.61890285
0.68362909
0.75761002
0.84193599
0.93773997
1.0461663
1.1683283
1.3053123
1.4582969
1.6285142
1.8173347
2.0265317
2.2586431
2.5174784
2.8088713
3.1410841
3.5251436
3.972813
4.49042
5.0635681
5.6276167
6.0222476
0.32283893
0.34236952
0.36466883
0.39032585
0.41986124
0.45387154
0.49303686
0.53812711
0.59000526
0.64962656
0.71803204
0.79633463
0.88569714
0.98730331
1.1023263
1.2318815
1.3769733
1.5384911
1.7173429
1.9144146
2.1307351
2.3678235
2.6281575
2.9158088
3.2370522
3.6006516
4.0163924
4.4900849
5.0105084
5.5227673
5.8849695
0.36040961
0.3813343
0.40525771
0.43275224
0.46436616
0.50072652
0.54254641
0.59063026
0.64587555
0.70926954
0.78187933
0.86483353
0.95929454
1.0664216
1.1873279
1.3230385
1.4744397
1.6422363
1.8269144
2.028927
2.2486868
2.4868499
2.7447292
3.0248654
3.3316608
3.6717177
4.0529021
4.4803884
4.9461497
5.4057404
5.7352758
0.44194835
0.46543
0.49191152
0.5221968
0.55684078
0.59647388
0.64180844
0.69364291
0.75286201
0.82043113
0.89738316
0.98479556
1.083757
1.1953235
1.3204678
1.4600261
1.6146498
1.7847522
1.9705499
2.1720715
2.3892417
2.6221046
2.8711455
3.1377753
3.4248943
3.7371987
4.080514
4.4589024
4.8670518
5.2707423
5.5616331
0.55672446
0.58402513
0.61391363
0.64794004
0.68667078
0.73074055
0.78085579
0.83779465
0.90240158
0.97557485
1.0582449
1.1513426
1.2557577
1.3722875
1.501582
1.6440933
1.8000408
1.9694092
2.1519872
2.3473889
2.5552377
2.7753238
3.0078488
3.2537698
3.5151138
3.794991
4.0968706
4.422663
4.7681698
5.1067557
5.3303784
0.64516611
0.67575904
0.70884464
0.74646485
0.7892227
0.83778483
0.89288096
0.95529535
1.0258537
1.1053997
1.1947606
1.2947025
1.405875
1.528746
1.6635343
1.8101597
1.9682249
2.1370524
2.3157018
2.5031461
2.6986302
2.9018825
3.113372
3.3344552
3.5666917
3.8117429
4.0702628
4.3405337
4.6168004
4.8767592
4.9919232
0.66023459
0.69076817
0.72410742
0.76182687
0.80443514
0.85245653
0.90649058
0.96719357
1.0352539
1.1113787
1.1962738
1.2906341
1.3951453
1.5103696
1.6366128
1.7739368
1.9220969
2.0805098
2.248275
2.42427
2.6070047
2.7959915
2.9904612
3.1902629
3.3962312
3.608619
3.8254639
4.0404829
4.2424947
4.4018809
4.3597059
0.57250598
0.58942561
0.60817744
0.62949617
0.65379538
0.68160495
0.71345685
0.74990963
0.79156286
0.83903949
0.8929557
0.95388368
1.0223026
1.0986877
1.1840584
1.2793337
1.3850922
1.50152
1.6284061
1.7650088
1.9098862
2.0606634
2.2140043
2.370925
2.5322782
2.6976021
2.863806
3.0241237
3.1691435
3.2598054
3.2460068
0.0055853364
0.0085761071
0.012850289
0.018384536
0.025230417
0.033477196
0.043399929
0.055473488
0.069549837
0.086466075
0.10672292
0.13095737
0.16009724
0.19548627
0.23899481
0.29286402
0.35987787
0.44311985
0.54590781
0.6723684
0.8291891
1.0282661
1.2892772
1.6415817
2.124387
2.7819167
3.6424676
4.6320856
5.8451037
7.1029056
8.0287754
0.0089130573
0.013218118
0.018276708
0.024254107
0.031343906
0.039902793
0.050337733
0.062673559
0.077278945
0.094709951
0.1154767
0.14025816
0.17002961
0.20615177
0.25046013
0.30519908
0.37310684
0.4572325
0.5608963
0.68829165
0.84619566
1.0465252
1.3088437
1.6622321
2.1454144
2.801842
3.6587166
4.6425637
5.8481181
7.0956993
8.0114052
0.011550758
0.015978954
0.02130312
0.027750199
0.035518471
0.044901948
0.05598678
0.068977833
0.084295622
0.10239631
0.12380876
0.1492501
0.17972799
0.21661376
0.26171832
0.3172877
0.386022
0.47094567
0.57540164
0.70366318
0.86257574
1.0640134
1.3273358
1.6812504
2.1639149
2.817966
3.6696573
4.6528656
5.8512381
7.0889561
7.9947476
0.014438707
0.019217294
0.024951537
0.031837401
0.04014994
0.049998903
0.061561356
0.075151843
0.091112119
0.10985584
0.13191788
0.15803889
0.18923723
0.22687981
0.27277732
0.32915948
0.39869529
0.48438869
0.58960533
0.71868797
0.87853292
1.0809554
1.3451046
1.6993212
2.1812265
2.8327205
3.6793648
4.6618466
5.853376
7.0818785
7.9785772
0.017165913
0.02231667
0.028471714
0.035827945
0.044674129
0.054979733
0.06708384
0.081257362
0.097818863
0.11717458
0.13987194
0.16666048
0.19856564
0.23694437
0.28361305
0.34077827
0.41108296
0.4975141
0.60346082
0.73332838
0.89405236
1.0973816
1.3622571
1.7166675
2.1977291
2.8466712
3.688558
4.67031
5.8553248
7.075072
7.9630545
0.019854543
0.025401041
0.031989253
0.039875819
0.049122689
0.059941371
0.072585307
0.087309868
0.10443663
0.12437649
0.14768496
0.17511655
0.20769772
0.24679082
0.29419802
0.35211205
0.42315096
0.5102871
0.61693206
0.7475446
0.90908603
1.1132276
1.3786973
1.733136
2.213178
2.8594492
3.6967125
4.6776336
5.8564589
7.068052
7.9480516
0.022469852
0.028429712
0.035485234
0.043862851
0.053550779
0.064880497
0.078041825
0.093292111
0.11095672
0.13145431
0.1553465
0.18338837
0.21660974
0.25638618
0.30449607
0.3631211
0.43485605
0.52266073
0.62996695
0.76127808
0.9235696
1.1284283
1.394371
1.7487059
2.2276209
2.8712135
3.7041054
4.6842049
5.8572251
7.0611876
7.9336747
0.024994765
0.031390943
0.038949277
0.047751476
0.057937242
0.069764405
0.083424053
0.099178723
0.11735793
0.1383875
0.16283121
0.19144545
0.22527208
0.26569319
0.31446546
0.37376004
0.4461499
0.5345839
0.64251151
0.77447226
0.93744569
1.142928
1.4092254
1.763322
2.2409839
2.8818406
3.7105132
4.6897178
5.857275
7.0541846
7.9198371
0.027454194
0.03429981
0.042327652
0.051571585
0.062256352
0.074563956
0.088703552
0.10494243
0.12361362
0.14514437
0.17009975
0.19925109
0.23364985
0.2746693
0.32406041
0.38398038
0.45698191
0.54600419
0.65451135
0.78707092
0.95065719
1.1566706
1.4232084
1.7769431
2.2532509
2.8913644
3.7160307
4.6943541
5.8568572
7.0472653
7.9066087
0.029852017
0.037157822
0.045611525
0.055318956
0.066484967
0.07925317
0.093854878
0.11055522
0.12968768
0.15167937
0.17711183
0.20676694
0.24169424
0.28326764
0.33323232
0.39373136
0.46729968
0.55686766
0.66591099
0.79901743
0.96314764
1.1696023
1.4362721
1.7895293
2.2643875
2.8997404
3.7205611
4.697968
5.8557827
7.0402528
7.8939331
0.032199413
0.039940088
0.048819733
0.05898492
0.070604005
0.083809599
0.098849935
0.11598167
0.13553777
0.15795683
0.18382544
0.2139462
0.24935824
0.29144016
0.3419308
0.40296073
0.47704954
0.56711948
0.67665466
0.81025578
0.9748624
1.1816721
1.4483718
1.8010453
2.2743724
2.9069701
3.7241312
4.7006456
5.8541904
7.0332822
7.8818518
0.034502472
0.042646667
0.051950259
0.062552394
0.074584165
0.088203872
0.10364717
0.12117916
0.14112116
0.16393216
0.19020646
0.22074427
0.25659543
0.29913778
0.35010458
0.41161561
0.48617748
0.57670479
0.68668715
0.82073128
0.9857489
1.1928318
1.4594662
1.8114597
2.2831846
2.9130358
3.726698
4.7023221
5.8519823
7.0262514
7.8703287
0.036748849
0.045264846
0.054972574
0.06596288
0.078371411
0.092391837
0.10819961
0.12609223
0.14640028
0.16956624
0.1962031
0.22711475
0.26335842
0.30631105
0.35770243
0.41964338
0.49462994
0.58556949
0.69595444
0.83039109
0.99575719
1.2030365
1.4695182
1.8207448
2.2908084
2.9179351
3.7282672
4.7030421
5.8492382
7.0192441
7.8593864
0.038880364
0.047750316
0.057799349
0.069142378
0.081916734
0.09630145
0.11247193
0.13069352
0.15132267
0.17480994
0.2017697
0.23301249
0.26960012
0.31291118
0.36467402
0.42699247
0.5023546
0.59366096
0.70440439
0.8391848
1.0048403
1.212245
1.4784941
1.8288774
2.2972316
2.9216624
3.7288212
4.702783
5.8459118
7.0122041
7.849
0.040846289
0.05004577
0.060425561
0.072105804
0.085228778
0.099936888
0.11642334
0.13494094
0.15585447
0.17962419
0.20686536
0.23839372
0.27527482
0.31889093
0.37097081
0.43361323
0.50930114
0.60092873
0.71198739
0.84706496
1.0129548
1.2204197
1.4863649
1.8358383
2.302446
2.9242189
3.7283631
4.701574
5.8420523
7.0051849
7.8391818
0.042865433
0.052312217
0.062963032
0.07490372
0.088281632
0.10326116
0.12001737
0.13880259
0.15996234
0.18397265
0.21145038
0.24321646
0.28033894
0.32420544
0.37654679
0.43945863
0.515422
0.60732525
0.71865693
0.85398759
1.0200611
1.2275274
1.4931057
1.841613
2.3064474
2.9256078
3.7268899
4.6994153
5.8376426
6.9981562
7.8299178
0.044866937
0.054509319
0.065363894
0.077513496
0.091087698
0.10625285
0.12321764
0.14222435
0.16360826
0.18781905
0.21548665
0.2474413
0.28475187
0.32881295
0.38135934
0.44448509
0.52067309
0.61280648
0.7243702
0.85991268
1.0261238
1.2335393
1.4986961
1.8461909
2.309236
2.9258368
3.724409
4.696333
5.8327176
6.9911534
7.8212252
0.046814883
0.056601757
0.067604764
0.079907769
0.093635368
0.10894656
0.12604397
0.14518565
0.16671808
0.19109708
0.21892947
0.25103148
0.28847656
0.33267557
0.38536988
0.44865315
0.52501448
0.61733253
0.72908862
0.86480457
1.031112
1.2384314
1.5031206
1.8495664
2.3108157
2.9249166
3.7209285
4.6923413
5.8272777
6.9841626
7.8130545
0.048692727
0.058566358
0.069657456
0.082054843
0.095882757
0.11129649
0.1284936
0.14773268
0.16936024
0.19382799
0.22174148
0.25392107
0.29146249
0.33575872
0.38854454
0.45192813
0.52841097
0.62086818
0.73277825
0.86863236
1.0349998
1.2421844
1.5063685
1.8517384
2.3111949
2.9228625
3.7164628
4.6874681
5.821352
6.9772088
7.8054294
0.050485098
0.060385365
0.07149782
0.083927462
0.097794715
0.11325019
0.13049413
0.14978203
0.17146375
0.19598445
0.22394154
0.25615619
0.29371734
0.3380303
0.39083427
0.45427925
0.53083254
0.62338336
0.7354102
0.87137018
1.0377663
1.2447843
1.508434
1.8527106
2.3103864
2.9196934
3.7110296
4.6817377
5.8149521
6.9702879
7.798348
0.052182955
0.062033194
0.073103221
0.085501995
0.099338586
0.11477155
0.13200834
0.15129976
0.17300231
0.19753987
0.22549441
0.25768897
0.29520911
0.33948256
0.39225858
0.45568469
0.53224667
0.62485265
0.73696089
0.87299747
1.039396
1.2462224
1.5093166
1.8524915
2.3084072
2.9154325
3.7046516
4.6751823
5.8081056
6.9634194
7.7917876
0.053771217
0.063499333
0.074453378
0.086753806
0.10051354
0.11590508
0.13311818
0.15238651
0.17402057
0.19847351
0.22634363
0.25847106
0.29590769
0.34009002
0.39277759
0.45612786
0.53265517
0.625279
0.73740711
0.87349883
1.0398789
1.2464953
1.509021
1.8510948
2.3052791
2.910107
3.6973555
4.6678341
5.8008321
6.9566057
7.7857566
0.055283471
0.064800057
0.075547306
0.087671136
0.10132751
0.11664821
0.1337766
0.1529041
0.174406
0.19873371
0.22649834
0.25850891
0.29580899
0.33984308
0.39238238
0.4555981
0.53203027
0.62460948
0.73675113
0.87286629
1.0392255
1.2456139
1.5075582
1.8485397
2.3010288
2.9037488
3.6891728
4.6597307
5.7931601
6.9498626
7.7802314
0.05679032
0.065988226
0.076410758
0.088249611
0.10166185
0.11678273
0.13376231
0.15279466
0.17419571
0.19839759
0.22602433
0.25787815
0.29499851
0.33883326
0.3911674
0.45418861
0.53046453
0.62294456
0.73505276
0.87115916
1.0374608
1.2436185
1.5049773
1.8448715
2.295699
2.8963945
3.6801329
4.6509055
5.7851119
6.9431865
7.7752402
0.0060495428
0.0089139783
0.012908086
0.01818506
0.024737253
0.032622892
0.042162261
0.053701923
0.067248004
0.083535603
0.10312936
0.12667612
0.15513103
0.1898339
0.23266279
0.28582589
0.35213177
0.43465939
0.5367011
0.66233612
0.81822749
1.0163106
1.2764044
1.6280456
2.1107177
2.769068
3.6321101
0.0067658049
0.0096845715
0.01365199
0.018746279
0.025030716
0.032697963
0.042081417
0.053394207
0.066832584
0.082861294
0.10208726
0.12525351
0.1533309
0.18766948
0.0038732291
0.0013967581
0.0014982323
0.00011836968
0.00026146491
0.00045043044
0.00064991256
0.00079313733
0.00081958887
0.0010406631
0.0019817142
1.0446852e-10
3.4374177e-10
1.2782444e-08
2.6282002e-07
3.1172808e-06
2.2147661e-05
8.1784363e-05
0.00018352061
0.00030080626
0.0003795732
0.00037589769
0.00045942656
0.0010825754
0.0024732264
1.7077484e-08
2.1934242e-07
8.2176157e-06
7.5723441e-05
0.00028742626
0.00071454469
0.0014544938
0.0026651285
0.0045918883
0.0076058935
0.012253764
0.019301802
0.029787501
0.045445833
0.00073671606
0.001492738
0.002728369
0.0046948466
0.0077715682
0.012517155
0.019715908
0.030404532
0.046294398
0.020058248
0.030962002
0.047171077
6.5583349e-11
1.9903161e-10
7.2047561e-09
1.4888207e-07
1.7696034e-06
1.2929979e-05
4.9518263e-05
0.00010892368
0.0001472129
0.00015353122
0.00020405191
0.00055153602
0.0015856826
0.003302422
5.2903344e-11
1.282987e-10
4.2220829e-09
8.7867625e-08
1.0629203e-06
7.5246476e-06
2.4716794e-05
3.962407e-05
5.6173547e-05
0.00011224715
0.00035420707
0.0010317467
0.002326598
0.0049223567
8.5853397e-11
1.2389425e-10
2.6507606e-09
5.3824014e-08
6.3541563e-07
3.9053025e-06
1.1467591e-05
2.5224889e-05
9.2347988e-05
0.00030191236
0.00075032589
0.0016733823
0.0036431367
0.007261473
3.1465411e-10
4.8790461e-10
1.1432162e-08
2.3568856e-07
2.9225474e-06
1.8236147e-05
5.7953024e-05
0.00012415982
0.00026818338
0.00062091084
0.001321994
0.0028341989
0.0055939814
0.0098194655
5.4535389e-10
1.9650677e-09
7.5459026e-08
1.5322785e-06
1.2774629e-05
5.0382056e-05
0.00011323725
0.00023583138
0.00050019886
0.0010721365
0.0022831628
0.004338162
0.0074562172
0.012181339
1.9726416e-10
7.2197402e-09
3.3970664e-07
5.3168864e-06
3.1218927e-05
8.5209761e-05
0.00017831291
0.00039093903
0.00089546032
0.0018527577
0.0033522661
0.0056307499
0.0091338475
0.014443052
2.4245994e-10
1.9354478e-08
8.6133485e-07
1.0414562e-05
4.3359669e-05
0.00010795321
0.00027687086
0.00066111879
0.0013395454
0.0024201309
0.0041204435
0.0067433677
0.010698683
0.016601721
1.54974e-09
3.5309787e-08
1.4378513e-06
1.5336187e-05
5.687645e-05
0.00015905669
0.00039557277
0.00084982363
0.0016313886
0.0028894806
0.0048273451
0.0077511415
0.01212589
0.018633402
3.5720339e-09
5.0880475e-08
1.9346232e-06
1.9081484e-05
6.8225318e-05
0.00019373763
0.00047949109
0.0010155449
0.0019050048
0.0032993111
0.0054325253
0.0086516198
0.013459699
0.020582404
5.715212e-09
6.8080727e-08
2.4526236e-06
2.2511871e-05
7.9868127e-05
0.00023069277
0.00056051357
0.0011569629
0.0021345031
0.0036638712
0.0059983402
0.0095094398
0.014738573
0.02246778
7.9914864e-09
7.9761673e-08
2.7569528e-06
2.433445e-05
8.8470924e-05
0.00026195631
0.0006336425
0.0012931878
0.0023623285
0.0040229582
0.0065472194
0.010338346
0.015980159
0.024309457
1.1746187e-08
9.5975898e-08
3.1382492e-06
2.7005023e-05
0.00010292317
0.00030730608
0.0007267501
0.001447721
0.0026003763
0.0043822921
0.0070863949
0.011147585
0.017192418
0.026116415
1.7121901e-08
1.2450273e-07
3.9588216e-06
3.3054415e-05
0.0001270174
0.00036308793
0.00081978598
0.0015883721
0.0028118729
0.0047037622
0.0075790226
0.011907105
0.01835699
0.027880268
1.6608597e-08
1.3506812e-07
4.3558821e-06
3.5294111e-05
0.0001323739
0.00037479124
0.00084553589
0.0016430198
0.0029179456
0.0048980402
0.0079367497
0.01253312
0.019400058
0.029541771
1.7181071e-08
1.340765e-07
4.2810641e-06
3.5215039e-05
0.00013538616
0.00038896703
0.00087973767
0.0017085063
0.0030323368
0.0050960138
0.0082628722
0.013075147
0.020307524
0.031041202
2.0279224e-08
1.5485697e-07
4.906222e-06
4.0424139e-05
0.00015830762
0.00044144052
0.0009703466
0.0018549051
0.0032645692
0.0054558413
0.0088068932
0.013873012
0.021452395
0.032694298
2.1168769e-08
1.6964101e-07
5.4028878e-06
4.3996275e-05
0.00016975125
0.00046681896
0.0010197277
0.0019437749
0.0034171038
0.0057114438
0.0092294189
0.014558544
0.022526883
0.034340002
2.2387292e-08
1.7665776e-07
5.6526117e-06
4.710982e-05
0.00018501587
0.00050280184
0.0010848205
0.0020516693
0.0035908062
0.0059876455
0.0096661037
0.015243752
0.023584842
0.035964664
2.3133716e-08
1.8638554e-07
6.0312546e-06
5.0847372e-05
0.00020017722
0.00053589922
0.0011437143
0.0021503161
0.003753408
0.0062533831
0.01009448
0.015919947
0.024622052
0.037560796
2.3376968e-08
1.9634319e-07
6.4489913e-06
5.4897954e-05
0.00021566979
0.00056932308
0.0012035388
0.0022508261
0.0039177107
0.0065176522
0.010514355
0.016577072
0.025626386
0.039113959
2.308447e-08
2.0546628e-07
6.8807106e-06
5.9189902e-05
0.00023053054
0.00060121178
0.0012606811
0.0023466245
0.0040743509
0.0067704832
0.010917845
0.017209724
0.026593672
0.04061588
2.2251032e-08
2.1181596e-07
7.2674832e-06
6.363748e-05
0.00024683153
0.0006348911
0.0013190357
0.0024424915
0.0042287004
0.0070163616
0.011305873
0.017812647
0.027521252
0.042057591
2.0901457e-08
2.1494598e-07
7.5788231e-06
6.7622527e-05
0.000261047
0.00066404899
0.0013689846
0.0025250257
0.0043634431
0.0072354669
0.01165909
0.018370063
0.02838909
0.043428202
1.9125468e-08
2.1806215e-07
7.9216726e-06
7.1819737e-05
0.0002749568
0.00069101846
0.0014145692
0.0025992871
0.0044843404
0.007431726
0.011975365
0.018870478
0.0291715
0.044677687
0.061916676
0.060711685
0.0592864
0.0579103
0.074746209
0.072991171
0.070863753
0.068540114
0.089376816
0.087142958
0.084395479
0.081243507
0.10589259
0.10324683
0.099980622
0.096152083
0.12436351
0.12139992
0.11773024
0.11338277
0.14478467
0.14166453
0.13772931
0.1330211
0.16709007
0.16400531
0.16000167
0.15512173
0.1910736
0.18827877
0.18446395
0.17966179
0.21640686
0.21420997
0.21088224
0.2064541
0.24261708
0.24136616
0.23887173
0.23515864
0.26908723
0.26916012
0.26788436
0.26527621
0.29500801
0.29679596
0.29714819
0.29606462
0.31930015
0.32318855
0.32558836
0.32647868
0.34047003
0.3468239
0.35168637
0.35500948
0.35648073
0.36561248
0.37330844
0.37950046
0.36496381
0.37702887
0.38780105
0.39717344
0.36367134
0.37865135
0.39252686
0.40517429
0.35116668
0.36878771
0.38553271
0.40126082
0.32774145
0.3474792
0.36658041
0.3848888
0.29631171
0.31745331
0.33818526
0.35833551
0.26320091
0.28497771
0.30653862
0.32769721
0.2366053
0.25853336
0.2803773
0.30194375
0.2220398
0.24416222
0.26625642
0.28813218
0.22051262
0.2431678
0.26580369
0.28824119
0.23184692
0.25543078
0.27897833
0.30232581
0.26265552
0.28808753
0.31340654
0.33846083
0.32976247
0.35921303
0.38841072
0.41721027
0.41960512
0.45569945
0.49165167
0.52729636
0.48415294
0.52626631
0.56859902
0.61098407
0.49309876
0.53665345
0.58060096
0.62473757
0.47479694
0.5007159
0.5263834
0.55186835
)
;

boundaryField
{
    Side1
    {
        type            empty;
    }
    Inlet
    {
        type            calculated;
        value           nonuniform List<scalar> 
90
(
7.8401268
7.8259987
7.7977022
7.7660723
7.7307462
7.6913542
7.6475439
7.5990067
7.545399
7.4863966
7.4217026
7.351065
7.2742916
7.1912589
7.101924
7.00632
6.9047789
6.7992367
6.6893831
6.5752963
6.4573227
6.3355639
6.209573
6.0782744
5.9393365
5.7877121
5.611239
5.374422
0.47760134
0.47762754
0.47769987
0.47769987
0.47769987
0.47769987
0.47769987
0.47769987
0.47769987
0.47769987
0.47769987
0.47769987
0.47769987
0.47769987
0.47769987
0.47769987
0.47769987
0.47769987
0.47769987
0.47769987
0.47769987
0.47769987
0.47769987
0.47769987
0.47769987
0.47769987
0.47769987
0.47769987
0.47769987
0.47769987
0.47769987
0.47769987
3.2711623
0.47769987
8.1190973
8.1013665
8.0842178
8.067651
8.051667
8.0362669
8.0214515
8.0072212
7.993576
7.9805151
7.9680371
7.95614
7.9448208
7.9340765
7.9239036
7.9142981
7.9052554
7.8967696
7.8888347
7.8814436
7.8745889
7.8682626
7.8624559
7.8571699
0.47769987
0.47769987
0.47769987
0.47769987
)
;
    }
    Side2
    {
        type            empty;
    }
    Outlet
    {
        type            zeroGradient;
    }
    Botwall
    {
        type            compressible::alphatWallFunction;
        value           nonuniform List<scalar> 0();
    }
    Cyli
    {
        type            compressible::alphatWallFunction;
        value           uniform 0;
    }
    procBoundary2to0
    {
        type            processor;
        value           nonuniform List<scalar> 
62
(
0.0020178303
0.00014853148
0.00032751812
0.00057987836
0.00088526048
0.0011841823
0.0011841823
1.3913133e-10
5.4174909e-10
2.1190683e-08
4.3807204e-07
5.2297793e-06
3.4499668e-05
3.4499668e-05
1.4893431e-08
2.2131503e-07
8.5497441e-06
7.9716606e-05
0.00029925621
0.00029925621
0.00075820663
0.0015294333
0.0027888918
0.0047925573
0.0079252917
0.012748636
0.012748636
0.02041478
0.031474058
0.047929872
0.047929872
0.06287919
0.07611112
0.091109566
0.10791825
0.12655927
0.14699851
0.16911188
0.1926448
0.21722239
0.24233626
0.26734251
0.29142098
0.31349928
0.33211256
0.34530935
0.35088231
0.34681524
0.33193659
0.30676943
0.27437001
0.24102449
0.21453623
0.19985802
0.19777149
0.20815003
0.23703848
0.29955362
0.38176393
0.44021294
0.44876341
0.44798833
)
;
    }
    procBoundary2to3
    {
        type            processor;
        value           nonuniform List<scalar> 
40
(
4.6113058
5.8243307
7.0842485
8.0155743
0.2301071
0.28286483
0.34871915
0.43073102
0.53218758
0.65717999
0.81239967
1.0097943
1.2691562
1.6199489
2.1015398
2.7584482
4.6113058
3.6195717
0.0076996903
0.004857887
0.010635143
0.014527207
0.019491744
0.025609869
0.033063098
0.042204923
0.05322124
0.066357756
0.082064961
0.10094683
0.12375346
0.1514628
0.2301071
0.1854144
0.0031647696
0.0031647696
0.004857887
0.0023138484
0.0018453128
0.0018453128
)
;
    }
}


// ************************************************************************* //
