/*--------------------------------*- C++ -*----------------------------------*\
| =========                 |                                                 |
| \\      /  F ield         | OpenFOAM: The Open Source CFD Toolbox           |
|  \\    /   O peration     | Version:  2406                                  |
|   \\  /    A nd           | Website:  www.openfoam.com                      |
|    \\/     M anipulation  |                                                 |
\*---------------------------------------------------------------------------*/
FoamFile
{
    version     2.0;
    format      ascii;
    arch        "LSB;label=32;scalar=64";
    class       volScalarField;
    location    "0.044";
    object      k;
}
// * * * * * * * * * * * * * * * * * * * * * * * * * * * * * * * * * * * * * //

dimensions      [0 2 -2 0 0 0 0];

internalField   nonuniform List<scalar> 
8260
(
647.78408
626.67359
597.74984
562.22259
520.95566
474.76339
424.8045
372.53195
319.56112
267.36378
217.25322
170.34151
127.46444
89.255114
56.117845
28.825958
10.477539
3.2684728
1.5960566
1.1040798
0.85113322
0.69421038
0.59926242
0.52924386
0.48729286
0.45968399
0.44155541
0.42739222
0.41792488
0.41126913
0.40775607
632.23293
608.47209
578.24679
542.57308
501.99974
457.14576
408.95473
358.66248
307.71476
257.48673
209.14867
163.77461
122.19782
85.086653
52.856667
26.518413
9.179639
2.9515379
1.5163543
1.0736836
0.8351863
0.68573729
0.59455546
0.52660435
0.48597512
0.45894317
0.44111969
0.42712951
0.41774555
0.41115148
0.40767803
609.34312
584.49388
554.21132
519.19679
479.88709
436.81366
390.77044
342.81818
294.21691
246.21344
199.90085
156.29255
116.21263
80.36529
49.198329
23.942943
7.9657658
2.6822968
1.4668584
1.0576071
0.82668703
0.68122156
0.59203431
0.52520289
0.48528153
0.45854501
0.44088082
0.42698294
0.41761739
0.41105109
0.40759231
578.21655
553.45526
524.17149
490.76654
453.53356
412.91494
369.58621
324.46111
278.63437
233.2252
189.26204
147.70272
109.36122
74.978983
45.063928
21.087562
6.7710832
2.4347282
1.4134374
1.0320509
0.81240067
0.67341099
0.58754155
0.52267475
0.48400687
0.45779647
0.44042503
0.42670358
0.41741285
0.41091019
0.4074946
539.27213
515.6799
488.18716
457.13683
422.68235
385.15481
345.10728
303.31169
260.71051
218.30223
177.04595
137.84969
101.51873
68.831073
40.387278
17.958028
5.6222543
2.204007
1.360125
1.009067
0.79988049
0.66674695
0.58372141
0.52057969
0.48295758
0.45717926
0.44004709
0.42647458
0.41722451
0.41076928
0.4073832
493.03101
471.46153
446.46171
418.38939
387.29966
353.41684
317.16817
279.18239
240.25345
201.25959
163.08451
126.58639
92.564762
61.830203
35.115809
14.611161
4.6130761
1.9941646
1.3052599
0.98113746
0.78394928
0.65796503
0.578572
0.51770129
0.48147444
0.4563049
0.43950631
0.42614518
0.4169746
0.41059215
0.40725604
440.31293
421.40814
399.46903
374.86784
347.59803
317.79514
285.76791
252.00478
217.1529
181.96559
147.24124
113.78361
82.391739
53.898347
29.226938
11.185455
3.7158488
1.8093862
1.2498839
0.95342294
0.76842054
0.64952282
0.57361128
0.51500464
0.48006465
0.45547716
0.4389864
0.42583174
0.41672014
0.41040296
0.40711105
382.53019
366.65231
348.11697
327.28585
304.11248
278.66108
251.13542
221.89202
191.43447
160.38558
129.44585
99.356482
70.927383
44.99306
22.772183
7.9294166
2.958109
1.6640184
1.1933355
0.92233328
0.75044602
0.6394055
0.56758304
0.51168777
0.47825328
0.45442628
0.43831744
0.42542464
0.41640537
0.41017477
0.40694584
321.544
308.77273
293.72224
276.72699
257.71418
236.69094
213.77048
189.18876
163.31225
136.63153
109.7386
83.302773
58.169423
35.153223
15.989823
5.4617296
2.3750951
1.5311426
1.1353458
0.8909398
0.73252264
0.62931692
0.56155789
0.50846331
0.47641512
0.4533735
0.43763115
0.42500668
0.41606995
0.40992336
0.40675787
259.38455
249.57512
237.8713
224.56802
209.57761
192.86365
174.46227
154.50351
133.23083
111.0105
88.323845
65.759255
44.23724
24.608455
9.5444615
3.6712289
1.95527
1.4160631
1.0766799
0.85726764
0.71278056
0.61781403
0.55459175
0.50468742
0.4741658
0.45209087
0.43678924
0.4244831
0.41566684
0.40962526
0.40654395
198.22125
191.04923
182.41119
172.49183
161.19968
148.47472
134.29921
118.72279
101.89157
84.06895
65.637407
47.09059
29.521941
14.004388
5.3825377
2.5504035
1.6987943
1.3072423
1.0171978
0.82369298
0.69336016
0.60637236
0.54750179
0.50090252
0.47186777
0.4507501
0.43590119
0.42391562
0.41522673
0.40929169
0.40629994
140.08159
135.09399
129.06897
122.09173
114.05887
104.88235
94.505118
82.926149
70.234069
56.633768
42.451714
28.029454
15.005088
6.7220552
3.1135155
1.9234674
1.5073634
1.1984139
0.96080156
0.78782984
0.67272302
0.59426259
0.53942311
0.4964815
0.46922295
0.44913546
0.4348425
0.42321858
0.41470641
0.40890042
0.40600101
86.94194
83.788116
79.90992
75.328455
69.960861
63.726624
56.562252
48.467292
39.541686
30.023475
20.459475
12.452334
6.576476
3.3607728
2.0828831
1.6339903
1.3354879
1.1048531
0.90110634
0.75619846
0.65266502
0.58180469
0.53136137
0.49195965
0.46658765
0.44744368
0.43371043
0.42245553
0.41413244
0.40846082
0.40561665
41.441704
39.569709
37.334566
34.799552
31.902959
28.581056
24.82297
20.716349
16.393888
12.048266
8.0794568
4.9989218
3.0802087
2.0990841
1.6503253
1.3933843
1.1869455
0.99531922
0.84472837
0.71974007
0.63315697
0.57036077
0.52209488
0.48680265
0.4635335
0.44553564
0.43238539
0.42155683
0.41345908
0.40795192
0.40516672
14.952916
14.248279
13.426544
12.498558
11.40405
10.1315
8.7778837
7.3698142
5.9344366
4.5440487
3.3243163
2.4141121
1.8853551
1.6067434
1.4118217
1.2220825
1.0453384
0.91344874
0.78600994
0.68841276
0.61328842
0.55800044
0.51396902
0.48175543
0.46039255
0.44357582
0.43096973
0.42057886
0.41270943
0.4073847
0.40466433
5.0647123
4.8947424
4.6643136
4.3930747
4.0739953
3.7078004
3.3110516
2.9020692
2.4769547
2.089768
1.7588621
1.5426592
1.4261357
1.3500546
1.1651874
1.0184116
0.9246514
0.81308189
0.73004266
0.64851739
0.59315389
0.54746239
0.50392074
0.47611905
0.45694225
0.44141896
0.42932669
0.41942966
0.41184102
0.40673972
0.40412531
2.031979
2.0003106
1.9461973
1.8743635
1.7902733
1.6953792
1.5925362
1.4877328
1.3779256
1.29482
1.2255991
1.1680544
1.1451557
1.064033
0.99629643
0.90683891
0.80646871
0.74283725
0.6759527
0.61685838
0.57055155
0.53314356
0.49482789
0.47076396
0.45348827
0.43907719
0.42762701
0.41812878
0.41087733
0.40602898
0.40354245
1.1454774
1.1356058
1.1207863
1.1021563
1.0810597
1.0635394
1.0466829
1.0225522
1.0005416
0.97435459
0.9739647
0.95487213
0.87482404
0.84815537
0.8256105
0.7627603
0.7241418
0.66384636
0.62601663
0.5774645
0.54614166
0.51897593
0.48300017
0.46522293
0.44948585
0.43644704
0.425492
0.41663747
0.40980884
0.40522859
0.40287284
0.85892523
0.85325039
0.84860041
0.84356804
0.83725368
0.82676516
0.81524461
0.80352294
0.79526509
0.79120191
0.77290858
0.73700601
0.73131194
0.69802078
0.68504895
0.68136319
0.63116513
0.60660835
0.57426209
0.54934132
0.52195202
0.50008094
0.473711
0.45895797
0.44540392
0.43351438
0.42324428
0.41508398
0.40856804
0.40435994
0.40215735
0.69377699
0.69235561
0.69053769
0.68872933
0.68889132
0.69129316
0.69228972
0.69041274
0.68076509
0.65776737
0.64114499
0.63109085
0.61759439
0.61851017
0.59491212
0.58268564
0.57135959
0.55593635
0.53216014
0.51088489
0.49773885
0.48629306
0.46311032
0.45193968
0.44061855
0.43044089
0.42063586
0.41315815
0.40725663
0.4034079
0.40138104
0.60282116
0.60275952
0.6016607
0.59858385
0.59338424
0.5851421
0.57982301
0.57635992
0.57340539
0.57109301
0.57105242
0.56869653
0.5545291
0.55208894
0.54665662
0.53362821
0.51456066
0.50742914
0.4978209
0.48843998
0.4763411
0.46810136
0.45703634
0.44535685
0.43564426
0.42669824
0.41796274
0.41119634
0.40586365
0.40238926
0.40055798
0.51958994
0.51973215
0.51944579
0.51870013
0.51812521
0.51933717
0.52201282
0.52285859
0.52166357
0.51853878
0.51469427
0.51260459
0.5169699
0.50510418
0.50516067
0.48824432
0.48820971
0.47670429
0.47246135
0.46438999
0.45756663
0.45291021
0.44839215
0.43854033
0.43018387
0.42260395
0.414641
0.40885292
0.40445122
0.40130818
0.39970907
0.47814517
0.47868621
0.47864809
0.4781365
0.47711385
0.47530074
0.47265648
0.46996259
0.46921967
0.46919977
0.46918796
0.46905605
0.46871925
0.47211465
0.46661882
0.46281753
0.45718575
0.45878087
0.45264012
0.44987483
0.44713314
0.43704175
0.43713734
0.4304073
0.42433279
0.41757809
0.41125649
0.40678087
0.40287699
0.40022315
0.39881126
0.44105979
0.44138003
0.44138133
0.44119486
0.44096773
0.44079644
0.44085333
0.44227939
0.44365209
0.44465685
0.44556544
0.4454084
0.44373836
0.44091625
0.43834861
0.43936632
0.43606353
0.43349401
0.43784792
0.43598492
0.43583159
0.42806353
0.42387053
0.42110688
0.41637924
0.41221319
0.40766578
0.40441605
0.40131208
0.39915541
0.39798064
0.42350524
0.42388815
0.42397187
0.42383841
0.42357388
0.42323337
0.42276405
0.42194017
0.42167546
0.42160556
0.42156749
0.42148325
0.42129056
0.42112365
0.422939
0.42144927
0.42396692
0.4212801
0.42295637
0.42257105
0.4209958
0.41926129
0.41474939
0.41164635
0.40934829
0.40753557
0.40468362
0.40235469
0.39995902
0.39814013
0.39715823
0.41013554
0.41030922
0.41034199
0.41031078
0.41028819
0.41028676
0.41028913
0.41029615
0.41032361
0.41037505
0.41042588
0.41039985
0.41037071
0.41036979
0.4105497
0.41091041
0.41097808
0.41203509
0.41070382
0.41028056
0.40807777
0.40844004
0.40822131
0.40675564
0.40518255
0.40379537
0.40245051
0.40035701
0.39876055
0.39733108
0.3965285
0.40443348
0.4045554
0.40454519
0.40444513
0.40428235
0.40409988
0.4039518
0.40388862
0.40391788
0.40400819
0.40408563
0.40417861
0.40438802
0.40475731
0.40507979
0.40512781
0.40526555
0.40548017
0.40497293
0.4046212
0.40386879
0.40360019
0.40399606
0.40392852
0.40282638
0.4018358
0.40095254
0.39925687
0.39789011
0.39670883
0.39606099
0.39945008
0.39950901
0.39953538
0.39956011
0.39961013
0.39969211
0.39980347
0.39994329
0.40011566
0.40033187
0.40068417
0.40121631
0.40187854
0.40231937
0.40229762
0.40224796
0.40201396
0.40224601
0.4020811
0.40179238
0.40240363
0.40163547
0.40184326
0.40159659
0.40146379
0.40054045
0.39937951
0.39839986
0.3972484
0.39635686
0.39583368
0.39750222
0.39755074
0.39758654
0.39762594
0.39768133
0.39775495
0.39784604
0.39795496
0.39808723
0.39824609
0.39844412
0.39868049
0.39888916
0.39899616
0.39909028
0.39934034
0.39976362
0.39982665
0.39955969
0.39999995
0.40060278
0.40056659
0.40038185
0.39965631
0.39966619
0.39909507
0.39848038
0.39772556
0.39690976
0.39620302
0.39572245
0.39665511
0.39668985
0.39672142
0.3967588
0.39680764
0.39686853
0.39694082
0.39702101
0.39710534
0.39721127
0.39735398
0.39755905
0.39776979
0.39788505
0.39792158
0.39797592
0.39806197
0.39812013
0.39807672
0.39822045
0.3984857
0.39849985
0.3985107
0.39863965
0.39855081
0.39835854
0.39798637
0.39745908
0.39681477
0.39632862
0.39615437
0.39660525
0.39661604
0.396627
0.39663999
0.39665996
0.39668811
0.39672499
0.39677256
0.39683471
0.39691815
0.39703584
0.39722372
0.39742228
0.3975177
0.39752502
0.39753782
0.39755896
0.39758402
0.39757118
0.39762482
0.39780023
0.39789641
0.39778825
0.39817319
0.39809889
0.39804217
0.39784756
0.39750816
0.39729905
0.39710519
0.39695794
78.088784
142.34464
224.14339
301.32908
360.55741
397.16245
411.11308
406.01029
386.47864
350.89211
307.76442
260.60524
212.45986
165.83971
122.59734
83.966029
50.794948
24.819978
9.1910449
3.0197167
1.3559546
0.90527972
0.70998667
0.59358302
0.52097092
0.47784617
0.45160554
0.43417695
0.4226381
0.41466739
0.41056438
168.29766
255.01695
324.62433
374.82276
406.96587
421.251
419.57825
406.54083
377.34893
338.59614
294.47127
247.72029
200.83017
155.86786
114.39071
77.45635
45.850128
21.573478
7.5970918
2.5480464
1.2460048
0.87172638
0.69488413
0.58557385
0.51690256
0.475766
0.4505573
0.43359809
0.42232387
0.41448761
0.41049006
248.95402
314.30101
367.08162
405.07746
426.2619
431.2616
422.76458
400.85543
367.33749
326.85392
282.29434
236.08144
190.35971
146.8847
106.9848
71.578826
41.434418
18.822162
6.4548604
2.2598447
1.1786805
0.85664895
0.68774879
0.58170743
0.51492086
0.47470111
0.45000503
0.43324855
0.42211204
0.41434172
0.41039396
317.64754
370.3251
409.25566
432.99728
441.53714
437.35986
422.11694
393.77679
357.45239
315.76118
271.04667
225.45375
180.84438
138.72981
100.25692
66.239663
37.458307
16.453311
5.5206619
2.0020404
1.1283251
0.83611494
0.67669519
0.57557002
0.51176187
0.4730279
0.44914794
0.43275297
0.42183303
0.41417364
0.4102865
369.51069
409.68814
436.66628
449.9974
450.62721
440.29756
417.71562
385.9817
347.76623
305.27708
260.62155
215.70643
172.15951
131.29746
94.122932
61.36926
33.86324
14.375791
4.7416843
1.8235801
1.085135
0.82179286
0.66934143
0.57153941
0.5097152
0.47192985
0.44857727
0.4323891
0.42161251
0.41402435
0.41017633
410.04702
440.36729
457.70034
462.34877
456.83945
439.81605
412.5918
378.17497
338.48208
295.46617
251.00483
206.7845
164.23726
124.52234
88.525472
56.910575
30.612632
12.542963
4.0964168
1.6634779
1.0511437
0.80632108
0.66056519
0.56655838
0.50713241
0.47054731
0.44786007
0.43195301
0.42135774
0.41386346
0.41006379
441.98032
463.7571
473.03885
471.40448
459.60322
437.31467
406.99665
370.53525
329.73586
286.39651
242.20417
198.65983
157.03473
118.35907
83.42157
52.836063
27.676263
10.94438
3.5707501
1.548613
1.0216397
0.79364474
0.65372928
0.56273223
0.50518085
0.46950104
0.44731136
0.43159437
0.42113689
0.41371344
0.40995009
467.11403
481.74772
484.55093
478.10181
460.50228
434.40114
401.45726
363.32107
321.66545
278.12755
234.22803
191.31265
150.51998
112.7727
78.777457
49.118308
25.023453
9.5648455
3.1522172
1.4543085
0.99718873
0.78115134
0.64656867
0.55858763
0.50301973
0.468342
0.44670161
0.43120464
0.4209002
0.4135579
0.40983534
487.38056
495.95477
493.85717
482.17944
460.43299
431.2929
396.20047
356.70535
314.37027
270.70026
227.07948
184.72536
144.66684
107.73586
74.575489
45.736232
22.65042
8.3893882
2.8174356
1.3841075
0.97555095
0.77020767
0.64055765
0.55513141
0.50123925
0.46739175
0.44619606
0.43086329
0.42068413
0.41340899
0.40971972
504.29029
507.74477
501.5313
484.95064
460.00227
428.36275
391.47011
350.83197
307.92333
264.14088
220.75651
178.88112
139.45284
103.22613
70.804044
42.68754
20.529623
7.3990658
2.5573611
1.3270841
0.95683056
0.75984599
0.63468708
0.55165342
0.49941254
0.46641667
0.44567371
0.43051319
0.42046219
0.41325797
0.40960326
518.97493
518.13236
507.71616
487.34667
459.71054
425.90022
387.44395
345.80282
302.37406
258.46425
215.25338
173.76369
134.85787
99.224963
67.440697
39.954542
18.645235
6.5748364
2.346236
1.2815605
0.94012101
0.75054767
0.62959781
0.54863356
0.49783699
0.46558182
0.44522024
0.43019626
0.42025376
0.41311134
0.409486
531.79038
527.4555
513.05219
489.80464
459.81833
424.08313
384.24647
341.68885
297.75532
253.67768
210.56227
169.35742
130.86306
95.723885
64.465046
37.521326
16.988908
5.8977645
2.1839947
1.2443529
0.92537549
0.74193331
0.62483109
0.54572936
0.49629732
0.46476579
0.44477203
0.42988266
0.42004485
0.41296448
0.40936798
543.58895
535.99615
518.32649
492.58533
460.38049
423.044
381.9661
338.54111
294.08994
249.78424
206.67456
165.64777
127.45676
92.695413
61.854722
35.376104
15.546134
5.3478659
2.0570871
1.2139775
0.91219171
0.73417303
0.62065724
0.54316739
0.4949424
0.46405202
0.44437292
0.4295944
0.41984569
0.41282084
0.40924923
554.73276
544.10186
523.82231
495.86854
461.62242
422.91995
380.66185
336.39452
291.39774
246.79547
203.59091
162.63985
124.62368
90.114586
59.590382
33.498822
14.302572
4.9078182
1.9629753
1.1889099
0.90052314
0.7271095
0.61685965
0.54078278
0.49366475
0.46337749
0.44398959
0.42931604
0.41964899
0.41267796
0.4091298
565.92347
552.39375
529.84643
499.9276
464.05614
423.65894
380.43754
335.32593
289.7238
244.75628
201.33874
160.32423
122.35344
87.985501
57.675843
31.866692
13.242837
4.5626112
1.8923445
1.1683195
0.89019132
0.72080284
0.61354412
0.53868029
0.49253748
0.46278318
0.44364408
0.42905899
0.41946032
0.41253786
0.40900951
577.65448
561.60001
536.93069
505.13247
467.65156
425.91362
381.32833
335.42707
289.13596
243.65085
199.8992
158.68323
120.64492
86.306902
56.111665
30.472606
12.35281
4.3017157
1.8386338
1.1510782
0.88116753
0.71518458
0.61060189
0.5367803
0.49150718
0.46223619
0.44331907
0.42881529
0.41927609
0.41239938
0.4088881
589.46645
571.62893
545.15801
511.63791
472.57166
429.44073
383.62491
336.5625
289.48727
243.43073
199.23237
157.71922
119.4964
85.078623
54.898008
29.33459
11.636013
4.0891747
1.7889091
1.1363911
0.87336931
0.71027483
0.60806602
0.53512867
0.49060844
0.46175555
0.44302537
0.42859074
0.41909902
0.41226334
0.40876558
597.82927
579.46805
552.3075
517.91665
477.88133
433.71282
386.89123
338.843
290.8631
244.0353
199.33074
157.4334
118.91084
84.302804
54.034732
28.461124
11.07412
3.9181344
1.7483801
1.1244629
0.8667699
0.70604077
0.60587754
0.53368605
0.48981473
0.46132385
0.44275418
0.42838133
0.41892736
0.41212916
0.40864201
605.22272
585.9436
558.32172
523.61201
483.14331
438.38879
390.85924
342.03081
293.24063
245.6546
200.26712
157.79497
118.89323
83.984666
53.523371
27.854961
10.65253
3.7811034
1.7138596
1.1149737
0.86132912
0.70248801
0.60404266
0.53247118
0.48914201
0.46094955
0.442511
0.42819006
0.41876266
0.41199731
0.40851743
614.38127
593.81391
565.32694
530.06729
489.14717
443.88946
395.73583
346.16906
296.56847
248.16836
202.02456
158.9126
119.46038
84.106151
53.367229
27.517765
10.361408
3.6724758
1.6854773
1.1079696
0.8570435
0.69960805
0.60253572
0.53146686
0.48857885
0.4606243
0.44229191
0.42801505
0.41860415
0.41186747
0.40839199
623.42286
602.18105
573.13077
537.42768
496.09146
450.37766
401.63633
351.33038
300.88943
251.61028
204.61534
160.74026
120.6283
84.743435
53.569306
27.451433
10.196795
3.5860339
1.661917
1.1034003
0.85394071
0.69742052
0.60136706
0.53068353
0.48813394
0.46035231
0.44209971
0.42785758
0.41845246
0.41173969
0.40826582
632.02986
610.6317
581.45918
545.60127
504.00466
457.90764
408.62762
357.57952
306.25379
256.02139
208.07026
163.30595
122.41047
85.871904
54.15995
27.671553
10.16323
3.5150452
1.6424904
1.1013755
0.8520758
0.69593853
0.60053273
0.5301122
0.48780055
0.46012835
0.44193136
0.42771575
0.41830652
0.41161334
0.40813886
639.82011
618.51864
589.66734
554.13821
512.74435
466.47439
416.70832
364.94187
312.70109
261.43677
212.42089
166.63874
124.82812
87.511742
55.140501
28.195559
10.253278
3.4492057
1.6262596
1.1016716
0.85145503
0.69514064
0.60001754
0.52974059
0.4875726
0.45994913
0.44178478
0.42758834
0.41816562
0.41148804
0.40801096
645.4634
624.4391
596.08513
561.0669
520.08166
474.00213
424.09171
371.88155
318.96986
266.84741
216.87517
170.12938
127.41724
89.316229
56.262086
28.838599
10.463984
3.3699846
1.6120699
1.1033991
0.85169278
0.694909
0.59975263
0.52952503
0.48742613
0.45980307
0.44165405
0.42747279
0.41802898
0.41136391
0.40788215
78.151151
134.3769
210.60969
284.84161
344.59553
384.34547
402.64189
401.54298
385.16467
352.29882
311.04669
264.86291
216.97545
170.16339
126.45836
87.226537
53.364924
26.49893
9.9538695
3.1858075
1.3887427
0.91531931
0.71503038
0.59639853
0.52242425
0.47869377
0.45204225
0.43444903
0.422802
0.41478193
0.41060082
78.726752
131.23807
203.97946
275.97361
334.98174
375.28819
395.07841
395.79439
381.3111
350.49276
310.28422
264.85283
217.58738
171.12437
127.56121
88.327265
54.392225
27.28844
10.366655
3.2945408
1.4092541
0.9214054
0.71831162
0.59830851
0.52342906
0.47923585
0.45233274
0.43463282
0.42291822
0.41486481
0.41063907
79.715522
128.48373
197.21773
266.83567
325.01966
365.84308
387.09313
389.64463
376.74206
347.88932
309.15321
264.76927
218.16738
172.09224
128.69518
89.471948
55.464864
28.121924
10.815017
3.4175776
1.4317779
0.92789382
0.72167546
0.600202
0.52441571
0.47987908
0.45265451
0.43483417
0.42303869
0.41495252
0.41069732
81.450542
126.12855
190.68272
257.64794
314.84539
356.06739
378.70061
383.07663
371.84234
344.9944
307.818
264.56176
218.69512
173.05485
129.85412
90.658992
56.582343
29.002982
11.300583
3.5555409
1.4570147
0.93479639
0.72543468
0.60244311
0.5256147
0.48045507
0.45298235
0.43504129
0.42317367
0.4150463
0.41076156
83.658818
124.36647
184.42569
248.50628
304.53682
346.00462
369.91741
376.08725
366.58494
341.78667
306.2528
264.20581
219.15442
174.00235
131.0332
91.887543
57.744687
29.939456
11.824306
3.7096791
1.4857653
0.94240348
0.7291289
0.60448114
0.52670157
0.48122517
0.45336322
0.43527714
0.42331263
0.41514718
0.41081405
86.505072
123.16468
178.77104
239.67396
294.2442
335.73455
360.77972
368.68661
360.95668
338.25096
304.43757
263.68971
219.53035
174.92525
132.22792
93.157089
58.94997
30.930843
12.381142
3.8816343
1.5174473
0.95042814
0.73349645
0.60710659
0.52811412
0.48198757
0.45376325
0.43552536
0.42346389
0.41525482
0.41085393
89.946492
122.97466
173.58053
231.04851
283.93542
325.26495
351.3062
360.88414
354.93824
334.38508
302.35329
262.99239
219.80421
175.81012
133.42912
94.461216
60.192365
31.968524
12.97369
4.0729178
1.5538898
0.95901355
0.73784192
0.6096774
0.52952694
0.48280648
0.45419351
0.43578978
0.42362412
0.4153693
0.4109079
94.349981
123.38483
169.23152
222.98128
273.86625
314.75954
341.5888
352.72407
348.57437
330.1367
299.97136
262.08583
219.94825
176.63725
134.62152
95.786481
61.479442
33.058903
13.629175
4.2864421
1.593646
0.96818863
0.74239264
0.6123894
0.53102489
0.48367443
0.45464966
0.43607189
0.42379399
0.41549069
0.41099514
99.664649
124.54252
165.64327
215.49596
264.09964
304.28196
331.67764
344.23441
341.84582
325.52356
297.27809
260.95167
219.93946
177.39582
135.80012
97.131914
62.806453
34.202868
14.34483
4.5248425
1.6396063
0.97804738
0.74716182
0.61527161
0.53265431
0.48461227
0.45514331
0.4363726
0.42397331
0.41561935
0.41110486
106.09238
127.04207
163.14404
208.7769
254.76678
293.93439
321.6466
335.45791
334.76975
320.53824
294.25646
259.5709
219.8125
178.07162
136.95271
98.489562
64.17008
35.40805
15.116824
4.7912029
1.6903655
0.98861191
0.75213116
0.61831629
0.5343594
0.48559085
0.45566074
0.43669344
0.42416376
0.41575527
0.41121446
113.48467
130.51974
161.48384
202.82979
245.95787
283.81352
311.57306
326.44053
327.38537
315.17041
290.89032
257.91975
219.49083
178.64406
138.06524
99.850565
65.563943
36.66653
15.949785
5.0895594
1.7486292
1.0000786
0.75735404
0.62151816
0.53623421
0.48666644
0.45622903
0.43703684
0.42436371
0.41589885
0.41132142
121.82649
135.3059
161.50785
197.90956
237.7973
274.01811
301.53767
317.24034
319.72375
309.42457
287.16637
255.9746
218.94376
179.09051
139.12183
101.20462
66.981457
37.96616
16.821084
5.4208542
1.8139748
1.0123867
0.76268092
0.62493603
0.53816122
0.48775714
0.45681353
0.43740194
0.42457664
0.41605028
0.41142859
130.89645
141.12894
162.20155
193.99613
230.3837
264.64656
291.62453
307.9228
311.80507
303.31498
283.08006
253.7158
218.16449
179.38703
140.10469
102.53996
68.415585
39.304877
17.726272
5.7891472
1.8884336
1.0259375
0.76845633
0.62840525
0.54028129
0.48899
0.45746904
0.437795
0.42479786
0.41621031
0.41154476
140.37283
147.77053
164.04324
191.1021
223.76741
255.77509
281.91122
298.55272
303.65767
296.85924
278.62557
251.12498
217.12752
179.49548
140.99389
103.84347
69.858485
40.678192
18.681795
6.1982217
1.9727165
1.0405278
0.773929
0.6322153
0.54245585
0.49019486
0.458128
0.43820937
0.42503538
0.41637833
0.41167099
150.09075
155.18502
167.23319
189.34228
218.03021
247.48025
272.47604
289.18469
295.31623
290.08519
273.797
248.18609
215.8126
179.42982
141.77282
105.10131
71.300731
42.078173
19.68597
6.6497457
2.0686329
1.0567637
0.78045431
0.63583579
0.54476133
0.49159824
0.45888231
0.4386584
0.42527873
0.4165548
0.41180442
159.50845
162.81115
171.25375
188.69462
213.2234
239.84185
263.40057
279.89356
286.81498
283.02275
268.59878
244.88948
214.20425
179.18883
142.42558
106.29948
72.733323
43.494337
20.743933
7.1486245
2.1776279
1.074515
0.78582651
0.63997695
0.54725639
0.49294066
0.45963164
0.43912641
0.42554457
0.41673861
0.41194276
168.08608
170.08656
175.66597
188.87549
209.29531
232.88062
254.73259
270.74895
278.19338
275.7117
263.041
241.22655
212.27885
178.67037
142.92718
107.42375
74.14981
44.920924
21.85433
7.6876726
2.3014935
1.094162
0.79297754
0.64366233
0.54962038
0.49449788
0.46048659
0.43963298
0.42581222
0.4169305
0.41208543
175.32471
176.41109
179.76263
189.42211
206.07984
226.5807
246.51112
261.81102
269.51289
268.17472
257.15417
237.20122
210.02619
177.89927
143.25962
108.45991
75.544958
46.367452
23.031754
8.3017933
2.4428601
1.1168917
0.79867059
0.64784919
0.5525269
0.49604379
0.46135823
0.44015891
0.42611226
0.41712873
0.41223195
180.43797
181.10102
183.20803
190.22072
203.51708
221.00953
238.85103
253.18957
260.86618
260.47495
250.97837
232.8338
207.44647
176.86113
143.38808
109.38977
76.900879
47.829717
24.269866
8.9628512
2.6034091
1.1424817
0.80535371
0.65178504
0.55489254
0.49767983
0.4622939
0.4407152
0.42640824
0.41733398
0.41238157
182.99885
183.44477
185.00335
190.32276
201.18355
216.02033
231.75787
244.952
252.36768
252.69705
244.57598
228.15796
204.54937
175.55305
143.33234
110.20039
78.200926
49.284162
25.540422
9.6531097
2.7848338
1.1714673
0.81237624
0.65529906
0.55804295
0.49951299
0.46333396
0.44130625
0.42674839
0.41754424
0.41253374
183.11368
183.62264
185.21703
189.92796
198.8765
211.46195
225.22068
237.15715
244.14679
244.95455
238.0339
223.23247
201.3693
173.99309
143.12272
110.88734
79.434757
50.723626
26.843692
10.416038
2.9941104
1.2046063
0.81809975
0.659969
0.56077963
0.50114398
0.46431718
0.4418976
0.42707629
0.41776026
0.41268804
182.66088
183.35059
185.10777
189.35166
196.96743
207.646
219.49872
230.03538
236.39741
237.42333
231.48526
218.15254
197.96168
172.19654
142.67389
111.437
80.593576
52.139175
28.165576
11.229373
3.2320256
1.2412946
0.825888
0.66226945
0.56342439
0.50324403
0.46555156
0.44255945
0.4274564
0.41798008
0.41284342
182.70098
183.48234
185.40584
189.46188
196.0651
204.94258
214.8688
223.84912
229.35362
230.3219
225.10336
213.04329
194.40436
170.20527
142.04653
111.85112
81.672374
53.524102
29.49625
12.06782
3.4928715
1.2839397
0.82995331
0.66658311
0.56710085
0.50499425
0.46659755
0.44317856
0.42781631
0.41820438
0.4129987
183.96003
184.80593
186.77345
190.45217
196.18564
203.39037
211.43333
218.74545
223.18478
223.8425
219.06287
208.04285
190.79745
168.08164
141.2696
112.13947
82.671229
54.876767
30.840501
12.963979
3.7986004
1.3338058
0.83968127
0.6698693
0.569024
0.50710941
0.46796021
0.44388545
0.42822745
0.41843149
0.41315185
188.4196
189.02673
190.48227
193.18759
197.4441
203.21009
209.20412
214.76913
217.98403
218.13462
213.52217
203.29218
187.24857
165.89872
140.38443
112.31953
83.5936
56.195752
32.201837
13.944373
4.1483315
1.3886771
0.84356062
0.6711236
0.57239069
0.50938359
0.46919966
0.44455605
0.42861805
0.41865848
0.41330088
196.17559
196.13511
196.60039
197.98994
200.51514
204.13411
208.40035
212.01401
213.92099
213.30909
208.61349
198.92206
183.86827
163.73313
139.43547
112.41293
84.444296
57.475565
33.563611
14.981033
4.539043
1.4515722
0.84989299
0.67538528
0.57553084
0.51114683
0.4705369
0.44524125
0.42904525
0.41888727
0.4134426
205.85621
205.14525
204.64991
204.63403
205.34885
206.82888
208.94975
210.63459
211.11892
209.48836
204.45252
195.04358
180.75253
161.65986
138.47182
112.44391
85.230621
58.714177
34.919419
16.057803
4.9750896
1.5260123
0.85932002
0.67741738
0.57686609
0.5139084
0.47212999
0.44599501
0.42945965
0.41909957
0.41357426
216.98636
215.91166
214.57932
213.25777
212.168
211.46422
211.09733
210.93551
209.72608
206.80735
201.14257
191.74344
177.97683
159.74028
137.53658
112.43425
85.962377
59.912441
36.267002
17.177515
5.4698838
1.6132608
0.8680865
0.67770407
0.58022568
0.51585206
0.47331521
0.44667344
0.4298759
0.41931533
0.41369113
227.14586
226.36218
224.93211
222.98862
220.67103
218.15771
215.56892
212.83028
209.88184
205.40583
198.80672
189.11157
175.60277
158.01518
136.65417
112.40502
86.642773
61.068985
37.601783
18.328948
6.0027359
1.7145769
0.87890696
0.68051874
0.58282059
0.51775068
0.47497885
0.44751184
0.43025569
0.41949562
0.41378983
231.897
232.0532
231.48092
230.02507
227.70294
224.5742
220.7577
216.33787
211.22631
205.24898
197.48277
187.19097
173.66028
156.49869
135.82799
112.34439
87.264265
62.175825
38.919335
19.514531
6.6044853
1.8343449
0.89209561
0.6830048
0.58398744
0.52093159
0.47633823
0.44829465
0.43062225
0.41969245
0.41386437
230.76911
231.6927
231.94695
231.35922
229.76016
227.05841
223.22987
218.3121
212.33147
205.22145
196.58662
185.70551
172.01828
155.12403
135.02071
112.23282
87.813734
63.224368
40.212903
20.727716
7.2805879
1.9770076
0.90836673
0.68433086
0.5871246
0.52210087
0.4773138
0.44914786
0.4309637
0.41983513
0.41391134
225.06011
227.4305
228.86909
229.20745
228.37237
226.35633
222.92044
218.13607
212.05017
204.58299
195.40179
184.11257
170.31565
153.66837
134.10357
112.00282
88.266972
64.195886
41.470447
21.960636
8.0268659
2.1470701
0.92883529
0.68789338
0.58863041
0.52328446
0.47913594
0.44981006
0.43126277
0.41996537
0.41392412
211.24517
215.37999
219.02638
221.69409
222.86501
222.25855
219.90575
215.80036
209.97193
202.41743
193.01783
181.64141
167.99471
151.76419
132.83547
111.48554
88.428613
65.007456
42.660491
23.200905
8.8462907
2.3492581
0.95413378
0.69171097
0.59036993
0.52574971
0.48002612
0.45051347
0.43157845
0.42006805
0.41389954
194.00353
198.34243
202.50047
206.13948
208.95594
210.46464
210.30615
208.05167
203.55555
196.85815
188.14772
177.45237
164.48515
149.02042
130.96456
110.53028
88.345515
65.636682
43.754831
24.42811
9.7379058
2.5887988
0.98491032
0.69616565
0.59223762
0.52572713
0.48053763
0.45104155
0.43182719
0.42008657
0.41383229
178.9937
182.89373
186.74133
190.28737
193.25983
195.31206
196.09767
195.28775
192.55676
187.70719
180.63981
171.28246
159.51772
145.20894
128.32115
109.0513
87.992528
66.072676
44.733331
25.624787
10.699569
2.8715369
1.0219389
0.70302629
0.59259708
0.52540018
0.48113564
0.45115072
0.43188228
0.42006232
0.41371882
168.92957
171.97563
174.9887
177.81964
180.27177
182.0905
182.97723
182.67496
180.84485
177.21484
171.56677
163.68036
153.36134
140.46568
124.95031
107.00068
87.127466
66.14249
45.534461
26.764792
11.701105
3.2069734
1.0661561
0.70927623
0.59251612
0.52517375
0.48095877
0.4510886