/*--------------------------------*- C++ -*----------------------------------*\
| =========                 |                                                 |
| \\      /  F ield         | OpenFOAM: The Open Source CFD Toolbox           |
|  \\    /   O peration     | Version:  2406                                  |
|   \\  /    A nd           | Website:  www.openfoam.com                      |
|    \\/     M anipulation  |                                                 |
\*---------------------------------------------------------------------------*/
FoamFile
{
    version     2.0;
    format      ascii;
    arch        "LSB;label=32;scalar=64";
    class       volScalarField;
    location    "0.044";
    object      T;
}
// * * * * * * * * * * * * * * * * * * * * * * * * * * * * * * * * * * * * * //

dimensions      [0 0 0 1 0 0 0];

internalField   nonuniform List<scalar> 
8260
(
292.77617
292.7774
292.77963
292.7872
292.79871
292.81234
292.82641
292.83936
292.8495
292.8555
292.85622
292.85074
292.83868
292.82058
292.79898
292.78141
292.80311
292.87607
292.92422
292.94755
292.96382
292.9777
292.98933
292.99968
293.00879
293.0165
293.02276
293.02783
293.03206
293.03462
293.03635
292.842
292.83684
292.83455
292.8365
292.84136
292.84815
292.85579
292.86295
292.86817
292.87005
292.86749
292.85941
292.84539
292.82574
292.80382
292.78788
292.81445
292.88729
292.9306
292.95174
292.96702
292.98021
292.99133
293.00127
293.01004
293.01751
293.02359
293.02853
293.03266
293.03515
293.03684
292.91262
292.90286
292.89537
292.89123
292.88941
292.88934
292.89032
292.89126
292.89094
292.88823
292.88177
292.87055
292.85407
292.83249
292.8099
292.79556
292.82807
292.89919
292.93721
292.95628
292.97055
292.98301
292.99357
293.00308
293.01148
293.01866
293.02455
293.02932
293.03335
293.03575
293.0374
292.98464
292.97091
292.95863
292.94884
292.94087
292.93436
292.92886
292.92361
292.91758
292.90976
292.89894
292.88413
292.86476
292.84094
292.81748
292.80521
292.84453
292.91218
292.94457
292.96151
292.97465
292.98626
292.99619
293.00518
293.01314
293.02
293.02565
293.03024
293.03414
293.03645
293.03804
293.05607
293.03913
293.02286
293.00818
292.99472
292.98228
292.97066
292.95933
292.94754
292.93437
292.91886
292.90008
292.87745
292.85119
292.82687
292.818
292.86441
292.92611
292.95273
292.96744
292.97932
292.98996
292.99916
293.00758
293.01502
293.02152
293.0269
293.03128
293.03503
293.03724
293.03877
293.12584
293.10661
293.08728
293.06858
293.05039
293.03266
293.01536
292.99821
292.98069
292.96211
292.94167
292.91858
292.89237
292.86352
292.83859
292.8352
292.88804
292.94086
292.96178
292.97416
292.9846
292.99418
293.00255
293.01031
293.01718
293.02325
293.02833
293.03247
293.03605
293.03814
293.0396
293.19284
293.17216
293.1507
293.12895
293.10691
293.0847
293.06237
293.03985
293.01686
292.99293
292.96746
292.93986
292.9098
292.87838
292.85362
292.85839
292.9151
292.9563
292.9718
292.98174
292.99057
292.99895
293.0064
293.01341
293.01963
293.02522
293.02995
293.03382
293.03721
293.03916
293.04054
293.25568
293.23431
293.21155
293.18772
293.16289
293.13715
293.11066
293.08348
293.0555
293.02651
292.99613
292.96399
292.92998
292.89642
292.87355
292.88957
292.94461
292.97242
292.98291
292.9903
292.99729
293.00436
293.01077
293.01692
293.02242
293.02746
293.03179
293.03536
293.03852
293.04032
293.0416
293.313
293.29164
293.26839
293.24343
293.21678
293.18854
293.15888
293.12792
293.09572
293.06224
293.02735
292.99091
292.95321
292.91866
292.90105
292.93017
292.97449
292.98929
292.99526
292.99995
293.00486
293.01047
293.0157
293.0209
293.02558
293.03
293.03389
293.03712
293.04001
293.04165
293.04281
293.36374
293.34279
293.31972
293.29441
293.26684
293.23711
293.20534
293.17169
293.13627
293.09918
293.06053
293.02048
292.9801
292.94684
292.94114
292.97811
293.00287
293.00712
293.00893
293.0108
293.0134
293.01735
293.02128
293.0254
293.02918
293.03289
293.03628
293.03912
293.04171
293.04316
293.04418
293.40683
293.38618
293.36332
293.33825
293.31077
293.28073
293.24813
293.21306
293.17566
293.13614
293.09484
293.05253
293.01207
292.98649
292.99875
293.02529
293.02955
293.02603
293.02389
293.02285
293.02311
293.0251
293.02759
293.03052
293.03326
293.03619
293.039
293.04142
293.04364
293.04489
293.04573
293.44011
293.42091
293.39942
293.37528
293.34836
293.31858
293.28595
293.25051
293.21239
293.17192
293.12987
293.0887
293.05566
293.04781
293.0634
293.06548
293.05517
293.04632
293.04016
293.03619
293.03393
293.03387
293.03478
293.03639
293.03792
293.03996
293.0421
293.04406
293.04585
293.04686
293.04749
293.46288
293.44473
293.4242
293.4014
293.37602
293.34783
293.31669
293.28268
293.24613
293.20789
293.16992
293.13779
293.12236
293.12373
293.11647
293.09824
293.08144
293.06782
293.05781
293.05059
293.04596
293.04367
293.04294
293.04304
293.04322
293.04426
293.04564
293.04706
293.04837
293.04911
293.04952
293.47351
293.4577
293.44011
293.4204
293.39813
293.37294
293.34492
293.31476
293.28368
293.25367
293.22787
293.20956
293.19711
293.17887
293.15342
293.12883
293.1076
293.09073
293.07687
293.06626
293.0589
293.05453
293.05205
293.05053
293.04921
293.0491
293.04965
293.05044
293.05123
293.05165
293.05185
293.48857
293.47448
293.45795
293.4391
293.41886
293.39836
293.37738
293.35552
293.33326
293.31149
293.29047
293.26849
293.2415
293.21204
293.1838
293.15688
293.13385
293.11422
293.09719
293.08312
293.07288
293.06621
293.06202
293.05876
293.05583
293.05453
293.05416
293.05423
293.05448
293.05452
293.05453
293.493
293.48593
293.47849
293.47011
293.45897
293.44347
293.42384
293.40038
293.37533
293.35052
293.32449
293.29541
293.26512
293.23705
293.2099
293.18343
293.15871
293.13724
293.11796
293.10131
293.08789
293.0787
293.07279
293.06765
293.0631
293.06054
293.0592
293.05847
293.05813
293.05775
293.0576
293.47091
293.46274
293.45359
293.44375
293.43342
293.42304
293.4135
293.4055
293.39373
293.37195
293.34309
293.31467
293.287
293.25815
293.23122
293.20683
293.18223
293.15886
293.138
293.11991
293.10411
293.09222
293.08434
293.07707
293.07102
293.06723
293.06486
293.06322
293.06217
293.06136
293.06109
293.45786
293.45263
293.44656
293.43923
293.43037
293.41963
293.40618
293.38992
293.37378
293.36097
293.34891
293.32851
293.30292
293.2759
293.24962
293.22576
293.20191
293.17818
293.15634
293.13773
293.12072
293.1068
293.09692
293.08726
293.07963
293.07462
293.07118
293.06849
293.06666
293.06536
293.06502
293.42867
293.42384
293.41838
293.41222
293.40536
293.39784
293.38974
293.38087
293.37033
293.35656
293.34078
293.32865
293.315
293.29092
293.26559
293.241
293.21709
293.19407
293.17275
293.15368
293.13648
293.12181
293.11033
293.09832
293.08899
293.08267
293.07807
293.07434
293.07165
293.0698
293.06938
293.40997
293.40683
293.40319
293.3989
293.39379
293.38765
293.38024
293.37141
293.36139
293.35068
293.33883
293.32288
293.30688
293.29682
293.27607
293.2531
293.23108
293.20772
293.18701
293.16814
293.15081
293.13601
293.12346
293.10983
293.09903
293.09127
293.08547
293.0807
293.07712
293.0747
293.07416
293.38216
293.37927
293.37596
293.37218
293.36787
293.36299
293.35753
293.35147
293.34456
293.33633
293.32673
293.31699
293.30523
293.29048
293.27943
293.2608
293.24302
293.22177
293.20083
293.18194
293.1647
293.1488
293.13483
293.12104
293.10936
293.10029
293.09332
293.08756
293.08311
293.08011
293.07936
293.36253
293.36068
293.35853
293.35599
293.35296
293.34935
293.34503
293.33982
293.33365
293.32653
293.31837
293.30847
293.29752
293.28588
293.27364
293.26492
293.24792
293.23021
293.21156
293.19526
293.17834
293.16098
293.14467
293.13154
293.11982
293.10973
293.1016
293.09488
293.08965
293.08605
293.08497
293.33629
293.33453
293.33252
293.33019
293.32751
293.32447
293.32102
293.31716
293.31283
293.30797
293.3025
293.29651
293.28948
293.28082
293.27121
293.25872
293.24835
293.23862
293.2219
293.20486
293.18972
293.17347
293.15581
293.14202
293.13047
293.1196
293.11039
293.10264
293.0967
293.09255
293.091
293.319
293.31807
293.31696
293.31564
293.31402
293.31204
293.30961
293.30667
293.30311
293.29882
293.29364
293.28742
293.28024
293.27257
293.26353
293.25468
293.24524
293.2339
293.22736
293.21281
293.1975
293.18331
293.16783
293.15367
293.141
293.12946
293.11949
293.11085
293.10416
293.09955
293.09743
293.29478
293.29378
293.29262
293.2913
293.28981
293.28814
293.28624
293.28407
293.28156
293.27866
293.27532
293.27155
293.26733
293.26235
293.25696
293.24986
293.24165
293.23421
293.22262
293.21246
293.20036
293.18815
293.17569
293.16327
293.15065
293.13864
293.12812
293.11922
293.11191
293.10692
293.10426
293.28102
293.28055
293.27998
293.27926
293.27837
293.27724
293.27586
293.2742
293.27223
293.26993
293.26723
293.26397
293.25994
293.25521
293.24972
293.24401
293.23705
293.22888
293.22282
293.21278
293.20152
293.18971
293.17959
293.1693
293.15787
293.14643
293.13596
293.12728
293.11978
293.11451
293.11148
293.261
293.26038
293.25967
293.25887
293.25798
293.25701
293.25594
293.25473
293.25337
293.25183
293.25012
293.24834
293.2466
293.24472
293.24223
293.23849
293.23388
293.22776
293.21903
293.21274
293.2042
293.1935
293.18228
293.17231
293.16289
293.15329
293.14353
293.13501
293.12777
293.1223
293.11902
293.24971
293.24947
293.24916
293.24879
293.24833
293.24777
293.24707
293.24623
293.24522
293.24399
293.24249
293.24059
293.23821
293.23524
293.23169
293.22805
293.22427
293.22039
293.21556
293.20918
293.20495
293.1976
293.18739
293.17795
293.16962
293.16028
293.15126
293.1429
293.13587
293.13024
293.12673
293.23441
293.23417
293.23389
293.23356
293.23317
293.23271
293.23216
293.23152
293.23075
293.22985
293.22878
293.22753
293.2261
293.22458
293.22303
293.22095
293.21806
293.21453
293.21134
293.20743
293.202
293.19826
293.19274
293.18356
293.17472
293.16672
293.15859
293.15063
293.14368
293.13814
293.13452
293.22794
293.22778
293.22759
293.22736
293.22708
293.22675
293.22635
293.22587
293.22529
293.22459
293.22374
293.2227
293.22144
293.21995
293.21805
293.2159
293.2136
293.21096
293.20768
293.20423
293.19973
293.19379
293.18987
293.1858
293.17798
293.17083
293.1636
293.15645
293.14999
293.1447
293.14129
293.22107
293.2209
293.22071
293.22048
293.22021
293.21989
293.21951
293.21908
293.21856
293.21797
293.21727
293.21646
293.21548
293.21423
293.21277
293.21107
293.20909
293.20685
293.20415
293.2009
293.19747
293.1938
293.18879
293.18394
293.1798
293.1737
293.16709
293.16054
293.15436
293.14927
293.14612
293.8664
293.74424
293.62058
293.50735
293.40958
293.32306
293.24444
293.17345
293.10782
293.04862
292.99565
292.94835
292.90548
292.86566
292.82713
292.78727
292.74768
292.71775
292.73258
292.80007
292.86038
292.89767
292.92415
292.9461
292.96476
292.98001
292.99195
293.00147
293.00876
293.01364
293.01667
293.69465
293.58347
293.49128
293.40982
293.333
293.25945
293.19009
293.12613
293.06708
293.01414
292.96699
292.92475
292.88605
292.8496
292.81357
292.77608
292.73852
292.71529
292.73898
292.81081
292.86747
292.90203
292.92738
292.9487
292.96686
292.9817
292.99333
293.00262
293.00976
293.01452
293.01734
293.63103
293.53542
293.44774
293.36448
293.28553
293.21251
293.14605
293.0861
293.03241
292.98485
292.94263
292.90465
292.86945
292.83582
292.80181
292.76648
292.7309
292.7142
292.74638
292.82068
292.87345
292.90582
292.9303
292.95108
292.9688
292.98326
292.99461
293.0037
293.0107
293.01536
293.0181
293.56145
293.46807
293.38267
293.30314
293.2295
293.16234
293.10195
293.04808
293.00035
292.95822
292.92076
292.88674
292.85475
292.82364
292.79133
292.75807
292.72498
292.71413
292.7547
292.83034
292.87921
292.90967
292.93332
292.95353
292.97078
292.98486
292.99593
293.0048
293.01166
293.01621
293.01888
293.48208
293.39406
293.31469
293.24129
293.17393
293.11326
293.05938
293.0119
292.9702
292.93346
292.90061
292.87038
292.8414
292.8126
292.78191
292.7506
292.72084
292.71517
292.76443
292.83965
292.88459
292.91341
292.93629
292.95595
292.97275
292.98645
292.99724
293.0059
293.01262
293.01706
293.01968
293.39226
293.31397
293.24278
293.17705
293.11747
293.06453
293.01804
292.97744
292.94192
292.91053
292.88214
292.85549
292.82932
292.80266
292.77359
292.7442
292.7182
292.71733
292.7753
292.84846
292.88969
292.91711
292.93927
292.95838
292.97472
292.98805
292.99856
293.00701
293.01358
293.01792
293.02048
293.2971
293.22931
293.16752
293.11121
293.06098
293.01685
292.9784
292.94496
292.91566
292.8895
292.86537
292.84208
292.81854
292.79386
292.76645
292.73893
292.71621
292.72063
292.78698
292.85666
292.89453
292.92075
292.94221
292.96078
292.97668
292.98964
292.99988
293.00813
293.01455
293.01878
293.02129
293.19329
293.13876
293.08932
293.04476
293.00531
292.9708
292.9408
292.91466
292.8915
292.8704
292.8503
292.83016
292.80905
292.78616
292.76042
292.73461
292.7146
292.72566
292.79902
292.86423
292.89917
292.92434
292.94513
292.96317
292.97862
292.99123
293.0012
293.00924
293.01553
293.01964
293.0221
293.08431
293.04594
293.01112
292.97958
292.95153
292.92699
292.90559
292.88668
292.86951
292.85323
292.83694
292.81972
292.80082
292.77944
292.7553
292.73119
292.71385
292.73267
292.81083
292.8712
292.90365
292.92788
292.94802
292.96554
292.98056
292.99282
293.00252
293.01036
293.01651
293.02051
293.02292
292.97678
292.95514
292.93538
292.91696
292.90042
292.88596
292.87306
292.86119
292.84975
292.83802
292.82527
292.81075
292.79383
292.77377
292.75124
292.72872
292.71415
292.74129
292.82206
292.87765
292.90801
292.93138
292.95089
292.96789
292.98248
292.99439
293.00384
293.01148
293.01749
293.02139
293.02374
292.87359
292.86871
292.86329
292.85789
292.85285
292.84824
292.84349
292.83833
292.83228
292.8248
292.81532
292.80322
292.78803
292.76931
292.74843
292.72716
292.71558
292.75078
292.83257
292.88366
292.91226
292.93484
292.95372
292.97021
292.98438
292.99596
293.00516
293.0126
293.01847
293.02226
293.02456
292.77674
292.78762
292.79651
292.80391
292.80987
292.81427
292.8171
292.81819
292.81715
292.81358
292.80705
292.79713
292.78352
292.76633
292.74664
292.72645
292.71799
292.76094
292.84239
292.88932
292.91643
292.93824
292.95652
292.97251
292.98626
292.99752
293.00647
293.01372
293.01945
293.02314
293.02539
292.68978
292.71491
292.73688
292.75582
292.7717
292.7845
292.79422
292.80086
292.80434
292.80428
292.80044
292.79252
292.78068
292.76471
292.74545
292.72659
292.7213
292.77153
292.8515
292.89469
292.92052
292.9416
292.95928
292.97478
292.98812
292.99907
293.00777
293.01484
293.02043
293.02402
293.02622
292.61708
292.65335
292.68605
292.71468
292.73905
292.75911
292.77487
292.78643
292.79389
292.797
292.79567
292.78981
292.77923
292.76394
292.74518
292.72747
292.72544
292.78229
292.85992
292.89983
292.92452
292.9449
292.96201
292.97703
292.98997
293.0006
293.00907
293.01595
293.02141
293.02491
293.02705
292.56229
292.60633
292.64636
292.68196
292.71281
292.73869
292.75951
292.77549
292.7865
292.7924
292.79327
292.78871
292.77874
292.76413
292.74589
292.72897
292.73043
292.79296
292.86767
292.90478
292.92846
292.94815
292.96469
292.97924
292.99178
293.00212
293.01036
293.01706
293.02239
293.02579
293.02789
292.5219
292.57338
292.61871
292.65891
292.69422
292.72443
292.74922
292.76879
292.78274
292.79052
292.79229
292.78856
292.77936
292.76533
292.7475
292.73126
292.7363
292.80327
292.87481
292.90956
292.93231
292.95134
292.96734
292.98143
292.99359
293.00364
293.01165
293.01817
293.02338
293.02667
293.02873
292.48459
292.54455
292.59696
292.6426
292.68209
292.7158
292.74376
292.76533
292.78046
292.78967
292.79267
292.78974
292.78115
292.76756
292.74999
292.73448
292.743
292.81311
292.88152
292.91424
292.9361
292.95449
292.96996
292.98359
292.99537
293.00514
293.01293
293.01927
293.02436
293.02756
293.02957
292.45885
292.51974
292.57618
292.62671
292.6707
292.70805
292.73882
292.76273
292.77988
292.79056
292.79465
292.79237
292.78415
292.77082
292.75337
292.73843
292.75032
292.82248
292.88785
292.9188
292.93984
292.9576
292.97254
292.98573
292.99714
293.00662
293.0142
293.02037
293.02534
293.02845
293.03041
292.46344
292.51842
292.57157
292.62123
292.66598
292.70489
292.73742
292.76303
292.78163
292.79346
292.79834
292.79648
292.78839
292.77513
292.75765
292.74306
292.75797
292.83136
292.89383
292.92326
292.94351
292.96067
292.97509
292.98783
292.99889
293.00809
293.01547
293.02146
293.02631
293.02933
293.03126
292.48108
292.53144
292.58043
292.62693
292.66982
292.70807
292.74072
292.76681
292.78602
292.79845
292.80378
292.80208
292.79391
292.78048
292.76281
292.74837
292.76575
292.83977
292.89952
292.92762
292.94712
292.96368
292.9776
292.98991
293.00061
293.00955
293.01671
293.02255
293.02728
293.03021
293.0321
292.51103
292.55548
292.59944
292.64173
292.68136
292.71737
292.74861
292.77409
292.79316
292.80557
292.81096
292.80917
292.8007
292.78687
292.76883
292.75431
292.77354
292.84775
292.90493
292.93186
292.95064
292.96662
292.98005
292.99194
293.0023
293.01097
293.01795
293.02362
293.02825
293.0311
293.03295
292.55305
292.58963
292.62705
292.66399
292.69933
292.73184
292.7605
292.78457
292.80285
292.81468
292.81974
292.81763
292.80869
292.79425
292.77567
292.76082
292.78125
292.85532
292.91005
292.93594
292.95404
292.96947
292.98242
292.9939
293.00395
293.01237
293.01916
293.02468
293.02921
293.03198
293.0338
292.60699
292.63299
292.66138
292.69135
292.72124
292.74963
292.77542
292.79737
292.81435
292.82531
292.82978
292.8272
292.81768
292.80246
292.7832
292.76773
292.78872
292.86228
292.91474
292.93977
292.95727
292.97218
292.9847
292.99582
293.00556
293.01375
293.02036
293.02574
293.03017
293.03287
293.03465
292.67788
292.69198
292.70791
292.72758
292.74981
292.77267
292.79438
292.81338
292.82824
292.83796
292.8415
292.8382
292.82792
292.81166
292.79142
292.77473
292.7953
292.86828
292.91899
292.94341
292.96039
292.97485
292.98697
292.99773
293.00718
293.01514
293.02159
293.02682
293.03115
293.03378
293.03554
293.86637
293.76511
293.64495
293.53062
293.42952
293.34148
293.26245
293.18933
293.12314
293.06307
293.00878
292.95991
292.9155
292.87428
292.83469
292.79407
292.75379
292.72121
292.73059
292.79477
292.85688
292.8953
292.9223
292.94459
292.96352
292.97901
292.99113
293.00078
293.00817
293.01313
293.0162
293.84396
293.74361
293.62904
293.52111
293.42518
293.34068
293.26471
293.19444
293.12995
293.07076
293.01662
292.96734
292.9222
292.8801
292.83965
292.79835
292.75743
292.72379
292.72943
292.79154
292.85486
292.89384
292.92105
292.94349
292.96257
292.97818
292.99041
293.00016
293.00761
293.01262
293.0157
293.82358
293.72906
293.61893
293.51631
293.42501
293.34367
293.26998
293.20158
293.13815
293.07947
293.02528
292.97548
292.92954
292.8865
292.84509
292.80301
292.76122
292.7263
292.72816
292.78768
292.85241
292.89212
292.91962
292.94226
292.96151
292.97726
292.98961
292.99946
293.00698
293.01205
293.01494
293.80578
293.7188
293.61304
293.51442
293.42608
293.34704
293.27516
293.20819
293.14579
293.08773
293.03369
292.98357
292.93698
292.89312
292.85081
292.80805
292.76543
292.72901
292.72727
292.78358
292.84964
292.89015
292.91799
292.94086
292.96031
292.97623
292.98872
292.99868
293.00629
293.01143
293.01445
293.78929
293.71041
293.60878
293.5131
293.42711
293.35004
293.27981
293.21427
293.15299
293.09568
293.04197
292.99172
292.94464
292.90006
292.85692
292.81354
292.77012
292.73207
292.72679
292.77944
292.84668
292.88805
292.91624
292.93935
292.95901
292.97512
292.98777
292.99786
293.00556
293.01077
293.01388
293.77154
293.70199
293.6049
293.5118
293.42807
293.35286
293.2842
293.22009
293.15998
293.10351
293.05025
293.00001
292.95257
292.90736
292.86348
292.81954
292.77532
292.73559
292.72675
292.77533
292.84357
292.88583
292.91438
292.93775
292.95765
292.97394
292.98675
292.99698
293.00477
293.01007
293.01339
293.75391
293.69335
293.60162
293.51125
293.42949
293.35591
293.28864
293.22588
293.16691
293.1113
293.05857
293.00847
292.96079
292.91507
292.87051
292.82605
292.781
292.73962
292.72714
292.7713
292.84038
292.88359
292.91249
292.93611
292.95622
292.9727
292.98568
292.99604
293.00393
293.00932
293.01252
293.73728
293.68491
293.5991
293.51164
293.43162
293.35939
293.29332
293.23176
293.17387
293.11912
293.06698
293.01712
292.96932
292.92319
292.87804
292.83306
292.78718
292.74431
292.72794
292.76735
292.83707
292.88129
292.91056
292.9344
292.95472
292.9714
292.98455
292.99505
293.00305
293.00852
293.0119
293.72311
293.67745
293.59772
293.51324
293.43475
293.36356
293.29844
293.23789
293.18097
293.12704
293.07551
293.02597
292.97815
292.93171
292.88605
292.8405
292.79394
292.74982
292.7292
292.76357
292.83364
292.87893
292.90856
292.93263
292.95316
292.97003
292.98335
292.994
293.0021
293.00767
293.01092
293.7112
293.67106
293.59747
293.51607
293.43898
293.3686
293.30419
293.24443
293.18833
293.13514
293.08421
293.03504
292.9873
292.94064
292.89455
292.84842
292.80125
292.75602
292.73103
292.76005
292.8301
292.8765
292.90652
292.9308
292.95153
292.9686
292.98209
292.99289
293.0011
293.00676
293.01006
293.70159
293.66595
293.59831
293.52011
293.44439
293.37464
293.31071
293.25154
293.19609
293.14354
293.09317
293.04438
292.99678
292.95
292.90355
292.85686
292.80908
292.76273
292.73392
292.7569
292.82645
292.87403
292.90443
292.92891
292.94984
292.96709
292.98077
292.99171
293.00004
293.0058
293.0092
293.69392
293.66202
293.60027
293.52544
293.45104
293.38178
293.31815
293.25935
293.20438
293.15235
293.10247
293.05407
293.00665
292.95981
292.91306
292.86585
292.81743
292.7699
292.73774
292.75436
292.82272
292.87153
292.90231
292.92696
292.94807
292.96552
292.97937
292.99046
292.99892
293.00478
293.00833
293.68843
293.6594
293.60322
293.53194
293.45896
293.39011
293.32661
293.26799
293.21333
293.16169
293.11223
293.06418
293.01696
292.9701
292.9231
292.87541
292.82636
292.77777
292.74236
292.7526
292.81891
292.86901
292.90018
292.92497
292.94625
292.96388
292.97791
292.98915
292.99772
293.00369
293.00736
293.68456
293.65793
293.60701
293.53952
293.46811
293.39965
293.33618
293.2776
293.22308
293.1717
293.12256
293.0748
293.02777
292.98091
292.93371
292.88557
292.83593
292.7864
292.74785
292.75168
292.81505
292.86649
292.89805
292.92296
292.94438
292.96217
292.97638
292.98777
292.99647
293.00254
293.00626
293.68249
293.65768
293.61155
293.54809
293.47851
293.4105
293.34697
293.28829
293.23379
293.18254
293.13359
293.08606
293.03917
292.99232
292.94492
292.89637
292.84617
292.79586
292.75432
292.75184
292.81124
292.864
292.89595
292.92092
292.94246
292.96041
292.97478
292.98632
292.99514
293.00132
293.0051
293.68224
293.65861
293.61662
293.55739
293.49005
293.4227
293.35914
293.30025
293.24561
293.19436
293.1455
293.09807
293.05127
293.00439
292.9568
292.90788
292.85717
292.80614
292.76198
292.75298
292.80756
292.86154
292.89388
292.91889
292.9405
292.95858
292.97312
292.9848
292.99374
293.00003
293.00388
293.68434
293.66142
293.62276
293.56759
293.50281
293.4364
293.37289
293.31374
293.25882
293.20738
293.15844
293.111
293.06418
293.01721
292.96943
292.92019
292.86913
292.8175
292.77073
292.75502
292.80416
292.85919
292.89188
292.91686
292.93852
292.95671
292.9714
292.98321
292.99227
292.99867
293.0026
293.68947
293.66664
293.63035
293.57881
293.51689
293.4518
293.38849
293.32906
293.27372
293.22189
293.17264
293.12501
293.07804
293.0309
292.9829
292.9334
292.8822
292.8301
292.78073
292.75778
292.801
292.85693
292.88994
292.91489
292.93653
292.9548
292.96962
292.98156
292.99073
292.99723
293.00125
293.69748
293.67438
293.63975
293.59163
293.53272
293.46921
293.40628
293.34654
293.29062
293.23816
293.18836
293.14028
293.09298
293.04556
292.99729
292.94755
292.89615
292.84365
292.79166
292.76182
292.79859
292.85486
292.88815
292.91297
292.93454
292.95285
292.96779
292.97984
292.98912
292.99572
292.99982
293.7097
293.68624
293.65203
293.6058
293.54957
293.48809
293.42601
293.36617
293.30964
293.25638
293.20579
293.157
293.10911
293.06126
293.01263
292.96258
292.9108
292.85738
292.80358
292.76762
292.79696
292.853
292.8865
292.91116
292.93262
292.95088
292.96591
292.97806
292.98744
292.99413
292.9983
293.72426
293.70049
293.66695
293.62235
293.5684
293.50886
293.44778
293.38799
293.33084
293.27663
293.22501
293.17525
293.12654
293.07803
293.02894
292.97849
292.92623
292.87198
292.8169
292.77528
292.79564
292.85136
292.88497
292.90951
292.93067
292.94888
292.96401
292.97623
292.98569
292.99247
292.99671
293.73875
293.71498
293.68223
293.63962
293.58818
293.53084
293.47104
293.41153
293.35386
293.29865
293.24586
293.19496
293.14524
293.0959
293.04616
292.99524
292.94243
292.88738
292.83092
292.78408
292.79517
292.84992
292.88416
292.90802
292.92894
292.94693
292.96205
292.97434
292.98388
292.99074
292.99503
293.74978
293.72648
293.69518
293.65505
293.6066
293.55198
293.49407
293.4354
293.37764
293.3217
293.26784
293.21579
293.16499
293.11473
293.06424
293.01274
292.95938
292.90354
292.84567
292.79451
292.79736
292.84962
292.88298
292.90681
292.92717
292.94494
292.96011
292.97243
292.98201
292.98893
292.99328
293.7548
293.7325
293.70277
293.66513
293.62009
293.56913
293.51423
293.45748
293.40056
293.34457
293.2901
293.23716
293.1854
293.13426
293.08301
293.03088
292.97701
292.92053
292.86169
292.80742
292.79943
292.84859
292.88298
292.90582
292.92559
292.94309
292.95813
292.97046
292.98009
292.98706
292.99146
293.7506
293.73033
293.70348
293.6695
293.62869
293.58195
293.53072
293.47669
293.42144
293.36618
293.31173
293.25835
293.20594
293.1541
293.10222
293.04954
292.9952
292.93832
292.87889
292.82144
292.80295
292.84746
292.88309
292.90538
292.92441
292.94126
292.95618
292.96849
292.97811
292.98513
292.98957
293.73876
293.72135
293.69815
293.6686
293.63251
293.59035
293.54322
293.49251
293.43961
293.38578
293.33197
293.2787
293.22605
293.17382
293.12152
293.06845
293.01377
292.95662
292.89666
292.83689
292.8077
292.84722
292.88342
292.90506
292.9228
292.93949
292.95429
292.96651
292.97612
292.98314
292.98761
293.72085
293.70638
293.68711
293.66225
293.63128
293.59423
293.55173
293.50485
293.45485
293.40301
293.3504
293.29771
293.24525
293.19298
293.14053
293.0873
293.03247
292.97515
292.91477
292.8532
292.81516
292.8475
292.88358
292.90492
292.92207
292.93814
292.95239
292.9645
292.97408
292.9811
292.9856
293.69853
293.68712
293.67172
293.65153
293.6258
293.59413
293.55664
293.51402
293.46739
293.41797
293.36694
293.3152
293.26327
293.21126
293.15895
293.1058
293.05104
292.99374
292.9332
292.87051
292.82412
292.84831
292.88402
292.90521
292.9217
292.93651
292.95064
292.96259
292.97206
292.97904
292.98353
293.67447
293.66547
293.65335
293.63734
293.61657
293.59031
293.55817
293.52032
293.47752
293.43093
293.38181
293.33126
293.28005
293.22851
293.17654
293.1237
293.06922
293.01218
292.95174
292.8884
292.83554
292.85015
292.88548
292.9055
292.92073
292.93534
292.94903
292.96063
292.97001
292.97695
292.98144
293.65022
293.64284
293.63314
293.62041
293.60383
293.5825
293.55569
293.52304
293.48475
293.44165
293.39497
293.34596
293.29568
293.24473
293.19323
293.14084
293.08684
293.03027
292.97021
292.90668
292.84914
292.85377
292.88641
292.9059
292.92098
292.93476
292.94733
292.95879
292.96801
292.97485
292.97931
293.63165
293.62466
293.61587
293.60481
293.59079
293.57296
293.5504
293.52238
293.48864
293.44951
293.4059
293.35901
293.31005
293.25992
293.209
293.15716
293.10375
293.04785
292.9884
292.92513
292.86485
292.85755
292.88781
292.90742
292.92098
292.9334
292.94619
292.95711
292.96605
292.97278
292.9772
293.62011
293.61382
293.60593
293.59589
293.58311
293.56689
293.54658
293.52156
293.49131
293.45571
293.41516
293.37062
293.32326
293.27415
293.22394
293.17269
293.11994
293.06479
293.00615
292.94341
292.88078
292.86206
292.89013
292.90845
292.92132
292.93327
292.94505
292.95534
292.96413
292.97071
292.97507
293.61448
293.6078
293.59995
293.59056
293.57907
293.56474
293.54667
293.52395
293.49607
293.46287
293.42463
293.38201
293.33607
293.28792
293.23836
293.18767
293.13552
293.08111
293.02334
292.96129
292.89692
292.86811
292.89243
292.90999
292.92229
292.93298
292.94361
292.95396
292.96237
292.96875
292.97301
293.61782
293.61093
293.60287
293.59331
293.58177
293.56767
293.55035
293.52908
293.50308
293.47188
293.43536
293.39412
293.34924
293.30183
293.25275
293.20243
293.15072
293.09693
293.03999
292.97876
292.91403
292.87555
292.89487
292.91184
292.92277
292.93324
292.9434
292.9528
292.96063
292.96681
292.97095
293.62274
293.6162
293.60847
293.59919
293.58796
293.57431
293.55758
293.53707
293.51204
293.48192
293.44665
293.4067
293.36279
293.31596
293.26721
293.21712
293.1657
293.11239
293.05616
292.99578
292.9313
292.8841
292.89751
292.91353
292.92394
292.93391
292.94289
292.9513
292.95915
292.96503
292.96904
293.62285
293.61721
293.6104
293.60205
293.59173
293.57894
293.56307
293.5435
293.51965
293.49106
293.45752
293.41907
293.37628
293.33014
293.28172
293.23181
293.18059
293.12759
293.07192
293.01235
292.94847
292.89498
292.90035
292.91613
292.92603
292.93421
292.94271
292.95079
292.95783
292.96338
292.96719
293.61408
293.60962
293.60413
293.59725
293.58859
293.5776
293.56371
293.54626
293.52467
293.49833
293.46668
293.42973
293.38833
293.34335
293.2957
293.24618
293.19518
293.14248
293.0873
293.0285
292.96525
292.90679
292.9036
292.91885
292.92741
292.93521
292.94331
292.95026
292.95658
292.96183
292.96551
293.5938
293.59055
293.58648
293.58131
293.57466
293.56604
293.55483
293.54028
293.52159
293.49806
293.46943
293.43585
293.3974
293.35465
293.30851
293.25987
293.20936
293.15703
293.10235
293.04427
292.98167
292.91985
292.90782
292.9216
292.92963
292.93693
292.94347
292.94996
292.95589
292.96065
292.96407
293.56408
293.56143
293.55816
293.55411
293.54899
293.54243
293.5339
293.52277
293.50819
293.48944
293.4659
293.437
293.40268
293.3633
293.31965
293.27265
293.22309
293.17138
293.11726
293.05986
292.99787
292.93319
292.91302
292.92474
292.93228
292.93824
292.94425
292.95039
292.95532
292.95951
292.96273
293.53268
293.53021
293.52731
293.52387
293.51968
293.51442
293.50767
293.4989
293.48761
293.47307
293.45438
293.43076
293.40172
293.36718
293.3275
293.28343
293.23583
293.18535
293.13207
293.07546
293.01416
292.94831
292.91889
292.92825
292.93493
292.93999
292.94548
292.9504
292.95474
292.95875
292.96173