/*--------------------------------*- C++ -*----------------------------------*\
| =========                 |                                                 |
| \\      /  F ield         | OpenFOAM: The Open Source CFD Toolbox           |
|  \\    /   O peration     | Version:  2406                                  |
|   \\  /    A nd           | Website:  www.openfoam.com                      |
|    \\/     M anipulation  |                                                 |
\*---------------------------------------------------------------------------*/
FoamFile
{
    version     2.0;
    format      ascii;
    arch        "LSB;label=32;scalar=64";
    class       volScalarField;
    location    "0.005";
    object      nut;
}
// * * * * * * * * * * * * * * * * * * * * * * * * * * * * * * * * * * * * * //

dimensions      [0 2 -1 0 0 0 0];

internalField   nonuniform List<scalar> 
86779
(
0.03405495
0.036829491
0.039717154
0.042652886
0.045604307
0.048550706
0.051476369
0.054368812
0.05721797
0.060018229
0.062759633
0.065432661
0.068029377
0.070541642
0.072960198
0.075275019
0.077475325
0.07954966
0.081486291
0.083273405
0.084899038
0.08635105
0.08761685
0.088683333
0.089536861
0.090162774
0.09054231
0.09066351
0.090511782
0.090071931
0.089328782
0.088267497
0.086873913
0.085134938
0.083039055
0.080576934
0.077742147
0.074532294
0.070949741
0.067001702
0.062706075
0.058091092
0.053194577
0.048067736
0.04277971
0.03741974
0.032104291
0.02698658
0.02226876
0.018195424
0.01502433
0.01283141
0.011437625
0.010553504
0.0099371774
0.0094557745
0.0090470563
0.0086839587
0.0083545068
0.0080538671
0.0077787685
0.0075265559
0.0072955058
0.0070825395
0.0068860657
0.0067045498
0.0065348842
0.0063769146
0.0062297493
0.0060911674
0.0059605403
0.0058382007
0.0057240221
0.0056164264
0.0055160462
0.0054226508
0.0053346918
0.0052541915
0.0051797841
0.0051102167
0.0050457425
0.0049854405
0.0049289512
0.004876479
0.0048275231
0.0047812098
0.0047381913
0.0046974696
0.0046590429
0.0046231619
0.004589252
0.0045574539
0.0045279985
0.0045005133
0.0044748054
0.0044508212
0.004428109
0.0044064619
0.0043857977
0.0043659869
0.0043470446
0.0043290619
0.004312084
0.004296109
0.004281092
0.0042669933
0.0042538082
0.004241541
0.0042301797
0.0042196953
0.004210055
0.0042012056
0.0041930967
0.0041856605
0.0041788299
0.0041725596
0.0041668098
0.0041615399
0.0041567546
0.0041524653
0.0041486728
0.00414537
0.0041426038
0.0041403792
0.0041387616
0.0041373366
0.0041364158
0.037568605
0.04038478
0.043211035
0.046051445
0.048894855
0.05172757
0.054537335
0.057313581
0.060047163
0.062730447
0.06535499
0.067912208
0.070393791
0.072791164
0.075094867
0.077294686
0.079379546
0.081337586
0.083156648
0.084824495
0.086328784
0.087657232
0.088797242
0.089735682
0.090458802
0.09095171
0.09119784
0.091182808
0.090892789
0.090312789
0.089427867
0.088223512
0.086685989
0.084802764
0.082563028
0.079958344
0.076983402
0.073637139
0.069923946
0.065852046
0.061441193
0.056723958
0.051741128
0.046546918
0.041215137
0.035840751
0.030548672
0.025505209
0.020931661
0.01709492
0.014221304
0.012312748
0.011123368
0.010352594
0.0097939883
0.0093419216
0.0089499181
0.0085980173
0.008277102
0.0079837133
0.0077150664
0.0074684989
0.007242421
0.0070338796
0.006841472
0.0066637847
0.0064975907
0.0063429274
0.0061988199
0.0060629473
0.0059347946
0.0058146234
0.0057024895
0.0055966772
0.0054979712
0.0054061945
0.0053196681
0.0052404849
0.0051673841
0.0050989346
0.0050354036
0.0049760318
0.0049203767
0.0048686368
0.0048203523
0.0047745751
0.0047320836
0.0046918955
0.0046538954
0.0046184015
0.0045848682
0.0045533901
0.0045242133
0.0044970022
0.0044715193
0.004447757
0.0044252717
0.0044038387
0.0043833805
0.0043637639
0.0043449927
0.0043271579
0.004310311
0.004294455
0.0042795536
0.0042655704
0.004252505
0.004240363
0.004229128
0.0042187655
0.0042092378
0.0042004874
0.0041924617
0.0041850945
0.0041783204
0.0041720935
0.0041663782
0.004161136
0.0041563732
0.0041521048
0.0041483322
0.0041450483
0.004142299
0.0041400895
0.0041384827
0.0041370716
0.0041361491
0.041217741
0.043984524
0.046737867
0.049486107
0.052225143
0.05494665
0.05764165
0.060301433
0.062917727
0.06548272
0.067988427
0.070426666
0.072789083
0.075066871
0.077250432
0.079329363
0.081292409
0.083127589
0.084822568
0.086364882
0.08774199
0.088941367
0.089950265
0.090755477
0.09134323
0.091698849
0.091805636
0.091649396
0.091216393
0.090491756
0.089460811
0.088109417
0.086424331
0.084393655
0.082007381
0.079258076
0.07614169
0.072658661
0.068815413
0.064621716
0.060099993
0.055286962
0.050226367
0.044977092
0.039618558
0.034253196
0.029016902
0.02409192
0.01971801
0.016164715
0.01360309
0.011946898
0.01091053
0.010216958
0.0096956572
0.0092630435
0.0088828687
0.0085393874
0.0082251625
0.0079374744
0.0076738399
0.0074315847
0.007209204
0.0070039113
0.0068144078
0.0066393829
0.006475608
0.0063231823
0.0061810686
0.0060469388
0.0059204003
0.0058016372
0.0056907707
0.0055860826
0.0054882865
0.0053974249
0.0053115911
0.005232992
0.0051606116
0.0050927237
0.005029664
0.004970814
0.0049156027
0.0048642276
0.004816302
0.0047707837
0.0047285623
0.0046886785
0.0046508904
0.0046155823
0.0045822456
0.0045509208
0.00452186
0.0044947816
0.0044694012
0.0044457485
0.004423395
0.0044020896
0.004381758
0.0043622625
0.0043435934
0.0043258417
0.0043090657
0.0042932738
0.0042784371
0.0042645215
0.0042515294
0.0042394669
0.0042283145
0.0042180327
0.0042085792
0.0041998934
0.0041919202
0.0041845958
0.004177856
0.0041716547
0.004165959
0.0041607319
0.0041559806
0.0041517236
0.0041479623
0.0041446896
0.0041419507
0.0041397505
0.0041381501
0.0041367509
0.0041358245
0.044981923
0.047654589
0.050312192
0.052958185
0.055588504
0.058196552
0.060774999
0.06331629
0.065812811
0.068256948
0.070640926
0.072956712
0.075195925
0.077349637
0.079408157
0.081360974
0.083196763
0.084903514
0.086468819
0.087880084
0.089124614
0.090189674
0.091062341
0.091729338
0.092176936
0.092390729
0.092352819
0.092050629
0.09147014
0.09059657
0.089415549
0.087913367
0.086077345
0.083896297
0.08136112
0.078465502
0.075206783
0.07158707
0.067614928
0.063302189
0.058674535
0.053772584
0.048643469
0.043351749
0.037983093
0.032648583
0.027496358
0.022724859
0.018587036
0.015336473
0.013073053
0.011634164
0.010721232
0.010089077
0.009598205
0.0091821845
0.0088125588
0.0084768365
0.0081689166
0.0078866729
0.0076278722
0.00738982
0.0071710752
0.0069690202
0.0067824493
0.0066101726
0.0064489506
0.006298904
0.0061589374
0.0060267171
0.0059019797
0.005784808
0.0056753926
0.0055720079
0.0054753482
0.0053856237
0.0053007397
0.0052229542
0.0051514989
0.0050843729
0.0050219367
0.0049637603
0.0049091421
0.0048582623
0.0048108158
0.0047656655
0.0047238109
0.0046843262
0.004646841
0.0046117969
0.0045787335
0.0045476421
0.0045187613
0.004491876
0.0044666544
0.0044431573
0.00442098
0.0043998443
0.0043796788
0.0043603431
0.0043418128
0.0043241782
0.0043075048
0.0042918062
0.004277062
0.0042632415
0.0042503502
0.0042383949
0.0042273518
0.0042171758
0.0042078194
0.0041992179
0.0041913141
0.0041840463
0.0041773524
0.0041711865
0.0041655188
0.0041603144
0.0041555814
0.0041513419
0.0041475975
0.0041443411
0.004141617
0.0041394294
0.0041378382
0.004136453
0.0041355249
0.048840768
0.051396692
0.053941014
0.056473122
0.058987305
0.061476839
0.063934781
0.066354007
0.068727212
0.07104692
0.073305427
0.075494717
0.07760635
0.079631298
0.081559802
0.083381309
0.085084491
0.08665736
0.088087498
0.089362234
0.090468759
0.091394166
0.09212538
0.092649042
0.092951504
0.093017631
0.092830639
0.092378123
0.091645677
0.09061888
0.089283753
0.087627082
0.085636821
0.08330259
0.08061629
0.077572854
0.074171141
0.070415102
0.066315584
0.061886921
0.057158507
0.05217485
0.04698682
0.041665307
0.036302828
0.031020081
0.025978361
0.021391806
0.017519915
0.014583694
0.012603303
0.011355842
0.010547354
0.0099669901
0.009502524
0.009101611
0.0087420737
0.0084140435
0.0081125306
0.0078358587
0.0075820014
0.0073482666
0.0071332487
0.0069345245
0.0067509632
0.0065815042
0.0064229287
0.0062753042
0.0061374924
0.0060071988
0.0058842984
0.0057687514
0.0056607894
0.0055587253
0.005463191
0.0053745758
0.0052906291
0.0052136108
0.0051430375
0.0050766357
0.0050147781
0.0049572414
0.0049031828
0.0048527543
0.0048057522
0.0047609435
0.0047194249
0.0046803104
0.0046431052
0.0046082984
0.0045754845
0.0045446123
0.0045158875
0.0044891744
0.0044640979
0.004440738
0.0044187223
0.0043977439
0.0043777319
0.0043585456
0.0043401444
0.0043226177
0.0043060388
0.0042904261
0.0042757673
0.0042620356
0.0042492389
0.0042373838
0.004226443
0.0042163653
0.0042070979
0.0041985729
0.0041907304
0.0041835116
0.004176857
0.0041707212
0.0041650771
0.0041598917
0.0041551739
0.0041509491
0.0041472189
0.0041439763
0.0041412646
0.0041390874
0.0041375036
0.0041361318
0.0041352017
0.052769766
0.055196908
0.057616912
0.060025955
0.062416768
0.064782031
0.067114619
0.069407401
0.071653093
0.07384421
0.075973011
0.07803141
0.080010866
0.081902256
0.083695762
0.085380814
0.086946112
0.088379724
0.089669257
0.090802015
0.09176511
0.092545508
0.093130002
0.09350513
0.09365708
0.093570465
0.093230153
0.092622593
0.091733713
0.090549456
0.089056284
0.087241546
0.085093908
0.082603886
0.079764499
0.076572052
0.073027062
0.069135519
0.064910636
0.06036974
0.055546394
0.050488956
0.045252443
0.039914599
0.034575512
0.029366535
0.024463114
0.020094042
0.016516584
0.013902015
0.012187133
0.011107094
0.0103866
0.0098498321
0.0094083023
0.0090211502
0.008671207
0.0083506957
0.0080555576
0.0077844342
0.0075354759
0.00730604
0.0070947197
0.0068993114
0.006718751
0.006552113
0.0063962241
0.00625102
0.0061153431
0.0059869829
0.0058659494
0.0057520584
0.0056455678
0.0055448568
0.0054504717
0.0053629941
0.0052800492
0.0052038247
0.0051341492
0.0050685046
0.0050072395
0.0049503631
0.0048968888
0.004846923
0.0048003824
0.004755937
0.0047147666
0.0046760346
0.0046391279
0.0046045727
0.0045720209
0.0045413897
0.0045128321
0.0044863004
0.004461384
0.0044381683
0.0044163224
0.004395511
0.004375661
0.0043566335
0.004338371
0.0043209613
0.0043044855
0.0042889667
0.0042744013
0.0042607665
0.0042480727
0.0042363259
0.0042254948
0.0042155223
0.0042063495
0.0041979052
0.0041901273
0.0041829596
0.004176346
0.004170242
0.0041646231
0.0041594585
0.0041547576
0.0041505489
0.0041468341
0.0041436064
0.0041409079
0.0041387414
0.0041371653
0.0041358076
0.0041348768
0.05674855
0.059035405
0.061325734
0.063605528
0.065867023
0.068102578
0.070304831
0.072466482
0.074580125
0.076638161
0.07863273
0.080555621
0.082398173
0.084151161
0.085804706
0.087348231
0.088770475
0.090059568
0.091203167
0.092188584
0.093002885
0.093632955
0.094065488
0.09428694
0.094283424
0.094039583
0.093540862
0.092773571
0.09172385
0.090378013
0.088723011
0.08674682
0.084438903
0.081790776
0.078796691
0.07545447
0.071766448
0.067740876
0.063393253
0.058744666
0.053833308
0.048711056
0.043437802
0.038098663
0.032802198
0.027691669
0.022957677
0.018841187
0.015584623
0.013292042
0.011820373
0.010883913
0.010236729
0.009736625
0.0093151664
0.00894069
0.0085999652
0.0082868602
0.0079981095
0.0077325429
0.0074884662
0.0072633501
0.0070557338
0.0068636627
0.0066861361
0.0065223565
0.0063692242
0.00622646
0.0060929122
0.0059665106
0.005847389
0.0057351957
0.0056302042
0.0055308873
0.005437671
0.0053513444
0.0052694559
0.0051940327
0.0051252424
0.0050603673
0.0049996936
0.0049434787
0.0048905947
0.0048410824
0.0047950018
0.0047509263
0.0047101005
0.0046717462
0.0046351415
0.0046008395
0.0045685474
0.0045381646
0.0045097735
0.004483419
0.004458667
0.0044355928
0.0044139148
0.0043932708
0.0043735824
0.0043547144
0.0043365921
0.0043193006
0.0043029294
0.0042875064
0.0042730359
0.0042595
0.0042469112
0.0042352741
0.0042245534
0.004214686
0.0042056067
0.0041972415
0.0041895259
0.0041824066
0.0041758313
0.0041697573
0.0041641624
0.0041590175
0.0041543331
0.0041501398
0.0041464397
0.0041432261
0.00414054
0.0041383832
0.004136814
0.0041354704
0.0041345395
0.060755412
0.062894778
0.065051739
0.067197693
0.069325004
0.071426001
0.073493174
0.075519043
0.077496033
0.079416387
0.081272088
0.083054778
0.08475566
0.086365405
0.087874075
0.089271087
0.090545214
0.091684651
0.092677112
0.093509935
0.09417018
0.094644683
0.09492008
0.094982788
0.094818913
0.094413159
0.093751262
0.092819697
0.091604871
0.090093504
0.088273093
0.086132319
0.083661532
0.080853356
0.077703413
0.074211192
0.070381039
0.066223751
0.061756782
0.057006176
0.052015163
0.04683837
0.041541906
0.036218753
0.030987081
0.026003512
0.021474364
0.017647417
0.014733014
0.012753385
0.011498157
0.01068231
0.010095695
0.0096265163
0.0092227889
0.0088601171
0.0085283198
0.0082225374
0.00794019
0.0076801749
0.0074409455
0.0072201604
0.0070162383
0.0068275114
0.0066530452
0.0064921482
0.006341826
0.0062015068
0.0060700696
0.0059456457
0.0058284718
0.0057180064
0.005614539
0.0055166534
0.0054246183
0.0053394558
0.0052586891
0.0051840796
0.0051161559
0.0050520698
0.0049919938
0.0049364451
0.0048841638
0.0048351012
0.0047894846
0.0047457929
0.0047053135
0.0046673364
0.0046310431
0.0045970041
0.0045649746
0.0045348521
0.0045066342
0.0044804571
0.0044558789
0.0044329484
0.0044114395
0.0043909675
0.0043714439
0.0043527395
0.0043347624
0.0043175939
0.0043013322
0.0042860098
0.0042716389
0.0042582068
0.0042457279
0.0042342047
0.004223598
0.0042138386
0.0042048544
0.004196569
0.0041889158
0.0041818441
0.0041753066
0.0041692623
0.0041636914
0.0041585668
0.0041538993
0.0041497219
0.0041460367
0.0041428373
0.0041401635
0.0041380158
0.0041364533
0.004135124
0.0041341943
0.064766522
0.066758086
0.06877801
0.070786209
0.072775208
0.07473737
0.076665095
0.078550754
0.080386612
0.082164747
0.083876987
0.085514821
0.087069319
0.088531053
0.089890027
0.091135647
0.092256719
0.093241495
0.09407775
0.094752867
0.095253918
0.095567735
0.095680933
0.095579932
0.095250887
0.094678562
0.093848926
0.092748742
0.091364748
0.089684133
0.087695011
0.085386852
0.082750997
0.0797813
0.076474895
0.072833107
0.06886251
0.064576808
0.059995064
0.055149432
0.050088697
0.044869331
0.039565524
0.034278551
0.029137631
0.024314258
0.020029745
0.016528813
0.013968834
0.012283099
0.011214817
0.010498463
0.0099616948
0.0095187841
0.0091308951
0.0087793421
0.0084562597
0.0081577455
0.0078818229
0.0076273486
0.0073929326
0.0071764947
0.0069762564
0.0067908863
0.0066195184
0.0064615287
0.006314064
0.0061761995
0.0060468601
0.0059244418
0.0058092541
0.0057005463
0.0055986362
0.005502224
0.0054113824
0.0053273955
0.0052478214
0.0051740383
0.0051069505
0.005043672
0.0049842024
0.0049293204
0.0048776522
0.0048290326
0.0047838814
0.0047405864
0.0047004532
0.0046628499
0.0046268753
0.0045931091
0.0045613421
0.0045314885
0.0045034505
0.0044774486
0.0044530518
0.0044302658
0.0044089252
0.0043886278
0.0043692708
0.0043507322
0.0043329037
0.0043158617
0.0042997129
0.004284495
0.0042702271
0.0042569025
0.0042445371
0.0042331307
0.0042226401
0.0042129897
0.0042041006
0.0041958941
0.004188302
0.0041812762
0.0041747745
0.0041687588
0.0041632112
0.0041581068
0.0041534564
0.0041492949
0.0041456242
0.0041424386
0.0041397765
0.0041376371
0.0041360808
0.0041347657
0.0041338386
0.068759092
0.070605841
0.072485541
0.074352727
0.076199927
0.078019525
0.079803863
0.081545209
0.083235698
0.08486727
0.08643161
0.087920072
0.089323607
0.090632695
0.091837287
0.09292678
0.093890007
0.094715274
0.095390418
0.095902875
0.09623976
0.096387926
0.096334014
0.096064489
0.0955656
0.094822188
0.093820462
0.092547549
0.090990588
0.089137311
0.086976531
0.084498602
0.081695974
0.078563867
0.075101085
0.071310968
0.067202556
0.062792687
0.058102707
0.053170758
0.048051337
0.042803905
0.037511531
0.032284542
0.027264977
0.0226404
0.018643792
0.015501096
0.013295517
0.01187576
0.010964371
0.0103289
0.0098332048
0.0094128357
0.0090392635
0.0086983018
0.0083837871
0.0080925096
0.0078230305
0.0075740756
0.0073444423
0.0071323671
0.006935796
0.0067537995
0.0065855719
0.0064305025
0.0062859229
0.0061505243
0.0060232747
0.0059028929
0.0057897253
0.005682797
0.0055824804
0.0054875829
0.0053979439
0.0053151412
0.0052368326
0.0051638911
0.0050975982
0.0050351466
0.0049762966
0.0049220788
0.0048710343
0.0048228519
0.0047781668
0.0047352833
0.0046954969
0.0046582642
0.0046226169
0.0045891361
0.0045576325
0.0045280557
0.0045002075
0.0044743794
0.0044501719
0.0044275333
0.00440636
0.0043862407
0.0043670525
0.0043486822
0.0043310065
0.0043140952
0.0042980636
0.0042829547
0.0042687943
0.0042555814
0.0042433339
0.0042320477
0.0042216754
0.0042121355
0.0042033418
0.0041952137
0.0041876818
0.0041807005
0.0041742332
0.0041682452
0.0041627206
0.0041576367
0.0041530038
0.0041488583
0.0041452021
0.00414203
0.0041393791
0.0041372473
0.0041356967
0.0041343961
0.0041334731
0.07271248
0.074415476
0.076153081
0.07787682
0.079579372
0.08125321
0.082890675
0.084483984
0.08602519
0.08750613
0.088918374
0.090253165
0.091501356
0.092653351
0.093699061
0.094627872
0.095428647
0.096089743
0.09659906
0.096944102
0.097112043
0.097089792
0.096864058
0.096421392
0.095748185
0.094829384
0.093651474
0.092202017
0.090468625
0.088439655
0.086104712
0.083455147
0.080484646
0.077189954
0.073571726
0.069635522
0.065393109
0.060864607
0.056074535
0.051067115
0.045902246
0.040644098
0.035385342
0.030246551
0.025384461
0.021002852
0.017338638
0.014577302
0.012712034
0.011524073
0.010740943
0.01017059
0.0097089559
0.0093081832
0.0089477174
0.0086169573
0.0083109161
0.0080268603
0.007763835
0.007520368
0.0072954965
0.0070877972
0.0068948722
0.0067162782
0.0065512361
0.0063990838
0.0062573944
0.0061244802
0.0059993255
0.005881017
0.0057699001
0.0056647679
0.0055660859
0.0054727453
0.0053843199
0.0053027078
0.0052257354
0.0051536545
0.0050881082
0.0050265024
0.0049682897
0.0049147298
0.0048643186
0.0048165683
0.0047723484
0.0047298916
0.0046904533
0.0046535876
0.004618276
0.0045850943
0.0045538546
0.0045245604
0.0044969141
0.0044712581
0.0044472471
0.0044247591
0.0044037514
0.0043838128
0.0043647958
0.0043465956
0.0043290765
0.0043122999
0.0042963895
0.0042813941
0.0042673454
0.0042542485
0.0042421227
0.0042309597
0.0042207075
0.0042112789
0.0042025801
0.0041945294
0.0041870563
0.0041801177
0.0041736831
0.0041677217
0.0041622196
0.0041571561
0.0041525412
0.0041484117
0.0041447699
0.0041416109
0.0041389706
0.0041368456
0.0041353002
0.0041340139
0.0041330968
0.076603896
0.078163716
0.079757765
0.081336163
0.082891756
0.084417139
0.085904708
0.087346678
0.088735063
0.090061636
0.091317891
0.092494989
0.093583712
0.09457441
0.095456964
0.096220763
0.096854698
0.097347181
0.097686181
0.09785928
0.097853736
0.097656546
0.097254522
0.096634353
0.095782619
0.094684411
0.093326546
0.091697095
0.089784223
0.087577001
0.085065936
0.082243501
0.07910477
0.075648185
0.071876462
0.067797628
0.063426499
0.058786371
0.053906139
0.048836626
0.043642479
0.038394341
0.0331955
0.028178465
0.023516279
0.019426747
0.016136551
0.013765565
0.012212935
0.0112197
0.010539104
0.01002097
0.0095879064
0.0092044242
0.0088561222
0.0085352947
0.0082376719
0.0079608314
0.0077042584
0.007466239
0.0072461211
0.0070428043
0.0068535002
0.0066783552
0.0065165422
0.0063672809
0.0062284608
0.0060980583
0.0059750194
0.0058588265
0.0057497856
0.0056464594
0.0055494553
0.0054577124
0.0053705161
0.0052900979
0.0052145231
0.0051433272
0.0050784756
0.0050177333
0.0049601805
0.0049072672
0.0048574968
0.0048101762
0.0047664192
0.0047244046
0.0046853168
0.0046488149
0.004613848
0.0045809796
0.0045500053
0.0045209981
0.0044935678
0.0044680834
0.0044442749
0.0044219424
0.0044010982
0.0043813428
0.0043624992
0.0043444708
0.004327112
0.0043104745
0.0042946896
0.0042798126
0.0042658801
0.0042529035
0.0042409036
0.0042298666
0.0042197361
0.0042104193
0.0042018149
0.0041938401
0.0041864245
0.0041795269
0.0041731234
0.0041671875
0.0041617073
0.0041566645
0.004152068
0.0041479548
0.0041443272
0.004141181
0.0041385506
0.0041364314
0.0041348907
0.0041336187
0.0041327097
0.080408155
0.081825434
0.083274905
0.084706537
0.086113347
0.087488068
0.088823183
0.090110948
0.091343378
0.092512226
0.093608944
0.09462465
0.095550082
0.096375562
0.09709096
0.097685677
0.098148643
0.09846833
0.098632787
0.098629689
0.098446398
0.098070035
0.097487557
0.096685836
0.095651699
0.094370428
0.092829235
0.091016789
0.088921893
0.086534441
0.083845962
0.080850194
0.077543767
0.073927022
0.070004974
0.065788419
0.061295641
0.056552555
0.05159441
0.046479357
0.041275309
0.036062005
0.03095447
0.026099143
0.021686048
0.017940447
0.015057067
0.013067529
0.011789184
0.010954097
0.010354087
0.0098779423
0.0094692113
0.0091012257
0.008764385
0.0084533247
0.0081640874
0.007894455
0.0076443231
0.0074117064
0.0071963448
0.0069974069
0.0068116967
0.006640069
0.0064815224
0.0063350999
0.0061991055
0.0060712508
0.0059503662
0.0058363377
0.0057293921
0.0056278775
0.0055325947
0.0054424886
0.0053565462
0.0052773221
0.0052031895
0.0051329099
0.0050687046
0.0050088406
0.0049519745
0.0048996912
0.0048505664
0.0048036771
0.0047603786
0.0047188217
0.0046800886
0.0046439479
0.004609335
0.0045767938
0.0045460873
0.00451737
0.0044901717
0.0044648595
0.0044412581
0.0044190868
0.0043984038
0.0043788333
0.0043601656
0.00434231
0.0043251153
0.0043086212
0.0042929661
0.0042782123
0.0042644009
0.004251549
0.0042396787
0.0042287704
0.0042187628
0.0042095578
0.0042010465
0.0041931461
0.0041857861
0.0041789277
0.0041725537
0.0041666422
0.0041611835
0.0041561615
0.0041515838
0.004147487
0.0041438735
0.0041407396
0.0041381185
0.0041360042
0.0041344677
0.0041332097
0.0041323112
0.084098461
0.085373899
0.086678129
0.087961968
0.089218597
0.090440888
0.091621431
0.092752551
0.093826305
0.094834458
0.095768466
0.096619434
0.097378091
0.098034755
0.098579307
0.099001177
0.099289345
0.099432356
0.099418351
0.099235117
0.098870147
0.098310719
0.09754398
0.096557039
0.09533703
0.093869482
0.092142079
0.090144183
0.08786534
0.085296382
0.082430004
0.079261372
0.075788863
0.07201494
0.06794718
0.063599506
0.058994226
0.054159113
0.049138275
0.043997603
0.038806772
0.033658253
0.028679692
0.024033448
0.019924903
0.016573286
0.014113653
0.012477929
0.011429509
0.010719206
0.010181892
0.0097398479
0.0093521946
0.0089983176
0.0086724564
0.008371078
0.008090198
0.0078277574
0.0075840529
0.0073567984
0.0071461946
0.0069516204
0.0067694796
0.0066014573
0.0064462041
0.0063025429
0.0061693177
0.0060440511
0.0059253725
0.005813565
0.0057087289
0.0056090288
0.0055155066
0.005427074
0.0053424235
0.0052643908
0.0051917205
0.0051223956
0.0050587988
0.0049998229
0.0049436745
0.0048919984
0.00484352
0.0047970696
0.0047542232
0.004713139
0.0046747673
0.0046389855
0.0046047365
0.0045725354
0.0045421009
0.0045136752
0.0044867257
0.0044615884
0.0044381969
0.004416194
0.0043956698
0.0043762853
0.0043577959
0.0043401141
0.0043230869
0.0043067408
0.0042912199
0.0042765944
0.0042629089
0.0042501863
0.0042384493
0.0042276721
0.0042177881
0.0042086944
0.0042002749
0.0041924466
0.0041851404
0.0041783196
0.0041719734
0.0041660852
0.0041606475
0.0041556464
0.0041510881
0.0041470078
0.0041434083
0.0041402863
0.0041376736
0.0041355633
0.0041340305
0.0041327864
0.0041319009
0.087646404
0.088780794
0.089939432
0.091074792
0.092180208
0.093248687
0.094272936
0.095245373
0.096158125
0.097003011
0.097771519
0.09845478
0.099043545
0.099528152
0.099898518
0.10014412
0.100254
0.10021681
0.10002077
0.099653831
0.099103633
0.098357652
0.097403272
0.096227898
0.094819039
0.093162536
0.091246631
0.089061493
0.086597527
0.083846642
0.080802855
0.077462951
0.073827271
0.069900654
0.065693532
0.06122334
0.056516694
0.051604412
0.046539742
0.041395807
0.036246759
0.031199272
0.026394887
0.022013163
0.01826852
0.015351735
0.013310853
0.011985569
0.011121885
0.010507911
0.0100193
0.0096054171
0.0092363287
0.0088954963
0.0085803311
0.0082885951
0.0080160344
0.007760754
0.0075234751
0.0073015576
0.0070956901
0.006905456
0.0067268694
0.0065625512
0.0064106046
0.0062696105
0.0061391002
0.0060164572
0.0059000405
0.0057905211
0.005687805
0.0055899228
0.0054981927
0.005411467
0.0053281634
0.0052513175
0.0051800983
0.0051117732
0.0050487653
0.0049906809
0.0049352837
0.0048841867
0.0048363503
0.0047903538
0.0047479513
0.004707354
0.0046693534
0.0046339286
0.0046000539
0.004568204
0.0045380479
0.004509915
0.0044832312
0.0044582738
0.0044350932
0.0044132667
0.0043928993
0.0043737008
0.0043553922
0.0043378848
0.0043210282
0.0043048347
0.0042894525
0.0042749605
0.0042614063
0.0042488173
0.0042372171
0.0042265732
0.0042168131
0.0042078296
0.0041995
0.0041917415
0.0041844867
0.0041777017
0.0041713819
0.004165516
0.0041600987
0.0041551188
0.0041505802
0.0041465167
0.0041429311
0.0041398204
0.0041372154
0.0041351081
0.0041335784
0.0041323478
0.0041314782
0.091021978
0.092016207
0.093029177
0.094015662
0.094969141
0.095882756
0.096749338
0.097561421
0.098311229
0.098990663
0.099591276
0.10010426
0.1005204
0.1008301
0.10102333
0.10108963
0.10101813
0.10079758
0.10041637
0.099862569
0.099124037
0.098188485
0.097043587
0.095677106
0.094077004
0.092229512
0.090123526
0.087750154
0.085100791
0.082168583
0.078949055
0.075440824
0.071646452
0.067573444
0.063235446
0.058653865
0.053859599
0.048888376
0.043803177
0.038683171
0.033610604
0.028707696
0.024131495
0.02007728
0.016754224
0.014294465
0.0126431
0.01157538
0.010854808
0.010314252
0.0098638403
0.0094737239
0.0091212118
0.0087926354
0.0084880471
0.0082059078
0.0079416141
0.0076934506
0.0074626225
0.0072460421
0.0070448385
0.0068589189
0.0066838924
0.0065233684
0.0063747273
0.0062363043
0.0061084733
0.0059884738
0.0058743656
0.0057672152
0.0056666279
0.005570571
0.005480652
0.0053956624
0.00531378
0.005238117
0.0051683027
0.0051010271
0.005038613
0.0049814135
0.0049268033
0.0048762532
0.0048290483
0.0047835294
0.0047415611
0.0047014636
0.0046638472
0.0046287776
0.0045952881
0.0045637985
0.0045339299
0.0045060903
0.0044796884
0.0044549189
0.0044319483
0.0044103071
0.004390095
0.0043710815
0.0043529562
0.0043356236
0.0043189404
0.0043029044
0.0042876656
0.0042733123
0.0042598947
0.0042474438
0.0042359835
0.0042254746
0.0042158385
0.0042069635
0.0041987215
0.0041910299
0.0041838242
0.0041770732
0.0041707786
0.004164934
0.0041595367
0.004154578
0.0041500596
0.004146013
0.0041424412
0.0041393413
0.0041367432
0.004134638
0.004133111
0.0041318933
0.0041310428
0.094193539
0.095048564
0.095916013
0.096753466
0.097554543
0.098312525
0.099020385
0.099670789
0.10025608
0.10076827
0.10119899
0.10153953
0.10178075
0.10191311
0.10192667
0.10181106
0.10155553
0.10114895
0.10057986
0.099836541
0.098907087
0.097779493
0.096441787
0.094882165
0.093089123
0.091049376
0.088752586
0.086190945
0.083356998
0.080245308
0.076853123
0.073181143
0.069234438
0.065023531
0.060565726
0.055887011
0.051021856
0.046013964
0.040937132
0.035874271
0.030920335
0.02621443
0.021929945
0.018270728
0.015415646
0.013407811
0.012095866
0.011230896
0.010618159
0.010133454
0.0097137583
0.0093441328
0.009006515
0.0086896974
0.0083956877
0.008123011
0.0078669356
0.0076258582
0.0074015339
0.0071903113
0.0069936336
0.0068120041
0.0066405828
0.0064839103
0.0063385608
0.0062026319
0.006077473
0.0059601122
0.0058483389
0.0057436519
0.0056452038
0.005550987
0.0054628819
0.0053796511
0.0052992843
0.0052248046
0.0051563145
0.0050901397
0.0050283509
0.0049720186
0.0049182314
0.0048681956
0.0048216042
0.0047765959
0.004735052
0.0046954658
0.0046582498
0.0046235332
0.0045904405
0.0045593185
0.0045297491
0.0045022033
0.0044760978
0.0044515272
0.0044287642
0.0044073175
0.0043872601
0.0043684296
0.0043504898
0.0043333323
0.0043168251
0.0043009513
0.0042858608
0.0042716514
0.004258376
0.0042460677
0.0042347501
0.0042243775
0.0042148647
0.0042060962
0.0041979388
0.0041903113
0.0041831519
0.0041764331
0.0041701625
0.0041643386
0.0041589609
0.0041540235
0.0041495256
0.004145496
0.0041419379
0.0041388484
0.0041362564
0.0041341522
0.0041326275
0.0041314222
0.0041305941
0.097127552
0.097844426
0.098566695
0.099255171
0.099903622
0.10050548
0.10105387
0.10154161
0.10196118
0.10230473
0.102564
0.10273036
0.1027948
0.10274786
0.10257969
0.10228005
0.10183832
0.10124352
0.1004844
0.099549466
0.098427094
0.097105629
0.095573518
0.093819469
0.091832619
0.089600267
0.087112974
0.084364184
0.081347772
0.078059933
0.074499885
0.0706707
0.06658029
0.062242595
0.057679125
0.052921245
0.048005767
0.042989139
0.037955785
0.032990281
0.028206506
0.023760541
0.019839899
0.016640173
0.014275516
0.012683789
0.011648779
0.010936489
0.010403644
0.0099618223
0.0095679988
0.0092161963
0.0088918828
0.0085867542
0.0083033872
0.0080398358
0.0077919784
0.0075580267
0.0073402443
0.0071343829
0.0069420732
0.0067646933
0.0065969848
0.0064441637
0.0063020818
0.0061686143
0.0060461402
0.0059313874
0.0058219537
0.00571983
0.0056235356
0.0055311864
0.0054448783
0.00536342
0.005284682
0.0052113941
0.0051441195
0.0050790952
0.0050179865
0.004962491
0.0049095617
0.0048600122
0.0048140085
0.0047695517
0.0047284239
0.0046893588
0.0046525626
0.0046181962
0.0045855123
0.0045547638
0.0045255077
0.0044982566
0.0044724596
0.0044481025
0.004425543
0.0044043001
0.0043843979
0.0043657473
0.004347995
0.004331013
0.0043146838
0.0042989771
0.0042840399
0.0042699798
0.004256852
0.0042446907
0.0042335182
0.0042232829
0.0042138923
0.0042052274
0.0041971515
0.0041895845
0.0041824686
0.0041757804
0.0041695328
0.0041637291
0.0041583707
0.0041534547
0.0041489776
0.004144965
0.0041414205
0.0041383409
0.0041357541
0.0041336503
0.0041321272
0.0041309337
0.0041301314
0.099788423
0.10036831
0.10094593
0.1014857
0.10198154
0.10242706
0.10281555
0.10314
0.10339305
0.10356698
0.10365367
0.10364462
0.1035309
0.10330318
0.10295175
0.1024665
0.10183695
0.10105234
0.10010163
0.09897363
0.097657039
0.096140618
0.094413313
0.092464446
0.090283899
0.087859689
0.085183422
0.08224999
0.079054808
0.075595955
0.071874908
0.067897446
0.063674714
0.059224534
0.054573267
0.049757803
0.044819549
0.039829192
0.034879201
0.030061462
0.025510754
0.021398756
0.017917909
0.015225974
0.013339149
0.012102035
0.011279536
0.010679004
0.010204923
0.0097965968
0.0094260305
0.009089403
0.0087768925
0.0084840491
0.0082113013