/*--------------------------------*- C++ -*----------------------------------*\
| =========                 |                                                 |
| \\      /  F ield         | OpenFOAM: The Open Source CFD Toolbox           |
|  \\    /   O peration     | Version:  2406                                  |
|   \\  /    A nd           | Website:  www.openfoam.com                      |
|    \\/     M anipulation  |                                                 |
\*---------------------------------------------------------------------------*/
FoamFile
{
    version     2.0;
    format      ascii;
    arch        "LSB;label=32;scalar=64";
    class       volScalarField;
    location    "0.005";
    object      omega;
}
// * * * * * * * * * * * * * * * * * * * * * * * * * * * * * * * * * * * * * //

dimensions      [0 0 -1 0 0 0 0];

internalField   nonuniform List<scalar> 
86779
(
20851.658
18920.54
17155.697
15572.44
14157.308
12891.306
11756.503
10737.096
9819.3431
8990.9176
8242.0106
7563.9904
6949.1156
6390.6081
5882.489
5419.5076
4997.0405
4611.0091
4257.8245
3934.3236
3637.7032
3365.4708
3115.3947
2885.4731
2673.9109
2479.0986
2299.6211
2134.1252
1981.4183
1840.4263
1710.1767
1589.7861
1478.4509
1375.4373
1280.0728
1191.7375
1109.8551
1033.8876
963.31993
897.63382
836.35953
779.02194
725.08092
673.94211
624.9642
577.42681
530.59018
483.83964
437.05989
391.22012
349.19006
314.34183
287.88272
268.30785
253.20656
240.80759
230.06401
220.44532
211.68912
203.69103
196.3684
189.64959
183.4915
177.81159
172.56842
167.72206
163.18828
158.96762
155.0373
151.33734
147.85334
144.59558
141.55886
138.69959
136.03795
133.56115
131.22977
129.10075
127.135
125.29712
123.59482
122.00285
120.51132
119.12676
117.83539
116.61512
115.48299
114.41123
113.4012
112.45857
111.56744
110.73254
109.9594
109.23836
108.5652
107.93795
107.34486
106.78056
106.24237
105.72633
105.23254
104.76339
104.32015
103.90314
103.51159
103.14476
102.80266
102.48546
102.19279
101.92356
101.67643
101.44968
101.24175
101.05066
100.87457
100.71233
100.56307
100.42601
100.30133
100.18925
100.08993
100.00342
99.930986
99.872703
99.830422
99.79329
99.770053
18674.456
17009.756
15515.064
14169.74
12956.713
11860.963
10869.524
9971.1108
9155.805
8414.8146
7740.5843
7126.4426
6566.4088
6055.138
5587.8342
5160.2201
4768.472
4409.1733
4079.2914
3776.1343
3497.3016
3240.6534
3004.263
2786.3865
2585.4475
2400.0231
2228.8354
2070.6927
1924.5125
1789.3217
1664.2345
1548.4431
1441.2089
1341.8541
1249.7549
1164.3328
1085.0474
1011.3896
942.87343
878.98439
819.25903
763.24958
710.40621
660.11313
611.71386
564.4685
517.64281
470.70405
423.80221
378.52331
338.16497
305.7715
281.63998
263.72708
249.68395
237.9054
227.54838
218.20152
209.65913
201.84469
194.68794
188.11528
182.08636
176.52276
171.38713
166.64294
162.2026
158.07073
154.22238
150.59507
147.17709
143.97625
140.99348
138.18139
135.56041
133.12666
130.83397
128.7401
126.80877
125.00064
123.32356
121.75609
120.28662
118.92142
117.64777
116.44185
115.32362
114.26577
113.26707
112.33485
111.45374
110.62747
109.86199
109.14833
108.48134
107.86009
107.27299
106.71433
106.18154
105.67055
105.18126
104.71602
104.27628
103.86247
103.47404
103.1103
102.77134
102.45735
102.16784
101.90159
101.65717
101.43279
101.22683
101.03736
100.86255
100.70128
100.55278
100.41634
100.29215
100.18054
100.08165
99.995542
99.923469
99.865505
99.823445
99.78665
99.76341
16757.579
15350.391
14078.845
12926.687
11879.832
10926.662
10057.475
9263.9445
8538.7605
7875.437
7268.2337
6712.0132
6202.1319
5734.3767
5304.9164
4910.2803
4547.3264
4213.2184
3905.4127
3621.6317
3359.8311
3118.1747
2895
2688.7931
2498.1747
2321.8897
2158.8089
2007.8652
1868.0875
1738.598
1618.5934
1507.3372
1404.1525
1308.4156
1219.5486
1137.013
1060.3022
988.93491
922.44989
860.3398
802.15289
747.45739
695.68582
646.21593
598.37801
551.42825
504.6742
457.73797
411.13997
367.03497
328.9041
299.10883
277.06305
260.47132
247.18661
235.8519
225.78334
216.64914
208.27909
200.61296
193.58771
187.12927
181.19874
175.72214
170.66441
165.99182
161.61683
157.54495
153.74988
150.16926
146.79458
143.63131
140.68225
137.9003
135.30511
132.89623
130.62179
128.54304
126.63125
124.83815
123.17353
121.62024
120.16267
118.80709
117.543
116.34359
115.23236
114.18265
113.18934
112.26213
111.3863
110.56388
109.80148
109.09132
108.42693
107.80864
107.22512
106.66999
106.14075
105.63316
105.1467
104.68374
104.2459
103.83384
103.44721
103.08539
102.74854
102.43681
102.14962
101.8856
101.64322
101.42059
101.21603
101.02765
100.85366
100.69294
100.54482
100.40865
100.28467
100.17325
100.07457
99.988666
99.916792
99.859011
99.817084
99.780599
99.757319
15060.02
13876.438
12795.656
11807.499
10902.208
10071.538
9308.5083
8607.0708
7961.8725
7368.1182
6821.4876
6318.0574
5854.2376
5426.727
5032.4843
4668.7152
4332.8586
4022.5783
3735.7569
3470.4802
3225.0173
2997.8002
2787.4007
2592.5104
2411.9287
2244.5546
2089.4038
1945.5139
1812.0222
1688.1411
1573.1449
1466.3646
1367.1823
1275.0254
1189.3601
1109.686
1035.5287
966.43289
901.9594
841.6109
784.94922
731.5473
680.81953
632.14391
584.83856
538.16964
491.51565
444.708
398.69482
356.12367
320.40248
293.06574
272.83077
257.34345
244.69606
233.74577
223.93606
214.99811
206.79042
199.26555
192.36671
186.01922
180.18493
174.79467
169.81539
165.21659
160.91059
156.9026
153.16505
149.63572
146.30928
143.18815
140.27753
137.53025
134.96457
132.5858
130.33687
128.27951
126.39228
124.61954
122.97143
121.43605
119.99424
118.65169
117.40027
116.21053
115.10888
114.0697
113.08436
112.16422
111.29572
110.47952
109.72206
109.01714
108.35702
107.74294
107.16411
106.61349
106.08867
105.58533
105.10257
104.64274
104.20766
103.79813
103.41402
103.05481
102.72067
102.41176
102.12736
101.86599
101.626
101.40541
101.20249
101.01542
100.84245
100.68248
100.53493
100.39923
100.27562
100.16456
100.06622
99.980647
99.909071
99.851546
99.809803
99.77367
99.750399
13556.176
12560.577
11641.799
10793.85
10010.442
9286.0787
8615.9706
7995.8659
7421.9303
6890.6706
6398.8832
5943.6102
5522.105
5131.8063
4770.3224
4435.4258
4125.0495
3837.2863
3570.3883
3322.7591
3092.9424
2879.6082
2681.5364
2497.6024
2326.7669
2168.0788
2020.6631
1883.6727
1756.3444
1637.9729
1527.9054
1425.5368
1330.305
1241.6857
1159.1873
1082.3454
1010.7155
943.86697
881.38001
822.76871
767.60808
715.46791
665.74292
617.81327
570.98701
524.55433
477.99706
431.41723
386.24655
345.53584
312.37456
287.40327
268.81025
254.30431
242.23075
231.63866
222.0796
213.33741
205.29533
197.91533
191.1459
184.9126
179.17715
173.87585
168.97721
164.45412
160.21966
156.27666
152.59679
149.11923
145.84205
142.7641
139.89207
137.18002
134.64418
132.29518
130.07139
128.03412
126.17037
124.41702
122.78422
121.26596
119.8391
118.50843
117.26879
116.08794
114.99507
113.96574
112.98772
112.07393
111.21214
110.4017
109.64848
108.94822
108.29193
107.68155
107.10706
106.56066
106.03999
105.54067
105.0614
104.60446
104.17192
103.7647
103.38295
103.02619
102.69464
102.38843
102.10671
101.84786
101.61012
101.39143
101.19001
101.00409
100.83201
100.67265
100.52556
100.39023
100.2669
100.15613
100.05805
99.972749
99.901416
99.844094
99.802497
99.766705
99.743446
12222.102
11383.291
10601.352
9873.1701
9194.9264
8563.1354
7974.6482
7426.5841
6916.2771
6441.2435
5999.1571
5587.8289
5205.1907
4849.2828
4518.2488
4210.3347
3923.8918
3657.3799
3409.3704
3178.5442
2963.6861
2763.676
2577.4789
2404.1344
2242.75
2092.5053
1952.6258
1822.3772
1701.0837
1588.1175
1482.8939
1384.8679
1293.53
1208.4017
1129.0311
1054.9876
985.85477
921.22461
860.69312
803.78764
750.09544
699.17459
650.39952
603.15268
556.73724
510.4866
464.03067
417.81901
373.81074
335.30858
304.82324
282.10105
264.98477
251.34617
239.78774
229.52846
220.21033
211.66056
203.78386
196.54847
189.90747
183.78809
178.15087
172.93825
168.12017
163.67296
159.51116
155.63319
152.01051
148.58494
145.35784
142.32394
139.49099
136.81501
134.30947
131.99077
129.7939
127.77741
125.93745
124.20436
122.58723
121.08656
119.67529
118.35679
117.12937
115.95803
114.87424
113.85509
112.88493
111.97783
111.1231
110.31907
109.57041
108.87508
108.22305
107.61655
107.04659
106.50464
105.9883
105.49322
105.01765
104.56384
104.13406
103.72939
103.3502
102.9961
102.66733
102.36399
102.0851
101.82888
101.59347
101.37673
101.17682
100.99207
100.82087
100.66216
100.51556
100.38062
100.25762
100.14716
100.04938
99.964366
99.893291
99.836177
99.794731
99.759295
99.736076
11035.912
10328.521
9661.7083
9035.6731
8448.1549
7897.0256
7380.2993
6896.1002
6442.6408
6018.2104
5621.1664
5249.928
4902.9705
4578.8225
4276.0668
3993.3434
3729.3554
3482.8749
3252.7481
3037.8966
2837.3163
2650.0724
2475.2937
2312.1661
2159.9275
2017.8743
1885.3321
1761.6613
1646.2684
1538.5975
1438.1279
1344.3706
1256.8655
1175.1773
1098.8913
1027.6083
960.93775
898.49275
839.87861
784.6412
732.37851
682.62359
634.73495
588.09702
542.01783
495.90195
449.58849
403.96123
361.50698
325.54437
297.77244
277.13785
261.33053
248.45499
237.36057
227.41308
218.32854
209.96922
202.25869
195.1684
188.65552
182.65076
177.11201
171.98871
167.25218
162.88187
158.79461
154.9822
151.41656
148.04368
144.86785
141.87918
139.08609
136.44726
133.9726
131.68462
129.51615
127.52064
125.70407
123.99159
122.3901
120.90706
119.51154
118.20498
116.98975
115.8281
114.75332
113.74425
112.78205
111.88167
111.03394
110.23651
109.49238
108.80188
108.15422
107.55153
106.98605
106.44854
105.93652
105.44571
104.97388
104.52322
104.09623
103.69416
103.31757
102.96618
102.64026
102.33983
102.06377
101.81018
101.57706
101.36222
101.16377
100.98009
100.80971
100.65159
100.50544
100.37088
100.24818
100.13801
100.04051
99.955761
99.884924
99.827992
99.786679
99.751599
99.728443
9979.2137
9381.7115
8811.9574
8273.0994
7763.8586
7283.007
6829.3615
6401.7645
5999.0744
5620.1619
5263.9099
4929.213
4614.9781
4320.1272
4043.6009
3784.3647
3541.4154
3313.7892
3100.567
2900.8785
2713.9033
2538.8694
2375.0504
2221.7618
2078.358
1944.2405
1818.8274
1701.5636
1591.9306
1489.4394
1393.6284
1304.0609
1220.3229
1142.019
1068.7695
1000.2043
935.95673
875.65931
818.91653
765.30327
714.4249
665.77004
618.69436
572.5835
526.76636
480.75899
434.68826
389.95431
349.49499
316.33888
291.22532
272.48244
257.82221
245.61739
234.94327
225.2903
216.43379
208.26359
200.72006
193.77501
187.38956
181.49985
176.05943
171.02572
166.37153
162.07881
158.06751
154.3209
150.81186
147.4922
144.36859
141.42598
138.67348
136.07278
133.62935
131.37237
129.23404
127.25987
125.46612
123.77476
122.18907
120.72374
119.34431
118.04959
116.84666
115.69509
114.62938
113.63037
112.67642
111.78299
110.94234
110.15188
109.41245
108.7268
108.08376
107.48491
106.92395
106.39099
105.88335
105.39689
104.92892
104.48154
104.05747
103.65811
103.28425
102.93571
102.61275
102.31531
102.04217
101.79124
101.56042
101.34746
101.15043
100.96779
100.79818
100.64064
100.49494
100.36075
100.23836
100.12848
100.03126
99.946785
99.876181
99.819417
99.778231
99.743512
99.720449
9036.156
8530.1335
8042.5441
7578.2215
7136.5564
6716.9287
6318.7064
5941.2378
5583.8475
5245.8366
4926.4851
4625.0538
4340.7885
4072.9242
3820.6906
3583.3192
3360.0505
3150.1414
2952.8724
2767.5513
2593.517
2430.1398
2276.8205
2132.9893
1998.1041
1871.6606
1753.1615
1642.1268
1538.1067
1440.6735
1349.42
1263.958
1183.9158
1108.9357
1038.6696
972.7744
910.90469
852.71194
797.78896
745.74784
696.19896
648.56564
602.22066
556.54968
510.92823
465.0399
419.39344
375.95838
337.94348
307.75884
285.16202
268.09714
254.43491
242.82129
232.53063
223.15838
214.52597
206.54424
199.16863
192.3688
186.11015
180.33599
174.99372
170.05001
165.47925
161.26478
157.33065
153.65021
150.19748
146.93179
143.86141
140.9657
138.25471
135.69326
133.28143
131.05571
128.9494
126.99697
125.22514
123.55537
121.98574
120.5381
119.17504
117.892
116.70139
115.56029
114.50365
113.51463
112.56914
111.6829
110.84934
110.06611
109.33154
108.65069
108.01246
107.41748
106.861
106.33265
105.82943
105.34736
104.88333
104.43931
104.01826
103.62171
103.25067
102.90507
102.58517
102.29079
102.02058
101.77232
101.54377
101.33265
101.13698
100.95532
100.78643
100.62943
100.48415
100.35032
100.22824
100.11866
100.0217
99.937484
99.867097
99.810482
99.769408
99.735051
99.712115
8192.7073
7763.0528
7345.1533
6944.639
6561.3415
6195.0451
5845.4917
5512.3803
5195.3663
4894.0637
4608.047
4336.8552
4079.9958
3836.9496
3607.1773
3390.1255
3185.2343
2991.9444
2809.7034
2637.9711
2476.2231
2323.9532
2180.6737
2045.9155
1919.2282
1800.1919
1688.3851
1583.3953
1484.8349
1392.3319
1305.529
1224.0825
1147.6598
1075.9374
1008.5963
945.31731
885.77401
829.63355
776.4801
725.9515
677.65493
630.95788
585.25333
539.93338
494.45966
448.75832
403.82104
362.17494
327.00935
299.83605
279.5452
263.94224
251.14574
240.05622
230.11838
221.01616
212.60534
204.81196
197.60507
190.95017
184.81778
179.15964
173.91516
169.06201
164.5758
160.43991
156.58364
152.9698
149.57325
146.36234
143.34608
140.49789
137.82942
135.30831
132.92838
130.73411
128.66171
126.73149
124.98044
123.33274
121.77953
120.34949
119.00307
117.73158
116.55332
115.42309
114.37557
113.39645
112.45967
111.58094
110.7545
109.97873
109.24929
108.57319
107.94001
107.34895
106.79692
106.27326
105.77448
105.29687
104.83687
104.39632
103.97839
103.58478
103.21667
102.87412
102.55737
102.26612
101.99889
101.75331
101.52701
101.31768
101.12333
100.94259
100.77436
100.61786
100.47298
100.33953
100.21776
100.10847
100.01178
99.927808
99.857627
99.801141
99.76017
99.726174
99.703403
7436.8351
7071.1488
6712.4489
6366.6169
6033.7581
5713.917
5407.0822
5113.1905
4832.1271
4563.7282
4307.7832
4064.0381
3832.1991
3611.938
3402.8967
3204.6941
3016.9321
2839.202
2671.0909
2512.1864
2362.081
2220.3745
2086.6761
1960.6051
1841.7916
1729.8909
1624.5492
1525.4142
1432.1541
1344.4475
1261.9826
1184.4559
1111.5708
1043.0344
978.55413
917.83155
860.55668
806.40719
754.9639
705.881
658.74667
612.89029
567.72743
522.67449
477.33482
431.97247
388.14936
348.83117
316.81761
292.56634
274.32542
259.97856
247.93407
237.31307
227.70309
218.86304
210.67242
203.06765
196.03005
189.51949
183.51309
177.97134
172.82421
168.0625
163.662
159.60456
155.8262
152.27959
148.93948
145.78431
142.82297
140.02276
137.39796
134.91831
132.57065
130.40795
128.37127
126.46384
124.73225
123.10707
121.57079
120.15814
118.82861
117.56856
116.40263
115.28372
114.24537
113.27605
112.34822
111.47737
110.65806
109.88995
109.16593
108.49454
107.8666
107.27953
106.7319
106.21298
105.71869
105.24556
104.78969
104.35269
103.93799
103.54743
103.18237
102.84297
102.52948
102.24142
101.97717
101.73427
101.51017
101.30259
101.1095
100.9296
100.76198
100.60594
100.46146
100.32837
100.20692
100.09792
100.00149
99.917754
99.847762
99.791385
99.750504
99.716867
99.694304
6758.1386
6446.2073
6137.8822
5838.9673
5549.7246
5270.3566
5001.0088
4741.7735
4492.6911
4253.7519
4024.8985
3806.0277
3596.9945
3397.6156
3207.6739
3026.9239
2855.0968
2691.9067
2537.0551
2390.2366
2251.1419
2119.4618
1994.8887
1877.1188
1765.8528
1660.8122
1561.7035
1468.2276
1380.1029
1297.0533
1218.8079
1145.0997
1075.6641
1010.2361
948.54616
890.31384
835.24267
783.01162
733.20699
685.49459
639.42187
594.29954
549.57398
504.72003
459.5584
414.8019
372.61876
336.15444
307.44534
285.91332
269.44669
256.16944
244.78172
234.58392
225.28213
216.69902
208.72805
201.3123
194.44426
188.0772
182.19684
176.77167
171.7213
167.05238
162.73871
158.75895
155.05789
151.57934
148.29634
145.19804
142.29227
139.54034
136.96038
134.52329
132.20838
130.07729
128.07788
126.19398
124.48047
122.87822
121.35948
119.9639
118.65144
117.40282
116.24915
115.142
114.11293
113.15329
112.23467
111.37209
110.55995
109.79962
109.08141
108.4147
107.79217
107.20922
106.66591
106.15178
105.66202
105.1934
104.74174
104.30841
103.89704
103.50966
103.14776
102.81163
102.50148
102.21666
101.95542
101.71518
101.49324
101.28733
101.09544
100.91633
100.74925
100.59365
100.44954
100.31681
100.19569
100.08698
99.990798
99.907294
99.837476
99.781186
99.740384
99.707099
99.684795
6147.5566
5880.9586
5615.59
5356.9878
5105.4953
4861.4033
4624.9509
4396.3275
4175.6741
3963.0847
3758.6078
3562.2482
3373.9693
3193.6964
3021.3197
2856.6989
2699.6676
2550.0378
2407.6045
2272.1502
2143.448
2021.2653
1905.366
1795.5122
1691.4658
1593.0071
1499.8952
1411.8782
1328.7186
1250.181
1176.0308
1106.0338
1039.9538
977.55005
918.573
862.75733
809.81786
759.41853
711.16971
664.74483
619.61718
575.1132
530.7229
486.03412
441.18429
397.44405
357.51861
324.3404
298.91376
279.81603
264.85165
252.48224
241.67301
231.86188
222.85376
214.5247
206.77323
199.54683
192.8484
186.62389
180.8698
175.56115
170.60691
166.03268
161.80678
157.90325
154.27827
150.86879
147.64405
144.60395
141.75424
139.05077
136.51682
134.12336
131.84193
129.74243
127.78136
125.92191
124.22521
122.64622
121.14575
119.76678
118.47151
117.2344
116.09288
114.99793
113.97827
113.02823
112.11909
111.26517
110.46026
109.7078
108.99581
108.33379
107.7168
107.1381
106.59903
106.08973
105.60454
105.14045
104.69308
104.26351
103.85559
103.47152
103.1129
102.78014
102.47341
102.19188
101.93366
101.69603
101.4762
101.2719
101.08114
100.90275
100.73617
100.58096
100.4372
100.30484
100.18405
100.07563
99.9797
99.896412
99.826749
99.770525
99.729789
99.696849
99.674856
5597.2544
5369.0094
5140.346
4916.4327
4697.6449
4484.3152
4276.7322
4075.1409
3879.744
3690.7021
3508.1345
3332.1205
3162.701
2999.8803
2843.6291
2693.8872
2550.5677
2413.56
2282.7342
2157.9441
2039.0311
1925.8267
1818.1549
1715.8345
1618.68
1526.5228
1439.1684
1356.4055
1278.0361
1203.8601
1133.6755
1067.2764
1004.4514
944.9807
888.63109
835.14944
784.26072
735.59432
688.80764
643.57187
599.25531
555.25114
511.11018
466.61487
422.34019
380.18283
343.15588
313.52283
291.19029
274.19846
260.48587
248.88921
238.59475
229.14121
220.41719
212.3411
204.80906
197.77204
191.24325
185.16042
179.53271
174.34026
169.48154
165.00438
160.86693
157.03754
153.48713
150.14776
146.98273
144.00239
141.20913
138.55422
136.06733
133.71851
131.47165
129.40364
127.48132
125.64739
123.96658
122.41103
120.92967
119.56668
118.28862
117.06327
115.93374
114.85141
113.84137
112.90086
112.00147
111.15658
110.359
109.61447
108.90915
108.25186
107.6405
107.06622
106.53132
106.02685
105.54628
105.08671
104.64372
104.21802
103.81365
103.43302
103.07781
102.74852
102.44531
102.1671
101.91188
101.67684
101.45904
101.25627
101.06657
100.88883
100.72269
100.56784
100.42442
100.29243
100.17198
100.06385
99.968168
99.885085
99.81556
99.759379
99.718696
99.68609
99.664466
5100.4415
4904.739
4707.4997
4513.4777
4323.05
4136.5605
3954.3171
3776.5922
3603.6222
3435.6071
3272.7112
3115.0633
2962.7571
2815.8534
2674.3812
2538.3405
2407.7045
2282.4231
2162.4253
2047.6227
1937.912
1833.1776
1733.2941
1638.1278
1547.5384
1461.4014
1379.5626
1301.8457
1228.0868
1158.1172
1091.7626
1028.8419
969.16477
912.52821
858.71161
807.47057
758.53433
711.50511
666.07525
621.8896
578.24822
534.63123
490.69149
446.52017
403.25356
363.37778
329.80805
303.75467
284.19927
268.97888
256.30082
245.3679
235.53638
226.41761
217.9726
210.14947
202.83649
195.98841
189.62965
183.68806
178.18609
173.10933
168.34577
163.96823
159.91958
156.16185
152.68462
149.41617
146.3124
143.39368
140.65716
138.05095
135.61194
133.30868
131.0979
129.06128
127.17728
125.37012
123.70476
122.17266
120.71132
119.36356
118.10258
116.88944
115.7717
114.70238
113.70225
112.77121
111.88185
111.04632
110.25623
109.51963
108.82144
108.16902
107.5633
106.99366
106.46284
105.96319
105.48729
105.03223
104.59368
104.17198
103.77127
103.39421
103.04254
102.71683
102.41719
102.14234
101.8901
101.65758
101.44173
101.2404
101.05169
100.87455
100.70879
100.55427
100.41118
100.27955
100.15946
100.05163
99.956182
99.873292
99.803885
99.747724
99.707083
99.674797
99.653605
4651.2193
4483.202
4312.9128
4144.6808
3978.8665
3815.8055
3655.8064
3499.1491
3346.0841
3196.8319
3051.5824
2910.4946
2773.6971
2641.2888
2513.3401
2389.8942
2270.9695
2156.5615
2046.6452
1941.1775
1840.0998
1743.3396
1650.813
1562.4263
1478.0772
1397.6788
1321.1119
1248.2297
1178.8979
1112.9744
1050.3088
990.74062
934.09659
880.18686
828.79942
779.69488
732.5955
687.09191
642.90203
599.61047
556.5045
513.17833
469.4652
425.90234
384.26834
347.42402
317.6726
295.00633
277.83757
264.07745
252.25618
241.90129
232.48973
223.68871
215.52125
207.95074
200.85612
194.1962
188.00857
182.20845
176.83016
171.86853
167.20031
162.92466
158.96482
155.27626
151.87132
148.67418
145.63288
142.77803
140.09852
137.54124
135.15061
132.89371
130.72104
128.71574
126.86874
125.08964
123.43998
121.9311
120.49072
119.15736
117.91317
116.71291
115.60672
114.55079
113.56092
112.63931
111.76027
110.93438
110.15201
109.42334
108.73271
108.08536
107.48524
106.92046
106.39367
105.8988
105.4276
104.97705
104.543
104.1254
103.72848
103.35513
103.00712
102.68509
102.38908
102.11761
101.86831
101.63824
101.42426
101.22428
101.03646
100.85986
100.69445
100.54022
100.39745
100.26619
100.14646
100.03892
99.943719
99.861012
99.791703
99.735541
99.694929
99.662944
99.642249
4244.4466
4100.0362
3952.8958
3806.9399
3662.5025
3519.9003
3379.4298
3241.3661
3105.9605
2973.4402
2844.0066
2717.8351
2595.0749
2475.8492
2360.2561
2248.369
2140.2388
2035.8947
1935.3468
1838.587
1745.5917
1656.3233
1570.7316
1488.7557
1410.3247
1335.3842
1263.8442
1195.583
1130.4908
1068.4482
1009.3247
952.97617
899.2425
847.9427
798.86972
751.78621
706.38554
662.278
619.20169
576.63415
533.93067
490.84436
447.50864
405.04642
365.83469
332.68405
306.83141
287.18091
271.99089
259.42155
248.32215
238.47746
229.44785
220.95432
213.06557
205.74482
198.86802
192.39585
186.38106
180.72323
175.46483
170.61772
166.04611
161.87363
158.0023
154.381
151.04819
147.92212
144.94392
142.15553
139.53337
137.02545
134.68326
132.47335
130.34134
128.36741
126.55519
124.80549
123.17245
121.6863
120.26781
118.94803
117.72014
116.53368
115.4388
114.39656
113.41743
112.50519
111.63678
110.82074
110.0464
109.32564
108.64297
108.00096
107.40638
106.84668
106.32389
105.83372
105.36727
104.92121
104.49171
104.07833
103.68531
103.31579
102.97158
102.65333
102.36101
102.09292
101.84651
101.6188
101.40659
101.20785
101.02085
100.84474
100.67963
100.52568
100.3832
100.25232
100.13296
100.02572
99.930756
99.84822
99.778992
99.722806
99.68221
99.650505
99.630378
3875.6165
3751.3771
3624.1477
3497.4518
3371.5926
3246.8619
3123.5376
3001.8814
2882.1372
2764.5288
2649.2595
2536.5105
2426.4413
2319.1887
2214.8676
2113.5718
2015.374
1920.328
1828.4693
1739.8164
1654.373
1572.1283
1493.0595
1417.132
1344.3009
1274.5388
1207.7803
1143.9237
1082.8801
1024.5483
968.81356
915.54428
864.58882
815.77065
768.88399
723.6917
679.82912
636.97786
594.86987
552.84421
510.44386
467.64154
425.02733
384.39445
348.45345
319.41096
297.24353
280.14137
266.54834
254.94869
244.48159
235.08784
226.40253
218.21697
210.60936
203.53001
196.87175
190.58886
184.74803
179.23288
174.09022
169.35639
164.88433
160.81482
157.03142
153.47663
150.2163
147.16043
144.24538
141.52609
138.96176
136.50399
134.20977
132.04723
129.95891
128.01665
126.23631
124.51726
122.90237
121.43811
120.04244
118.73554
117.52326
116.35172
115.26797
114.23969
113.27183
112.3689
111.51143
110.70541
109.93945
109.2266
108.55221
107.91592
107.32674
106.77237
106.25358
105.768
105.30633
104.86475
104.43983
104.0308
103.6418
103.27624
102.93597
102.62158
102.33298
102.06826
101.82469
101.59923
101.38868
101.19109
101.00482
100.82913
100.6643
100.51061
100.36843
100.23792
100.11893
100.012
99.917269
99.834896
99.76573
99.709499
99.668908
99.637457
99.617967
3540.7601
3433.7879
3323.7062
3213.678
3103.9746
2994.8609
2886.5926
2779.4136
2673.5541
2569.2289
2466.6356
2365.9544
2267.3467
2170.9551
2076.9036
1985.2974
1896.2239
1809.753
1725.9384
1644.8182
1566.4162
1490.7426
1417.7955
1347.5615
1280.0163
1215.1548
1152.9319
1093.2618
1036.0719
981.27553
928.76942
878.43018
830.11001
783.6319
738.7872
695.32681
652.84895
611.10495
569.76054
528.1255
486.00335
443.69507
402.4067
364.52537
332.5758
307.69606
288.76837
273.74372
261.41386
250.60803
240.7272
231.72111
223.34337
215.48345
208.15704
201.30363
194.86636
188.77852
183.10923
177.73493
172.70773
168.08383
163.71646
159.74765
156.05142
152.56433
149.37633
146.38945
143.5376
140.88948
138.38362
135.9773
133.73004
131.61493
129.57366
127.66367
125.91197
124.22471
122.62978
121.18631
119.81427
118.5199
117.32232
116.16695
115.09429
114.08016
113.12415
112.23047
111.38425
110.5884
109.83123
109.12631
108.46044
107.83033
107.24641
106.69757
106.18281
105.70169
105.24483
104.80772
104.38741
103.98283
103.59799
103.23652
102.9003
102.58987
102.30501
102.04363
101.80282
101.57951
101.3705
101.17393
100.98831
100.813
100.64843
100.49499
100.35309
100.22296
100.10436
99.997727
99.903234
99.821015
99.751894
99.6956
99.655002
99.623775
99.604994
3236.3727
3144.2062
3048.9088
2953.317
2857.6714
2762.2096
2667.1639
2572.758
2479.2053
2386.7071
2295.451
2205.6105
2117.3436
2030.7927
1946.0847
1863.3302
1782.6247
1704.0484
1627.6669
1553.5319
1481.6816
1412.142
1344.927
1280.0394
1217.471
1157.2346
1099.3014
1043.5971
990.06199
938.61959
889.17408
841.60564
795.76528
751.47095
708.50866
666.59055
625.32516
584.53151
543.74232
502.40044
460.66098
419.31254
380.23609
346.06148
318.49352
297.46776
281.2094
267.86786
256.51162
246.3538
237.04366
228.36301
220.27008
212.76401
205.71152
199.06692
192.85032
186.96886
181.46108
176.22394
171.32134
166.80007
162.54443
158.67131
155.0612
151.646
148.52839
145.60913
142.82183
140.2452
137.79848
135.44581
133.24403
131.17608
129.18535
127.30848
125.58227
123.92784
122.35464
120.93059
119.58287
118.30116
117.11719
115.97926
114.91785
113.91799
112.97444
112.08995
111.25531
110.46975
109.72182
109.02486
108.36768
107.74427
107.16543
106.62229
106.11168
105.63486
105.1828
104.75016
104.33448
103.93446
103.55391
103.19666
102.86462
102.55822
102.27711
102.01901
101.78087
101.55959
101.35199
101.15634
100.97127
100.79631
100.63197
100.47879
100.33718
100.20743
100.08921
99.982887
99.888628
99.806555
99.737464
99.681091
99.640475
99.609437
99.591434
2959.3495
2879.8965
2797.3588
2714.2806
2630.8742
2547.3514
2463.9207
2380.7848
2298.1384
2216.1668
2135.0446
2054.9351
1975.9889
1898.3442
1822.1258
1747.4456
1674.4021
1603.0809
1533.5547
1465.8839
1400.1168
1336.2901
1274.4295
1214.5494
1156.6536
1100.769
1046.8792
994.9177
944.83345
896.55646
849.99405
805.02499
761.49352
719.20813
677.95058
637.35302
597.12173
557.11119
516.69354
475.6669
434.64442
395.05023
359.25632
329.5113
306.27832
288.54039
274.36758
262.40979
251.83323
242.1456
233.28574
225.00537
217.27115
210.04917
203.25309
196.84523
190.82282
185.15736
179.79786
174.69781
169.93622
165.50686
161.37047
157.5846
154.0585
150.72388
147.67241
144.81892
142.10067
139.5925
137.20511
134.9098
132.75196
130.73068
128.79356
126.9507
125.24753
123.62682
122.07674
120.6706
119.34763
118.07938
116.90782
115.78849
114.7388
113.75322
112.82272
111.9474
111.12465
110.34955
109.61126
108.92235
108.27395
107.65779
107.0839
106.54656
106.04026
105.56756
105.12029
104.69212
104.28107
103.88572
103.50959
103.15668
102.82894
102.52664
102.24926
101.9944
101.75882
101.53941
101.33309
101.13826
100.95366
100.779
100.6149
100.46198
100.32068
100.1913
100.07347
99.967453
99.873425
99.791493
99.72242
99.665955
99.62531
99.594423
99.577263
2706.9348
2638.4123
2566.8966
2494.6732
2421.9293
2348.8522
2275.6275
2202.4363
2129.4539
2056.8485
1984.7798
1913.3985
1842.8456
1773.2518
1704.7372
1637.411
1571.3714
1506.7054
1443.4892
1381.788
1321.6561
1263.1374
1206.265
1151.0618
1097.5396
1045.7355
995.64194
947.19675
900.35349
855.04458
811.1761
768.62032
727.20857
686.73462
646.9639
607.48046
568.11537
528.66381
488.54906
448.0839
408.45381
371.71725
340.19828
315.12268
295.80532
280.67368
268.15106
257.16351
247.15113
238.02991
229.58964
221.68442
214.27851
207.33717
200.79931
194.6306
188.81144
183.30747
178.09014
173.18347
168.55297
164.2089
160.19599
156.48646
153.03948
149.79899
146.80924
144.0185
141.37771
138.93051
136.60144
134.36918
132.25462
130.27924
128.3977
126.58954
124.9081
123.32183
121.7958
120.4061
119.10792
117.85461
116.69433
115.59446
114.55729
113.58588
112.66895
111.80292
110.99234
110.2279
109.49962
108.81887
108.17931
107.57093
107.00189
106.47039
105.96861
105.49986
105.05732
104.63364
104.22722
103.83664
103.46507
103.11663
102.79328
102.49513
102.22146
101.96974
101.73661
101.51894
101.31376
101.11962
100.93542
100.76103
100.59717
100.44454
100.30355
100.17455
100.05711
99.951402
99.857602
99.775806
99.706743
99.650176
99.609493
99.578715
99.562457
2476.6773
2417.5615
2355.5742
2292.7743
2229.326
2165.3933
2101.1396
2036.7248
1972.3048
1908.0302
1844.0449
1780.4863
1717.4839
1655.1593
1593.6255
1532.9867
1473.3381
1414.7654
1357.3451
1301.1442
1246.2199
1192.6197
1140.3814
1089.5323
1040.0891
992.09569
945.54978
900.38953
856.56935
814.01988
772.64148
732.29502
692.7941
653.91541
615.37428
576.78517
538.13756
499.08663
459.4248
420.09152
382.9225
350.24252
323.56329
302.85031
286.81998
273.68159
262.2218
251.97664
242.62399
233.9871
225.93756
218.38527
211.29388
204.62936
198.34472
192.40534
186.78788
181.46626
176.41401
171.63491
167.12654
162.91979
159.02554
155.37934
152.00226
148.86899
145.94096
143.20963
140.65531
138.25884
135.9857
133.82298
131.75359
129.82281
127.99662
126.22381
124.56443
123.0128
121.51161
120.13712
118.86309
117.6268
116.47705
115.397
114.37348
113.41603
112.51307
111.65662
110.85845
110.10493
109.38692
108.71453
108.08383
107.4837
106.91949
106.39376
105.89677
105.43183
104.99391
104.57476
104.17296
103.78725
103.42037
103.07652
102.75765
102.46369
102.19369
101.94501
101.71418
101.49809
101.29391
101.10036
100.9165
100.74236
100.57875
100.42643
100.28579
100.15717
100.04012
99.934713
99.841137
99.759472
99.690414
99.633742
99.593013
99.562298
99.546992
2266.3889
2215.373
2161.633
2107.0235
2051.6866
1995.7644
1939.3988
1882.7297
1825.8944
1769.026
1712.2531
1655.6991
1599.4814
1543.7115
1488.4938
1433.9259
1380.098
1327.0925
1274.9839
1223.8384
1173.7134