/*--------------------------------*- C++ -*----------------------------------*\
| =========                 |                                                 |
| \\      /  F ield         | OpenFOAM: The Open Source CFD Toolbox           |
|  \\    /   O peration     | Version:  2406                                  |
|   \\  /    A nd           | Website:  www.openfoam.com                      |
|    \\/     M anipulation  |                                                 |
\*---------------------------------------------------------------------------*/
FoamFile
{
    version     2.0;
    format      ascii;
    arch        "LSB;label=32;scalar=64";
    class       volScalarField;
    location    "0.005";
    object      rho;
}
// * * * * * * * * * * * * * * * * * * * * * * * * * * * * * * * * * * * * * //

dimensions      [1 -3 0 0 0 0 0];

internalField   nonuniform List<scalar> 
86779
(
1.1984843
1.1977741
1.1974566
1.1970791
1.1966944
1.1963616
1.1960828
1.1958499
1.1956611
1.195514
1.195404
1.1953249
1.1952686
1.1952305
1.1952058
1.1951992
1.1952162
1.1952598
1.1953304
1.1954256
1.1955406
1.1956722
1.1958185
1.1959775
1.1961478
1.1963281
1.1965179
1.1967159
1.1969207
1.1971315
1.1973474
1.1975676
1.1977911
1.1980169
1.1982442
1.1984717
1.1986981
1.1989245
1.199139
1.199344
1.1995438
1.1997603
1.1999595
1.2001321
1.2002889
1.200425
1.2005357
1.2006166
1.2006639
1.2006781
1.2006686
1.2006521
1.2006438
1.2006512
1.2006731
1.2007049
1.2007418
1.2007807
1.2008201
1.2008592
1.2008978
1.2009358
1.2009731
1.2010096
1.2010455
1.2010806
1.2011149
1.2011486
1.2011817
1.2012141
1.201246
1.2012774
1.2013083
1.2013387
1.2013687
1.2013981
1.2014272
1.2014558
1.201484
1.2015117
1.2015389
1.2015658
1.2015922
1.2016182
1.201644
1.2016695
1.2016948
1.2017198
1.2017447
1.2017696
1.2017945
1.2018195
1.2018447
1.2018701
1.2018958
1.2019219
1.2019484
1.2019753
1.2020027
1.2020305
1.2020589
1.2020877
1.2021172
1.2021472
1.2021777
1.2022089
1.2022407
1.2022731
1.2023062
1.2023399
1.2023742
1.2024091
1.2024443
1.2024799
1.2025154
1.2025508
1.2025855
1.2026194
1.2026519
1.2026827
1.2027113
1.2027374
1.2027605
1.20278
1.2027962
1.2028072
1.2028154
1.1998596
1.1993712
1.1989127
1.1984074
1.1979548
1.1975736
1.197254
1.1969884
1.1967711
1.1965967
1.1964594
1.1963527
1.1962685
1.1961982
1.1961394
1.1960953
1.1960692
1.1960658
1.1960896
1.1961389
1.1962116
1.1963066
1.1964207
1.19655
1.1966921
1.1968454
1.1970086
1.1971804
1.1973593
1.1975444
1.1977349
1.1979296
1.1981278
1.1983286
1.198531
1.198734
1.1989362
1.199138
1.1993353
1.1995138
1.199689
1.1998917
1.2000722
1.2002274
1.200369
1.2004912
1.2005895
1.2006592
1.2006969
1.2007048
1.2006939
1.2006805
1.2006774
1.2006893
1.2007139
1.2007463
1.2007826
1.2008203
1.2008583
1.200896
1.2009331
1.2009697
1.2010057
1.201041
1.2010756
1.2011095
1.2011428
1.2011754
1.2012075
1.201239
1.2012699
1.2013005
1.2013305
1.2013602
1.2013894
1.2014182
1.2014465
1.2014745
1.2015021
1.2015292
1.201556
1.2015823
1.2016082
1.2016338
1.2016592
1.2016843
1.2017092
1.2017339
1.2017586
1.2017832
1.2018079
1.2018327
1.2018576
1.2018829
1.2019085
1.2019344
1.2019608
1.2019876
1.2020149
1.2020427
1.2020711
1.2021
1.2021294
1.2021595
1.2021901
1.2022214
1.2022533
1.2022858
1.202319
1.2023529
1.2023874
1.2024224
1.2024579
1.2024936
1.2025294
1.2025649
1.2025999
1.2026339
1.2026666
1.2026976
1.2027264
1.2027526
1.2027758
1.2027955
1.2028117
1.2028228
1.202831
1.2005117
1.2001535
1.199643
1.1990908
1.1986079
1.1982023
1.1978598
1.1975714
1.1973308
1.1971324
1.1969703
1.1968383
1.1967306
1.1966411
1.1965677
1.1965097
1.1964683
1.1964479
1.196452
1.1964813
1.1965367
1.196616
1.196715
1.1968302
1.1969593
1.1971006
1.1972528
1.1974143
1.1975837
1.1977599
1.1979418
1.1981286
1.1983191
1.1985123
1.1987073
1.1989029
1.1990978
1.1992914
1.1994838
1.1996502
1.1998185
1.2000152
1.2001848
1.2003303
1.2004619
1.2005734
1.2006603
1.2007183
1.200745
1.200745
1.200731
1.2007188
1.2007188
1.2007332
1.2007587
1.2007909
1.2008261
1.2008623
1.2008987
1.2009348
1.2009704
1.2010055
1.20104
1.2010739
1.2011072
1.20114
1.201172
1.2012036
1.2012346
1.201265
1.201295
1.2013246
1.2013539
1.2013826
1.2014111
1.2014391
1.2014667
1.2014941
1.201521
1.2015476
1.2015737
1.2015995
1.201625
1.2016501
1.2016751
1.2016997
1.2017243
1.2017487
1.201773
1.2017973
1.2018217
1.2018463
1.201871
1.2018961
1.2019215
1.2019473
1.2019736
1.2020003
1.2020276
1.2020554
1.2020837
1.2021126
1.202142
1.2021721
1.2022028
1.2022341
1.2022661
1.2022988
1.2023322
1.2023662
1.2024009
1.2024361
1.2024717
1.2025076
1.2025436
1.2025793
1.2026145
1.2026487
1.2026816
1.2027128
1.2027418
1.2027681
1.2027915
1.2028113
1.2028276
1.2028387
1.202847
1.2010002
1.2006964
1.2001956
1.1996386
1.1991442
1.1987214
1.1983576
1.1980452
1.1977793
1.197555
1.1973675
1.1972115
1.1970824
1.1969759
1.1968896
1.1968224
1.1967745
1.1967482
1.1967451
1.1967659
1.1968107
1.1968778
1.1969643
1.1970676
1.1971856
1.1973167
1.1974595
1.1976124
1.1977739
1.1979428
1.1981181
1.1982987
1.1984836
1.1986715
1.1988614
1.1990522
1.1992422
1.1994309
1.1996196
1.1997783
1.1999438
1.2001353
1.2002964
1.2004346
1.2005577
1.2006594
1.2007353
1.2007813
1.2007969
1.2007891
1.2007721
1.2007608
1.2007631
1.2007792
1.2008052
1.2008366
1.2008705
1.2009052
1.2009398
1.2009742
1.2010083
1.2010418
1.2010749
1.2011075
1.2011395
1.201171
1.2012018
1.2012322
1.2012621
1.2012916
1.2013206
1.2013493
1.2013776
1.2014056
1.2014332
1.2014605
1.2014874
1.201514
1.2015403
1.2015663
1.2015918
1.2016171
1.201642
1.2016667
1.2016912
1.2017155
1.2017396
1.2017637
1.2017876
1.2018117
1.2018358
1.2018601
1.2018847
1.2019095
1.2019348
1.2019605
1.2019866
1.2020133
1.2020405
1.2020682
1.2020965
1.2021254
1.2021549
1.202185
1.2022158
1.2022472
1.2022793
1.2023121
1.2023456
1.2023798
1.2024146
1.20245
1.2024858
1.202522
1.2025581
1.2025941
1.2026295
1.2026639
1.202697
1.2027283
1.2027575
1.202784
1.2028075
1.2028274
1.2028438
1.202855
1.2028633
1.2014592
1.2011767
1.2006919
1.2001455
1.1996516
1.1992214
1.198845
1.1985167
1.1982328
1.1979893
1.1977822
1.1976074
1.197461
1.1973394
1.1972405
1.197163
1.1971066
1.1970724
1.1970608
1.1970722
1.1971061
1.1971613
1.1972357
1.1973271
1.1974339
1.1975543
1.1976871
1.1978305
1.197983
1.1981436
1.1983111
1.1984842
1.198662
1.1988432
1.1990267
1.1992111
1.199395
1.1995777
1.1997602
1.1999106
1.2000732
1.2002577
1.2004093
1.2005396
1.2006535
1.2007448
1.2008091
1.2008431
1.200848
1.2008335
1.2008148
1.200805
1.2008096
1.200827
1.200853
1.2008835
1.2009159
1.2009489
1.2009818
1.2010145
1.2010469
1.201079
1.2011106
1.2011417
1.2011724
1.2012026
1.2012323
1.2012615
1.2012903
1.2013187
1.2013467
1.2013744
1.2014019
1.201429
1.2014557
1.2014823
1.2015084
1.2015344
1.20156
1.2015853
1.2016104
1.201635
1.2016595
1.2016837
1.2017077
1.2017315
1.2017553
1.201779
1.2018026
1.2018264
1.2018502
1.2018743
1.2018986
1.2019233
1.2019484
1.2019739
1.202
1.2020265
1.2020536
1.2020813
1.2021096
1.2021385
1.202168
1.2021981
1.202229
1.2022605
1.2022927
1.2023256
1.2023592
1.2023936
1.2024286
1.2024642
1.2025002
1.2025366
1.2025729
1.2026091
1.2026447
1.2026793
1.2027126
1.2027441
1.2027735
1.2028002
1.2028238
1.2028439
1.2028604
1.2028716
1.20288
1.2018793
1.2015962
1.2011237
1.200595
1.2001098
1.1996802
1.1992989
1.1989619
1.1986665
1.1984097
1.1981883
1.197999
1.1978387
1.1977045
1.1975943
1.1975068
1.1974416
1.1973986
1.1973781
1.1973799
1.1974035
1.1974478
1.1975111
1.1975917
1.1976879
1.1977983
1.1979213
1.1980555
1.1981993
1.1983516
1.1985112
1.1986769
1.1988474
1.1990217
1.1991983
1.1993761
1.1995533
1.1997299
1.1999044
1.2000464
1.2002064
1.2003824
1.2005237
1.2006454
1.2007491
1.2008292
1.2008812
1.200903
1.200898
1.2008783
1.2008591
1.2008514
1.2008582
1.2008766
1.2009022
1.2009316
1.2009623
1.2009935
1.2010247
1.2010557
1.2010864
1.2011169
1.201147
1.2011767
1.201206
1.2012349
1.2012633
1.2012914
1.2013191
1.2013464
1.2013734
1.2014002
1.2014267
1.2014529
1.2014788
1.2015046
1.20153
1.2015552
1.2015802
1.2016049
1.2016293
1.2016534
1.2016773
1.201701
1.2017246
1.201748
1.2017713
1.2017946
1.2018179
1.2018414
1.2018649
1.2018887
1.2019128
1.2019373
1.2019622
1.2019876
1.2020136
1.20204
1.2020671
1.2020947
1.2021229
1.2021518
1.2021814
1.2022116
1.2022424
1.202274
1.2023063
1.2023394
1.2023732
1.2024077
1.2024429
1.2024787
1.2025149
1.2025514
1.2025881
1.2026244
1.2026602
1.2026951
1.2027286
1.2027603
1.2027898
1.2028167
1.2028405
1.2028606
1.2028772
1.2028886
1.2028969
1.2022578
1.2019608
1.2014972
1.2009895
1.2005182
1.2000947
1.1997141
1.1993737
1.1990718
1.1988063
1.1985748
1.1983746
1.1982034
1.1980588
1.1979391
1.1978428
1.1977694
1.1977183
1.1976896
1.1976826
1.1976969
1.1977314
1.1977848
1.1978554
1.1979419
1.1980429
1.1981568
1.1982822
1.1984177
1.1985621
1.1987141
1.1988724
1.1990359
1.1992033
1.1993732
1.1995443
1.199715
1.1998856
1.2000504
1.2001841
1.2003426
1.2005086
1.2006394
1.2007517
1.2008445
1.2009124
1.2009516
1.2009612
1.2009475
1.2009241
1.2009056
1.2009003
1.2009089
1.2009278
1.2009528
1.2009808
1.2010098
1.2010391
1.2010684
1.2010977
1.2011267
1.2011556
1.2011842
1.2012124
1.2012403
1.2012679
1.2012951
1.2013219
1.2013485
1.2013747
1.2014007
1.2014264
1.201452
1.2014773
1.2015024
1.2015273
1.201552
1.2015765
1.2016008
1.2016248
1.2016486
1.2016721
1.2016955
1.2017187
1.2017418
1.2017647
1.2017877
1.2018106
1.2018336
1.2018567
1.20188
1.2019035
1.2019274
1.2019517
1.2019764
1.2020016
1.2020274
1.2020538
1.2020808
1.2021084
1.2021366
1.2021655
1.202195
1.2022252
1.2022562
1.2022879
1.2023203
1.2023535
1.2023874
1.2024221
1.2024575
1.2024934
1.2025299
1.2025666
1.2026035
1.2026401
1.2026761
1.2027111
1.2027449
1.2027768
1.2028065
1.2028335
1.2028574
1.2028777
1.2028944
1.2029058
1.2029142
1.2025996
1.2022817
1.2018253
1.2013395
1.2008851
1.2004713
1.2000954
1.1997558
1.1994515
1.1991812
1.1989432
1.1987355
1.1985562
1.1984036
1.1982759
1.1981722
1.1980914
1.1980331
1.1979968
1.197982
1.1979879
1.1980137
1.198058
1.1981196
1.1981971
1.1982892
1.1983945
1.1985116
1.1986391
1.1987757
1.1989203
1.1990714
1.1992278
1.1993883
1.1995515
1.1997158
1.1998799
1.2000451
1.2001971
1.2003236
1.2004821
1.2006361
1.2007558
1.2008579
1.2009391
1.2009942
1.2010201
1.201018
1.2009969
1.2009714
1.2009544
1.2009516
1.2009618
1.2009808
1.2010048
1.2010311
1.2010583
1.2010857
1.2011131
1.2011406
1.2011679
1.2011952
1.2012221
1.2012489
1.2012754
1.2013016
1.2013275
1.2013531
1.2013785
1.2014037
1.2014286
1.2014533
1.2014779
1.2015023
1.2015265
1.2015506
1.2015745
1.2015982
1.2016218
1.2016452
1.2016683
1.2016913
1.2017141
1.2017368
1.2017594
1.2017819
1.2018044
1.201827
1.2018495
1.2018723
1.2018953
1.2019186
1.2019422
1.2019663
1.2019908
1.2020159
1.2020416
1.2020679
1.2020948
1.2021223
1.2021505
1.2021794
1.2022089
1.2022392
1.2022702
1.202302
1.2023345
1.2023678
1.2024019
1.2024368
1.2024723
1.2025085
1.2025452
1.2025821
1.2026192
1.202656
1.2026922
1.2027275
1.2027615
1.2027936
1.2028235
1.2028507
1.2028748
1.2028952
1.202912
1.2029234
1.2029319
1.2029045
1.2025667
1.2021171
1.201653
1.2012164
1.2008147
1.2004464
1.2001107
1.1998075
1.1995358
1.1992944
1.1990821
1.1988974
1.1987388
1.198605
1.1984951
1.1984081
1.1983434
1.1983005
1.1982786
1.198277
1.1982948
1.198331
1.1983843
1.1984535
1.1985374
1.1986347
1.1987439
1.1988636
1.1989928
1.19913
1.199274
1.1994234
1.199577
1.1997333
1.1998907
1.2000482
1.2002078
1.2003433
1.2004666
1.2006247
1.2007641
1.2008727
1.2009638
1.2010324
1.201074
1.2010865
1.2010735
1.2010467
1.2010207
1.2010058
1.2010054
1.2010166
1.2010353
1.201058
1.2010826
1.2011078
1.2011332
1.2011587
1.2011843
1.2012099
1.2012356
1.2012609
1.2012861
1.2013112
1.201336
1.2013606
1.201385
1.2014092
1.2014332
1.201457
1.2014807
1.2015044
1.2015278
1.2015511
1.2015744
1.2015975
1.2016204
1.2016433
1.201666
1.2016885
1.2017109
1.2017331
1.2017553
1.2017774
1.2017994
1.2018215
1.2018436
1.2018659
1.2018883
1.201911
1.201934
1.2019574
1.2019812
1.2020056
1.2020306
1.2020561
1.2020823
1.2021091
1.2021366
1.2021647
1.2021936
1.2022232
1.2022535
1.2022846
1.2023164
1.2023491
1.2023825
1.2024168
1.2024518
1.2024875
1.2025239
1.2025608
1.202598
1.2026352
1.2026723
1.2027087
1.2027442
1.2027784
1.2028107
1.2028408
1.2028682
1.2028924
1.202913
1.2029299
1.2029414
1.2029499
1.2031706
1.2028209
1.2023802
1.2019364
1.2015173
1.2011287
1.2007698
1.2004406
1.2001411
1.1998707
1.1996288
1.1994144
1.1992265
1.199064
1.1989258
1.1988111
1.1987191
1.198649
1.1986003
1.1985722
1.198564
1.1985748
1.1986037
1.1986495
1.1987111
1.1987874
1.1988771
1.1989787
1.1990912
1.199213
1.1993431
1.1994801
1.1996225
1.1997692
1.1999185
1.2000687
1.2002193
1.200371
1.2004924
1.2006153
1.2007674
1.2008922
1.2009896
1.2010687
1.2011239
1.2011513
1.2011506
1.2011282
1.2010976
1.2010723
1.20106
1.2010616
1.2010734
1.2010913
1.2011125
1.2011352
1.2011584
1.2011817
1.2012052
1.201229
1.2012528
1.2012768
1.2013005
1.2013241
1.2013477
1.2013711
1.2013944
1.2014175
1.2014405
1.2014634
1.2014861
1.2015087
1.2015314
1.2015539
1.2015763
1.2015987
1.2016209
1.2016431
1.2016653
1.2016873
1.2017092
1.2017309
1.2017526
1.2017741
1.2017958
1.2018173
1.201839
1.2018607
1.2018825
1.2019047
1.201927
1.2019497
1.2019729
1.2019965
1.2020207
1.2020455
1.2020709
1.2020969
1.2021237
1.2021511
1.2021792
1.2022081
1.2022377
1.202268
1.2022992
1.2023311
1.2023639
1.2023975
1.2024319
1.2024671
1.202503
1.2025396
1.2025767
1.2026141
1.2026516
1.2026889
1.2027256
1.2027613
1.2027957
1.2028282
1.2028585
1.202886
1.2029105
1.2029311
1.2029481
1.2029598
1.2029683
1.2033971
1.2030428
1.2026185
1.2021939
1.2017913
1.2014163
1.2010684
1.2007475
1.2004538
1.200187
1.1999468
1.1997326
1.1995436
1.1993791
1.1992382
1.1991201
1.1990242
1.1989498
1.1988962
1.1988628
1.1988489
1.1988536
1.198876
1.198915
1.1989697
1.1990389
1.1991215
1.1992161
1.1993215
1.1994364
1.1995595
1.1996895
1.199825
1.1999647
1.2001069
1.2002499
1.2003931
1.2005354
1.2006451
1.2007669
1.2009097
1.2010201
1.2011059
1.201172
1.201213
1.2012259
1.2012127
1.2011827
1.2011501
1.2011266
1.2011169
1.2011201
1.201132
1.2011487
1.2011682
1.2011888
1.2012099
1.2012311
1.2012527
1.2012745
1.2012965
1.2013188
1.2013408
1.2013629
1.201385
1.201407
1.2014289
1.2014508
1.2014725
1.2014942
1.2015158
1.2015374
1.201559
1.2015805
1.201602
1.2016235
1.2016449
1.2016663
1.2016878
1.2017091
1.2017302
1.2017513
1.2017724
1.2017934
1.2018146
1.2018356
1.2018568
1.2018781
1.2018996
1.2019213
1.2019434
1.2019658
1.2019887
1.2020121
1.2020361
1.2020607
1.202086
1.2021119
1.2021386
1.2021659
1.202194
1.2022229
1.2022525
1.2022829
1.2023141
1.2023461
1.202379
1.2024127
1.2024473
1.2024827
1.2025188
1.2025556
1.2025929
1.2026305
1.2026683
1.2027058
1.2027427
1.2027787
1.2028133
1.202846
1.2028765
1.2029043
1.2029288
1.2029497
1.2029667
1.2029785
1.202987
1.2035858
1.2032354
1.2028301
1.2024253
1.2020401
1.2016798
1.2013441
1.2010332
1.2007471
1.2004859
1.2002494
1.2000373
1.1998491
1.1996843
1.1995421
1.199422
1.1993234
1.1992458
1.1991884
1.1991506
1.1991318
1.1991311
1.1991478
1.1991808
1.1992291
1.1992919
1.1993679
1.1994559
1.1995545
1.1996627
1.199779
1.1999022
1.2000308
1.2001634
1.2002983
1.2004339
1.20057
1.2007009
1.2008
1.2009206
1.2010518
1.2011476
1.201221
1.2012731
1.2012991
1.2012975
1.2012732
1.2012376
1.2012049
1.2011839
1.2011765
1.2011808
1.2011923
1.2012075
1.201225
1.2012435
1.2012624
1.2012815
1.201301
1.2013209
1.2013411
1.2013616
1.2013819
1.2014024
1.201423
1.2014436
1.2014641
1.2014847
1.2015051
1.2015256
1.2015461
1.2015666
1.2015872
1.2016078
1.2016283
1.2016489
1.2016695
1.20169
1.2017107
1.2017313
1.2017517
1.2017722
1.2017927
1.2018131
1.2018337
1.2018542
1.201875
1.2018959
1.201917
1.2019384
1.2019601
1.2019822
1.2020048
1.202028
1.2020518
1.2020762
1.2021014
1.2021272
1.2021538
1.2021811
1.2022091
1.202238
1.2022676
1.202298
1.2023293
1.2023615
1.2023944
1.2024283
1.202463
1.2024986
1.2025349
1.2025719
1.2026095
1.2026473
1.2026853
1.2027231
1.2027603
1.2027965
1.2028313
1.2028642
1.2028949
1.2029229
1.2029476
1.2029686
1.2029857
1.2029975
1.2030061
1.203742
1.2034
1.2030157
1.2026323
1.2022656
1.2019211
1.2015991
1.2012995
1.2010226
1.2007687
1.2005376
1.2003293
1.2001435
1.1999798
1.1998378
1.199717
1.1996169
1.199537
1.1994768
1.1994355
1.1994127
1.1994075
1.1994191
1.1994468
1.1994895
1.1995463
1.1996162
1.1996979
1.1997902
1.1998918
1.2000015
1.2001179
1.2002396
1.2003651
1.2004927
1.2006209
1.20075
1.2008661
1.2009561
1.2010765
1.2011931
1.201274
1.2013341
1.2013713
1.2013817
1.2013662
1.2013327
1.2012937
1.2012624
1.2012442
1.2012386
1.2012434
1.2012541
1.2012675
1.2012829
1.2012992
1.2013159
1.2013327
1.2013502
1.2013682
1.2013865
1.2014053
1.2014239
1.2014427
1.2014618
1.2014808
1.2015001
1.2015193
1.2015384
1.2015577
1.201577
1.2015964
1.201616
1.2016355
1.2016551
1.2016748
1.2016945
1.2017142
1.2017341
1.201754
1.2017737
1.2017935
1.2018134
1.2018332
1.2018533
1.2018733
1.2018936
1.2019141
1.2019347
1.2019558
1.2019771
1.201999
1.2020213
1.2020443
1.2020679
1.2020921
1.2021171
1.2021428
1.2021693
1.2021965
1.2022245
1.2022534
1.202283
1.2023135
1.2023449
1.2023771
1.2024102
1.2024442
1.2024791
1.2025148
1.2025514
1.2025886
1.2026264
1.2026645
1.2027027
1.2027407
1.2027781
1.2028146
1.2028496
1.2028828
1.2029137
1.2029418
1.2029667
1.2029878
1.2030051
1.203017
1.2030256
1.2038712
1.2035404
1.2031784
1.2028175
1.2024703
1.2021428
1.2018354
1.2015484
1.201282
1.2010367
1.2008125
1.2006094
1.2004275
1.2002663
1.2001258
1.2000055
1.199905
1.1998238
1.1997616
1.1997178
1.1996917
1.1996827
1.1996901
1.199713
1.1997507
1.1998021
1.1998663
1.1999421
1.2000283
1.2001236
1.2002269
1.2003366
1.2004514
1.2005697
1.2006897
1.2008105
1.2009324
1.2010288
1.2011152
1.2012345
1.2013328
1.2013987
1.2014443
1.2014657
1.2014605
1.2014325
1.201392
1.2013519
1.201323
1.2013076
1.2013032
1.2013079
1.2013174
1.2013288
1.2013419
1.201356
1.2013704
1.201385
1.2014004
1.2014164
1.2014327
1.2014498
1.2014666
1.2014838
1.2015013
1.2015189
1.2015367
1.2015546
1.2015724
1.2015904
1.2016086
1.2016268
1.2016453
1.2016639
1.2016824
1.2017012
1.2017201
1.2017389
1.201758
1.2017771
1.2017961
1.2018153
1.2018345
1.2018538
1.2018733
1.2018928
1.2019126
1.2019326
1.2019529
1.2019735
1.2019946
1.2020161
1.2020382
1.2020609
1.2020843
1.2021083
1.2021332
1.2021588
1.2021851
1.2022123
1.2022403
1.2022691
1.2022988
1.2023293
1.2023607
1.202393
1.2024263
1.2024604
1.2024955
1.2025314
1.2025682
1.2026056
1.2026436
1.202682
1.2027204
1.2027587
1.2027964
1.2028331
1.2028683
1.2029018
1.2029329
1.2029612
1.2029862
1.2030075
1.2030249
1.2030369
1.2030455
1.2039783
1.2036616
1.2033224
1.2029842
1.2026572
1.2023473
1.2020554
1.2017818
1.201527
1.2012914
1.2010753
1.2008787
1.2007018
1.2005445
1.2004065
1.2002877
1.2001878
1.2001064
1.2000432
1.1999975
1.199969
1.199957
1.1999608
1.1999796
1.2000127
1.2000592
1.2001182
1.2001884
1.2002688
1.2003581
1.2004549
1.200558
1.2006658
1.2007767
1.2008889
1.2010016
1.2011133
1.2011936
1.2012795
1.20139
1.2014697
1.2015208
1.2015508
1.2015557
1.2015355
1.2014969
1.2014521
1.2014127
1.2013869
1.201374
1.20137
1.2013741
1.2013822
1.2013912
1.2014018
1.2014137
1.2014258
1.2014381
1.2014514
1.2014654
1.2014798
1.2014952
1.2015101
1.2015257
1.2015416
1.2015576
1.201574
1.2015905
1.201607
1.2016238
1.2016408
1.2016579
1.2016753
1.2016928
1.2017103
1.2017282
1.2017462
1.2017642
1.2017824
1.2018007
1.201819
1.2018375
1.2018561
1.2018748
1.2018937
1.2019127
1.201932
1.2019515
1.2019714
1.2019917
1.2020123
1.2020336
1.2020554
1.2020778
1.202101
1.2021249
1.2021496
1.202175
1.2022013
1.2022284
1.2022563
1.2022851
1.2023148
1.2023454
1.2023769
1.2024093
1.2024427
1.202477
1.2025122
1.2025483
1.2025853
1.202623
1.2026612
1.2026998
1.2027385
1.202777
1.202815
1.2028519
1.2028874
1.2029211
1.2029524
1.2029809
1.2030062
1.2030276
1.2030451
1.2030572
1.2030658
1.2040695
1.2037692
1.2034522
1.2031361
1.2028291
1.2025372
1.2022613
1.2020019
1.2017594
1.2015345
1.2013274
1.2011383
1.2009675
1.200815
1.2006806
1.2005644
1.200466
1.2003852
1.2003217
1.2002751
1.2002448
1.2002304
1.2002312
1.2002465
1.2002756
1.2003177
1.2003718
1.2004368
1.2005116
1.2005949
1.2006855
1.200782
1.2008827
1.200986
1.2010902
1.2011944
1.2012934
1.2013605
1.2014452
1.2015423
1.2016037
1.2016393
1.2016527
1.201641
1.201607
1.2015605
1.2015142
1.2014768
1.2014542
1.2014431
1.2014385
1.2014417
1.2014482
1.2014546
1.2014628
1.2014724
1.2014822
1.2014921
1.2015033
1.2015154
1.2015277
1.2015413
1.2015544
1.2015683
1.2015827
1.2015971
1.201612
1.2016272
1.2016423
1.2016578
1.2016736
1.2016895
1.2017059
1.2017223
1.2017388
1.2017557
1.2017728
1.2017899
1.2018073
1.2018249
1.2018424
1.2018602
1.2018782
1.2018962
1.2019145
1.201933
1.2019517
1.2019709
1.2019903
1.2020102
1.2020305
1.2020514
1.2020729
1.2020951
1.2021181
1.2021418
1.2021663
1.2021916
1.2022178
1.2022448
1.2022727
1.2023015
1.2023312
1.2023618
1.2023934
1.2024259
1.2024594
1.2024939
1.2025293
1.2025656
1.2026028
1.2026407
1.2026792
1.202718
1.202757
1.2027958
1.202834
1.2028712
1.2029069
1.2029408
1.2029724
1.2030011
1.2030265
1.2030481
1.2030657
1.2030778
1.2030865
1.2041503
1.2038667
1.2035708
1.2032762
1.202989
1.202715
1.2024554
1.2022106
1.2019812
1.2017676
1.2015703
1.2013896
1.2012257
1.2010788
1.200949
1.200836
1.20074
1.2006606
1.2005976
1.2005506
1.2005193
1.2005031
1.2005015
1.2005138
1.2005394
1.2005774
1.2006271
1.2006871
1.2007565
1.2008341
1.2009184
1.2010082
1.2011017
1.2011972
1.2012933
1.201389
1.2014713
1.2015276
1.2016114
1.2016911
1.2017338
1.201753
1.2017491
1.2017215
1.201676
1.2016246
1.201579
1.2015444
1.2015248
1.2015147
1.2015086
1.2015106
1.2015155
1.2015191
1.2015246
1.2015321
1.2015396
1.2015469
1.201556
1.2015661
1.2015764
1.2015883
1.2015994
1.2016116
1.2016245
1.2016373
1.2016508
1.2016646
1.2016782
1.2016925
1.2017071
1.2017218
1.201737
1.2017525
1.2017679
1.2017837
1.2018
1.2018162
1.2018327
1.2018495
1.2018663
1.2018833
1.2019007
1.201918
1.2019358
1.2019537
1.2019719
1.2019906
1.2020096
1.2020291
1.202049
1.2020696
1.2020908
1.2021128
1.2021355
1.202159
1.2021834
1.2022086
1.2022346
1.2022616
1.2022895
1.2023182
1.2023479
1.2023786
1.2024102
1.2024429
1.2024765
1.2025111
1.2025467
1.2025832
1.2026206
1.2026587
1.2026975
1.2027366
1.2027758
1.2028149
1.2028533
1.2028908
1.2029268
1.202961
1.2029927
1.2030217
1.2030473
1.203069
1.2030867
1.203099
1.2031077
1.2042223
1.203956
1.2036807
1.2034068
1.2031393
1.2028833
1.2026402
1.2024102
1.2021941
1.2019924
1.2018054
1.2016337
1.2014775
1.201337
1.2012123
1.2011034
1.2010104
1.2009331
1.2008712
1.2008246
1.2007928
1.2007754
1.2007719
1.2007817
1.2008042
1.2008385
1.2008839
1.2009393
1.2010035
1.2010753
1.2011534
1.2012363
1.2013224
1.2014098
1.2014978
1.2015842
1.2016441
1.2016962
1.2017774
1.2018349
1.2018589
1.2018608
1.2018395
1.2017975
1.2017435
1.2016906
1.2016475
1.2016153
1.2015983
1.2015884
1.2015799
1.2015809
1.2015842
1.2015845
1.2015872
1.2015927
1.2015979
1.2016026
1.2016096
1.2016178
1.2016259
1.2016361
1.2016453
1.2016558
1.2016671
1.2016782
1.2016902
1.2017027
1.2017149
1.2017278
1.2017413
1.2017548
1.2017688
1.2017832
1.2017975
1.2018124
1.2018277
1.201843
1.2018586
1.2018746
1.2018906
1.2019069
1.2019236
1.2019403
1.2019575
1.2019748
1.2019925
1.2020107
1.2020293
1.2020483
1.2020679
1.2020882
1.2021091
1.2021308
1.2021533
1.2021766
1.2022008
1.2022259
1.2022518
1.2022787
1.2023065
1.2023353
1.202365
1.2023957
1.2024274
1.2024602
1.2024939
1.2025287
1.2025645
1.2026012
1.2026388
1.2026772
1.2027162
1.2027556
1.2027951
1.2028344
1.2028731
1.2029108
1.2029471
1.2029815
1.2030135
1.2030426
1.2030684
1.2030903
1.2031081
1.2031205
1.2031293
1.2042874
1.204039
1.203784
1.2035306
1.2032824
1.2030444
1.2028177
1.2026028
1.2024002
1.2022106
1.2020344
1.2018721
1.2017241
1.2015905
1.2014715
1.2013674
1.2012779
1.2012032
1.2011431
1.2010973
1.2010656
1.2010475
1.2010426
1.2010503
1.20107
1.2011009
1.2011424
1.2011932
1.2012522
1.2013183
1.2013901
1.201466
1.2015443
1.2016234
1.2017022
1.2017753
1.2018167
1.2018686
1.2019373
1.2019722
1.2019779
1.2019618
1.201924
1.2018704
1.2018114
1.2017595
1.2017197
1.201689
1.201674
1.2016637
1.2016532
1.2016529
1.2016536
1.2016505
1.201651
1.2016542
1.2016571
1.201659
1.201664
1.2016704
1.2016761
1.2016847
1.2016918
1.2017007
1.2017105
1.2017198
1.2017303
1.2017414
1.2017521
1.2017638
1.201776
1.2017883
1.2018012
1.2018145
1.2018278
1.2018415
1.201856
1.2018704
1.201885
1.2019002
1.2019155
1.201931
1.201947
1.2019631
1.2019796
1.2019964
1.2020136
1.2020313
1.2020493
1.202068
1.2020872
1.2021072
1.2021278
1.2021492
1.2021714
1.2021945
1.2022186
1.2022435
1.2022694
1.2022962
1.202324
1.2023527
1.2023824
1.2024132
1.202445
1.2024778
1.2025117
1.2025467
1.2025826
1.2026196
1.2026574
1.202696
1.2027353
1.2027749
1.2028147
1.2028543
1.2028933
1.2029313
1.2029679
1.2030025
1.2030347
1.2030641
1.20309
1.2031121
1.20313
1.2031425
1.2031513
1.2043485
1.2041184
1.2038833
1.20365
1.2034209
1.2032006
1.2029902
1.2027903
1.2026014
1.2024241
1.2022589
1.2021063
1.2019667
1.2018405
1.2017277
1.2016286
1.2015433
1.2014717
1.2014137
1.2013693
1.201338
1.2013196
1.2013137
1.2013196
1.2013368
1.2013646
1.2014022
1.2014486
1.2015025
1.2015628
1.2016281
1.2016968
1.201767
1.2018373
1.2019065
1.2019616
1.2019887
1.20204
1.2020899
1.2021023
1.2020894
1.2020555
1.2020033
1.2019418
1.2018809
1.2018318
1.201795
1.2017652
1.2017516
1.2017411
1.2017305
1.2017257
1.2017221
1.2017178
1.201716
1.201716
1.2017169
1.2017163
1.2017196
1.2017236
1.2017271
1.201734
1.2017391
1.2017463
1.2017547
1.2017621
1.2017712
1.2017809
1.20179
1.2018004
1.2018115
1.2018225
1.2018341
1.2018464
1.2018586
1.2018713
1.2018848
1.2018983
1.2019119
1.2019263
1.2019408
1.2019556
1.2019709
1.2019863
1.2020022
1.2020183
1.202035
1.2020522
1.2020698
1.2020881
1.2021069
1.2021265
1.2021468
1.2021679
1.20219
1.2022129
1.2022367
1.2022615
1.2022873
1.202314
1.2023417
1.2023705
1.2024002
1.202431
1.2024629
1.2024958
1.2025299
1.202565
1.2026011
1.2026383
1.2026764
1.2027152
1.2027547
1.2027947
1.2028347
1.2028746
1.2029139
1.2029522
1.202989
1.2030239
1.2030564
1.2030859
1.2031121
1.2031343
1.2031523
1.203165
1.2031738
1.204408
1.2041963
1.2039809
1.2037675
1.2035573
1.2033544
1.2031601
1.202975
1.2027996
1.2026345
1.2024804
1.2023376
1.2022067
1.202088
1.2019817
1.2018881
1.2018072
1.201739
1.2016837
1.2016409
1.2016104
1.2015921
1.2015853
1.2015897
1.2016047
1.2016295
1.2016634
1.2017053
1.2017541
1.2018084
1.2018669
1.2019279
1.2019895
1.2020509
1.2021096
1.20214
1.2021601
1.2022086
1.202234
1.2022239
1.2021925
1.2021423
1.2020793
1.2020136
1.2019527
1.2019071
1.2018722
1.2018475
1.2018336
1.2018191
1.201807
1.2017987
1.201792
1.2017859
1.2017815
1.2017787
1.2017768
1.2017751
1.2017765
1.2017769
1.201779
1.2017841
1.2017871
1.2017927
1.2017997
1.201805
1.2018126
1.201821
1.2018286
1.2018377
1.2018475
1.2018573
1.2018677
1.2018788
1.20189
1.2019016
1.2019141
1.2019267
1.2019394
1.2019529
1.2019667
1.2019807
1.2019952
1.2020099
1.2020252
1.2020408
1.2020569
1.2020736
1.2020907
1.2021086
1.202127
1.2021462
1.2021662
1.2021871
1.2022089
1.2022316
1.2022552
1.2022799
1.2023055
1.2023322
1.2023599
1.2023886
1.2024184
1.2024492
1.2024812
1.2025142
1.2025484
1.2025837
1.20262
1.2026574
1.2026957
1.2027349
1.2027746
1.2028148
1.2028552
1.2028954
1.2029349
1.2029735
1.2030106
1.2030458
1.2030785
1.2031083
1.2031346
1.203157
1.2031752
1.2031879
1.2031967
1.2044712
1.2042766
1.2040803
1.2038863
1.2036943
1.2035083
1.2033297
1.2031589
1.2029967
1.2028437
1.2027005
1.2025676
1.2024454
1.2023343
1.2022346
1.2021466
1.2020703
1.2020059
1.2019534
1.2019125
1.2018832
1.201865
1.2018578
1.2018608
1.2018736
1.2018955
1.2019257
1.201963
1.2020064
1.2020545
1.2021058
1.2021585
1.2022109
1.2022619
1.2023054
1.2023155
1.2023336
1.2023672
1.2023668
1.2023361
1.2022869
1.2022235
1.2021536
1.2020864
1.2020273
1.201986
1.2019568
1.2019336
1.2019144
1.2018978
1.2018838
1.2018726
1.201863
1.2018546
1.2018476
1.2018422
1.2018379
1.2018344
1.2018328
1.2018317
1.2018324
1.2018345
1.2018356
1.20184
1.2018453
1.2018486
1.2018548
1.2018618
1.2018678
1.2018757
1.2018843
1.2018927
1.2019019
1.2019119
1.2019221
1.2019325
1.201944
1.2019557
1.2019673
1.20198
1.201993
1.2020062
1.20202
1.202034
1.2020487
1.2020636
1.2020792
1.2020954
1.2021121
1.2021295
1.2021475
1.2021664
1.2021861
1.2022066
1.2022281
1.2022506
1.2022741
1.2022986
1.2023242
1.2023508
1.2023784
1.2024071
1.2024369
1.2024678
1.2024998
1.202533
1.2025673
1.2026028
1.2026393
1.2026769
1.2027155
1.2027549
1.2027949
1.2028354
1.2028761
1.2029165
1.2029564
1.2029953
1.2030327
1.2030681
1.2031011
1.2031311
1.2031576
1.2031802
1.2031984
1.2032113
1.2032201
1.2045416
1.2043623
1.2041843
1.2040089
1.2038347
1.203665
1.2035013
1.2033443
1.2031948
1.2030534
1.2029208
1.2027974
1.2026838
1.2025803
1.2024873
1.2024049
1.2023335
1.2022729
1.2022233
1.2021846
1.2021565
1.2021388
1.202131
1.2021328
1.2021435
1.2021624
1.2021886
1.2022212
1.2022589
1.2023003
1.2023439
1.2023877
1.2024304
1.2024701
1.2024933
1.2024871
1.2025022
1.2025139
1.2024883
1.2024381
1.2023735
1.202301
1.202227
1.2021595
1.2021096
1.2020741
1.2020435
1.2020176
1.2019962
1.2019775
1.2019612
1.2019472
1.2019349
1.2019239
1.2019145
1.2019065
1.2018999
1.2018943
1.2018903
1.2018873
1.2018858
1.2018855
1.2018858
1.2018881
1.2018909
1.201893
1.2018979
1.2019031
1.2019076
1.2019143
1.2019216
1.2019288
1.2019366
1.2019455
1.2019547
1.201964
1.2019744
1.2019852
1.2019958
1.2020076
1.2020199
1.2020322
1.2020452
1.2020586
1.2020726
1.202087
1.202102
1.2021176
1.2021338
1.2021508
1.2021684
1.2021869
1.2022063
1.2022266
1.2022478
1.2022701
1.2022934
1.2023178
1.2023432
1.2023697
1.2023973
1.202426
1.2024558
1.2024867
1.2025189
1.2025522
1.2025866
1.2026223
1.202659
1.2026969
1.2027357
1.2027753
1.2028157
1.2028565
1.2028974
1.2029382
1.2029783
1.2030175
1.2030552
1.2030909
1.2031241
1.2031544
1.2031811
1.2032039
1.2032222
1.2032352
1.2032441
1.2046183
1.2044599
1.2042973
1.2041392
1.2039816
1.2038271
1.2036773
1.2035332
1.2033956
1.2032652
1.2031427
1.2030285
1.2029232
1.2028271
1.2027407
1.202664
1.2025973
1.2025407
1.2024941
1.2024575
1.2024307
1.2024134