/*--------------------------------*- C++ -*----------------------------------*\
| =========                 |                                                 |
| \\      /  F ield         | OpenFOAM: The Open Source CFD Toolbox           |
|  \\    /   O peration     | Version:  2406                                  |
|   \\  /    A nd           | Website:  www.openfoam.com                      |
|    \\/     M anipulation  |                                                 |
\*---------------------------------------------------------------------------*/
FoamFile
{
    version     2.0;
    format      ascii;
    arch        "LSB;label=32;scalar=64";
    class       volScalarField;
    location    "0.058";
    object      alphat;
}
// * * * * * * * * * * * * * * * * * * * * * * * * * * * * * * * * * * * * * //

dimensions      [1 -1 -1 0 0 0 0];

internalField   nonuniform List<scalar> 
8260
(
0.040012447
0.045374866
0.05167841
0.058797409
0.066569305
0.074820925
0.083333046
0.091810067
0.099851491
0.10688313
0.11209463
0.11436438
0.11217099
0.10361064
0.086623299
0.06025996
0.03179263
0.014958715
0.0097259943
0.0080388172
0.0070767809
0.0063873517
0.0059192448
0.0056119321
0.005387808
0.0052386784
0.0051326022
0.0050560706
0.0050015957
0.0049641154
0.0049441389
0.047362472
0.052885488
0.05894651
0.065614256
0.072847169
0.08051457
0.0884089
0.096234363
0.1035825
0.10987114
0.11426079
0.11560785
0.11237229
0.1026621
0.084473232
0.057400089
0.029064174
0.014075168
0.0094500026
0.0079306826
0.0070131551
0.0063487925
0.0058976021
0.005598589
0.005379376
0.0052340952
0.0051299773
0.0050543769
0.00500049
0.0049633697
0.0049436326
0.055784027
0.061098411
0.066854682
0.073090935
0.079783929
0.086829155
0.094037126
0.10112047
0.10766611
0.11307795
0.11650382
0.11677501
0.11233445
0.10131065
0.081792125
0.05392947
0.026380082
0.013163045
0.0092591456
0.0078732026
0.0069794375
0.0063285746
0.0058863028
0.0055913929
0.0053747272
0.0052315863
0.0051285376
0.0050533192
0.0049996639
0.0049627086
0.0049430777
0.065385774
0.070268298
0.075580032
0.081299365
0.087387929
0.093741924
0.10017793
0.1064124
0.11202848
0.11641915
0.11871825
0.11773605
0.11190221
0.09937759
0.07839457
0.049763642
0.023602262
0.012367052
0.0090878653
0.0077824889
0.0069215
0.0062934795
0.0058663524
0.0055782392
0.0053661737
0.0052268604
0.0051257791
0.0050514643
0.0049983942
0.0049618096
0.0049424463
0.076163293
0.080448119
0.085190344
0.090276823
0.095655717
0.10121513
0.10676742
0.11202522
0.11656426
0.11976652
0.12075129
0.11831131
0.11086962
0.096636339
0.074059483
0.044817112
0.020803756
0.011598106
0.0089008254
0.0076997553
0.006870438
0.0062632701
0.0058497882
0.0055672056
0.0053591553
0.0052229807
0.0051235161
0.0050498622
0.0049972027
0.0049608955
0.0049417275
0.087909792
0.091526708
0.095584901
0.099920488
0.10446965
0.10911021
0.11364522
0.11777756
0.12107101
0.1228942
0.12235232
0.11822383
0.10893677
0.092775405
0.068509192
0.039048923
0.018293781
0.010889107
0.0087184304
0.0075980753
0.0068041819
0.0062231549
0.0058272791
0.0055519
0.0053493336
0.0052174661
0.005120265
0.0050476517
0.0049956476
0.0049597641
0.0049409083
0.10025665
0.10316434
0.10645019
0.10993192
0.11353437
0.11712508
0.12049602
0.12333728
0.1251977
0.12543045
0.1231271
0.11705661
0.10567234
0.087369589
0.061409255
0.032546199
0.015922438
0.010251557
0.0085271682
0.0074948542
0.0067390245
0.0061844268
0.0058061645
0.0055372431
0.0053401584
0.0052122472
0.0051171722
0.0050454829
0.0049940499
0.004958548
0.0049399757
0.11260019
0.11476816
0.11721324
0.11975298
0.12230079
0.12471297
0.12676909
0.12814474
0.12837228
0.12678879
0.12247369
0.11419417
0.10046611
0.079851696
0.052410675
0.025664903
0.013757754
0.0097687899
0.0083338974
0.0073753669
0.0066622584
0.0061378577
0.0057800483
0.005518936
0.0053286521
0.0052055823
0.0051131778
0.0050427477
0.0049920908
0.0049570951
0.0049389146
0.12398565
0.12538719
0.12693403
0.12845672
0.12985416
0.13096872
0.13156538
0.13130344
0.12969807
0.12607133
0.11949466
0.10874533
0.092473121
0.069504808
0.041337471
0.020136091
0.011969858
0.0093555291
0.00812628
0.0072497296
0.0065848254
0.006091811
0.0057543535
0.0055006218
0.0053174569
0.0051988911
0.0051091147
0.0050399073
0.0049899946
0.0049554913
0.0049377086
0.13291442
0.1335419
0.13414428
0.13458937
0.13475842
0.13447554
0.13348761
0.13143522
0.12781665
0.12194352
0.11288877
0.099455794
0.080564491
0.055564821
0.028805165
0.015705847
0.010590868
0.0089945237
0.0079115659
0.0071099875
0.0064969461
0.0060395368
0.0057237178
0.005478874
0.0053042352
0.0051907505
0.0051040772
0.0050364563
0.0049874901
0.0049536019
0.0049363367
0.13713262
0.1369988
0.13664597
0.13598195
0.13487095
0.13312079
0.13045784
0.12650271
0.12074117
0.1124881
0.10084213
0.084642922
0.063412141
0.037678433
0.019865323
0.012526012
0.0097978068
0.008657628
0.0076844674
0.0069669909
0.0064070525
0.0059880497
0.005692697
0.0054567781
0.0052912572
0.005182311
0.0050987645
0.0050327628
0.0049847511
0.0049514887
0.0049347711
0.13335605
0.13244109
0.13115597
0.12940462
0.12703003
0.12381557
0.11946443
0.11358265
0.10566269
0.095064806
0.080990392
0.062226371
0.040034465
0.023035216
0.014215392
0.010448126
0.0092821627
0.0082877064
0.0074660955
0.0068155274
0.0063053438
0.00593288
0.0056562856
0.0054312332
0.0052763109
0.005172224
0.0050923846
0.0050283671
0.0049815276
0.004949029
0.0049326082
0.11692411
0.11535881
0.11324149
0.11047802
0.10690638
0.10229584
0.096329551
0.088630527
0.07877299
0.066320732
0.051199503
0.036452933
0.023484242
0.014957869
0.010996115
0.0096268785
0.0087614516
0.0079674648
0.0072201798
0.0066674923
0.0062108763
0.0058742073
0.0056194683
0.0054058674
0.0052613452
0.0051616095
0.0050857145
0.0050236275
0.0049779845
0.0049462827
0.0049299767
0.082399532
0.080215627
0.077537882
0.074404682
0.070671768
0.066156224
0.060662979
0.054120386
0.046490395
0.037848548
0.02868962
0.020337579
0.014331272
0.011088554
0.0096488209
0.0089317506
0.0082874725
0.0075525281
0.0069856418
0.0065017616
0.0061095726
0.0058185498
0.0055767905
0.0053773122
0.0052440687
0.0051494114
0.0050780386
0.0050181283
0.0049738916
0.0049431321
0.004927065
0.046431184
0.045037664
0.043316027
0.041265872
0.03874438
0.03568789
0.032302072
0.028542889
0.024429359
0.020068542
0.015830856
0.012441862
0.010403053
0.0094572373
0.0090539392
0.0084205801
0.0077852725
0.0072458757
0.0067415046
0.0063564949
0.0060099298
0.0057557243
0.0055378952
0.0053493306
0.0052265742
0.0051370916
0.0050701385
0.0050122851
0.0049694118
0.004939632
0.0049239266
0.022983774
0.022486472
0.021750256
0.020816485
0.019656943
0.018273996
0.016737359
0.015082794
0.013365293
0.011695985
0.01023066
0.0092740937
0.0087810823
0.0088383953
0.0081679698
0.0076603321
0.0072826302
0.0068144407
0.0065032323
0.0061775663
0.005907475
0.005694583
0.0054919314
0.0053184361
0.0052073486
0.0051243677
0.0050607807
0.0050056108
0.004964293
0.0049356599
0.0049206785
0.012206789
0.012088112
0.011842675
0.011500236
0.011076775
0.010595664
0.010081772
0.0095362045
0.0089471433
0.0084840571
0.0082654973
0.0081267997
0.0082095871
0.0077495925
0.0075964723
0.0073109168
0.0068284324
0.0065598877
0.0062954741
0.0060376239
0.0057881834
0.0056182131
0.0054503768
0.0052885522
0.0051888608
0.0051109371
0.0050514512
0.0049985719
0.0049585593
0.0049312865
0.0049168805
0.0082669551
0.0082384427
0.0081641206
0.0080607474
0.0079297303
0.0077883312
0.0076640336
0.0075528118
0.0074914337
0.0074844345
0.0075700411
0.007473023
0.0070431638
0.006992388
0.0068726332
0.0066279606
0.0065078078
0.0062294607
0.0060757091
0.0058446152
0.0056686498
0.0055437789
0.0053913862
0.0052548722
0.0051690609
0.0050967192
0.0050403629
0.0049900658
0.0049522958
0.0049263748
0.0049125902
0.0069822899
0.0069357408
0.0069064671
0.0068904775
0.0068877414
0.0068866149
0.006906689
0.0068755083
0.0068418315
0.0068218592
0.0067093232
0.0065935331
0.0066051941
0.0063992215
0.006308009
0.0062992081
0.0060978649
0.0059406725
0.0058198132
0.0056970321
0.0055323479
0.0054541441
0.0053351459
0.0052181675
0.0051505483
0.0050815629
0.0050277046
0.0049815867
0.0049453183
0.0049209636
0.004907917
0.0064023843
0.0063986392
0.0063919698
0.0063901793
0.0064054122
0.0064267202
0.0064023508
0.0063851282
0.0063349139
0.0062228959
0.0061536983
0.0061159336
0.0059736888
0.0060222479
0.0059435604
0.0058768798
0.005847326
0.0057780619
0.0056507698
0.005496202
0.0054236716
0.0053811828
0.0052638708
0.0051787847
0.0051261621
0.005064862
0.0050137669
0.0049709956
0.0049377849
0.0049149504
0.0049028948
0.0059774171
0.0059725785
0.0059632439
0.0059403421
0.0059034037
0.0058480016
0.0058560088
0.0058467842
0.0058323382
0.005816912
0.0058028652
0.0057744925
0.0057552259
0.0056891928
0.0057127428
0.0056715994
0.005541105
0.0054912211
0.0054468547
0.0053850276
0.0053256184
0.0052755481
0.005215133
0.005144908
0.0050964974
0.0050452824
0.0049996906
0.0049604944
0.0049294685
0.0049084497
0.0048973708
0.0055686751
0.0055697008
0.0055675668
0.0055623259
0.0055589607
0.0055726066
0.0055826656
0.0055720683
0.0055621263
0.0055422487
0.005532552
0.0055301879
0.0055251326
0.0054743126
0.0054564403
0.0053739862
0.0053846244
0.0053145601
0.0053084176
0.0052502918
0.0052199166
0.0051969326
0.0051530147
0.0051093016
0.0050641562
0.0050246932
0.0049821682
0.0049476192
0.0049205741
0.0049014447
0.0048918592
0.0053494441
0.0053495858
0.0053472319
0.0053418874
0.0053333357
0.0053187706
0.0053019641
0.0052951944
0.0052913845
0.0052883215
0.0052847267
0.005275556
0.0052799151
0.0053041936
0.0052781271
0.0052366106
0.0052345464
0.0052101511
0.0051670433
0.0051427169
0.0051487822
0.0051074535
0.0050914834
0.0050720225
0.0050337458
0.0049994534
0.0049639973
0.0049352415
0.0049106582
0.0048942437
0.0048855273
0.0051442243
0.0051455937
0.0051452751
0.0051439018
0.0051424685
0.0051413417
0.0051415318
0.0051457604
0.005151656
0.0051543968
0.0051571849
0.0051568177
0.0051454626
0.0051256461
0.0051261146
0.0051348772
0.0051048031
0.0050711019
0.0050788617
0.0050760369
0.005071865
0.0050522804
0.005033727
0.0050268859
0.0049975293
0.0049714286
0.0049407982
0.0049204367
0.004900691
0.004886926
0.0048800257
0.0050418018
0.005043814
0.0050443316
0.0050437663
0.0050425166
0.0050406695
0.0050381642
0.0050344923
0.0050312707
0.0050317089
0.0050341379
0.0050362302
0.0050390668
0.0050492505
0.0050451508
0.0050270163
0.0050381684
0.0050225148
0.0050284363
0.0050429729
0.0050324873
0.0050159264
0.0049979363
0.0049735557
0.0049549261
0.0049420979
0.0049203286
0.0049069983
0.0048907977
0.0048798417
0.0048734592
0.004950922
0.0049518698
0.004952132
0.0049521131
0.0049522928
0.0049528564
0.0049538362
0.0049549277
0.0049568973
0.0049608984
0.0049649194
0.0049676329
0.0049669149
0.0049595043
0.0049559408
0.0049571246
0.0049549641
0.0049748838
0.0049672389
0.0049679126
0.0049604415
0.004956548
0.0049487177
0.0049305131
0.0049230337
0.0049130854
0.0049036567
0.004891146
0.0048823713
0.0048732456
0.0048679185
0.004912639
0.0049135978
0.0049139632
0.0049139649
0.0049138269
0.0049135433
0.0049131413
0.0049130846
0.0049131071
0.0049128763
0.0049124798
0.0049126788
0.0049143566
0.0049151051
0.0049165795
0.0049174948
0.0049168777
0.0049207191
0.0049184404
0.0049166087
0.0049136675
0.0049105725
0.0049109574
0.0049089586
0.0049030003
0.0048972172
0.0048934557
0.0048828057
0.0048745097
0.004867808
0.0048638245
0.0048869373
0.0048873278
0.0048874699
0.0048875336
0.0048876577
0.0048878703
0.0048881841
0.0048886803
0.0048893191
0.0048900971
0.0048912789
0.0048933114
0.004896411
0.004899337
0.0049006906
0.0049009614
0.0048994142
0.0048991984
0.0048988005
0.0048984451
0.0048971961
0.00489591
0.0048946704
0.0048945091
0.0048924286
0.0048878994
0.004881733
0.0048761008
0.0048696074
0.0048645446
0.0048619951
0.0048735621
0.0048737784
0.0048738991
0.0048740221
0.0048742184
0.004874497
0.0048748482
0.0048753178
0.0048758841
0.0048767699
0.0048780284
0.0048792794
0.0048805473
0.0048811694
0.0048820952
0.0048832188
0.0048852991
0.0048862684
0.0048881897
0.0048891527
0.0048896391
0.0048895193
0.004885948
0.0048828637
0.0048829823
0.0048789731
0.0048750203
0.0048707228
0.004866547
0.0048620861
0.0048581461
0.0048663187
0.0048664691
0.0048666026
0.0048667679
0.0048669845
0.004867246
0.0048675146
0.0048676307
0.004867719
0.004867981
0.0048687076
0.004869966
0.0048708696
0.0048709915
0.0048709279
0.004870974
0.0048712132
0.0048715147
0.0048722266
0.0048729966
0.0048745058
0.0048732044
0.0048756912
0.0048741242
0.0048738381
0.0048725868
0.0048707901
0.0048681379
0.0048624767
0.0048585335
0.0048585978
0.0048595389
0.0048596609
0.0048598161
0.0048600278
0.0048603214
0.0048607178
0.0048612417
0.004861917
0.0048627496
0.0048636926
0.0048646248
0.0048659366
0.0048666076
0.0048670086
0.0048668407
0.0048666501
0.0048664552
0.0048663196
0.0048662523
0.0048662877
0.0048682415
0.0048671947
0.0048676441
0.0048695782
0.0048689085
0.0048684661
0.004867443
0.0048645062
0.0048625365
0.0048617084
0.0048599982
0.00084434745
0.0018311209
0.003688563
0.0064960278
0.010225544
0.014967943
0.020819002
0.027834785
0.036141785
0.0451584
0.055055828
0.065391267
0.075378276
0.083780787
0.08873588
0.087602951
0.077114399
0.056199304
0.031816673
0.015536096
0.0092307674
0.0072878027
0.0064582346
0.0059346418
0.0055900658
0.0053487496
0.0051992286
0.0050995849
0.0050323508
0.0049865041
0.0049628795
0.0020656866
0.004192401
0.0070384606
0.010440426
0.014594246
0.019632496
0.025625799
0.032898528
0.040968165
0.049923898
0.059625913
0.069563744
0.078897902
0.086328403
0.08993379
0.087046673
0.074521913
0.052138352
0.028034292
0.013810931
0.0087334207
0.007133315
0.0063890277
0.0058959208
0.0055684656
0.0053367916
0.0051928898
0.0050961712
0.0050303699
0.0049853559
0.004962244
0.0038666296
0.0062025564
0.0090801887
0.012681056
0.017154025
0.02259665
0.029118797
0.036616848
0.044909212
0.054000593
0.063623301
0.073235767
0.081960337
0.088446494
0.090728472
0.086134793
0.07171027
0.048254441
0.025119653
0.012653978
0.0083901858
0.0070644373
0.0063560293
0.0058770398
0.0055578551
0.0053306963
0.0051893256
0.0050940993
0.0050289524
0.0049844037
0.0049615804
0.0056629864
0.0082179451
0.0114483
0.015447262
0.020262536
0.026012596
0.032814221
0.040359023
0.04876631
0.05788112
0.067357589
0.076606689
0.084698638
0.090228816
0.091191954
0.084928653
0.068727466
0.044544702
0.022575476
0.011602735
0.0081825551
0.0069767314
0.0063050128
0.0058469985
0.0055407339
0.0053209985
0.0051840342
0.0050911639
0.0050271723
0.004983322
0.0049608995
0.0074019824
0.010315648
0.01389857
0.018203821
0.023325147
0.029392227
0.036275705
0.04400122
0.052515775
0.061607793
0.070892711
0.079739949
0.087169334
0.091725547
0.091370552
0.083472505
0.065618813
0.040987659
0.02032767
0.01088582
0.0079831084
0.0069141036
0.0062707187
0.0058271923
0.0055295281
0.0053146273
0.0051803393
0.005088998
0.0050257128
0.0049823483
0.0049601871
0.0092539788
0.01247202
0.01633191
0.020911033
0.026372913
0.032657441
0.039718981
0.047598824
0.056173702
0.065197917
0.074251813
0.08266283
0.089402491
0.092969298
0.091299296
0.081798192
0.062432269
0.037592024
0.018364481
0.010203179
0.0078443015
0.0068486381
0.0062293766
0.0058025543
0.0055152979
0.0053065405
0.0051757933
0.0050863965
0.0050240692
0.0049813065
0.0049594419
0.011048007
0.014553305
0.01871348
0.023627218
0.029360023
0.035841024
0.043111387
0.051121966
0.059725276
0.068649629
0.077441922
0.085389279
0.091418238
0.093986015
0.091008726
0.079947152
0.059214284
0.034411594
0.016692178
0.0097287123
0.0077178355
0.0067940472
0.0061967953
0.005783608
0.0055043917
0.0053004037
0.0051721881
0.0050842437
0.005022615
0.0049803268
0.004958677
0.012785502
0.016609097
0.021083833
0.026345021
0.032290708
0.038993801
0.046442344
0.054555039
0.063160607
0.071959667
0.0804663
0.087929402
0.093233866
0.094800285
0.090529384
0.077955476
0.056003519
0.0314846
0.015325035
0.0093339114
0.0076207475
0.0067410753
0.0061622247
0.0057629685
0.0054922435
0.0052935664
0.0051682141
0.0050818933
0.005021078
0.004979314
0.0049579052
0.014520423
0.018643221
0.023437987
0.028967575
0.035157503
0.042078866
0.049688979
0.057884471
0.066471697
0.075125125
0.083327888
0.090292965
0.094866918
0.095438667
0.089901064
0.075863323
0.052855617
0.028844245
0.014187269
0.0090522896
0.0075328888
0.0066940863
0.0061327645
0.0057457637
0.0054820645
0.0052879423
0.0051648236
0.0050798168
0.0050196595
0.0049783388
0.004957128
0.016197774
0.02062558
0.025745471
0.03150979
0.037955865
0.045085697
0.052840995
0.061101374
0.069652541
0.078144326
0.086030681
0.092490878
0.096336474
0.095928372
0.089164331
0.073728004
0.0498121
0.026507441
0.013299702
0.0088252169
0.0074597967
0.0066499243
0.0061035672
0.00572839
0.0054715351
0.0052821451
0.0051613235
0.0050776712
0.0050182138
0.0049773502
0.0049563466
0.017860184
0.02258428
0.027985286
0.033994942
0.04068599
0.048005627
0.055888861
0.064197796
0.072698342
0.081016959
0.088580179
0.094535758
0.097663656
0.096298993
0.088352955
0.071590872
0.046910357
0.024480162
0.012550894
0.0086494465
0.0073940235
0.006610025
0.0060778007
0.0057133247
0.0054622709
0.0052771613
0.0051582166
0.0050757057
0.0050168487
0.0049763863
0.0049555612
0.019479173
0.024501265
0.030150201
0.036417126
0.043334681
0.050826783
0.058823294
0.067166676
0.075605482
0.083744119
0.090983548
0.096441831
0.098869618
0.096582554
0.087501749
0.069491038
0.044194704
0.02275919
0.01198329
0.0085087896
0.0073371696
0.0065732593
0.0060532758
0.0056988093
0.0054531034
0.0052722658
0.0051551402
0.0050737401
0.005015487
0.00497542
0.0049547721
0.021073943
0.026367774
0.032259136
0.038767289
0.045880537
0.053538902
0.061635328
0.070002097
0.07837169
0.086328389
0.093249532
0.098224633
0.099976025
0.096803563
0.086644761
0.067469423
0.041695928
0.021325681
0.01153658
0.0083979253
0.0072862644
0.0065401205
0.006031395
0.0056860163
0.0054448412
0.0052679562
0.0051523585
0.0050719055
0.0050141857
0.0049744719
0.0049539796
0.022640797
0.028178971
0.034307664
0.041035706
0.048319682
0.056136217
0.064316729
0.072698314
0.080996359
0.08877491
0.095388356
0.099901319
0.10100598
0.096991713
0.085814987
0.065556195
0.039437806
0.020159724
0.011219085
0.0083090165
0.0072418382
0.0065101909
0.0060111733
0.0056740815
0.0054369059
0.0052638518
0.0051496845
0.0050701086
0.0050129043
0.0049735273
0.004953184
0.024181766
0.029938114
0.036288065
0.043217818
0.050677683
0.058585683
0.066862847
0.075253235
0.08347892
0.09108916
0.09740802
0.10148603
0.10198561
0.097183772
0.085056994
0.063774423
0.037435238
0.019241085
0.010991341
0.008239022
0.0072026981
0.0064836428
0.0059932297
0.0056635363
0.005429699
0.0052601944
0.0051472551
0.0050684179
0.0050116736
0.0049725985
0.0049523844
0.025678648
0.031641101
0.038191077
0.045300368
0.052912817
0.060938498
0.069242469
0.077653976
0.085812485
0.093262636
0.099317432
0.10299461
0.10293827
0.097411862
0.084411813
0.062153761
0.035697113
0.018558403
0.010823526
0.0081812827
0.0071690541
0.0064603072
0.0059771261
0.0056539468
0.0054229406
0.0052567829
0.0051449743
0.0050667861
0.0050104732
0.0049716788
0.0049515793
0.027082446
0.033246239
0.039983077
0.047256305
0.055002979
0.063128172
0.071481045
0.079861841
0.087965553
0.095297239
0.10111624
0.10444069
0.10388497
0.097705784
0.083916692
0.060758215
0.034269037
0.017981101
0.010650849
0.0081316526
0.0071404087
0.0064402303
0.005963129
0.0056455339
0.0054168278
0.005253729
0.0051429099
0.0050652495
0.0050093183
0.0049707733
0.0049507687
0.028368049
0.034696989
0.041596199
0.049018068
0.05689474
0.065119478
0.073538621
0.081933338
0.089974479
0.097163321
0.1027993
0.10583508
0.10484523
0.098092364
0.083603755
0.059641511
0.033125947
0.017500066
0.010505026
0.0080921174
0.0071167882
0.0064233192
0.0059510413
0.0056380749
0.005411229
0.0052509276
0.0051410119
0.0050637854
0.0050081983
0.0049698787
0.004949953
0.029716551
0.036122164
0.043109151
0.0506277
0.058596826
0.066902275
0.07538114
0.083802926
0.091823729
0.09893246
0.10440062
0.10716078
0.1058338
0.098594833
0.083500258
0.058841025
0.032247644
0.017095614
0.010371235
0.0080611232
0.0070979707
0.0064095715
0.0059409775
0.0056316573
0.0054062409
0.0052484307
0.0051393123
0.0050624139
0.0050071218
0.0049689982
0.0049491325
0.031058606
0.037514316
0.044546715
0.052114101
0.060135626
0.068493462
0.077017355
0.085467038
0.093484352
0.10054651
0.10590557
0.10848862
0.10686809
0.099201079
0.083627109
0.0583846
0.031622078
0.016752871
0.010252046
0.0080392044
0.0070839807
0.0063989611
0.0059328722
0.0056261882
0.0054018127
0.0052461907
0.0051377854
0.0050611258
0.005006084
0.0049681299
0.0049483078
0.03237216
0.038840807
0.045881461
0.053460682
0.061500194
0.069885913
0.078441514
0.086920642
0.094951388
0.10200232
0.10730615
0.10977663
0.10795767
0.10000018
0.083994038
0.058292753
0.031248851
0.016450723
0.010141203
0.0080259977
0.0070748913
0.0063915514
0.0059268158
0.0056217296
0.0053980007
0.0052442362
0.0051364441
0.005059931
0.0050050881
0.0049672742
0.0049474789
0.033643947
0.04008577
0.047095157
0.054650348
0.062674434
0.071072171
0.079675339
0.08820999
0.096293914
0.10335821
0.10863192
0.11103838
0.10910215
0.10095351
0.084642702
0.058593983
0.031146946
0.016161439
0.010034898
0.0080219068
0.0070709068
0.0063873933
0.0059228028
0.0056182535
0.0053947802
0.0052425403
0.0051352669
0.0050588204
0.0050041279
0.0049664281
0.0049466466
0.034885916
0.041231781
0.048153485
0.055646828
0.06366788
0.072093626
0.080735941
0.089307251
0.097414962
0.1045169
0.10982776
0.11225239
0.11029946
0.10206773
0.08555939
0.059315442
0.031308983
0.015844473
0.0099330789
0.0080248139
0.0070720051
0.0063863825
0.0059207601
0.0056157258
0.0053921318
0.0052410892
0.0051342393
0.0050577888
0.0050031996
0.0049655895
0.0049458101
0.036092401
0.042239652
0.048973559
0.056316735
0.064248595
0.072638088
0.081286162
0.089907693
0.098101945
0.10530286
0.11071862
0.11323849
0.11135139
0.10313178
0.086521648
0.06017454
0.031744721
0.015422874
0.0098306236
0.0080337824
0.0070751264
0.0063873605
0.0059203458
0.0056139578
0.0053899452
0.005239821
0.0051333244
0.0050568227
0.0050022976
0.0049647589
0.0049449691
0.00086537127
0.0017694198
0.0035179922
0.0061736157
0.009716149
0.014174094
0.019697376
0.026397029
0.034435739
0.043262094
0.053047897
0.063374011
0.073493905
0.082236877
0.087793989
0.087561565
0.078205777
0.058121711
0.033508418
0.016084196
0.0093710866
0.0073317961
0.0064815008
0.0059484148
0.0055979782
0.0053534807
0.0052020379
0.0051011889
0.0050334562
0.0049872469
0.0049631868
0.00091772036
0.001815081
0.0035353828
0.0061151005
0.0095609194
0.013945023
0.019383896
0.025975482
0.03387311
0.042610479
0.052246204
0.062449951
0.07254584
0.081366617
0.087139315
0.08729641
0.078541096
0.059012884
0.034408386
0.016456504
0.0094589153
0.0073579746
0.0064965846
0.0059577128
0.0056034306
0.0053565259
0.0052038821
0.0051022854
0.0050342284
0.004987797
0.0049634819
0.00098217657
0.001866031
0.0035610122
0.0060907104
0.0094679605
0.013763349
0.019088383
0.025545648
0.033266985
0.041879211
0.051391681
0.061504044
0.071565979
0.08045764
0.086443162
0.086994785
0.078854736
0.059920834
0.035368026
0.016877073
0.0095556228
0.0073859566
0.0065120188
0.0059669814
0.0056088182
0.0053600518
0.0052060227
0.0051034816
0.0050350813
0.0049883698
0.0049638929
0.0010598211
0.0019216042
0.0035855205
0.0060642972
0.0093716453
0.013577453
0.018788963
0.025113939
0.032657065
0.041136718
0.050519824
0.060531593
0.070553952
0.079508885
0.085703186
0.086653107
0.079141173
0.060842267
0.036387187
0.017345605
0.0096644758
0.0074159853
0.0065291911
0.0059777515
0.0056152385
0.0053632724
0.0052080101
0.0051047173
0.0050359473
0.004988997
0.0049643038
0.0011528876
0.0019866951
0.0036118762
0.0060373869
0.0092742192
0.013389522
0.018486807
0.024671035
0.032043121
0.040384453
0.049631892
0.059535547
0.069510299
0.078520176
0.084918095
0.086268918
0.079397081
0.061780782
0.037465659
0.017862963
0.0097839332
0.0074487033
0.0065457443
0.0059876028
0.0056210451
0.0053674541
0.0052105432
0.0051061138
0.0050369382
0.0049896633
0.0049647044
0.0012668748
0.0020593582
0.0036430967
0.0060131454
0.0091781658
0.013201891
0.01818397
0.024225072
0.031427399
0.039625584
0.048731099
0.058519412
0.068437473
0.077493228
0.084088345
0.08584125
0.079614445
0.062728352
0.038593162
0.018439778
0.0099239694
0.0074839297
0.0065655995
0.0060001187
0.0056285568
0.005371574
0.0052130745
0.0051075836
0.0050379701
0.0049903727
0.0049650284
0.0014060617
0.0021550041
0.0036813644
0.0059922188
0.0090848843
0.013017088
0.017884247
0.023786002
0.03081372
0.038865249
0.047821141
0.057485934
0.067336664
0.076428174
0.083211976
0.085365146
0.079781655
0.063663441
0.039764646
0.019071479
0.010080763
0.0075215776
0.0065848632
0.0060121909
0.0056358915
0.0053759549
0.005215783
0.0051091459
0.0050390627
0.0049911281
0.0049654961
0.0015758837
0.0022659506
0.0037330415
0.0059803807
0.0089991824
0.012839248
0.017591002
0.02335237
0.030208108
0.03810243
0.046903073
0.056435531
0.066205358
0.075323029
0.082284392
0.084831882
0.079905186
0.06458912
0.041019874
0.019768547
0.010257328
0.0075619711
0.006604902
0.0060249088
0.0056436861
0.005380592
0.0052186418
0.005110815
0.0050402275
0.0049919275
0.004966061
0.0017834254
0.0024017949
0.0038026096
0.0059817904
0.0089247782
0.01267216
0.017308523
0.022929965
0.029620738
0.037346284
0.045983845
0.0553756
0.065058224
0.074184923
0.0813113
0.084245446
0.079978333
0.065497233
0.042338895
0.020536727
0.010456349
0.007605627
0.0066255483
0.0060381276
0.0056518492
0.0053854866
0.005221702
0.0051125882
0.0050414535
0.0049927755
0.0049668177
0.00203075
0.0025734854
0.0038940641
0.005998876
0.0088644697
0.012519542
0.017041062
0.022521533
0.02903271
0.036598392
0.045068475
0.05431165
0.063902123
0.073017781
0.080294321
0.083604058
0.079995866
0.066388423
0.043712902
0.021382056
0.010680754
0.0076527015
0.0066468152
0.006052143
0.0056606345
0.0053907126
0.0052249132
0.0051144871
0.0050427665
0.0049936656
0.0049676074
0.0023289252
0.0027896144
0.0040155554
0.0060408308
0.0088258852
0.012387597
0.016794114
0.022132634
0.028468926
0.03586403
0.044162863
0.053248927
0.062727346
0.071824993
0.079235773
0.082906997
0.079953378
0.067250395
0.045140903
0.022312563
0.010933988
0.0077036627
0.0066688321
0.0060665305
0.005669573
0.0053961238
0.0052283494
0.0051165083
0.0050441338
0.0049946114
0.0049683619
0.0026720521
0.0030495314
0.0041812693
0.0061107098
0.0088114674
0.012280414
0.016573229
0.021771255
0.027944216
0.035165479
0.043276802
0.052194714
0.061548543
0.070611681
0.078138843
0.082154492
0.079846259
0.068062304
0.046577252
0.023326603
0.011219812
0.0077591982
0.0066907211
0.0060817993
0.0056794557
0.0054020537
0.0052319391
0.0051186724
0.0050456092
0.0049956014
0.0049691262
0.0030564052
0.0033596693
0.0043864657
0.0062223578
0.0088339359
0.012208001
0.01638709
0.021445517
0.027455083
0.034482223
0.042414614
0.051156435
0.060372767
0.06938289
0.077007509
0.08134773
0.079671141
0.068816216
0.048006762
0.024429877
0.011541993
0.0078193031
0.0067145221
0.0060974319
0.0056890016
0.0054079295
0.0052357552
0.005120987
0.0050471188
0.0049966588
0.0049699697
0.0034724993
0.0037166332
0.0046414199
0.0063778226
0.0088982234
0.012177512
0.016243941
0.021164087
0.027007986
0.033827803
0.041582358
0.050142183
0.059207451
0.068136631
0.075846341
0.080488938
0.07942587
0.069503709
0.049441609
0.025623123
0.011906267
0.0078852717
0.006736074
0.0061133995
0.0056999212
0.0054146998
0.0052397522
0.0051234489
0.0050487686
0.0049977595
0.0049708747
0.0039055869
0.0041217058
0.0049657801
0.006603369
0.0090263474
0.012206383
0.016158954
0.020938656
0.026617237
0.033245974
0.040819788
0.049167959
0.058065081
0.066914206
0.074664834
0.079581841
0.079109346
0.070116058
0.050868483
0.026909654
0.012315981
0.0079589576
0.0067623206
0.0061305648
0.0057099677
0.0054209917
0.0052439467
0.005126116
0.0050504201
0.0049989384
0.0049718253
0.0043460111
0.0045656305
0.0053594498
0.0069081777
0.0092355318
0.012313262
0.016149032
0.020785403
0.026292601
0.032727028
0.040078453
0.048234877
0.056954605
0.065702826
0.0734702
0.078631366
0.078721691
0.070644805
0.052279648
0.028269084
0.012777648
0.0080360235
0.0067836173
0.0061460276
0.0057213728
0.0054286464
0.0052483867
0.0051288987
0.0050522538
0.0050001544
0.0049728136
0.004783159
0.0050342674
0.0058070121
0.007289392
0.0095298717
0.012508271
0.016227144
0.02071924
0.026047537
0.032282014
0.03940154
0.047357761
0.055885858
0.064502184
0.072269517
0.077643656
0.078264975
0.071083286
0.05366818
0.029744902
0.013297585
0.0081338356
0.0068106754
0.0061646654
0.0057322186
0.0054355349
0.0052530084
0.0051319898
0.0050540523
0.0050014541
0.0049738376
0.0052459752
0.0055661811
0.0063599363
0.0078075059
0.0099612727
0.012831745
0.016423287
0.02076321
0.025901509
0.031931669
0.038833443
0.046574361
0.054876034
0.063335376
0.07107286
0.076626264
0.077743847
0.071433233
0.055031651
0.031303739
0.013879769
0.0082305658
0.0068357903
0.0061791834
0.0057427965
0.0054437342
0.0052578863
0.0051350909
0.0050560666
0.0050027867
0.0049748962
0.0057726646
0.0061807523
0.0070242345
0.0084525553
0.010535453
0.013299135
0.016756053
0.020934997
0.025871893
0.031688971
0.038356536
0.045830763
0.053925196
0.062211761
0.069889336
0.075587284
0.077162186
0.071699533
0.056358139
0.032874768
0.014522985
0.008364782
0.0068581707
0.0061968095
0.0057551324
0.0054519865
0.0052631251
0.0051386676
0.0050580344
0.0050042032
0.0049759879
0.006447247
0.0069462158
0.0078422512
0.0092605145
0.011287875
0.013932599
0.017241575
0.02124732
0.025972013
0.031564852
0.037984982
0.045192563
0.053047527
0.061139397
0.068718048
0.074532939
0.07652309
0.071870029
0.057604156
0.034506762
0.015258741
0.0085012715
0.0068905472
0.0062132856
0.0057636247
0.0054598025
0.0052683071
0.0051420597
0.005060204
0.005005657
0.0049771088
0.0073557907
0.0079262852
0.0088585278
0.010259489
0.012205039
0.014726622
0.017879926
0.021701872
0.026208467
0.031565202
0.037728716
0.044672597
0.052274373
0.060135399
0.067605386
0.0734763
0.075832796
0.071946183
0.058764101
0.036212907
0.016046435
0.0086483447
0.0069129103