/*--------------------------------*- C++ -*----------------------------------*\
| =========                 |                                                 |
| \\      /  F ield         | OpenFOAM: The Open Source CFD Toolbox           |
|  \\    /   O peration     | Version:  2406                                  |
|   \\  /    A nd           | Website:  www.openfoam.com                      |
|    \\/     M anipulation  |                                                 |
\*---------------------------------------------------------------------------*/
FoamFile
{
    version     2.0;
    format      ascii;
    arch        "LSB;label=32;scalar=64";
    class       volScalarField;
    location    "0.058";
    object      nut;
}
// * * * * * * * * * * * * * * * * * * * * * * * * * * * * * * * * * * * * * //

dimensions      [0 2 -1 0 0 0 0];

internalField   nonuniform List<scalar> 
8260
(
0.033342522
0.037840532
0.043117073
0.049084642
0.05560248
0.062520041
0.069649818
0.076741395
0.083457165
0.089315552
0.093637036
0.095486799
0.093600459
0.086400907
0.072186185
0.050182022
0.026467232
0.012452408
0.0080957895
0.0066905471
0.0058891167
0.0053148025
0.0049248105
0.0046687198
0.0044819386
0.0043576021
0.0042691368
0.004205299
0.0041598417
0.004128579
0.0041118992
0.039415522
0.044041015
0.049120622
0.054716119
0.060786363
0.067217721
0.073833522
0.08038302
0.086522958
0.091764756
0.095404907
0.096489957
0.093740669
0.085588912
0.070382535
0.04779554
0.024194777
0.01171641
0.0078657316
0.0066003142
0.0058360009
0.0052825965
0.0049067137
0.0046575503
0.004474871
0.0043537474
0.0042669193
0.0042038621
0.0041588982
0.0041279379
0.0041114591
0.046387163
0.050836223
0.055664674
0.060903382
0.066525257
0.07243918
0.078484056
0.084416016
0.089888113
0.094402211
0.097241869
0.09743371
0.093684556
0.08444281
0.068136557
0.044899893
0.021959116
0.010956532
0.0077064735
0.0065521982
0.005807745
0.005265631
0.0048972072
0.0046514834
0.0044709421
0.0043516117
0.0042656826
0.0042029502
0.004158184
0.0041273643
0.004110976
0.054338718
0.058427607
0.062886963
0.067696943
0.072816972
0.078156467
0.083559655
0.088786295
0.093485872
0.09715074
0.099054102
0.098204982
0.093299141
0.082811922
0.065293628
0.041425866
0.019645419
0.01029331
0.0075634671
0.0064763924
0.0057593114
0.0052362692
0.0048804898
0.0046404499
0.0044637569
0.0043476254
0.0042633437
0.0042013708
0.0041570971
0.0041265896
0.0041104264
0.063264457
0.066855977
0.070841613
0.075125589
0.0796557
0.084334433
0.089002726
0.093417568
0.097222033
0.099898609
0.10070994
0.098650343
0.092410085
0.080506071
0.061669474
0.037302824
0.01731457
0.0096525882
0.0074072978
0.0064071913
0.0057165719
0.0052109513
0.0048665736
0.0046311675
0.0044578389
0.0043443353
0.0042614107
0.0041999966
0.0041560711
0.0041257987
0.0041098008
0.072994861
0.076031473
0.0794476
0.083106124
0.08694522
0.090858828
0.09468026
0.098158731
0.10092737
0.10245725
0.10200019
0.098538808
0.090767502
0.077266153
0.057033622
0.032497063
0.015224001
0.0090617445
0.0072549449
0.0063221844
0.0056611609
0.0051773689
0.0048476938
0.0046183177
0.0044495783
0.0043396768
0.0042586491
0.0041981107
0.0041547379
0.0041248229
0.0041090879
0.083226435
0.085674003
0.088446944
0.091392745
0.094441813
0.09747987
0.10033112
0.10273439
0.10431052
0.10451776
0.10259719
0.097523779
0.088013028
0.072739322
0.051109065
0.027081362
0.013249033
0.0085303347
0.007095161
0.006235852
0.0056066322
0.0051449148
0.0048299543
0.004605992
0.0044418431
0.0043352545
0.0042560114
0.004196253
0.0041533639
0.0041237717
0.0041082764
0.093459714
0.095292174
0.097363373
0.099521809
0.10168963
0.10374366
0.10549799
0.10667968
0.10689622
0.10559271
0.10200069
0.095093912
0.083640096
0.066455534
0.043607289
0.021352037
0.011446331
0.0081276815
0.006933653
0.0061359405
0.0055424104
0.0051059101
0.0048080321
0.004590613
0.0044321553
0.0043296185
0.0042526149
0.0041939169
0.0041516832
0.0041225182
0.0041073532
0.10290038
0.10409585
0.10541666
0.1067237
0.10792892
0.10889821
0.10943385
0.10924977
0.10793957
0.10493637
0.09946558
0.090509707
0.076948374
0.057821512
0.034383938
0.016749305
0.0099573893
0.0077828105
0.0067601606
0.0060308678
0.005477594
0.0050673097
0.0047864356
0.0045752092
0.0044227108
0.0043239484
0.0042491511
0.0041914847
0.0041498814
0.0041211328
0.0041063042
0.11030405
0.11085245
0.11138488
0.11178954
0.11196566
0.11176579
0.11097763
0.10929992
0.10631277
0.10144125
0.093912649
0.082731735
0.067004114
0.046205337
0.02395276
0.013061751
0.0088087983
0.007481369
0.0065807272
0.0059140188
0.0054040451
0.0050234955
0.0047607016
0.0045569277
0.0044115636
0.0043170586
0.004244865
0.0041885349
0.0041477322
0.0041195026
0.0041051109
0.11380047
0.11370341
0.11343281
0.11290831
0.11201455
0.11058908
0.10840286
0.10513886
0.10036767
0.093517884
0.083838954
0.070367123
0.052709955
0.031318511
0.016514548
0.010415191
0.0081476291
0.0071999615
0.0063909648
0.0057944214
0.005328781
0.004980299
0.0047346161
0.0045383321
0.0044005988
0.0043099038
0.0042403366
0.0041853721
0.0041453786
0.0041176781
0.0041037492
0.11064834
0.10989661
0.10884284
0.10740799
0.10545719
0.10280811
0.099213083
0.094343742
0.087777065
0.078980098
0.067288723
0.051697593
0.033260241
0.019140188
0.01181487
0.0086855181
0.0077172151
0.0068911179
0.0062084322
0.0056677528
0.0052436549
0.0049340007
0.0047040144
0.0045168404
0.0043879741
0.0043013606
0.0042349058
0.0041816128
0.0041426118
0.0041155562
0.004101882
0.096983033
0.095682131
0.093929537
0.091649387
0.088700012
0.08488708
0.07994695
0.073566371
0.065391326
0.055059046
0.042508164
0.030267343
0.019502876
0.012425668
0.0091370333
0.0080008492
0.0072827403
0.0066236087
0.0060029933
0.0055439119
0.005164521
0.0048847573
0.004673042
0.0044954687
0.0043753084
0.0042923589
0.0042292175
0.004177554
0.0041395677
0.0041131859
0.0040996149
0.068298492
0.066491404
0.064279414
0.061691486
0.058604847
0.054866373
0.050314996
0.044892592
0.038567918
0.03140314
0.023808231
0.016881272
0.011899124
0.0092092866
0.0080154922
0.0074213673
0.0068872738
0.0062774759
0.0058070318
0.0054053447
0.0050796817
0.0048379916
0.0046371687
0.0044714175
0.0043606968
0.0042820197
0.0042226756
0.0041728498
0.0041360538
0.0041104687
0.0040971032
0.038475964
0.037319284
0.035891667
0.034192711
0.032105563
0.029577486
0.026776385
0.02366482
0.020258675
0.016646379
0.01313472
0.010325692
0.0086358838
0.0078526678
0.0075195744
0.0069950768
0.0064686037
0.0060214779
0.0056031486
0.0052837931
0.0049962062
0.004785245
0.0046044178
0.004447822
0.0043458814
0.0042715583
0.0042159296
0.0041678449
0.0041322044
0.0041074493
0.0040943899
0.019045852
0.018634879
0.018026457
0.017254581
0.016294872
0.015149128
0.013875745
0.012504542
0.011081816
0.0096996828
0.0084866203
0.0076951583
0.0072879402
0.0073373589
0.0067824082
0.0063622921
0.006049828
0.005661949
0.0054042294
0.0051342942
0.0049103886
0.00473388
0.0045657721
0.0044217884
0.0043296053
0.0042607399
0.0042079533
0.0041621325
0.0041278099
0.0041040247
0.0040915715
0.010115388
0.010017513
0.0098147211
0.0095316301
0.0091813916
0.0087834142
0.0083584848
0.0079075171
0.0074201294
0.0070365857
0.0068559597
0.0067420961
0.0068123727
0.0064323069
0.0063067463
0.0060710526
0.0056715661
0.0054495449
0.0052307683
0.0050172607
0.0048105961
0.0046698491
0.004530774
0.0043965762
0.0043139247
0.004249313
0.0041999788
0.0041561004
0.0041228895
0.0041002529
0.0040882815
0.0068521695
0.0068288141
0.0067675446
0.0066822257
0.0065740226
0.0064572508
0.0063546906
0.0062630088
0.0062127489
0.0062077999
0.0062796839
0.0061997526
0.0058438504
0.0058028864
0.0057048387
0.0055030258
0.0054044304
0.0051742548
0.0050474319
0.0048562178
0.0047106559
0.0046074371
0.004481268
0.0043681861
0.0042971313
0.0042372105
0.0041905228
0.0041488299
0.0041175131
0.0040960189
0.004084568
0.0057882537
0.0057498423
0.0057257942
0.0057127907
0.005710815
0.0057102255
0.0057272788
0.0057018953
0.0056744904
0.0056584703
0.0055657466
0.0054705512
0.0054810958
0.0053105952
0.0052354758
0.0052292382
0.0050632264
0.0049336982
0.0048342014
0.0047330055
0.0045968497
0.0045324275
0.0044340511
0.0043372615
0.0042813868
0.0042243104
0.0041797435
0.0041415644
0.0041115272
0.0040913539
0.0040805219
0.0053087393
0.0053057731
0.0053004132
0.0052991195
0.0053119664
0.00532988
0.0053099416
0.0052959627
0.0052546623
0.0051621528
0.0051052091
0.0050743359
0.0049568059
0.0049978479
0.0049331385
0.0048782394
0.0048545698
0.0047980131
0.0046932185
0.004565635
0.0045060542
0.0044713257
0.0043743701
0.0043041102
0.0042607487
0.0042101145
0.0041678874
0.0041325268
0.0041050622
0.0040861717
0.0040761719
0.0049571968
0.0049532787
0.004945655
0.0049267941
0.0048963092
0.0048505315
0.004857375
0.0048499591
0.0048382475
0.0048257569
0.0048144533
0.0047913339
0.0047758046
0.0047214402
0.0047416263
0.0047080694
0.0046000919
0.0045593418
0.0045233358
0.0044727872
0.0044241271
0.0043831331
0.0043334677
0.0042755622
0.0042357278
0.0041935188
0.004155907
0.004123549
0.0040979288
0.0040805671
0.0040713912
0.004619218
0.0046201438
0.0046184654
0.0046142201
0.0046115432
0.0046229937
0.0046314866
0.0046228617
0.004614802
0.0045985252
0.0045907244
0.004589032
0.0045851542
0.0045433562
0.0045288897
0.0044609709
0.0044703325
0.0044124795
0.0044079808
0.0043604285
0.0043358819
0.0043174277
0.0042814817
0.0042456103
0.0042085004
0.0041760788
0.0041410509
0.0041125842
0.0040902979
0.0040745259
0.0040666068
0.0044380876
0.0044382554
0.0044363648
0.0044320004
0.0044249845
0.0044129917
0.0043991541
0.0043936625
0.0043906487
0.00438828
0.0043854994
0.0043781271
0.0043820115
0.0044024603
0.0043811887
0.0043470418
0.0043457169
0.0043259553
0.0042904656
0.0042707714
0.0042764304
0.0042427127
0.0042299637
0.0042142715
0.0041828934
0.0041547734
0.0041256443
0.0041020195
0.0040818027
0.0040683056
0.0040611267
0.00426868
0.0042698584
0.0042696449
0.0042685617
0.0042674352
0.0042665713
0.0042668105
0.0042704129
0.0042754123
0.0042778086
0.0042802608
0.0042801107
0.0042708588
0.0042546083
0.0042552068
0.0042627764
0.0042381507
0.0042105277
0.0042173984
0.0042152933
0.0042122969
0.0041965607
0.004181603
0.0041764076
0.00415247
0.0041311632
0.0041060575
0.0040894285
0.0040732531
0.0040619748
0.0040563227
0.0041842987
0.0041859963
0.00418646
0.0041860292
0.0041850362
0.0041835549
0.0041815352
0.0041785561
0.0041759611
0.0041764158
0.004178538
0.0041804011
0.0041829095
0.004191543
0.0041883538
0.0041735174
0.0041830174
0.0041702884
0.0041754888
0.0041878883
0.0041795024
0.0041661617
0.0041516393
0.0041318119
0.0041167651
0.0041064941
0.0040887519
0.0040779737
0.0040647571
0.0040558276
0.0040506199
0.004109539
0.004110349
0.0041105944
0.0041106092
0.0041107925
0.0041112985
0.0041121549
0.0041131095
0.004114799
0.0041181818
0.0041215882
0.0041239163
0.0041234057
0.0041173559
0.0041145231
0.0041156695
0.0041140635
0.0041308209
0.0041247495
0.0041256138
0.0041197037
0.0041167265
0.004110627
0.0040958889
0.0040900383
0.0040821221
0.0040746191
0.00406452
0.0040574763
0.0040500781
0.0040457576
0.0040782189
0.0040790286
0.0040793487
0.0040793688
0.0040792758
0.0040790656
0.0040787618
0.0040787501
0.0040788109
0.00407867
0.0040784027
0.0040786438
0.0040801289
0.0040808581
0.0040822021
0.0040830891
0.0040827188
0.0040860557
0.0040843048
0.0040829585
0.0040806952
0.0040784033
0.0040790687
0.004077786
0.004073173
0.0040686884
0.0040658736
0.0040573138
0.0040506659
0.0040452868
0.0040420896
0.0040574128
0.0040577487
0.0040578802
0.0040579481
0.0040580681
0.0040582639
0.0040585468
0.0040589846
0.0040595451
0.004060226
0.0040612475
0.0040629807
0.0040656053
0.0040680914
0.0040692791
0.0040695784
0.0040683808
0.0040683111
0.0040681098
0.0040679741
0.0040671415
0.0040662055
0.0040653625
0.0040655646
0.0040641871
0.0040607269
0.0040558872
0.0040514806
0.0040463238
0.004042306
0.0040403026
0.0040465608
0.0040467484
0.004046858
0.0040469704
0.0040471451
0.0040473898
0.0040476968
0.0040481046
0.0040485955
0.004049355
0.0040504281
0.0040515002
0.0040525933
0.0040531598
0.0040539904
0.0040549989
0.004056815
0.0040577213
0.004059442
0.0040603793
0.0040609408
0.0040610814
0.0040582957
0.0040558595
0.0040561927
0.0040531276
0.0040501034
0.004046782
0.0040435378
0.0040400133
0.0040368501
0.0040408542
0.0040409875
0.0040411081
0.0040412563
0.0040414486
0.0040416803
0.0040419199
0.0040420355
0.0040421308
0.0040423737
0.004043006
0.0040440844
0.0040448735
0.0040450192
0.0040450161
0.0040451117
0.0040453771
0.004045706
0.0040463873
0.0040471317
0.0040485025
0.0040475414
0.0040497769
0.0040486183
0.0040485056
0.0040476856
0.00404642
0.0040444387
0.0040399414
0.0040368341
0.0040369887
0.0040356352
0.0040357396
0.0040358722
0.004036052
0.0040363002
0.0040366343
0.0040370753
0.0040376431
0.0040383427
0.0040391357
0.0040399217
0.0040410257
0.0040416
0.0040419535
0.0040418402
0.0040417137
0.0040415912
0.0040415275
0.0040415309
0.0040416306
0.0040433379
0.004042566
0.00404304
0.0040447978
0.004044423
0.0040442226
0.0040435622
0.0040413185
0.0040398693
0.0040393374
0.0040380132
0.00071038875
0.0015401449
0.0031013454
0.0054601726
0.0085928751
0.012575158
0.017485707
0.023369395
0.030330457
0.037876945
0.0461496
0.054774603
0.063091584
0.07006717
0.074148311
0.073134379
0.064326026
0.046840732
0.026507974
0.01294089
0.0076872614
0.0060678686
0.005376059
0.004939335
0.0046518615
0.0044505078
0.0043256645
0.0042424283
0.0041862359
0.0041479311
0.0041281671
0.0017366911
0.0035238329
0.0059152837
0.0087733146
0.012262107
0.016491868
0.021519853
0.027616082
0.034373204
0.041863353
0.049966705
0.05825331
0.066019255
0.072179098
0.075131574
0.072655714
0.062152534
0.043452142
0.023356474
0.01150366
0.0072728996
0.0059390888
0.0053183311
0.0049070187
0.0046338176
0.004440503
0.004320346
0.0042395511
0.004184556
0.0041469472
0.0041276104
0.0032512357
0.0052149187
0.0076338106
0.01065953
0.01441619
0.018984453
0.024454505
0.030736693
0.037676921
0.045276395
0.053308402
0.061317653
0.068569193
0.073936572
0.075781873
0.07188377
0.05979824
0.040212063
0.020927514
0.010539672
0.0069868522
0.0058815733
0.0052907363
0.0048912096
0.0046249153
0.0044353738
0.0043173339
0.0042377887
0.0041833436
0.0041461255
0.0041270306
0.0047633484
0.0069116781
0.009627347
0.01298754
0.017031221
0.021856439
0.027559048
0.03387762
0.040910641
0.048525525
0.056430463
0.064131033
0.070849443
0.075415022
0.076156727
0.070867704
0.057303161
0.03711782
0.018807137
0.0096637809
0.0068137404
0.0058083884
0.0052481472
0.0048661141
0.004610596
0.0044272474
0.0043128851
0.004235308
0.0041818295
0.004145196
0.0041264369
0.0062292528
0.0086798499
0.011692287
0.015309681
0.019609529
0.024699158
0.030467703
0.036934614
0.044053555
0.051644868
0.059384792
0.066744672
0.072905305
0.076654486
0.076293564
0.069642782
0.05470454
0.034151576
0.016933847
0.0090663895
0.0066474469
0.0057560842
0.0052194783
0.0048495369
0.0046011987
0.0044218885
0.004309764
0.004233467
0.0041805817
0.0041443561
0.0041258169
0.0077926487
0.010499884
0.013745231
0.017592046
0.022176485
0.027446285
0.033361124
0.03995377
0.047118949
0.054648833
0.062190725
0.069181361
0.074761893
0.077682233
0.076221926
0.068235942
0.05204268
0.031320591
0.015297836
0.0084975746
0.0065316529
0.0057014212
0.0051849452
0.0048289394
0.0045892852
0.004415102
0.0043059346
0.0042312634
0.0041791805
0.0041434594
0.0041251691
0.0093103273
0.012259425
0.015756706
0.019883443
0.024693348
0.030125187
0.03621175
0.042909953
0.050094429
0.057535989
0.06485436
0.071453053
0.076436368
0.07852032
0.075968087
0.066682925
0.049355279
0.02866937
0.013904275
0.0081021571
0.0064261383
0.0056558145
0.0051577055
0.0048130793
0.0045801377
0.0044099379
0.0043028877
0.0042294327
0.0041779367
0.004142614
0.0041245047
0.010782524
0.013999219
0.017760016
0.022177065
0.027163147
0.032778169
0.039010363
0.045789857
0.052971606
0.060303596
0.067378501
0.073568334
0.077943353
0.079189355
0.075557872
0.06501347
0.046673952
0.026229631
0.012765011
0.0077731008
0.0063450894
0.005611559
0.0051288121
0.004795811
0.004569957
0.004404191
0.0042995339
0.0042274376
0.0041766238
0.004141741
0.0041238345
0.012253838
0.01572172
0.019750393
0.024390818
0.029579064
0.035373759
0.041737407
0.048581872
0.055743653
0.062949183
0.069765641
0.07553545
0.079297534
0.079710907
0.075023302
0.063261017
0.044046009
0.024028893
0.01181688
0.0075383085
0.0062717291
0.0055722871
0.0051041738
0.0047814017
0.0045614152
0.0043994536
0.0042966655
0.0042256701
0.0041754092
0.0041408991
0.0041231596
0.013676989
0.0174006
0.021701346
0.026536382
0.031936526
0.037902591
0.044383868
0.051278318
0.058405426
0.065471332
0.072019177
0.077363591
0.080514736
0.080107877
0.074398727
0.061473429
0.041506122
0.02208118
0.011077195
0.0073489502
0.006210668
0.0055353716
0.0050797561
0.0047668529
0.0045525823
0.0043945722
0.0042937059
0.004223845
0.0041741719
0.0041400459
0.004122481
0.015087109
0.019058992
0.023593858
0.028632288
0.034234994
0.040356874
0.046941336
0.053872297
0.060952821
0.067869786
0.074143753
0.079063239
0.081612115
0.080405352
0.073713056
0.059685066
0.039085196
0.020391459
0.010453122
0.0072023195
0.0061557049
0.0055020074
0.0050581955
0.004754226
0.0045448026
0.0043903677
0.0042910734
0.0042221697
0.0041730016
0.0041392132
0.0041217991
0.016458405
0.020679656
0.025420835
0.030673147
0.036463216
0.042725955
0.049401524
0.056357603
0.063382665
0.07014536
0.076145185
0.080645963
0.082607576
0.080632054
0.072995295
0.057928323
0.036819917
0.018957042
0.0099799996
0.0070849338
0.0061081719
0.0054712546
0.00503767
0.0047420575
0.0045371039
0.004386237
0.0042884663
0.0042204944
0.0041718339
0.0041383783
0.004121114
0.017805638
0.022254079
0.027197277
0.032650156
0.038601843
0.045001019
0.051756889
0.058728737
0.065692552
0.072299691
0.078030179
0.082124484
0.08352198
0.080808789
0.072272523
0.056237507
0.034735769
0.017762201
0.0096075858
0.006992361
0.0060655957
0.0054435236
0.0050193471
0.0047313234
0.0045301589
0.004382594
0.0042861046
0.004218928
0.0041707165
0.0041375585
0.0041204259
0.019124923
0.023777265
0.028918508
0.034554379
0.040647148
0.047176434
0.053999676
0.06098038
0.067880979
0.074336365
0.079807609
0.083516631
0.08437425
0.080957431
0.071573043
0.054638041
0.032852416
0.016790312
0.009342798
0.0069180746
0.0060284177
0.0054184666
0.0050024066
0.0047213045
0.0045234866
0.0043791221
0.0042838327
0.004217393
0.0041696156
0.0041367415
0.0041197352
0.020420004
0.025253173
0.030578248
0.036381598
0.042619947
0.049223517
0.05612516
0.063111235
0.06994923
0.076263279
0.081489393
0.084833785
0.085182849
0.081109395
0.070934241
0.053148472
0.031182189
0.016024477
0.0091527643
0.006859542
0.0059956445
0.0053962268
0.004987364
0.004712443
0.004517421
0.0043760225
0.0042817645
0.0042159464
0.0041685569
0.0041359377
0.0041190411
0.021676891
0.026681052
0.032171404
0.038122744
0.044486804
0.051187282
0.058110077
0.065114456
0.071897503
0.078076108
0.083076948
0.086084078
0.085968588
0.081291752
0.070389969
0.051793314
0.029732486
0.0154552
0.0090126441
0.0068112183
0.0059674505
0.0053766638
0.0049738546
0.0047043781
0.0045117296
0.0043731281
0.0042798202
0.0042145492
0.0041675236
0.0041351414
0.0041183424
0.022843251
0.028017646
0.033666187
0.039755576
0.046231955
0.053015761
0.059981218
0.066957958
0.073689576
0.079766819
0.08456977
0.087281502
0.086749424
0.081529352
0.069971157
0.050626107
0.028541265
0.014973723
0.0088684896
0.0067696525
0.005943422
0.005359816
0.0049621003
0.0046972936
0.0045065763
0.0043705318
0.0042780564
0.0042132313
0.0041665281
0.0041343569
0.004117639
0.02389258
0.029204638
0.034991077
0.041207878
0.047795987
0.054665393
0.061687566
0.068676249
0.075356181
0.081314345
0.085964896
0.088435659
0.087541688
0.0818445
0.069704561
0.049691585
0.027587604
0.014572451
0.008746708
0.0067364968
0.0059235801
0.0053456058
0.004951937
0.0046910042
0.0045018515
0.0043681464
0.0042764315
0.004211974
0.0041655619
0.0041335816
0.0041169314
0.02499527
0.030367981
0.036226769
0.042525265
0.049192816
0.056132499
0.063207314
0.070221163
0.076886414
0.082779392
0.087291013
0.089532272
0.088357685
0.082256522
0.069612883
0.049020811
0.026854616
0.014234985
0.0086349553
0.0067104568
0.0059077401
0.0053340313
0.0049434601
0.0046855827
0.0044976361
0.004366015
0.0042749721
0.0042107942
0.0041646321
0.004132818
0.0041162198
0.026086345
0.03149842
0.037394621
0.043734787
0.050448261
0.057435005
0.064550754
0.071591012
0.078256756
0.084113325
0.088535914
0.090630594
0.089212044
0.082755291
0.069713523
0.048636981
0.026332221
0.013948935
0.0085353704
0.0066919779
0.0058959229
0.0053250712
0.0049366155
0.0046809524
0.0044938878
0.0043640983
0.0042736571
0.0042096841
0.0041637347
0.0041320646
0.0041155046
0.027146299
0.032567069
0.038470157
0.044821729
0.051553158
0.058567378
0.065712681
0.072781686
0.079463301
0.085313563
0.089692933
0.09169564
0.090112855
0.083415117
0.0700146
0.048557216
0.026020056
0.013696733
0.0084427484
0.0066807598
0.0058881909
0.0053187794
0.0049314792
0.0046771652
0.0044906539
0.0043624203
0.0042724973
0.004208652
0.0041628725
0.0041313218
0.004114786
0.028163646
0.033560502
0.039437671
0.045771211
0.052493584
0.059521253
0.06671009
0.073831713
0.0805627
0.086427963
0.090785936
0.092738089
0.091059356
0.084203514
0.070550738
0.048805236
0.025933946
0.013455328
0.0083539287
0.0066771399
0.0058847148
0.0053151984
0.0049280466
0.0046741977
0.0044879134
0.0043609584
0.0042714745
0.0042076903
0.0041620401
0.0041305869
0.0041140645
0.029145999
0.034460256
0.040262669
0.04654623
0.053269126
0.060324473
0.067552799
0.074711357
0.081469133
0.08737154
0.091765796
0.093737522
0.092048056
0.085124972
0.071309977
0.049403534
0.026067789
0.013190981
0.0082688614
0.0066793495
0.0058854718
0.0053142382
0.0049262545
0.0046720199
0.0044856495
0.0043597005
0.0042705763
0.0042067946
0.0041612342
0.0041298583
0.0041133393
0.030093754
0.035234962
0.040871705
0.047026468
0.053677259
0.060708682
0.067950025
0.07515923
0.081998453
0.087993722
0.092483477
0.094541327
0.09291193
0.086002165
0.072105894
0.050115968
0.026429461
0.012839506
0.0081832421
0.0066865879
0.0058879027
0.0053149273
0.0049258139
0.0046704724
0.0044837689
0.0043585945
0.004269772
0.0042059536
0.0041604508
0.0041291369
0.0041126109
0.00072779637
0.0014876653
0.0029568093
0.0051872157
0.0081615381
0.011903217
0.016537027
0.022154229
0.028889576
0.036276773
0.044457001
0.053076166
0.061507189
0.068770899
0.073359294
0.073101834
0.065241182
0.048448748
0.027918852
0.01339798
0.0078043662
0.0061046647
0.0053955479
0.0049508885
0.004658515
0.0044544987
0.0043280455
0.0042437987
0.0041871861
0.0041485759
0.004128448
0.00077169285
0.0015257553
0.0029708701
0.0051372118
0.0080299487
0.011709155
0.016271653
0.021798473
0.028415757
0.035729077
0.043784681
0.05230286
0.060715505
0.06804585
0.072815476
0.072884056
0.065522619
0.049193938
0.028668972
0.013708297
0.0078776396
0.0061265595
0.0054081794
0.0049586852
0.0046630978
0.0044570691
0.0043296097
0.0042447357
0.0041878498
0.0041490523
0.0041287175
0.00082586309
0.0015685456
0.0029922934
0.0051164108
0.0079512841
0.011555649
0.016022231
0.021436022
0.027905242
0.035113951
0.043067045
0.05150989
0.059895651
0.067286884
0.072235605
0.072634918
0.065785749
0.049952132
0.029468899
0.014058745
0.0079582692
0.0061499339
0.0054210889
0.0049664492
0.0046676219
0.0044600367
0.0043314194
0.0042457553
0.0041885809
0.0041495481
0.0041290816
0.00089111424
0.0016152265
0.0030127895
0.005093944
0.0078697943
0.011398538
0.01576938
0.021071601
0.027390952
0.034488591
0.04233385
0.050693506
0.05904763
0.066493489
0.071618215
0.072351957
0.066026631
0.050721635
0.030318613
0.014449191
0.0080490246
0.0061750177
0.0054354492
0.0049754659
0.0046730079
0.0044627527
0.0043331034
0.0042468095
0.0041893244
0.0041500905
0.0041294543
0.0009693019
0.0016698627
0.0030347593
0.0050709889
0.0077873407
0.011239712
0.015514226
0.020697819
0.026873325
0.033854984
0.041587008
0.049857073
0.058172768
0.065666303
0.070962847
0.072033467
0.066242333
0.051505698
0.031217907
0.01488035
0.008148629
0.0062023516
0.0054493022
0.004983724
0.0046778878
0.0044662719
0.0043352446
0.004248
0.0041901738
0.0041506672
0.0041298127
0.0010650538
0.0017308372
0.003060812
0.0050502895
0.0077060973
0.011081252
0.015258662
0.020321711
0.026354483
0.033216068
0.040829523
0.04900384
0.057273418
0.064807012
0.070270061
0.071678658
0.066426073
0.052297413
0.032158182
0.015361067
0.0082653819
0.0062317816
0.0054659097
0.0049942043
0.0046841906
0.004469743
0.0043373868
0.0042492535
0.0041910592
0.0041512812
0.0041301083
0.0011819717
0.001811119
0.0030928037
0.0050324249
0.0076272667
0.010925295
0.015005891
0.019951624
0.025837619
0.032576147
0.0400645
0.048136117
0.056350576
0.063915713
0.069538185
0.071283253
0.066567814
0.053078724
0.033135101
0.015887533
0.0083960948
0.006263232
0.005482029
0.0050043191
0.0046903491
0.0044734338
0.0043396788
0.004250586
0.0041919968
0.0041519351
0.004130517
0.0013246188
0.0019042462
0.0031360693
0.0050222307
0.0075548698
0.010775294
0.014758712
0.0195863
0.025327741
0.031934338
0.039292799
0.047254233
0.055402116
0.062990707
0.068763323
0.070839654
0.066672836
0.053852397
0.034181727
0.016468466
0.0085432775
0.0062969712
0.0054987965
0.0050149742
0.0046968931
0.0044773401
0.004342098
0.0042520093
0.0041929962
0.0041526273
0.0041310169
0.0014989416
0.0020182741
0.0031943556
0.0050231754
0.0074920027
0.0106344
0.014520691
0.019230559
0.024833349
0.031298295
0.038520232
0.046364375
0.054440304
0.062037936
0.067950198
0.070351074
0.06673595
0.054611816
0.035281558
0.017108637
0.0087091642
0.0063334295
0.0055160726
0.0050260491
0.0047037463
0.0044814633
0.004344687
0.0042535212
0.0041940484
0.0041533616
0.0041316823
0.0017066711
0.0021623992
0.0032710134
0.0050372885
0.0074410007
0.010505717
0.014295377
0.018886684
0.024338576
0.030669327
0.037750998
0.045471159
0.053470884
0.061060677
0.067100145
0.069816248
0.066752787
0.055357146
0.036427344
0.017813082
0.0088961942
0.0063727367
0.0055338683
0.00503779
0.0047111203
0.0044858648
0.0043474041
0.00425514
0.0041951751
0.0041541327
0.0041323713
0.0019571031
0.0023438418
0.0033728939
0.0050722936
0.0074082669
0.010394443
0.014087365
0.018559315
0.023864272
0.030051831
0.036990025
0.044578969
0.052485724
0.060061753
0.066215081
0.069234653
0.066718982
0.056077896
0.037618374
0.018588492
0.009107236
0.0064152821
0.0055522912
0.0050498436
0.0047186246
0.0044904231
0.004350311
0.0042568629
0.004196349
0.0041549521
0.0041330305
0.0022452701
0.0025620315
0.0035118968
0.0051307438
0.007395837
0.010303991
0.013901286
0.018255116
0.02342283
0.029464443
0.036245483
0.043693878
0.051497064
0.05904543
0.065297641
0.068606481
0.06663088
0.056756724
0.038816452
0.019433486
0.0093454199
0.0064616375
0.00557061
0.0050626338
0.0047269176
0.0044954158
0.0043533482
0.004258707
0.0041976152
0.0041558103
0.0041336977
0.0025680465
0.0028224025
0.0036840551
0.0052242725
0.0074143902
0.010242751
0.013744402
0.017980866
0.023011277
0.028889926
0.035520951
0.042822067
0.050510779
0.0580159
0.064351121
0.06793269
0.066485794
0.057387356
0.040008976
0.020352778
0.0096138801
0.0065117975
0.0055905224
0.0050757293
0.0047349331
0.0045003662
0.0043565763
0.0042606788
0.004198912
0.0041567268
0.0041344322
0.0029174621
0.0031220979
0.0038980223
0.0053546081
0.0074680589
0.010216703
0.013623595
0.017743784
0.02263497
0.028339568
0.034821445
0.041970263
0.049533051
0.056971475
0.063379307
0.067215098
0.066281913
0.057962457
0.04120613
0.021347028
0.009917394
0.0065668383
0.0056085632
0.005089106
0.0047440946
0.0045060634
0.0043599576
0.0042627757
0.0042003279
0.0041576815
0.0041352207
0.0032811494
0.00346217
0.0041701987
0.005543715
0.0075752625
0.01024042
0.013551524
0.017553599
0.022305824
0.027849944
0.03418018
0.041151797
0.048574279
0.055946652
0.062390101
0.066456782
0.066018271
0.058474598
0.042396644
0.022419024
0.010258748
0.0066283021
0.0056305132
0.0051034817
0.0047525317
0.0045113651
0.0043635058
0.0042650458
0.0042017475
0.0041587035
0.00413605
0.0036509117
0.0038347702
0.0045004993
0.005799347
0.0077504456
0.010329496
0.013542296
0.017423788
0.022031921
0.027412812
0.033556485
0.040367515
0.047641878
0.054930686
0.061389494
0.065661822
0.065694934
0.058916746
0.04357406
0.023551756
0.010643367
0.0066925741
0.0056483408
0.0051164414
0.0047621019
0.0045178033
0.0043672606
0.0042674147
0.0042033213
0.0041597589
0.0041369133
0.0040179015
0.0042281411
0.0048759685
0.0061187983
0.0079967357
0.010492174
0.013606572
0.017366663
0.021824377
0.027037286
0.032986396
0.039629715
0.046743993
0.05392326
0.060383355
0.064835321
0.065313662
0.059283538
0.044732469
0.024781427
0.011076506
0.0067741151
0.005670964
0.005132045
0.0047712083
0.0045236059
0.004371169
0.0042700426
0.0042048682
0.0041608863
0.0041378085
0.004406142
0.0046743111
0.0053396057
0.0065529646
0.0083578188
0.010762305
0.013769434
0.01740142
0.021699358
0.026740585
0.032506943
0.038969865
0.045894911
0.052943619
0.059380058
0.063983557
0.064878336
0.05957635
0.045869272
0.026080151
0.011561476
0.0068547427
0.0056919649
0.0051442187
0.004780093
0.0045305014
0.0043752927
0.0042726813
0.0042065973
0.0041620437
0.004138735
0.0048475077
0.0051892874
0.0058961609
0.0070931521
0.0088380931
0.011152472
0.01404615
0.017542601
0.021671181
0.026533371
0.032103199
0.038342727
0.045094586
0.051999512
0.058387159
0.063113212
0.064391818
0.059798677
0.046975635
0.027389153
0.012097229
0.0069665736
0.0057106839
0.0051589791
0.004790442
0.0045374425
0.0043797184
0.0042757179
0.0042082901
0.0041632735
0.0041396916
0.0054124245
0.0058303292
0.0065808961
0.0077688557
0.0094666997
0.011680792
0.014449864
0.01780055
0.02175075
0.026424593
0.031786858
0.037803068
0.044354795
0.051097612
0.057403862
0.062229391
0.063856587
0.059940503
0.048015243
0.028749068
0.012710017
0.0070802798
0.0057377197
0.005172779
0.0047975909
0.0045440221
0.0043840988
0.0042786031
0.0042101534
0.0041645369
0.0041406751
0.0061725486
0.0066502254
0.0074307967
0.0086037353
0.010232383
0.012342596
0.014980523
0.018176547
0.021943454
0.026419054
0.031566126
0.037361535
0.043701693
0.050252199
0.056468896