/*--------------------------------*- C++ -*----------------------------------*\
| =========                 |                                                 |
| \\      /  F ield         | OpenFOAM: The Open Source CFD Toolbox           |
|  \\    /   O peration     | Version:  2406                                  |
|   \\  /    A nd           | Website:  www.openfoam.com                      |
|    \\/     M anipulation  |                                                 |
\*---------------------------------------------------------------------------*/
FoamFile
{
    version     2.0;
    format      ascii;
    arch        "LSB;label=32;scalar=64";
    class       volScalarField;
    location    "0.001";
    object      alphat;
}
// * * * * * * * * * * * * * * * * * * * * * * * * * * * * * * * * * * * * * //

dimensions      [1 -1 -1 0 0 0 0];

internalField   nonuniform List<scalar> 
23203
(
0.089827274
0.092092158
0.094418193
0.096902313
0.099536339
0.10231706
0.10524216
0.10830922
0.11151574
0.11485908
0.1183363
0.12194399
0.12567813
0.12953391
0.13350543
0.13758518
0.14176265
0.14601983
0.15031464
0.15451318
0.15856999
0.16262394
0.16674567
0.096855312
0.099158584
0.10149963
0.10399177
0.10662582
0.10940211
0.11232008
0.11537786
0.11857309
0.12190304
0.12536454
0.12895377
0.13266612
0.1364959
0.14043587
0.14447641
0.14860365
0.15279583
0.15701631
0.16120882
0.16535431
0.1694972
0.17367556
0.10448959
0.1068453
0.10920442
0.11170664
0.11434426
0.11711595
0.12002409
0.12306821
0.12624644
0.12955624
0.13299443
0.13655704
0.14023914
0.14403458
0.14793554
0.15193182
0.15600976
0.16015068
0.16432992
0.16852085
0.17271342
0.1769175
0.18112738
0.11279753
0.11520149
0.11757929
0.12008787
0.12272533
0.12549206
0.12838738
0.13141307
0.13456829
0.13785097
0.14125816
0.14478596
0.14842949
0.15218262
0.15603772
0.15998531
0.16401374
0.16810923
0.17225717
0.17644653
0.18067753
0.18495796
0.1892441
0.12182725
0.12427173
0.12666326
0.12917772
0.13180908
0.13456386
0.13744391
0.14044658
0.14357252
0.14682076
0.1501891
0.15367394
0.15727066
0.16097354
0.16477568
0.16866894
0.1726442
0.17669223
0.18080599
0.1849861
0.1892529
0.19367751
0.13161863
0.13409726
0.13649472
0.13900971
0.14163378
0.14436938
0.14722347
0.15019877
0.15329045
0.15649686
0.15981823
0.16325177
0.16679325
0.17043753
0.17417867
0.17800996
0.18192441
0.18591567
0.18997992
0.19411882
0.1983428
0.20266826
0.14220626
0.14471329
0.14710907
0.1496169
0.15222718
0.15494211
0.15776445
0.16069813
0.16374709
0.166907
0.17017374
0.17354728
0.17702461
0.1806013
0.18427228
0.18803209
0.19187521
0.19579681
0.1997937
0.20386541
0.20801376
0.2122374
0.15362005
0.15614986
0.15853633
0.16102933
0.16361757
0.16630345
0.16909032
0.17197906
0.17497237
0.17807435
0.1812803
0.18458518
0.18798878
0.19148804
0.19507871
0.19875624
0.2025161
0.20635417
0.21026718
0.21425285
0.21830901
0.22243034
0.16588529
0.16843218
0.17080155
0.17327194
0.17583016
0.17847847
0.18122074
0.18405876
0.18699258
0.19002377
0.1931563
0.19638571
0.1997062
0.20311756
0.206617
0.21020071
0.21386482
0.21760567
0.22141991
0.22530452
0.2292561
0.23326945
0.17902242
0.18158055
0.18392491
0.18636463
0.18888468
0.19148704
0.19417579
0.19695319
0.19982017
0.20277644
0.20582265
0.20896275
0.21219269
0.21550611
0.21890295
0.2223809
0.2259367
0.22956705
0.2332688
0.23703891
0.24087408
0.24477021
0.19304667
0.19561006
0.19792144
0.20032232
0.20279584
0.20534372
0.20797013
0.21067754
0.21346738
0.21634026
0.21929565
0.22233346
0.22545782
0.2286652
0.23194891
0.23530914
0.23874409
0.24225106
0.24582727
0.24947005
0.25317676
0.25694454
0.2079677
0.21053025
0.21280075
0.2151546
0.21757317
0.22005793
0.22261315
0.22524142
0.22794442
0.23072331
0.2335785
0.23650933
0.2395152
0.24260058
0.24576258
0.24899429
0.25229617
0.25566711
0.25910509
0.26260801
0.266174
0.26980139
0.22378926
0.22634486
0.22856673
0.23086551
0.2332208
0.23563387
0.2381091
0.24064921
0.24325602
0.24593103
0.24867527
0.25148906
0.25437172
0.25732245
0.26034604
0.26344023
0.26659827
0.26982115
0.2731085
0.27645919
0.27987218
0.28334684
0.24050902
0.24305163
0.24521743
0.24745335
0.24973731
0.25207037
0.25445704
0.25690015
0.25940173
0.2619635
0.26458686
0.26727282
0.27002175
0.27283307
0.27570601
0.27864592
0.2816512
0.2847154
0.28784028
0.2910266
0.29427443
0.2975841
0.25811849
0.26064229
0.26274502
0.26491073
0.26711572
0.26936085
0.27165077
0.27398848
0.27637615
0.27881576
0.28130905
0.28385744
0.28646202
0.28912335
0.29184111
0.29461491
0.29745072
0.30034745
0.30329953
0.30631
0.30938081
0.31251348
0.27660305
0.27910257
0.28113584
0.28322458
0.28534353
0.28749341
0.289679
0.29190342
0.29416908
0.29647819
0.29883281
0.30123476
0.30368562
0.3061867
0.3087389
0.31134231
0.31399719
0.31671041
0.31948144
0.32230585
0.32518846
0.32813259
0.29594213
0.29841242
0.30037063
0.30237636
0.30440298
0.30645102
0.30852541
0.31062945
0.31276571
0.3149367
0.31714479
0.3193922
0.32168096
0.32401293
0.32638984
0.32881302
0.33128316
0.33380162
0.3363763
0.33900732
0.34169178
0.34443647
0.31610954
0.31854632
0.32042475
0.32234236
0.32427123
0.32621174
0.32816899
0.33014642
0.33214683
0.33417297
0.33622758
0.33831324
0.34043245
0.34258761
0.34478102
0.34701495
0.34929137
0.35161176
0.35397904
0.35640218
0.35888206
0.36141778
0.33707389
0.33947368
0.34126866
0.34309405
0.3449208
0.34674915
0.34858434
0.35043
0.35228913
0.35416476
0.35605996
0.35797772
0.35992099
0.36189268
0.36389568
0.36593294
0.36800742
0.37012194
0.37227894
0.37448341
0.37674546
0.37906664
0.35879918
0.3611594
0.3628684
0.36459861
0.36632001
0.36803272
0.36974211
0.37145199
0.37316559
0.37488622
0.37661726
0.37836214
0.38012424
0.381907
0.38371389
0.38554847
0.38741447
0.38931579
0.3912563
0.39323966
0.39527379
0.39736802
0.38124538
0.38356447
0.38518617
0.38681947
0.38843351
0.39002834
0.39160945
0.39318083
0.39474592
0.39630832
0.39787176
0.39944005
0.40101705
0.40260669
0.40421302
0.40584023
0.40749272
0.40917519
0.41089267
0.41265018
0.41445247
0.41631241
0.40436921
0.40664667
0.40818101
0.40971691
0.4112229
0.41269893
0.4141506
0.41558207
0.41699702
0.41839934
0.41979309
0.42118247
0.42257179
0.4239655
0.42536821
0.42678472
0.42822009
0.42967977
0.43116962
0.43269597
0.43426521
0.43588446
0.42812483
0.4303613
0.43180948
0.43324881
0.43464735
0.43600499
0.43732741
0.43861897
0.43988356
0.44112533
0.44234871
0.44355828
0.4447588
0.44595521
0.44715268
0.44835662
0.44957276
0.45080723
0.45206667
0.45335835
0.45469007
0.4560701
0.4524647
0.4546619
0.45602639
0.45737125
0.45866426
0.45990527
0.46110003
0.46225304
0.46336844
0.46445067
0.46550445
0.46653477
0.46754683
0.46854606
0.46953817
0.47052919
0.47152547
0.47253385
0.4735617
0.47461711
0.47570892
0.47684676
0.47734024
0.47950103
0.4807855
0.48203924
0.48322995
0.4843574
0.48542741
0.48644464
0.48741345
0.48833853
0.48922495
0.49007806
0.49090348
0.49170716
0.49249532
0.49327457
0.49405192
0.49483488
0.49563154
0.49645075
0.49730222
0.4981968
0.50270266
0.50483094
0.50604021
0.50720738
0.50830022
0.50931847
0.51026796
0.51115352
0.51197969
0.51275145
0.51347416
0.51415355
0.51479566
0.5154069
0.51599403
0.51656422
0.51712511
0.51768487
0.51825232
0.51883704
0.51944951
0.52010153
0.52850359
0.53060426
0.53174422
0.53283049
0.53383107
0.53474565
0.53558011
0.53633938
0.5370282
0.53765179
0.53821584
0.53872642
0.53918997
0.53961337
0.54000387
0.54036922
0.54071766
0.54105801
0.54139978
0.54175328
0.54212976
0.54254183
0.55469571
0.5567746
0.5578521
0.55886414
0.55977913
0.56059673
0.56132278
0.56196234
0.56252033
0.56300222
0.56341398
0.563762
0.56405314
0.5642947
0.56449444
0.56466065
0.56480214
0.56492839
0.56504958
0.56517673
0.56532184
0.56549831
0.5812333
0.58329707
0.58431979
0.58526521
0.58610225
0.58683054
0.58745588
0.58798342
0.58841827
0.58876611
0.58903317
0.58922618
0.58935237
0.58941946
0.58943569
0.58940986
0.58935138
0.58927032
0.58917753
0.58908471
0.58900461
0.58895139
0.60807269
0.61012871
0.6111051
0.61199229
0.61275987
0.61340742
0.6139407
0.61436493
0.61468536
0.61490789
0.615039
0.61508573
0.61505566
0.61495691
0.61479819
0.6145888
0.61433868
0.61405852
0.61375979
0.61345489
0.61315725
0.61288183
0.63517264
0.63722892
0.63816802
0.63900605
0.63971339
0.64028958
0.64074028
0.64107077
0.64128646
0.64139341
0.64139835
0.64130862
0.6411321
0.64087733
0.64055343
0.64017018
0.63973808
0.63926836
0.63877312
0.6382654
0.63775935
0.63727065
0.66249464
0.66455969
0.66547102
0.66626954
0.66692647
0.66744132
0.66781965
0.66806676
0.66818819
0.66819017
0.66807965
0.66786423
0.66755211
0.66715219
0.66667399
0.66612778
0.66552452
0.66487603
0.66419498
0.66349505
0.66279106
0.6620994
0.69000312
0.69208583
0.69297931
0.6937484
0.69436525
0.69482934
0.69514608
0.69532081
0.69535917
0.69526755
0.69505308
0.69472361
0.69428764
0.69375439
0.69313379
0.69243652
0.69167406
0.69085871
0.69000373
0.68912341
0.6882332
0.68735019
0.71766559
0.71977516
0.72066095
0.72141102
0.7219985
0.72242282
0.72268926
0.72280314
0.72277021
0.72259697
0.72229074
0.72185959
0.7213123
0.72065839
0.71990816
0.7190727
0.71816393
0.71719468
0.71617871
0.71513091
0.71406736
0.7130058
0.74545276
0.74759858
0.74848701
0.74922866
0.74979775
0.75019362
0.75042138
0.75048636
0.75039436
0.75015201
0.74976679
0.74924695
0.74860152
0.74784033
0.74697401
0.74601402
0.74497272
0.74386339
0.74270033
0.74149896
0.74027596
0.73904969
0.77333856
0.77553011
0.77643154
0.77717553
0.77773735
0.77811628
0.77831726
0.77834558
0.77820709
0.77790853
0.77745751
0.77686246
0.77613264
0.77527813
0.77430988
0.77323972
0.77208038
0.7708456
0.76955015
0.76820997
0.7668423
0.7654661
0.80130016
0.80354691
0.80447168
0.80522877
0.80579452
0.80616813
0.80635436
0.80635844
0.80618628
0.80584469
0.8053414
0.80468499
0.80388493
0.80295154
0.80189605
0.80073061
0.79946834
0.79812336
0.7967109
0.7952474
0.7937506
0.79224005
0.82931792
0.83162925
0.83258761
0.83336848
0.83394931
0.83432924
0.83451278
0.83450515
0.83431226
0.83394099
0.83339916
0.83269551
0.83183966
0.83084217
0.8297145
0.82846912
0.82711948
0.82568007
0.82416655
0.82259578
0.82098603
0.81935734
0.85737537
0.85976053
0.86076248
0.86157769
0.86218466
0.86258243
0.86277533
0.86276848
0.86256782
0.86218029
0.86161377
0.86087712
0.85998013
0.85893352
0.85774902
0.85643933
0.85501822
0.85350053
0.85190228
0.85024076
0.8485347
0.84680459
0.88545912
0.88792711
0.88898244
0.88984231
0.89048627
0.89091327
0.8911274
0.89113374
0.89093822
0.89054779
0.88997043
0.88921506
0.88829162
0.887211
0.88598512
0.88462693
0.88315047
0.88157087
0.87990451
0.87816906
0.87638364
0.87456919
0.91355881
0.91611837
0.91723652
0.91815108
0.91884262
0.91930998
0.91955704
0.91958877
0.91941111
0.91903103
0.91845655
0.91769668
0.91676144
0.91566189
0.91441012
0.91301927
0.91150363
0.90987862
0.90816089
0.90636846
0.90452082
0.90263931
0.941667
0.94432653
0.94551659
0.94649553
0.94724491
0.94776345
0.9480548
0.94812387
0.94797654
0.94761982
0.94706174
0.94631139
0.94537886
0.94427533
0.94301303
0.94160529
0.9400666
0.93841261
0.93666024
0.9348278
0.93293511
0.93100384
0.9697791
0.97254663
0.97381725
0.97486985
0.97568693
0.97626709
0.97661375
0.97673172
0.97662689
0.97630621
0.97577776
0.97505065
0.97413506
0.97304225
0.97178456
0.97037549
0.96882968
0.96716298
0.96539255
0.96353693
0.96161622
0.9596524
0.99789323
1.0007764
1.0021357
1.0032708
1.004165
1.0048168
1.0052293
1.0054074
1.0053567
1.0050844
1.0045984
1.0039079
1.0030231
1.0019553
1.0007171
0.99932187
0.99778454
0.9961211
0.99434888
0.99248662
0.99055465
0.98857519
1.0260101
1.0290161
1.0304718
1.0316977
1.032678
1.0334108
1.0338993
1.0341481
1.0341628
1.0339506
1.0335194
1.0328783
1.0320377
1.0310089
1.0298044
1.0284378
1.0269241
1.0252795
1.0235213
1.0216685
1.0197416
1.017763
1.0541328
1.0572683
1.0588276
1.0601521
1.0612267
1.0620496
1.0626235
1.0629531
1.0630439
1.062903
1.0625383
1.061959
1.0611754
1.0601987
1.0590417
1.057718
1.0562425
1.0546315
1.0529026
1.0510748
1.0491687
1.0472069
1.0822666
1.085538
1.0872074
1.0886376
1.0898143
1.0907355
1.0914038
1.0918236
1.0920005
1.0919414
1.0916543
1.0911484
1.0904338
1.089522
1.0884255
1.087158
1.0857346
1.0841716
1.0824865
1.0806985
1.0788282
1.0768983
1.1104189
1.1138317
1.1156172
1.1171598
1.1184456
1.1194728
1.1202435
1.1207623
1.1210345
1.1210671
1.120868
1.1204462
1.119812
1.1189768
1.117953
1.1167545
1.1153962
1.1138945
1.1122669
1.1105326
1.1087122
1.1068286
1.1385982
1.1421579
1.1440647
1.1457254
1.1471269
1.1482669
1.1491476
1.1497732
1.1501492
1.1502824
1.1501807
1.1498531
1.1493098
1.148562
1.1476223
1.1465044
1.1452234
1.1437953
1.1422379
1.1405702
1.1388129
1.1369887
1.1668145
1.1705259
1.1725586
1.1743426
1.1758652
1.1771242
1.1781214
1.1788611
1.1793485
1.1795905
1.1795947
1.1793703
1.1789272
1.1782768
1.1774315
1.1764049
1.175212
1.1738689
1.1723932
1.1708039
1.1691217
1.1673691
1.1950781
1.1989454
1.201108
1.2030196
1.2046684
1.2060516
1.2071711
1.208031
1.2086365
1.2089943
1.2091121
1.2089988
1.2086644
1.2081201
1.2073783
1.2064525
1.2053575
1.2041095
1.2027259
1.2012255
1.1996289
1.1979586
1.2233993
1.2274263
1.2297218
1.2317647
1.2335436
1.2350555
1.2363022
1.2372875
1.2380168
1.2384965
1.2387343
1.238739
1.2385205
1.2380899
1.2374595
1.2366427
1.2356542
1.23451
1.2332274
1.2318251
1.2303234
1.2287448
1.2517871
1.2559772
1.258408
1.260585
1.2624971
1.2641413
1.265519
1.2666341
1.2674917
1.2680983
1.2684614
1.2685898
1.2684932
1.2681826
1.2676702
1.2669693
1.2660944
1.2650613
1.2638871
1.2625904
1.2611915
1.2597123
1.2802489
1.2846048
1.2871725
1.2894855
1.2915332
1.2933121
1.2948238
1.2960718
1.2970613
1.2977986
1.2982911
1.2985475
1.2985775
1.2983919
1.2980027
1.2974231
1.2966673
1.2957511
1.2946914
1.2935064
1.2922162
1.2908425
1.3087887
1.3133126
1.316018
1.3184682
1.3206526
1.322568
1.3242154
1.3255985
1.3267222
1.3275928
1.3282176
1.3286052
1.3287651
1.328708
1.3284457
1.3279912
1.3273587
1.3265635
1.3256225
1.3245535
1.3233765
1.3221128
1.3374062
1.3420999
1.3449429
1.3475304
1.3498521
1.3519044
1.3536884
1.3552075
1.3564666
1.3574719
1.3582306
1.3587511
1.3590427
1.3591161
1.3589829
1.3586559
1.358149
1.3574775
1.3566577
1.3557074
1.354646
1.3534949
1.3660955
1.3709601
1.3739398
1.3766638
1.3791222
1.3813111
1.3832314
1.3848863
1.3862808
1.3874209
1.3883136
1.3889673
1.3893912
1.3895957
1.3895922
1.3893934
1.3890129
1.3884657
1.3877679
1.3869371
1.3859922
1.3849544
1.3948432
1.3998793
1.402994
1.405853
1.4084465
1.4107705
1.4128256
1.4146151
1.4161437
1.4174174
1.4184431
1.4192289
1.419784
1.4201185
1.4202438
1.4201722
1.4199172
1.4194934
1.4189167
1.4182043
1.4173748
1.416449
1.4236274
1.4288349
1.432082
1.4350734
1.4377996
1.4402562
1.4424437
1.4443653
1.4460255
1.4474303
1.4485865
1.449502
1.4501858
1.4506479
1.4508994
1.4509524
1.4508202
1.4505171
1.4500587
1.4494618
1.4487447
1.4479279
1.4524161
1.4577942
1.4611702
1.4642906
1.467146
1.4697317
1.472048
1.4740981
1.4758863
1.4774185
1.4787013
1.4797426
1.4805511
1.4811368
1.4815104
1.4816838
1.48167
1.4814832
1.4811385
1.4806524
1.480043
1.4793301
1.4811653
1.4867124
1.4902131
1.4934583
1.4964384
1.4991487
1.5015893
1.5037631
1.5056745
1.507329
1.5087334
1.5098953
1.5108233
1.5115269
1.512017
1.512305
1.5124038
1.5123271
1.5120898
1.511708
1.5111995
1.5105837
1.5098184
1.515532
1.5191524
1.5225172
1.5256168
1.5284462
1.5310054
1.5332971
1.5353257
1.5370966
1.5386162
1.5398921
1.5409328
1.5417476
1.5423469
1.5427423
1.542946
1.5429717
1.5428339
1.5425483
1.5421322
1.5416049
1.5383046
1.5441814
1.5479156
1.551394
1.5546069
1.5575491
1.5602203
1.5626232
1.5647619
1.5666418
1.5682692
1.5696515
1.5707968
1.5717145
1.5724147
1.5729086
1.5732084
1.5733272
1.5732793
1.57308
1.5727463
1.5722971
1.5665387
1.5725742
1.5764156
1.5800008
1.5833201
1.5863677
1.5891435
1.5916497
1.5938906
1.5958712
1.5975978
1.5990776
1.6003185
1.6013297
1.602121
1.6027034
1.6030888
1.6032901
1.6033211
1.6031969
1.602934
1.602551
1.5944203
1.6006088
1.6045501
1.6082346
1.6116524
1.6147975
1.6176694
1.6202704
1.6226045
1.6246767
1.6264929
1.6280602
1.6293866
1.6304807
1.6313523
1.632012
1.6324715
1.6327433
1.632841
1.6327792
1.6325741
1.632244
1.6218343
1.6281687
1.6322018
1.6359774
1.6394852
1.642719
1.6456779
1.6483643
1.6507819
1.6529355
1.6548309
1.6564751
1.6578757
1.6590413
1.6599813
1.6607062
1.6612271
1.6615565
1.6617075
1.6616944
1.661533
1.6612412
1.6486513
1.6551233
1.6592395
1.6630972
1.6666857
1.6699986
1.6730349
1.6757965
1.678287
1.6805112
1.6824748
1.6841844
1.6856473
1.6868721
1.6878679
1.6886448
1.6892137
1.6895868
1.6897769
1.6897977
1.6896648
1.6893958
1.6747291
1.6813286
1.6855186
1.6894489
1.6931083
1.6964902
1.6995932
1.7024193
1.7049717
1.7072552
1.7092751
1.7110378
1.7125507
1.7138217
1.71486
1.7156751
1.716278
1.7166802
1.7168943
1.7169336
1.7168134
1.716551
1.6999147
1.7066301
1.7108837
1.7148763
1.7185963
1.7220363
1.7251951
1.7280743
1.7306771
1.7330078
1.7350717
1.736875
1.7384247
1.7397287
1.7407956
1.7416349
1.7422571
1.7426734
1.7428961
1.742938
1.7428141
1.7425413
1.7240463
1.730864
1.7351707
1.7392149
1.7429841
1.7464711
1.7496741
1.7525946
1.7552356
1.7576012
1.7596965
1.7615274
1.7631007
1.7644239
1.7655054
1.7663544
1.766981
1.7673961
1.7676116
1.76764
1.7674959
1.7671957
1.7469563
1.7538613
1.7582096
1.7622939
1.7661009
1.7696229
1.7728581
1.7758077
1.7784745
1.7808623
1.782976
1.7848212
1.7864045
1.7877331
1.788815
1.7896592
1.7902753
1.790674
1.7908666
1.7908653
1.7906843
1.7903398
1.7684752
1.7754502
1.7798281
1.7839405
1.7877731
1.7913178
1.7945727
1.7975389
1.8002186
1.8026157
1.8047347
1.8065809
1.8081605
1.8094806
1.8105487
1.8113736
1.8119644
1.8123315
1.8124858
1.812439
1.8122048
1.8117992
1.7884342
1.7954603
1.7998552
1.803983
1.8078283
1.8113829
1.8146447
1.8176144
1.8202941
1.8226873
1.8247983
1.826632
1.8281945
1.8294923
1.8305327
1.831324
1.8318751
1.8321958
1.8322966
1.8321889
1.8318858
1.831403
1.8066698
1.8137262
1.8181245
1.8222545
1.8260992
1.8296504
1.8329058
1.8358657
1.8385322
1.8409082
1.8429978
1.8448057
1.8463375
1.8475995
1.8485985
1.8493424
1.8498397
1.8500998
1.8501327
1.8499493
1.8495624
1.848987
1.8230266
1.8300909
1.8344785
1.8385966
1.8424268
1.8459608
1.849196
1.8521327
1.8547724
1.8571179
1.8591728
1.8609417
1.8624295
1.8636423
1.8645867
1.8652698
1.8656999
1.8658858
1.8658371
1.8655642
1.8650794
1.8643972
1.8373614
1.8444095
1.8487714
1.8528629
1.8566642
1.8601666
1.8633677
1.8662672
1.8688665
1.871168
1.873175
1.8748916
1.8763225
1.8774733
1.8783501
1.8789597
1.8793098
1.8794088
1.8792658
1.8788906
1.878295
1.877493
1.8495456
1.856552
1.8608725
1.8649222
1.8686794
1.8721355
1.8752879
1.8781362
1.8806812
1.8829252
1.8848711
1.8865224
1.8878837
1.8889599
1.8897568
1.8902808
1.890539
1.8905392
1.8902901
1.8898009
1.8890828
1.8881494
1.8594678
1.8664059
1.8706685
1.8746603
1.8783578
1.8817523
1.8848413
1.8876239
1.8901008
1.8922737
1.8941452
1.8957186
1.8969978
1.8979874
1.8986928
1.8991197
1.8992748
1.8991654
1.8987995
1.8981859
1.8973351
1.8962601
1.8670355
1.8738776
1.8780651
1.8819824
1.885604
1.8889213
1.8919316
1.894634
1.8970286
1.8991169
1.9009011
1.902384
1.9035691
1.9044606
1.9050632
1.9053824
1.9054241
1.9051952
1.9047031
1.9039558
1.9029634
1.9017382
1.8721757
1.8788936
1.8829882
1.8868138
1.8903429
1.8935669
1.8964832
1.8990906
1.9013888
1.903379
1.9050629
1.9064431
1.9075224
1.9083048
1.9087942
1.9089957
1.9089147
1.9085574
1.9079307
1.9070419
1.9059005
1.904518
1.8748354
1.8814005
1.8853839
1.8891002
1.8925198
1.8956342
1.898441
1.9009384
1.9031261
1.9050048
1.9065759
1.9078413
1.9088037
1.9094663
1.9098328
1.9099075
1.9096953
1.9092018
1.9084332
1.9073963
1.9060998
1.9045547
1.8749809
1.8813645
1.885218
1.8888072
1.8921
1.8950885
1.89777
1.9001427
1.9022059
1.9039599
1.9054056
1.9065448
1.9073795
1.9079125
1.9081468
1.9080863
1.9077353
1.9070988
1.9061823
1.9049919
1.9035358
1.9018241
1.8725962
1.87877
1.8824748
1.8859188
1.8890678
1.8919138
1.8944545
1.8966879
1.8986127
1.9002291
1.9015376
1.9025394
1.9032362
1.9036301
1.9037239
1.9035207
1.9030243
1.9022389
1.9011695
1.8998216
1.8982026
1.8963217
1.8676815
1.8736179
1.8771553
1.8804362
1.8834243
1.8861117
1.8884963
1.8905759
1.892349
1.8938153
1.8949751
1.895829
1.8963783
1.8966246
1.8965702
1.8962176
1.8955699
1.8946309
1.8934048
1.8918964
1.8901124
1.8880612
1.8602505
1.8659228
1.8692746
1.8723749
1.8751854
1.8776985
1.8799123
1.8818243
1.8834329
1.8847373
1.8857374
1.8864336
1.8868265
1.8869175
1.886708
1.8862001
1.8853965
1.8843
1.8829144
1.8812437
1.8792938
1.8770726
1.850328
1.8557113
1.8588596
1.8617626
1.8643796
1.8667034
1.8687324
1.8704638
1.8718957
1.8730271
1.8738576
1.874387
1.8746156
1.8745442
1.8741738
1.8735059
1.8725424
1.8712857
1.8697388
1.8679051
1.8657897
1.8633996
1.8379473
1.843018
1.8459464
1.8486361
1.8510448
1.8531654
1.8549965
1.8565352
1.8577795
1.8587279
1.8593797
1.8597343
1.8597917
1.859552
1.8590158
1.858184
1.8570579
1.8556392
1.8539304
1.8519339
1.8496544
1.8470979
1.8231471
1.8278842
1.8305773
1.8330393
1.8352261
1.8371309
1.8387524
1.8400877
1.8411346
1.8418912
1.8423565
1.8425296
1.8424099
1.8419971
1.8412914
1.8402929
1.8390025
1.8374213
1.8355508
1.8333932
1.830952
1.8282325
1.8059696
1.8103545
1.8127987
1.8150203
1.8169733
1.8186512
1.820053
1.8211758
1.822017
1.8225745
1.822847
1.8228331
1.8225319
1.8219427
1.8210649
1.8198983
1.8184431
1.8166997
1.8146691
1.8123527
1.8097532
1.8068752
1.7864581
1.7904748
1.7926589
1.7946291
1.7963385
1.7977805
1.7989545
1.7998574
1.8004863
1.8008392
1.8009141
1.8007094
1.8002238
1.7994561
1.7984051
1.7970703
1.795451
1.7935472
1.7913591
1.7888874
1.7861341
1.7831029
1.7646549
1.7682912
1.770206
1.7719166
1.7733747
1.774574
1.775514
1.7761917
1.7766041
1.7767485
1.776623
1.7762255
1.7755542
1.7746075
1.7733839
1.7718819
1.7701007
1.7680393
1.7656975
1.7630751
1.7601736
1.7569954
1.7406006
1.7438475
1.745487
1.7469321
1.7481339
1.7490863
1.7497887
1.7502383
1.7504317
1.7503662
1.7500394
1.7494489
1.7485926
1.7474682
1.7460738
1.7444075
1.7424678
1.7402531
1.7377625
1.7349951
1.7319517
1.7286339
1.7143331
1.7171857
1.7185466
1.7197233
1.7206666
1.7213704
1.7218343
1.7220553
1.7220299
1.7217551
1.7212283
1.7204467
1.7194077
1.7181087
1.7165473
1.7147209
1.7126276
1.7102651
1.7076319
1.7047264
1.7015486
1.6980991
1.6858868
1.6883443
1.6894267
1.6903354
1.6910209
1.6914773
1.6917043
1.6916989
1.6914573
1.6909764
1.690253
1.6892843
1.688067
1.6865983
1.6848752
1.6828947
1.680654
1.6781506
1.6753821
1.6723464
1.6690425
1.6654704
1.6552931
1.6573591
1.6581664
1.6588104
1.6592421
1.6594553
1.6594499
1.6592228
1.6587702
1.6580885
1.6571744
1.6560245
1.6546354
1.6530037
1.6511259
1.6489986
1.6466184
1.6439822
1.641087
1.63793
1.6345094
1.6308243
1.6225807
1.6242632
1.6248023
1.6251882
1.6253728
1.62535
1.6251195
1.6246781
1.624022
1.6231472
1.6220502
1.6207273
1.6191746
1.6173883
1.6153645
1.6130992
1.6105886
1.6078289
1.6048165
1.601548
1.5980209
1.5942333
1.587775
1.5890866
1.5893676
1.5895052
1.5894526
1.5892036
1.5887579
1.5881123
1.5872625
1.5862046
1.5849347
1.5834487
1.5817424
1.5798115
1.5776517
1.5752586
1.5726278
1.569755
1.5666359
1.5632666
1.5596437
1.5557647
1.5509004
1.5518578
1.5518941
1.551796
1.5515187
1.5510561
1.5504074
1.5495696
1.5485383
1.5473091
1.5458779
1.5442404
1.5423918
1.5403277
1.5380433
1.5355336
1.5327937
1.529819
1.5266045
1.5231456
1.5194384
1.5154794
1.511978
1.5126022
1.5124099
1.5120913
1.5116043
1.5109426
1.5101055
1.5090896
1.5078904
1.5065035
1.5049243
1.5031481
1.50117
1.4989852
1.4965882
1.493974
1.4911372
1.4880723
1.4847742
1.4812376
1.4774577
1.4734305
1.4710284
1.4713442
1.4709417
1.4704199
1.4697402
1.468896
1.4678864
1.466708
1.4653561
1.4638261
1.4621131
1.4602122
1.4581182
1.4558257
1.4533293
1.4506232
1.4477016
1.4445589
1.4411891
1.4375866
1.4337459
1.429662
1.4280688
1.4281026
1.427509
1.4268029
1.4259494
1.424941
1.4237765
1.4224525
1.4209643
1.4193069
1.4174754
1.4154644
1.4132687
1.4108824
1.4082998
1.4055148
1.4025212
1.3993128
1.3958835
1.3922268
1.3883368
1.3842077
1.3831186
1.3828958
1.3821299
1.381261
1.3802539
1.3791004
1.3777996
1.3763478
1.3747403
1.3729719
1.3710376
1.3689317
1.3666487
1.3641825
1.3615271
1.3586761
1.3556229
1.352361
1.3488837
1.3451844
1.3412561
1.3370927
1.3361963
1.3357437
1.3348259
1.3338155
1.3326748
1.3313956
1.3299769
1.3284151
1.3267054
1.3248424
1.3228208
1.3206349
1.3182788
1.3157464
1.3130312
1.3101265
1.3070257
1.3037217
1.3002075
1.2964759
1.2925197
1.2883317
1.2873185
1.2866683
1.2856207
1.2844885
1.2832333
1.281847
1.2803283
1.2786737
1.276878
1.274936
1.2728419
1.2705901
1.2681743
1.2655883
1.2628253
1.2598785
1.2567409
1.2534051
1.2498638
1.2461095
1.2421341
1.23793
1.2364949
1.2356799
1.2345256
1.2332916
1.2319411
1.2304661
1.228865
1.2271341
1.2252683
1.223262
1.2211097
1.2188052
1.2163424
1.2137147
1.2109152
1.2079369
1.2047724
1.2014143
1.1978547
1.1940859
1.1900993
1.1858864
1.1837398
1.1827903
1.1815509
1.180235
1.1788082
1.1772624
1.1755958
1.1738047
1.1718838
1.1698277
1.1676304
1.165286
1.1627879
1.1601296
1.1573039
1.1543037
1.1511215
1.1477494
1.1441795
1.1404034
1.1364122
1.1321967
1.1290718
1.1280159
1.1267112
1.1253321
1.1238466
1.1222468
1.1205307
1.1186943
1.1167326
1.1146399
1.1124102
1.1100375
1.1075152
1.1048365
1.1019942
1.0989811
1.0957893
1.0924109
1.0888376
1.0850608
1.081071
1.0768582
1.072517
1.0713802
1.0700282
1.0686031
1.0670752
1.0654367
1.0636856
1.0618178
1.0598282
1.057711
1.0554605
1.0530703
1.0505338
1.0478441
1.0449941
1.0419761
1.0387824
1.0354047
1.0318345
1.0280629
1.0240798
1.0198747
1.014111
1.0129162
1.011533
1.010077
1.0085212
1.0068579
1.0050848
1.0031979
1.0011921
0.99906171
0.99680071
0.99440284
0.99186144
0.98916954
0.98631982
0.98330465
0.98011604
0.97674566
0.97318476
0.96942399
0.965453
0.96126032
0.95390166
0.95266866
0.95126838
0.9497949
0.94822376
0.94654773
0.94476423
0.94286931
0.94085781
0.93872407
0.93646208
0.93406553
0.93152771
0.92884158
0.92599977
0.92299455
0.91981783
0.91646114
0.91291551
0.90917134
0.90521781
0.90104274
0.89195083
0.89069646
0.88929096
0.88781135
0.88623579
0.88455747
0.88277365
0.88088036
0.87887246
0.8767443
0.87448987
0.8721028
0.86957637
0.86690349
0.86407671
0.86108825
0.85792993
0.85459318
0.85106887
0.84734715
0.84341682
0.83926497
0.82833556
0.82707363
0.82567255
0.82419634
0.82262561
0.82095394
0.81917851
0.81729532
0.81529926
0.81318467
0.81094553
0.80857542
0.80606759
0.80341491
0.80060988
0.79764466
0.79451105
0.79120038
0.78770345
0.78401021
0.78010913
0.77598666
0.76314898
0.76189074
0.76050198
0.75903691
0.75747878
0.7558215
0.75406208
0.75219649
0.75021965
0.74812586
0.74590907
0.74356281
0.74108028
0.73845429
0.73567733
0.73274153
0.72963867
0.72636009
0.72289654
0.71923789
0.7153724
0.7112859
0.69650351
0.6952576
0.69388782
0.69244064
0.69090171
0.68926557
0.68752905
0.68568794
0.68373711
0.68167086
0.67948304
0.67716711
0.67471618
0.67212303
0.66938013
0.66647962
0.66341332
0.66017264
0.65674842
0.65313053
0.64930716
0.64526366
0.62853721
0.62731029
0.62596513
0.62454194
0.62302858
0.62141995
0.61971282
0.61790285
0.61598473
0.61395261
0.61180024
0.60952096
0.6071078
0.60455348
0.60185047
0.59899098
0.59596695
0.59276998
0.5893911
0.58582039
0.5820461
0.57805328
0.55942728
0.55822454
0.55690955
0.5555164
0.55403507
0.55246076
0.55078989
0.549018
0.5471396
0.54514857
0.54303845
0.54080244
0.53843345
0.53592417
0.53326713
0.53045468
0.527479
0.52433204
0.52100521
0.51748899
0.51377191
0.5098389
0.48941455
0.48824048
0.48696193
0.48560583
0.48416399
0.48263179
0.48100531
0.47927962
0.47744896
0.47550699
0.47344691
0.47126172
0.46894425
0.46648721
0.46388327
0.46112509
0.45820529
0.45511631
0.45185022
0.44839813
0.44474909
0.44088811
0.41884773
0.41770712
0.41647325
0.41516335
0.41377066
0.4122906
0.4107187
0.40904952
0.4072768
0.40539383
0.4033936
0.40126889
0.39901249
0.3966173
0.39407633
0.39138273
0.3885298
0.38551078
0.3823186
0.37894525
0.37538055
0.37160977
0.34826206
0.34716173
0.3459845
0.34473376
0.34340376
0.34198966
0.34048629
0.33888758
0.33718674
0.33537663
0.33345002
0.33139975
0.3292188
0.32690046
0.32443839
0.32182657
0.31905921
0.31613059
0.31303469
0.30976455
0.30631094
0.30265952
0.27852382
0.2774756
0.27637319
0.27520079
0.27395319
0.27262503
0.27121037
0.26970247
0.26809414
0.26637803
0.26454699
0.2625942
0.26051335
0.25829859
0.25594459
0.25344645
0.2507995
0.24799912
0.24504034
0.24191723
0.23862148
0.23513923
0.21110047
0.2101259
0.2091253
0.20805928
0.20692274
0.20570986
0.20441412
0.20302848
0.20154576
0.19995904
0.19826189
0.19644855
0.194514
0.19245386
0.19026425
0.18794156
0.18548227
0.18288269
0.18013864
0.17724492
0.17419399
0.17097244
0.14852654
0.14766176
0.14679861
0.14587651
0.14489068
0.14383538
0.14270433
0.14149107
0.14018943
0.13879385
0.13729962
0.13570291
0.13400066
0.13219044
0.1302701
0.12823748
0.12609022
0.12382547
0.12143974
0.11892843
0.11628471
0.11349566
0.094861018
0.094155193
0.09346712
0.092732203
0.091946543
0.091105378
0.090203641
0.089236462
0.088199584
0.087089612
0.085904098
0.084641449
0.083300722
0.08188135
0.080382877
0.078804679
0.077145756
0.075404572
0.073578852
0.071665249
0.069658262
0.067546349
0.054709651
0.054206638
0.053721374
0.053208365
0.052664268
0.052085258
0.051467572
0.050808025
0.050104219
0.049354597
0.0485584
0.047715523
0.0468263
0.045891286
0.044911047
0.043885912
0.042816027
0.041701085
0.040540213
0.039331805
0.038072707
0.036755409
0.029659062
0.029361047
0.029072125
0.028770935
0.028454595
0.028120256
0.027765578
0.027388831
0.026988909
0.026565311
0.026118062
0.025647578
0.025154507
0.02463961
0.024103604
0.023547095
0.022970522
0.022374052
0.02175751
0.021120275
0.020461026
0.019776791
0.016548434
0.016397633
0.016249851
0.016097192
0.015937609
0.015769445
0.015591551
0.01540317
0.015203901
0.014993686
0.01477276
0.014541556
0.01430063
0.014050538
0.013791792
0.013524852
0.013250043
0.012967533
0.012677291
0.01237906
0.012072339
0.01175633
0.010512372
0.010441618
0.010371753
0.010299865
0.010224629
0.010145215
0.010061147
0.0099721396
0.0098780848
0.0097790689
0.0096753394
0.0095672564
0.009455206
0.0093395594
0.0092206617
0.0090987865
0.0089741223