/*--------------------------------*- C++ -*----------------------------------*\
| =========                 |                                                 |
| \\      /  F ield         | OpenFOAM: The Open Source CFD Toolbox           |
|  \\    /   O peration     | Version:  2406                                  |
|   \\  /    A nd           | Website:  www.openfoam.com                      |
|    \\/     M anipulation  |                                                 |
\*---------------------------------------------------------------------------*/
FoamFile
{
    version     2.0;
    format      ascii;
    arch        "LSB;label=32;scalar=64";
    class       volScalarField;
    location    "0.001";
    object      omega;
}
// * * * * * * * * * * * * * * * * * * * * * * * * * * * * * * * * * * * * * //

dimensions      [0 0 -1 0 0 0 0];

internalField   nonuniform List<scalar> 
23203
(
7276.1737
7048.4501
6827.4025
6605.1118
6382.6701
6161.0035
5940.8965
5723.0191
5507.9493
5296.1899
5088.1811
4884.3085
4684.9096
4490.2795
4300.679
4116.3473
3937.533
3764.5875
3598.2999
3441.1976
3293.1919
3150.5368
3011.6087
6811.4975
6602.658
6401.522
6199.7177
5997.9146
5796.7542
5596.8316
5398.6941
5202.8375
5009.7073
4819.7039
4633.186
4450.4761
4271.8666
4097.6292
3928.0318
3763.3695
3604.0254
3450.5687
3303.7595
3163.3788
3028.0594
2896.8263
6370.7185
6179.105
5996.1058
5812.9948
5630.1195
5447.8687
5266.6626
5086.916
4909.028
4733.3745
4560.3052
4390.1426
4223.184
4059.7055
3899.9679
3744.2275
3592.7495
3445.8236
3303.7582
3166.7818
3034.731
2907.1125
2783.742
5951.2696
5776.4143
5610.4739
5444.7121
5279.33
5114.5643
4950.6942
4788.0288
4626.8773
4467.5446
4310.3254
4155.4999
4003.3322
3854.0703
3707.9486
3565.1895
3426.0043
3290.5849
3159.0748
3031.4995
2907.6763
2787.3323
2670.9395
5552.6374
5393.9279
5244.0918
5094.5378
4945.3942
4796.8204
4649.0051
4502.1705
4356.5562
4212.4061
4069.9607
3929.4562
3791.119
3655.164
3521.7925
3391.1886
3263.5135
3138.8886
3017.3627
2898.844
2782.9678
2668.7615
5174.7442
5031.3886
4896.6776
4762.2366
4628.1683
4494.5784
4361.6085
4229.4178
4098.1887
3968.1121
3839.3852
3712.2014
3586.7502
3463.2128
3341.7582
3222.538
3105.6785
2991.2678
2879.335
2769.8235
2662.5735
2557.3881
4817.577
4688.6554
4568.0485
4447.6391
4327.5197
4207.7705
4088.4903
3969.8033
3851.8492
3734.7775
3618.743
3503.9052
3390.4197
3278.4371
3168.0983
3059.5296
2952.8366
2848.096
2745.3477
2644.5912
2545.801
2448.9939
4481.0696
4365.581
4258.0208
4150.5631
4043.293
3936.275
3829.5853
3723.314
3617.5678
3512.4674
3408.1365
3304.7011
3202.2899
3101.0269
3001.0293
2902.4042
2805.2436
2709.6211
2615.5891
2523.182
2432.4302
2343.3912
4165.0489
4061.9521
3966.3671
3870.7871
3775.2906
3679.9301
3584.7648
3489.8651
3395.3112
3301.194
3207.6148
3114.6756
3022.4786
2931.1272
2840.7193
2751.3458
2663.0885
2576.0179
2490.1923
2405.6616
2322.4736
2240.686
3869.2088
3777.4538
3692.7811
3608.0244
3523.2557
3438.5176
3353.8556
3269.3241
3184.986
3100.9105
3017.1739
2933.8599
2851.0518
2768.8324
2687.2846
2606.4857
2526.5078
2447.4162
2369.2697
2292.1212
2216.0214
2141.0217
3593.104
3511.6563
3436.8602
3361.9052
3286.8567
3211.7485
3136.6152
3061.4978
2986.4444
2911.5088
2836.75
2762.2305
2688.0191
2614.1834
2540.7902
2467.9062
2395.5941
2323.9123
2252.9154
2182.6545
2113.1774
2044.5291
3336.1565
3264.0159
3198.1025
3131.972
3065.6829
2999.261
2932.7316
2866.1247
2799.4758
2732.8258
2666.2197
2599.7064
2533.3369
2467.167
2401.2515
2335.6444
2270.4002
2205.5697
2141.2016
2077.3417
2014.0332
1951.3159
3097.6697
3033.884
2975.9135
2917.684
2859.2474
2800.6223
2741.8259
2682.8789
2623.8065
2564.6381
2505.4074
2446.1512
2386.9092
2327.7225
2268.6362
2209.6945
2150.941
2092.4201
2034.1734
1976.2408
1918.6598
1861.4651
2876.8477
2820.5229
2769.6171
2718.4259
2666.9944
2615.3351
2563.4581
2511.3761
2459.1056
2406.6667
2354.0829
2301.3808
2248.5901
2195.7421
2142.8696
2090.0086
2037.1943
1984.462
1931.8474
1879.3838
1827.103
1775.0346
2672.8174
2623.1237
2578.4713
2533.5204
2488.3099
2442.8467
2397.1349
2351.1805
2304.9925
2258.5831
2211.9673
2165.1631
2118.1909
2071.0735
2023.8354
1976.502
1929.1016
1881.662
1834.2107
1786.7758
1739.3834
1692.0579
2484.6504
2440.8254
2401.6843
2362.2427
2322.5338
2282.5599
2242.3197
2201.8136
2161.0445
2120.0177
2078.7412
2037.2253
1995.4828
1953.5288
1911.3801
1869.0549
1826.5724
1783.9542
1741.2216
1698.3953
1655.4967
1612.545
2311.3846
2272.7344
2238.4317
2203.8353
2168.9735
2133.8445
2098.4428
2062.7639
2026.8055
1990.5673
1954.0511
1917.2611
1880.2035
1842.8865
1805.3201
1767.5159
1729.4869
1691.2467
1652.8111
1614.1953
1575.4144
1536.4833
2152.044
2117.942
2087.8723
2057.5227
2026.9168
1996.0497
1964.9123
1933.4962
1901.7947
1869.8029
1837.5176
1804.9376
1772.0634
1738.8976
1705.4442
1671.7089
1637.6988
1603.4221
1568.8876
1534.1058
1499.0868
1463.8401
2005.6557
1975.5402
1949.1629
1922.5243
1895.6441
1868.5148
1841.1243
1813.4613
1785.5155
1757.2782
1728.742
1699.9012
1670.7519
1641.2915
1611.519
1581.435
1551.0414
1520.3412
1489.3384
1458.0374
1426.4442
1394.564
1871.2648
1844.6352
1821.4706
1798.0663
1774.4391
1750.5791
1726.4723
1702.1047
1677.4635
1652.5367
1627.3137
1601.7852
1575.9432
1549.7812
1523.2939
1496.4774
1469.3291
1441.8475
1414.032
1385.8829
1357.4009
1328.5876
1747.9456
1724.3585
1703.9831
1683.3917
1662.5981
1641.5911
1620.3551
1598.8743
1577.1336
1555.1188
1532.8166
1510.2147
1487.3021
1464.0688
1440.506
1416.606
1392.3623
1367.7696
1342.8233
1317.5198
1291.8557
1265.8287
1634.8112
1613.8756
1595.9174
1577.7677
1559.4378
1540.9157
1522.1844
1503.2271
1484.0269
1464.5679
1444.8348
1424.8131
1404.4891
1383.8502
1362.8845
1341.5815
1319.9313
1297.9251
1275.5552
1252.8143
1229.6959
1206.1937
1531.0193
1512.3918
1496.5257
1480.4923
1464.3013
1447.9397
1431.39
1414.6346
1397.6555
1380.4354
1362.9577
1345.2059
1327.1647
1308.8191
1290.1551
1271.1594
1251.8196
1232.1242
1212.0623
1191.6239
1170.7995
1149.5799
1435.777
1419.1574
1405.1
1390.899
1376.5623
1362.0767
1347.4245
1332.5874
1317.5469
1302.285
1286.7837
1271.0256
1254.9936
1238.6714
1222.043
1205.0932
1187.8075
1170.1719
1152.1734
1133.7992
1115.0375
1095.8764
1348.3432
1333.4694
1320.9747
1308.3588
1295.6284
1282.7701
1269.7663
1256.5985
1243.248
1229.696
1215.9242
1201.9142
1187.6479
1173.1078
1158.2767
1143.1377
1127.6746
1111.8718
1095.7141
1079.1869
1062.2759
1044.9674
1268.0292
1254.6733
1243.5283
1232.283
1220.9431
1209.4953
1197.9223
1186.2057
1174.3266
1162.2662
1150.0058
1137.5265
1124.8097
1111.8369
1098.59
1085.051
1071.2026
1057.0275
1042.5092
1027.6313
1012.3779
996.73341
1194.1986
1182.1629
1172.1835
1162.123
1151.9864
1141.7607
1131.4288
1120.9727
1110.3737
1099.6132
1088.6722
1077.5318
1066.1729
1054.5767
1042.7243
1030.5972
1018.1768
1005.4451
992.38428
978.97674
965.20523
951.05268
1126.266
1115.3789
1106.4064
1097.3704
1088.275
1079.1078
1069.8521
1060.4905
1051.0045
1041.3759
1031.5858
1021.6153
1011.4453
1001.0568
990.43048
979.54736
968.38841
956.9348
945.16787
933.06913
920.62026
907.80311
1063.6948
1053.808
1045.7059
1037.5559
1029.3617
1021.1113
1012.7888
1004.3771
995.8586
987.21511
978.42824
969.47929
960.34932
951.01921
941.46974
931.68162
921.63551
911.31216
900.69235
889.75696
878.48692
866.86326
1005.9949
996.9802
989.63095
982.24781
974.83396
967.37801
959.86473
952.27767
944.59976
936.81342
928.90068
920.84322
912.62239
904.21928
895.61475
886.78952
877.72419
868.39927
858.79526
848.89265
838.6719
828.11347
952.72006
944.46664
937.7694
931.05055
924.31292
917.5457
910.73439
903.86325
896.91584
889.87521
882.72394
875.44419
868.01773
860.42598
852.65009
844.67094
836.46922
828.02545
819.32005
810.33333
801.0455
791.43672
903.46446
895.87676
889.74499
883.60227
877.45121
871.28156
865.07958
858.83025
852.51783
846.12603
839.63806
833.03664
826.30405
819.42218
812.37256
805.13639
797.69459
790.02788
782.11674
773.9415
765.48235
756.71929
857.86015
850.85568
845.21513
839.57285
833.93122
828.28061
822.60799
816.89909
811.1389
805.31183
799.40174
793.39198
787.26543
781.0045
774.59121
768.00719
761.23374
754.25186
747.04229
739.58553
731.86186
723.85136
815.5738
809.0814
803.86843
798.66159
793.46309
788.26388
783.05166
777.8129
772.53332
767.19804
761.79161
756.29804
750.70085
744.98306
739.12723
733.11551
726.92966
720.55109
713.9609
707.13991
700.06863
692.72736
776.30385
770.26213
765.42219
760.59502
755.78268
750.97668
746.16545
741.33615
736.47525
731.56857
726.60137
721.55836
716.4237
711.18107
705.81363
700.3041
694.6348
688.78761
682.74411
676.4855
669.99268
663.24626
739.77767
734.13367
729.62003
725.12469
720.64957
716.18675
711.72532
707.25316
702.75744
698.22469
693.64088
688.99139
684.2611
679.43432
674.49488
669.42612
664.21093
658.83178
653.27075
647.50955
641.52955
635.31177
705.74897
700.45699
696.2296
692.02505
687.84516
683.68251
679.52684
675.36672
671.19
666.98391
662.73511
658.42969
654.05319
649.59061
645.02644
640.34469
635.52886
630.56205
625.42691
620.10571
614.58036
608.83239
673.99529
669.01589
665.04046
661.09151
657.17079
653.27136
649.38357
645.49666
641.59912
637.67887
633.72324
629.71899
625.65237
621.50905
617.2742
612.93249
608.46809
603.86473
599.1057
594.17387
589.05175
583.72142
644.31571
639.61486
635.862
632.1385
628.44601
624.77808
621.12563
617.4785
613.82583
610.15619
606.45756
602.71739
598.92257
595.05948
591.11395
587.07132
582.91645
578.63372
574.20708
569.62006
564.85577
559.89696
616.52878
612.07709
608.52164
604.99774
601.50698
598.04332
594.59824
591.16216
587.72484
584.27545
580.80261
577.29443
573.73846
570.12173
566.43075
562.65154
558.76964
554.77011
550.63756
546.35619
541.90979
537.28176
590.47058
586.24267
582.8631
579.51666
576.2049
572.92216
569.66046
566.41076
563.16339
559.90811
556.63418
553.3303
549.98468
546.58498
543.11841
539.57163
535.93086
532.18184
528.30988
524.29986
520.13624
515.80312
565.99298
561.96693
558.74479
555.55687
552.40465
549.28285
546.18395
543.09945
540.02023
536.93662
533.83844
530.715
527.55513
524.34714
521.07886
517.73763
514.31033
510.78338
507.14277
503.37407
499.46246
495.39272
542.96205
539.11892
536.03845
532.99285
529.98352
527.00554
524.05184
521.11442
518.18467
515.25344
512.31113
509.34762
506.35233
503.31418
500.22164
497.06269
493.82487
490.49526
487.06056
483.507
479.82048
475.98648
521.25668
517.5801
514.62784
511.7107
508.83004
505.98126
503.15772
500.35188
497.5556
494.76026
491.95677
489.13558
486.28667
483.39957
480.46333
477.46658
474.39749
471.24381
467.9929
464.6317
461.14679
457.52437
500.76727
497.2431
494.40755
491.60707
488.84296
486.11092
483.4047
480.7172
478.04075
475.3672
472.68797
469.99404
467.27593
464.52372
461.72709
458.87524
455.95699
452.96074
449.87448
446.68585
443.38212
439.95019
481.39467
478.01067
475.28205
472.58817
469.93027
467.30436
464.70455
462.12415
459.55591
456.99215
454.42477
451.84523
449.2446
446.6135
443.94216
441.22038
438.43759
435.58281
432.64469
429.61151
426.47123
423.21146
463.04911
459.79473
457.1647
454.56886
452.00843
449.47964
446.97698
444.49413
442.02425
439.56009
437.09401
434.61795
432.12347
429.60171
427.04345
424.43907
421.77857
419.05157
416.24736
413.35487
410.36272
407.2592
445.64938
442.51548
439.97698
437.47195
435.00155
432.56228
430.14894
427.75557
425.37573
423.00257
420.62887
418.24704
415.84911
413.42672
410.97118
408.47339
405.92392
403.313
400.63052
397.86602
395.00879
392.04777
429.12205
426.10071
423.64777
421.22742
418.8408
416.48463
414.15403
411.84336
409.54655
407.25715
404.96834
402.67296
400.36348
398.03204
395.67043
393.27009
390.82212
388.31731
385.74614
383.09878
380.36511
377.53474
413.40076
410.48513
408.1127
405.77188
403.46379
401.18535
398.93196
396.69832
394.47869
392.267
390.0568
387.84135
385.61354
383.36598
381.09093
378.78031
376.42577
374.01864
371.54994
369.01043
366.39061
363.68072
398.42567
395.60983
393.31366
391.04805
388.81408
386.60888
384.4281
382.26677
380.11946
377.98044
375.84364
373.70269
371.55092
369.38134
367.18667
364.95932
362.69143
360.37484
358.00113
355.56161
353.04736
350.44922
384.14292
381.4217
379.19825
377.00423
374.84072
372.70502
370.59306
368.50013
366.42113
364.35063
362.28292
360.21201
358.1316
356.03511
353.91571
351.76625
349.57934
347.34732
345.0623
342.71611
340.30039
337.80656
370.50418
367.87311
365.71938
363.59395
361.49786
359.42859
357.38231
355.35457
353.34058
351.3352
349.33307
347.32852
345.31564
343.28823
341.23987
339.16385
337.05322
334.9008
332.69917
330.44071
328.11756
325.7217
357.46626
354.92139
352.83491
350.77556
348.74437
346.739
344.75583
342.79068
340.83901
338.896
336.95658
335.01542
333.06695
331.10535
329.12457
327.11833
325.08009
323.00314
320.8805
318.70505
316.46944
314.16617
344.9907
342.5286
340.50727
338.51192
336.54356
334.6
332.67785
330.77316
328.88165
326.99878
325.11977
323.23959
321.35301
319.45457
317.53857
315.59912
313.63009
311.62518
309.57788
307.4815
305.32919
303.11392
333.04349
330.66109
328.70316
326.77006
324.86281
322.97937
321.11653
319.27059
317.4375
315.61298
313.79252
311.9714
310.1447
308.30728
306.45379
304.57869
302.67626
300.74059
298.76558
296.74497
294.67237
292.54123
321.59469
319.28927
317.39324
315.52094
313.67337
311.84863
310.04371
308.25512
306.47904
304.71144
302.94806
301.18447
299.41602
297.6379
295.84509
294.03238
292.19442
290.32566
288.42041
286.47282
284.4769
282.42656
310.61817
308.38727
306.55185
304.73909
302.94998
301.18277
299.43462
297.70224
295.98204
294.27019
292.56271
290.85541
289.14392
287.42372
285.6901
283.93818
282.16293
280.35917
278.52156
276.64465
274.72285
272.75045
300.09128
297.93265
296.15669
294.40236
292.67067
290.95998
289.26763
287.59051
285.92523
284.26819
282.61564
280.96362
279.30804
277.64464
275.969
274.27654
272.56255
270.82218
269.05043
267.24222
265.39231
263.49539
289.99454
287.90611
286.18855
284.49166
282.81643
281.16136
279.52396
277.90127
276.2901
274.68707
273.08863
271.49106
269.89051
268.28297
266.66429
265.03017
263.37621
261.69785
259.99044
258.24919
256.46923
254.64561
280.3113
278.29113
276.63096
274.99056
273.37093
271.77065
270.1874
268.6184
267.06063
265.51089
263.96584
262.42198
260.87569
259.32319
257.76058
256.18384
254.58882
252.97128
251.32683
249.65101
247.93928
246.18699
271.02745
269.07368
267.46993
265.88509
264.32018
262.7739
261.24405
259.72801
258.22294
256.72582
255.23349
253.74266
252.24991
250.7517
249.24436
247.72411
246.18706
244.62922
243.04649
241.43472
239.78962
238.10687
262.13103
260.24189
258.69355
257.16334
255.65228
254.15917
252.68195
251.21815
249.76509
248.31991
246.87963
245.44116
244.00126
242.55661
241.10375
239.63913
238.15911
236.65993
235.13776
233.58869
232.00873
230.39383
253.6119
251.78568
250.2917
248.81513
247.35701
245.91622
244.49083
243.07851
241.67672
240.28277
238.89385
237.50702
236.11926
234.72742
233.32824
231.91841
230.49447
229.05291
227.59015
226.1025
224.58623
223.03754
245.46139
243.6964
242.25568
240.83173
239.42556
238.03618
236.66175
235.30008
233.94877
232.60528
231.26696
229.93103
228.59463
227.25479
225.90847
224.55251
223.1837
221.79871
220.39418
218.96666
217.51263
216.02855
237.67193
235.96652
234.5779
233.20544
231.85019
230.51122
229.18681
227.87489
226.57319
225.27932
223.99075
222.70488
221.41899
220.1303
218.83592
217.53289
216.21817
214.88865
213.54114
212.17242
210.77918
209.35808
230.23672
228.58926
227.25149
225.92936
224.6239
223.33426
222.05884
220.79568
219.54264
218.29743
217.0577
215.82095
214.58465
213.34614
212.10271
210.85157
209.58985
208.31461
207.02287
205.71158
204.37763
203.01787
223.1494
221.55827
220.27004
218.99697
217.7401
216.49865
215.27111
214.05563
212.85018
211.65262
210.46069
209.27205
208.0843
206.89492
205.70137
204.50099
203.29108
202.06888
200.83156
199.57626
198.30004
196.99994
216.40373
214.86735
213.62729
212.40196
211.1924
209.9979
208.81704
207.64807
206.48908
205.33803
204.19279
203.05115
201.91081
200.76943
199.62456
198.47372
197.31436
196.14386
194.95955
193.75873
192.53863
191.29645
209.99335
208.51017
207.31685
206.13788
204.97429
203.82544
202.68999
201.5663
200.45254
199.34679
198.24704
197.15117
196.05704
194.9624
193.86496
192.76237
191.65219
190.53197
189.39918
188.25126
187.0856
185.89956
203.91155
202.48004
201.33199
200.19796
199.07896
197.9744
196.88304
195.80331
194.7335
193.67177
192.61622
191.56485
190.51563
189.46642
188.41505
187.3593
186.29688
185.22544
184.1426
183.04595
181.93299
180.80125
198.15104
196.76974
195.66549
194.57494
193.49912
192.43747
191.38882
190.35171
189.3245
188.30545
187.29276
186.28454
185.27886
184.27369
183.26698
182.25662
181.24044
180.21623
179.18172
178.13462
177.07259
175.99326
192.70389
191.37137
190.30944
189.26094
188.22686
187.20672
186.1994
185.20352
184.21753
183.23979
182.26858
181.30212
180.33855
179.37599
178.41247
177.44599
176.4745
175.4959
174.50804
173.50876
172.49582
171.46698
187.56136
186.27628
185.25522
184.24734
183.2536
182.27356
181.30618
180.35014
179.40399
178.46616
177.53503
176.6089
175.68601
174.76458
173.84275
172.9186
171.99021
171.05557
170.11265
169.1594
168.1937
167.21341
182.71392
181.47501
180.49342
179.52476
178.56998
177.62867
176.69986
175.78229
174.8746
173.97529
173.08283
172.1956
171.31195
170.43016
169.54849
168.66511
167.7782
166.88586
165.98616
165.07714
164.1568
163.22312
178.15122
176.95728
176.01382
175.08306
174.16591
173.26201
172.37043
171.49001
170.61942
169.75726
168.90208
168.05234
167.20648
166.36286
165.51983
164.67567
163.82862
162.9769
162.11869
161.25211
160.37527
159.48624
173.86214
172.71207
171.80549
170.91137
170.03061
169.16285
168.30723
167.46265
166.62787
165.80154
164.98229
164.16866
163.35917
162.55227
161.74638
160.93988
160.13111
159.31837
158.49992
157.674
156.8388
155.99249
169.83484
168.72767
167.85681
166.99817
166.15261
165.31982
164.49897
163.68902
162.88879
162.09703
161.31241
160.53356
159.75907
158.98747
158.21728
157.44694
156.67488
155.89949
155.11912
154.3321
153.53671
152.73123
166.05693
164.99176
164.15557
163.33136
162.51994
161.72102
160.93383
160.15737
159.39054
158.63214
157.88093
157.13559
156.39479
155.65715
154.92123
154.18559
153.44873
152.70912
151.96519
151.21536
150.45801
149.69149
162.51553
161.49158
160.68915
159.89842
159.12016
158.35412
157.59957
156.85557
156.12107
155.39492
154.67595
153.96293
153.25459
152.54961
151.84664
151.1443
150.44118
149.73582
149.02676
148.31247
147.59142
146.86206
159.19747
158.21407
157.44458
156.68649
155.94055
155.20652
154.48369
153.7712
153.06803
152.37312
151.68534
151.00352
150.32647
149.65294
148.98165
148.31129
147.64052
146.96798
146.29225
145.61191
144.92551
144.23156
156.08939
155.14598
154.40873
153.68258
152.96821
152.2654
151.5735
150.89166
150.21894
149.55433
148.89676
148.24513
147.5983
146.95509
146.31429
145.67466
145.03494
144.39383
143.74999
143.10209
142.44874
141.78853
153.17796
152.27407
151.56849
150.87366
150.19022
149.51797
148.85627
148.20434
147.56129
146.92614
146.2979
145.67552
145.05791
144.44398
143.83256
143.2225
142.6126
142.00161
141.38831
140.7714
140.14958
139.52154
150.44997
149.58522
148.91084
148.24683
147.59379
146.95151
146.31941
145.69673
145.08263
144.4762
143.87649
143.2825
142.69322
142.1076
141.52455
140.94297
140.36173
139.77966
139.19559
138.60832
138.0166
137.41921
147.89254
147.06663
146.42307
145.78946
145.16637
144.55357
143.95053
143.35653
142.77077
142.19239
141.62049
141.05413
140.49234
139.93414
139.37851
138.8244
138.27075
137.71646
137.16042
136.6015
136.03854
135.47036
145.49321
144.70589
144.09286
143.48931
142.89577
142.31205
141.73761
141.17179
140.61382
140.06288
139.51814
138.9787
138.44365
137.91206
137.38297
136.8554
136.32834
135.80076
135.27162
134.73984
134.20436
133.66405
143.24007
142.49116
141.90839
141.33462
140.77032
140.2153
139.66906
139.13096
138.60028
138.07626
137.55808
137.04492
136.53591
136.03018
135.52682
135.02491
134.5235
134.02163
133.51832
133.01256
132.50335
131.98963
141.12186
140.41119
139.85848
139.31423
138.77888
138.25224
137.73383
137.22304
136.7192
136.22158
135.72942
135.24193
134.75831
134.27772
133.79933
133.32226
132.84562
132.36852
131.89004
131.40924
130.92516
130.43684
139.12807
138.45547
137.93261
137.41764
136.91096
136.41238
135.92145
135.43758
134.96014
134.48844
134.02177
133.55938
133.10053
132.64442
132.19026
131.73725
131.28455
130.83133
130.37672
129.91985
129.45983
128.99577
137.24895
136.61423
136.12099
135.63505
135.15676
134.68592
134.2221
133.76475
133.31328
132.86703
132.42532
131.98748
131.55277
131.12048
130.68986
130.26015
129.83058
129.40037
128.96872
128.53482
128.09784
127.65695
135.47553
134.87846
134.41459
133.95738
133.50715
133.06369
132.6266
132.19536
131.7694
131.3481
130.93084
130.51696
130.10579
129.69667
129.28888
128.88173
128.47451
128.06647
127.6569
127.24502
126.83009
126.41134
133.79969
133.23995
132.80512
132.37629
131.95374
131.53726
131.12646
130.72086
130.31991
129.92303
129.52965
129.13914
128.75089
128.36426
127.9786
127.59327
127.2076
126.82092
126.43254
126.04178
125.64794
125.2503
132.21405
131.69122
131.28501
130.88413
130.48879
130.09881
129.7138
129.33331
128.95681
128.58379
128.21368
127.84591
127.4799
127.11507
126.75082
126.38654
126.02163
125.65546
125.28741
124.91686
124.54315
124.16566
130.71199
130.22552
129.84741
129.47393
129.10525
128.74118
128.38137
128.02538
127.67272
127.32289
126.97538
126.62966
126.28518
125.94142
125.5978
125.25379
124.90882
124.56232
124.21373
123.86247
123.50797
123.14964
129.28753
128.83673
128.48606
128.13931
127.79662
127.4578
127.12249
126.79029
126.46075
126.1334
125.80775
125.48332
125.15961
124.83611
124.51233
124.18776
123.86188
123.53419
123.20416
122.87128
122.53503
122.19489
127.93534
127.51931
127.1953
126.8745
126.557
126.24261
125.93101
125.6218
125.31457
125.00887
124.70427
124.4003
124.09651
123.79245
123.48765
123.18164
122.87398
122.56418
122.2518
121.93637
121.61742
121.29449
126.65058
126.26826
125.96998
125.67419
125.38095
125.09008
124.80127
124.51414
124.22831
123.94337
123.6589
123.3745
123.08973
122.80419
122.51746
122.22911
121.93873
121.64592
121.35024
121.05131
120.74869
120.44199
125.4289
125.07904
124.8054
124.53355
124.26353
123.99514
123.72808
123.46202
123.19659
122.93141
122.6661
122.40029
122.13358
121.8656
121.59597
121.32433
121.05028
120.77348
120.49355
120.21014
119.92288
119.63142
124.26637
123.94751
123.69731
123.44821
123.20023
122.95316
122.70674
122.46063
122.21451
121.96802
121.72081
121.47255
121.22287
120.97144
120.71793
120.46199
120.2033
119.94153
119.67637
119.4075
119.13461
118.85739
123.15946
122.86995
122.64187
122.41422
122.18699
121.96
121.73298
121.50564
121.27766
121.04872
120.81851
120.5867
120.35299
120.11707
119.87864
119.6374
119.39306
119.14534
118.89396
118.63865
118.37915
118.11521
122.10503
121.84308
121.63567
121.42806
121.22021
121.01196
120.80306
120.59322
120.38217
120.1696
119.95523
119.73877
119.51994
119.29847
119.07408
118.84652
118.61554
118.38088
118.14231
117.89961
117.65255
117.40092
121.10036
120.86401
120.67574
120.48668
120.29679
120.10591
119.91378
119.72017
119.5248
119.3274
119.12771
118.92547
118.72044
118.51235
118.30098
118.0861
117.86749
117.64494
117.41825
117.18723
116.95169
116.71147
120.14316
119.93032
119.75963
119.58762
119.41424
119.23931
119.06262
118.88393
118.70298
118.51955
118.33338
118.14425
117.95193
117.75619
117.55684
117.35367
117.1465
116.93514
116.71943
116.49922
116.27436
116.0447
119.23159
119.04015
118.88547
118.729
118.57065
118.41028
118.24767
118.0826
117.91485
117.74419
117.5704
117.39328
117.21262
117.02824
116.83994
116.64756
116.45094
116.24993
116.04439
115.8342
115.61924
115.3994
118.36419
118.19207
118.05185
117.9094
117.76465
117.61745
117.46759
117.31487
117.1591
117.00005
116.83755
116.6714
116.50141
116.32743
116.14929
115.96685
115.77997
115.58853
115.39242
115.19155
114.98582
114.77516
117.53984
117.38499
117.25769
117.1278
116.99524
116.85986
116.72147
116.5799
116.43494
116.28642
116.13415
115.97798
115.81773
115.65327
115.48446
115.31117
115.1333
114.95075
114.76343
114.57127
114.3742
114.17219
116.75758
116.61801
116.50218
116.38345
116.26173
116.13689
116.00876
115.87716
115.74193
115.60289
115.45988
115.31277
115.1614
115.00565
114.84541
114.68057
114.51105
114.33677
114.15768
113.97371
113.78484
113.59104
116.01643
115.89029
115.78453
115.67563
115.5635
115.448
115.32898
115.20628
115.07974
114.94922
114.81456
114.67564
114.53234
114.38456
114.23219
114.07515
113.91339
113.74685
113.57549
113.39927
113.2182
113.03226
115.31513
115.2007
115.10376
115.00347
114.89975
114.79248
114.68151
114.5667
114.4479
114.32499
114.19783
114.06631
113.93033
113.78981
113.64466
113.49484
113.3403
113.18099
113.01692
112.84806
112.67443
112.49604
114.65197
114.54772
114.45843
114.36564
114.26928
114.16922
114.06533
113.95748
113.84554
113.72939
113.60893
113.48406
113.3547
113.22079
113.08227
112.9391
112.79125
112.63873
112.48152
112.31965
112.15314
111.98202
114.02465
113.9292
113.84655
113.76029
113.67033
113.57656
113.47886
113.37711
113.2712
113.16104
113.04653
112.9276
112.8042
112.67627
112.54378
112.40673
112.26511
112.11892
111.96819
111.81295
111.65324
111.4891
113.43026
113.34244
113.26555
113.18494
113.10053
113.01221
112.91989
112.82344
112.7228
112.61787
112.5086
112.39494
112.27684
112.1543
112.02731
111.89587
111.76001
111.61974
111.47512
111.32618
111.17297
111.01554
112.86549
112.78427
112.71237
112.63664
112.55701
112.47337
112.38564
112.29375
112.19762
112.09721
111.99248
111.88342
111.77003
111.65231
111.53029
111.404
111.27348
111.13879
110.99996
110.85704
110.71009
110.55913
112.32682
112.25132
112.18372
112.11216
112.03656
111.95684
111.87295
111.78484
111.69248
111.59586
111.49498
111.38988
111.28058
111.16715
111.04964
110.92811
110.80262
110.67323
110.53998
110.40293
110.26209
110.11747
111.81088
111.74033
111.67636
111.60824
111.53591
111.45933
111.37846
111.29332
111.20392
111.11031
111.01256
110.91075
110.80499
110.69536
110.58198
110.46492
110.34427
110.22008
110.09239
109.96121
109.82652
109.68828
111.31472
111.24839
111.18735
111.12188
111.05196
110.97758
110.8988
110.81568
110.72833
110.63687
110.54148
110.4423
110.33953
110.23332
110.1238
110.01111
109.89531
109.77644
109.6545
109.52944
109.40117
109.26955
110.83604
110.77319
110.71423
110.65045
110.58187
110.50859
110.43073
110.34849
110.2621
110.17183
110.07795
109.98075
109.88051
109.77745
109.67175
109.56354
109.45288
109.33974
109.22403
109.10561
108.98424
108.85969
110.37326
110.31306
110.25513
110.1918
110.12321
110.04958
109.97119
109.88844
109.80174
109.71155
109.61834
109.52255
109.42454
109.32463
109.223
109.11975
109.01485
108.90816
108.79944
108.68837
108.57456
108.45759
109.92557
109.867
109.80875
109.74429
109.67392
109.59809
109.51738
109.43246
109.34404
109.25285
109.15961
109.06491
108.96923
108.87289
108.77604
108.67863
108.58046
108.48119
108.38034
108.27739
108.17174
108.06275
109.49292
109.4347
109.3744
109.30677
109.23242
109.15218
109.06708
108.97822
108.88677
108.79382
108.70032
108.60702
108.51442
108.4227
108.33182
108.24147
108.15114
108.06021
107.96795
107.87359
107.77634
107.67541
109.07549
109.01603
108.95164
108.87847
108.79763
108.71062
108.61912
108.52494
108.42978
108.33515
108.24218
108.1516
108.06368
107.97826
107.89484
107.81268
107.7309
107.64859
107.56487
107.47887
107.38977
107.29664
108.67243
108.60995
108.53948
108.45854
108.36906
108.27351
108.17456
108.07488
107.97678
107.88205
107.79176
107.70628
107.62529
107.54796
107.47312
107.39949
107.32587
107.25125
107.17488
107.09614
107.01442
106.92888
108.28185
108.21525
108.13789
108.04842
107.94985
107.8459
107.74048
107.63709
107.5385
107.44643
107.3615
107.28332
107.21073
107.14208
107.0756
107.00957
106.94265
106.87394
106.80305
106.72989
106.65442
106.57613
107.90044
107.83028
107.74762
107.65137
107.54568
107.43574
107.32664
107.2225
107.12613
107.03883
106.9606
106.89023
106.82578
106.76499
106.70568
106.64591
106.58427
106.52
106.45316
106.38423
106.31378
106.24187
107.52524
107.45565
107.37139
107.27179
107.1625
107.05034
106.94115
106.83915
106.74684
106.66503
106.59305
106.52912
106.47088
106.41583
106.36164
106.30641
106.24886
106.18836
106.12508
106.05982
105.99359
105.92699
107.15919
107.09201
107.00828
106.90761
106.79766
106.68634
106.57951
106.48113
106.39343
106.31686
106.25033
106.19175
106.13858
106.08825
106.03842
105.98727
105.93354
105.87665
105.81682
105.75502
105.69255
105.63036
106.808
106.74364
106.66107
106.56087
106.45239
106.34371
106.24038
106.14611
106.06292
105.99103
105.92912
105.875
105.82602
105.77961
105.73353
105.68598
105.63572
105.58217
105.52558
105.46703
105.40799
105.34964
106.47194
106.41063
106.32957
106.23091
106.12499
106.01968
105.92013
105.82994
105.75096
105.68328
105.62547
105.57519
105.52982
105.48684
105.44403
105.39968
105.35256
105.30209
105.24851
105.19296
105.13706
105.08219
106.14939
106.09146
106.01224
105.91572
105.81279
105.71095
105.61516
105.52887
105.45386
105.39007
105.33595
105.28913
105.24697
105.20703
105.16718
105.12574
105.08148
105.03383
104.98306
104.93036
104.87741
104.82576
105.83872
105.78425
105.707
105.61283
105.51295
105.41457
105.32242
105.23988
105.16861
105.10842
105.0577
105.01402
104.97481
104.93766
104.90048
104.86165
104.82001
104.77501
104.7269
104.67683
104.62661
104.57786
105.53737
105.48624
105.41092
105.31912
105.22224
105.12718
105.03854
104.9596
104.89191
104.83515
104.78762
104.7469
104.71037
104.6757
104.64093
104.6045
104.56527
104.52269
104.477
104.42932
104.38147
104.33517
105.24083
105.19278
105.11931
105.02992
104.93604
104.84429
104.75913
104.68374
104.61954
104.56606
104.5215
104.48344
104.44932
104.41688
104.38422
104.34987
104.31276
104.27231
104.22868
104.18301
104.13712
104.0928
104.942
104.89679
104.8252
104.73833
104.64759
104.55925
104.47762
104.40576
104.34492
104.29454
104.25272
104.21701
104.18494
104.15434
104.12344
104.09083
104.05546
104.01676
103.97489
103.93088
103.88654
103.84369
104.63117
104.58857
104.51899
104.43489
104.34753
104.26279
104.1848
104.11646
104.05889
104.01138
103.972
103.93831
103.90792