/*--------------------------------*- C++ -*----------------------------------*\
| =========                 |                                                 |
| \\      /  F ield         | OpenFOAM: The Open Source CFD Toolbox           |
|  \\    /   O peration     | Version:  2406                                  |
|   \\  /    A nd           | Website:  www.openfoam.com                      |
|    \\/     M anipulation  |                                                 |
\*---------------------------------------------------------------------------*/
FoamFile
{
    version     2.0;
    format      ascii;
    arch        "LSB;label=32;scalar=64";
    class       volScalarField;
    location    "0.001";
    object      T;
}
// * * * * * * * * * * * * * * * * * * * * * * * * * * * * * * * * * * * * * //

dimensions      [0 0 0 1 0 0 0];

internalField   nonuniform List<scalar> 
23203
(
293.06525
293.05982
293.05391
293.04773
293.04135
293.0348
293.02811
293.02129
293.01438
293.00741
293.00039
292.99335
292.98631
292.97928
292.9723
292.96537
292.95851
292.95175
292.94508
292.93854
292.9321
292.92577
292.91956
293.05014
293.04561
293.04054
293.03516
293.02961
293.02388
293.01798
293.01196
293.00583
292.99961
292.99332
292.98699
292.98062
292.97425
292.96789
292.96156
292.95527
292.94904
292.94288
292.93681
292.93083
292.92494
292.91915
293.03478
293.03098
293.02676
293.0222
293.0174
293.01245
293.00733
293.00206
292.99668
292.9912
292.98562
292.97998
292.97429
292.96856
292.96281
292.95707
292.95134
292.94565
292.94001
292.93442
292.9289
292.92345
292.91808
293.01939
293.01626
293.01275
293.00897
293.00494
293.00069
292.99628
292.99173
292.98707
292.98229
292.97741
292.97243
292.96738
292.96228
292.95713
292.95197
292.9468
292.94164
292.93651
292.93141
292.92635
292.92135
292.91641
293.00411
293.0016
292.99872
292.99559
292.99229
292.98878
292.985
292.9811
292.97713
292.97302
292.96879
292.96445
292.96001
292.9555
292.95094
292.94634
292.94171
292.93708
292.93244
292.92782
292.92323
292.91867
292.98914
292.98716
292.98485
292.9823
292.97956
292.97668
292.97367
292.97046
292.96705
292.96353
292.95988
292.95612
292.95226
292.94832
292.94431
292.94025
292.93615
292.93202
292.92787
292.92373
292.91959
292.91548
292.97459
292.9731
292.97131
292.96929
292.9671
292.96476
292.96229
292.95966
292.95683
292.95385
292.95075
292.94755
292.94423
292.94082
292.93734
292.93379
292.93019
292.92654
292.92287
292.91919
292.9155
292.91182
292.96059
292.9595
292.95815
292.9566
292.95489
292.95303
292.95102
292.94887
292.94658
292.94412
292.94152
292.93882
292.93601
292.9331
292.9301
292.92703
292.9239
292.92072
292.91751
292.91426
292.911
292.90774
292.9472
292.94645
292.94547
292.94431
292.94301
292.94156
292.93998
292.93825
292.9364
292.93442
292.9323
292.93004
292.92768
292.92523
292.92269
292.92007
292.91738
292.91464
292.91185
292.90902
292.90616
292.90329
292.93448
292.93402
292.93334
292.93251
292.93154
292.93046
292.92924
292.92789
292.92642
292.92484
292.92314
292.92132
292.91936
292.91732
292.91519
292.91298
292.9107
292.90835
292.90596
292.90352
292.90105
292.89855
292.92249
292.92224
292.92182
292.92125
292.92057
292.91978
292.91887
292.91785
292.91671
292.91547
292.91412
292.91268
292.91112
292.90944
292.90767
292.90583
292.90392
292.90194
292.89991
292.89783
292.89571
292.89356
292.91124
292.91117
292.91093
292.91058
292.91013
292.90959
292.90894
292.90819
292.90734
292.90639
292.90534
292.9042
292.90298
292.90166
292.90022
292.8987
292.89711
292.89547
292.89377
292.89201
292.89022
292.88838
292.90075
292.9008
292.90072
292.90053
292.90027
292.89992
292.89948
292.89896
292.89834
292.89764
292.89684
292.89596
292.89501
292.89398
292.89286
292.89164
292.89034
292.88899
292.88758
292.88612
292.88461
292.88307
292.89102
292.89115
292.89118
292.89112
292.89099
292.8908
292.89053
292.89018
292.88976
292.88926
292.88868
292.88802
292.88729
292.88649
292.88563
292.88469
292.88365
292.88255
292.8814
292.8802
292.87896
292.87767
292.88202
292.88221
292.88231
292.88234
292.88231
292.88223
292.88209
292.88188
292.88161
292.88127
292.88087
292.88039
292.87985
292.87925
292.87858
292.87786
292.87708
292.87621
292.87528
292.87431
292.87329
292.87224
292.87374
292.87395
292.8741
292.87418
292.87423
292.87423
292.87418
292.87408
292.87392
292.87371
292.87344
292.87311
292.87273
292.87228
292.87178
292.87123
292.87063
292.86998
292.86925
292.86847
292.86766
292.8668
292.86614
292.86636
292.86652
292.86664
292.86673
292.86678
292.86679
292.86677
292.86669
292.86657
292.86641
292.86619
292.86593
292.86561
292.86525
292.86484
292.86438
292.86389
292.86334
292.86273
292.86209
292.86141
292.85919
292.85939
292.85955
292.85968
292.85979
292.85987
292.85992
292.85994
292.85992
292.85987
292.85978
292.85965
292.85947
292.85926
292.859
292.8587
292.85836
292.85799
292.85758
292.85713
292.85662
292.85609
292.85285
292.85303
292.85317
292.85329
292.8534
292.85349
292.85355
292.85359
292.85361
292.8536
292.85355
292.85348
292.85337
292.85322
292.85305
292.85284
292.85259
292.85231
292.852
292.85167
292.85129
292.85087
292.84708
292.84722
292.84734
292.84743
292.84752
292.8476
292.84767
292.84771
292.84774
292.84774
292.84773
292.84769
292.84762
292.84752
292.8474
292.84725
292.84707
292.84687
292.84664
292.84638
292.8461
292.84579
292.84186
292.84195
292.84202
292.84208
292.84214
292.8422
292.84224
292.84228
292.8423
292.84231
292.8423
292.84227
292.84222
292.84216
292.84207
292.84196
292.84183
292.84167
292.8415
292.8413
292.84108
292.84086
292.83714
292.83717
292.83719
292.83721
292.83723
292.83725
292.83727
292.83728
292.83728
292.83728
292.83726
292.83723
292.83718
292.83713
292.83705
292.83696
292.83686
292.83674
292.8366
292.83644
292.83628
292.8361
292.83288
292.83286
292.83282
292.83279
292.83277
292.83274
292.83272
292.83269
292.83267
292.83263
292.83259
292.83255
292.83249
292.83243
292.83235
292.83227
292.83217
292.83207
292.83195
292.83182
292.83168
292.83154
292.82906
292.82897
292.82888
292.8288
292.82872
292.82864
292.82857
292.8285
292.82844
292.82837
292.8283
292.82822
292.82814
292.82806
292.82797
292.82788
292.82778
292.82767
292.82755
292.82743
292.82731
292.82717
292.82565
292.82549
292.82534
292.8252
292.82506
292.82493
292.82481
292.82469
292.82458
292.82446
292.82435
292.82424
292.82413
292.82402
292.8239
292.82378
292.82367
292.82354
292.82342
292.82329
292.82317
292.82304
292.82261
292.82239
292.82218
292.82197
292.82178
292.82159
292.82141
292.82124
292.82107
292.82091
292.82075
292.82059
292.82044
292.82029
292.82014
292.81999
292.81984
292.81969
292.81955
292.8194
292.81926
292.81912
292.81992
292.81964
292.81936
292.81909
292.81884
292.81859
292.81836
292.81813
292.8179
292.81769
292.81748
292.81727
292.81707
292.81687
292.81668
292.81649
292.8163
292.81612
292.81594
292.81577
292.8156
292.81544
292.81755
292.81721
292.81688
292.81655
292.81623
292.81593
292.81563
292.81534
292.81506
292.81478
292.81452
292.81426
292.814
292.81375
292.81351
292.81327
292.81304
292.81282
292.8126
292.81239
292.81219
292.81199
292.8155
292.81509
292.8147
292.81431
292.81394
292.81357
292.81321
292.81286
292.81252
292.81219
292.81186
292.81154
292.81123
292.81093
292.81063
292.81034
292.81006
292.80979
292.80952
292.80927
292.80902
292.80879
292.81373
292.81327
292.81281
292.81237
292.81194
292.81151
292.81109
292.81068
292.81028
292.80989
292.8095
292.80912
292.80875
292.80839
292.80804
292.80769
292.80735
292.80703
292.80671
292.8064
292.80611
292.80582
292.81223
292.81171
292.8112
292.8107
292.81021
292.80973
292.80925
292.80878
292.80832
292.80787
292.80742
292.80698
292.80655
292.80613
292.80572
292.80531
292.80491
292.80453
292.80415
292.80379
292.80344
292.80311
292.81098
292.81041
292.80986
292.8093
292.80875
292.80821
292.80768
292.80715
292.80663
292.80612
292.80561
292.80511
292.80462
292.80414
292.80366
292.8032
292.80274
292.80229
292.80186
292.80144
292.80103
292.80063
292.80998
292.80936
292.80875
292.80815
292.80755
292.80695
292.80637
292.80578
292.8052
292.80463
292.80407
292.80351
292.80296
292.80241
292.80187
292.80134
292.80083
292.80032
292.79982
292.79933
292.79886
292.79841
292.8092
292.80854
292.80789
292.80723
292.80658
292.80594
292.8053
292.80466
292.80403
292.8034
292.80277
292.80216
292.80154
292.80094
292.80034
292.79975
292.79917
292.79859
292.79803
292.79748
292.79695
292.79643
292.80864
292.80794
292.80724
292.80655
292.80585
292.80516
292.80446
292.80378
292.80309
292.80241
292.80173
292.80105
292.80038
292.79971
292.79905
292.7984
292.79776
292.79712
292.79649
292.79588
292.79528
292.7947
292.8083
292.80756
292.80682
292.80608
292.80534
292.8046
292.80386
292.80312
292.80238
292.80165
292.80091
292.80018
292.79945
292.79873
292.79801
292.7973
292.79659
292.79589
292.7952
292.79453
292.79386
292.79321
292.80815
292.80738
292.8066
292.80582
292.80504
292.80426
292.80347
292.80269
292.8019
292.80112
292.80033
292.79955
292.79877
292.79799
292.79721
292.79644
292.79567
292.79491
292.79416
292.79341
292.79268
292.79196
292.8082
292.80739
292.80658
292.80577
292.80495
292.80413
292.8033
292.80247
292.80164
292.80081
292.79998
292.79914
292.79831
292.79747
292.79664
292.79581
292.79498
292.79416
292.79335
292.79254
292.79175
292.79096
292.80844
292.8076
292.80676
292.80591
292.80506
292.8042
292.80334
292.80247
292.80159
292.80072
292.79984
292.79895
292.79807
292.79718
292.7963
292.79541
292.79453
292.79365
292.79278
292.79191
292.79105
292.7902
292.80886
292.80799
292.80712
292.80625
292.80536
292.80447
292.80357
292.80266
292.80175
292.80083
292.79991
292.79898
292.79805
292.79711
292.79618
292.79524
292.7943
292.79337
292.79244
292.79151
292.79059
292.78968
292.80945
292.80857
292.80767
292.80677
292.80585
292.80493
292.804
292.80306
292.80211
292.80115
292.80019
292.79922
292.79824
292.79726
292.79628
292.79529
292.7943
292.79332
292.79233
292.79134
292.79036
292.78939
292.81022
292.80931
292.8084
292.80747
292.80653
292.80558
292.80462
292.80364
292.80266
292.80167
292.80067
292.79966
292.79865
292.79762
292.79659
292.79556
292.79452
292.79348
292.79244
292.79141
292.79037
292.78934
292.81115
292.81023
292.80929
292.80834
292.80738
292.80641
292.80542
292.80442
292.80341
292.80238
292.80135
292.80031
292.79925
292.79819
292.79712
292.79604
292.79496
292.79387
292.79278
292.79169
292.7906
292.78951
292.81225
292.81131
292.81036
292.80939
292.80841
292.80741
292.8064
292.80538
292.80434
292.80329
292.80222
292.80115
292.80006
292.79896
292.79785
292.79674
292.79561
292.79448
292.79334
292.7922
292.79106
292.78992
292.81351
292.81256
292.81159
292.81061
292.80961
292.80859
292.80756
292.80651
292.80545
292.80438
292.80328
292.80218
292.80106
292.79993
292.79879
292.79763
292.79647
292.7953
292.79412
292.79293
292.79174
292.79055
292.81493
292.81396
292.81298
292.81199
292.81097
292.80994
292.80889
292.80783
292.80674
292.80565
292.80453
292.8034
292.80225
292.80109
292.79992
292.79873
292.79753
292.79632
292.7951
292.79388
292.79264
292.79141
292.81649
292.81552
292.81453
292.81353
292.8125
292.81146
292.81039
292.80931
292.80821
292.80709
292.80596
292.8048
292.80363
292.80245
292.80125
292.80003
292.7988
292.79755
292.7963
292.79503
292.79376
292.79248
292.81821
292.81723
292.81624
292.81522
292.81419
292.81313
292.81206
292.81096
292.80985
292.80872
292.80756
292.80639
292.8052
292.80399
292.80276
292.80152
292.80026
292.79899
292.7977
292.7964
292.79509
292.79377
292.82007
292.8191
292.8181
292.81708
292.81603
292.81497
292.81389
292.81278
292.81166
292.81051
292.80934
292.80815
292.80694
292.80572
292.80447
292.8032
292.80192
292.80062
292.7993
292.79797
292.79663
292.79527
292.82208
292.8211
292.8201
292.81908
292.81803
292.81696
292.81587
292.81476
292.81363
292.81247
292.81129
292.81009
292.80887
292.80762
292.80636
292.80507
292.80377
292.80244
292.8011
292.79974
292.79837
292.79698
292.82423
292.82325
292.82225
292.82123
292.82018
292.81911
292.81802
292.8169
292.81576
292.81459
292.8134
292.81219
292.81096
292.8097
292.80842
292.80712
292.8058
292.80446
292.80309
292.80171
292.80031
292.7989
292.82652
292.82554
292.82454
292.82352
292.82247
292.8214
292.82031
292.81919
292.81805
292.81688
292.81568
292.81447
292.81322
292.81196
292.81067
292.80935
292.80802
292.80666
292.80528
292.80388
292.80246
292.80102
292.82894
292.82797
292.82698
292.82596
292.82491
292.82385
292.82275
292.82163
292.82049
292.81932
292.81812
292.8169
292.81565
292.81438
292.81308
292.81176
292.81041
292.80904
292.80765
292.80623
292.80479
292.80333
292.8315
292.83053
292.82955
292.82853
292.82749
292.82643
292.82534
292.82423
292.82308
292.82191
292.82072
292.8195
292.81825
292.81697
292.81567
292.81434
292.81299
292.81161
292.8102
292.80877
292.80732
292.80585
292.83418
292.83323
292.83225
292.83125
292.83021
292.82916
292.82807
292.82696
292.82583
292.82466
292.82347
292.82225
292.821
292.81972
292.81842
292.81709
292.81573
292.81435
292.81294
292.8115
292.81004
292.80855
292.837
292.83606
292.83509
292.83409
292.83307
292.83202
292.83095
292.82985
292.82872
292.82756
292.82637
292.82515
292.82391
292.82264
292.82134
292.82001
292.81865
292.81726
292.81585
292.81441
292.81294
292.81144
292.83994
292.83901
292.83806
292.83707
292.83606
292.83503
292.83396
292.83287
292.83175
292.8306
292.82942
292.82821
292.82698
292.82571
292.82441
292.82309
292.82173
292.82035
292.81893
292.81749
292.81602
292.81452
292.84301
292.8421
292.84115
292.84018
292.83919
292.83816
292.83711
292.83603
292.83492
292.83378
292.83262
292.83142
292.83019
292.82893
292.82765
292.82633
292.82498
292.8236
292.82219
292.82075
292.81928
292.81778
292.84621
292.84531
292.84438
292.84343
292.84244
292.84143
292.8404
292.83933
292.83824
292.83711
292.83596
292.83477
292.83356
292.83231
292.83103
292.82973
292.82839
292.82702
292.82561
292.82418
292.82272
292.82122
292.84952
292.84864
292.84773
292.84679
292.84583
292.84484
292.84382
292.84277
292.84169
292.84058
292.83944
292.83827
292.83707
292.83584
292.83457
292.83328
292.83195
292.83059
292.8292
292.82778
292.82632
292.82483
292.85296
292.8521
292.85121
292.85029
292.84934
292.84837
292.84736
292.84633
292.84527
292.84418
292.84306
292.84191
292.84073
292.83951
292.83826
292.83699
292.83567
292.83433
292.83295
292.83154
292.8301
292.82862
292.85652
292.85568
292.8548
292.85391
292.85298
292.85203
292.85104
292.85003
292.84899
292.84792
292.84682
292.84569
292.84453
292.84333
292.8421
292.84084
292.83955
292.83822
292.83686
292.83547
292.83404
292.83258
292.8602
292.85938
292.85853
292.85765
292.85675
292.85581
292.85485
292.85386
292.85285
292.8518
292.85072
292.84961
292.84847
292.84729
292.84609
292.84485
292.84358
292.84227
292.84093
292.83956
292.83815
292.8367
292.864
292.8632
292.86237
292.86152
292.86064
292.85973
292.85879
292.85783
292.85683
292.85581
292.85475
292.85367
292.85255
292.8514
292.85022
292.849
292.84775
292.84647
292.84515
292.8438
292.84242
292.841
292.86792
292.86714
292.86634
292.86551
292.86465
292.86377
292.86286
292.86192
292.86095
292.85995
292.85892
292.85786
292.85677
292.85565
292.85449
292.8533
292.85208
292.85082
292.84953
292.84821
292.84685
292.84545
292.87196
292.87121
292.87043
292.86962
292.86879
292.86793
292.86705
292.86613
292.86519
292.86422
292.86322
292.86219
292.86113
292.86003
292.8589
292.85774
292.85655
292.85532
292.85406
292.85277
292.85143
292.85006
292.87612
292.87539
292.87464
292.87386
292.87306
292.87222
292.87137
292.87048
292.86957
292.86863
292.86765
292.86665
292.86562
292.86456
292.86346
292.86233
292.86117
292.85997
292.85874
292.85748
292.85618
292.85484
292.8804
292.8797
292.87897
292.87822
292.87744
292.87664
292.87581
292.87496
292.87407
292.87316
292.87222
292.87125
292.87025
292.86922
292.86815
292.86706
292.86593
292.86477
292.86357
292.86234
292.86107
292.85977
292.8848
292.88413
292.88343
292.8827
292.88196
292.88118
292.88038
292.87956
292.87871
292.87783
292.87692
292.87598
292.87501
292.87402
292.87299
292.87193
292.87083
292.86971
292.86855
292.86735
292.86613
292.86486
292.88932
292.88868
292.88801
292.88731
292.88659
292.88585
292.88508
292.88429
292.88347
292.88262
292.88175
292.88084
292.87991
292.87895
292.87796
292.87693
292.87588
292.87479
292.87367
292.87252
292.87133
292.8701
292.89397
292.89335
292.89271
292.89204
292.89135
292.89064
292.88991
292.88914
292.88836
292.88755
292.88671
292.88584
292.88494
292.88402
292.88306
292.88208
292.88107
292.88002
292.87894
292.87782
292.87668
292.87549
292.89874
292.89815
292.89753
292.8969
292.89624
292.89556
292.89486
292.89413
292.89338
292.8926
292.89179
292.89096
292.89011
292.88922
292.88831
292.88736
292.88639
292.88538
292.88435
292.88328
292.88217
292.88104
292.90362
292.90306
292.90248
292.90187
292.90125
292.9006
292.89993
292.89924
292.89852
292.89778
292.89701
292.89622
292.8954
292.89456
292.89368
292.89278
292.89185
292.89089
292.8899
292.88887
292.88781
292.88672
292.90863
292.9081
292.90755
292.90697
292.90638
292.90576
292.90513
292.90447
292.90379
292.90308
292.90235
292.9016
292.90082
292.90002
292.89919
292.89833
292.89744
292.89653
292.89558
292.8946
292.8936
292.89255
292.91376
292.91326
292.91273
292.91219
292.91163
292.91105
292.91045
292.90982
292.90918
292.90851
292.90782
292.90711
292.90637
292.90561
292.90482
292.90401
292.90317
292.9023
292.9014
292.90047
292.89951
292.89852
292.91901
292.91854
292.91804
292.91753
292.917
292.91645
292.91589
292.9153
292.91469
292.91406
292.91341
292.91274
292.91205
292.91133
292.91058
292.90981
292.90902
292.9082
292.90735
292.90647
292.90556
292.90463
292.92437
292.92393
292.92347
292.92299
292.92249
292.92197
292.92144
292.92089
292.92032
292.91973
292.91912
292.91849
292.91784
292.91716
292.91646
292.91574
292.91499
292.91422
292.91342
292.9126
292.91174
292.91086
292.92985
292.92943
292.929
292.92855
292.92809
292.92761
292.92711
292.92659
292.92606
292.92551
292.92494
292.92435
292.92374
292.92311
292.92246
292.92178
292.92108
292.92036
292.91961
292.91884
292.91804
292.91722
292.93543
292.93505
292.93464
292.93423
292.93379
292.93335
292.93288
292.93241
292.93191
292.9314
292.93087
292.93032
292.92975
292.92917
292.92856
292.92793
292.92728
292.92661
292.92592
292.9252
292.92445
292.92368
292.94112
292.94076
292.94039
292.94
292.9396
292.93919
292.93876
292.93832
292.93786
292.93739
292.9369
292.93639
292.93587
292.93533
292.93477
292.93419
292.93359
292.93297
292.93232
292.93166
292.93097
292.93026
292.9469
292.94657
292.94622
292.94587
292.9455
292.94512
292.94473
292.94432
292.9439
292.94346
292.94302
292.94255
292.94207
292.94157
292.94106
292.94053
292.93998
292.93941
292.93882
292.93821
292.93758
292.93693
292.95276
292.95246
292.95214
292.95182
292.95148
292.95113
292.95077
292.9504
292.95002
292.94962
292.94921
292.94879
292.94836
292.9479
292.94744
292.94695
292.94645
292.94594
292.9454
292.94485
292.94427
292.94368
292.9587
292.95842
292.95813
292.95784
292.95753
292.95722
292.95689
292.95656
292.95621
292.95585
292.95548
292.9551
292.95471
292.9543
292.95388
292.95344
292.95299
292.95253
292.95204
292.95155
292.95103
292.95049
292.9647
292.96444
292.96418
292.96392
292.96364
292.96336
292.96306
292.96276
292.96245
292.96213
292.9618
292.96146
292.96111
292.96074
292.96037
292.95998
292.95958
292.95917
292.95874
292.95829
292.95784
292.95736
292.97074
292.97051
292.97027
292.97003
292.96979
292.96953
292.96927
292.96901
292.96873
292.96845
292.96816
292.96785
292.96754
292.96722
292.96689
292.96655
292.9662
292.96584
292.96546
292.96507
292.96467
292.96426
292.9768
292.9766
292.97639
292.97618
292.97596
292.97573
292.9755
292.97527
292.97503
292.97478
292.97453
292.97426
292.97399
292.97372
292.97343
292.97314
292.97283
292.97252
292.9722
292.97186
292.97152
292.97116
292.98287
292.98269
292.98251
292.98232
292.98213
292.98193
292.98173
292.98153
292.98132
292.98111
292.98089
292.98067
292.98044
292.9802
292.97996
292.97971
292.97945
292.97919
292.97892
292.97864
292.97835
292.97805
292.98892
292.98876
292.9886
292.98844
292.98827
292.9881
292.98793
292.98776
292.98758
292.9874
292.98722
292.98703
292.98684
292.98665
292.98645
292.98624
292.98604
292.98582
292.9856
292.98537
292.98514
292.98489
292.99492
292.99478
292.99464
292.9945
292.99436
292.99422
292.99407
292.99393
292.99378
292.99364
292.99349
292.99334
292.99319
292.99303
292.99287
292.99271
292.99255
292.99238
292.99221
292.99203
292.99185
292.99167
293.00084
293.00072
293.0006
293.00048
293.00037
293.00025
293.00013
293.00001
292.9999
292.99978
292.99967
292.99955
292.99943
292.99932
292.9992
292.99908
292.99896
292.99884
292.99871
292.99859
292.99846
292.99833
293.00665
293.00654
293.00645
293.00635
293.00625
293.00616
293.00607
293.00598
293.00589
293.0058
293.00571
293.00563
293.00555
293.00547
293.00539
293.00531
293.00523
293.00515
293.00508
293.005
293.00492
293.00484
293.0123
293.01222
293.01214
293.01206
293.01198
293.01191
293.01184
293.01177
293.01171
293.01165
293.0116
293.01154
293.01149
293.01145
293.01141
293.01136
293.01133
293.01129
293.01126
293.01123
293.0112
293.01118
293.01777
293.0177
293.01763
293.01757
293.01751
293.01746
293.01741
293.01737
293.01733
293.0173
293.01727
293.01725
293.01723
293.01722
293.01721
293.0172
293.0172
293.01721
293.01722
293.01723
293.01725
293.01728
293.023
293.02294
293.02289
293.02284
293.0228
293.02277
293.02274
293.02272
293.0227
293.02269
293.02269
293.02269
293.02271
293.02272
293.02275
293.02278
293.02282
293.02286
293.02291
293.02297
293.02303
293.0231
293.02794
293.0279
293.02786
293.02782
293.0278
293.02778
293.02777
293.02777
293.02777
293.02779
293.02781
293.02784
293.02788
293.02792
293.02798
293.02804
293.02811
293.02819
293.02828
293.02838
293.02848
293.02859
293.03255
293.03251
293.03249
293.03247
293.03245
293.03245
293.03246
293.03247
293.0325
293.03253
293.03257
293.03263
293.03269
293.03276
293.03284
293.03294
293.03304
293.03315
293.03327
293.03341
293.03355
293.03371
293.03677
293.03674
293.03672
293.03671
293.03671
293.03672
293.03674
293.03678
293.03682
293.03687
293.03693
293.037
293.03709
293.03719
293.03729
293.03741
293.03754
293.03769
293.03784
293.03801
293.03819
293.03838
293.04054
293.04052
293.04051
293.04051
293.04052
293.04054
293.04057
293.04062
293.04068
293.04074
293.04082
293.04092
293.04102
293.04114
293.04127
293.04141
293.04156
293.04173
293.04192
293.04211
293.04232
293.04255
293.0438
293.04378
293.04378
293.04379
293.04381
293.04385
293.04389
293.04395
293.04402
293.0441
293.04419
293.0443
293.04442
293.04455
293.0447
293.04486
293.04504
293.04523
293.04544
293.04566
293.04589
293.04615
293.04648
293.04648
293.04649
293.04651
293.04654
293.04658
293.04663
293.0467
293.04677
293.04687
293.04697
293.04709
293.04722
293.04737
293.04753
293.04771
293.0479
293.04811
293.04833
293.04858
293.04884
293.04911
293.04854
293.04854
293.04856
293.04858
293.04862
293.04867
293.04873
293.0488
293.04888
293.04898
293.04909
293.04921
293.04935
293.04951
293.04968
293.04987
293.05007
293.05029
293.05053
293.05079
293.05107
293.05136
293.04988
293.04989
293.04991
293.04993
293.04997
293.05002
293.05008
293.05015
293.05024
293.05034
293.05045
293.05058
293.05073
293.05089
293.05106
293.05126
293.05147
293.0517
293.05196
293.05223
293.05252
293.05283
293.05039
293.0504
293.05043
293.05046
293.0505
293.05055
293.05061
293.05068
293.05077
293.05087
293.05099
293.05112
293.05127
293.05143
293.05161
293.05181
293.05203
293.05227
293.05253
293.05281
293.05311
293.05343
293.05015
293.05014
293.05014
293.05016
293.05019
293.05023
293.05028
293.05035
293.05043
293.05053
293.05064
293.05077
293.05092
293.05108
293.05126
293.05147
293.05169
293.05193
293.05219
293.05247
293.05278
293.0531
293.04896
293.04894
293.04893
293.04893
293.04895
293.04898
293.04902
293.04908
293.04916
293.04925
293.04935
293.04948
293.04962
293.04978
293.04995
293.05015
293.05037
293.05061
293.05087
293.05115
293.05145
293.05178
293.04677
293.04674
293.04672
293.04671
293.04671
293.04673
293.04677
293.04681
293.04688
293.04695
293.04705
293.04716
293.04729
293.04744
293.04761
293.0478
293.04801
293.04824
293.04849
293.04877
293.04906
293.04939
293.04352
293.04348
293.04344
293.04342
293.04341
293.04341
293.04343
293.04347
293.04351
293.04358
293.04366
293.04376
293.04388
293.04401
293.04417
293.04434
293.04454
293.04475
293.04499
293.04525
293.04554
293.04585
293.03913
293.03908
293.03903
293.03899
293.03896
293.03895
293.03895
293.03897
293.039
293.03905
293.03911
293.03919
293.03929
293.03941
293.03954
293.0397
293.03988
293.04008
293.0403
293.04054
293.04081
293.0411
293.03354
293.03346
293.03339
293.03334
293.0333
293.03327
293.03325
293.03325
293.03326
293.03328
293.03333
293.03339
293.03347
293.03356
293.03367
293.03381
293.03396
293.03414
293.03433
293.03455
293.03479
293.03505
293.02665
293.02656
293.02647
293.0264
293.02633
293.02628
293.02625
293.02622
293.02621
293.02622
293.02623
293.02627
293.02632
293.02639
293.02648
293.02658
293.02671
293.02685
293.02702
293.0272
293.02741
293.02764
293.0184
293.01828
293.01818
293.01808
293.018
293.01793
293.01787
293.01782
293.01778
293.01776
293.01775
293.01776
293.01778
293.01782
293.01788
293.01795
293.01804
293.01815
293.01827
293.01842
293.01859
293.01878
293.00869
293.00855
293.00843
293.00831
293.0082
293.00811
293.00802
293.00795
293.00788
293.00783
293.00779
293.00777
293.00776
293.00776
293.00778
293.00781
293.00786
293.00793
293.00801
293.00811
293.00823
293.00837
292.99743
292.99727
292.99713
292.99699
292.99686
292.99673
292.99662
292.99652
292.99642
292.99634
292.99627
292.99621
292.99616
292.99612
292.9961
292.99609
292.99609
292.99611
292.99614
292.99618
292.99624
292.99632
292.98451
292.98434
292.98417
292.984
292.98385
292.98369
292.98355
292.98342
292.98329
292.98317
292.98306
292.98296
292.98286
292.98278
292.98271
292.98265
292.9826
292.98256
292.98253
292.98251
292.9825
292.9825
292.96981
292.96961
292.96942
292.96923
292.96904
292.96886
292.96868
292.96851
292.96835
292.96819
292.96803
292.96789
292.96775
292.96761
292.96748
292.96736
292.96725
292.96714
292.96704
292.96694
292.96685
292.96677
292.95316
292.95293
292.95271
292.95249
292.95228
292.95206
292.95185
292.95164
292.95143
292.95122
292.95102
292.95082
292.95062
292.95043
292.95023
292.95004
292.94985
292.94966
292.94948
292.94929
292.94911
292.94892
292.93433
292.93408
292.93383
292.93358
292.93332
292.93307
292.93281
292.93256
292.9323
292.93204
292.93178
292.93151
292.93125
292.93098
292.93071
292.93044
292.93016
292.92988
292.92959
292.92929
292.92899
292.92868
292.91303
292.91275
292.91246
292.91217
292.91187
292.91157
292.91126
292.91095
292.91063
292.91031
292.90998
292.90964
292.90929
292.90893
292.90857
292.90819
292.90781
292.90741
292.90699
292.90656
292.90612
292.90565
292.88881
292.88849
292.88816
292.88782
292.88747
292.88711
292.88674
292.88635
292.88596
292.88556
292.88514
292.8847
292.88426
292.88379
292.88331
292.88281
292.88228
292.88173
292.88116
292.88056
292.87993
292.87926
292.86106
292.86068
292.86029
292.85989
292.85946
292.85903
292.85857
292.8581
292.85761
292.8571
292.85657
292.85602
292.85544
292.85483
292.85419
292.85353
292.85283
292.85209
292.85131
292.85049
292.84962
292.8487
292.82888
292.82843
292.82796
292.82746
292.82695
292.82641
292.82584
292.82526
292.82464
292.82399
292.82331
292.8226
292.82185
292.82106
292.82022
292.81934
292.8184
292.81742
292.81637
292.81526
292.81408
292.81283
292.79118
292.79064
292.79006
292.78946
292.78883
292.78816
292.78745
292.78671
292.78593
292.7851
292.78423
292.78331
292.78234
292.7813
292.78021
292.77905
292.77782
292.77652
292.77514
292.77367
292.7721
292.77044
292.74736
292.74671
292.74601
292.74527
292.74449
292.74366
292.74279
292.74187
292.7409
292.73987
292.73879
292.73764
292.73643
292.73515
292.7338
292.73237
292.73086
292.72926
292.72757
292.72579
292.7239
292.72191
292.69958
292.69886
292.69808
292.69724
292.69636
292.69544
292.69448
292.69346
292.6924
292.69129
292.69012
292.6889
292.68761
292.68627
292.68486
292.68338
292.68183
292.6802
292.67851
292.67674
292.6749
292.67296
292.65496
292.65424
292.6535
292.65273
292.65193
292.65109
292.65022
292.64931
292.64837
292.64738
292.64636
292.6453
292.64419
292.64305
292.64186
292.64062
292.63934
292.63801
292.63664
292.63522
292.63376
292.63225
292.6201
292.6195
292.61888
292.61824
292.61758
292.61689
292.61618
292.61545
292.6147
292.61392
292.61312
292.6123
292.61144
292.61057
292.60967
292.60874
292.60778
292.6068
292.6058
292.60476
292.60371
292.60262
292.5949
292.59442
292.5939
292.59338
292.59283
292.59228
292.59171
292.59112
292.59052
292.5899
292.58927
292.58863
292.58796
292.58729
292.58659
292.58588
292.58514
292.58439
292.58363
292.58284
292.58204
292.58121
292.5762
292.57579
292.57535
292.5749
292.57443
292.57396
292.57348
292.57298
292.57248
292.57197
292.57144
292.5709
292.57035
292.56979
292.56921
292.56862
292.56801
292.56738
292.56675
292.56609
292.56542
292.56473
292.56145
292.56109
292.5607
292.5603
292.55989
292.55947
292.55905
292.55862
292.55818
292.55773
292.55727
292.5568
292.55632
292.55582
292.55531
292.55479
292.55425
292.5537
292.55314
292.55256
292.55197
292.55136
292.54944
292.54912
292.54877
292.54841
292.54804
292.54767
292.5473
292.54691
292.54652
292.54612
292.54571
292.54529
292.54486
292.54441
292.54396
292.54348
292.543
292.5425
292.542
292.54148
292.54094
292.54039
292.53987
292.53959
292.53927
292.53895
292.53862
292.53829
292.53795
292.5376
292.53725
292.53689
292.53652
292.53615
292.53576
292.53536
292.53496
292.53455
292.53412
292.53369
292.53324
292.53278
292.53232
292.53183
292.5329
292.53264
292.53235
292.53205
292.53176
292.53146
292.53117
292.53087
292.53058
292.53028
292.52997
292.52966
292.52935
292.52902
292.52868
292.52834
292.52799
292.52763
292.52725
292.52687
292.52648
292.52608
292.52885
292.52865
292.52843
292.5282
292.52797
292.52774
292.52751
292.52728
292.52703
292.52679
292.52653
292.52628
292.52601
292.52574
292.52547
292.52519
292.5249
292.5246
292.52429
292.52398
292.52366
292.52334
292.52792
292.52774
292.52754
292.52735
292.52717
292.52699
292.52681
292.52664
292.52646
292.52628