/*--------------------------------*- C++ -*----------------------------------*\
| =========                 |                                                 |
| \\      /  F ield         | OpenFOAM: The Open Source CFD Toolbox           |
|  \\    /   O peration     | Version:  2406                                  |
|   \\  /    A nd           | Website:  www.openfoam.com                      |
|    \\/     M anipulation  |                                                 |
\*---------------------------------------------------------------------------*/
FoamFile
{
    version     2.0;
    format      ascii;
    arch        "LSB;label=32;scalar=64";
    class       volScalarField;
    location    "0.037";
    object      k;
}
// * * * * * * * * * * * * * * * * * * * * * * * * * * * * * * * * * * * * * //

dimensions      [0 2 -2 0 0 0 0];

internalField   nonuniform List<scalar> 
8260
(
648.69449
627.56417
598.60484
563.02688
521.70052
475.44423
425.41021
373.04849
319.97487
267.66671
217.44486
170.4314
127.47647
89.238204
56.150786
28.970899
10.602796
3.3182985
1.6378704
1.1218023
0.85423498
0.71036568
0.60883034
0.54422422
0.50160673
0.46904169
0.44601657
0.42977143
0.41865417
0.41152896
0.40784715
633.1286
609.33721
579.07217
543.34875
502.71849
457.80263
409.54007
359.16302
308.11707
257.78222
209.33617
163.86223
122.20775
85.066395
52.88809
26.663651
9.3058739
3.0050937
1.5643902
1.0952924
0.84161761
0.70243414
0.60396603
0.54176889
0.50030115
0.46828678
0.44553409
0.42946645
0.41845793
0.41140482
0.40776809
610.21109
585.3274
555.00506
519.9438
480.58137
437.44907
391.33759
343.30462
294.60986
246.50404
200.08685
156.38023
116.2221
80.342648
49.228861
24.088633
8.0856602
2.738639
1.522358
1.0820454
0.83506716
0.69822327
0.60134287
0.54047343
0.49961989
0.46789287
0.44527408
0.42929447
0.41831926
0.41129804
0.40768121
579.05371
554.2556
524.93373
491.48535
454.2036
413.52954
370.13596
324.93415
279.01868
233.51199
189.44811
147.7925
109.37259
74.956785
45.09654
21.234147
6.8842181
2.4935209
1.4733497
1.0612223
0.82393997
0.69088334
0.5966567
0.53808926
0.49834879
0.46715456
0.44477703
0.42896461
0.41809577
0.41114913
0.40758218
540.07853
516.4499
488.92132
457.83067
423.33082
385.75104
345.64189
303.77342
261.08816
218.58733
177.2346
137.9445
101.53522
68.812967
40.425822
18.105886
5.7217946
2.2651534
1.4256185
1.0418164
0.81406931
0.68451974
0.59265706
0.53603615
0.49725703
0.46651926
0.44435256
0.42868599
0.41788981
0.41099926
0.40746926
493.80938
472.20525
447.17243
419.06281
387.93069
353.99837
317.69091
279.6357
240.62714
201.5458
163.2789
126.6898
92.590193
61.82049
35.165151
14.760178
4.7060187
2.0573113
1.3751311
1.0180671
0.80136161
0.67609816
0.58725911
0.53318884
0.49572539
0.46562092
0.44374696
0.42828671
0.41761478
0.41081121
0.40734032
441.06771
422.13034
400.16054
375.52479
348.21522
318.36519
286.28157
252.45212
217.52492
182.25536
147.44429
113.89901
82.429813
53.901463
29.292986
11.335119
3.8033451
1.8728254
1.3233448
0.99350139
0.78864033
0.66778238
0.58202856
0.53036478
0.49419858
0.46472372
0.443143
0.42789262
0.41733361
0.41060956
0.40719324
383.25757
367.35108
348.78813
327.9257
304.71545
279.21926
251.63951
222.33291
191.80461
160.67933
129.65873
99.485672
70.980365
45.012758
22.861965
8.0790419
3.0396148
1.7231115
1.2685954
0.96525465
0.77353237
0.65768001
0.57565313
0.5268155
0.49225087
0.46357699
0.44236528
0.42738229
0.41698344
0.41036658
0.40702557
322.23297
309.43841
294.3641
277.34136
258.29478
237.22907
214.25704
189.61608
163.67476
136.92495
109.95828
83.443597
58.235919
35.191265
16.110417
5.5764198
2.4503717
1.5930261
1.2100014
0.93520978
0.7577672
0.64718742
0.56923738
0.52311583
0.49014911
0.46235908
0.44153681
0.42684118
0.41660743
0.41009878
0.40683465
260.01692
250.19118
238.46535
225.13668
210.11384
193.35913
174.91011
154.89906
133.57087
111.29147
88.539894
65.902222
44.309277
24.664462
9.7010622
3.7771953
2.0249123
1.4710071
1.147049
0.90157007
0.73955086
0.63490063
0.56183342
0.51872433
0.48753106
0.4608673
0.4405183
0.4261702
0.41615042
0.40978214
0.40661723
198.74638
191.55559
182.89373
172.95022
161.63181
148.87729
134.66903
119.0566
102.18515
84.316174
65.829071
47.215239
29.583311
14.083606
5.5012856
2.6468755
1.765443
1.3554924
1.0796153
0.86573206
0.72017757
0.62198406
0.55432281
0.51416783
0.48459183
0.45921892
0.43940404
0.42543592
0.41564336
0.40942864
0.4063691
140.48398
135.48801
129.45454
122.45957
114.40335
105.20178
94.798359
83.190439
70.464167
56.822187
42.587949
28.103977
15.042639
6.8231329
3.2361903
2.0273087
1.5688308
1.2312271
1.0100986
0.82459863
0.69853924
0.60761071
0.54578605
0.50900816
0.48110206
0.45720324
0.43807072
0.42455274
0.4150334
0.40901492
0.40605976
87.240319
84.078902
80.189007
75.594548
70.211261
63.957078
56.767263
48.640953
39.677737
30.117478
20.512832
12.477318
6.6128892
3.4584615
2.2148727
1.7294781
1.3677295
1.1217257
0.93490988
0.7834723
0.67506836
0.59235736
0.53700991
0.50366875
0.47735558
0.45488854
0.43659116
0.42358034
0.41435107
0.40855002
0.40566201
41.56768
39.690654
37.450094
34.908935
32.004328
28.671368
24.898729
20.775262
16.434686
12.072933
8.0948287
5.0070189
3.1019754
2.1660318
1.7593053
1.4546061
1.2107486
0.99863965
0.86070485
0.73510693
0.65128894
0.57654848
0.52669311
0.49768516
0.47310755
0.45211812
0.43482106
0.42243685
0.41355612
0.40801029
0.40519719
14.981407
14.274636
13.45089
12.521496
11.425263
10.149847
8.7926874
7.3793717
5.9387705
4.5439553
3.3230307
2.4103778
1.8955055
1.6384526
1.4907198
1.2585754
1.0279573
0.89984011
0.78742715
0.69148204
0.62477328
0.55900672
0.51709537
0.49125315
0.46841985
0.44906345
0.43280524
0.42117241
0.41269446
0.40740725
0.40468108
5.0670824
4.8963266
4.6648765
4.3927017
4.0725756
3.705038
3.3067229
2.8962167
2.4697664
2.0812029
1.7502036
1.5325231
1.4185278
1.3526776
1.1927551
1.0425925
0.91225431
0.79743698
0.72119959
0.64421979
0.59870034
0.54127256
0.50625867
0.48411139
0.46312323
0.44561293
0.43039725
0.41968664
0.41173851
0.40672332
0.40413337
2.0274011
1.9952417
1.9404336
1.8677716
1.7828188
1.686878
1.583437
1.4784694
1.3684797
1.2840648
1.2139697
1.1542877
1.1211319
1.022224
0.99299866
0.92196511
0.78700861
0.71972337
0.66373173
0.60949384
0.56949653
0.52298153
0.49692969
0.47606674
0.45739832
0.44175471
0.42788856
0.41806553
0.41070444
0.40597807
0.40352437
1.1390392
1.1288927
1.1135836
1.0942301
1.0724916
1.054015
1.037225
1.0133477
0.99157217
0.96423053
0.96112932
0.94144967
0.8722651
0.84050585
0.79750758
0.76064278
0.71757576
0.64701272
0.61312261
0.56910982
0.54322469
0.50914685
0.48594648
0.46739021
0.45113747
0.43756342
0.42499875
0.41625546
0.40956157
0.4051514
0.40283763
0.85216564
0.84648072
0.84126986
0.83550948
0.82877067
0.81906088
0.80881631
0.79763213
0.79019489
0.78415944
0.76730164
0.73983446
0.73691786
0.70263065
0.67390222
0.6702539
0.64323386
0.60459692
0.5680804
0.54399527
0.52127528
0.49336009
0.47577308
0.45909764
0.4448188
0.43300547
0.42220784
0.41429733
0.40833541
0.40425441
0.40211266
0.68821394
0.68707147
0.68568569
0.68442016
0.68482925
0.68744601
0.68934724
0.68772105
0.67915856
0.66057726
0.64489
0.64147714
0.62593205
0.62508883
0.60862841
0.57769689
0.57124565
0.55213443
0.52489322
0.51461469
0.49654414
0.48020616
0.46740045
0.44980474
0.43795306
0.4283678
0.41896391
0.41228552
0.40699787
0.40328282
0.40131173
0.59692227
0.59717426
0.59639959
0.5938382
0.58917881
0.58232202
0.57573208
0.57217232
0.56961127
0.56937614
0.57143468
0.56873447
0.55630199
0.54803399
0.54674317
0.53358494
0.51577575
0.50981334
0.49110229
0.48823095
0.47867402
0.46718154
0.45589238
0.44202358
0.43160871
0.42328052
0.41595601
0.41022823
0.40552682
0.40227012
0.4004922
0.51531654
0.51554152
0.51531844
0.51462799
0.51389578
0.51409195
0.51636076
0.51758668
0.51651758
0.51280418
0.50762849
0.50158591
0.50440839
0.49660556
0.48857762
0.49389121
0.48819102
0.4772694
0.47068636
0.4647624
0.45604399
0.45332487
0.44267018
0.43322956
0.42513922
0.41840639
0.41230391
0.40821744
0.40406781
0.40119339
0.39961839
0.47554038
0.47615199
0.47618833
0.47576547
0.47485712
0.47321729
0.4704077
0.46781843
0.46682443
0.46603176
0.46479274
0.46488893
0.46154519
0.46401962
0.46138263
0.45854628
0.45727088
0.45379181
0.45062626
0.44774455
0.44017706
0.43615838
0.43148523
0.42526591
0.41839567
0.41371698
0.40974319
0.40598123
0.40257561
0.40011863
0.39879038
0.44125793
0.44159761
0.44161539
0.44143585
0.44118252
0.44091615
0.44085556
0.44163792
0.44237614
0.44232946
0.44188803
0.44019412
0.43979228
0.4361927
0.43661787
0.43375627
0.43423547
0.43105041
0.42993682
0.4272419
0.42653927
0.42516614
0.4207049
0.41664143
0.41249204
0.41023805
0.40668936
0.40371091
0.40131004
0.39908469
0.39797241
0.42485987
0.42520653
0.42522375
0.42499102
0.42456639
0.4240457
0.42342439
0.42255124
0.42183023
0.42154108
0.42114147
0.42070279
0.42047632
0.42120587
0.42152155
0.4211531
0.42065586
0.41921306
0.41848763
0.41615048
0.41541386
0.41393092
0.41459068
0.4118157
0.40869414
0.40649917
0.40497857
0.40214854
0.40001014
0.39817688
0.39719457
0.41079842
0.41094827
0.41095372
0.41089592
0.41084373
0.4108185
0.41080541
0.41080487
0.41083847
0.4109337
0.41114868
0.41134733
0.41155165
0.41175458
0.41182892
0.41176057
0.41131139
0.40974926
0.40753921
0.40858089
0.40778242
0.40858003
0.40837281
0.40786875
0.40656052
0.4045176
0.40304615
0.40070903
0.39885933
0.39740399
0.39655093
0.40473832
0.40488514
0.40492819
0.40491606
0.40488545
0.40484674
0.40480625
0.40479146
0.40485093
0.40494794
0.40523776
0.40578181
0.40646346
0.40695092
0.40766478
0.40721299
0.40693318
0.40628985
0.40435856
0.40562172
0.40525679
0.40560522
0.40520352
0.40540501
0.40499302
0.40299207
0.40130858
0.39974062
0.39797318
0.39673453
0.39607432
0.39921661
0.39929346
0.39933872
0.39938043
0.39945371
0.39956893
0.39973138
0.39995313
0.40026623
0.40078176
0.40137529
0.40189531
0.40216532
0.402211
0.40189066
0.40204334
0.40231068
0.40299321
0.40335711
0.40328876
0.4043506
0.40348534
0.4030746
0.40175974
0.40174231
0.40083886
0.39947276
0.3983924
0.39725989
0.39636547
0.39584253
0.39734575
0.39739948
0.39743928
0.39747994
0.39753234
0.39759833
0.39767685
0.39776626
0.39786972
0.39803153
0.39823218
0.3984741
0.39873553
0.39892816
0.39897081
0.39905962
0.39920767
0.39932217
0.39948979
0.39957588
0.39976706
0.39959932
0.39953954
0.39960716
0.3992877
0.39908489
0.39846153
0.39770997
0.39690706
0.39620515
0.39572946
0.39663607
0.39666863
0.39669547
0.39672607
0.39676624
0.39681728
0.39687985
0.39695638
0.39704632
0.39714847
0.3972824
0.39747626
0.39773124
0.39789445
0.39794138
0.39797099
0.39802122
0.39808358
0.39817887
0.39828391
0.39839068
0.39842207
0.3984042
0.39852835
0.39842217
0.39830446
0.39795151
0.39744571
0.39680951
0.39632724
0.39615418
0.39661281
0.39662261
0.39663634
0.39665076
0.3966675
0.39669003
0.39672132
0.3967645
0.39682271
0.39690007
0.39700515
0.39717412
0.39741719
0.39753361
0.39755331
0.3975788
0.39763425
0.39768255
0.39777671
0.39787829
0.39799539
0.39807041
0.39805284
0.3980926
0.39814435
0.39801342
0.39780917
0.3975019
0.39729693
0.3971047
0.39695644
79.935638
144.69312
226.71178
303.48012
362.19433
398.3365
411.9892
406.72776
386.94437
351.285
308.1233
260.93143
212.75163
166.09625
122.82121
84.154682
50.913538
24.847815
9.1477977
2.9601712
1.3393144
0.91304955
0.71574012
0.59321434
0.52342454
0.48161083
0.45483278
0.43582179
0.42328702
0.41500392
0.41065392
171.1216
257.76972
326.64161
376.38794
408.17599
422.18053
420.29596
407.15092
377.82723
339.0157
294.84779
248.05479
201.12356
156.12306
114.61317
77.643392
45.964051
21.591482
7.54613
2.5332423
1.2300897
0.87981133
0.70134311
0.58622409
0.52019116
0.47995868
0.45387999
0.4352867
0.42297626
0.41482995
0.41058388
251.37211
316.26921
368.70215
406.40036
427.31861
432.12602
423.49467
401.4313
367.83149
327.29056
282.67968
236.41756
190.65043
147.13611
107.20454
71.763518
41.542203
18.823079
6.3970311
2.190965
1.1605927
0.86481135
0.69472687
0.58301829
0.51871347
0.47919255
0.45341744
0.43501406
0.42278254
0.41468749
0.41049067
319.52662
371.94868
410.63009
434.14368
442.4921
438.21714
422.78938
394.35963
357.96379
316.20939
271.43575
225.78778
181.13011
138.97622
100.47338
66.422019
37.559446
16.442389
5.4581722
1.9726119
1.1097309
0.84458257
0.68451077
0.57797452
0.51635494
0.4779499
0.45265713
0.43457205
0.4225095
0.41452203
0.41038508
371.09145
411.08896
437.88331
451.05298
451.5505
441.10547
418.40232
386.58219
348.2909
305.73144
261.01009
216.03544
172.43857
131.53812
94.336067
61.549992
33.958119
14.357111
4.6755733
1.7622469
1.0654043
0.83055292
0.67776172
0.57475379
0.51487976
0.47715766
0.45215892
0.43427577
0.42230287
0.41437414
0.41027628
411.44931
441.62848
458.82579
463.35719
457.74463
440.59873
413.28645
378.78682
339.01397
295.92153
251.38892
207.10584
164.50814
124.75667
88.735457
57.089737
30.701832
12.518798
4.028141
1.6235358
1.0312081
0.81551261
0.6696889
0.57077283
0.51301292
0.47614239
0.45151736
0.43389443
0.42205575
0.4142137
0.41016484
443.24502
464.93174
474.11657
472.41036
460.49336
438.10961
407.70325
371.15475
330.26971
286.84812
242.5802
198.97107
157.29602
118.58656
83.628587
53.012213
27.760124
10.914603
3.502435
1.4953849
1.001249
0.8032958
0.66339772
0.56780233
0.51165705
0.47538766
0.45102642
0.43359623
0.42184608
0.4140631
0.41005197
468.32705
482.88606
485.61304
479.08846
461.38953
435.20249
402.1697
363.94236
322.19587
278.57098
234.59269
191.61149
150.77031
112.99286
78.981935
49.2982
25.102201
9.5311342
3.0846509
1.4066618
0.97676091
0.79133179
0.65676635
0.56458734
0.51016269
0.47454455
0.4504756
0.43325872
0.42161707
0.41390608
0.40993791
488.54466
497.063
494.91235
483.15535
461.3256
432.0981
396.91378
357.32301
314.89235
271.13155
227.42981
185.00969
144.90481
107.94809
74.777718
45.924453
22.732977
8.3535405
2.7597035
1.3320807
0.95524924
0.78095694
0.65115059
0.56197178
0.50898278
0.4738611
0.45001701
0.43297074
0.42140994
0.41375487
0.40982271
505.42767
508.83951
502.57301
485.92174
460.89338
429.16576
392.17877
351.4409
308.43276
264.55665
221.08994
179.14903
139.67687
103.42949
71.003176
42.878405
20.612221
7.3623038
2.4936795
1.2769723
0.93693026
0.77118507
0.64560269
0.55934831
0.50778856
0.47315767
0.44954216
0.43266766
0.42119468
0.41360077
0.40970654
520.07773
519.21223
508.74406
488.3086
460.59411
426.69637
388.14307
346.39877
302.86741
258.86188
215.56786
174.01356
135.06621
99.4177
67.635571
40.146128
18.727261
6.5386468
2.2905722
1.2336025
0.92078401
0.76249333
0.64071568
0.55711671
0.50680425
0.47256054
0.44912921
0.43239624
0.42099298
0.41345046
0.40958942
532.86412
528.51257
514.06546
490.75469
460.69407
424.86899
384.93187
342.26865
298.23023
254.05538
210.85629
169.58824
131.05421
95.904843
64.655684
37.713503
17.07054
5.8638471
2.1284676
1.1988259
0.90681036
0.75446837
0.6360623
0.55498457
0.50586281
0.4719774
0.44872225
0.43212253
0.42078909
0.41329935
0.40947139
544.64324
537.03632
519.32854
493.52414
461.24664
423.81454
382.63469
339.10235
294.54534
250.14133
206.9471
165.8588
127.62914
92.863527
62.040201
35.569483
15.627974
5.3174778
2.0066567
1.1713997
0.89459396
0.74727478
0.63190305
0.55313954
0.50507255
0.47147217
0.44836107
0.43187107
0.42059439
0.41315105
0.40935249
555.79674
545.13749
524.81529
496.79657
462.46643
423.67065
381.31128
336.93475
291.83156
247.13123
203.84029
162.82916
124.77787
90.267649
59.767726
33.692593
14.385185
4.8822346
1.9151837
1.1496695
0.8840586
0.74072657
0.6280469
0.55144108
0.5043474
0.47099776
0.44801674
0.4316242
0.4204007
0.41300314
0.40923277
567.0024
553.42186
530.82293
500.83792
464.88452
424.39377
381.06763
335.84259
290.13291
245.06791
201.56507
160.49045
122.48942
88.122614
57.843752
32.058393
13.32649
4.5429983
1.8516578
1.1328747
0.87501361
0.73487867
0.62460978
0.54997493
0.50373662
0.47058642
0.44770913
0.43139472
0.42021419
0.41285778
0.40911206
578.73553
562.62851
537.89885
506.02903
468.4627
426.62683
381.9349
335.92765
289.52436
243.93988
200.10398
158.82717
120.75989
86.426994
56.269191
30.662002
12.43779
4.2888133
1.8045928
1.1197508
0.86737502
0.72964789
0.62150751
0.54867199
0.50319453
0.47021461
0.4474231
0.4311736
0.4200309
0.41271384
0.40899007
590.46758
572.62583
546.11177
512.52468
473.37312
430.14181
384.21688
337.04555
289.86372
243.70363
199.41723
157.84196
119.58947
85.180454
55.044145
29.521821
11.723386
4.0842415
1.7618405
1.1094573
0.86105736
0.72505439
0.61878892
0.54756711
0.50274274
0.46989853
0.44716824
0.43096742
0.41985391
0.41257219
0.4088668
598.73939
580.39969
553.21833
518.77467
478.6635
434.40384
387.47618
339.31666
291.22572
244.29334
199.50171
157.53732
118.98279
84.385554
54.168404
28.64553
11.165272
3.9214824
1.7285092
1.1022102
0.85604056
0.72106522
0.6164135
0.54662459
0.502358
0.46962674
0.44693667
0.43077178
0.41968132
0.41243227
0.40874232
606.15547
586.86156
559.21178
524.45164
483.91152
439.06878
391.43682
342.49845
293.59703
245.90453
200.42473
157.88113
118.94578
84.048086
53.643605
28.036351
10.748466
3.7931062
1.7014796
1.0976518
0.85228016
0.71769663
0.61439789
0.54585765
0.50205094
0.46940749
0.44673318
0.43059019
0.41951492
0.41229456
0.40861671
615.29598
594.71353
566.19714
530.88945
489.90202
444.56076
396.30892
346.63446
296.92316
248.415
202.17479
158.9875
119.49619
84.154144
53.473331
27.696227
10.462669
3.6933365
1.6809311
1.0958145
0.84976777
0.71495499
0.6127242
0.54525028
0.5018135
0.46923592
0.44655423
0.43042074
0.41935394
0.41215874
0.40849015
624.32844
603.06866
573.98789
538.23803
496.83712
451.04367
402.20912
351.79837
301.24767
251.85916
204.76399
160.80844
120.65061
84.772421
53.657707
27.627425
10.303545
3.6157506
1.6656166
1.0962726
0.84851051
0.7128806
0.61140451
0.54481028
0.50165394
0.46911647
0.44640239
0.43026512
0.41919918
0.41202482
0.40836274
632.92682
611.51039
582.30786
546.40538
504.74685
458.57263
409.20425
358.05535
306.6212
256.27837
208.22332
163.37268
122.4235
85.88442
54.233369
27.841611
10.275219
3.5531517
1.6551376
1.1002104
0.84857075
0.71150775
0.61043486
0.54452932
0.50156884
0.46904527
0.44627493
0.43012159
0.41904966
0.41189222
0.40823443
640.71434
619.39402
590.51213
554.93881
513.48556
467.14317
417.29349
365.43047
313.08307
261.70763
212.58443
166.70979
124.8367
87.510355
55.198007
28.357737
10.371015
3.4946021
1.6486334
1.1065107
0.84987742
0.71083414
0.60979864
0.54439381
0.501554
0.46901772
0.44616947
0.42998902
0.41890475
0.41176055
0.40810509
646.36216
625.31756
596.93211
561.86824
520.82417
474.67662
424.68735
372.3846
319.36827
267.13471
217.05273
170.20934
127.4268
89.306336
56.307403
28.994812
10.585613
3.4196763
1.6455082
1.1148753
0.85209531
0.71075717
0.60942515
0.54435939
0.50157377
0.46902011
0.44608021
0.42986507
0.4187637
0.41162992
0.40797481
79.997591
136.73952
213.19576
287.0656
346.31641
385.58381
403.54006
402.25281
385.59927
352.67059
311.37941
265.17442
217.26157
170.41877
126.68186
87.413481
53.484453
26.532736
9.9186775
3.1365756
1.3743716
0.92368076
0.71997761
0.59510063
0.52426138
0.48201657
0.45511339
0.43600333
0.42343186
0.41511481
0.41068843
80.540858
133.60815
206.58219
278.25692
336.75205
376.55348
395.97363
396.46633
381.71398
350.83811
310.59793
265.153
217.86532
171.37575
127.7821
88.510998
54.50933
27.320655
10.337339
3.2526244
1.3973851
0.93031299
0.72245348
0.59613173
0.52469376
0.48231451
0.45533328
0.43614428
0.4235396
0.41518881
0.41072464
81.665544
130.81445
199.84636
269.16784
326.83905
367.1363
387.98601
390.28242
377.12102
348.201
309.44185
265.05296
218.43657
172.33937
128.91332
89.652613
55.579938
28.154539
10.793326
3.3813637
1.4229531
0.93738553
0.72520951
0.59738069
0.52525945
0.48250908
0.45547645
0.43624848
0.42363978
0.41527643
0.41077662
83.273468
128.47478
193.35154
260.03668
316.7157
357.39058
379.59256
383.68338
372.19793
345.27005
308.08011
264.82477
218.95493
173.29747
130.0694
90.8369
56.696032
29.042231
11.288071
3.5257867
1.4518341
0.94493579
0.72773647
0.59835614
0.52564244
0.48295516
0.45577772
0.43643769
0.42377234
0.41535834
0.4108396
85.296113
126.65416
187.121
250.95809
306.46447
347.36206
370.81138
376.66653
366.9162
342.02696
306.48796
264.45171
219.40478
174.24036
131.24562
92.063152
57.858075
29.987825
11.822351
3.6857834
1.4841115
0.95302556
0.73110205
0.60002798
0.52648715
0.48311361
0.45592922
0.43655205
0.42388612
0.41545074
0.41088425
87.931133
125.39943
181.46547
242.18083
296.23334
337.13307
361.68156
369.24386
361.26502
338.45695
304.64628
263.91888
219.77149
175.15862
132.43739
93.330797
59.064759
30.99008
12.394463
3.8696813
1.5208527
0.96188357
0.73385531
0.60105829
0.52684805
0.48344806
0.45616733
0.43671558
0.42402102
0.41554858
0.41092292
91.136374
125.00175
176.26299
233.62032
285.99548
326.70944
352.21859
361.42293
355.22942
334.55557
302.53688
263.20603
220.03717
176.03959
133.63628
94.633614
60.311223
32.038223
13.004757
4.0713303
1.5615327
0.9710093
0.73701376
0.60246615
0.5274888
0.48379876
0.45641718
0.43688948
0.42416385
0.41565165
0.41097653
95.210659
125.30794
171.88265
225.61338
276.00649
316.26467
342.52752
353.25848
348.85345
330.28519
300.13599
262.28849
220.17705
176.8662
134.82937
95.959991
61.603611
33.141001
13.680725
4.2969323
1.6068159
0.98066076
0.74031655
0.60389783
0.52815374
0.48417203
0.45667578
0.4370715
0.42431484
0.41575984
0.41106868
100.09931
126.26953
168.26805
218.20871
266.34326
305.86871
332.66066
344.77953
342.12616
325.6586
297.43126
261.14889
220.16838
177.62701
136.01057
97.308068
62.937623
34.301667
14.415733
4.5492811
1.6576275
0.99084508
0.74365037
0.60540484
0.52887299
0.48456192
0.45694756
0.43726653
0.42447436
0.41587293
0.41116752
106.03758
128.42101
165.72694
211.5926
257.14745
295.63405
322.70037
336.03554
335.0705
320.67374
294.40939
259.77086
220.04601
178.30889
137.16836
98.670348
64.309682
35.524881
15.208802
4.8315983
1.7145575
1.0016153
0.74721904
0.60692314
0.52960416
0.48498381
0.45722933
0.43746924
0.4246424
0.41599154
0.41126905
112.97547
131.5655
163.99599
205.77255
248.51542
285.66721
312.73454
327.08364
327.72724
315.3306
291.0595
258.1342
219.7373
178.89278
138.28955
100.03844
65.713966
36.800659
16.063429
5.1477973
1.7785544
1.0129898
0.75063486
0.60849964
0.53042936
0.48542132
0.45752586
0.4376895
0.42481959
0.41611567
0.41136658
120.93125
136.02039
163.97885
201.01566
240.58362
276.07866
302.85533
317.99095
320.13955
309.63859
287.37401
256.21943
219.21486
179.35786
139.35919
101.40248
67.1441
38.11971
16.958174
5.4986262
1.8503388
1.0250308
0.75450077
0.61013072
0.53123883
0.48590537
0.45783768
0.43791575
0.42500487
0.41624611
0.41147139
129.82832
141.57244
164.62786
197.26397
233.4302
266.96342
293.15147
308.83285
312.33778
303.62192
283.35234
254.01108
218.47401
179.68272
140.36057
102.75106
68.592943
39.47978
17.887922
5.8877236
1.930876
1.0377883
0.75781843
0.61170281
0.53220264
0.48639965
0.45816061
0.43816485
0.42519972
0.41638156
0.41158088
139.49428
148.12988
166.44778
194.60827
227.14359
258.41548
283.72412
299.66815
304.35705
297.30312
278.99693
251.49541
217.49269
179.8369
141.27491
104.07131
70.052194
40.875467
18.868456
6.3183656
2.0211816
1.0514158
0.76194671
0.61354656
0.53313266
0.48696323
0.45851587
0.4384187
0.42540127
0.41652374
0.41169683
149.874
155.7514
169.70222
192.99807
221.728
250.48815
274.63263
290.5778
296.23159
290.71403
274.30746
248.65988
216.25016
179.80362
142.08362
105.34921
71.511814
42.296917
19.896752
6.790863
2.1223688
1.0657544
0.76503623
0.61504716
0.53425591
0.48753005
0.45886421
0.438699
0.42561266
0.4166702
0.4118202
160.84006
164.36229
174.27405
192.93807
217.34749
243.25009
265.92937
281.62068
287.99637
283.88622
269.28871
245.49533
214.73343
179.61932
142.77279
106.5706
72.962446
43.731947
20.978242
7.3095983
2.2356481
1.0816337
0.76917554
0.61723108
0.53541435
0.48819926
0.45928607
0.43898918
0.42582946
0.41682434
0.41194931
171.87494
173.47554
179.69939
193.53173
213.8782
236.72141
257.6562
272.8408
279.69044
276.84293
263.94891
241.99267
212.91993
179.18707
143.31844
107.72062
74.397211
45.173873
22.107273
7.8646192
2.3620492
1.0977376
0.77234479
0.61885423
0.53668856
0.48887163
0.4596568
0.43929932
0.42605614
0.41698098
0.41208265
182.21614
182.3952
185.5889
195.10658
211.29643
230.90359
249.84281
264.27375
271.35137
269.5967
258.29998
238.14451
210.7898
178.49296
143.69742
108.78291
75.809202
46.631674
23.295888
8.4874272
2.5036736
1.1165648
0.77580338
0.6212258
0.53823161
0.4896886
0.46017435
0.43964173
0.42628909
0.41714647
0.41222003
190.81886
190.17802
191.23874
197.26101
209.44452
225.73471
242.48011
255.93324
263.00739
262.1671
252.35204
233.95095
208.33131
177.53114
143.87455
109.73546
77.17566
48.096532
24.532315
9.1499489
2.6611671
1.137887
0.78033437
0.62387003
0.53970871
0.49053198
0.46057673
0.43997358
0.42653018
0.41731198
0.41236079
197.23689
196.34937
196.10317
199.4631
208.13141
221.17797
235.59441
247.86346
254.70165
254.58951
246.12788
229.41847
205.5364
176.28424
143.83693
110.55775
78.475996
49.540339
25.786158
9.8324128
2.8365345
1.1620442
0.78303971
0.62586489
0.5416551
0.49156338
0.46120521
0.44038849
0.42678337
0.41748848
0.41250356
199.56979
198.88324
198.35268
200.18553
206.55685
216.93852
229.13507
240.07639
246.51505
246.91741
239.66639
224.5664
202.40859
174.75333
143.6407
111.24202
79.696696
50.95483
27.054454
10.561793
3.0313043
1.1898177
0.78950124
0.63047984
0.54375537
0.49267339
0.46170221
0.44073421
0.42703845
0.41766296
0.41264704
198.98817
198.52105
198.23004
199.73844
204.5383
212.80337
223.01534
232.59594
238.51063
239.23082
233.03041
219.43837
198.97328
172.93734
143.18408
111.76859
80.825805
52.330782
28.328019
11.330937
3.251674
1.2217324
0.79342058
0.6330401
0.54576309
0.49398954
0.46240507
0.44123257
0.42731588
0.41784993
0.41279023
196.91444
196.84456
196.8115
198.09381
201.89002
208.65985
217.22972
225.50962
230.80251
231.65717
226.32808
214.11538
195.27466
170.85067
142.4855
112.12898
81.854926
53.66081
29.598273
12.114663
3.5041648
1.260997
0.80189577
0.63839179
0.54928485
0.4954579
0.46315753
0.44162058
0.4275823
0.41803484
0.41293193
193.77782
193.91599
194.30354
195.79049
199.24636
204.92134
212.06279
219.06032
223.60497
224.39504
219.72099
208.71527
191.39085
168.53843
141.58007
112.32874
82.782837
54.944588
30.869337
12.943983
3.7742392
1.3085316
0.81358546
0.64484396
0.55131381
0.49704846
0.46384135
0.44217749
0.42787859
0.41823015
0.41307061
192.23081
192.5334
193.13903
194.61811
197.53298
202.12617
207.87721
213.53718
217.17062
217.68198
213.40992
203.39297
187.43266
166.07422
140.50632
112.37226
83.61541
56.188252
32.156032
13.855404
4.0846931
1.3622518
0.82165877
0.64867831
0.55563441
0.4990676
0.46504247
0.44271138
0.42815302
0.41842737
0.41320495
192.5106
192.81533
193.39807
194.7421
197.16563
200.61142
204.9069
209.15161
211.70463
211.74143
207.60413
198.32693
183.53775
163.54765
139.31711
112.32218
84.367253
57.397298
33.459534
14.842213
4.4477588
1.4268286
0.83748178
0.65935158
0.55948323
0.50083382
0.46572715
0.4432348
0.42845787
0.41862203
0.41333298
194.6765
194.79459
195.23011
196.2136
197.98855
200.58122
203.38462
206.029
207.43277
206.73777
202.48275
193.68693
179.8459
161.06389
138.08235
112.19407
85.058646
58.581386
34.783375
15.900853
4.8740581
1.508405
0.85986461
0.66797955
0.56232284
0.5037846
0.46728461
0.44402181
0.42874276
0.41882401
0.41345316
201.47912
201.10336
200.76241
200.67194
201.02714
202.01294
203.52138
204.47312
204.54279
202.85538
198.21754
189.63333
176.49492
158.7305
136.87388
112.02435
85.710554
59.75162
36.133616
17.039235
5.3832382
1.6078252
0.87667227
0.67474911
0.56912254
0.50596326
0.46826197
0.44445875
0.42906754
0.41900641
0.41356215
210.43929
209.77471
208.81094
207.73451
206.70752
205.84918
205.2472
204.76126
203.32274
200.30089
194.95719
186.2905
173.59456
156.63669
135.75634
111.86369
86.342659
60.913805
37.508552
18.2469
5.9542889
1.724905
0.89825859
0.68624745
0.57291917
0.50869198
0.46972356
0.44542391
0.42934708
0.41919733
0.41365817
219.68177
219.22954
218.17203
216.60183
214.58645
212.23428
209.62575
206.80347
203.75312
199.38373
192.95638
183.83198
171.25813
154.85626
134.77563
111.73508
86.962037
62.063406
38.898995
19.51937
6.6179434
1.8617463
0.9226259
0.69384677
0.57713024
0.51253868
0.47151035
0.44602109
0.42969714
0.41937099
0.41373645
225.06012
225.38706
225.02566
223.88676
221.90107
219.06334
215.42397
211.03791
205.84566
199.80579
192.23133
182.35972
169.57454
153.44276
133.95411
111.63819
87.551051
63.173425
40.273659
20.823597
7.3632106
2.0194015
0.94404955
0.70058004
0.58483093
0.5144675
0.47248527
0.44681945
0.42999141
0.41951608
0.4137943
224.59964
225.62925
226.09315
225.81433
224.58821
222.27313
218.77578
214.05259
208.10352
200.89283
192.19715
181.57656
168.42386
152.34916
133.26597
111.55059
88.090431
64.219344
41.600641
22.12254
8.1558913
2.1987924
0.96492391
0.70729581
0.58783271
0.51776648
0.4747805
0.44770098
0.43037037
0.41968469
0.41382595
219.81693
222.02274
223.45051
223.96757
223.44965
221.8197
218.75971
214.27182
208.331
200.89687
191.85059
180.80472
167.38015
151.32935
132.57251
111.3819
88.533206
65.164498
42.852531
23.393506
8.9869402
2.4017582
0.98501391
0.71069849
0.59189066
0.5220572
0.47644225
0.44835445
0.43076162
0.41976031
0.41382672
206.91489
210.93307
214.52972
217.20597
218.4954
218.17462
216.16422
212.49354
206.98674
199.68078
190.49238
179.27414
165.81085
149.93486
131.58541
110.97438
88.680151
65.914686
43.98846
24.616611
9.857046
2.6321442
1.0059316
0.71144952
0.59572388
0.523644
0.47731902
0.44911654
0.431025
0.4198811
0.4137919
189.28506
193.62494
197.87429
201.7322
204.9139
206.89897
207.31495
205.60564
201.64024
195.30561
186.65548
175.82398
162.8672
147.60464
129.96108
110.11337
88.588347
66.487946
45.00763
25.79065
10.774577
2.8965959
1.0303689
0.71141938
0.59758589
0.52610102
0.47953134
0.44999305
0.43140808
0.4199175
0.41371469
173.73625
177.65323
181.59017
185.31882
188.58766
191.07158
192.36931
192.1467
189.99332
185.61793
178.8503
169.65196
158.0256
143.93781
127.41639
108.65758
88.188643
66.793612
45.873073
26.911316
11.728527
3.2073311
1.0613031
0.71133705
0.59837205
0.52870123
0.48107722