/*--------------------------------*- C++ -*----------------------------------*\
| =========                 |                                                 |
| \\      /  F ield         | OpenFOAM: The Open Source CFD Toolbox           |
|  \\    /   O peration     | Version:  2406                                  |
|   \\  /    A nd           | Website:  www.openfoam.com                      |
|    \\/     M anipulation  |                                                 |
\*---------------------------------------------------------------------------*/
FoamFile
{
    version     2.0;
    format      ascii;
    arch        "LSB;label=32;scalar=64";
    class       volScalarField;
    location    "0.037";
    object      T;
}
// * * * * * * * * * * * * * * * * * * * * * * * * * * * * * * * * * * * * * //

dimensions      [0 0 0 1 0 0 0];

internalField   nonuniform List<scalar> 
8260
(
292.77301
292.77427
292.77653
292.78417
292.79578
292.80951
292.82367
292.83671
292.84694
292.85303
292.85389
292.8486
292.83681
292.81904
292.79784
292.7803
292.80068
292.87265
292.92086
292.94516
292.96316
292.97747
292.98974
292.99992
293.00798
293.01559
293.02238
293.0277
293.03204
293.03453
293.0361
292.83917
292.83401
292.83171
292.83369
292.83861
292.84546
292.85316
292.86038
292.86567
292.86764
292.8652
292.8573
292.84354
292.82423
292.80271
292.78675
292.81191
292.88386
292.9272
292.94933
292.96639
292.98003
292.99181
293.00154
293.00925
293.01662
293.02322
293.0284
293.03263
293.03506
293.03658
292.91012
292.90032
292.8928
292.88865
292.88685
292.8868
292.88781
292.88878
292.88851
292.88587
292.87952
292.86847
292.85223
292.83099
292.80881
292.7944
292.82543
292.89578
292.93378
292.95385
292.96994
292.98288
292.99415
293.00339
293.01072
293.0178
293.02419
293.0292
293.03332
293.03566
293.03714
292.98246
292.96868
292.95634
292.94651
292.93852
292.93199
292.92649
292.92125
292.91525
292.90748
292.89675
292.88208
292.86294
292.83947
292.81643
292.80403
292.8418
292.90883
292.94112
292.95907
292.97408
292.9862
292.99686
293.00553
293.01241
293.01916
293.0253
293.03013
293.03411
293.03635
293.03777
293.05422
293.0372
293.02085
293.00611
292.99259
292.98011
292.96845
292.9571
292.94531
292.93218
292.91673
292.89807
292.87566
292.84975
292.82584
292.81676
292.86162
292.92286
292.9493
292.96502
292.97879
292.98998
292.99995
293.00798
293.01434
293.0207
293.02657
293.03118
293.03501
293.03714
293.03848
293.12431
293.10498
293.08555
293.06677
293.04849
293.0307
293.01333
292.99614
292.9786
292.96002
292.93962
292.91664
292.89062
292.86211
292.83762
292.83387
292.88521
292.93774
292.95839
292.97177
292.98414
292.99429
293.00346
293.01075
293.01654
293.02247
293.02801
293.03238
293.03602
293.03804
293.0393
293.1916
293.17082
293.14926
293.1274
293.10526
293.08295
293.06054
293.03796
293.01492
292.99096
292.96552
292.938
292.90811
292.87701
292.85268
292.85693
292.91232
292.95336
292.9685
292.97943
292.99021
292.99918
293.00745
293.0139
293.01903
293.02449
293.02966
293.03374
293.03718
293.03906
293.04023
293.25471
293.23323
293.21037
293.18643
293.16148
293.13564
293.10906
293.08178
293.05374
293.0247
292.99432
292.96223
292.92837
292.89509
292.87262
292.88793
292.94199
292.96971
292.97976
292.98812
292.99708
293.00475
293.01198
293.01747
293.02187
293.02678
293.03153
293.03529
293.03849
293.04022
293.04128
293.31227
293.29081
293.26745
293.24238
293.21562
293.18728
293.15752
293.12646
293.09417
293.06062
293.0257
292.98929
292.95168
292.91737
292.90005
292.92836
292.97217
292.98686
292.99233
292.99796
293.00482
293.01106
293.01711
293.02154
293.0251
293.02939
293.03367
293.03707
293.03998
293.04154
293.04247
293.36318
293.34216
293.31901
293.29363
293.26597
293.23614
293.20427
293.1705
293.13497
293.09779
293.05908
293.01901
292.97865
292.94555
292.93993
292.97628
293.00098
293.00507
293.00634
293.00907
293.01354
293.01818
293.02292
293.02618
293.02879
293.03235
293.0361
293.03909
293.04168
293.04305
293.04383
293.40651
293.38596
293.3632
293.33805
293.3104
293.28018
293.2474
293.21217
293.17463
293.135
293.0936
293.05119
293.01065
292.98514
292.99721
293.02368
293.02813
293.02453
293.02178
293.02152
293.02339
293.02618
293.02945
293.03143
293.03303
293.03571
293.03886
293.04141
293.04361
293.04476
293.04537
293.44029
293.42089
293.39911
293.37482
293.34781
293.31797
293.28527
293.24975
293.21155
293.17098
293.1288
293.08745
293.05425
293.04629
293.06158
293.06403
293.05434
293.04546
293.03883
293.03538
293.03432
293.0352
293.03676
293.03733
293.03785
293.03957
293.04199
293.04405
293.04583
293.04672
293.04712
293.46279
293.44456
293.424
293.40115
293.37572
293.34745
293.31624
293.28214
293.2455
293.20716
293.16904
293.13672
293.12107
293.12166
293.11412
293.09707
293.08119
293.06756
293.05736
293.05057
293.04658
293.04522
293.04486
293.04383
293.04329
293.044
293.04554
293.04703
293.04837
293.04896
293.04913
293.47363
293.45779
293.44015
293.42038
293.39803
293.37275
293.34464
293.31439
293.28323
293.25313
293.22722
293.20877
293.19579
293.17632
293.15096
293.12808
293.10773
293.09059
293.07713
293.06713
293.05997
293.05634
293.0538
293.05101
293.04937
293.04902
293.0496
293.05039
293.05124
293.0515
293.05145
293.48868
293.47453
293.45792
293.43899
293.41867
293.39812
293.37709
293.35519
293.33289
293.31109
293.28995
293.2676
293.23988
293.20952
293.18144
293.15676
293.13422
293.1136
293.09755
293.08474
293.07464
293.06859
293.06358
293.05892
293.05608
293.05465
293.05425
293.05421
293.05446
293.05439
293.05413
293.4932
293.48613
293.47869
293.47031
293.45915
293.44359
293.42386
293.40028
293.37519
293.35034
293.32418
293.29493
293.26438
293.23551
293.20787
293.18301
293.15917
293.13625
293.11792
293.10297
293.09024
293.08178
293.07424
293.06771
293.0635
293.06092
293.05949
293.0585
293.05806
293.05762
293.05721
293.47102
293.46285
293.45371
293.44387
293.43353
293.42315
293.41365
293.40572
293.39397
293.37212
293.34337
293.3151
293.28746
293.25856
293.22986
293.20503
293.18197
293.15806
293.13759
293.12094
293.10632
293.09555
293.08566
293.07746
293.07174
293.06781
293.06529
293.06329
293.06208
293.06122
293.06072
293.45797
293.45273
293.44666
293.43933
293.43049
293.41978
293.40637
293.39015
293.37407
293.36137
293.34941
293.32886
293.30336
293.27681
293.2497
293.22293
293.20056
293.17831
293.15624
293.13788
293.12201
293.10946
293.09759
293.088
293.0808
293.07529
293.07158
293.06858
293.06652
293.0652
293.06467
293.42879
293.42397
293.41853
293.41239
293.40554
293.39802
293.38994
293.38109
293.37059
293.35686
293.34109
293.32895
293.31508
293.29118
293.26507
293.23991
293.21576
293.19542
293.17369
293.15359
293.13705
293.12293
293.10932
293.09899
293.09049
293.08327
293.07827
293.07434
293.07145
293.06962
293.06906
293.41002
293.40687
293.40323
293.39893
293.39382
293.38769
293.38028
293.37144
293.36135
293.35053
293.33846
293.32237
293.30623
293.29607
293.27746
293.25302
293.23076
293.21021
293.18947
293.16889
293.15115
293.13537
293.12081
293.10979
293.10037
293.09181
293.08541
293.08057
293.07689
293.07449
293.07387
293.38216
293.37923
293.37589
293.37208
293.36774
293.36283
293.35734
293.35121
293.34421
293.33593
293.32637
293.3167
293.30505
293.2892
293.28051
293.26665
293.24288
293.22241
293.20291
293.18325
293.16449
293.14699
293.13217
293.12037
293.1102
293.10087
293.09315
293.08727
293.08287
293.0799
293.07909
293.36335
293.36151
293.35937
293.35685
293.35385
293.35025
293.34594
293.34077
293.33463
293.32752
293.3193
293.30933
293.29867
293.28843
293.27295
293.26273
293.25208
293.23229
293.21394
293.19552
293.17691
293.15846
293.14396
293.13132
293.12028
293.11028
293.1015
293.09455
293.08935
293.08584
293.08471
293.3369
293.33512
293.33307
293.33071
293.32801
293.32494
293.32149
293.31764
293.31335
293.30855
293.30314
293.29726
293.29029
293.28166
293.27244
293.25854
293.2482
293.23765
293.22177
293.20474
293.18798
293.1705
293.15611
293.14272
293.13072
293.11971
293.11022
293.10236
293.09628
293.09231
293.09072
293.32001
293.31901
293.31783
293.3164
293.31466
293.31255
293.31
293.30696
293.30334
293.29908
293.29402
293.28789
293.2807
293.27286
293.26464
293.25637
293.24464
293.23299
293.22169
293.20939
293.19539
293.18025
293.16583
293.15292
293.14066
293.12879
293.1187
293.11041
293.10364
293.0992
293.09711
293.29527
293.29421
293.29301
293.29165
293.29013
293.28842
293.28647
293.28423
293.28165
293.2787
293.27541
293.2719
293.26806
293.26335
293.25739
293.25015
293.24305
293.23522
293.22449
293.21091
293.19833
293.18606
293.17215
293.15991
293.14856
293.13709
293.12675
293.11846
293.11136
293.10644
293.10391
293.28159
293.28108
293.28046
293.27971
293.27879
293.27768
293.27632
293.27469
293.27272
293.27035
293.26749
293.26407
293.26009
293.25563
293.25064
293.24535
293.23878
293.2305
293.22355
293.2141
293.20147
293.19001
293.17769
293.1657
293.15493
293.14498
293.13504
293.12646
293.11931
293.11402
293.11112
293.26148
293.26093
293.26028
293.25952
293.25866
293.25767
293.25655
293.25532
293.25397
293.25248
293.25084
293.24897
293.24667
293.24362
293.23982
293.23512
293.22994
293.22476
293.21702
293.21132
293.20586
293.19474
293.18383
293.17361
293.1627
293.15315
293.14364
293.13469
293.12746
293.12186
293.11864
293.24716
293.24699
293.24678
293.24651
293.24616
293.2457
293.24508
293.24427
293.24318
293.24174
293.23986
293.23753
293.23483
293.23206
293.22923
293.22606
293.22246
293.21819
293.21439
293.21
293.20556
293.20018
293.19076
293.17948
293.16996
293.16062
293.15162
293.14291
293.13553
293.12982
293.12637
293.2348
293.23451
293.23418
293.23379
293.23334
293.23283
293.23224
293.23159
293.23088
293.2301
293.22928
293.2284
293.22742
293.2262
293.22457
293.22234
293.2196
293.21618
293.21183
293.20661
293.1999
293.19551
293.1922
293.18477
293.175
293.16652
293.15818
293.15035
293.14326
293.13765
293.13416
293.22813
293.22799
293.22781
293.22759
293.22732
293.22699
293.22659
293.22609
293.22549
293.22476
293.22385
293.22271
293.22132
293.21974
293.21784
293.21572
293.21338
293.21069
293.20759
293.204
293.19991
293.19406
293.18734
293.18272
293.17763
293.17047
293.16319
293.15607
293.14946
293.14416
293.14087
293.2203
293.22014
293.21995
293.21974
293.21948
293.21918
293.21881
293.21839
293.21788
293.21729
293.2166
293.2158
293.21484
293.2136
293.21215
293.21043
293.20835
293.20604
293.20335
293.20022
293.19668
293.19307
293.1893
293.18453
293.17901
293.17297
293.16634
293.15975
293.15367
293.14865
293.14551
293.86061
293.73967
293.61658
293.50344
293.40578
293.31944
293.24111
293.17034
293.10498
293.04611
292.99349
292.94653
292.90399
292.86444
292.82619
292.78655
292.74716
292.71762
292.73256
292.79976
292.85937
292.89615
292.92304
292.94532
292.96391
292.97927
292.99163
293.00135
293.00881
293.01366
293.01672
293.69151
293.58049
293.48814
293.40652
293.32962
293.25619
293.18694
293.12311
293.0643
293.01166
292.96483
292.92291
292.88452
292.84834
292.81258
292.7753
292.73797
292.71507
292.73887
292.81048
292.86647
292.90054
292.92631
292.94793
292.96597
292.98093
292.99299
293.0025
293.0098
293.01454
293.01737
293.62832
293.53227
293.44437
293.36105
293.28214
293.20923
293.14288
293.0831
293.02965
292.98237
292.94045
292.90277
292.86788
292.8345
292.80077
292.76563
292.73026
292.71391
292.74617
292.82032
292.87246
292.90439
292.92928
292.95032
292.96787
292.98246
292.99427
293.00357
293.01074
293.01537
293.01813
293.55804
293.4646
293.37919
293.2997
293.22613
293.15906
293.09879
293.0451
292.9976
292.95573
292.91856
292.88484
292.85314
292.82227
292.79025
292.75715
292.72429
292.71375
292.75437
292.82995
292.87825
292.90829
292.93235
292.95279
292.96982
292.98404
292.99558
293.00467
293.01169
293.01621
293.0189
293.4787
293.39056
293.31117
293.2378
293.17052
293.10995
293.05621
293.00891
292.96743
292.93096
292.8984
292.86845
292.83975
292.81119
292.78078
292.7496
292.72008
292.71465
292.76397
292.83924
292.88366
292.9121
292.93539
292.95523
292.97176
292.9856
292.99688
293.00577
293.01264
293.01706
293.01968
293.38835
293.31017
293.23908
293.17346
293.11399
293.06118
293.01485
292.97443
292.93914
292.90802
292.8799
292.85354
292.82764
292.80122
292.7724
292.74312
292.71734
292.71663
292.77474
292.84802
292.88879
292.91586
292.93841
292.95767
292.9737
292.98718
292.99819
293.00687
293.0136
293.01791
293.02048
293.29291
293.22534
293.1637
293.10752
293.05744
293.01346
292.97518
292.94194
292.91287
292.88697
292.86312
292.84011
292.81683
292.79239
292.76518
292.73772
292.71526
292.71977
292.78632
292.85619
292.89366
292.91956
292.94141
292.96009
292.97563
292.98875
292.99951
293.00798
293.01457
293.01877
293.02127
293.18888
293.13463
293.08538
293.041
293.00171
292.96736
292.93755
292.91161
292.8887
292.86785
292.84804
292.82818
292.80732
292.78465
292.75902
292.73336
292.71361
292.72463
292.79823
292.86371
292.89834
292.92322
292.94439
292.9625
292.97755
292.99032
293.00082
293.0091
293.01554
293.01963
293.02207
293.07982
293.04169
293.00708
292.97575
292.94788
292.92351
292.9023
292.88361
292.86668
292.85067
292.83466
292.81773
292.79909
292.77791
292.75387
292.72997
292.71275
292.73141
292.80993
292.87063
292.90286
292.92684
292.94734
292.96489
292.97946
292.99188
293.00214
293.01021
293.01651
293.02049
293.02288
292.97217
292.9508
292.93129
292.91311
292.89675
292.88246
292.86976
292.85811
292.84691
292.83546
292.82299
292.80876
292.79211
292.77223
292.74981
292.72748
292.71287
292.73981
292.82104
292.87702
292.90726
292.93041
292.95026
292.96726
292.98136
292.99345
293.00346
293.01133
293.01749
293.02136
293.02369
292.86893
292.86437
292.85923
292.85404
292.84917
292.84473
292.84018
292.83523
292.82943
292.82223
292.81303
292.80125
292.78633
292.76774
292.74698
292.72587
292.71409
292.74906
292.83141
292.88296
292.91156
292.93393
292.95316
292.96962
292.98325
292.995
293.00477
293.01245
293.01846
293.02223
293.0245
292.77207
292.78329
292.79248
292.8001
292.80624
292.81079
292.8138
292.81509
292.8143
292.81101
292.80477
292.7952
292.78183
292.7647
292.74521
292.72512
292.71631
292.75898
292.84109
292.88854
292.91576
292.9374
292.95602
292.97195
292.98512
292.99655
293.00608
293.01356
293.01944
293.02311
293.02531
292.68518
292.71071
292.73298
292.75211
292.76813
292.78106
292.79095
292.79778
292.80149
292.80173
292.79817
292.79063
292.77885
292.76306
292.74405
292.72521
292.71944
292.76934
292.85005
292.89382
292.91988
292.94083
292.95885
292.97426
292.98699
292.99809
293.00738
293.01468
293.02042
293.02398
293.02613
292.61261
292.64936
292.6823
292.71107
292.73553
292.75571
292.77163
292.78339
292.79108
292.79446
292.7934
292.7877
292.77734
292.76248
292.74382
292.72607
292.7234
292.77989
292.8583
292.89887
292.92392
292.9442
292.96164
292.97654
292.98883
292.99962
293.00868
293.01579
293.0214
293.02486
293.02695
292.55805
292.60246
292.64263
292.67834
292.70929
292.7353
292.75629
292.77247
292.78371
292.78983
292.79096
292.78659
292.77699
292.76271
292.74454
292.72751
292.72824
292.79036
292.86588
292.90371
292.92787
292.94752
292.9644
292.9788
292.99066
293.00114
293.00997
293.0169
293.02238
293.02574
293.02777
292.51808
292.56945
292.61481
292.65515
292.69063
292.72101
292.74597
292.76575
292.77993
292.78795
292.78998
292.78651
292.77768
292.76388
292.74615
292.72975
292.73397
292.80051
292.87283
292.90839
292.93173
292.95078
292.96713
292.98103
292.99247
293.00265
293.01126
293.01801
293.02336
293.02662
293.0286
292.47927
292.53967
292.59256
292.63858
292.67838
292.71234
292.74053
292.76232
292.77766
292.78711
292.79037
292.78773
292.77947
292.76608
292.74866
292.73298
292.74052
292.8102
292.87934
292.91295
292.93553
292.95399
292.96982
292.98324
292.99428
293.00415
293.01254
293.01911
293.02434
293.0275
293.02943
292.45421
292.51505
292.57174
292.62261
292.66694
292.7046
292.73562
292.75975
292.7771
292.788
292.79236
292.79038
292.78246
292.76935
292.75207
292.73697
292.74775
292.81944
292.88548
292.91739
292.93926
292.95716
292.97248
292.98544
292.99607
293.00564
293.01381
293.02022
293.02531
293.02838
293.03025
292.45883
292.51394
292.56728
292.61721
292.66227
292.70147
292.73426
292.76009
292.77887
292.79091
292.79605
292.79448
292.78669
292.77367
292.75638
292.74165
292.75534
292.8282
292.89128
292.92172
292.94293
292.96028
292.9751
292.98761
292.99784
293.00711
293.01507
293.02131
293.02629
293.02926
293.03108
292.47666
292.52717
292.57632
292.62306
292.66621
292.70472
292.7376
292.76391
292.7833
292.79592
292.80148
292.80006
292.79219
292.77904
292.76159
292.747
292.76311
292.83651
292.89679
292.92595
292.94653
292.96334
292.97768
292.98975
292.9996
293.00857
293.01633
293.0224
293.02726
293.03014
293.03192
292.50676
292.55138
292.5955
292.638
292.67786
292.71411
292.74555
292.77123
292.79047
292.80305
292.80865
292.80713
292.79896
292.78544
292.76765
292.753
292.77091
292.84442
292.90205
292.93005
292.95004
292.96632
292.9802
292.99185
293.00132
293.01001
293.01756
293.02347
293.02822
293.03102
293.03275
292.54898
292.58571
292.62328
292.66039
292.69595
292.72866
292.75752
292.78175
292.80018
292.81216
292.81742
292.81556
292.80692
292.7928
292.77451
292.75957
292.77866
292.85194
292.90701
292.93398
292.95342
292.96919
292.98264
292.9939
293.003
293.01142
293.01877
293.02454
293.02918
293.0319
293.03358
292.60316
292.62928
292.6578
292.68791
292.71797
292.74654
292.7725
292.79459
292.81171
292.82281
292.82745
292.8251
292.81587
292.80099
292.78206
292.76655
292.78622
292.85888
292.91157
292.93765
292.95663
292.97194
292.98499
292.9959
293.00465
293.01281
293.01998
293.0256
293.03014
293.03278
293.03443
292.67437
292.68853
292.70454
292.72434
292.74669
292.76969
292.79153
292.81066
292.82563
292.83546
292.83917
292.83607
292.82608
292.81016
292.79029
292.77361
292.79289
292.86487
292.91569
292.94113
292.95973
292.97461
292.98732
292.99789
293.00631
293.01421
293.0212
293.02668
293.03112
293.03369
293.0353
293.86028
293.75949
293.6401
293.52601
293.42527
293.3376
293.25889
293.18614
293.12032
293.06062
293.0067
292.95819
292.91411
292.87316
292.83382
292.79343
292.75332
292.72117
292.73065
292.79448
292.85581
292.89371
292.92115
292.9438
292.96269
292.9783
292.99082
293.00067
293.00823
293.01315
293.01625
293.83781
293.73688
293.62292
293.5159
293.42059
293.33658
293.26104
293.1912
293.12715
293.06837
293.01463
292.96572
292.92091
292.87909
292.83887
292.7978
292.75702
292.7238
292.72956
292.79121
292.85372
292.8922
292.91989
292.9427
292.96177
292.9775
292.99012
293.00006
293.00767
293.01265
293.01567
293.81698
293.7216
293.61206
293.51043
293.4199
293.33921
293.2661
293.19825
293.13534
293.07713
293.02339
292.97397
292.92837
292.8856
292.84441
292.80255
292.76095
292.72635
292.72831
292.78729
292.8512
292.89043
292.91845
292.94147
292.96073
292.97661
292.98933
292.99937
293.00705
293.01209
293.01518
293.79842
293.71069
293.6054
293.50769
293.42034
293.34216
293.27103
293.20476
293.14298
293.08547
293.03191
292.9822
292.93595
292.89235
292.85025
292.8077
292.7653
292.72917
292.72746
292.78314
292.84834
292.8884
292.91681
292.94008
292.95956
292.97561
292.98846
292.99861
293.00637
293.01147
293.01439
293.78074
293.70081
293.59988
293.50544
293.42067
293.3447
293.27543
293.21075
293.15021
293.09354
293.04035
292.99052
292.94377
292.89944
292.8565
292.81332
292.77013
292.73234
292.72702
292.77892
292.84527
292.88625
292.91506
292.93858
292.9583
292.97453
292.98752
292.99779
293.00563
293.01082
293.01391
293.76185
293.69087
293.59461
293.50302
293.42085
293.34705
293.2796
293.21654
293.1573
293.10154
293.04883
292.99903
292.9519
292.90692
292.86321
292.81946
292.77545
292.73594
292.72701
292.77474
292.84206
292.88396
292.9132
292.93699
292.95697
292.9734
292.98652
292.99691
293.00485
293.01012
293.0133
293.7427
293.68051
293.58974
293.50129
293.4215
293.34967
293.28388
293.22235
293.16438
293.10954
293.05739
293.00772
292.96034
292.91482
292.87041
292.82611
292.78123
292.74005
292.72737
292.7706
292.83875
292.88166
292.91133
292.93537
292.95558
292.9722
292.98547
292.99599
293.00402
293.00938
293.01287
293.7246
293.67036
293.58567
293.5005
293.42287
293.35274
293.28842
293.22828
293.17151
293.11759
293.06606
293.01662
292.96909
292.92313
292.87809
292.83323
292.78754
292.74485
292.72814
292.76652
292.83531
292.87931
292.90941
292.93368
292.95414
292.97095
292.98437
292.99502
293.00314
293.00858
293.01179
293.70934
293.66143
293.58285
293.50107
293.42539
293.35666
293.29355
293.23459
293.17888
293.12582
293.0749
293.02575
292.97817
292.93186
292.88628
292.8408
292.7944
292.75044
292.72936
292.76259
292.83173
292.87689
292.90744
292.93194
292.95263
292.96964
292.9832
292.99399
293.00221
293.00774
293.01104
293.69717
293.65419
293.58153
293.50312
293.42926
293.36168
293.29951
293.24148
293.18665
293.13434
293.08399
293.03516
292.9876
292.94102
292.89495
292.84885
292.80178
292.75667
292.73121
292.7589
292.82804
292.87442
292.90543
292.93014
292.95106
292.96826
292.98197
292.9929
293.00122
293.00685
293.01017
293.68795
293.64905
293.58193
293.50684
293.43466
293.36801
293.30652
293.24915
293.19498
293.14327
293.09341
293.0449
292.9974
292.95062
292.90414
292.85743
292.80967
292.76339
292.73409
292.75558
292.82424
292.87192
292.90338
292.92829
292.94942
292.96682
292.98068
292.99174
293.00017
293.0059
293.00933
293.68219
293.64625
293.58431
293.51249
293.4418
293.37582
293.31475
293.25777
293.20402
293.15275
293.10327
293.05503
293.00762
292.96069
292.91383
292.86654
292.81807
292.77055
292.7379
292.75286
292.82034
292.86939
292.90133
292.9264
292.94773
292.96531
292.97932
292.99053
292.99906
293.00489
293.00841
293.67898
293.64586
293.5887
293.52008
293.4508
293.38527
293.32433
293.26747
293.21391
293.16288
293.11366
293.06562
293.01829
292.97124
292.92406
292.87621
292.82704
292.77836
292.74241
292.75095
292.81637
292.86687
292.89927
292.92448
292.94599
292.96375
292.9779
292.98924
292.99788
293.00382
293.00742
293.67794
293.6475
293.59493
293.52953
293.46163
293.3964
293.33534
293.27834
293.22475
293.17376
293.12466
293.07675
293.02946
292.98231
292.93483
292.88645
292.83661
292.78693
292.74778
292.74992
292.81238
292.86437
292.89723
292.92254
292.94419
292.96212
292.97641
292.9879
292.99664
293.00268
293.00636
293.679
293.65099
293.60283
293.54071
293.4742
293.40916
293.34782
293.29045
293.23659
293.1855
293.13637
293.08848
293.04119
292.99393
292.94617
292.8973
292.84682
292.79629
292.75413
292.74998
292.80847
292.86193
292.89524
292.9206
292.94236
292.96043
292.97486
292.98648
292.99533
293.00148
293.00523
293.68198
293.65605
293.61199
293.55333
293.48837
293.42352
293.36176
293.30385
293.24953
293.19813
293.14886
293.1009
293.05354
293.00615
292.95813
292.90883
292.85777
292.80647
292.76159
292.75102
292.80474
292.85957
292.8933
292.91867
292.94049
292.9587
292.97324
292.985
292.99396
293.00021
293.00403
293.68667
293.66242
293.62215
293.56707
293.50393
293.43938
293.37716
293.31858
293.26363
293.21177
293.1622
293.11407
293.06658
293.01903
292.97076
292.92111
292.86969
292.81773
292.77027
292.75298
292.80134
292.85736
292.89148
292.91677
292.93861
292.95692
292.97157
292.98345
292.99251
292.99887
293.00276
293.69351
293.67044
293.63331
293.58176
293.52073
293.4567
293.39406
293.33473
293.27903
293.22654
293.17651
293.12809
293.08039
293.03265
292.98414
292.93424
292.88271
292.83022
292.78015
292.75567
292.79824
292.85528
292.88974
292.91494
292.93672
292.95509
292.96984
292.98184
292.991
292.99746
293.00141
293.70259
293.68014
293.6455
293.59724
293.53859
293.47541
293.41251
293.35241
293.29585
293.24259
293.19195
293.14306
293.09506
293.04706
292.99832
292.94822
292.89651
292.84355
292.79084
292.75975
292.79595
292.8535
292.88819
292.91314
292.93483
292.95324
292.96806
292.98017
292.98942
292.99598
292.99999
293.71377
293.69168
293.65891
293.6136
293.55754
293.49559
293.43267
293.37185
293.31431
293.26011
293.20867
293.15915
293.11067
293.06235
293.01334
292.963
292.91094
292.85704
292.80254
292.76567
292.79456
292.85182
292.88679
292.91154
292.93301
292.95137
292.96623
292.97843
292.98776
292.99442
292.9985
293.72769
293.70533
293.67361
293.63054
293.5769
293.5166
293.45417
293.39292
293.33448
293.27924
293.22683
293.17649
293.12736
293.07855
293.02921
292.97857
292.92609
292.87143
292.81568
292.7733
292.79368
292.85068
292.88556
292.90988
292.93116
292.94949
292.96437
292.97663
292.98605
292.9928
292.99694
293.7431
293.72076
293.6895
293.64815
293.59703
293.53865
293.47703
293.4156
293.35636
293.30002
293.24649
293.19515
293.14519
293.09574
293.04594
292.99494
292.94202
292.8867
292.82979
292.78281
292.79384
292.8494
292.88471
292.90863
292.92949
292.94761
292.96248
292.97479
292.98427
292.9911
292.9953
293.75762
293.73573
293.7056
293.66567
293.61646
293.56025
293.50012
293.43914
293.37947
293.32218
293.26751
293.21507
293.16414
293.11391
293.06352
293.01209
292.95875
292.9028
292.84473
292.79354
292.79665
292.84894
292.88371
292.90729
292.92784
292.94576
292.96057
292.9729
292.98244
292.98933
292.99359
293.76711
293.74595
293.71726
293.67993
293.63381
293.58039
293.52232
293.46245
293.40293
293.34509
293.28947
293.23597
293.18404
293.13297
293.08191
293.02998
292.97623
292.9198
292.86094
292.80674
292.79984
292.84858
292.88318
292.90623
292.92627
292.94393
292.95866
292.97099
292.98055
292.98749
292.99181
293.76983
293.75004
293.72332
293.6887
293.64601
293.59619
293.54131
293.48367
293.42528
293.36763
293.31158
293.25731
293.20453
293.15267
293.10097
293.04853
292.99442
292.93774
292.87848
292.82142
292.80375
292.84827
292.8833
292.90597
292.92516
292.94222
292.95677
292.96902
292.97861
292.9856
292.98995
293.76344
293.74551
293.72149
293.69037
293.65182
293.60655
293.55584
293.50146
293.44522
293.38869
293.33292
293.2784
293.2251
293.17266
293.12043
293.06758
293.01318
292.95635
292.89677
292.8376
292.80935
292.84842
292.88355
292.9052
292.92363
292.94047
292.95491
292.9671
292.97665
292.98365
292.98803
293.74906
293.73325
293.71222
293.68511
293.65142
293.61124
293.56534
293.51503
293.46185
293.40733
293.35264
293.29851
293.24517
293.19248
293.13994
293.08684
293.03228
292.97533
292.91544
292.85463
292.81733
292.84904
292.88321
292.90502
292.92279
292.93916
292.95313
292.96512
292.97463
292.98166
292.98605
293.72788
293.71486
293.69743
293.67469
293.64596
293.61101
293.57023
293.5245
293.47503
293.4232
293.37026
293.31712
293.26423
293.21167
293.15912
293.10598
293.05141
292.99446
292.93441
292.87238
292.8266
292.84996
292.88412
292.90525
292.92237
292.93763
292.95139
292.96322
292.97265
292.97962
292.98403
293.70193
293.69148
293.67743
293.659
293.6354
293.60604
293.57079
293.5301
293.48489
293.43633
293.38567
293.33398
293.28195
293.22987
293.1776
293.12466
293.07028
293.0135
292.95345
292.89058
292.83771
292.85169
292.88554
292.90529
292.92149
292.93656
292.94993
292.96139
292.97061
292.97758
292.98198
293.673
293.66498
293.65417
293.63983
293.62112
293.59726
293.56771
293.5324
293.49184
293.447
293.39904
293.34915
293.29827
293.2469
293.19512
293.14257
293.08856
293.03214
292.97234
292.9091
292.8513
292.85544
292.88684
292.90582
292.92147
292.93601
292.94831
292.95951
292.96866
292.97549
292.97989
293.644
293.63749
293.62893
293.61772
293.6031
293.5842
293.56021
293.53061
293.49532
293.45485
293.41021
293.36261
293.31318
293.26273
293.21157
293.15954
293.10604
293.05014
292.99081
292.92771
292.86735
292.85898
292.88826
292.90735
292.92153
292.93456
292.94717
292.95799
292.96673
292.97346
292.97783
293.61951
293.61345
293.6059
293.59646
293.58447
293.5691
293.54949
293.52488
293.49476
293.45911
293.41847
293.37384
293.32642
293.27722
293.22687
293.17547
293.12256
293.0673
293.00861
292.94588
292.88308
292.86329
292.89052
292.9086
292.92216
292.93464
292.94612
292.95629
292.96485
292.97143
292.97573
293.60379
293.5983
293.59146
293.58281
293.57175
293.55761
293.53997
293.51847
293.49231
293.46087
293.42416
293.38281
293.33783
293.29029
293.24102
293.19037
293.13814
293.08359
293.02566
292.96351
292.89908
292.86948
292.89312
292.91045
292.92321
292.9344
292.94475
292.95481
292.96315
292.96946
292.9737
293.5943
293.58826
293.58131
293.57314
293.56344
293.55163
293.53669
293.5175
293.49347
293.46441
293.43034
293.39152
293.34864
293.30266
293.25446
293.20457
293.15299
293.09914
293.04206
292.9807
292.916
292.87724
292.89616
292.91305
292.92408
292.93433
292.94453
292.95386
292.96145
292.96762
292.9717
293.59676
293.5903
293.58292
293.57435
293.56424
293.55214
293.53749
293.51952
293.49745
293.47063
293.43862
293.4016
293.3602
293.31534
293.26793
293.21861
293.16751
293.11426
293.05795
292.99749
292.9331
292.88603
292.89942
292.91539
292.92519
292.93503
292.94406
292.95235
292.95999
292.96578
292.96978
293.60452
293.59818
293.59085
293.58226
293.5721
293.55998
293.54536
293.52762
293.50604
293.47991
293.44886
293.41292
293.37247
293.32839
293.28158
293.23269
293.18198
293.12918
293.07353
293.01392
292.9501
292.89693
292.90289
292.91828
292.92746
292.9354
292.94354
292.95162
292.95873
292.96423
292.96802
293.60797
293.60246
293.59594
293.58814
293.57866
293.56703
293.55282
293.53548
293.51447
293.48929
293.45957
293.42497
293.38561
293.34218
293.29571
293.24705
293.19657
293.14409
293.08895
293.03013
292.96695
292.90901
292.90654
292.92109
292.92881
292.93608
292.94425
292.95149
292.95763
292.96271
292.96634
293.60195
293.59769
293.59252
293.58618
293.57829
293.56842
293.55605
293.54059
293.5214
293.49786
293.46945
293.43586
293.39752
293.35515
293.30946
293.26124
293.21104
293.15889
293.10426
293.04618
292.98369
292.92246
292.9106
292.92374
292.93062
292.93753
292.94455
292.95084
292.9566
292.96142
292.96488
293.58256
293.57955
293.57581
293.57115
293.56522
293.55763
293.54784
293.5352
293.51897
293.49834
293.4727
293.44207
293.40656
293.36637
293.32219
293.27489
293.22522
293.17347
293.11934
293.06199
293.00012
292.93565
292.91507
292.92655
292.93336
292.93898
292.94473
292.95105
292.95638
292.96054
292.96368
293.55321
293.5508
293.54788
293.5443
293.53981
293.53409
293.5267
293.51707
293.50448
293.48817
293.46746
293.44167
293.41044
293.37389
293.33253
293.28718
293.2387
293.18768
293.13415
293.07743
293.01613
292.9502
292.9202
292.92943
292.93583
292.94025
292.94609
292.95138
292.95569