/*--------------------------------*- C++ -*----------------------------------*\
| =========                 |                                                 |
| \\      /  F ield         | OpenFOAM: The Open Source CFD Toolbox           |
|  \\    /   O peration     | Version:  2406                                  |
|   \\  /    A nd           | Website:  www.openfoam.com                      |
|    \\/     M anipulation  |                                                 |
\*---------------------------------------------------------------------------*/
FoamFile
{
    version     2.0;
    format      ascii;
    arch        "LSB;label=32;scalar=64";
    class       volScalarField;
    location    "0.022";
    object      alphat;
}
// * * * * * * * * * * * * * * * * * * * * * * * * * * * * * * * * * * * * * //

dimensions      [1 -1 -1 0 0 0 0];

internalField   nonuniform List<scalar> 
8260
(
0.040283399
0.045683604
0.052031126
0.059200115
0.067027175
0.075338169
0.083911487
0.092448079
0.10054312
0.10761779
0.11285935
0.11515127
0.11299021
0.10451034
0.08767848
0.061457574
0.032624491
0.01521622
0.0098413474
0.0081985835
0.007252315
0.0065642417
0.0060675653
0.0057015534
0.0054660574
0.0052886262
0.0051554409
0.0050683072
0.0050064025
0.0049668067
0.0049453253
0.047684546
0.053246201
0.059349761
0.066064347
0.073348384
0.081070347
0.089020495
0.096899475
0.1042942
0.11061746
0.11502628
0.11638091
0.11315933
0.10350996
0.085460431
0.058521513
0.029844459
0.014352025
0.0096153258
0.0081091761
0.0072016246
0.0065315863
0.0060465505
0.0056876127
0.005457515
0.0052834211
0.0051521599
0.0050663855
0.0050052057
0.0049660009
0.0049447797
0.056163953
0.061515674
0.067312536
0.07359271
0.080332894
0.087427658
0.094685369
0.10181505
0.10839866
0.11383434
0.11726532
0.11752522
0.11307533
0.10208809
0.082691575
0.054959824
0.027091405
0.01345112
0.0094478361
0.00806612
0.0071752948
0.0065140961
0.0060353777
0.0056802483
0.0054528717
0.0052805855
0.0051503255
0.0050651638
0.0050043109
0.0049652754
0.0049441817
0.06583278
0.070749803
0.076099024
0.081858581
0.087989748
0.094387558
0.10086626
0.10713854
0.11278216
0.11718355
0.11947058
0.11845439
0.11258383
0.10006839
0.079189869
0.05068752
0.02424698
0.012665224
0.0093077896
0.007999258
0.0071294472
0.006482547
0.0060147557
0.0056667045
0.0054441694
0.0052752146
0.0051468454
0.0050630437
0.0050029371
0.0049643024
0.0049435012
0.076687677
0.081002573
0.085778294
0.090900276
0.096316082
0.10191236
0.10749886
0.11278406
0.11733776
0.12053432
0.12148546
0.11898317
0.11147134
0.09721546
0.074725882
0.04561795
0.021354129
0.011909998
0.0091501464
0.0079339116
0.0070862486
0.006453714
0.0059963104
0.0056550238
0.0054367058
0.005270641
0.0051439471
0.0050611878
0.0050016423
0.0049633048
0.0049427262
0.088520907
0.092162954
0.096249656
0.10061481
0.10519374
0.10986253
0.11442118
0.11856794
0.12185979
0.12365633
0.12305312
0.11882615
0.10942742
0.093207011
0.069015201
0.039717636
0.018787068
0.011221704
0.0090018117
0.0078530536
0.0070295048
0.0064148617
0.0059710343
0.0056388174
0.0054261882
0.0052641533
0.0051398176
0.0050586286
0.0049999486
0.0049620769
0.0049418424
0.10096238
0.1038896
0.10719789
0.11070183
0.11432519
0.1179333
0.12131462
0.12415384
0.12599178
0.12617071
0.12376993
0.11755413
0.1060068
0.087606244
0.061723339
0.033093887
0.016381266
0.010613843
0.0088409711
0.0077647368
0.006968898
0.0063740566
0.0059449444
0.0056226847
0.0054157011
0.0052577413
0.0051358369
0.0050560938
0.0049982002
0.004960753
0.0049408359
0.11340414
0.1155854
0.1180455
0.12059859
0.12315644
0.12557264
0.1276225
0.12897512
0.12915323
0.12748041
0.12302047
0.11453486
0.10058254
0.079838036
0.052519908
0.026137928
0.014203749
0.010176493
0.0086768665
0.0076599696
0.0068951176
0.006323471
0.0059124172
0.005602344
0.0054022765
0.0052495417
0.0051307379
0.0050528906
0.0049960484
0.0049591785
0.0049396908
0.12488407
0.1262918
0.12784507
0.12937049
0.13076477
0.13186692
0.13243663
0.13212519
0.13043581
0.12667364
0.11989018
0.10885692
0.092294544
0.069194173
0.041291373
0.020418632
0.012403717
0.0097893029
0.0084860551
0.0075415166
0.0068133822
0.0062677155
0.0058771185
0.005580897
0.0053880231
0.0052409419
0.0051254933
0.0050495457
0.0049937322
0.0049574414
0.0049383908
0.13389255
0.13451827
0.13511689
0.13555226
0.13570268
0.13538798
0.13434836
0.13221428
0.12846882
0.12240209
0.11306182
0.099248989
0.080016066
0.054971488
0.028785948
0.01598131
0.011029567
0.0094203819
0.0082735069
0.0074024021
0.0067160081
0.0062011536
0.0058348176
0.0055549965
0.0053706076
0.0052304642
0.0051190352
0.0050454827
0.0049909502
0.0049553997
0.0049369151
0.13815859
0.13801465
0.13764704
0.13696022
0.13581477
0.13401279
0.13127198
0.12719985
0.12126271
0.11274813
0.10072356
0.084037553
0.062484212
0.037007944
0.019776559
0.012832943
0.010267556
0.0090723911
0.0080273624
0.0072422738
0.0066052914
0.006127734
0.0057879455
0.005526987
0.0053518431
0.0052192275
0.0051120731
0.0050411192
0.0049878829
0.0049531077
0.0049352358
0.13438019
0.13344851
0.13214228
0.13035996
0.1279406
0.12466052
0.12021145
0.1141825
0.10604169
0.095116632
0.080574353
0.061238625
0.038966399
0.022569515
0.014311319
0.010836753
0.0096738829
0.0086203023
0.0077531238
0.0070479515
0.0064774295
0.0060439932
0.0057325383
0.0054939251
0.0053298454
0.0052059031
0.0051036117
0.0050358963
0.0049842469
0.0049504192
0.0049328634
0.11793298
0.11635956
0.11423067
0.11144144
0.10782661
0.10314706
0.097071234
0.089204884
0.079095522
0.066278273
0.050622755
0.035402413
0.022735631
0.014901699
0.011268684
0.010032457
0.0089487506
0.0082124529
0.007443676
0.0068417998
0.0063333953
0.0059513024
0.0056717429
0.0054578673
0.0053063387
0.0051914179
0.0050943794
0.0050301427
0.0049802104
0.0049473808
0.0049300906
0.083273333
0.081061418
0.078361815
0.07520881
0.071447397
0.066883252
0.061306537
0.054646886
0.046839107
0.037955068
0.028367562
0.019956819
0.014106552
0.01106344
0.0099343834
0.0089937465
0.0083562288
0.0076600822
0.0071011618
0.0065964881
0.0061911505
0.0058523317
0.0055986448
0.0054165987
0.005279697
0.0051743978
0.0050836548
0.0050232682
0.0049754938
0.0049438653
0.0049270054
0.047111375
0.045708409
0.043976841
0.04191086
0.039363916
0.036270047
0.032853123
0.029036811
0.024839155
0.020350236
0.015880479
0.012291583
0.010326838
0.0093883132
0.0090735864
0.0082673418
0.0075398711
0.0071948159
0.0067545745
0.0063808225
0.0060354646
0.0057465852
0.0055295421
0.0053724084
0.0052501049
0.0051556648
0.0050724109
0.0050157318
0.0049702497
0.0049399541
0.0049237048
0.023352139
0.022851186
0.022105251
0.021155937
0.019974248
0.018563676
0.016999282
0.01531413
0.013576814
0.011834635
0.010325225
0.0091921774
0.0087702159
0.0087313385
0.0079904717
0.007582989
0.0071953145
0.0067228766
0.0064303979
0.0061301396
0.0058873253
0.0056533605
0.0054511472
0.005324286
0.0052178418
0.0051345214
0.005059849
0.005006923
0.004964163
0.0049355541
0.0049203405
0.012342579
0.012217694
0.011962035
0.011609404
0.011176308
0.010680393
0.010154885
0.0096005601
0.0090352676
0.008525277
0.008285243
0.008026117
0.0078707222
0.0075207965
0.0074478718
0.0071521101
0.0067395964
0.0064779611
0.0061652052
0.0059591117
0.0057514878
0.0055533708
0.0053917366
0.0052766122
0.0051815247
0.0051122816
0.005046686
0.0049977834
0.0049575837
0.0049307138
0.0049161361
0.0082964485
0.0082597143
0.0081801956
0.0080740376
0.0079482807
0.0077943053
0.0076634695
0.0075535314
0.0075011895
0.0074916239
0.0074347547
0.0072989768
0.0070887261
0.0069029099
0.0066878676
0.0065277631
0.0064800245
0.0062294547
0.0060081062
0.0058135234
0.0056187125
0.0054793133
0.005323103
0.0052301206
0.0051452005
0.0050881061
0.005032424
0.0049871563
0.0049502578
0.0049253952
0.0049118966
0.0069560775
0.0069110157
0.0068828396
0.006867709
0.0068658366
0.0068630054
0.006889816
0.0068672365
0.0068526302
0.0068476245
0.0068116805
0.0067686834
0.006645375
0.0065045555
0.006292872
0.0062683129
0.0061335679
0.0060339581
0.0058773875
0.0057093098
0.0055251966
0.005402571
0.0052860897
0.0051840683
0.0051093407
0.0050653951
0.0050169265
0.00497613
0.0049427719
0.0049196173
0.004906869
0.0063850518
0.006382658
0.006380108
0.0063823721
0.0063985513
0.0064265317
0.0064033439
0.0063702541
0.0063025827
0.0062072625
0.0061483463
0.0061056605
0.0061167065
0.0060939407
0.0060239277
0.0058761213
0.0057795867
0.0056969162
0.0056868704
0.0055689752
0.0054275359
0.0053537682
0.005233215
0.0051374219
0.0050831473
0.0050402235
0.0050000686
0.0049640236
0.0049345285
0.0049134443
0.0049019535
0.0059538431
0.0059485843
0.005938275
0.0059148837
0.0058791708
0.0058320855
0.0058219379
0.0058126152
0.0057974404
0.0057784091
0.0057471061
0.0057075179
0.0056625162
0.0056440881
0.0056816744
0.005684093
0.0055922392
0.0054912551
0.0054380734
0.0054010824
0.0053569693
0.0052842231
0.0051975495
0.0051116759
0.0050520533
0.0050191547
0.0049835363
0.0049522109
0.0049262349
0.0049068572
0.0048962735
0.0055519473
0.0055521361
0.0055491507
0.0055422206
0.0055347478
0.0055355641
0.0055420336
0.0055354053
0.0055294025
0.0055135993
0.0054773635
0.0054439917
0.0054169009
0.0054073426
0.005383709
0.0053881488
0.0053924517
0.0053509328
0.0052918819
0.0052455019
0.0052265235
0.0052221717
0.0051602187
0.0050744921
0.0050271574
0.0049999365
0.0049666808
0.0049391462
0.0049175869
0.0049000721
0.0048908703
0.0053359126
0.0053360016
0.0053336391
0.0053276657
0.0053187113
0.0053048781
0.0052822079
0.0052791689
0.0052746934
0.0052711583
0.0052696188
0.005273839
0.0052709001
0.0052439969
0.0052296491
0.0052176723
0.0052106095
0.005214185
0.0051910816
0.0051582897
0.0051149455
0.0051161331
0.0051178848
0.005054132
0.0050045265
0.0049761814
0.0049544107
0.0049274334
0.0049086596
0.0048932834
0.0048850077
0.0051415125
0.005142563
0.0051417061
0.0051393571
0.0051368735
0.0051357604
0.005141388
0.0051459008
0.0051480821
0.0051495595
0.0051489492
0.0051482684
0.0051484256
0.0051472307
0.0051265392
0.0051285696
0.0051107815
0.0050848488
0.0050930332
0.0050672735
0.0050490514
0.0050321446
0.0050538039
0.0050254524
0.0049838133
0.0049552414
0.0049409685
0.0049148029
0.0049001246
0.0048864688
0.0048792134
0.0050403024
0.0050414936
0.0050409861
0.0050393282
0.0050370552
0.005034081
0.0050295707
0.0050262474
0.005026316
0.005027542
0.0050301549
0.0050335099
0.0050377081
0.0050433022
0.00505655
0.005041494
0.0050364907
0.0050129678
0.0050102305
0.005005211
0.0050002559
0.0049883095
0.0049797288
0.0049905227
0.0049711539
0.0049340864
0.0049255771
0.0049060148
0.0048912564
0.0048797926
0.004873449
0.0049532467
0.0049543252
0.0049545614
0.0049545044
0.0049547427
0.0049554981
0.0049569822
0.0049609788
0.0049654624
0.0049698824
0.0049744434
0.0049792684
0.0049824897
0.0049817157
0.0049777285
0.004975986
0.0049686522
0.0049742073
0.0049620089
0.0049673763
0.0049723672
0.0049661716
0.0049396507
0.0049432124
0.0049454175
0.0049226881
0.0049039964
0.0048957034
0.004883293
0.0048734666
0.0048676289
0.0049107282
0.0049118138
0.00491261
0.0049133442
0.0049141375
0.0049149466
0.0049155912
0.0049154718
0.0049155937
0.0049162167
0.0049170034
0.0049180686
0.004920045
0.0049221857
0.0049235309
0.0049278726
0.0049315624
0.0049264358
0.0049267517
0.0049248786
0.0049199422
0.0049333558
0.0049163189
0.0049129744
0.0049083247
0.0049054281
0.0048927287
0.0048860338
0.00487469
0.0048676365
0.0048637048
0.0048853251
0.0048857914
0.0048859795
0.0048860748
0.0048862448
0.0048865639
0.0048871078
0.0048878167
0.0048886484
0.004889616
0.0048907357
0.0048922243
0.0048944643
0.0048961358
0.0048971818
0.0048969328
0.004896828
0.0048985509
0.0048974705
0.0048983881
0.0048969065
0.0048962155
0.0048953852
0.0048932385
0.0048901796
0.0048911518
0.0048835807
0.0048757542
0.0048695871
0.0048642401
0.0048617268
0.0048731228
0.0048732889
0.0048733211
0.0048733477
0.0048734606
0.0048736965
0.0048740949
0.0048745599
0.0048751085
0.004875796
0.0048768511
0.0048782708
0.0048801814
0.0048808864
0.0048810319
0.004881696
0.0048827962
0.0048829577
0.0048849161
0.0048836775
0.0048848298
0.0048826702
0.0048827388
0.0048809414
0.0048805861
0.0048773904
0.0048749858
0.0048704685
0.0048662144
0.0048618495
0.0048577323
0.0048662037
0.00486634
0.0048664449
0.004866573
0.0048667462
0.0048669306
0.0048669973
0.0048670509
0.0048671308
0.0048672935
0.004868001
0.0048695321
0.0048711369
0.0048715353
0.0048713752
0.0048712971
0.0048717284
0.0048722831
0.0048733542
0.0048739228
0.004874172
0.0048741643
0.0048742329
0.0048726909
0.0048734929
0.004871316
0.004870106
0.0048678547
0.0048621597
0.0048581533
0.0048582818
0.0048590277
0.0048591223
0.0048592748
0.0048594999
0.0048598113
0.0048602193
0.0048607294
0.004861351
0.0048621091
0.0048630015
0.0048638946
0.0048650978
0.0048658364
0.0048663124
0.0048660996
0.0048659006
0.0048660109
0.0048670574
0.0048674627
0.0048687827
0.0048690536
0.0048684313
0.0048693963
0.0048684236
0.0048685031
0.0048676507
0.0048663788
0.0048639679
0.0048620105
0.0048611734
0.0048596016
0.00087755174
0.0018979869
0.0038087389
0.0066655945
0.010448578
0.015252914
0.021179529
0.028282346
0.036653349
0.04575155
0.055731513
0.066139967
0.076187446
0.084635566
0.089619472
0.088477239
0.077889307
0.05683386
0.032150787
0.015463298
0.00909507
0.007188257
0.0064045725
0.0059471854
0.0056344169
0.005391286
0.0052271865
0.005115322
0.0050394631
0.0049907133
0.0049650938
0.0021511286
0.0043354925
0.0072066027
0.010649176
0.01485614
0.01995395
0.026013071
0.033370165
0.041508527
0.050541981
0.060320242
0.070326727
0.0797196
0.087197437
0.090836081
0.087941461
0.075316506
0.052777378
0.028317942
0.013956483
0.0086016644
0.0070464602
0.0063493283
0.0059167073
0.0056153439
0.0053800342
0.0052204886
0.0051115917
0.0050373277
0.0049895196
0.004964457
0.0039824737
0.0063413327
0.0092540888
0.012905584
0.017437492
0.022945907
0.029541795
0.037105507
0.045470866
0.05463791
0.064333364
0.074012289
0.08279578
0.089332803
0.091654303
0.087056441
0.072528554
0.048882652
0.025360718
0.012467861
0.0082399064
0.0069858612
0.0063246928
0.005902446
0.0056061649
0.0053745676
0.0052169301
0.0051093895
0.0050358244
0.0049885287
0.0049637188
0.0057755067
0.0083686735
0.011647077
0.015698806
0.020569681
0.026388196
0.033248244
0.040864083
0.049345497
0.05853431
0.068081601
0.077396479
0.085549003
0.091134869
0.092144711
0.085880222
0.06956917
0.045163702
0.022769303
0.011633578
0.0080494208
0.0069135913
0.0062873214
0.0058794741
0.0055911132
0.0053656614
0.0052113511
0.0051061754
0.0050339036
0.0049873994
0.004962939
0.0075393367
0.010493695
0.014119601
0.018472785
0.023649676
0.02978042
0.036727164
0.044523354
0.053110769
0.062275128
0.071629752
0.080543141
0.088035985
0.09265395
0.092353703
0.084454859
0.066484003
0.041592168
0.020469452
0.010709386
0.0078490006
0.0068631134
0.0062632212
0.005864512
0.0055813321
0.0053598581
0.0052075526
0.0051038386
0.0050323441
0.0049863806
0.0049621556
0.009399825
0.01265646
0.016560682
0.021191469
0.026713025
0.033056342
0.040185425
0.048135964
0.05678267
0.06587811
0.075001327
0.083479763
0.090286871
0.093922639
0.092316129
0.082813052
0.06331763
0.038171102
0.018455186
0.010151057
0.0077262446
0.0068132108
0.006234169
0.005845766
0.0055688761
0.0053524146
0.0052027666
0.0051009864
0.005030569
0.0049852874
0.0049614005
0.011203872
0.014750388
0.018956773
0.023925188
0.029713421
0.036255793
0.04359267
0.051672785
0.060346886
0.06934173
0.078203536
0.086220358
0.092321742
0.094966763
0.092062439
0.080994553
0.060111091
0.034954285
0.016750176
0.0095848151
0.0076100614
0.0067727683
0.006212189
0.0058314256
0.0055593871
0.0053467433
0.0051990131
0.0050986467
0.0050290075
0.0049842574
0.0049606643
0.0129494
0.016815387
0.021337771
0.026653147
0.032655452
0.039421098
0.046936181
0.055117935
0.063793637
0.072662827
0.081239664
0.088774941
0.094157709
0.095810833
0.091623743
0.079042624
0.056908415
0.031986622
0.015341534
0.0092241281
0.0075297869
0.0067353738
0.0061888878
0.0058157114
0.0055488544
0.0053403798
0.0051948319
0.0050960709
0.0050273458
0.00498319
0.004959894
0.014690585
0.01885759
0.023702291
0.029285282
0.035533412
0.042517644
0.050194149
0.058458214
0.067115037
0.075838491
0.084112541
0.091153042
0.095811922
0.096480948
0.091039768
0.076995898
0.053781362
0.02930195
0.014228202
0.0089086882
0.0074577099
0.0067032847
0.0061697587
0.0058026045
0.0055400999
0.0053350911
0.0051912843
0.0050938107
0.0050258173
0.0049821593
0.0049590923
0.016376397
0.020848955
0.026018669
0.031836829
0.038341707
0.045534673
0.05335622
0.061684718
0.070305052
0.078866956
0.086825954
0.093365173
0.097302622
0.097002696
0.090347189
0.074898215
0.050739528
0.026917001
0.013272212
0.0086896487
0.0074035891
0.0066744269
0.0061509356
0.0057892673
0.0055311071
0.0053296032
0.0051876034
0.005091468
0.0050242532
0.0049811111
0.0049582797
0.018045352
0.022814892
0.02826562
0.034330151
0.041080487
0.048463647
0.056412906
0.064789505
0.073358846
0.081747774
0.089385085
0.09542337
0.098649721
0.097403341
0.089577092
0.072791981
0.047833848
0.024842307
0.012540434
0.008527428
0.0073560612
0.0066493239
0.0061349498
0.0057776311
0.0055232781
0.0053248293
0.0051843423
0.005089337
0.0050227794
0.0049800858
0.0049574583
0.019669307
0.024737687
0.030437134
0.036759335
0.043737283
0.051292713
0.059354939
0.067765538
0.076272777
0.084481856
0.091796623
0.097341299
0.099873653
0.097714475
0.088762931
0.070721857
0.045106103
0.023078192
0.01194369
0.0084009339
0.0073184433
0.0066272018
0.0061200041
0.0057662995
0.0055156044
0.0053201137
0.0051810988
0.0050872075
0.0050213057
0.0049790546
0.0049566313
0.021267846
0.026608889
0.032551573
0.039115416
0.046290338
0.054011415
0.062173404
0.07060685
0.079044541
0.08707157
0.094068626
0.099133515
0.10099446
0.097959993
0.087935841
0.068724783
0.042588782
0.021606713
0.011500238
0.0083073211
0.0072862942
0.0066081486
0.0061072714
0.0057562093
0.0055087792
0.005315925
0.0051781579
0.0050852351
0.0050199
0.0049780394
0.004955799
0.022836414
0.028423543
0.034605053
0.041389961
0.04873389
0.056613914
0.064860201
0.073307522
0.081673029
0.089521747
0.096210872
0.1008166
0.10203657
0.098166722
0.087131161
0.066825158
0.040305812
0.020410183
0.01117135
0.0082376107
0.0072606136
0.0065917914
0.0060959008
0.005746686
0.0055023028
0.0053119273
0.0051753089
0.0050833092
0.0050185145
0.0049770249
0.0049549618
0.024382587
0.030187688
0.036590885
0.043577816
0.051098088
0.059069373
0.067411241
0.075865722
0.084157708
0.091838089
0.098232964
0.1024041
0.10302417
0.098371868
0.086393764
0.065048828
0.038273104
0.019470117
0.010954514
0.0081880372
0.0072395132
0.0065781123
0.0060864199
0.0057381983
0.0054965105
0.0053083559
0.0051726965
0.0050815104
0.0050171864
0.0049760248
0.0049541187
0.025884445
0.031895476
0.038499065
0.045665623
0.053338223
0.061425983
0.069793344
0.078271296
0.086493559
0.094012472
0.10014256
0.10391247
0.10397756
0.098606284
0.085763118
0.063437494
0.036504063
0.018773919
0.010807756
0.0081515217
0.0072233439
0.0065668974
0.0060784013
0.0057304382
0.0054911551
0.0053050377
0.0051702109
0.0050797804
0.0050158915
0.0049750322
0.0049532682
0.027295581
0.033506578
0.040296217
0.047626454
0.055433156
0.063619826
0.072034859
0.080479804
0.088649631
0.096047533
0.10193883
0.10535451
0.10491882
0.098898386
0.085274381
0.062050524
0.03505096
0.018189782
0.01065045
0.0081222372
0.0072112861
0.0065581075
0.0060720448
0.0057236397
0.0054864003
0.0053020856
0.0051679243
0.0050781595
0.0050146485
0.0049740529
0.0049524104
0.028581287
0.034959878
0.041911532
0.049390046
0.057326885
0.065614451
0.074096373
0.082553704
0.090657697
0.097910735
0.10361938
0.10674121
0.1058676
0.099274264
0.084958343
0.060940276
0.033891332
0.017704242
0.010522059
0.0081032573
0.0072034103
0.0065516157
0.0060671043
0.005717674
0.005482125
0.0052994098
0.0051657817
0.0050766168
0.0050134452
0.0049730837
0.0049515451
0.029932791
0.036387253
0.043427516
0.051003072
0.059032259
0.067399848
0.075941417
0.08442535
0.092507429
0.099677911
0.10521303
0.10805274
0.10683848
0.099756863
0.084841574
0.060145888
0.033005114
0.01729766
0.010404821
0.008092371
0.0071994085
0.0065474065
0.0060636272
0.0057126705
0.0054784049
0.0052970627
0.0051638207
0.0050751725
0.0050122918
0.004972128
0.0049506727
0.031280409
0.037783853
0.044868469
0.052492344
0.060573656
0.068993297
0.077579556
0.086090731
0.094167647
0.10128895
0.10670972
0.10936665
0.10784936
0.1003405
0.084944994
0.059696492
0.032380161
0.016954818
0.010302633
0.0080912645
0.0071993952
0.0065454566
0.006061485
0.0057085999
0.0054751897
0.0052950022
0.0051620179
0.0050738111
0.0050111824
0.0049711844
0.0049497939
0.032598799
0.039114675
0.04620684
0.053841832
0.061940624
0.070387723
0.079005343
0.087545356
0.095633734
0.10274122
0.10810117
0.11063789
0.10891022
0.1011001
0.085270999
0.059612429
0.032016408
0.016653991
0.010209866
0.008097563
0.0072034911
0.0065457337
0.0060607077
0.005705557
0.0054725239
0.0052932548
0.0051603944
0.0050725414
0.0050101209
0.0049702538
0.0049489098
0.033876583
0.04036449
0.047424353
0.05503442
0.0631171
0.071576143
0.080241704
0.088837703
0.096978483
0.10409127
0.10941259
0.11187409
0.11002146
0.10200789
0.08587635
0.059908865
0.031941757
0.016366577
0.010120581
0.008113649
0.0072120309
0.0065484737
0.0060610899
0.0057035353
0.005470381
0.0052917928
0.0051589345
0.0050713504
0.0050090997
0.0049693333
0.0049480207
0.03512475
0.041515356
0.048486196
0.056033171
0.064112107
0.072599308
0.081304239
0.089935536
0.098098298
0.10524683
0.11059812
0.11306673
0.11118268
0.10307045
0.086737906
0.060600633
0.032128046
0.016062721
0.010031855
0.0081382555
0.0072250562
0.0065533838
0.0060626362
0.0057024902
0.0054687252
0.0052905931
0.0051576297
0.0050702313
0.0050081139
0.0049684206
0.0049471254
0.036338474
0.042529176
0.049310786
0.056705825
0.064694233
0.07314415
0.081854368
0.090536309
0.098785483
0.10603202
0.11148385
0.11403788
0.11220318
0.1040873
0.087648182
0.061434476
0.032583764
0.01566909
0.0099452974
0.0081706595
0.0072402742
0.0065592835
0.0060651928
0.0057022312
0.0054674383
0.0052895894
0.0051564504
0.0050691701
0.0050071574
0.0049675167
0.0049462241
0.00089782297
0.0018363309
0.0036371034
0.0063429961
0.0099419867
0.014463069
0.020061266
0.026847003
0.034948191
0.043858627
0.053722647
0.0641212
0.074299982
0.083083911
0.088661774
0.088410468
0.078952803
0.058730133
0.033843205
0.016050751
0.0092289645
0.0072245141
0.0064188601
0.0059562511
0.0056408255
0.0053949561
0.0052298554
0.0051169808
0.0050406202
0.0049914827
0.0049653709
0.00095194827
0.0018855276
0.0036569794
0.0062888154
0.0097919872
0.014240646
0.019754628
0.026434383
0.034397298
0.043218983
0.052931743
0.063205577
0.07335481
0.082211868
0.087998581
0.088128665
0.079264154
0.059591414
0.034733589
0.016442338
0.0093147641
0.0072457884
0.0064271492
0.005961818
0.0056449346
0.005397453
0.0052316647
0.0051181294
0.0050414307
0.0049920471
0.004965648
0.0010176779
0.0019391585
0.0036865156
0.0062709064
0.0097083489
0.014070716
0.019472382
0.026019443
0.033805795
0.04249868
0.052086928
0.062266003
0.072378765
0.081301703
0.08729405
0.087809971
0.079552182
0.060467042
0.03568176
0.016869455
0.0094121486
0.007269198
0.0064365592
0.0059679695
0.0056493724
0.0053998389
0.0052335739
0.0051193221
0.0050423096
0.0049926416
0.0049660076
0.0010925465
0.0019956868
0.0037152184
0.0062521576
0.0096231672
0.013898393
0.019187484
0.025594235
0.033211675
0.04176875
0.05122653
0.061301846
0.071371551
0.080352242
0.086545602
0.087450502
0.079810368
0.061355531
0.036685761
0.017341218
0.0095230066
0.0072943723
0.006445417
0.0059739498
0.0056538677
0.0054028512
0.0052356175
0.0051206256
0.0050432171
0.0049932826
0.0049664271
0.0011848313
0.0020637887
0.0037496475
0.0062373891
0.0095404375
0.013727175
0.018902597
0.025166615
0.032615993
0.04103187
0.050352321
0.060316365
0.070333784
0.079363095
0.085751456
0.087046957
0.080031778
0.062251476
0.037740584
0.017862143
0.009649622
0.0073242752
0.0064581677
0.0059818154
0.0056591942
0.0054055909
0.00523784
0.0051220044
0.0050442343
0.0049939643
0.0049668283
0.0012932577
0.0021362461
0.0037838843
0.0062214901
0.0094576302
0.013556974
0.018619967
0.02474594
0.032023427
0.040292365
0.049468349
0.059312892
0.069267704
0.078335215
0.08491067
0.086596187
0.080213471
0.063150871
0.038827458
0.018435321
0.0097914766
0.0073542801
0.0064679773
0.0059885012
0.0056642755
0.0054087813
0.0052401967
0.0051234705
0.0050452893
0.0049946897
0.0049671301
0.0014282911
0.0022326858
0.003833962
0.0062203067
0.0093897485
0.013401246
0.018350904
0.024336943
0.031442494
0.039556801
0.04857915
0.058294747
0.068175262
0.077270338
0.084024042
0.086098021
0.080362741
0.064060183
0.03997965
0.019066888
0.009951381
0.007389187
0.0064807742
0.0059965976
0.0056699254
0.005412208
0.0052426861
0.0051250195
0.0050464095
0.0049954585
0.0049674901
0.001591112
0.0023487746
0.0039002375
0.0062307179
0.0093314522
0.013254182
0.018090001
0.023935811
0.030874469
0.038821991
0.047684089
0.057262394
0.067055559
0.076170775
0.083094333
0.085555061
0.080470195
0.064961342
0.041213984
0.019762328
0.010132284
0.0074277162
0.0064946559
0.0060051108
0.005675754
0.0054158272
0.0052453175
0.0051266491
0.005047584
0.0049962706
0.0049680279
0.0017824139
0.0024853415
0.0039836555
0.0062587022
0.0092918963
0.013126373
0.017848142
0.023551713
0.030308635
0.038096054
0.046792144
0.056224231
0.065925929
0.075040433
0.082120829
0.084960655
0.080529706
0.065847772
0.042504903
0.020526891
0.010335881
0.0074704635
0.0065099914
0.006014501
0.0056820351
0.0054197569
0.0052480872
0.0051283656
0.0050488303
0.0049971268
0.0049688238
0.00200803
0.0026614648
0.0041032557
0.0063175338
0.0092807051
0.013025967
0.017632731
0.023192169
0.029770144
0.037386629
0.045909644
0.055186065
0.064786246
0.073883075
0.081105278
0.084313121
0.080535699
0.066720205
0.043849693
0.021366269
0.010565814
0.0075177599
0.0065265026
0.0060241093
0.0056883331
0.0054238583
0.0052510055
0.0051301764
0.0050501326
0.004998023
0.0049695879
0.0022696336
0.0028814773
0.0042630129
0.0064162732
0.0093078733
0.012962351
0.017452554
0.022866374
0.02927164
0.036712138
0.045045353
0.05415397
0.0636327
0.072702386
0.080050042
0.083611804
0.080483961
0.06756444
0.045248959
0.022288285
0.010825463
0.0075706528
0.0065453859
0.0060352127
0.0056953752
0.0054284014
0.0052540826
0.0051320758
0.0050515124
0.0049989696
0.0049702977
0.0025689263
0.0031450074
0.0044737197
0.0065649751
0.0093837251
0.012945768
0.017317253
0.022583033
0.028814381
0.036057027
0.044203762
0.053134727
0.062478297
0.071503476
0.078958209
0.08285692
0.080370134
0.06836242
0.046657914
0.023291781
0.011117971
0.0076290351
0.0065650026
0.00604594
0.0057020835
0.0054330178
0.0052572817
0.005134086
0.0050529454
0.0049999563
0.0049710244
0.0029030252
0.0034632801
0.0047516425
0.0067768262
0.0095202007
0.012987809
0.017239596
0.022350626
0.028404247
0.03543178
0.043391168
0.052135489
0.061329764
0.070291741
0.077833563
0.082049501
0.080190958
0.069106868
0.048064292
0.024382194
0.011448828
0.0076951932
0.0065888385
0.0060592354
0.0057100785
0.0054382539
0.0052606926
0.0051361738
0.0050544558
0.0050010025
0.0049718596
0.0032847231
0.0038544257
0.005104321
0.0070755268
0.0097388944
0.013105521
0.017231795
0.022181897
0.028051041
0.034873572
0.042624779
0.051165332
0.060194218
0.069070283
0.076680367
0.081191329
0.079944127
0.06978953
0.04948185
0.025563754
0.01182089
0.0077675541
0.0066118404
0.0060711319
0.0057171563
0.0054434053
0.0052641436
0.0051384001
0.0050560212
0.0050020797
0.0049727631
0.0037179166
0.0043266207
0.0055581395
0.0074711379
0.010052012
0.01331133
0.017304527
0.022087738
0.027763566
0.034376581
0.041914275
0.05023359
0.059079475
0.067850009
0.075504073
0.080285039
0.079628101
0.070402036
0.050898609
0.026833519
0.012242894
0.0078516074
0.0066422244
0.0060869742
0.0057263301
0.0054493306
0.0052679285
0.0051406726
0.0050576513
0.0050032254
0.0049737181
0.0042424903
0.0049015087
0.0061288223
0.0079923913
0.010471936
0.013613152
0.017464611
0.022075437
0.027548453
0.033942671
0.041234451
0.04934141
0.057993265
0.066651549
0.074312214
0.079334308
0.079242318
0.070935252
0.052312536
0.028197426
0.012714592
0.007941882
0.0066691188
0.0061005506
0.0057338601
0.0054550974
0.0052715978
0.0051431208
0.0050593509
0.0050043835
0.0049747109
0.0049083131
0.0056076663
0.0068183628
0.0086082611
0.010997403
0.014014127
0.017714979
0.022147751
0.027409372
0.033577805
0.040627816
0.048497972
0.056940459
0.065457353
0.073109098
0.078343458
0.078788261
0.071382586
0.053714068
0.029635395
0.013252222
0.0080505243
0.0067065235
0.006118762
0.0057442838
0.0054615546
0.0052758036
0.0051455645
0.0050610813
0.0050056226
0.0049757377
0.0057422678
0.0064525164
0.0076286537
0.0093355683
0.011620147
0.014505376
0.01804944
0.022300084
0.027344854
0.033282293
0.040087214
0.047706404
0.055925197
0.064280755
0.071900047
0.077317173
0.078269232
0.071748762
0.055110512
0.031201397
0.013850113
0.0081768503
0.0067401562
0.0061356751
0.0057525791
0.0054681401
0.0052796793
0.0051481971
0.0050629126
0.0050068543
0.0049767968
0.0067628092
0.007447318
0.0085623308
0.010178323
0.012343605
0.01507742
0.018455121
0.022520039
0.027346531
0.033049945
0.039606131
0.046979319
0.054951663
0.063127159
0.070689656
0.076259429
0.077685278
0.072034656
0.056467382
0.032834916
0.014532782
0.0083196044
0.0067815539
0.0061548822
0.0057638176
0.0054748586
0.0052843087
0.0051508043
0.0050647243
0.0050081733
0.0049778824
0.0079435673
0.0085713608
0.0095939177
0.011088526
0.013106498
0.015697897
0.018908225
0.022786947
0.027398475
0.032867795
0.039172422
0.046275985
0.054013685
0.061997455
0.069481444
0.075173403
0.077036044
0.072223969
0.057755145
0.034514131
0.015282419
0.0084886412
0.0068286675
0.0061784949
0.0057736919
0.0054824079
0.0052883851
0.0051534929
0.0050666705
0.005009461
0.0049789872
0.0092718925
0.0098134688
0.010706762
0.01204898
0.01390557
0.016335472
0.019376318
0.023072193
0.027477238
0.032716544
0.038772357
0.045613601
0.053106436
0.060887279
0.068262489
0.074058811
0.076322756
0.072315674
0.058964624
0.036273578
0.016136193
0.0086691491
0.0068709654
0.0061957456
0.0057842706