/*--------------------------------*- C++ -*----------------------------------*\
| =========                 |                                                 |
| \\      /  F ield         | OpenFOAM: The Open Source CFD Toolbox           |
|  \\    /   O peration     | Version:  2406                                  |
|   \\  /    A nd           | Website:  www.openfoam.com                      |
|    \\/     M anipulation  |                                                 |
\*---------------------------------------------------------------------------*/
FoamFile
{
    version     2.0;
    format      ascii;
    arch        "LSB;label=32;scalar=64";
    class       volVectorField;
    location    "0.022";
    object      U;
}
// * * * * * * * * * * * * * * * * * * * * * * * * * * * * * * * * * * * * * //

dimensions      [0 1 -1 0 0 0 0];

internalField   nonuniform List<vector> 
8260
(
(40.497313 29.301046 0)
(41.886175 27.998375 -2.4563461e-20)
(43.211466 26.696508 2.1224497e-20)
(44.494483 25.391559 -3.6305894e-20)
(45.73264 24.04415 1.5395653e-20)
(46.908407 22.672349 -2.5984573e-20)
(48.010224 21.312339 -1.0861047e-20)
(49.029067 19.997446 -1.4791433e-23)
(50.000168 18.752552 4.893945e-21)
(50.963386 17.578492 0)
(51.862614 16.491742 4.5873385e-20)
(52.71831 15.485895 0)
(53.52216 14.541455 0)
(54.233439 13.624903 -7.0353182e-20)
(54.690463 12.672049 1.87638e-23)
(54.723276 11.596441 0)
(54.090584 10.081055 0)
(53.173346 8.4332004 6.7458963e-19)
(52.69772 7.273534 5.6696761e-21)
(52.424096 6.3567751 -6.8945449e-19)
(52.196285 5.5173203 -1.2546976e-18)
(51.991852 4.7700992 -1.1301791e-18)
(51.806294 4.0840971 -2.0516398e-18)
(51.639531 3.4658038 1.8369051e-18)
(51.497465 2.9013988 1.6317363e-18)
(51.386721 2.3821608 0)
(51.286722 1.9125488 2.5714923e-18)
(51.20955 1.4667261 2.2700028e-18)
(51.141093 1.0499877 4.0083908e-18)
(51.100881 0.63008112 0)
(51.070233 0.21472522 6.2220768e-18)
(39.488368 28.522091 2.4062274e-20)
(40.938141 27.344465 -1.7589817e-23)
(42.315888 26.227254 -1.8713178e-20)
(43.656659 25.075262 4.9241334e-20)
(44.96167 23.864843 0)
(46.215324 22.613052 2.4518831e-20)
(47.403638 21.350107 4.2050751e-20)
(48.519913 20.107337 2.6941457e-20)
(49.580324 18.91046 -3.0788677e-20)
(50.604312 17.766264 1.3257234e-20)
(51.567858 16.686805 -5.1993554e-20)
(52.475772 15.674366 0)
(53.317001 14.713279 0)
(54.04638 13.774292 1.4484437e-19)
(54.503867 12.767881 -1.5102382e-19)
(54.505075 11.651301 1.8672507e-19)
(53.852299 10.046425 2.6412515e-24)
(52.985981 8.4047755 -2.1193757e-20)
(52.579614 7.2681627 2.2082567e-20)
(52.338057 6.3553981 -6.6044948e-19)
(52.128146 5.5153686 -9.4344441e-21)
(51.937713 4.7683661 1.0944926e-18)
(51.762931 4.0825179 1.9695542e-18)
(51.604916 3.4649139 -3.4437056e-21)
(51.469629 2.9009066 6.1589449e-21)
(51.364338 2.381884 -2.7232011e-21)
(51.268478 1.9125235 -2.4725094e-18)
(51.194361 1.4667451 -2.1868713e-18)
(51.128144 1.0498545 -3.8691669e-18)
(51.089438 0.62963598 3.4163845e-18)
(51.059756 0.21439476 -6.0294899e-18)
(38.437531 27.467875 -2.0194789e-20)
(39.867495 26.518198 1.8126265e-20)
(41.290631 25.60737 0)
(42.696161 24.630962 -2.9959865e-20)
(44.074533 23.577419 2.6755998e-20)
(45.410795 22.464117 0)
(46.690242 21.316804 -4.1392985e-20)
(47.903723 20.163792 -9.0331771e-21)
(49.056937 19.030958 3.9370776e-20)
(50.158824 17.928839 0)
(51.195569 16.868316 4.8710686e-20)
(52.164496 15.857044 0)
(53.051728 14.883166 0)
(53.806406 13.921735 -7.4067544e-20)
(54.27271 12.864731 -5.1961857e-21)
(54.251062 11.698428 -2.0640048e-19)
(53.58692 9.995519 2.7724315e-19)
(52.791815 8.3939961 -1.348714e-18)
(52.452316 7.2861615 0)
(52.241143 6.3754413 6.2498488e-19)
(52.050662 5.5326963 0)
(51.876033 4.7830938 -7.9977065e-21)
(51.713527 4.0946004 1.4335968e-20)
(51.565435 3.4749851 -1.2796233e-20)
(51.437728 2.9088976 -1.4498836e-18)
(51.33865 2.388035 0)
(51.247582 1.9172475 0)
(51.176974 1.4702271 1.975103e-21)
(51.113363 1.052162 -1.7451091e-21)
(51.076404 0.63102767 -3.1557828e-18)
(51.047831 0.21494193 -4.0869445e-23)
(37.559261 26.27382 6.7239593e-20)
(38.943017 25.546508 -4.6417267e-20)
(40.361734 24.839917 2.9154339e-20)
(41.7908 24.051783 2.7039337e-20)
(43.211826 23.171209 -7.4313055e-20)
(44.606934 22.212977 -2.2423469e-20)
(45.958974 21.198949 2.011728e-20)
(47.254671 20.153485 -1.7917841e-20)
(48.491272 19.100693 1.5920868e-20)
(49.67051 18.054307 0)
(50.779309 17.025815 5.0845097e-20)
(51.810079 16.024967 0)
(52.744777 15.043605 -8.698061e-20)
(53.524224 14.06055 0)
(53.996717 12.954699 -1.8180016e-19)
(53.947272 11.726709 6.8509575e-21)
(53.278479 9.9245053 4.3849876e-23)
(52.574116 8.3866515 6.5320714e-19)
(52.306021 7.3006056 -6.3899511e-19)
(52.12928 6.39032 0)
(51.961223 5.544851 -1.0544406e-18)
(51.80481 4.7928483 -7.3959231e-21)
(51.65656 4.1022842 6.6067502e-21)
(51.519972 3.4814514 -1.506114e-18)
(51.401106 2.9139963 0)
(51.309209 2.392046 0)
(51.223663 1.9203694 0)
(51.157095 1.4725593 -1.8518607e-18)
(51.096497 1.0536312 0)
(51.061534 0.63173559 2.8879201e-18)
(51.034266 0.21514704 5.0959272e-18)
(36.866778 24.982544 -1.3876779e-20)
(38.183479 24.455321 0)
(39.561052 23.939008 -2.5304178e-20)
(40.975717 23.338145 2.4141212e-20)
(42.40627 22.637804 2.2675061e-20)
(43.832039 21.846548 4.2011554e-20)
(45.233074 20.980769 1.9268575e-20)
(46.592062 20.059681 -1.7541142e-20)
(47.898635 19.103867 -1.5885236e-20)
(49.146951 18.128538 8.6358669e-20)
(50.322634 17.146052 -1.3090296e-20)
(51.412876 16.166339 0)
(52.393908 15.184401 1.7306339e-19)
(53.195588 14.181232 -4.602982e-24)
(53.668078 13.026618 2.0929861e-19)
(53.584826 11.718918 1.4807947e-20)
(52.92252 9.8331407 -3.1729021e-19)
(52.337948 8.3783381 6.1470376e-19)
(52.141934 7.3117115 6.3208695e-19)
(52.002448 6.4035617 2.4351888e-24)
(51.859693 5.5571188 9.5416907e-19)
(51.723872 4.8035764 8.6709549e-19)
(51.591882 4.1114369 6.0357303e-21)
(51.468351 3.4895856 1.3675757e-18)
(51.359501 2.9205717 1.2165991e-18)
(51.275733 2.39741 0)
(51.196462 1.9245523 -3.7193627e-21)
(51.134474 1.4757178 1.6855357e-18)
(51.07733 1.0556885 -2.9708764e-18)
(51.044619 0.63286221 -2.6228095e-18)
(51.01884 0.21554559 5.6478503e-22)
(36.37507 23.617807 2.284865e-20)
(37.606459 23.268952 -2.1992052e-20)
(38.914973 22.924836 -2.1782779e-20)
(40.282416 22.500636 4.2562678e-20)
(41.689053 21.978102 -4.0940788e-20)
(43.113772 21.358185 0)
(44.535155 20.65016 0)
(45.932834 19.866857 0)
(47.29023 19.023819 3.1334326e-20)
(48.594111 18.135139 3.5343275e-23)
(49.827154 17.212871 -5.3569615e-20)
(50.970731 16.265897 1.133069e-19)
(51.993793 15.291484 -2.0635173e-19)
(52.812545 14.269535 -1.1021069e-19)
(53.27505 13.064266 2.6446086e-20)
(53.154216 11.654812 -1.5742452e-20)
(52.518055 9.7191744 1.8554941e-20)
(52.08192 8.3665651 -6.1439509e-19)
(51.957151 7.3169713 -1.7120343e-20)
(51.858462 6.4122917 -4.934581e-19)
(51.744339 5.5663892 -8.697097e-19)
(51.631695 4.8121032 -1.5757583e-18)
(51.518211 4.1189957 -1.4117845e-18)
(51.409519 3.4966475 -8.4250171e-25)
(51.312141 2.9263305 8.6252739e-21)
(51.237636 2.4023521 1.945507e-18)
(51.165507 1.9284167 0)
(51.108705 1.4786748 1.5212793e-18)
(51.05554 1.057596 2.6779988e-18)
(51.025362 0.63383542 0)
(51.001299 0.21586035 0)
(36.099406 22.202547 8.7059932e-21)
(37.23188 22.015061 -3.6804637e-20)
(38.449959 21.823465 3.7313638e-20)
(39.741935 21.55864 -1.8617685e-20)
(41.092498 21.202499 -1.8338798e-20)
(42.48289 20.749329 0)
(43.892287 20.200866 0)
(45.298907 19.56279 0)
(46.681927 18.844329 -3.0545619e-20)
(48.021951 18.055848 -5.7435677e-20)
(49.297315 17.207019 0)
(50.483012 16.304217 -1.0349886e-19)
(51.539057 15.345703 1.2664913e-19)
(52.36542 14.303996 -3.5979404e-23)
(52.802921 13.044178 1.6874432e-19)
(52.643197 11.506136 3.2756519e-20)
(52.074404 9.590252 -3.5863926e-20)
(51.804967 8.3463053 5.8547041e-19)
(51.750194 7.3134077 0)
(51.695563 6.4148435 4.4795668e-19)
(51.613909 5.571872 7.9947194e-19)
(51.527186 4.818554 1.4224672e-18)
(51.434608 4.125559 -9.9274748e-21)
(51.342652 3.5034524 8.7358195e-21)
(51.258317 2.9320981 3.2949852e-23)
(51.194371 2.4076627 -1.7479935e-18)
(51.130375 1.9326026 0)
(51.079379 1.4819207 2.4779874e-23)
(51.030807 1.0597255 0)
(51.003467 0.63494966 0)
(50.981379 0.21623677 1.873043e-18)
(36.051049 20.802027 -2.4067732e-23)
(37.072291 20.738557 -2.3156831e-20)
(38.182772 20.670027 7.974121e-21)
(39.376359 20.539648 1.6253596e-20)
(40.642865 20.32947 1.6329046e-20)
(41.96751 20.028777 0)
(43.331908 19.632477 0)
(44.714846 19.138979 0)
(46.093521 18.550325 0)
(47.444218 17.870989 -2.8330463e-20)
(48.740582 17.10585 2.7213498e-20)
(49.950763 16.256805 0)
(51.023905 15.321235 -2.6268194e-20)
(51.842993 14.251534 2.7123755e-20)
(52.234035 12.933828 -4.7298183e-19)
(52.037342 11.247438 3.3129679e-20)
(51.604258 9.4495893 -3.3855934e-20)
(51.504935 8.3117463 -5.0320254e-19)
(51.518737 7.296932 0)
(51.511734 6.408491 0)
(51.466953 5.5709023 0)
(51.409037 4.821068 2.0005526e-20)
(51.339906 4.1295792 1.1228804e-18)
(51.266686 3.5086954 5.2979589e-25)
(51.197081 2.936861 -1.7772372e-18)
(51.145221 2.4125887 1.5576576e-18)
(51.090527 1.9365405 1.3861681e-18)
(51.046002 1.4850269 -2.4373379e-18)
(51.002726 1.0617787 0)
(50.978571 0.63597979 0)
(50.958794 0.21656805 -1.6740517e-18)
(36.217014 19.439559 -6.1247471e-21)
(37.122168 19.465684 2.6025304e-20)
(38.114501 19.491408 -3.424661e-20)
(39.193962 19.467483 -1.4208663e-20)
(40.355119 19.377532 1.4563566e-20)
(41.58746 19.207712 -2.9444171e-20)
(42.876287 18.947569 2.9430298e-20)
(44.20282 18.589053 0)
(45.544559 18.127008 0)
(46.875583 17.558695 0)
(48.165451 16.882053 0)
(49.374989 16.092275 1.0757989e-19)
(50.439828 15.182681 -1.3569419e-19)
(51.232969 14.057686 2.8075491e-20)
(51.54557 12.694214 2.4298554e-19)
(51.337834 10.86468 0)
(51.128418 9.3043116 0)
(51.17963 8.2564894 4.5552021e-19)
(51.260909 7.2620504 2.5456891e-20)
(51.30484 6.3901986 -2.2664908e-20)
(51.301744 5.5605044 0)
(51.276063 4.8182595 -5.5315367e-19)
(51.233134 4.1303478 9.2736331e-25)
(51.180714 3.5120207 -8.9373131e-19)
(51.127506 2.9405826 -3.3403981e-23)
(51.089385 2.4171514 -1.4049185e-18)
(51.045308 1.9403311 -1.2305343e-18)
(51.00804 1.4880871 1.0858785e-18)
(50.970822 1.0638457 -1.8713627e-21)
(50.950246 0.63700915 8.2549336e-22)
(50.933216 0.21689866 7.2818629e-22)
(36.569771 18.132576 0)
(37.363312 18.212524 -4.4296123e-20)
(38.235549 18.304365 4.757985e-20)
(39.19233 18.359285 0)
(40.232932 18.360628 -7.8516644e-20)
(41.351646 18.294464 2.2520799e-23)
(42.538397 18.14675 5.4843959e-20)
(43.778076 17.904497 2.7613698e-20)
(45.050127 17.556198 0)
(46.328221 17.091494 -2.3776881e-23)
(47.578753 16.499989 -6.2900314e-24)
(48.754403 15.768212 -1.6439754e-19)
(49.77363 14.879077 5.6027614e-20)
(50.50211 13.683183 5.8425987e-20)
(50.714734 12.217727 6.1677073e-20)
(50.599152 10.397628 2.4644052e-19)
(50.657765 9.1446344 -5.6703504e-20)
(50.825682 8.1720993 9.1431029e-23)
(50.975718 7.2024388 0)
(51.07232 6.3561911 -3.4274302e-19)
(51.115848 5.5364681 -5.5631186e-19)
(51.126953 4.8076182 0)
(51.113191 4.1261785 0)
(51.083767 3.5120807 7.8269479e-19)
(51.04869 2.9424712 7.1302391e-19)
(51.025883 2.4205812 1.2394167e-18)
(50.993767 1.9434947 -8.5452237e-21)
(50.964862 1.4907612 3.7695386e-21)
(50.934491 1.065701 1.7061847e-18)
(50.917937 0.63787635 0)
(50.904214 0.21715301 1.3251549e-18)
(37.069357 16.874373 -3.0109094e-20)
(37.751572 16.991864 3.3997447e-20)
(38.506852 17.122785 -4.2464434e-20)
(39.34141 17.222825 -4.5431576e-20)
(40.255539 17.282755 1.2021153e-20)
(41.248317 17.286523 5.0225541e-20)
(42.314391 17.219229 0)
(43.442659 17.065055 -2.6581143e-20)
(44.615199 16.807131 0)
(45.806241 16.427319 -4.2702866e-23)
(46.979474 15.906048 0)
(48.077963 15.218356 -5.6441715e-20)
(48.998853 14.322809 5.8284208e-20)
(49.599775 13.010909 5.9996454e-20)
(49.761598 11.458982 -2.4045105e-19)
(49.909741 9.9783655 -5.0818653e-19)
(50.175655 9.0099734 5.101369e-20)
(50.453305 8.0006867 -4.1214867e-19)
(50.661482 7.1410423 -2.8491728e-19)
(50.815229 6.2817118 -3.6136645e-20)
(50.907772 5.4881971 4.7810239e-19)
(50.959965 4.7862583 4.7944994e-19)
(50.978599 4.115521 2.4976308e-20)
(50.974785 3.5077107 6.8379647e-19)
(50.959905 2.9421703 0)
(50.953673 2.4223136 -2.199098e-18)
(50.93472 1.9457959 -7.5796343e-21)
(50.915726 1.4929194 6.6866559e-21)
(50.893029 1.0672878 3.8861318e-23)
(50.880968 0.63855569 1.3009985e-21)
(50.871184 0.21731933 -1.1762492e-18)
(37.722033 15.615658 0)
(38.283738 15.736817 0)
(38.914821 15.875422 0)
(39.618359 15.997667 0)
(40.397981 16.087413 0)
(41.254895 16.130181 -1.093213e-19)
(42.186184 16.111332 1.019287e-19)
(43.182837 16.013374 0)
(44.227901 15.814831 -1.0918638e-19)
(45.294609 15.489822 1.1205159e-19)
(46.341706 15.008487 5.7538429e-20)
(47.29821 14.326172 0)
(48.055779 13.354875 1.818454e-19)
(48.515287 12.003134 -6.0191135e-20)
(48.877885 10.567011 1.6907324e-19)
(49.280452 9.6627707 5.1116419e-20)
(49.718706 8.6772851 -1.8387781e-19)
(50.0527 7.8454563 -3.6750337e-19)
(50.328627 6.9954327 6.155974e-19)
(50.530935 6.208445 5.130592e-19)
(50.675046 5.4516928 0)
(50.773607 4.7349258 -2.4972149e-20)
(50.827203 4.0960483 2.2075479e-20)
(50.852409 3.4968917 -6.2475317e-19)
(50.860289 2.9387459 0)
(50.871746 2.4212577 1.9477571e-18)
(50.866984 1.9465943 0)
(50.859697 1.4941294 -5.921186e-21)
(50.845658 1.0683398 -2.6690752e-18)
(50.838576 0.63886598 0)
(50.833312 0.21730558 0)
(38.376504 14.264272 0)
(38.831294 14.360801 0)
(39.35008 14.477376 0)
(39.93104 14.589513 8.7766896e-20)
(40.580058 14.674095 -1.7755115e-19)
(41.300554 14.718165 2.1511038e-19)
(42.090396 14.707992 -1.3402757e-19)
(42.939317 14.624812 2.8132261e-20)
(43.827462 14.442843 1.4629304e-19)
(44.725058 14.129293 -7.4627444e-23)
(45.596965 13.6373 -6.1803828e-20)
(46.378836 12.906034 -2.4801303e-19)
(46.982867 11.886776 1.207611e-19)
(47.514525 10.801717 0)
(48.134677 9.974645 0)
(48.750202 9.1436248 9.2140851e-20)
(49.230054 8.4086166 3.2754765e-19)
(49.645477 7.5975682 7.2597621e-19)
(49.975967 6.8368953 -3.2142937e-19)
(50.233767 6.0718368 -5.6826196e-20)
(50.426388 5.3567971 5.0269096e-20)
(50.563739 4.7085308 -3.7737064e-19)
(50.657584 4.0607792 1.9597997e-20)
(50.71544 3.4700161 0)
(50.748508 2.9308964 0)
(50.779412 2.416582 -8.6028725e-19)
(50.789817 1.9453531 0)
(50.795663 1.4940398 0)
(50.791591 1.0686512 1.1825356e-18)
(50.790033 0.63870532 -1.0431823e-18)
(50.789603 0.21705572 -9.2014565e-19)
(39.001874 12.422879 -2.5776699e-23)
(39.368063 12.490464 -1.7609603e-19)
(39.783002 12.578862 9.0280587e-20)
(40.256724 12.656976 0)
(40.789738 12.723842 9.8961321e-24)
(41.377428 12.764551 1.3442363e-19)
(42.016619 12.752855 -4.5573514e-23)
(42.699072 12.668281 -3.2283444e-20)
(43.406262 12.485183 -3.2748234e-20)
(44.109897 12.180713 -6.538296e-20)
(44.789003 11.716633 -6.4075221e-20)
(45.445715 11.108489 0)
(46.121998 10.436603 0)
(46.859519 9.8472883 0)
(47.575374 9.2625537 0)
(48.198299 8.6771472 -1.6411853e-19)
(48.760283 7.9858726 -1.4547166e-19)
(49.227586 7.3079906 -2.5759008e-19)
(49.618327 6.6083732 0)
(49.922488 5.9263469 -2.0139453e-19)
(50.163295 5.2589897 0)
(50.343089 4.6111562 3.1416981e-19)
(50.469433 4.015774 0)
(50.560761 3.4555888 0)
(50.622952 2.9144647 0)
(50.676651 2.406274 0)
(50.703114 1.937821 0)
(50.722595 1.4920562 -9.2519594e-21)
(50.730007 1.0678022 8.1610188e-21)
(50.734761 0.63786577 1.8450519e-18)
(50.739058 0.21646815 8.1132887e-19)
(39.477745 10.372125 2.6275407e-23)
(39.707792 10.434948 0)
(39.996587 10.517583 1.8185274e-21)
(40.355431 10.589864 1.1288179e-19)
(40.802065 10.604173 -2.5182576e-19)
(41.290597 10.61101 -3.5597332e-20)
(41.809051 10.561866 -2.1421037e-19)
(42.365183 10.461734 5.6086551e-19)
(42.95671 10.303571 -2.7176016e-19)
(43.56084 10.13191 -6.527465e-20)
(44.19878 9.8932248 -2.3134334e-23)
(44.910878 9.6468958 5.7361568e-20)
(45.670048 9.3739913 0)
(46.392387 9.0296996 0)
(47.069911 8.5971783 0)
(47.71507 8.0690584 2.9128451e-19)
(48.289552 7.5386339 0)
(48.808181 6.944787 -2.2820377e-19)
(49.252015 6.3479134 0)
(49.60653 5.7250885 0)
(49.894611 5.1063478 0)
(50.112014 4.5324834 -2.4286555e-19)
(50.268934 3.947823 -3.0616198e-20)
(50.391069 3.3994459 -4.5913206e-19)
(50.482897 2.8892087 2.3821068e-20)
(50.562357 2.3934471 0)
(50.606911 1.9331933 0)
(50.640055 1.4894763 5.2299877e-19)
(50.66013 1.0637022 9.2981213e-19)
(50.67236 0.63668374 -3.1479283e-21)
(50.680778 0.21505755 -2.8039775e-21)
(40.391995 8.0890095 0)
(40.553675 8.189587 -1.0606754e-20)
(40.724373 8.326895 1.0810599e-20)
(40.913292 8.4688246 -1.084175e-20)
(41.130945 8.668713 -2.0770273e-20)
(41.430198 8.7995318 2.0111419e-20)
(41.792815 8.9307702 -3.8532582e-20)
(42.222671 9.0244291 -3.6147908e-20)
(42.743588 8.9107066 0)
(43.28864 8.8265988 -2.4004927e-19)
(43.895656 8.6984674 4.9354813e-19)
(44.582282 8.5625592 -5.0876077e-20)
(45.295529 8.415977 -9.1485095e-20)
(46.000349 8.2227592 1.6412982e-19)
(46.681796 7.8934138 -2.9125143e-19)
(47.301802 7.4952332 8.7642366e-24)
(47.868011 7.0292306 -1.1415916e-19)
(48.394722 6.5439942 4.0356918e-19)
(48.881232 6.0295107 0)
(49.28033 5.4888184 0)
(49.616225 4.9480247 6.9439611e-20)
(49.878963 4.3946316 -6.7560178e-24)
(50.06046 3.8659347 -2.7031572e-20)
(50.208198 3.3517505 -2.3883527e-20)
(50.328713 2.8492435 -3.3642022e-19)
(50.43599 2.37062 0)
(50.501924 1.9172359 0)
(50.548564 1.4797885 -4.5432108e-19)
(50.581343 1.0605465 -1.6283636e-18)
(50.602524 0.63340531 -7.2377346e-19)
(50.614179 0.21406839 0)
(41.162002 6.4990932 0)
(41.333219 6.5736143 1.1998575e-20)
(41.524629 6.6745979 -4.0750863e-19)
(41.73713 6.7808792 4.3907879e-23)
(41.956803 6.903029 3.7951508e-19)
(42.192573 7.0266994 -2.085439e-20)
(42.454558 7.1263109 3.8745634e-20)
(42.703792 7.2438476 3.5435355e-20)
(42.953127 7.5878558 0)
(43.351793 7.6880455 5.5215106e-20)
(43.821548 7.8384811 -4.9906296e-20)
(44.354796 7.6328159 1.7478348e-19)
(44.955452 7.4498257 -3.1375924e-19)
(45.605408 7.3393872 1.4350977e-19)
(46.315166 7.1922135 0)
(46.961655 6.9214949 1.1406268e-19)
(47.515168 6.5580856 2.2705115e-23)
(48.02498 6.1276553 -1.7820716e-19)
(48.518994 5.6856472 2.3613257e-19)
(48.947429 5.2180621 6.9459528e-20)
(49.32346 4.7280841 -3.0650569e-19)
(49.633589 4.2598842 -2.1631968e-19)
(49.849385 3.7562568 0)
(50.020984 3.2651937 3.365251e-19)
(50.162793 2.8003733 2.5968675e-19)
(50.296485 2.3366228 3.2718978e-20)
(50.387332 1.9006076 0)
(50.448325 1.4693508 0)
(50.493705 1.051505 -5.6492143e-21)
(50.524908 0.62959092 4.9495748e-21)
(50.538897 0.21186228 0)
(41.778696 5.5806804 -8.8385455e-19)
(41.884145 5.658896 8.3774981e-19)
(42.007339 5.7482692 7.8254023e-19)
(42.153303 5.8413083 -7.220231e-19)
(42.327496 5.9384629 -6.7980598e-19)
(42.538443 6.0407951 6.4355854e-19)
(42.801973 6.1459842 -6.0336246e-19)
(43.131465 6.2377906 5.1319223e-19)
(43.463408 6.333202 -4.5732913e-19)
(43.779033 6.4077192 -5.0948598e-20)
(44.062697 6.4921506 4.1377293e-19)
(44.361797 6.8552438 3.5593814e-19)
(44.857222 6.6678176 -4.0859521e-19)
(45.378956 6.5862236 0)
(45.943298 6.3974181 2.2353507e-19)
(46.577324 6.2729979 -4.0064877e-19)
(47.189002 6.0595601 8.9117512e-20)
(47.706085 5.728093 0)
(48.192598 5.3411381 -2.0834717e-19)
(48.623919 4.9187048 1.303043e-23)
(49.015322 4.4996546 4.3264496e-19)
(49.374672 4.0636732 2.3850603e-19)
(49.630091 3.6283736 4.2072499e-20)
(49.828632 3.1790455 -3.7107675e-19)
(49.992286 2.729945 2.9451704e-19)
(50.144273 2.2918337 2.0200494e-19)
(50.261509 1.8709998 1.2724822e-20)
(50.339554 1.4501914 3.7032186e-19)
(50.39743 1.0416403 6.4330282e-19)
(50.439137 0.62301311 5.5000808e-19)
(50.454786 0.21006533 0)
(42.532882 4.6429014 -6.5059123e-21)
(42.632802 4.7122431 -2.3958085e-20)
(42.747023 4.7922672 -7.2021545e-19)
(42.876174 4.876562 1.3372317e-18)
(43.020183 4.9662805 -1.2290407e-18)
(43.177842 5.0611816 5.7764454e-19)
(43.345095 5.158632 0)
(43.520448 5.2560175 0)
(43.725184 5.3483787 -2.5584654e-20)
(43.992819 5.4497216 4.5711811e-20)
(44.35398 5.5051068 2.8496849e-19)
(44.702654 5.4845261 -6.1495061e-19)
(44.970516 5.7983194 3.0700228e-19)
(45.342444 5.9434306 0)
(45.781652 5.7178086 0)
(46.270431 5.5670606 0)
(46.810815 5.4204852 -1.5629574e-19)
(47.374204 5.2696161 2.0798777e-19)
(47.891755 4.9912802 0)
(48.332253 4.6285072 -1.0814211e-19)
(48.72125 4.2377607 9.5420805e-20)
(49.099974 3.8559003 -3.3658282e-19)
(49.394763 3.4667545 1.4841846e-19)
(49.630082 3.0496133 -9.8200664e-20)
(49.81919 2.6542525 -2.0196859e-19)
(49.981512 2.2319457 -2.0354873e-19)
(50.123016 1.8310818 3.3659834e-19)
(50.221776 1.4282585 -2.968242e-19)
(50.292875 1.0243677 0)
(50.344594 0.61501521 -4.9263049e-19)
(50.361886 0.20713665 0)
(43.119573 3.912038 7.5990652e-19)
(43.185376 3.969721 3.0028503e-24)
(43.261309 4.0347257 1.0093274e-20)
(43.349638 4.102262 0)
(43.45355 4.1740385 -1.711305e-20)
(43.577323 4.2508382 4.9810487e-19)
(43.727378 4.3330084 -4.503815e-19)
(43.909384 4.4208318 0)
(44.118501 4.5143215 2.2686057e-20)
(44.336913 4.6040608 3.4423647e-19)
(44.559222 4.7023091 3.600898e-20)
(44.86745 4.7454933 -5.1216002e-19)
(45.19583 4.8343752 5.6016644e-20)
(45.507441 4.722745 2.0097328e-19)
(45.777381 5.0923615 0)
(46.157011 4.9245467 0)
(46.600428 4.7591952 -6.7850466e-20)
(47.068434 4.6836529 9.8757769e-24)
(47.578748 4.5530919 1.0807828e-19)
(48.057144 4.3014102 -2.0388774e-23)
(48.460983 3.9952266 -2.5235891e-19)
(48.833071 3.6241975 7.4186574e-20)
(49.144341 3.2649918 6.5436932e-20)
(49.413921 2.9153896 2.8847995e-19)
(49.640514 2.5487274 -5.6239988e-24)
(49.815287 2.1590239 -2.2436691e-20)
(49.971726 1.7760835 -6.3305496e-19)
(50.093563 1.3934183 -1.7447161e-20)
(50.18026 1.0046497 0)
(50.240552 0.60352732 0)
(50.260389 0.20446891 0)
(43.765273 3.2100984 1.3570954e-18)
(43.824742 3.2598503 1.2498428e-18)
(43.892914 3.3159925 -1.165656e-18)
(43.970665 3.3749737 1.0677405e-18)
(44.058796 3.4386893 -9.6194724e-19)
(44.157812 3.5081846 8.7364335e-19)
(44.26701 3.5829361 -8.0093486e-19)
(44.385571 3.6614213 0)
(44.517871 3.7416181 0)
(44.676479 3.8240942 5.55357e-19)
(44.868514 3.899692 -4.7800326e-19)
(45.066682 3.9918959 0)
(45.305033 4.0457101 -5.0123153e-20)
(45.600303 4.1534865 0)
(45.926319 4.0298168 0)
(46.165198 4.3629981 -6.7517824e-20)
(46.522307 4.1885339 2.941173e-19)
(46.922759 4.0820273 -4.2712384e-19)
(47.336933 4.0176909 -9.5286508e-20)
(47.785261 3.8819492 2.5229342e-19)
(48.214722 3.6978522 -2.5359288e-23)
(48.589372 3.3922472 -6.5419642e-20)
(48.900489 3.059958 0)
(49.183497 2.7315016 0)
(49.44976 2.4209712 0)
(49.647608 2.0724461 0)
(49.812118 1.7107978 3.1390288e-19)
(49.953777 1.3472844 -1.538166e-20)
(50.058589 0.97501632 -1.3565042e-20)
(50.126755 0.59003235 -5.9823561e-21)
(50.150498 0.20013506 3.4299469e-19)
(44.300963 2.629203 1.2104107e-18)
(44.340472 2.6704576 -1.1115077e-18)
(44.385988 2.7162512 8.0715444e-21)
(44.438725 2.76398 9.5858826e-19)
(44.500387 2.8154842 -8.6824247e-19)
(44.573205 2.8716589 7.8687343e-19)
(44.66005 2.9325135 -1.4181482e-18)
(44.764435 2.9979566 -1.9836363e-20)
(44.888315 3.0679815 5.5065236e-19)
(45.029267 3.1410722 0)
(45.184832 3.2179244 -4.7832535e-19)
(45.357767 3.2838776 2.500378e-20)
(45.529124 3.3656019 3.7598191e-19)
(45.724436 3.4046958 -3.1306899e-19)
(45.988523 3.4949584 2.4219549e-19)
(46.30335 3.3470791 1.4875134e-24)
(46.537178 3.654235 2.1076699e-19)
(46.854861 3.5409633 -2.3086443e-19)
(47.208423 3.4269746 3.3255019e-19)
(47.593653 3.3875609 -7.4161167e-20)
(47.973581 3.3207419 6.5390053e-20)
(48.35811 3.1126667 1.5562655e-23)
(48.685694 2.8325684 1.0171689e-19)
(48.966634 2.5389344 0)
(49.24533 2.262289 -1.581763e-19)
(49.474241 1.9595787 1.3947737e-19)
(49.652296 1.6274063 3.0745976e-20)
(49.80267 1.2887455 -2.7116587e-20)
(49.925941 0.93804412 1.1957086e-20)
(50.003243 0.57157442 3.2169406e-19)
(50.032289 0.19555203 -2.9302756e-19)
(44.856748 2.0907142 2.1747138e-18)
(44.892188 2.1254359 -1.977556e-18)
(44.932793 2.1637434 -1.4339224e-20)
(44.979065 2.2039193 -6.5915715e-21)
(45.031436 2.2477173 -6.0088135e-21)
(45.090181 2.2960196 1.4041571e-18)
(45.155484 2.3489452 -4.9647533e-23)
(45.227324 2.4061308 -1.1159834e-18)
(45.306519 2.4668574 3.0773129e-24)
(45.396916 2.5305529 0)
(45.50459 2.5954594 -2.4834098e-20)
(45.635551 2.6665024 -4.4053145e-20)
(45.795007 2.7311143 -1.950911e-20)
(45.961526 2.8163294 2.7612493e-19)
(46.132107 2.8799383 -2.4410123e-19)
(46.356752 2.9871418 2.6952819e-20)
(46.634156 2.9225417 0)
(46.847264 3.1340874 -4.1192527e-20)
(47.123949 3.0041497 -7.1992787e-20)
(47.461405 2.8433511 -6.4576969e-20)
(47.794739 2.8540235 0)
(48.134764 2.7427523 -1.0167498e-19)
(48.491258 2.5677776 0)
(48.790277 2.3418907 0)
(49.045489 2.0723516 1.3941971e-19)
(49.288688 1.8197048 -2.4588907e-19)
(49.491954 1.5335583 1.0842015e-19)
(49.644063 1.2143292 0)
(49.781625 0.88897409 -1.7919187e-19)
(49.869938 0.54810961 -2.8819701e-19)
(49.905943 0.18871886 0)
(45.322675 1.6781028 -1.9367365e-18)
(45.344475 1.7064036 3.4321979e-21)
(45.369648 1.7373015 1.2724264e-20)
(45.39884 1.7696834 1.4951823e-18)
(45.432962 1.805088 -1.3564405e-18)
(45.473248 1.8443436 -2.1411397e-24)
(45.521274 1.8876751 0)
(45.578995 1.9352443 1.5911491e-24)
(45.648518 1.9873433 8.8654172e-19)
(45.731022 2.0441701 -7.7695838e-19)
(45.826336 2.1058921 2.1911649e-20)
(45.934148 2.1692505 1.9429951e-20)
(46.057834 2.2365512 0)
(46.204037 2.2925966 0)
(46.354257 2.3561408 4.8423687e-19)
(46.503052 2.3856422 2.3724675e-20)
(46.683807 2.4747056 -3.3568986e-19)
(46.936813 2.3142771 3.7027079e-19)
(47.114014 2.6271531 -2.2476261e-19)
(47.379486 2.4698018 -5.6048776e-20)
(47.659277 2.3585702 0)
(47.937773 2.3052631 -8.9066942e-20)
(48.288079 2.2199004 7.888796e-20)
(48.635003 2.1256896 -7.7405627e-24)
(48.875998 1.8852145 -6.1459274e-20)
(49.091908 1.6521084 1.0837283e-19)
(49.320767 1.407715 -9.5564666e-20)
(49.48379 1.131652 -1.6856816e-19)
(49.627085 0.82870132 1.8569393e-20)
(49.727392 0.51649018 -2.4586625e-20)
(49.771708 0.17984024 7.2287089e-21)
(45.792076 1.2599966 -1.7139882e-18)
(45.812896 1.2825709 -6.0604196e-21)
(45.836813 1.3069725 1.4351068e-18)
(45.864138 1.332563 0)
(45.895159 1.360623 -1.2031521e-18)
(45.930101 1.3917692 -8.4805262e-21)
(45.969115 1.4261091 2.1966077e-23)
(46.012335 1.4635862 1.7600999e-18)
(46.060062 1.5039942 -2.1324443e-23)
(46.113257 1.5469014 -7.0729173e-19)
(46.173753 1.5916126 0)
(46.243732 1.6384452 0)
(46.325216 1.6860887 0)
(46.42648 1.7384002 0)
(46.560986 1.787907 -2.3722954e-20)
(46.710062 1.8592554 3.3521562e-19)
(46.84564 1.915677 -2.5896891e-19)
(46.996193 2.0594724 -2.93804e-19)
(47.211433 1.8974196 2.0159143e-19)
(47.372991 2.1484034 9.9002918e-25)
(47.595271 2.0452928 0)
(47.821994 1.9792651 1.5476719e-19)
(48.106609 1.8683405 -1.3831483e-19)
(48.454228 1.868052 6.1390444e-20)
(48.716954 1.6732037 0)
(48.907606 1.479716 -1.4331442e-19)
(49.135352 1.2582072 4.21275e-20)
(49.323069 1.025971 1.8573366e-19)
(49.466494 0.75579923 9.8281239e-20)
(49.576768 0.47649226 0)
(49.630201 0.16777845 -2.0392096e-19)
(46.157914 1.0023844 0)
(46.167648 1.0204298 2.6887433e-21)
(46.17921 1.0397488 0)
(46.192924 1.0600266 0)
(46.209251 1.0822835 -4.1492938e-21)
(46.228951 1.1070038 -1.9203506e-18)
(46.25305 1.1343674 1.7266526e-18)
(46.282791 1.1645598 6.0381754e-21)
(46.319555 1.1978682 1.0777941e-20)
(46.364814 1.2346555 -1.2180637e-18)
(46.420209 1.2753272 2.180729e-18)
(46.487442 1.3205909 -9.6695077e-19)
(46.568524 1.37102 0)
(46.661555 1.4226614 0)
(46.762165 1.4758852 0)
(46.880826 1.5186746 0)
(47.017458 1.5412789 -1.6309723e-20)
(47.137575 1.5655391 2.5902965e-19)
(47.254949 1.6600179 -2.5409537e-20)
(47.433777 1.6153629 -1.5640483e-19)
(47.597124 1.716911 1.546384e-19)
(47.785079 1.7202792 -2.7156073e-19)
(48.018327 1.6018958 2.4405938e-19)
(48.263453 1.5287579 -1.0810478e-19)
(48.533167 1.4182819 1.4318185e-19)
(48.759061 1.2797529 8.4223487e-20)
(48.956085 1.0863003 0)
(49.157841 0.90070077 3.2748557e-20)
(49.30407 0.67229754 -2.1844063e-24)
(49.419516 0.42619531 -1.2738708e-19)
(49.482017 0.15186558 1.7976005e-19)
(46.54803 0.66927834 -2.6941785e-18)
(46.557742 0.68238715 2.4310936e-18)
(46.568551 0.69649753 0)
(46.580762 0.71149855 0)
(46.59479 0.72818686 7.3235513e-21)
(46.611031 0.74698216 0)
(46.629897 0.76801555 0)
(46.651855 0.79133119 -1.3690055e-18)
(46.67744 0.81691597 1.2167881e-18)
(46.707272 0.84467994 -1.2870746e-24)
(46.742163 0.87438826 7.5125056e-21)
(46.783308 0.90495455 0)
(46.831131 0.93493371 0)
(46.886225 0.96649699 0)
(46.951395 0.99758741 0)
(47.023928 1.0304632 0)
(47.119939 1.0849239 -1.4379574e-20)
(47.24482 1.1072663 -1.2689938e-20)
(47.36279 1.1187788 -3.1342053e-19)
(47.464994 1.2011086 6.3191368e-19)
(47.644242 1.1271314 -3.1124291e-19)
(47.820003 1.1471673 -3.0020138e-20)
(47.991729 1.306201 -1.0816395e-19)
(48.163931 1.1875829 9.5395676e-20)
(48.368733 1.1057324 -4.208312e-20)
(48.623539 1.0474721 -7.4259409e-20)
(48.801892 0.91384949 5.3579979e-24)
(48.989157 0.74930092 5.7751713e-20)
(49.143245 0.57455652 2.5468138e-20)
(49.258118 0.36692082 1.1230417e-19)
(49.32773 0.13142536 7.9249387e-20)
(46.771018 0.51507289 -2.3792084e-18)
(46.777786 0.52448772 2.143635e-18)
(46.785785 0.53442785 -1.9370694e-21)
(46.795111 0.5450002 1.8180645e-18)
(46.805888 0.5567883 -1.656764e-18)
(46.818297 0.57007904 -1.4972572e-18)
(46.832597 0.58500496 1.1843667e-23)
(46.849135 0.60170154 2.4055644e-18)
(46.868314 0.62034534 -1.0731997e-18)
(46.890522 0.64115129 -3.731301e-21)
(46.916171 0.66441133 -8.4688592e-25)
(46.946501 0.69017356 5.8751878e-21)
(46.983439 0.71861968 0)
(47.029517 0.74972433 9.2005996e-21)
(47.089893 0.78095787 -5.203857e-19)
(47.162275 0.815477 4.5242832e-19)
(47.233029 0.83579745 0)
(47.317892 0.86265998 -3.6920569e-19)
(47.436244 0.8927626 2.9611907e-19)
(47.539967 0.90227383 1.7412154e-20)
(47.654625 0.96065832 1.5356193e-20)
(47.824238 0.93279494 2.6517047e-20)
(47.982763 0.87482739 0)
(48.115158 0.88946593 1.6843718e-19)
(48.280261 0.87198745 -1.8566266e-19)
(48.472189 0.77396712 -3.2734204e-20)
(48.664043 0.72350884 -5.7738612e-20)
(48.828748 0.59519306 0)
(48.984142 0.46123981 3.471064e-24)
(49.098063 0.29897115 -7.9223352e-20)
(49.170766 0.10646086 5.2959838e-24)
(47.052259 0.34537577 -4.2074774e-18)