/*--------------------------------*- C++ -*----------------------------------*\
| =========                 |                                                 |
| \\      /  F ield         | OpenFOAM: The Open Source CFD Toolbox           |
|  \\    /   O peration     | Version:  2406                                  |
|   \\  /    A nd           | Website:  www.openfoam.com                      |
|    \\/     M anipulation  |                                                 |
\*---------------------------------------------------------------------------*/
FoamFile
{
    version     2.0;
    format      ascii;
    arch        "LSB;label=32;scalar=64";
    class       volScalarField;
    location    "0.059";
    object      k;
}
// * * * * * * * * * * * * * * * * * * * * * * * * * * * * * * * * * * * * * //

dimensions      [0 2 -2 0 0 0 0];

internalField   nonuniform List<scalar> 
8260
(
647.40126
626.36711
597.52753
562.09088
520.9194
474.82378
424.95446
372.76327
319.86238
267.70931
217.60963
170.67875
127.76152
89.509141
56.347052
29.044107
10.604858
3.3210199
1.6104124
1.1105492
0.85553412
0.70148358
0.61078128
0.54705983
0.49897455
0.4663675
0.44292734
0.42824323
0.41789952
0.4112383
0.40776958
631.89289
608.20305
578.05735
542.47006
501.98752
457.22456
409.1173
358.90088
308.01787
257.83126
209.50185
164.10685
122.48868
85.333809
53.080355
26.731714
9.3050571
3.0023827
1.535297
1.0837482
0.84237006
0.69514938
0.60732749
0.54474013
0.49735841
0.46535236
0.44232966
0.4278941
0.4176933
0.41110912
0.40768658
609.05069
584.26914
554.06103
519.12756
479.903
436.91441
390.94976
343.06776
294.52493
246.55802
200.25131
156.62016
116.49742
80.605504
49.41648
24.150576
8.0832884
2.7329741
1.4885788
1.0699707
0.8354252
0.69189433
0.60550783
0.54352592
0.49647747
0.46478142
0.44197015
0.42764809
0.41753389
0.41099261
0.40759558
577.98327
553.28583
524.0702
490.73975
453.58513
413.04447
369.78817
324.72677
278.95111
233.57222
189.61113
148.02645
109.64026
75.212421
45.276824
21.287817
6.8801336
2.4856672
1.4387229
1.0482278
0.82364282
0.68618598
0.60218212
0.54129951
0.49484739
0.4637255
0.44133268
0.42725656
0.41729752
0.41083691
0.40749201
539.10998
515.57555
488.1444
457.16134
422.77756
385.32021
345.33761
303.5979
261.03951
218.65439
177.39554
138.1708
101.79278
69.058312
40.595589
18.149566
5.7175766
2.2551447
1.3884278
1.028326
0.81333244
0.68124989
0.59926781
0.53935779
0.49345225
0.46283659
0.44078777
0.42689713
0.41707204
0.41067723
0.4073741
492.9493
471.4313
446.48633
418.47359
387.4462
353.62477
317.43214
279.49316
240.59793
201.61956
163.43664
126.90636
92.834781
62.052036
35.320487
14.792551
4.6996172
2.0457806
1.3366616
1.0040923
0.80008709
0.67465247
0.59529188
0.53666425
0.49151044
0.46158675
0.44003379
0.42642031
0.41678252
0.41048118
0.40723971
440.31998
421.45973
399.56798
375.0182
347.8017
318.05044
286.06915
252.34274
217.51507
182.33538
147.59763
114.10369
82.65844
54.115479
29.429284
11.354746
3.7948298
1.8619719
1.2835148
0.97954179
0.78704255
0.66812565
0.59129567
0.5339388
0.48959483
0.46037048
0.43930076
0.42593774
0.41648333
0.41026991
0.40708673
382.62692
366.78707
348.29182
327.50395
304.37462
278.96449
251.47391
222.25673
191.81404
160.76531
129.80675
99.676642
71.190241
45.205467
22.973806
8.0839778
3.0297045
1.7194004
1.2284754
0.95168804
0.77163346
0.66011205
0.58635515
0.53047836
0.48718363
0.4588189
0.43837736
0.42534231
0.41612009
0.41001901
0.40691278
321.72371
308.98448
293.96693
277.00695
258.0287
237.03591
214.13956
189.57415
163.7044
137.01758
110.10104
83.619882
58.424869
35.35907
16.191709
5.574961
2.4361864
1.5801311
1.1702425
0.92281092
0.75580232
0.65178509
0.58116184
0.52675674
0.48467207
0.45721067
0.43743105
0.42471615
0.41573098
0.40974243
0.40671529
259.63149
249.84978
238.16986
224.89231
209.92542
193.23072
174.84399
154.89465
133.62373
111.3932
88.679127
66.064253
44.475857
24.803273
9.7442288
3.7647436
2.00749
1.4625383
1.1101757
0.8911262
0.73768094
0.64199146
0.5749595
0.52222222
0.48166526
0.45524809
0.43628877
0.42397017
0.41526954
0.40941832
0.40649104
198.48865
191.33045
182.7042
172.80054
161.52632
148.81963
134.6608
119.0961
102.26683
84.431405
65.968584
47.364795
29.725806
14.182474
5.5060594
2.622798
1.7389236
1.3416536
1.0466107
0.85833796
0.71883617
0.63167177
0.56812637
0.51729296
0.47849046
0.45315736
0.4350833
0.42317097
0.41476565
0.40905642
0.40623558
140.35926
135.38618
129.3778
122.41197
114.38941
105.22468
94.857996
83.282536
70.580941
56.954653
42.732899
28.241151
15.151624
6.8510801
3.217463
1.9949995
1.5449727
1.2229319
0.98493627
0.82140329
0.69802828
0.61989091
0.55973546
0.51156296
0.47479424
0.45068716
0.4336473
0.42223345
0.41417604
0.40863576
0.40589188
87.263882
84.123685
80.256197
75.683856
70.322097
64.086764
56.910439
48.79022
39.824989
30.253772
20.616632
12.554084
6.6526592
3.4495666
2.1865197
1.6973355
1.3452544
1.1123355
0.9190399
0.78562733
0.67664489
0.60645173
0.54997647
0.50549253
0.47080809
0.44807054
0.43209662
0.42121595
0.41352992
0.40816594
0.40548314
41.603881
39.726569
37.491996
34.96314
32.07177
28.74785
24.978161
20.852907
16.506769
12.134661
8.1399338
5.0378858
3.1146933
2.1515881
1.7298359
1.4306745
1.1957117
0.99776066
0.85989196
0.7441669
0.65323114
0.59125344
0.53879695
0.49825812
0.46612019
0.44511623
0.43028698
0.42003605
0.41278655
0.40762941
0.40502104
14.995349
14.29155
13.470171
12.543543
11.45114
10.178328
8.8220605
7.4082514
5.9662826
4.5687415
3.3431107
2.4285002
1.901304
1.6301274
1.4674278
1.2459926
1.0296879
0.9048709
0.79967882
0.70589219
0.62872563
0.5741817
0.52697861
0.48997682
0.46104071
0.44204856
0.4283892
0.41877393
0.41197812
0.40704079
0.40451979
5.0764101
4.9062669
4.6755213
4.4041319
4.0850369
3.7185101
3.3205192
2.9099921
2.4833209
2.0953181
1.7642106
1.5480444
1.4275473
1.3523278
1.1791027
1.0405597
0.9221536
0.80945898
0.74491537
0.66378378
0.60175699
0.55606366
0.51385033
0.48036106
0.45547239
0.43860852
0.42628794
0.41737341
0.41106865
0.40638522
0.40399868
2.0314412
1.9997007
1.945507
1.8735404
1.7892465
1.6939961
1.5908314
1.4859956
1.3762047
1.2943933
1.2263572
1.1697758
1.1421635
1.0401308
1.0028892
0.92558139
0.80530088
0.73315423
0.68749793
0.62905759
0.57413387
0.53576053
0.49901441
0.47088344
0.45015765
0.43493322
0.42417577
0.41599045
0.41008467
0.40567648
0.40338442
1.1400007
1.1301764
1.1153653
1.0966781
1.0754587
1.0579314
1.041462
1.0175469
0.99610446
0.97124418
0.97148594
0.95275199
0.87351336
0.85064613
0.81504033
0.76704391
0.73371178
0.65184158
0.62973084
0.5854288
0.54351965
0.51412508
0.4844667
0.46141191
0.44443509
0.43096336
0.42189087
0.41446446
0.40901434
0.40490253
0.40274902
0.8517518
0.84637413
0.84151167
0.83636947
0.829877
0.81949136
0.80929798
0.79813475
0.79055368
0.78510344
0.76695577
0.73213248
0.72720622
0.68678298
0.66229948
0.67142113
0.65198037
0.60579286
0.57147861
0.54616628
0.51626275
0.48990106
0.47103089
0.45184578
0.43872191
0.42716446
0.41968263
0.41295029
0.40788753
0.40406876
0.4020297
0.68760221
0.68656215
0.68502445
0.68304656
0.68310763
0.68555277
0.6878954
0.68587175
0.67620362
0.65448303
0.63723684
0.62775367
0.612743
0.60277334
0.58157196
0.56723414
0.56444881
0.55593203
0.52837737
0.50807052
0.48616176
0.46901196
0.45746496
0.44231322
0.43269805
0.42326645
0.41742234
0.41119172
0.40667449
0.40318767
0.40130329
0.59728633
0.59773774
0.59720187
0.59510149
0.5908399
0.58413645
0.57674424
0.57233379
0.56884106
0.56581751
0.56535998
0.56148057
0.54675959
0.53373225
0.53679275
0.519907
0.50549484
0.50796726
0.50288985
0.48392187
0.46429042
0.45163455
0.44693008
0.43434618
0.42642299
0.42017767
0.41502008
0.40961918
0.40543452
0.4022434
0.40050398
0.51733225
0.51757534
0.51735365
0.5166261
0.51573477
0.51569739
0.51769309
0.51821256
0.51660122
0.51221282
0.50537716
0.49847397
0.49886284
0.49470253
0.48669429
0.48743053
0.47708599
0.46698512
0.46299241
0.4572356
0.45256943
0.44234223
0.43512275
0.42762064
0.42217282
0.41698903
0.4125185
0.40798645
0.40415948
0.40126808
0.39969973
0.4783545
0.47891019
0.47885768
0.47824701
0.47698034
0.47482158
0.47144824
0.46880834
0.46732403
0.46601972
0.46445981
0.46289127
0.46074977
0.46188338
0.45906983
0.45446862
0.45725787
0.44821817
0.44275113
0.44143946
0.44225475
0.43559484
0.42908215
0.42354742
0.41850173
0.41440249
0.41056339
0.40648932
0.40288802
0.40027627
0.39885598
0.44434295
0.44456665
0.4444574
0.44407871
0.4435927
0.44309363
0.4428149
0.44330331
0.44367998
0.44344369
0.44330725
0.44282509
0.44305104
0.43995671
0.44185133
0.43854111
0.43578072
0.43671367
0.43192054
0.42662612
0.42619151
0.42935381
0.42409872
0.41922833
0.41620825
0.41217953
0.40835975
0.40496032
0.40154298
0.39926694
0.39803519
0.42759153
0.42785215
0.42778751
0.42748374
0.42704574
0.4265201
0.42587189
0.42499074
0.42411144
0.4243109
0.42484998
0.42552792
0.42589837
0.4261833
0.4245129
0.42568333
0.42427773
0.42141616
0.41953776
0.42027368
0.41866075
0.41891058
0.41815548
0.41667518
0.4138123
0.40945153
0.40663802
0.40299354
0.4002155
0.39829659
0.3972683
0.41079138
0.41093584
0.41095321
0.41092059
0.41093651
0.41104086
0.41128225
0.41181474
0.41305053
0.41430208
0.41557062
0.41666765
0.41735957
0.41700959
0.41626729
0.41404992
0.41420566
0.41399993
0.41273333
0.41630812
0.41520623
0.41400146
0.41123375
0.41108309
0.40914175
0.40695537
0.40331472
0.40111093
0.39904995
0.39740051
0.39652244
0.40317419
0.40333118
0.40343116
0.40353406
0.40367574
0.40384529
0.4040021
0.40407399
0.40409572
0.40419255
0.40432738
0.40449124
0.40472217
0.40499488
0.40530634
0.40565084
0.40587227
0.40717383
0.40895821
0.40775646
0.40961234
0.40743173
0.40591959
0.40488437
0.40343351
0.40267106
0.40107101
0.39952699
0.39787141
0.3967186
0.39606567
0.39909192
0.39917268
0.39921762
0.39925197
0.39929656
0.39935507
0.39942732
0.39951981
0.39963157
0.39975946
0.39991186
0.40011232
0.40040902
0.40070173
0.40090227
0.40108196
0.4013388
0.40158403
0.40199349
0.40190084
0.40201516
0.4015474
0.40140923
0.40094271
0.40072858
0.40018054
0.3992906
0.39826526
0.39723137
0.39634557
0.39582708
0.39749981
0.39753576
0.39755257
0.39756705
0.39759156
0.39762911
0.3976814
0.3977576
0.39785189
0.39796837
0.39812214
0.39834394
0.39864784
0.39887117
0.39905736
0.39922727
0.39935058
0.39959198
0.39957554
0.39960794
0.39957892
0.3995964
0.3994761
0.39928529
0.39928916
0.3988837
0.39836934
0.39766732
0.39688588
0.39619026
0.39571468
0.39667737
0.3967059
0.39673123
0.39676307
0.39680757
0.39686567
0.39693711
0.39701157
0.39709427
0.39719917
0.39734646
0.39757467
0.39783488
0.39796088
0.39801799
0.39809538
0.39819446
0.39829964
0.39845205
0.39858333
0.39862953
0.39870778
0.39862476
0.39855351
0.39854987
0.39828579
0.39792628
0.39743202
0.39679886
0.39632165
0.39614975
0.39662425
0.39663092
0.39664278
0.39665932
0.39668166
0.39671111
0.39674909
0.39679781
0.39686099
0.39694516
0.39706531
0.39727146
0.39746027
0.397547
0.39756994
0.39761661
0.39771896
0.39782353
0.3979397
0.39803109
0.3981682
0.39809754
0.39826874
0.398192
0.39821408
0.39806268
0.39781946
0.39749473
0.39729791
0.39710353
0.39695545
76.036323
139.63833
221.46371
299.68915
359.83013
397.01649
411.23723
406.21274
386.75348
351.10743
307.97311
260.82488
212.69283
166.069
122.79421
84.081665
50.773202
24.701933
9.0663556
2.9548305
1.3273248
0.8708265
0.6863018
0.59291562
0.5326591
0.48926974
0.45778197
0.43733592
0.42368463
0.41510681
0.4107764
164.50348
251.87907
323.06227
374.15506
406.81617
421.37453
419.83506
406.81454
377.62046
338.84707
294.72738
247.98823
201.10312
156.12569
114.60453
77.578047
45.832688
21.462912
7.4826428
2.487447
1.2171583
0.83774624
0.67372727
0.58681749
0.52896979
0.48705119
0.45648831
0.43663996
0.42331948
0.41490825
0.41068398
246.09973
312.65763
366.23593
404.76169
426.29123
431.45166
423.02778
401.16093
367.63662
327.15198
282.60157
236.39584
190.66906
147.16795
107.21438
71.708508
41.424376
18.721341
6.3521781
2.2070084
1.1534722
0.82301196
0.66799271
0.58394978
0.5271617
0.48589473
0.45574069
0.43619891
0.42306208
0.41474521
0.41058015
316.13098
369.4412
408.83829
432.91503
441.66135
437.56024
422.43243
394.10216
357.78455
316.10375
271.3991
225.80734
181.1835
139.03352
100.49957
66.376342
37.455947
16.362183
5.427182
1.9492122
1.102197
0.80311995
0.65934103
0.57938004
0.52419569
0.48407714
0.45464806
0.4355951
0.42273485
0.41455891
0.41046956
368.47168
409.10187
436.42866
450.00052
450.77827
440.5503
418.0346
386.32821
348.1334
305.66038
261.01283
216.09232
172.52256
131.6176
94.376483
61.510924
33.869447
14.292799
4.6547162
1.7763698
1.0607662
0.78979279
0.65384322
0.57642801
0.52222863
0.482846
0.45386226
0.43513743
0.42246847
0.41439182
0.41035574
409.43615
440.05038
457.61138
462.41934
457.02707
440.11221
412.93156
378.54891
338.88323
295.885
251.42826
207.19617
164.61902
124.85541
88.787845
57.056921
30.62668
12.465722
4.015866
1.6160608
1.0268244
0.77531878
0.64723508
0.57275341
0.5197446
0.48130419
0.45290737
0.43459788
0.4221656
0.41421248
0.41023735
441.50336
463.53329
473.00755
471.48349
459.82405
437.61483
407.35261
370.93465
330.16665
286.84456
242.65288
199.09108
157.43042
118.70193
83.690913
52.987432
27.696957
10.874454
3.4959104
1.5053868
0.99833147
0.76405387
0.64233706
0.56997038
0.51781039
0.48009464
0.45213138
0.43414572
0.42189814
0.41404415
0.41011608
466.81698
481.63041
484.56666
478.22835
460.74142
434.71438
401.83144
363.74312
322.12037
278.59808
234.69528
191.75768
150.92528
113.12257
79.052256
49.278173
25.051944
9.5025116
3.0889219
1.4108153
0.9744145
0.75301215
0.6371482
0.56693757
0.51568049
0.4787558
0.45128253
0.43365764
0.42161311
0.41386986
0.40999325
487.16307
495.88117
493.88235
482.33165
460.6783
431.61713
396.58961
357.14506
314.843
271.18644
227.55884
185.17882
145.07789
108.0905
74.857597
45.906517
22.688015
8.3344626
2.7580206
1.3405554
0.95376699
0.74383618
0.63296212
0.56443559
0.51388113
0.47761557
0.45054452
0.43322496
0.42134954
0.4137022
0.40986941
504.10906
507.68031
501.57177
485.10721
460.25203
428.69534
391.86978
351.28366
308.40741
264.63614
221.24198
179.33805
139.86601
103.5831
71.092976
42.86572
20.573846
7.3508356
2.5031044
1.2867498
0.93600599
0.73532288
0.62883949
0.56190719
0.51204594
0.47643698
0.44978526
0.43278161
0.4210789
0.41353207
0.4097446
518.79335
518.05641
507.76918
487.50264
459.96272
426.23659
387.84914
346.26065
302.86326
258.96253
215.73952
174.21948
135.26952
99.581631
67.733142
40.138363
18.696428
6.5327819
2.2958678
1.2427332
0.92040991
0.72809026
0.62537188
0.55972876
0.51043459
0.47538657
0.44910112
0.43237627
0.42082235
0.41336622
0.40961894
531.6286
527.39328
513.10723
489.96122
460.07008
424.41795
384.65264
342.14714
298.24395
254.17358
211.04433
169.80774
131.26948
96.077762
64.756797
37.710564
17.046069
5.8616377
2.137722
1.2081972
0.90688451
0.72162477
0.62211998
0.55762797
0.50886671
0.47434327
0.44842322
0.43197362
0.42056472
0.41319981
0.40949245
543.42008
535.93515
518.37877
492.73926
460.62905
423.37489
382.36852
338.99492
294.57294
250.27321
207.14879
166.08943
127.85567
93.043823
62.141177
35.569277
15.608629
5.3174678
2.0145537
1.180201
0.89504256
0.71614176
0.61935509
0.55578485
0.50746943
0.47339152
0.44780164
0.43159917
0.4203175
0.41303645
0.4093652
554.55902
544.04216
523.86821
496.01537
461.86162
423.24239
381.05678
336.83987
291.87159
247.27429
204.05521
163.0723
125.0136
90.455954
59.873372
33.693937
14.369944
4.8832172
1.9233048
1.1579892
0.88482945
0.71140231
0.61687538
0.55406756
0.50615345
0.47247078
0.44720067
0.43123394
0.4200728
0.41287352
0.40923724
565.70526
552.31184
529.87484
500.05904
464.28197
423.97047
380.82081
335.75874
290.18615
245.22368
201.79109
160.74616
122.73255
88.318762
57.955701
32.059829
13.314034
4.5440038
1.8587845
1.1403313
0.87606014
0.70746477
0.61480504
0.55256237
0.50497916
0.47162395
0.44664589
0.4308909
0.41983709
0.41271318
0.40910843
577.35849
561.45901
536.91227
505.22637
467.84686
426.19778
381.6864
335.84485
289.58271
244.1047
200.33742
159.0919
121.01211
86.631103
56.388439
30.666611
12.427371
4.2894152
1.8097374
1.1261955
0.86871292
0.70418736
0.61305069
0.55120772
0.50390149
0.470822
0.4461188
0.43055972
0.41960654
0.41255418
0.4089785
589.23029
571.4796
545.11156
511.698
472.73499
429.69636
383.95804
336.95409
289.91805
243.86849
199.65536
158.114
119.85103
85.392985
55.171203
29.532732
11.714963
4.0832734
1.76515
1.1146863
0.8626762
0.70159027
0.61166254
0.55004541
0.5029477
0.47008696
0.44563202
0.43024674
0.41938443
0.41239745
0.40884748
597.66771
579.34714
552.25928
517.96014
478.02212
433.94705
387.20585
339.21411
291.27039
244.45373
199.74101
157.81479
119.25294
84.606838
54.303527
28.663651
11.158521
3.9187167
1.7294804
1.1060443
0.85790441
0.69961125
0.61058982
0.5490492
0.50209468
0.46940582
0.44517608
0.42994643
0.41916891
0.41224241
0.40871544
604.97559
585.78611
558.2523
523.63642
483.26428
438.60351
391.1589
342.3843
293.63002
246.05798
200.66256
158.16206
119.22337
84.278281
53.787089
28.062768
10.743167
3.7883653
1.6999257
1.0999248
0.85433906
0.69825475
0.60984435
0.54824165
0.50135442
0.46879031
0.44475728
0.42966194
0.41896185
0.41208961
0.40858246
614.10942
593.6287
565.23042
530.06448
489.24054
444.07795
396.01967
346.50777
296.94045
248.55802
202.408
159.26944
119.7799
84.391598
53.625474
27.731845
10.458846
3.686635
1.6764929
1.0963643
0.85196016
0.69750731
0.60939863
0.54761646
0.50071745
0.46823584
0.4443713
0.42939058
0.41876239
0.41193877
0.40844861
623.12391
601.96837
573.00649
537.39603
496.15439
450.53305
401.89096
351.65607
301.24636
251.98822
204.98927
161.08874
120.93893
85.019105
53.820141
27.673162
10.301506
3.6074518
1.6579108
1.0952789
0.85077601
0.69739857
0.60926027
0.5471903
0.50019175
0.46774909
0.44402131
0.42913383
0.41857129
0.41179002
0.40831391
631.70572
610.39229
581.30802
545.54289
504.04136
458.03604
408.84614
357.87967
306.59802
256.38969
208.43714
163.64844
122.71449
86.13951
54.404829
27.895061
10.275207
3.5443317
1.6434722
1.0962859
0.85081635
0.69791285
0.60934816
0.54696128
0.49977337
0.46732694
0.44370407
0.42888951
0.41838734
0.41164281
0.40817836
639.47112
618.25031
589.48526
554.04855
512.75038
466.57543
416.89722
365.21158
313.02954
261.79614
212.78268
166.97773
125.12802
87.773026
55.379297
28.418593
10.371994
3.4873343
1.6324404
1.100338
0.85183248
0.69898001
0.60975171
0.54692017
0.49945694
0.46696644
0.44341771
0.42865669
0.41820974
0.41149679
0.40804198
645.09381
624.14745
595.87821
560.95118
520.0612
474.07751
424.25683
372.12816
319.28269
267.19878
217.23383
170.46752
127.71613
89.574377
56.497101
29.061817
10.586888
3.4187135
1.6232166
1.1056871
0.85376298
0.70030671
0.61029026
0.54697807
0.49922101
0.46665612
0.44315645
0.42843312
0.41803753
0.4113521
0.40790483
75.799532
131.6915
207.89368
283.05925
343.76368
384.14059
402.73927
401.72756
385.41362
352.47659
311.18986
265.01951
217.15669
170.35234
126.62483
87.319388
53.326275
26.364826
9.8179855
3.1132522
1.3601854
0.88071164
0.69010534
0.59489163
0.53399634
0.49014351
0.45835358
0.4376768
0.42388416
0.41523307
0.41082387
76.221126
128.48253
201.22919
274.12387
334.11128
375.07394
395.17571
395.97187
381.52207
350.63666
310.38782
264.97128
217.72526
171.27869
127.70097
88.399392
54.337688
27.140999
10.222637
3.2201242
1.3806781
0.88688534
0.69254762
0.59616778
0.53488587
0.4907143
0.45872266
0.43790051
0.42401909
0.4153272
0.41086814
77.132172
125.79743
194.43629
264.9208
324.10393
365.60834
387.17943
389.80315
376.90928
347.97727
309.19573
264.82625
218.2543
172.20642
128.80419
89.520252
55.392421
27.958974
10.662103
3.3410009
1.403234
0.89338449
0.69509219
0.59751813
0.53580168
0.49134559
0.45914931
0.43815644
0.42417028
0.41541982
0.41093096
78.508855
123.39125
187.79648
255.62938
313.86038
355.79578
378.76251
383.20397
371.95497
345.01493
307.7877
264.54194
218.72259
173.12262
129.92759
90.679593
56.488461
28.820567
11.137767
3.4764852
1.4285217
0.90070207
0.69794402
0.59896041
0.53680605
0.49196028
0.45953416
0.43839253
0.424318
0.41552759
0.41099269
80.849024
121.80687
181.62221
246.47027
303.50471
345.69169
369.94263
376.16969
366.62969
341.7256
306.13614
264.10492
219.11263
174.01601
131.06502
91.875265
57.623261
29.733414
11.650099
3.6276357
1.4565225
0.90821995
0.70098804
0.60059887
0.53785449
0.49270346
0.46003749
0.43869255
0.42449406
0.41563834
0.4110501
83.353892
120.43871
175.75348
237.42745
293.05897
335.32764
360.74142
368.70588
360.91621
338.0892
304.21641
263.4919
219.40584
174.87416
132.20925
93.104128
58.795972
30.69802
12.190846
3.7960689
1.4882119
0.91697247
0.70433086
0.60226368
0.53901079
0.49345203
0.4605262
0.4389874
0.42467309
0.41575608
0.41109329
87.046383
120.20886
170.59542
228.79427
282.72568
324.82714
351.22228
360.83261
354.79331
334.09787
302.00707
262.6815
219.58349
175.68612
133.3548
94.365008
60.015735
31.718522
12.773358
3.9833684
1.5239907
0.9261026
0.70795333
0.60410032
0.5402092
0.49424228
0.4610442
0.43929736
0.42486254
0.41588044
0.41115655
91.365245
120.55726
166.09026
220.56117
272.51613
314.2095
341.40455
352.56645
348.30369
329.71362
299.4923
261.6572
219.62339
176.44326
134.49832
95.657698
61.28043
32.791951
13.419647
4.1922644
1.5642388
0.9359582
0.71186662
0.60606491
0.54148947
0.4950725
0.46158502
0.43962392
0.42506292
0.41601177
0.4112448
96.499879
121.5789
162.40403
212.92405
262.59942
303.60073
331.36911
343.94491
341.42483
324.93955
296.64678
260.3932
219.54201
177.12799
135.62505
96.96951
62.585994
33.918188
14.121384
4.4252312
1.6095354
0.94661196
0.71612361
0.6081677
0.54282376
0.49594078
0.46215897
0.4399651
0.42527417
0.41614929
0.41136767
102.62127
123.80367
159.70324
206.0525
253.12714
293.11735
321.19551
335.01112
334.17397
319.76722
293.45308
258.86768
219.29842
177.72387
136.72352
98.292853
63.928155
35.106565
14.879529
4.6852241
1.6605849
0.95813406
0.72068959
0.61040289
0.54426555
0.4968543
0.46275236
0.44032485
0.42549743
0.41629371
0.4114821
109.0713
126.62364
157.82216
199.92718
244.1673
282.85396
310.96582
325.81611
326.59157
314.19115
289.89743
257.05806
218.83993
178.21136
137.78084
99.619618
65.301441
36.352411
15.701858
4.9763029
1.7182435
0.97063297
0.72574618
0.61283676
0.54575039
0.49779426
0.46338547
0.44069824
0.42573112
0.41644435
0.41158719
116.05529
130.42858
157.08505
194.75892
235.88924
272.94725
300.78544
316.43175
318.72106
308.22279
285.97269
254.94754
218.17012
178.57248
138.78317
100.94094
66.700147
37.640283
16.562262
5.2995154
1.7834091
0.98420867
0.73108051
0.61534968
0.54736949
0.49879061
0.46402886
0.441091
0.42597712
0.41660312
0.4116976
123.21
134.86918
157.30002
190.63089
228.42558
263.52922
290.76509
306.95239
310.60251
301.89248
281.68133
252.52437
217.27104
178.78741
139.71577
102.24706
68.118498
38.968983
17.456636
5.6591786
1.8571487
0.99902662
0.73708035
0.61821261
0.54901259
0.4997842
0.46472037
0.44149576
0.42623139
0.41676807
0.41181849
129.85807
139.29713
158.05968
187.47004
221.8442
254.72296
281.05675
297.46286
302.28817
295.24218
277.03924
249.78483
216.12728
178.82068
140.56297
103.52744
69.550092
40.334114
18.401898
6.0583786
1.940711
1.0152832
0.74346561
0.62099443
0.55079107
0.50085877
0.46540689
0.44191765
0.42649782
0.4169413
0.41194518
135.81092
143.69961
159.62592
185.26053
216.22237
246.6644
271.79437
288.10576
293.8388
288.34893
272.07323
246.73566
214.73614
178.72515
141.31587
104.7716
70.987808
41.730124
19.397082
6.502162
2.0355701
1.0331775
0.75029303
0.62436101
0.55259538
0.50188054
0.46615122
0.44235172
0.42676812
0.41711951
0.41207645
140.87625
147.72209
161.5729
184.02775
211.62514
239.46643
263.10692
279.02981
285.36946
281.28499
266.83436
243.39531
213.09792
178.45476
141.96246
105.9693
72.424143
43.150253
20.447231
6.985456
2.1432732
1.0531514
0.75846115
0.62749976
0.55445082
0.5030178
0.46687022
0.4427926
0.42704975
0.4173057
0.41221194
145.72522
152.01322
164.42155
184.13954
208.33314
233.35197
255.18159
270.4076
277.03003
274.14789
261.38905
239.79789
211.21807
177.97123
142.48945
107.11111
73.853086
44.589382
21.557894
7.5344737
2.2660581
1.0752557
0.76559182
0.6311868
0.55642202
0.50404112
0.467654
0.44325243
0.42732881
0.4174957
0.4123505
150.92973
157.00094
168.12236
185.04983
206.23565
228.40656
248.17752
262.40765
268.98744
267.0588
255.82102
235.99343
209.11843
177.30501
142.89075
108.18922
75.27091
46.050886
22.738024
8.1407174
2.4056055
1.1004091
0.77628797
0.63510414
0.55819753
0.50519074
0.46839009
0.44369272
0.42761795
0.41769256
0.41249116
157.78157
163.24727
172.91985
187.44603
205.70328
224.74817
242.20114
255.15463
261.39625
260.14597
250.22714
232.04066
206.82673
176.46355
143.16278
109.19556
76.667837
47.537646
23.983524
8.7749179
2.5643466
1.1293181
0.78408283
0.63854387
0.56034193
0.50619665
0.46918262
0.44417052
0.42789906
0.41789227
0.41263369
167.15302
171.40014
179.31131
191.21746
206.1765
222.26945
237.2873
248.72984
254.38385
253.52825
244.70234
228.00551
204.38012
175.45969
143.30137
110.12068
78.030189
49.026996
25.269463
9.4686363
2.7450265
1.1623275
0.79576525
0.64369147
0.56187095
0.50724149
0.46991117
0.44458264
0.42818742
0.41809414
0.41277727
178.84623
181.41286
187.03596
195.96581
207.59916
220.7357
233.3224
243.12501
248.01926
247.29589
239.33025
223.95216
201.81682
174.3046
143.28791
110.95221
79.347292
50.512317
26.594514
10.235765
2.9524476
1.1998394
0.80737783
0.64702766
0.56412245
0.50823337
0.47064731
0.44505998
0.42846855
0.41829719
0.41292048
192.4443
193.21707
196.30435
202.17253
210.60115
220.67356
230.47044
238.39346
242.35067
241.50898
234.17343
219.93243
199.17115
173.02132
143.18802
111.68974
80.609686
51.983567
27.944319
11.057986
3.1913016
1.2428721
0.81715509
0.65217845
0.56535023
0.50898198
0.4713256
0.44542101
0.42874553
0.41849199
0.41306108
207.80201
206.87444
207.25028
209.82791
214.73597
221.37751
228.54433
234.49033
237.37357
236.1891
229.26431
215.97758
196.46581
171.61786
142.94805
112.32364
81.808184
53.432344
29.308571
11.912392
3.4613977
1.2912267
0.83296454
0.65720881
0.56742409
0.50994532
0.47191374
0.44586263
0.42902715
0.418688
0.41319732
223.21242
220.89202
219.23492
218.85204
220.22404
223.36981
227.69762
231.4213
233.05215
231.31219
224.59438
212.08856
193.70146
170.08701
142.55291
112.83893
82.932355
54.853327
30.692806
12.830021
3.7604724
1.3452065
0.84247921
0.66115398
0.56850116
0.51033567
0.47247343
0.44616925
0.42927157
0.41886077
0.41332602
235.78428
233.38952
230.65871
228.23746
226.92076
226.86491
227.97654
229.24772
229.39672
226.85301
220.12861
208.23483
190.85454
168.40991
142.00084
113.22324
83.969835
56.238327
32.094784
13.843551
4.1197886
1.4096093
0.85735477
0.66515593
0.56972579
0.51096066
0.47285437
0.44652389
0.4295411
0.41903917
0.41344531
241.76186
240.39233
238.11068
235.27144
232.44151
230.15963
228.65844
227.72454
226.20182
222.70376
215.79224
204.35642
187.87655
166.5474
141.25609
113.43394
84.895119
57.569407
33.500313
14.920201
4.5322908
1.4836017
0.87008837
0.67221488
0.57137078
0.51130323
0.47320973
0.44678447
0.42972176
0.41917622
0.41355086
241.19354
240.79379
239.39459
237.07015
234.14305
231.09525
228.40233
225.92641
222.99106
218.58111
211.41198
200.33817
184.68461
164.43565
140.26509
113.41647
85.676309
58.825271
34.88959
16.037673
4.9918149
1.5651721
0.88209215
0.67456908
0.57136029
0.5112998
0.47334387
0.44697196
0.42994097
0.41932414
0.41364144
236.87019
237.79688
237.40002
235.79469
233.26489
230.16766
226.84307
223.21966
219.22195
214.09309
206.72693
196.00925
181.16521
162.0023
138.99766
113.24761
86.305273
59.988346
36.250355
17.194289
5.5160175
1.656898
0.89439117
0.67716103
0.57203323
0.51139533
0.47342377
0.44716555
0.43006333
0.4194192
0.41371191
225.96845
228.80256
230.51963
230.69648
229.23983
226.51172
222.85891
218.78695
214.30893
208.84647
201.48857
191.21543
177.21956
159.18019
137.39578
112.80098
86.749203
61.036747
37.563326
18.369559
6.0805032
1.7617188
0.90667492
0.68177358
0.57206775
0.51111036
0.47335057
0.44717773
0.43018764
0.41951811
0.41376193
212.22335
215.35586
217.77126
219.10036
219.21757
217.94793
215.47287
212.07794
207.8818
202.59696
195.54862
185.87305
172.7993
155.92786
135.41109
112.0049
86.948261
61.942227
38.808897
19.549541
6.6938752
1.882343
0.91715936
0.68211585
0.57104767
0.51093091
0.47325557
0.44720186
0.43029617
0.41956973
0.41378626
199.74067
202.70834
205.19432
206.91961
207.68333
207.40896
206.04778
203.6468
200.17897
195.4439
188.96463
180.03203
167.94738
152.27742
133.06794
110.91225
86.911619
62.690384
39.971699
20.718072
7.3637454
2.0204796
0.92871929
0.68191287
0.57137556
0.51114533
0.47306296
0.44715854
0.43031126
0.41960352
0.41378545
190.58732
193.02141
195.11222
196.68266
197.54223
197.62294
196.80472
195.02414
192.18737
188.05421
182.19629
174.01959
162.89883
148.3975
130.47197
109.58656
86.737744
63.299715
41.047318
21.865408
8.0757696
2.1786911
0.9422841
0.68217379
0.57154663
0.51058269
0.47273292
0.44710562
0.43035862
0.41959545
0.41375618
185.86351
187.68972
189.18914
190.2671
190.78924
190.6687
189.78337
188.06079
185.36396
181.45675
175.96492
168.3458
158.02096
144.54669
127.80032
108.1226
86.358606
63.780479
42.043431
22.9886
8.830298
2.3616955
0.95938543
0.6833088
0.57160865
0.51054972
0.47270135
0.44703309
0.43033931
0.41956383
0.41369877
184.92688
186.36006
187.4568
188.11523
188.24498
187.70971
186.40396
184.22583
181.07489
176.81865
171.1616
163.65538
153.77064
141.04789
125.282
106.67958
85.9317
64.192719
42.991878
24.103992
9.6452466
2.5773415
0.98222956
0.68620537
0.57353757
0.51176689
0.47257225
0.44693751
0.43031348
0.4195102
0.41361315
185.75021
186.98497
187.88482
188.36889
188.34484
187.63361
186.06254
183.50852
179.86269
174.97641
168.68677
160.75389
150.78129
138.35646
123.22393
105.46208
85.597562
64.619574
43.937373
25.241415
10.537159
2.8371901
1.0131722
0.69101523
0.57775453
0.51219525
0.47257186
0.44697072
0.4302511
0.41938962
0.4134987
186.4237
187.76297
188.77711
189.342
189.35288
188.60719
186.94543
184.22517
180.31316
175.08024
168.34982
159.85589
149.44414
136.87415
121.94753
104.68859
85.511606
65.132032
44.920695
26.426576
11.514919
3.1545518
1.054684
0.69958453
0.58109177
0.51291709