/*--------------------------------*- C++ -*----------------------------------*\
| =========                 |                                                 |
| \\      /  F ield         | OpenFOAM: The Open Source CFD Toolbox           |
|  \\    /   O peration     | Version:  2406                                  |
|   \\  /    A nd           | Website:  www.openfoam.com                      |
|    \\/     M anipulation  |                                                 |
\*---------------------------------------------------------------------------*/
FoamFile
{
    version     2.0;
    format      ascii;
    arch        "LSB;label=32;scalar=64";
    class       volScalarField;
    location    "0.059";
    object      rho;
}
// * * * * * * * * * * * * * * * * * * * * * * * * * * * * * * * * * * * * * //

dimensions      [1 -3 0 0 0 0 0];

internalField   nonuniform List<scalar> 
8260
(
1.2000022
1.1990683
1.1985236
1.1978432
1.1972037
1.1967209
1.1964292
1.1963305
1.1964164
1.1966703
1.1971006
1.1976848
1.1983901
1.1991775
1.1999872
1.2008157
1.2011956
1.2012633
1.2013606
1.2015135
1.2016676
1.2018011
1.2019189
1.2020251
1.2021151
1.2021903
1.2022544
1.2023063
1.2023505
1.2023783
1.2023987
1.2015831
1.2007879
1.2000022
1.1991443
1.1983833
1.1977895
1.1973823
1.1971732
1.1971455
1.1972931
1.1976235
1.1981203
1.1987456
1.1994716
1.2001902
1.2009397
1.2012463
1.2013134
1.2014104
1.2015557
1.2017019
1.2018287
1.201941
1.2020427
1.2021293
1.2022018
1.2022639
1.2023143
1.2023573
1.2023843
1.2024042
1.2025412
1.201835
1.2009941
1.2000833
1.1992748
1.1986225
1.1981435
1.1978593
1.1977579
1.1978126
1.1980665
1.1984945
1.1990605
1.1997475
1.2004036
1.201093
1.2013153
1.2013805
1.2014723
1.2016063
1.2017424
1.2018612
1.2019668
1.2020634
1.2021458
1.2022151
1.2022748
1.2023234
1.2023651
1.2023912
1.2024104
1.2032699
1.2026262
1.2018108
1.2009037
1.2000776
1.1993885
1.1988554
1.1985006
1.1983262
1.1983169
1.1985037
1.1988685
1.1993818
1.2000327
1.2006358
1.2012571
1.2014011
1.2014582
1.2015433
1.2016636
1.2017884
1.201898
1.2019961
1.2020868
1.2021646
1.2022303
1.2022872
1.2023338
1.202374
1.202399
1.2024175
1.2038607
1.2032783
1.2025207
1.2016535
1.2008403
1.2001403
1.1995749
1.199167
1.1989297
1.1988635
1.1989861
1.1992881
1.1997479
1.2003543
1.2008995
1.2014267
1.2015055
1.2015477
1.2016247
1.201729
1.2018407
1.20194
1.2020295
1.2021136
1.2021859
1.2022475
1.2023013
1.2023456
1.2023841
1.2024078
1.2024256
1.2043043
1.2037767
1.2030957
1.2023012
1.2015348
1.2008546
1.2002845
1.1998487
1.1995674
1.199452
1.1995166
1.1997587
1.2001659
1.2007187
1.2011969
1.2016002
1.2016293
1.2016514
1.2017175
1.2018033
1.2019002
1.2019879
1.2020676
1.202144
1.2022102
1.2022672
1.2023174
1.2023591
1.2023955
1.2024179
1.2024348
1.204603
1.2041285
1.203528
1.2028312
1.2021419
1.2015111
1.2009643
1.200527
1.2002236
1.2000725
1.2000895
1.2002784
1.2006374
1.2011268
1.2015233
1.20178
1.2017705
1.2017721
1.2018231
1.2018878
1.2019678
1.2020424
1.202111
1.2021787
1.202238
1.2022896
1.2023357
1.2023744
1.2024086
1.2024294
1.2024452
1.2047792
1.2043626
1.2038553
1.2032652
1.2026685
1.2021082
1.2016084
1.2011939
1.2008905
1.2007207
1.2007031
1.2008484
1.201166
1.2015751
1.2018688
1.201976
1.2019262
1.2019121
1.2019423
1.2019835
1.2020444
1.2021041
1.2021602
1.2022181
1.2022695
1.2023151
1.2023565
1.2023919
1.2024234
1.2024425
1.202457
1.2048917
1.2045191
1.2041012
1.2036222
1.2031293
1.2026553
1.2022214
1.2018502
1.201567
1.2013955
1.2013572
1.2014702
1.2017512
1.2020527
1.202223
1.2021933
1.2020996
1.2020721
1.2020758
1.2020918
1.2021311
1.2021738
1.202216
1.2022628
1.2023054
1.2023441
1.2023801
1.2024117
1.2024402
1.2024575
1.2024704
1.2049678
1.2046672
1.2043176
1.2039401
1.2035563
1.2031777
1.2028209
1.2025068
1.2022586
1.2020999
1.2020536
1.2021434
1.2023792
1.202559
1.2025751
1.2024212
1.2022981
1.2022519
1.2022242
1.2022137
1.2022287
1.2022523
1.2022791
1.2023133
1.2023459
1.2023771
1.2024071
1.2024344
1.2024594
1.2024745
1.2024856
1.2050178
1.2048697
1.2046329
1.2043478
1.2040391
1.2037333
1.2034445
1.2031874
1.2029801
1.2028439
1.2028024
1.2028744
1.2030398
1.2030708
1.2028941
1.2026602
1.2025275
1.2024493
1.2023878
1.2023497
1.2023377
1.2023406
1.2023505
1.2023701
1.2023917
1.2024146
1.2024378
1.2024602
1.2024812
1.202494
1.202503
1.2052047
1.2051278
1.204992
1.2047859
1.2045569
1.2043297
1.2041136
1.203918
1.2037572
1.2036517
1.2036239
1.2036631
1.2036765
1.2035012
1.203177
1.2029306
1.2027783
1.2026591
1.2025664
1.2024983
1.2024591
1.2024402
1.2024309
1.2024341
1.2024434
1.2024571
1.2024731
1.2024897
1.2025062
1.2025162
1.202523
1.2056226
1.2056947
1.2056435
1.205471
1.2052761
1.2050926
1.2049249
1.2047734
1.2046424
1.2045409
1.2044662
1.2043696
1.2041459
1.2037911
1.2034685
1.2032263
1.2030325
1.2028805
1.2027569
1.2026596
1.2025922
1.2025504
1.2025212
1.2025064
1.202502
1.2025054
1.2025133
1.2025233
1.2025344
1.2025414
1.202546
1.2064687
1.2063666
1.2062242
1.2060485
1.2058831
1.2057573
1.2056582
1.2055521
1.2054191
1.2052517
1.2050337
1.204746
1.2044013
1.2040677
1.2037747
1.203512
1.2032895
1.2031052
1.2029546
1.2028297
1.2027357
1.2026707
1.2026214
1.2025882
1.2025682
1.2025598
1.2025588
1.2025614
1.2025664
1.2025698
1.2025724
1.2067664
1.2068278
1.2068622
1.2068686
1.206787
1.2065943
1.2063669
1.2061337
1.2058739
1.2055827
1.2052714
1.2049466
1.2046372
1.2043422
1.2040547
1.2037826
1.2035376
1.2033299
1.203154
1.2030051
1.2028867
1.2027993
1.2027309
1.2026784
1.2026425
1.2026207
1.2026095
1.2026041
1.2026023
1.2026016
1.2026027
1.2067649
1.206692
1.2065784
1.2064363
1.2063304
1.206277
1.2062346
1.2061886
1.2060582
1.2058095
1.2055008
1.2051802
1.2048755
1.2045783
1.2042942
1.2040238
1.2037732
1.2035487
1.2033515
1.2031805
1.203042
1.2029335
1.2028458
1.202776
1.2027238
1.2026879
1.2026653
1.2026513
1.2026423
1.202637
1.2026371
1.2067583
1.2067018
1.2066273
1.2065375
1.2064408
1.2063295
1.206175
1.2059696
1.205795
1.2057052
1.2055867
1.205368
1.2050786
1.2047814
1.2044974
1.2042305
1.2039812
1.2037534
1.2035441
1.2033537
1.2031975
1.2030701
1.2029643
1.2028778
1.2028104
1.2027608
1.2027265
1.2027031
1.2026867
1.2026765
1.2026758
1.2064755
1.2064264
1.2063663
1.2062991
1.206224
1.206139
1.2060445
1.2059396
1.2058163
1.2056545
1.2054907
1.2053842
1.2052291
1.2049705
1.2046817
1.2044075
1.2041556
1.2039298
1.203724
1.2035235
1.2033519
1.2032074
1.2030849
1.2029828
1.2029014
1.2028398
1.2027933
1.2027598
1.2027359
1.2027203
1.2027188
1.2062909
1.2062539
1.2062077
1.2061547
1.2060933
1.2060212
1.2059361
1.2058376
1.2057282
1.2056136
1.2054806
1.205296
1.2051343
1.2050362
1.2048393
1.2045775
1.2043162
1.2040797
1.2038791
1.203686
1.2035044
1.2033459
1.2032083
1.203092
1.202998
1.2029243
1.2028667
1.2028221
1.20279
1.2027691
1.202766
1.2060104
1.2059786
1.2059396
1.2058959
1.2058468
1.2057914
1.2057291
1.205659
1.2055784
1.2054834
1.2053764
1.2052718
1.2051369
1.2049748
1.2048711
1.2047114
1.2044845
1.2042355
1.2040126
1.2038271
1.2036478
1.203484
1.2033372
1.2032077
1.2031007
1.2030146
1.2029459
1.2028903
1.2028495
1.202823
1.2028173
1.2058051
1.2057819
1.2057531
1.2057204
1.2056828
1.2056392
1.2055883
1.2055286
1.2054595
1.2053808
1.20529
1.2051788
1.2050597
1.204933
1.204772
1.2046889
1.2045925
1.2043862
1.2041531
1.2039473
1.2037721
1.2036118
1.2034644
1.2033266
1.2032085
1.2031092
1.2030292
1.2029641
1.2029144
1.2028821
1.2028726
1.2055415
1.2055219
1.2054979
1.2054711
1.205441
1.2054069
1.2053683
1.2053246
1.205275
1.2052181
1.2051533
1.2050824
1.2049986
1.2049023
1.2048072
1.2046393
1.2045068
1.2044449
1.204279
1.2040736
1.2038807
1.2037184
1.2035758
1.2034392
1.2033156
1.2032055
1.2031152
1.2030418
1.2029845
1.2029464
1.2029321
1.2053437
1.2053299
1.2053129
1.2052937
1.2052719
1.2052465
1.2052169
1.2051821
1.2051414
1.2050937
1.2050379
1.2049717
1.2048968
1.2048113
1.2047175
1.2046424
1.2045086
1.2043813
1.2043255
1.2041802
1.2039944
1.2038115
1.2036642
1.2035363
1.2034164
1.203302
1.2032031
1.2031229
1.2030592
1.2030156
1.2029959
1.2051067
1.205095
1.2050808
1.2050651
1.2050474
1.2050274
1.2050047
1.204979
1.20495
1.2049172
1.20488
1.204838
1.2047893
1.2047337
1.2046678
1.2045879
1.2045158
1.2043984
1.2042666
1.2042005
1.2040841
1.2039134
1.2037474
1.2036238
1.2035116
1.2033967
1.2032933
1.2032061
1.2031374
1.203089
1.2030643
1.204937
1.2049295
1.2049202
1.2049098
1.2048979
1.2048841
1.2048679
1.2048485
1.2048255
1.2047979
1.2047649
1.2047257
1.2046802
1.2046281
1.2045703
1.2045046
1.2044279
1.2043606
1.204265
1.2041592
1.2041051
1.2039959
1.2038451
1.2037159
1.2036008
1.2034864
1.2033823
1.2032909
1.2032182
1.2031661
1.2031372
1.2047324
1.2047253
1.2047169
1.2047074
1.2046967
1.2046845
1.2046705
1.2046547
1.2046369
1.204617
1.2045951
1.204571
1.2045445
1.2045145
1.2044779
1.2044336
1.2043821
1.2043168
1.2042601
1.2041793
1.2040576
1.2039925
1.2039111
1.2037961
1.2036736
1.2035657
1.2034643
1.2033749
1.2032999
1.2032456
1.2032139
1.204603
1.2045984
1.2045929
1.2045868
1.20458
1.2045723
1.2045636
1.2045537
1.2045423
1.2045291
1.2045137
1.2044953
1.2044728
1.2044448
1.2044115
1.2043731
1.2043283
1.2042756
1.204207
1.2041503
1.2040934
1.2039916
1.2039017
1.2038271
1.2037306
1.2036338
1.2035396
1.203455
1.2033815
1.203326
1.2032928
1.2044529
1.2044495
1.2044457
1.2044414
1.2044366
1.2044311
1.2044248
1.2044174
1.2044087
1.2043986
1.2043868
1.2043729
1.204357
1.2043385
1.2043169
1.2042906
1.2042589
1.2042242
1.2041825
1.2041314
1.2040874
1.2040432
1.2039704
1.2038643
1.2037794
1.2036964
1.2036121
1.2035318
1.2034614
1.2034058
1.2033718
1.2043671
1.2043649
1.2043622
1.2043593
1.2043558
1.2043517
1.2043468
1.204341
1.2043341
1.2043257
1.2043157
1.2043038
1.2042895
1.2042729
1.2042532
1.2042305
1.2042049
1.2041748
1.2041448
1.2041103
1.2040581
1.2040189
1.2039832
1.2039094
1.203829
1.203752
1.2036764
1.2036017
1.2035353
1.2034812
1.2034474
1.2042753
1.2042728
1.2042698
1.2042665
1.2042628
1.2042586
1.2042538
1.2042484
1.2042422
1.2042353
1.2042274
1.2042185
1.204208
1.2041958
1.2041824
1.2041671
1.2041498
1.2041295
1.204103
1.2040693
1.2040336
1.2039834
1.2039356
1.203906
1.2038557
1.2037927
1.2037266
1.2036615
1.2036009
1.2035502
1.2035188
1.2041563
1.2041555
1.2041546
1.2041535
1.2041523
1.2041509
1.2041493
1.2041473
1.204145
1.2041422
1.2041388
1.2041346
1.2041297
1.2041236
1.2041161
1.2041071
1.2040955
1.2040808
1.2040631
1.2040424
1.2040178
1.2039895
1.2039545
1.2039094
1.2038598
1.2038076
1.2037512
1.203693
1.2036371
1.2035901
1.2035614
1.1885601
1.1889083
1.1893177
1.1896792
1.1899627
1.1902316
1.1905762
1.1910218
1.1915433
1.1921858
1.1929384
1.1937855
1.1947146
1.1957014
1.1967233
1.1978315
1.1988123
1.199801
1.2002705
1.2005461
1.2007902
1.2010472
1.2012908
1.2015022
1.2016828
1.2018307
1.2019504
1.2020447
1.2021193
1.2021681
1.2022016
1.1894234
1.1897084
1.189854
1.1899915
1.1901545
1.1903901
1.190747
1.1912272
1.1918093
1.1924934
1.1932682
1.194123
1.1950466
1.1960118
1.1970058
1.1980654
1.1990242
1.1999076
1.2002819
1.2005714
1.2008195
1.2010779
1.2013172
1.2015242
1.2017008
1.2018454
1.2019627
1.2020551
1.2021284
1.2021763
1.2022097
1.1892642
1.1893675
1.1894445
1.1896117
1.1898731
1.1902247
1.1906828
1.1912553
1.1919045
1.1926403
1.1934535
1.1943332
1.1952687
1.196231
1.1972217
1.1982459
1.1992115
1.2000025
1.2003202
1.2006074
1.2008559
1.2011122
1.2013457
1.2015477
1.2017199
1.2018609
1.2019755
1.2020659
1.2021378
1.2021848
1.2022177
1.1888455
1.1889683
1.1891126
1.189354
1.1896866
1.1901107
1.1906388
1.1912687
1.1919724
1.1927535
1.1936007
1.194503
1.1954505
1.1964145
1.1974154
1.1984087
1.1993734
1.2000917
1.2003706
1.2006439
1.2008927
1.201146
1.2013738
1.2015709
1.2017388
1.2018763
1.2019883
1.2020767
1.2021472
1.2021934
1.2022256
1.1882351
1.1884292
1.1886611
1.189001
1.1894374
1.1899635
1.1905809
1.1912803
1.1920443
1.1928712
1.1937503
1.1946729
1.1956302
1.1965955
1.1976086
1.1985804
1.1995182
1.2001703
1.2004191
1.2006809
1.2009307
1.2011801
1.2014021
1.2015943
1.2017579
1.2018919
1.2020012
1.2020877
1.2021568
1.202202
1.2022335
1.1874964
1.1877907
1.18815
1.1886235
1.1891854
1.1898223
1.1905309
1.1913025
1.1921255
1.1929957
1.1939043
1.194845
1.1958099
1.1967753
1.1977987
1.1987568
1.199642
1.2002346
1.2004646
1.2007187
1.2009695
1.2012141
1.2014302
1.2016176
1.201777
1.2019075
1.2020142
1.2020987
1.2021664
1.2022107
1.2022416
1.1866043
1.1870737
1.1876117
1.188244
1.1889414
1.1896915
1.1904913
1.1913347
1.1922136
1.1931238
1.1940591
1.1950157
1.1959859
1.1969501
1.197977
1.1989217
1.1997636
1.2002917
1.2005081
1.2007578
1.2010088
1.201248
1.2014583
1.201641
1.2017961
1.2019232
1.2020273
1.2021098
1.2021761
1.2022194
1.2022497
1.1857222
1.1863896
1.1871096
1.1878966
1.188725
1.189583
1.1904697
1.1913806
1.1923102
1.1932559
1.1942144
1.1951843
1.1961572
1.1971213
1.1981427
1.1990737
1.1998918
1.2003457
1.2005508
1.2007982
1.2010484
1.2012817
1.2014864
1.2016643
1.2018151
1.2019389
1.2020404
1.202121
1.2021859
1.2022282
1.2022579
1.184927
1.1857825
1.1866659
1.1875982
1.1885498
1.1895066
1.1904721
1.1914432
1.192417
1.1933929
1.1943704
1.1953506
1.196325
1.1973005
1.1983068
1.1992131
1.20001
1.2004001
1.2005939
1.2008399
1.2010882
1.2013152
1.2015143
1.2016876
1.2018342
1.2019546
1.2020536
1.2021322
1.2021957
1.2022371
1.2022662
1.1842628
1.1852913
1.1863076
1.1873729
1.1884335
1.1894716
1.190504
1.1915254
1.1925352
1.1935353
1.1945273
1.1955148
1.1964918
1.1974815
1.1984645
1.1993473
1.2001134
1.2004555
1.2006381
1.2008827
1.2011279
1.2013486
1.2015421
1.2017107
1.2018532
1.2019704
1.2020668
1.2021435
1.2022056
1.202246
1.2022745
1.1837546
1.1849181
1.1860778
1.1872472
1.1883878
1.1894851
1.1905707
1.1916295
1.1926657
1.193683
1.1946851
1.195679
1.196665
1.1976596
1.1986057
1.199476
1.2002051
1.2005113
1.2006834
1.2009263
1.2011674
1.2013817
1.2015698
1.2017337
1.2018721
1.2019861
1.20208
1.2021548
1.2022155
1.2022549
1.2022828
1.1834863
1.1847485
1.185993
1.1872165
1.1884041
1.1895574
1.1906791
1.1917591
1.1928103
1.193838
1.194847
1.195848
1.1968428
1.1978065
1.1987302
1.1996025
1.2002894
1.2005663
1.2007298
1.2009704
1.2012067
1.2014146
1.2015973
1.2017566
1.201891
1.2020017
1.2020932
1.2021661
1.2022254
1.2022638
1.2022911
1.1835001
1.1847979
1.1860653
1.1873056
1.1885132
1.1896848
1.1908242
1.1919224
1.1929773
1.1940088
1.1950215
1.1960253
1.1969874
1.1979221
1.1988595
1.1997164
1.2003692
1.2006203
1.2007772
1.2010149
1.2012456
1.2014471
1.2016245
1.2017793
1.2019097
1.2020173
1.2021064
1.2021774
1.2022354
1.2022728
1.2022995
1.1837809
1.185066
1.1863036
1.1875201
1.1887147
1.1898798
1.1910206
1.1921257
1.193182
1.194206
1.1952048
1.196166
1.1971062
1.1980466
1.1989789
1.1998172
1.2004481
1.200674
1.2008257
1.2010594
1.2012841
1.2014794
1.2016515
1.2018018
1.2019283
1.2020328
1.2021195
1.2021887
1.2022454
1.2022818
1.2023079
1.1841623
1.1854629
1.1866762
1.1878556
1.1890166
1.1901574
1.1912808
1.1923577
1.1933923
1.194379
1.1953248
1.1962758
1.1972428
1.1981695
1.1990886
1.1999217
1.2005267
1.2007282
1.2008751
1.2011037
1.2013222
1.2015114
1.2016782
1.201824
1.2019467
1.2020482
1.2021326
1.2022
1.2022554
1.2022909
1.2023163
1.1845687
1.1858635
1.1870728
1.1882361
1.1893652
1.1904635
1.19154
1.1925455
1.1935111
1.1944855
1.1954671
1.1964258
1.197381
1.1982872
1.1991938
1.2000276
1.2006031
1.2007835
1.200925
1.2011477
1.2013597
1.2015429
1.2017045
1.2018459
1.2019649
1.2020635
1.2021456
1.2022112
1.2022653
1.2022999
1.2023248
1.1855146
1.1865666
1.1875878
1.1886296
1.189679
1.1907074
1.1916905
1.1926859
1.1937044
1.1946747
1.1956351
1.19658
1.1975159
1.1983999
1.1992947
1.2001277
1.2006765
1.2008396
1.2009746
1.201191
1.2013967
1.201574
1.2017304
1.2018676
1.201983
1.2020786
1.2021585
1.2022224
1.2022752
1.2023089
1.2023332
1.1872799
1.1880257
1.1887265
1.1894929
1.1903296
1.1912031
1.1920821
1.1930083
1.1939634
1.1948875
1.1958098
1.1967312
1.1976472
1.1985085
1.199391
1.2002233
1.2007466
1.2008959
1.201024
1.2012337
1.2014331
1.2016045
1.2017559
1.2018889
1.2020007
1.2020936
1.2021713
1.2022335
1.2022851
1.2023179
1.2023417
1.1888376
1.189438
1.1899402
1.1904943
1.1911307
1.1918301
1.1925706
1.1933859
1.1942525
1.1951121
1.195988
1.1968806
1.1977748
1.1986138
1.1994826
1.2003157
1.2008143
1.2009524
1.2010732
1.2012758
1.2014688
1.2016346
1.2017809
1.2019098
1.2020182
1.2021083
1.2021839
1.2022445
1.202295
1.2023269
1.2023502
1.1905597
1.1909462
1.1912192
1.191556
1.1919906
1.1925061
1.1930986
1.1937961
1.1945605
1.1953482
1.1961695
1.1970274
1.1978975
1.1987158
1.1995696
1.2004044
1.2008798
1.2010086
1.2011222
1.201317
1.2015037
1.2016639
1.2018053
1.2019302
1.2020354
1.2021228
1.2021963
1.2022554
1.2023047
1.2023359
1.2023586
1.1924587
1.192596
1.1926097
1.1927023
1.1929121
1.1932244
1.1936747
1.1942383
1.1948846
1.1955956
1.1963546
1.1971707
1.1980141
1.1988142
1.1996517
1.2004864
1.2009425
1.2010629
1.2011701
1.2013568
1.2015374
1.2016923
1.201829
1.2019501
1.2020521
1.202137
1.2022086
1.2022662
1.2023144
1.2023449
1.2023671
1.1945405
1.194389
1.1941259
1.1939516
1.1939096
1.1940316
1.1943227
1.1947172
1.1952429
1.1958677
1.1965545
1.1973192
1.19813
1.1989122
1.1997298
1.2005582
1.2010001
1.2011116
1.2012158
1.2013949
1.2015696
1.2017196
1.2018518
1.2019693
1.2020684
1.202151
1.2022207
1.2022769
1.2023241
1.2023539
1.2023756
1.1968912
1.1964598
1.1959433
1.1954802
1.1951776
1.1950659
1.195124
1.1953373
1.1957048
1.1962144
1.1968091
1.1975045
1.1982682
1.1990241
1.1998112
1.2006208
1.2010489
1.2011526
1.2012597
1.2014321
1.2016012
1.2017465
1.2018743
1.2019883
1.2020846
1.2021648
1.2022327
1.2022875
1.2023337
1.2023629
1.2023841
1.1992881
1.1987586
1.1981876
1.1975172
1.1969095
1.1964725
1.1962357
1.1962037
1.1963645
1.1966882
1.1971542
1.1977534
1.1984488
1.1991676
1.1999125
1.2006927
1.2010991
1.2011972
1.2013078
1.2014723
1.2016348
1.2017746
1.2018977
1.2020079
1.2021011
1.2021788
1.2022448
1.2022981
1.2023433
1.2023717
1.2023925
1.1890238
1.1893825
1.1897767
1.1901345
1.1904437
1.1907325
1.1910528
1.1914525
1.1919171
1.1924978
1.1931881
1.1939765
1.1948499
1.1957865
1.1967531
1.1977975
1.1987215
1.1996587
1.2002105
1.2004974
1.2007521
1.2010145
1.2012639
1.2014802
1.2016648
1.2018161
1.2019385
1.2020347
1.2021107
1.2021603
1.2021943
1.1892225
1.1896097
1.1899969
1.1903295
1.1906193
1.1909014
1.1912102
1.1915567
1.1919899
1.1925386
1.1931989
1.1939618
1.1948149
1.1957388
1.1967006
1.1977392
1.1986891
1.1996027
1.2001994
1.2004809
1.2007325
1.2009953
1.2012473
1.2014661
1.2016531
1.2018064
1.2019303
1.2020277
1.2021046
1.2021549
1.2021872
1.1892644
1.1896402
1.1900301
1.1903895
1.190702
1.1909958
1.1913069
1.191649
1.1920735
1.1926022
1.1932387
1.1939782
1.19481
1.1957175
1.1966704
1.1976956
1.1986616
1.1995711
1.2001851
1.2004713
1.2007192
1.2009806
1.2012337
1.201454
1.2016426
1.2017974
1.2019225
1.202021
1.2020985
1.2021494
1.2021806
1.1893117
1.1896551
1.1900652
1.1904466
1.1907842
1.1910958
1.1914154
1.1917656
1.1921852
1.1926959
1.1933085
1.1940226
1.19483
1.1957163
1.1966546
1.197658
1.1986269
1.1995382
1.2001639
1.2004585
1.2007045
1.200965
1.2012194
1.2014413
1.2016315
1.2017878
1.2019142
1.2020137
1.202092
1.2021434
1.2021717
1.1893878
1.1897073
1.1901286
1.1905212
1.1908723
1.1911977
1.1915262
1.1918833
1.1922987
1.1927944
1.1933856
1.1940752
1.1948581
1.195722
1.1966431
1.1976203
1.1985877
1.1994991
1.2001375
1.200443
1.2006877
1.2009475
1.2012035
1.2014272
1.2016192
1.2017773
1.2019051
1.2020058
1.202085
1.202137
1.2021642
1.1894699
1.1897659
1.1901855
1.1905882
1.1909508
1.1912884
1.1916267
1.19199
1.1924034
1.1928881
1.1934613
1.194129
1.1948886
1.1957301
1.196633
1.1975822
1.1985449
1.1994593
1.200108
1.2004263
1.2006698
1.2009285
1.2011862
1.2014119
1.201606
1.201766
1.2018953
1.2019973
1.2020774
1.2021302
1.2021567
1.1895476
1.1898149
1.1902264
1.1906375
1.1910134
1.1913648
1.1917145
1.1920853
1.1924993
1.1929769
1.1935357
1.194184
1.1949217
1.1957412
1.196625
1.1975461
1.1985042
1.1994208
1.2000806
1.2004086
1.2006521
1.2009091
1.2011682
1.2013959
1.2015921
1.2017539
1.2018849
1.2019882
1.2020693
1.2021228
1.2021513
1.1896191
1.1898593
1.1902562
1.1906727
1.1910618
1.191428
1.1917907
1.1921707
1.1925881
1.1930619
1.1936095
1.194241
1.1949585
1.1957563
1.1966203
1.1975171
1.1984694
1.199379
1.2000574
1.2003913
1.2006346
1.2008894
1.2011497
1.2013794
1.2015775
1.2017413
1.2018738
1.2019786
1.2020607
1.2021151
1.2021423
1.1896859
1.1899014
1.1902813
1.1906994
1.1911001
1.1914809
1.1918574
1.1922481
1.1926711
1.1931439
1.1936835
1.1943005
1.1949993
1.1957761
1.1966199
1.1974982
1.1984328
1.1993293
1.200034
1.2003752
1.2006176
1.2008694
1.2011307
1.2013622
1.2015622
1.201728
1.2018622
1.2019684
1.2020516
1.2021068
1.2021316
1.1897465
1.1899482
1.190307
1.1907214
1.1911309
1.1915256
1.1919163
1.1923189
1.1927494
1.1932239
1.193758
1.1943631
1.1950447
1.1958012
1.1966243
1.1974857
1.1983936
1.1992809
1.2000077
1.2003601
1.2006012
1.2008493
1.2011113
1.2013444
1.2015463
1.201714
1.20185
1.2019577
1.2020419
1.202098
1.2021221
1.1897859
1.189984
1.1903285
1.1907392
1.1911565
1.1915646
1.1919697
1.1923851
1.1928248
1.1933031
1.1938341
1.1944292
1.1950952
1.1958322
1.1966344
1.1974782
1.1983645
1.1992384
1.1999754
1.2003459
1.2005855
1.2008291
1.2010914
1.201326
1.2015298
1.2016994
1.2018371
1.2019463
1.2020316
1.2020886
1.2021132
1.1898221
1.1900138
1.1903327
1.1907463
1.1911756
1.191599
1.1920201
1.1924497
1.1929
1.1933836
1.1939133
1.1945003
1.1951519
1.1958699
1.1966508
1.1974758
1.1983421
1.1992001
1.1999421
1.2003332
1.2005709
1.2008091
1.2010712
1.2013071
1.2015125
1.201684
1.2018235
1.2019342
1.2020207
1.2020787
1.2021043
1.1898401
1.1900414
1.1903628
1.1907688
1.1912016
1.1916373
1.1920736
1.1925175
1.192979
1.1934687
1.1939982
1.194578
1.195216
1.1959153
1.1966744
1.1974791
1.1983244
1.1991591
1.1999061
1.2003241
1.2005578
1.2007895
1.2010508
1.2012877
1.2014947
1.201668
1.2018092
1.2019215
1.2020092
1.2020682
1.2020948
1.189859
1.1900718
1.1903987
1.1908014
1.1912386
1.191686
1.1921369
1.1925946
1.1930667
1.1935624
1.1940917
1.1946647
1.1952891
1.1959697
1.1967063
1.1974892
1.1983116
1.1991226
1.1998667
1.2003159
1.2005464
1.2007706
1.2010304
1.201268
1.2014763
1.2016513
1.2017942
1.2019081
1.201997
1.202057
1.2020844
1.1899007
1.1901207
1.1904458
1.1908499
1.1912946
1.1917541
1.1922185
1.1926885
1.1931698
1.1936701
1.1941981
1.1947631
1.1953735
1.1960344
1.1967476
1.1975069
1.1983043
1.1990934
1.1998295
1.2003067
1.2005367
1.2007528
1.2010102
1.2012481
1.2014574
1.2016339
1.2017786
1.201894
1.2019841
1.2020451
1.2020732
1.1899869
1.1902198
1.190542
1.1909387
1.191389
1.1918575
1.1923314
1.1928097
1.1932965
1.1937981
1.1943222
1.194877
1.1954715
1.1961113
1.1967996
1.1975331
1.1983031
1.1990702
1.1997941
1.2002983
1.2005286
1.2007364
1.2009904
1.201228
1.2014381
1.201616
1.2017623
1.2018792
1.2019705
1.2020326
1.2020613
1.190148
1.190388
1.1907155
1.1911131
1.1915561
1.1920203
1.1924932
1.1929714
1.1934567
1.1939537
1.1944692
1.1950106
1.1955861
1.1962024
1.1968636
1.1975686
1.1983074
1.1990488
1.1997649
1.2002921
1.2005229
1.2007221
1.2009712
1.201208
1.2014185
1.2015976
1.2017453
1.2018637
1.2019562
1.2020194
1.2020486
1.1904468
1.1906745
1.190988
1.1913817
1.1918093
1.192258
1.1927184
1.1931856
1.1936598
1.1941442
1.1946445
1.1951673
1.1957199
1.1963095
1.1969408
1.1976142
1.1983176
1.1990304
1.1997546
1.2002912
1.2005195
1.2007098
1.2009528
1.2011883
1.2013988
1.2015787
1.2017278
1.2018475
1.2019412
1.2020054
1.2020353
1.1908588
1.1910956
1.1914152
1.1917734
1.1921656
1.1925838
1.1930175
1.1934609
1.1939127
1.1943751
1.1948524
1.1953501
1.1958752
1.1964342
1.1970327
1.1976715
1.1983404
1.199026
1.1997361
1.2002852
1.2005215
1.2007011
1.2009356
1.2011688
1.201379
1.2015594
1.2017097
1.2018306
1.2019255
1.2019907
1.2020213
1.1914174
1.1916527
1.1919394
1.1922583
1.192611
1.1929903
1.1933873
1.1937965
1.1942161
1.1946476
1.1950942
1.1955606
1.196053
1.1965778
1.1971402
1.1977425
1.1983777
1.1990335
1.1997106
1.2002751
1.2005283
1.2006952
1.2009197
1.2011504
1.2013595
1.2015398
1.201691
1.2018131
1.201909
1.2019753
1.2020066
1.1920711
1.1922745
1.1925233
1.192805
1.1931181
1.1934564
1.1938126
1.1941821
1.1945635
1.1949579
1.1953678
1.1957976
1.1962529
1.1967398
1.1972635
1.1978271
1.1984269
1.1990517
1.1996965
1.2002662
1.2005377
1.2006935
1.2009057
1.2011326
1.2013402
1.2015203
1.201672
1.201795
1.2018918
1.2019591
1.201991
1.1927587
1.1929282
1.1931426
1.1933875
1.1936609
1.1939581
1.194273
1.1946016
1.1949427
1.1952971
1.1956672
1.1960571
1.1964723
1.1969186
1.1974016
1.1979248
1.198487
1.1990798
1.1996976
1.2002599
1.2005488
1.2006968
1.2008948
1.2011166
1.2013217
1.2015006
1.2016525
1.2017763
1.2018739
1.2019421
1.2019747
1.1934334
1.193574
1.1937561
1.1939664
1.1942035
1.1944636
1.1947414
1.1950327
1.195336
1.1956517
1.1959823
1.1963319
1.1967061
1.197111
1.1975524
1.1980343
1.1985574
1.199116
1.1997036
1.2002551
1.2005645
1.2007019
1.2008851
1.2011022
1.2013041
1.2014812
1.201633
1.2017571
1.2018554
1.2019244
1.2019576
1.194081
1.194194
1.1943444
1.1945211
1.1947241
1.1949507
1.1951959
1.1954548
1.1957249
1.1960062
1.1963007
1.1966126
1.1969476
1.1973122
1.1977126
1.1981536
1.1986371
1.1991589
1.1997076
1.2002343
1.2005818
1.2007169
1.2008829
1.2010905
1.2012877
1.2014623
1.2016131
1.2017376
1.2018362
1.201906
1.2019398
1.1946823
1.1947693
1.1948895
1.1950344
1.1952048
1.1954
1.1956158
1.1958472
1.1960904
1.1963438
1.1966084
1.1968879
1.1971881
1.1975159
1.197878
1.1982799
1.1987246
1.1992089
1.1997204
1.2002361
1.2006046
1.2007415
1.2008894
1.2010818
1.2012722
1.2014433
1.2015935
1.2017176
1.2018165
1.2018869
1.2019212
1.1952158
1.1952823
1.1953768
1.1954935
1.1956339
1.1957993
1.1959881
1.196196
1.1964178
1.1966501
1.1968922
1.1971466
1.1974188
1.1977154
1.1980437
1.1984099
1.1988182
1.1992675
1.1997496
1.2002512
1.2006293
1.2007583
1.2008925
1.201076
1.2012605
1.2014267
1.2015741
1.2016976
1.2017964
1.2018672
1.201902
1.1956475
1.1957185
1.1958033
1.1958972
1.1960116
1.1961508
1.1963147
1.1965003
1.1967028
1.1969181
1.1971437
1.1973803
1.1976318
1.1979042
1.1982046
1.1985402
1.1989159
1.199333
1.1997866
1.2002662
1.2006524
1.2007738
1.2009066
1.2010797
1.2012473
1.2014087
1.2015548
1.2016775
1.2017759
1.2018469
1.201882
1.1959837
1.1960207
1.1960896
1.1961863
1.196303
1.1964335
1.1965792
1.1967474
1.196936
1.1971401
1.1973559
1.1975823
1.1978209
1.1980768
1.1983565
1.1986672
1.1990149
1.1994024
1.1998276
1.2002822
1.2006734
1.200802
1.2009191
1.2010787
1.2012374
1.2013953
1.2015372
1.2016579
1.2017554
1.2018262
1.2018617
1.1962972
1.1963273
1.1963708
1.1964304
1.1965115
1.1966236
1.1967672
1.1969316
1.1971137
1.1973134
1.1975266
1.1977501
1.1979837
1.1982306
1.1984964
1.1987883
1.1991128
1.1994742
1.1998729
1.200304
1.2006898
1.2008348
1.2009303
1.2010835
1.2012368
1.2013818
1.2015195
1.2016386
1.2017346
1.2018052
1.2018407
1.1964942
1.1965286
1.1965752
1.196634
1.1967076
1.1968017
1.1969222
1.1970724
1.1972508
1.1974501
1.1976643
1.1978891
1.1981227
1.1983661
1.198624
1.1989025
1.1992085
1.1995473
1.1999208
1.200326
1.200707
1.2008721
1.2009546
1.2010852
1.2012274
1.2013696
1.2015034
1.2016201
1.2017145
1.2017842
1.2018196
1.1966386
1.1966704
1.1967128
1.1967681
1.196841
1.1969358
1.1970559
1.1972034
1.1973772
1.1975731
1.1977864
1.198012
1.1982464
1.1984889
1.1987419
1.1990106
1.1993017
1.1996209
1.1999717
1.2003533
1.2007319
1.2009158
1.2009753
1.2010862
1.2012264
1.2013672
1.201492
1.2016028
1.2016944
1.2017629
1.201798
1.1967984
1.1968306
1.1968719
1.1969248
1.1969942
1.1970842
1.1971987
1.1973395
1.1975032
1.197691
1.1979027
1.1981284
1.198363
1.1986045
1.1988537
1.1991145
1.1993928
1.1996949
1.2000255
1.2003859
1.2007555
1.2009558
1.2010004
1.2011041
1.2012361
1.2013568
1.2014757
1.201585
1.201675
1.2017422
1.2017767
1.1969946
1.1970254
1.1970643
1.1971137
1.1971785
1.1972628
1.197369
1.1974956
1.1976501
1.1978349
1.1980382
1.1982561
1.1984848
1.1987211
1.1989643
1.1992166
1.1994828
1.1997687
1.20008
1.2004194
1.2007772
1.2009954
1.2010366
1.2011275
1.2012359
1.20135
1.2014668
1.2015703
1.2016566
1.2017215
1.2017552
1.1972467
1.1972738
1.1973083
1.1973518
1.1974086
1.1974818
1.197573
1.1976908
1.1978382
1.1980063
1.1981937
1.1983985
1.1986162
1.1988428
1.1990765
1.1993183
1.1995716
1.1998417
1.2001343
1.2004533
1.2007954
1.2010322
1.2010728
1.201142
1.2012414
1.2013557
1.2014614
1.2015551
1.2016385
1.2017019
1.2017344
1.1975608
1.1975807
1.1976083
1.1976428
1.1976873
1.1977462
1.197827
1.197931
1.1980543
1.1981987
1.1983656
1.1985523
1.1987543
1.1989674
1.1991888
1.1994181
1.1996578
1.1999124
1.200187
1.2004868
1.2008117
1.2010695
1.2011119
1.201166
1.2012612
1.201359
1.2014506
1.2015415
1.201623
1.2016828
1.201714
1.1979075
1.1979248
1.1979466
1.1979739
1.1980121
1.1980608
1.1981207
1.1981982
1.1982959
1.1984143
1.1985545
1.1987161
1.1988961
1.1990909
1.1992969
1.1995125
1.1997385
1.1999782
1.2002366
1.2005188
1.200827
1.2010984
1.2011534
1.201196
1.2012754
1.2013585
1.2014508
1.2015359
1.2016082
1.2016651
1.2016947
1.1982448
1.1982572
1.1982753
1.1982987
1.1983307
1.1983756
1.1984276
1.1984851
1.1985564
1.1986459
1.1987559
1.1988875
1.1990401
1.1992114
1.1993983
1.1995983
1.1998106
1.2000369
1.2002812
1.200548
1.2008409
1.2011212
1.2011961
1.2012268
1.2012918
1.2013713
1.2014507
1.2015245
1.2015951
1.2016489
1.2016766
1.1985254
1.1985357
1.1985512
1.1985703
1.1985893
1.1986116
1.1986507
1.1987089
1.1987752
1.1988482
1.1989366
1.1990434
1.1991713
1.1993199
1.1994875
1.1996717
1.1998711
1.200086
1.2003188
1.2005732
1.2008532
1.201137
1.2012387
1.2012602
1.2013154
1.2013839
1.2014502
1.2015206
1.2015866
1.2016345
1.2016601
1.1987336
1.1987463
1.1987627
1.1987812
1.1988002
1.1988192
1.1988397
1.1988659
1.1989091
1.1989741
1.1990563
1.1991532
1.1992652
1.1993981
1.1995522
1.1997256
1.1999162
1.2001234
1.2003482
1.2005936
1.2008642
1.2011534
1.2012794
1.2012947
1.2013388
1.2013932
1.2014578
1.2015218
1.2015761
1.2016219
1.2016455
1.1988126
1.1988313
1.1988502
1.1988707
1.1988939
1.1989203
1.1989499
1.1989829
1.1990204
1.1990668
1.1991283
1.1992119
1.1993185
1.1994447
1.1995916
1.1997589
1.1999454
1.2001491
1.2003699
1.2006098
1.2008736
1.2011622
1.2013164
1.2013309
1.201364