/*--------------------------------*- C++ -*----------------------------------*\
| =========                 |                                                 |
| \\      /  F ield         | OpenFOAM: The Open Source CFD Toolbox           |
|  \\    /   O peration     | Version:  2406                                  |
|   \\  /    A nd           | Website:  www.openfoam.com                      |
|    \\/     M anipulation  |                                                 |
\*---------------------------------------------------------------------------*/
FoamFile
{
    version     2.0;
    format      ascii;
    arch        "LSB;label=32;scalar=64";
    class       volScalarField;
    location    "0.01";
    object      p;
}
// * * * * * * * * * * * * * * * * * * * * * * * * * * * * * * * * * * * * * //

dimensions      [1 -1 -2 0 0 0 0];

internalField   nonuniform List<scalar> 
8260
(
101914.02
101760.52
101647.28
101516.78
101388.83
101274.74
101185.98
101119.17
101067.76
101035.26
101021.57
101020.51
101027.62
101043.67
101063.88
101086.77
101112.17
101137.64
101161.54
101188.25
101215.7
101242.47
101268.13
101295.21
101322.63
101345.78
101363.03
101364.26
101376.68
101373.91
101361.84
102119.94
101984.12
101841.12
101687.27
101542.72
101414.08
101307.35
101221.69
101154.13
101106.28
101078.12
101065.12
101062.24
101070.63
101084.92
101103.37
101125.63
101148.77
101171.27
101196.75
101223.06
101248.74
101273.28
101298.85
101324.73
101346.82
101365.06
101365.95
101378.56
101375.2
101362.76
102244.03
102120.65
101972.64
101813.51
101663.71
101528.75
101412.15
101314.96
101236.18
101176.73
101137.62
101113.62
101101.92
101102.69
101110.62
101123.74
101141.71
101161.21
101181.07
101204.3
101228.69
101253.07
101276.84
101302.46
101327.44
101349.35
101368.53
101368.07
101380.7
101376.72
101364.03
102334.09
102220.06
102079.19
101924.04
101774.47
101636.92
101514.33
101408.73
101320.65
101251.15
101201.06
101166.89
101146.12
101138.55
101139.48
101146.71
101159.81
101175.25
101192.25
101213
101235.34
101258.31
101281.14
101306.35
101330.55
101352.3
101372.2
101370.49
101382.89
101378.37
101365.44
102402.87
102297.28
102168.19
102022.41
101877.7
101741.18
101615.9
101504.47
101408.65
101329.95
101269.37
101224.99
101194.78
101178.55
101171.51
101172.57
101180.21
101191.32
101205.15
101223.06
101243.13
101264.49
101286.2
101310.48
101334.08
101355.57
101375.97
101373.1
101385.15
101380.17
101367.14
102449.17
102353.17
102237.89
102105
101969.2
101837.56
101713.23
101599.15
101497.89
101411.59
101341.67
101287.54
101247.94
101222.45
101207.38
101201.68
101203.22
101209.67
101219.77
101234.47
101252.02
101271.54
101291.97
101315.26
101338.12
101359.3
101379.84
101375.92
101387.51
101382.16
101369.29
102476.05
102389.85
102289
102170.85
102046.78
101923.23
101803.25
101689.82
101585.92
101494.21
101416.64
101353.73
101305.09
101270.4
101247.12
101234.01
101229.12
101230.35
101236.26
101247.4
101262.13
101279.56
101298.53
101320.75
101342.74
101363.58
101383.77
101379.07
101390
101384.37
101372.07
102488.14
102411.35
102324.4
102221.19
102110.22
101996.93
101884
101774.17
101670.48
101575.86
101492.71
101422.44
101365.53
101322.07
101290.49
101269.7
101258.01
101253.53
101254.82
101262.04
101273.62
101288.7
101306.01
101327.01
101348
101368.44
101387.79
101382.62
101392.69
101386.83
101375.46
102486.46
102426.75
102350.04
102258.79
102160.33
102058.19
101954.08
101850.2
101749.33
101654.37
101567.99
101492.2
101428.26
101376.79
101337.16
101308.64
101289.89
101279.34
101275.6
101278.51
101286.64
101299.09
101314.53
101334.13
101354.02
101373.94
101391.97
101386.64
101395.66
101389.51
101379.29
102477.28
102433.61
102365.3
102283.53
102196.81
102106.27
102012.2
101916.1
101820.31
101727.5
101640.34
101561.17
101491.85
101433.55
101386.51
101350.5
101324.66
101307.79
101298.68
101296.96
101301.33
101310.86
101324.21
101342.24
101360.89
101380.12
101396.37
101391.26
101399.09
101392.48
101383.2
102445.07
102418.89
102368.52
102297.98
102220.89
102141.08
102057.47
101970.38
101881.49
101793.04
101707.48
101627.26
101554.54
101491
101437.59
101394.68
101361.97
101338.74
101324.06
101317.45
101317.78
101324.15
101335.19
101351.43
101368.74
101386.95
101401.05
101396.62
101403.22
101395.89
101386.54
102411.99
102387.85
102350.35
102297.54
102232.12
102162.1
102088.92
102011.72
101931.16
101848.95
101767.2
101688.22
101614.28
101547.39
101489.07
101440.25
101401.26
101371.89
101351.6
101339.98
101336.09
101339.06
101347.59
101361.84
101377.66
101394.31
101406.02
101402.84
101408.33
101399.89
101388.32
102373.16
102355.2
102323.12
102281.71
102231.48
102171.51
102107.48
102039.86
101968.3
101893.62
101817.47
101741.83
101668.88
101600.74
101539.28
101485.94
101441.62
101406.68
101381.02
101364.44
101356.25
101355.69
101361.54
101373.59
101387.75
101402.1
101411.37
101409.94
101414.67
101404.64
101385.47
102331.11
102318.36
102292.67
102256.56
102217.06
102170.5
102114.52
102055.05
101992.24
101925.8
101856.54
101786.02
101716.12
101648.88
101586.3
101530.18
101481.87
101442.28
101411.81
101390.57
101378.19
101374.06
101377.14
101386.81
101399.1
101410.3
101417.26
101417.73
101422.31
101410.5
101393.7
102285.21
102276.97
102257.36
102228.15
102193.73
102154.62
102108.44
102056.43
102001.91
101944.13
101882.84
101818.93
101753.92
101689.65
101628.07
101571.14
101520.54
101477.61
101443.26
101417.97
101401.73
101394.18
101394.48
101401.65
101411.76
101418.87
101424
101425.86
101430.91
101417.61
101419.04
102228.96
102224.26
102208.99
102184.66
102155.96
102126.85
102093.87
102051.04
102001.75
101950.17
101896.2
101839.45
101780.65
101721.13
101662.59
101606.92
101555.97
101511.39
101474.45
101446.05
101426.57
101415.94
101413.61
101418.22
101425.67
101427.81
101431.8
101433.93
101439.66
101425.32
101422.96
102165.26
102164.04
102152.98
102133.69
102109.9
102083.19
102056.59
102029.87
101994.17
101947.56
101897.45
101846.88
101794.96
101741.64
101688.05
101635.76
101586.56
101542.24
101504.35
101474.12
101452.3
101439.18
101434.58
101436.58
101440.56
101437.58
101440.65
101441.79
101447.66
101432.79
101439.56
102094.04
102095.96
102088.65
102074.04
102056
102035.48
102011.94
101985.61
101959.4
101929.28
101889.52
101844.07
101797.29
101750.43
101703.23
101656.29
101610.97
101568.97
101531.97
101501.44
101478.47
101463.71
101457.32
101456.58
101456
101449.42
101450.43
101449.63
101454.61
101440.91
101452.82
102013.86
102017.97
102013.49
102002.47
101988.63
101972.97
101955.01
101934.04
101910.32
101887.48
101865.56
101835.58
101795.19
101751.73
101709.39
101668.37
101628.57
101590.86
101556.64
101527.46
101504.66
101489.29
101481.59
101477.91
101471.82
101463.78
101460.95
101457.85
101461.06
101450.79
101470.55
101933.49
101939.2
101937.08
101929.31
101919.33
101908.02
101895.09
101880.13
101862.71
101842.33
101819.43
101798.25
101778.73
101750.38
101712.29
101674.31
101639.98
101607.97
101578.23
101551.99
101530.75
101515.92
101507.3
101499.98
101489.04
101479.2
101472.07
101466.68
101468.03
101463.39
101491.11
101857.05
101863.38
101862.88
101857.72
101850.95
101843.32
101834.56
101824.38
101812.59
101798.96
101783.18
101765.12
101745.73
101728.82
101708.53
101678.77
101648.4
101621.97
101597.75
101575.77
101557.32
101543.99
101534.4
101522.37
101507.45
101494.12
101483.74
101476.16
101476.09
101475.3
101524.77
101795.66
101801.5
101801.67
101798.27
101793.78
101788.76
101782.98
101776.21
101768.32
101759.21
101748.75
101736.71
101722.94
101708.7
101698.19
101685.59
101663.36
101639.55
101619.69
101602.07
101586.32
101572.92
101559.43
101542.46
101524.61
101508.57
101495.76
101486.2
101485
101483.32
101523.35
101749.31
101753.54
101754.03
101752.39
101750.18
101747.7
101744.77
101741.23
101736.97
101731.87
101725.81
101718.67
101710.16
101700.02
101689.2
101682.91
101681.05
101671.03
101651.74
101632.04
101613.9
101595.98
101576.95
101557.78
101539.29
101522.49
101508.24
101496.98
101494.18
101489.81
101507.81
101723.48
101725.24
101725.52
101724.94
101724.14
101723.17
101721.93
101720.33
101718.25
101715.6
101712.26
101708.12
101703.04
101696.8
101689.11
101679.76
101669.24
101662.56
101659.27
101649.05
101631.07
101610.23
101588.55
101569.26
101551.96
101535.6
101520.8
101508.48
101503.74
101498.63
101508.11
101707.47
101707.24
101706.94
101706.47
101705.83
101705.03
101704.02
101702.77
101701.21
101699.27
101696.86
101693.88
101690.22
101685.76
101680.29
101673.56
101665.32
101655.36
101643.54
101633.81
101627.14
101615.28
101596.71
101578.52
101562.66
101547.33
101532.71
101520.36
101514.5
101510.04
101500.15
101683.84
101683.54
101683.1
101682.56
101681.93
101681.19
101680.29
101679.21
101677.9
101676.33
101674.44
101672.15
101669.39
101666.04
101662.01
101657.16
101651.33
101644.4
101636.6
101628.13
101618.11
101608.28
101598.5
101585.14
101571.06
101557.14
101543.37
101532.25
101526.06
101511.59
101563.4
101659.55
101659.3
101658.94
101658.52
101658.03
101657.45
101656.77
101655.95
101654.98
101653.81
101652.42
101650.73
101648.71
101646.27
101643.34
101639.84
101635.68
101630.82
101625.3
101619.2
101612.48
101604.1
101595.25
101586.23
101575.77
101564.42
101552.64
101543.98
101540.01
101520.59
101562.43
101637.88
101637.71
101637.47
101637.19
101636.86
101636.47
101636.01
101635.47
101634.81
101634.02
101633.07
101631.91
101630.52
101628.82
101626.77
101624.3
101621.38
101618
101614.12
101609.61
101604.62
101600.39
101594.52
101586.35
101578.39
101569.58
101560.85
101554.55
101550.88
101542.29
101524.37
101621.29
101621.14
101620.95
101620.71
101620.44
101620.13
101619.76
101619.33
101618.82
101618.21
101617.5
101616.63
101615.57
101614.28
101612.73
101610.87
101608.71
101606.25
101603.51
101600.58
101597.54
101594.17
101591.18
101587.49
101581.86
101575.69
101569.32
101565.39
101563.5
101562.55
101542.86
101610.08
101609.92
101609.72
101609.5
101609.24
101608.95
101608.61
101608.23
101607.77
101607.23
101606.6
101605.84
101604.96
101603.94
101602.76
101601.39
101599.84
101598.09
101596.14
101593.95
101591.45
101588.54
101586.48
101585.55
101583.46
101580.39
101577.45
101576.44
101576.79
101582.76
101571.98
101599.25
101598.68
101597.99
101597.26
101596.5
101595.73
101594.95
101594.18
101593.43
101592.68
101591.93
101591.16
101590.35
101589.48
101588.52
101587.48
101586.41
101585.34
101584.26
101583.16
101582.02
101580.75
101578.98
101576.52
101574.24
101571.07
101570.07
101573.99
101579.73
101588.75
101594.56
100191.87
100149.1
100107.65
100078.06
100060.88
100060.21
100078.78
100114.75
100166.35
100232.46
100310.37
100396.28
100486.78
100578.17
100665.7
100749.8
100830.14
100903.71
100969.47
101030.12
101083.55
101132.02
101177.6
101216.28
101250.71
101282.78
101303.59
101324.19
101322.86
101337.11
101205.99
100112.13
100076.45
100044.02
100026.14
100023.07
100036.22
100066.6
100113.48
100173.91
100245.97
100327.36
100414.76
100505.23
100594.4
100679.68
100762.75
100841.59
100913.4
100977.76
101037.97
101090.57
101138.51
101183.24
101220.92
101254.03
101284.9
101305
101325.39
101325.38
101338.94
101207.1
99992.677
99963.732
99943.835
99942.442
99957.439
99988.214
100035.16
100096.38
100168.3
100249.08
100337.01
100428.61
100520.24
100608.78
100694.33
100776.98
100854.4
100923.87
100986.72
101045.79
101097.03
101143.96
101187.76
101224.78
101257.38
101287.67
101307.25
101326.77
101327.63
101340.63
101207.66
99852.426
99840.196
99840.613
99860.283
99895.452
99944.73
100007.41
100081.35
100163.84
100252.65
100346.87
100441.16
100533.57
100623.07
100709
100791.17
100866.47
100933.66
100995.67
101053.31
101103.25
101149.22
101192.14
101228.45
101260.71
101290.56
101309.73
101328.13
101329.8
101342.33
101208.01
99694.077
99708.351
99735.436
99779.721
99836.971
99905.698
99984.237
100070.76
100163.62
100259.74
100358.01
100453.96
100548.18
100638.28
100724.18
100805.23
100877.63
100943.51
101004.51
101060.75
101109.5
101154.56
101196.58
101232.22
101264.06
101293.39
101312.16
101329.43
101331.85
101344.07
101208.32
99540.008
99583.169
99636.876
99705.902
99785.109
99873.101
99966.874
100064.98
100167.65
100268.64
100369.99
100468.84
100564.09
100654.31
100739.99
100818.54
100888.33
100953.82
101013.29
101068.15
101115.74
101159.89
101201
101235.99
101267.42
101296.22
101314.56
101330.7
101333.78
101345.87
101208.82
99395.4
99468.057
99546.727
99640.983
99741.615
99848.394
99956.335
100063.16
100173.36
100280.03
100384.63
100485.24
100580.94
100671.33
100755.74
100830.79
100899.47
100964.09
101021.98
101075.47
101121.94
101165.16
101205.35
101239.72
101270.78
101299.02
101316.95
101331.98
101335.66
101347.71
101209.8
99262.06
99364.509
99473.787
99590.775
99710.201
99831.009
99950.211
100067.3
100183.28
100294.42
100401.24
100502.97
100599.29
100689.06
100770.05
100842.71
100911.31
100974.28
101030.57
101082.69
101128.08
101170.39
101209.63
101243.43
101274.14
101301.8
101319.35
101333.3
101337.54
101349.56
101211.7
99156.683
99285.552
99419.034
99555.156
99690.17
99823.005
99952.067
100076.9
100197.37
100311.57
100419.86
100522.8
100619.21
100706
100783.17
100855.35
100923.14
100984.38
101039.08
101089.83
101134.16
101175.56
101213.86
101247.11
101277.48
101304.57
101321.74
101334.69
101339.45
101351.37
101215.21
99082.708
99233.333
99385.4
99536.411
99683.541
99825.791
99962.159
100092.11
100215.66
100331.89
100441.39
100545
100638.7
100720.7
100796.91
100869.1
100934.92
100994.42
101047.51
101096.88
101140.19
101180.67
101218.02
101250.74
101280.8
101307.35
101324.12
101336.16
101341.42
101353.1
101220.92
99047.03
99212.31
99376.297
99536.773
99691.654
99839.871
99980.636
100113.5
100238.78
100356.38
100466.11
100567.26
100655.55
100735.94
100812.65
100882.91
100946.67
101004.41
101055.84
101103.82
101146.14
101185.72
101222.1
101254.32
101284.07
101310.13
101326.49
101337.7
101343.44
101354.69
101229.16
99051.697
99224.142
99392.967
99557.041
99714.856
99865.247
100007.58
100142.03
100268.27
100384.68
100490.97
100586.73
100672.41
100753.9
100828.7
100896.68
100958.43
101014.34
101064.07
101110.67
101152.03
101190.68
101226.11
101257.86
101287.31
101312.9
101328.85
101339.31
101345.49
101356.12
101240.92
99081.163
99260.728
99431.664
99595.683
99752.74
99902.095
100043.22
100176.37
100300.84
100412.95
100514.15
100605.98
100691.32
100772.45
100844.79
100910.51
100970.18
101024.23
101072.22
101117.42
101157.83
101195.56
101230.04
101261.32
101290.49
101315.67
101331.2
101340.99
101347.56
101357.39
101255.45
99117.094
99302.699
99476.92
99642.161
99798.698
99946.169
100084.16
100212.27
100331.73
100439.78
100537.15
100627.71
100713.59
100791.45
100861.12
100924.45
100981.95
101034.06
101080.26
101124.06
101163.54
101200.34
101233.9
101264.73
101293.61
101318.42
101333.53
101342.72
101349.66
101358.5
101272.56
99224.605
99390.615
99549.381
99704.422
99853.975
99995.764
100128.54
100251.41
100363.65
100468.69
100567.09
100655.27
100736.92
100811
100877.74
100938.49
100993.73
101043.84
101088.21
101130.58
101169.16
101205.03
101237.67
101268.06
101296.68
101321.15
101335.84
101344.5
101351.79
101359.49
101288.88
99443.397
99577.273
99702.969
99828.771
99954.573
100077.64
100195.8
100307.48
100411.4
100509.63
100601.29
100684.38
100761.01
100831.14
100894.67
100952.65
101005.52
101053.58
101096.05
101136.98
101174.68
101209.6
101241.36
101271.32
101299.69
101323.86
101338.13
101346.32
101353.99
101360.42
101304.13
99645.35
99760.697
99863.636
99966.189
100070.05
100173.54
100274.96
100372.86
100465.85
100554.52
100637.84
100714.68
100786.04
100851.89
100911.89
100966.91
101017.32
101063.26
101103.78
101143.27
101180.09
101214.05
101244.95
101274.51
101302.64
101326.51
101340.39
101348.15
101356.26
101361.33
101317.18
99878.919
99967.113
100041.33
100117.35
100197.22
100279.34
100362.21
100444.43
100524.47
100602.31
100676.73
100746.55
100812.1
100873.27
100929.43
100981.29
101029.13
101072.88
101111.41
101149.44
101185.39
101218.36
101248.44
101277.62
101305.51
101329.08
101342.65
101349.98
101358.65
101362.3
101328.05
100142.3
100199.05
100240.15
100285.67
100338.23
100396.21
100458.2
100522.68
100587.86
100653.57
100718.17
100780.1
100839.22
100895.28
100947.29
100995.78
101040.95
101082.43
101118.92
101155.52
101190.56
101222.54
101251.82
101280.66
101308.3
101331.5
101344.91
101351.81
101361.14
101363.37
101336.94
100433.13
100454.8
100459.32
100471.05
100493.1
100524.18
100563.03
100607.83
100656.27
100708.47
100762.2
100815.35
100867.4
100917.91
100965.46
101010.38
101052.75
101091.89
101126.34
101161.53
101195.56
101226.58
101255.11
101283.61
101310.97
101333.79
101347.23
101353.62
101363.71
101364.64
101343.98
100746.56
100730.1
100695.55
100671.35
100660.4
100662.18
100676.03
100699.77
100729.72
100766.98
100808.83
100852.33
100896.61
100941.14
100983.91
101025.04
101064.5
101101.25
101133.69
101167.43
101200.36
101230.49
101258.28
101286.47
101313.52
101335.96
101349.65
101355.43
101366.31
101366.15
101349.72
101081.03
101022.59
100946.84
100886.32
100840.82
100811.14
100798.26
100799.95
100809.43
100829.79
100858.44
100891.23
100926.89
100964.89
101002.56
101039.68
101076.13
101110.46
101140.95
101173.23
101204.98
101234.27
101261.34
101289.21
101315.93
101337.98
101352.19
101357.26
101368.85
101367.89
101354.24
101448.25
101346.05
101231.46
101133.85
101049.74
100982.83
100938.22
100914.57
100899.67
100899.47
100912.42
100932.81
100958.57
100989.3
101021.45
101054.32
101087.65
101119.54
101148.2
101178.99
101209.5
101237.96
101264.35
101291.83
101318.2
101339.92
101354.87
101359.18
101371.37
101369.82
101357.75
101809.61
101697.19
101574.29
101440.11
101312.18
101197.5
101111.46
101052.51
101006.26
100979.93
100973.23
100978.72
100992.8
101015.14
101041.12
101069.33
101099.28
101128.62
101155.47
101184.65
101213.85
101241.49
101267.24
101294.18
101320.36
101342.08
101358.16
101361.32
101374.06
101371.93
101360.45
100264.97
100236.23
100204.88
100175.75
100153.82
100144.55
100150.93
100172.83
100210.15
100262.85
100328.76
100404.66
100487.31
100573.46
100658.51
100741.1
100821.19
100895.65
100963.11
101025.08
101080.11
101129.54
101175.63
101214.32
101248.24
101279.26
101299.63
101321.04
101319.83
101334.87
101204.67
100278.09
100251.37
100225.06
100203.35
100185.42
100177.3
100181.65
100199.31
100232.21
100280.27
100341.62
100413.42
100492.53
100575.81
100659.01
100740.28
100819.25
100893.07
100960.37
101022.28
101077.5
101127.14
101173.38
101212.4
101246.52
101277.54
101298.5
101319.67
101317.77
101333.01
101203.65
100283.4
100262.7
100242.34
100224.76
100212.22
100206.73
100211.1
100227.02
100256.72
100300.59
100357.41
100424.85
100500.06
100580.02
100660.82
100740.44
100818.08
100891.02
100957.89
101019.76
101075
101124.77
101171.1
101210.4
101244.74
101275.8
101297.11
101317.99
101315.31
101330.85
101202.27
100293.39
100279.09
100264.77
100251.1
100241.58
100237.71
100242.02
100256.45
100283.09
100322.72
100374.78
100437.54
100508.51
100584.89
100663
100740.75
100816.99
100889.04
100955.47
101017.3
101072.58
101122.43
101168.78
101208.3
101242.86
101273.93
101295.42
101315.98
101312.82
101328.52
101200.67
100304.36
100295.31
100285.98
100276.6
100269.82
100267.57
100272.13
100285.48
100309.52
100345.36
100392.95
100451.12
100517.8
100590.47
100665.73
100741.4
100816.09
100887.2
100953.14
101014.88
101070.18
101120.04
101166.42
101206.12
101240.88
101271.9
101293.52
101313.79
101310.35
101326
101198.92
100314.17
100309.2
100303.9
100298.65
100295.06
100294.96
100300.4
100313.27
100335.41
100368.11
100411.73
100465.59
100528.07
100596.96
100669.23
100742.64
100815.61
100885.64
100951.02
101012.49
101067.84
101117.67
101164.06
101203.89
101238.83
101269.73
101291.5
101311.43
101307.93
101323.25
101197.06
100323.02
100321.7
100320.08
100318.4
100317.97
100320.27
100327.01
100339.92
100360.77
100390.92
100431.06
100480.93
100539.35
100604.46
100673.59
100744.55
100815.61
100884.4
100949.08
101010
101065.42
101115.39
101161.64
101201.55
101236.67
101267.4
101289.36
101308.91
101305.56
101320.25
101195.17
100332.2
100333.8
100335.24
100336.9
100339.48
100344.16
100352.38
100365.7
100385.73
100413.84
100450.95
100497.14
100551.65
100612.99
100678.86
100747.18
100816.16
100883.5
100947.33
101007.64
101062.91
101112.97
101159.09
101199.08
101234.39
101264.89
101287.09
101306.26
101303.2
101316.99
101193.33
100342.13
100346.13
100350.66
100355.16
100360.35
100367.23
100376.97
100390.88
100410.42
100436.91
100471.38
100514.2
100564.96
100622.56
100685.08
100750.59
100817.28
100882.98
100945.78
101005.4
101060.38
101110.39
101156.38
101196.44
101231.97
101262.17
101284.67
101303.45
101300.83
101313.48
101191.61
100354.12
100360.69
100367.4
100374.02
100381.33
100390.11
100401.23
100415.79
100435.03
100460.21
100492.39
100532.12
100579.32
100633.24
100692.33
100754.85
100819.07
100882.92
100944.48
101003.27
101057.85
101107.74
101153.5
101193.63
101229.4
101259.22
101282.1
101300.53
101298.39
101309.73
101190.06
100368.23
100376.98
100385.56
100393.99
100403.05
100413.38
100425.67
100440.79
100459.82
100483.89
100514.02
100550.93
100594.76
100645.07
100700.68
100760.09
100821.65
100883.45
100943.58
101001.36
101055.25
101105.02
101150.73
101190.71
101226.71
101256.15
101279.37
101297.49
101295.83
101305.76
101188.73
100387.54
100396.82
100406.42
100416.03
100426.29
100437.73
100450.84
100466.34
100485.1
100508.14
100536.41
100570.69
100611.31
100658.1
100710.21
100766.38
100825.13
100884.68
100943.17
100999.77
101052.83
101102.28
101147.9
101187.7
101223.93
101253.19
101276.48
101294.31
101293.12
101301.57
101187.63
100410.01
100419.85
100430.25
100440.65
100451.65
100463.72
100477.27
100492.86
100511.22
100533.21
100559.7
100591.48
100629.03
100672.38
100720.97
100773.81
100829.59
100886.68
100943.32
100998.55
101050.73
101099.68
101144.97
101184.62
101221.02
101250.46
101273.43
101290.98
101290.24
101297.18
101186.74
100437.69
100447.4
100457.98
100468.57
100479.75
100491.94
100505.48
100520.81
100538.51
100559.33
100584.05
100613.42
100647.98
100687.95
100733.02
100782.44
100835.1
100889.55
100944.13
100997.79
101048.93
101097.24
101142.1
101181.49
101217.97
101247.72
101270.23
101287.48
101287.2
101292.58
101186.02
100470.39
100479.65
100489.91
100500.18
100511.01
100522.82
100535.89
100550.55
100567.31
100586.77
100609.63
100636.58
100668.22
100704.85
100746.39
100792.32
100841.73
100893.35
100945.66
100997.55
101047.47
101094.77
101139.23
101178.57
101214.72
101244.61
101266.88
101283.79
101283.99
101287.81
101185.43
100507.98
100516.47
100526.04
100535.57
100545.62
100556.62
100568.77
100582.38
100597.85
100615.73
100636.59
100661.08
100689.8
100723.12
100761.14
100803.52
100849.55
100898.18
100948
100997.9
101046.4
101092.52
101136.37
101175.68
101211.11
101241.14
101263.3
101279.91
101280.62
101282.85
101184.91
100550.44
100557.8
100566.29
100574.72
100583.62
100593.39
100604.24
100616.43
100630.32
100646.35
100665.05
100687
100712.77
100742.8
100777.27
100816.06
100858.62
100904.09
100951.23
100998.93
101045.8
101090.71
101133.69
101172.63
101207.31
101237.47
101259.46
101275.84
101277.07
101277.75
101184.44
100597.14
100603.12
100610.25
100617.3
100624.75
100632.99
100642.23
100652.7
100664.71
100678.68
100695.06
100714.37
100737.16
100763.89
100794.82
100829.96
100868.97
100911.14
100955.41
101000.72
101045.73
101089.29
101131.26
101169.46
101203.76
101233.8
101255.35
101271.55
101273.35
101272.51
101184.01
100647.03
100651.51
100657.13
100662.63
100668.46
100674.98
100682.4
100690.94
100700.9
100712.63
100726.55
100743.15
100762.93
100786.35
100813.75
100845.24
100880.63
100919.38
100960.61
101003.32
101046.27
101088.28
101129.05
101166.3
101200.41
101230.05
101251.04
101267.05
101269.42
101267.19
101183.65
100698.72
100701.7
100705.79
100709.73
100713.91
100718.66
100724.2
100730.74
100738.54
100747.95
100759.35
100773.2
100789.97
100810.11
100834.01
100861.85
100893.59
100928.83
100966.87
101006.79
101047.47
101087.71
101126.85
101163.36
101197.27
101225.99
101246.52
101262.35
101265.29
101261.82
101183.38
100750.64
100752.28
100754.94
100757.43
100760.05
100763.13
100766.86
100771.44
100777.13
100784.25
100793.17
100804.31
100818.11
100835.03
100855.49
100879.73
100907.81
100939.49
100974.21
101011.2
101049.39
101087.67
101125.17
101160.68
101193.9
101221.75
101241.8
101257.47
101260.94
101256.47
101183.23
100801.03
100801.61
100803.07
100804.36
100805.69
100807.32
100809.45
100812.27
100816.02
100821.01
100827.58
100836.12
100847.08
100860.91
100878.03
100898.75
100923.21
100951.31
100982.64
101016.55
101052.09
101088.2
101123.97
101158.27
101190.43
101217.47
101236.88
101252.42
101256.38
101251.19
101183.21
100848.49
100848.33
100848.94
100849.34
100849.68
100850.2
100851.04
100852.4
100854.49
100857.6
100862.05
100868.23
100876.56
100887.48
100901.42
100918.75
100939.68
100964.23
100992.14
101022.86
101055.59
101089.34
101123.2
101156.08
101187.09
101213.3
101231.91
101247.23
101251.64
101246.05
101183.32
100892.41
100891.75
100891.73
100891.52
100891.18
100890.9
100890.81
100891.05
100891.83
100893.39
100896.05
100900.16
100906.12
100914.39
100925.39
100939.51
100957.06
100978.15
101002.63
101030.11
101059.92
101091.14
101122.88
101153.82
101183.91
101209.42
101227.06
101241.97
101246.76
101241.1
101183.55
100931.35
100930.65
100930.45
100930.02
100929.4
100928.71
100928.06
100927.57
100927.41
100927.81
100929.04
100931.43
100935.37
100941.28
100949.62
100960.8
100975.16
100992.92
101014.04
101038.27
101065.06
101093.61
101123.05
101151.9
101180.89
101205.56
101222.29
101236.75
101241.8
101236.39
101183.88
100966.26
100965.56
100965.28
100964.81
100964.12
100963.3
100962.41
100961.52
100960.79
100960.39
100960.56
100961.6
100963.88
100967.79
100973.79
100982.32
100993.75
101008.36
101026.25
101047.26
101070.99
101096.77
101123.78
101150.62
101177.74
101201.55
101217.69
101231.61
101236.82
101231.99
101184.34
100997.44
100996.78
100996.52
100996.1
100995.46
100994.66
100993.72
100992.69
100991.66
100990.78
100990.23
100990.29
100991.27
100993.56
100997.58
101003.78
101012.57
101024.28
101039.1
101056.99
101077.68
101100.62
101125.07
101149.8
101174.57
101197.56
101213.2
101226.56
101231.86
101227.96
101185.01
101025.69
101025.09
101024.86
101024.52
101023.97
101023.23
101022.32
101021.25
101020.07
101018.9
101017.89
101017.24
101017.25
101018.26
101020.67
101024.9
101031.37
101040.47
101052.43
101067.34
101085.05
101105.14
101126.95
101149.42
101171.62
101193.7
101208.79
101221.52
101226.96
101224.38
101185.91
101051.27
101050.66
101050.41
101050.09
101049.6
101048.94
101048.1
101047.07
101045.89
101044.61
101043.35
101042.27
101041.6
101041.65
101042.78
101045.39
101049.89
101056.68
101066.05
101078.18
101093.02
101110.28
101129.42
101149.51
101169.11
101189.91
101204.39
101216.53
101222.09
101221.29
101186.99
101075.23
101074.48
101074.1
101073.72
101073.19
101072.51
101071.66
101070.63
101069.42
101068.09
101066.68
101065.32
101064.2
101063.56
101063.72
101065.03
101067.9
101072.7
101079.78
101089.35
101101.48
101115.99
101132.47
101150.12
101167.19
101186.4
101199.95
101211.68
101217.29
101218.73
101188.12
101096.95
101096.54
101096.03
101095.47
101094.83
101094.07
101093.16
101092.08
101090.84
101089.45
101087.95
101086.43
101085.01
101083.9
101083.34
101083.65
101085.2
101088.34
101093.42
101100.7
101110.32
101122.22
101136.09
101151.31
101166.28
101183.41
101195.28
101206.8
101212.57
101216.64
101189.21
101115.49
101114.72
101114.93
101115.21
101114.9
101113.98
101112.9
101111.71
101110.38
101108.91
101107.32
101105.67
101104.06
101102.62
101101.57
101101.14
101101.65
101103.43
101106.81
101112.07
101119.42
101128.87
101140.25
101153.09
101166.1
101180.84
101190.88
101201.94
101207.82
101214.83
101190.31
101135.21
101133.79
101132.51
101131.45
101130.98
101130.91
101130.34
101129.17
101127.8
101126.32
101124.73
101123.06
101121.36
101119.75
101118.37
101117.42
101117.15
101117.84
101119.81
101123.33
101128.65
101135.87
101144.89
101155.42
101166.41
101178.7
101187.02
101197.32
101202.91
101212.92
101191.3
101150.95
101150.16
101149.39
101148.35
101146.97
101145.58
101144.71
101144.23
101143.34
101141.94
101140.37
101138.73
101137.03
101135.35
101133.79
101132.49
101131.64
101131.49
101132.3
101134.36
101137.91
101143.11
101149.97
101158.27
101167.23
101177.12
101183.9
101193.12
101197.75
101210.22
101191.47
101163.52
101162.91
101162.38
101161.81
101161.13
101160.2
101158.93
101157.54
101156.42
101155.37
101154.05
101152.61
101151.07
101149.46
101147.85
101146.35
101145.1
101144.31
101144.2
101145.04
101147.08
101150.51
101155.41
101161.63
101168.64
101176.28
101181.74
101189.39
101192.42
101206.1
101189.07
101173.56
101173.16
101172.76
101172.29
101171.75
101171.15
101170.49
101169.65
101168.62
101167.58
101166.5
101165.25
101163.85
101162.32
101160.71
101159.08
101157.54
101156.27
101155.45
101155.3
101156.08
101157.99
101161.15
101165.51
101170.69
101176.29
101180.25
101186.34
101187.44
101200.59
101182.24
101182.65
101182.39
101182.13
101181.79
101181.4
101180.97
101180.47
101179.9
101179.2
101178.39
101177.51
101176.48
101175.27
101173.88
101172.33
101170.68
101168.98
101167.37
101166
101165.09
101164.83
101165.47
101167.14
101169.86
101173.4
101177.22
101179.86
101184.36
101183.11
101194.42
101170.91
101191.67
101191.41
101191.16
101190.85
101190.51
101190.14
101189.75
101189.29
101188.73
101188.11
101187.4
101186.53
101185.48
101184.23
101182.78
101181.16
101179.4
101177.58
101175.84
101174.34
101173.29
101172.89
101173.33
101174.66
101176.77
101179.09
101180.59
101183.23
101180.26
101188.87
101157.56
101201.21
101200.91
101200.57
101200.17
101199.73
101199.28
101198.84
101198.41
101197.94
101197.36
101196.67
101195.84
101194.85
101193.67
101192.28
101190.67
101188.87
101186.94
101184.95
101183.06
101181.42
101180.23
101179.68
101179.87
101180.76
101181.86
101182.51
101183.35
101179.26
101185.07
101145.88
101210.54
101210.1
101209.73
101209.33
101208.89
101208.4
101207.83
101207.24
101206.78
101206.4
101205.76
101204.8
101203.69
101202.43
101200.99
101199.36
101197.53
101195.53
101193.41
101191.27
101189.24
101187.48
101186.17
101185.45
101185.34
101185.43
101185.35
101185.13
101179.81
101184.04