/*--------------------------------*- C++ -*----------------------------------*\
| =========                 |                                                 |
| \\      /  F ield         | OpenFOAM: The Open Source CFD Toolbox           |
|  \\    /   O peration     | Version:  2406                                  |
|   \\  /    A nd           | Website:  www.openfoam.com                      |
|    \\/     M anipulation  |                                                 |
\*---------------------------------------------------------------------------*/
FoamFile
{
    version     2.0;
    format      ascii;
    arch        "LSB;label=32;scalar=64";
    class       volScalarField;
    location    "0.04";
    object      Ma;
}
// * * * * * * * * * * * * * * * * * * * * * * * * * * * * * * * * * * * * * //

dimensions      [0 0 0 0 0 0 0];

internalField   nonuniform List<scalar> 
8260
(
0.15830744
0.15958968
0.16089843
0.16228012
0.16365205
0.164977
0.16627353
0.16753656
0.16886517
0.17036375
0.17187663
0.17344194
0.17500712
0.17648454
0.17737498
0.17720617
0.17489511
0.17072941
0.16796825
0.16636389
0.16508529
0.16394399
0.16289465
0.16186076
0.160913
0.16019555
0.1593744
0.159011
0.15868709
0.15773704
0.15243681
0.15417562
0.1558483
0.15761707
0.15939423
0.16114425
0.16284783
0.16450435
0.16612047
0.16775244
0.16945208
0.17115207
0.1728585
0.17451675
0.17603455
0.17690296
0.17663394
0.17415414
0.17005782
0.16754697
0.16606851
0.1648521
0.16375322
0.16273836
0.16173167
0.16080572
0.16010868
0.15929545
0.1589461
0.1586306
0.15764274
0.15242954
0.14942675
0.1514759
0.15372639
0.15596466
0.15815211
0.16027779
0.16233706
0.1643324
0.16629743
0.16826067
0.17018536
0.17206525
0.17384478
0.17542322
0.17629659
0.17594098
0.1733092
0.16936406
0.16712506
0.16576
0.16460716
0.16355479
0.16257931
0.16160273
0.16069938
0.16002307
0.15922522
0.15887918
0.15856976
0.15752338
0.15242345
0.14487943
0.14724059
0.14985015
0.15247198
0.15504987
0.15756585
0.16000796
0.16236877
0.16466293
0.16690583
0.16906734
0.17113305
0.17304423
0.17468444
0.17555929
0.1750928
0.17230865
0.16858201
0.16663727
0.16539649
0.16431707
0.16331822
0.16238813
0.16144635
0.16057085
0.15991878
0.15915012
0.15880121
0.15849553
0.15739176
0.15241602
0.14066516
0.14325019
0.14610609
0.14901744
0.15191669
0.15477204
0.15756021
0.16026193
0.16287283
0.1653931
0.16779437
0.17005182
0.17209982
0.1737998
0.17466317
0.17405338
0.1711265
0.16772578
0.16609648
0.16498605
0.16398989
0.16305205
0.16217443
0.16127232
0.16042873
0.15980257
0.15906662
0.15871448
0.1584119
0.15726837
0.15240651
0.136895
0.13961823
0.14261754
0.14571667
0.14884798
0.15196843
0.15504335
0.15804117
0.16093963
0.16372162
0.16635481
0.16880155
0.17098486
0.17273756
0.17356592
0.17277509
0.16973013
0.16680203
0.16548868
0.16451761
0.16361545
0.16274637
0.16192814
0.16107118
0.16026525
0.15966721
0.15896519
0.15861383
0.15831698
0.15716685
0.15239305
0.13369832
0.13648091
0.13952627
0.14270549
0.14596314
0.14925271
0.15253154
0.15575735
0.15889229
0.16190196
0.16474372
0.16736437
0.16967042
0.17145766
0.17221156
0.17119965
0.1681175
0.16582081
0.16480865
0.16398602
0.16319057
0.16239957
0.16164847
0.16084334
0.16008116
0.15951293
0.15883964
0.15849842
0.15820932
0.15708678
0.15237329
0.13126315
0.13398233
0.13696268
0.14011013
0.14338081
0.14673016
0.15011204
0.15347697
0.15677503
0.15995617
0.16296333
0.16572474
0.16812442
0.16990852
0.17052638
0.16925679
0.16633978
0.16477647
0.1640471
0.16338297
0.16270774
0.162005
0.16132853
0.16058281
0.15987111
0.15933528
0.15869448
0.15836598
0.15808572
0.15701776
0.15234895
0.12960076
0.13217108
0.13499773
0.13801499
0.14119275
0.14449174
0.1478672
0.15126766
0.15463619
0.15791032
0.16101724
0.16386387
0.1663047
0.16801799
0.16840911
0.16684302
0.16449345
0.1636523
0.16319596
0.16270117
0.16216065
0.16155832
0.16096485
0.16028713
0.15963226
0.1591323
0.15853063
0.15821428
0.15794366
0.15694798
0.15232206
0.12869023
0.13105325
0.13366288
0.13647202
0.13946029
0.14260161
0.14585838
0.14918245
0.15251482
0.15578414
0.15890184
0.1617506
0.16414648
0.16568005
0.1657219
0.16403367
0.16267938
0.16244175
0.16224593
0.16193281
0.16154105
0.1610529
0.16055187
0.15995113
0.15935896
0.15889958
0.15834498
0.15804113
0.1577812
0.15686708
0.15229493
0.12842719
0.13054337
0.13288982
0.13543263
0.13815868
0.14105334
0.14409134
0.14723229
0.15041865
0.15357255
0.15658893
0.15932091
0.1615311
0.16271996
0.1623253
0.16114541
0.16093388
0.16113415
0.16119404
0.16107196
0.16084141
0.16048264
0.16008554
0.15957145
0.15904744
0.15863353
0.15813452
0.15784413
0.15759467
0.15676874
0.15226751
0.12878373
0.13057159
0.13257627
0.13477731
0.13717331
0.13975201
0.14249284
0.14535949
0.14829465
0.15121264
0.15398732
0.15642998
0.15821403
0.1588717
0.15849997
0.15862599
0.15918258
0.15974188
0.16005363
0.16011512
0.16005727
0.15984059
0.15956016
0.15914383
0.15869384
0.15833011
0.15789378
0.15762036
0.15738186
0.15665195
0.15223624
0.1293057
0.13077402
0.13244295
0.13428863
0.13631626
0.13852456
0.14089616
0.14339403
0.14595578
0.14848127
0.1508193
0.15277261
0.15402948
0.15448999
0.15526562
0.15644475
0.15746009
0.15826359
0.15881647
0.15908762
0.15919045
0.15912082
0.15897027
0.15866498
0.15829587
0.15798732
0.15761746
0.15736617
0.15713986
0.15651516
0.15217798
0.12958775
0.13076739
0.13212979
0.13364629
0.13531282
0.13711995
0.13905897
0.14109953
0.14317956
0.14519491
0.14699892
0.14847809
0.14970509
0.15113536
0.15290333
0.15440864
0.15565645
0.15672572
0.15751438
0.15798242
0.15825738
0.15833072
0.15831067
0.15812942
0.15785116
0.15760393
0.15730097
0.15707698
0.15686544
0.15635381
0.15209399
0.12929034
0.13005852
0.13102605
0.13222798
0.13361299
0.13506819
0.13660957
0.13826485
0.14001599
0.14175084
0.14346059
0.14521711
0.14708496
0.14910479
0.15089164
0.15250101
0.15392338
0.1551561
0.15614843
0.15682258
0.15727264
0.15748894
0.15758366
0.15752805
0.15735831
0.15717907
0.15694208
0.1567485
0.15655652
0.15617332
0.15199497
0.13026746
0.13080487
0.13139949
0.13208377
0.13294219
0.13398833
0.13520917
0.1365923
0.13805981
0.13969293
0.14147625
0.14341108
0.14545544
0.14731721
0.14912222
0.15077367
0.15226585
0.15361552
0.15476038
0.1556056
0.15624007
0.15661281
0.15679814
0.15686644
0.15681254
0.15671184
0.15653941
0.15637844
0.15621261
0.15598323
0.15186335
0.13197167
0.13250694
0.13309447
0.13371954
0.13439268
0.13512274
0.13587069
0.13665026
0.13768293
0.13897928
0.14055937
0.14217539
0.14389937
0.14577563
0.14762055
0.14929815
0.15083045
0.15218418
0.15340344
0.15436751
0.15515818
0.15570731
0.1559803
0.1561535
0.15620945
0.15620178
0.15609479
0.15596732
0.15583608
0.15579238
0.15161082
0.13323182
0.13358624
0.13400558
0.13450751
0.13510565
0.13583318
0.13674764
0.13781153
0.13874243
0.13964478
0.14047194
0.14166479
0.14305834
0.1445975
0.14629437
0.14798601
0.14953681
0.15089583
0.15215269
0.1531735
0.15404369
0.15476019
0.15514327
0.15540307
0.15556299
0.15564856
0.15561081
0.15551658
0.15542775
0.15558241
0.15138584
0.13546744
0.13578304
0.13613522
0.1365207
0.13695333
0.13743006
0.13791843
0.13844142
0.13909204
0.13993351
0.14095066
0.14186504
0.14283217
0.14400687
0.14536109
0.14688554
0.14839766
0.14970071
0.1509897
0.15210159
0.15298351
0.15376333
0.15428524
0.15464147
0.15487391
0.15506108
0.15508555
0.15502832
0.15498287
0.15528741
0.15089529
0.13687277
0.13707969
0.13732436
0.13761426
0.13795629
0.13835963
0.13884186
0.13941669
0.14005241
0.14070341
0.14136751
0.14224049
0.14316803
0.14388318
0.1448949
0.14606154
0.14732288
0.14854904
0.14979272
0.1511037
0.15205806
0.15277574
0.15340827
0.15387144
0.15416817
0.15442664
0.15452859
0.15450802
0.15449417
0.15489722
0.1500243
0.13897335
0.13915824
0.13936537
0.13959328
0.13984642
0.14013277
0.14045241
0.1407899
0.14116859
0.14163181
0.14219724
0.14275276
0.14336694
0.14422689
0.14481228
0.14565989
0.14666361
0.14775369
0.14876774
0.15002662
0.15123678
0.15191539
0.1524937
0.15309089
0.15347838
0.15374293
0.15393482
0.15396039
0.15396301
0.15449409
0.14989445
0.14027842
0.14039338
0.14053074
0.14069363
0.14088464
0.14110759
0.14137011
0.1416823
0.14204937
0.14245873
0.14289706
0.14342667
0.14401669
0.14453377
0.14519467
0.14562038
0.14637652
0.1472968
0.14819627
0.14916209
0.15033662
0.15114678
0.15162083
0.15229231
0.15277778
0.15305686
0.15329608
0.15338155
0.15340388
0.15387777
0.1496896
0.14220783
0.14230606
0.14241272
0.14252918
0.14266028
0.1428106
0.14298389
0.14318214
0.14339765
0.14363039
0.14389281
0.14416389
0.14447487
0.14492758
0.14538357
0.14599629
0.14642292
0.1471476
0.14787859
0.14867714
0.1494552
0.15033302
0.15090477
0.15150822
0.15205457
0.15239281
0.1526445
0.15278393
0.15283089
0.15332038
0.14929982
0.14333452
0.1433908
0.14345768
0.14353649
0.14362903
0.14373725
0.14386357
0.14401188
0.14418888
0.14440234
0.14465332
0.14494756
0.14525944
0.14553543
0.1458819
0.14618557
0.14667643
0.14714906
0.14776261
0.14840989
0.14899251
0.14965297
0.15033268
0.15082394
0.15136381
0.1517422
0.15201055
0.15219567
0.15224746
0.15269066
0.14909737
0.14500615
0.1450439
0.14508577
0.1451326
0.14518548
0.14524551
0.14531392
0.14539208
0.14548136
0.14557994
0.14568537
0.14579314
0.14591069
0.14607586
0.14625455
0.14657827
0.14683083
0.14719058
0.14773145
0.14822026
0.14873784
0.14929557
0.14984906
0.15030146
0.15074893
0.15113246
0.15141874
0.15162214
0.15167946
0.15208597
0.14884324
0.14593551
0.14595591
0.14597999
0.14600741
0.14603831
0.14607299
0.14611196
0.14615602
0.14620654
0.14626582
0.14633754
0.14643032
0.14655733
0.14669258
0.14683908
0.14694738
0.14723147
0.14750779
0.14777121
0.14812084
0.14858448
0.14904253
0.14941328
0.14987139
0.15021954
0.15055827
0.15084328
0.15104018
0.15113541
0.15162107
0.14866687
0.14720988
0.14722178
0.14723501
0.14724956
0.14726558
0.14728317
0.14730241
0.14732352
0.14734676
0.1473724
0.14740026
0.14742506
0.14743162
0.14743729
0.14746078
0.14753637
0.1475896
0.14776227
0.14797426
0.14822992
0.14855637
0.14883862
0.14908879
0.14943851
0.14972112
0.14996907
0.15024127
0.15041816
0.15047616
0.15095605
0.14837001
0.14787943
0.14788419
0.14789027
0.1478975
0.14790577
0.14791492
0.14792544
0.14793756
0.14795066
0.14796442
0.1479795
0.1479988
0.14802463
0.14804762
0.14805383
0.14804003
0.14804603
0.14807011
0.14815349
0.14832903
0.14854823
0.14867015
0.14884179
0.14901888
0.14919556
0.14935416
0.14958707
0.14973726
0.14978478
0.15051875
0.14823392
0.14859508
0.14859495
0.14859408
0.14859205
0.14858856
0.14858331
0.14857544
0.14856429
0.14855004
0.14853316
0.1485142
0.14849294
0.14846639
0.14842658
0.14836583
0.14829929
0.14824261
0.14816747
0.14813424
0.14817467
0.14827919
0.1484059
0.14847374
0.14856069
0.14863438
0.14871672
0.14887533
0.14897493
0.1490254
0.14972415
0.14809945
0.14886497
0.14885985
0.14885268
0.14884288
0.14882998
0.14881366
0.14879372
0.14877008
0.14874279
0.14871232
0.14868
0.14864565
0.14860563
0.14854943
0.14846414
0.14837824
0.14827555
0.14809531
0.14798888
0.14799459
0.14815989
0.14831487
0.14829023
0.14830381
0.14834331
0.14836262
0.14842362
0.14840449
0.14819748
0.14906482
0.14782558
0.14896127
0.14895384
0.14894407
0.14893121
0.14891472
0.14889432
0.14886991
0.14884151
0.14880933
0.14877395
0.14873659
0.14869929
0.14866501
0.14863904
0.14862405
0.14862119
0.1486113
0.14849251
0.14835782
0.1483363
0.14865114
0.14882867
0.14866261
0.14856167
0.14848609
0.14828688
0.14823339
0.14817309
0.14786131
0.14887636
0.14739235
0.086777554
0.10505146
0.11713735
0.12610761
0.13365938
0.14042692
0.14661983
0.15187768
0.15697427
0.16168871
0.16598133
0.16986238
0.17335869
0.17646733
0.17915519
0.18127253
0.18237593
0.18209437
0.17931682
0.1745539
0.17104723
0.16880065
0.16693492
0.1652593
0.16378242
0.16259314
0.16154584
0.16084336
0.16031643
0.15864738
0.15272939
0.11118638
0.12044245
0.12746813
0.1335916
0.13946964
0.1451927
0.1505097
0.15537578
0.15995685
0.16415503
0.16797948
0.17145793
0.17461307
0.17742831
0.17985625
0.18168883
0.18248994
0.18187763
0.17869244
0.17391948
0.17066141
0.16853382
0.16671918
0.16507925
0.16363005
0.16247417
0.16144838
0.1607644
0.16024675
0.1585902
0.15270925
0.11842746
0.1251199
0.13145923
0.13755698
0.14337592
0.14879174
0.15371813
0.15819409
0.16232794
0.16610704
0.16956213
0.17272313
0.17560572
0.17818266
0.18039544
0.18198402
0.1825295
0.18160994
0.17807469
0.17339001
0.17035621
0.16830924
0.16653492
0.1649263
0.16348418
0.16237174
0.16136254
0.16069301
0.16018277
0.15853981
0.15268299
0.12504242
0.13135864
0.1372844
0.14278784
0.1479053
0.15262919
0.15694588
0.16089928
0.16455454
0.1679156
0.17101311
0.17387224
0.17649816
0.17885133
0.18085916
0.18220104
0.18251062
0.18127945
0.17742549
0.17287618
0.1700404
0.16806936
0.1663368
0.16476042
0.16334108
0.16226079
0.16127017
0.16061678
0.16011474
0.15848791
0.15265512
0.13211816
0.13773977
0.14289734
0.14767303
0.15211454
0.15620947
0.15996029
0.16341054
0.16660835
0.16957277
0.17233408
0.17491124
0.17729751
0.17944035
0.18124633
0.18234947
0.1824449
0.18088634
0.17677325
0.17239243
0.16974345
0.16783918
0.16614624
0.16460121
0.16321345
0.16215382
0.16118037
0.16054203
0.16004815
0.15843925
0.15262749
0.13970929
0.1442811
0.14853419
0.15250769
0.15621012
0.15963443
0.16279811
0.16573664
0.16848801
0.1710751
0.17352162
0.17583691
0.17800078
0.17994659
0.181553
0.18243363
0.18234308
0.1804497
0.17611146
0.17193643
0.16945347
0.16760887
0.16595433
0.16444029
0.16309137
0.16204467
0.1610886
0.16046561
0.15998034
0.15839088
0.15260077
0.1472448
0.15076681
0.15407404
0.15718559
0.16010891
0.16285088
0.16542697
0.16786372
0.17018871
0.17242127
0.17457527
0.17664887
0.17860772
0.18037038
0.18178373
0.1824685
0.18220787
0.17996132
0.1754569
0.17150867
0.16917301
0.1673826
0.16576551
0.16428211
0.16296929
0.16193664
0.16099728
0.16038922
0.15991266
0.15834415
0.1525753
0.15482114
0.15717583
0.15943817
0.16163389
0.16376801
0.16583286
0.16783401
0.16978822
0.1717109
0.17361321
0.17549729
0.17734931
0.17912086
0.18071558
0.18194791
0.18247581
0.18201681
0.17942194
0.17481608
0.17110713
0.1688991
0.16715865
0.16557809
0.16412485
0.16284165
0.16182835
0.16090514
0.16031208
0.15984431
0.15829816
0.15255129
0.16202398
0.16320629
0.16444442
0.16575696
0.16713486
0.16855019
0.17000487
0.17150523
0.17305384
0.17465204
0.17628946
0.17794033
0.17954295
0.18098575
0.18205384
0.18244559
0.18177267
0.17884173
0.17419797
0.17072932
0.16863159
0.16693781
0.16539312
0.16396959
0.16271474
0.16172081
0.16081241
0.16023469
0.15977574
0.15825337
0.15252898
0.16857462
0.16868318
0.16900067
0.16950234
0.17016999
0.17097832
0.17192807
0.17301027
0.17421642
0.17553838
0.1769532
0.17842353
0.17987501
0.18117631
0.18209934
0.18236852
0.1814697
0.17822729
0.17360964
0.17037226
0.16836944
0.16671987
0.16521044
0.16381605
0.16258727
0.16161375
0.16071944
0.16015689
0.15970687
0.15820984
0.15250862
0.17440261
0.17356646
0.1730538
0.17281199
0.17283052
0.17309335
0.17359348
0.17429876
0.17519755
0.17627275
0.17748962
0.17879939
0.18011519
0.18128423
0.18209185
0.18224296
0.18111504
0.17760168
0.17305442
0.1700329
0.16811248
0.1665051
0.1650304
0.16366459
0.16246104
0.16150756
0.1606264
0.16007887
0.15963777
0.15816822
0.15249046
0.17936593
0.17775191
0.17651863
0.17563415
0.17509184
0.17488643
0.17498778
0.17536448
0.17599565
0.17685479
0.17789812
0.17906534
0.18025388
0.18131299
0.18203271
0.18207236
0.18071984
0.17697826
0.17253198
0.16970859
0.16786039
0.16629361
0.16485313
0.1635153
0.16233624
0.16140232
0.16053278
0.16000065
0.15956815
0.15812913
0.15247477
0.18332997
0.18111783
0.17932559
0.17793662
0.17694517
0.17633898
0.17610149
0.17620104
0.17660483
0.1772797
0.17817185
0.17920951
0.18029974
0.18128508
0.18192397
0.18186109
0.18029456
0.17636206
0.17204161
0.16939719
0.16761321
0.16608562
0.16467887
0.16336843
0.16221271
0.16129822
0.1604397
0.15992231
0.1594978
0.15809311
0.15246189
0.1862381
0.18361512
0.1814407
0.17969089
0.17835995
0.17744177
0.17692691
0.17678899
0.1770021
0.17752284
0.17829334
0.17924696
0.18028912
0.1812065
0.18177184
0.1816029
0.17984505
0.17576033
0.17158172
0.16909697
0.16737097
0.16588134
0.1645078
0.16322414
0.16209062
0.16119538
0.16034683
0.15984385
0.15942637
0.15806123
0.15245197
0.1881728
0.18525339
0.18282397
0.18083664
0.17927505
0.17813265
0.17740646
0.17709176
0.17717186
0.17759738
0.17831049
0.17922089
0.18021323
0.18106634
0.18156326
0.18130494
0.17937894
0.17517805
0.1711504
0.16880673
0.16713388
0.16568102
0.16434017
0.16308255
0.16197059
0.16109392
0.16025395
0.15976533
0.15935417
0.15803388
0.15244464
0.18931372
0.1862294
0.18361459
0.18145249
0.17973336
0.17844692
0.17758644
0.17718475
0.17720762
0.17758006
0.17824401
0.17911095
0.18005425
0.1808652
0.18130646
0.18097423
0.17890491
0.17461832
0.17074652
0.16852574
0.16690213
0.16548488
0.16417617
0.16294383
0.16185244
0.16099396
0.16016208
0.1596868
0.15928116
0.15800992
0.15244021
0.18977628
0.18669682
0.18400256
0.18173746
0.17991989
0.17854989
0.17762353
0.17716709
0.17713249
0.17744734
0.17805629
0.17888987
0.17981205
0.18060461
0.18100719
0.18061357
0.17842726
0.17408393
0.17036712
0.16825326
0.16667587
0.16529309
0.16401591
0.16280816
0.16173651
0.16089567
0.16007125
0.15960838
0.15920684
0.1579881
0.15243941
0.18884989
0.18613775
0.18366818
0.18151463
0.17973486
0.17836744
0.17743751
0.17694971
0.17686469
0.17714427
0.1777346
0.17856077
0.17948688
0.18028568
0.18067029
0.18023092
0.17795004
0.17357616
0.17000947
0.16798905
0.16645518
0.16510582
0.16385955
0.16267571
0.16162289
0.16079921
0.15998086
0.15953022
0.15913148
0.1579669
0.15244011
0.1867384
0.184429
0.18233077
0.18048166
0.17892233
0.17769885
0.17685998
0.17642978
0.17637419
0.17667084
0.17727917
0.17812532
0.17907865
0.17990885
0.18029838
0.1798293
0.17747815
0.17309581
0.16967167
0.16773281
0.16624023
0.16492329
0.16370734
0.16254674
0.16151185
0.16070478
0.15989173
0.15945236
0.15905677
0.1579453
0.15243967
0.18384448
0.18195766
0.18026215
0.17878322
0.17753865
0.17656254
0.17591349
0.17562074
0.17565827
0.17602818
0.17669118
0.17758449
0.17858743
0.17947412
0.17989304
0.17941084
0.1770157
0.1726427
0.16935166
0.16748489
0.16603168
0.16474613
0.16355976
0.16242165
0.16140365
0.16061252
0.15980903
0.15937474
0.15898268
0.15792169
0.15243931
0.18012497
0.17876827
0.17756188
0.17652479
0.17566597
0.17501549
0.17463389
0.17453387
0.1747231
0.175217
0.17597176
0.17693979
0.17801391
0.17898149
0.17945507
0.17898007
0.17656705
0.17221747
0.16905004
0.16724712
0.16583115
0.1645755
0.16341756
0.1623009
0.16129851
0.16052251
0.15973439
0.1592975
0.15890628
0.15789384
0.15243949
0.17556038
0.17484003
0.17423627
0.17373391
0.17333806
0.17308964
0.17302707
0.17317272
0.17357325
0.17423524
0.17511878
0.1761901
0.17735688
0.17842951
0.17898351
0.17855155
0.17614103
0.1718259
0.16877093
0.16702252
0.16564055
0.16441254
0.16328131
0.16218474
0.16119639
0.16043464
0.15965826
0.15922103
0.15883138
0.15786175
0.15243967
0.17008302
0.17005324
0.17016876
0.17033352
0.17050932
0.17073136
0.17105533
0.17151658
0.1721891
0.17306724
0.17411926
0.17532585
0.17660885
0.17781199
0.1784746
0.17812745
0.17575054
0.17147983
0.16851806
0.16681097
0.16545899
0.16425635
0.16315015
0.1620726
0.16109688
0.16034873
0.15956959
0.15914562
0.15877278
0.15782801
0.15243981
0.1638609
0.16422678
0.16496875
0.16587698
0.16677794
0.16761842
0.16847986
0.16937505
0.17042169
0.17160823
0.17289439
0.17428605
0.17572147
0.17709015
0.17790431
0.17769882
0.17540624
0.17118188
0.16827973
0.1666024
0.16527899
0.164102
0.16302117
0.16196329
0.16099995
0.16026581
0.15946043
0.15907244
0.15873049
0.15778996
0.15243847
0.07962057
0.10011209
0.11323099
0.12293777
0.13092369
0.13794608
0.14435393
0.15002673
0.15535014
0.16029232
0.16481422
0.16891005
0.17259921
0.17588018
0.17872191
0.18100704
0.18228935
0.18219391
0.17965382
0.17493584
0.17129809
0.16898421
0.16708311
0.16538014
0.16387956
0.1626729
0.16161301
0.16089823
0.16036443
0.15870504
0.15274994
0.078541214
0.099718857
0.11302966
0.12273538
0.13065268
0.13757568
0.14386826
0.14954294
0.15483664
0.15977967
0.1643381
0.1684928
0.17224948
0.17559966
0.17850396
0.18085838
0.18219691
0.18220378
0.17979447
0.1751278
0.17143236
0.16909312
0.16717948
0.16546507
0.16395389
0.16273631
0.16167005
0.16094785
0.16040651
0.15876282
0.15276515
0.078090622
0.099699042
0.11309016
0.12267549
0.13041523
0.13718495
0.14334714
0.14896218
0.15422179
0.15916892
0.1637683
0.16798898
0.17182273
0.17525328
0.17823358
0.1806701
0.18209499
0.18219354
0.17994903
0.17533929
0.1715707
0.16920038
0.16727532
0.16555119
0.16403179
0.16280289
0.16173036
0.16100107
0.16045127
0.15882005
0.15278149
0.07758213
0.099499792
0.11298883
0.12251534
0.13013234
0.13677777
0.14282493
0.14837684
0.15360177
0.15854543
0.16317641
0.16745603
0.17136355
0.17487433
0.17793418
0.18045435
0.1819783
0.18217866
0.18010322
0.17556717
0.17172411
0.16931686
0.1673783
0.16564329
0.16411467
0.16287407
0.16179355
0.16105651
0.16049708
0.15886477
0.15279957
0.076789761
0.09893128
0.11268757
0.12224968
0.12983432
0.13639224
0.14233825
0.14782584
0.15300744
0.15793337
0.16258067
0.16690708
0.17088068
0.17446809
0.17760792
0.18020943
0.18184303
0.18215555
0.18025234
0.17580406
0.17189033
0.16944299
0.16748933
0.16574233
0.16420309
0.16295025
0.16186027
0.16111443
0.16054358
0.15889751
0.1528198
0.076052264
0.09822695
0.11230719
0.12199944
0.12957465
0.13605629
0.14190518
0.14731979
0.15244551
0.15733862
0.16198629
0.1663457
0.17037614
0.17403504
0.17725357
0.17993231
0.181684
0.18211916
0.18039033
0.17604766
0.17206493
0.16957573
0.16760652
0.16584732
0.16429673
0.16303067
0.16193083
0.16117556
0.16059159
0.15892395
0.15284259
0.075516797
0.09753986
0.11194699
0.12178498
0.12935843
0.13576753
0.14152016
0.14685246
0.15191072
0.15675803
0.16139164
0.16577114
0.1698489
0.17357363
0.17686878
0.17962217
0.18149181
0.18206445
0.1805094
0.17629739
0.17224613
0.1697131
0.16772848
0.16595751
0.1643954
0.16311571
0.16200551
0.16124063
0.16064239
0.15894971
0.15286824
0.075124979
0.096846179
0.1115633
0.12157475
0.1291665
0.13551271
0.14117189
0.14641526
0.15139671
0.1561873
0.16079439
0.16518165
0.16929735
0.17308198
0.17645127
0.17928029
0.18126929
0.18198592
0.18060845
0.17654926
0.17243401
0.16985448
0.16785465
0.1660726
0.16449901
0.16320562
0.16208457
0.16130935
0.16069634
0.1589768
0.15289706
0.075076721
0.096234913
0.11115378
0.12134532
0.12897851
0.13527628
0.14084742
0.14599808
0.15089578
0.1556209
0.16019083
0.16457519
0.16871991
0.17255845
0.17599918
0.1789064
0.1810118
0.1818848
0.18069269
0.17680007
0.17262871
0.16999961
0.16798475
0.16619233
0.16460731
0.16330013
0.16216809
0.16138052
0.16075462
0.15900538
0.15292894
0.075198881
0.095655231
0.11073533
0.1211078
0.12879014
0.13504677
0.14053312
0.14558859
0.15039745
0.15505079
0.15957561
0.16394814
0.16811402
0.17200086
0.17551036
0.17849818
0.1807151
0.18173633
0.18075375
0.17705102
0.17283038
0.1701484
0.1681188
0.1663169
0.16472054
0.16339956
0.16225642
0.1614549
0.16081819
0.15903397
0.15296347
0.075687742
0.095352891
0.11039821
0.12087878
0.12859471
0.13480849
0.14021036
0.14516933
0.14988693
0.15446529
0.15894029
0.16329493
0.16747589
0.17140645
0.17498245
0.17805288
0.180382
0.18155983
0.18078302
0.17728907
0.17303821
0.17030029
0.16825643
0.1664461
0.16483867
0.16350392
0.16234959
0.16153357
0.16088927
0.15906069
0.15299985
0.076804423
0.095386902
0.11010819
0.12062131
0.12835924
0.13453084
0.13985084
0.14471559
0.14934376
0.15384842
0.15827313
0.16260751
0.16680022
0.17077158
0.17441267
0.17756775
0.18001104
0.1813473
0.1807792
0.1775059
0.17325108
0.17045443
0.16839708
0.16657967
0.16496154
0.16361321
0.16244776
0.16161731
0.16096857
0.15908426
0.15303679
0.078308392
0.095642476
0.10993049
0.12035816
0.12806568
0.13417957
0.13941813
0.14419458
0.14874066
0.15317868
0.15755845
0.16187514
0.16607996
0.17009165
0.17379782
0.17703991
0.17959917
0.18108814
0.18073939
0.17770859
0.17346816
0.1706099
0.16854003
0.16671709
0.16508904
0.16372739
0.16255111
0.16170813
0.16104925
0.15910646
0.15307272
0.080252884
0.096279992
0.10990663
0.12009624
0.12768447
0.13370835
0.13886397
0.14356347
0.14804284
0.15242915
0.15677658
0.16108436
0.16530633
0.169361
0.17313416
0.17646633
0.17914362
0.18077984
0.18065215
0.17789035
0.17368755
0.17076555
0.16868439
0.16685792
0.1652207
0.16384622
0.16265962
0.16180665
0.16112551
0.15913015
0.15310623
0.082610545
0.097246472
0.10989589
0.11966839
0.12708409
0.13301886
0.13811299
0.14276415
0.14720631
0.15156759
0.1559046
0.16021939
0.16446903
0.16857313
0.17241748
0.17584377
0.17864262
0.18042127
0.18050942
0.17804046
0.17390826
0.17092025
0.16882921
0.16700118
0.16535638
0.16396963
0.16277251
0.16191044
0.16120316
0.15915772
0.15313677
0.085106027
0.098298737
0.10977306
0.11894198
0.12613341
0.13200004
0.13707776
0.14173034
0.14618211
0.15055849
0.15491734
0.15926328
0.16355701
0.16772113
0.17164315
0.17516829
0.17809173
0.1800143
0.1803104
0.17814836
0.17412469
0.17107229
0.16897321
0.16714657
0.16549523
0.16409712
0.16288977
0.16201704
0.16128861
0.1591893
0.15316528
0.087200835
0.098838948
0.10924312
0.11777627
0.12473131
0.13056257
0.13568343
0.14040342
0.14492612
0.14936968
0.1537916
0.15819998
0.16255988
0.1667982
0.17080634
0.17443442
0.17747923
0.17955674
0.18008205
0.17821687
0.17434091
0.17121986
0.1691154
0.1672921
0.16563688
0.16422867
0.16301147
0.16212654
0.16138197
0.15922462
0.15319445
0.088397048
0.098620946
0.10795625
0.1159835
0.12278592
0.1286521
0.13389013
0.13875122
0.14341224
0.1479807
0.15251242
0.1570188
0.16147014
0.1657993
0.16990307
0.17363685
0.17679628
0.17902136
0.17979167
0.17824519
0.17453916
0.17136161
0.16925372
0.16743828
0.1657806
0.16436354
0.16313715
0.1622401
0.16148087
0.15926596
0.15322778
0.088372301
0.09760103
0.10607413
0.1136662
0.12036053
0.12631219
0.13172619
0.13678918
0.14164687
0.14639278
0.15107846
0.15571791
0.1602862
0.1647231
0.16893213
0.17277469
0.17604923
0.1784324
0.17945359
0.17822831
0.17470418
0.17149375
0.16938741
0.16758119
0.16592438
0.1645015
0.16326609
0.16235949
0.16158474
0.15931631
0.15326783
0.087420799
0.095681701
0.10357913
0.11089334
0.11756062
0.12364573
0.12927371
0.13457766
0.13967194
0.1446337
0.14950752
0.15430808
0.15901491
0.16357415
0.16789683
0.17185184
0.17524644
0.17778914
0.17904631
0.17815577
0.17486405
0.17161946
0.16951314
0.16772238
0.16606951
0.16464196
0.16339805
0.16248132
0.161695
0.15937004
0.15331529
0.08540256
0.093060813
0.10058919
0.10777059
0.11449818
0.12076657
0.1266391
0.13220699
0.13755867
0.14275655
0.14783763
0.15281579
0.15767412
0.16236453
0.1668056
0.17087507
0.17439234
0.17709066
0.17856708
0.17799637
0.17500942
0.17173139
0.16963003
0.1678573
0.16621029
0.16478349
0.16353267
0.16260366
0.16181227
0.15942683
0.1533695
0.082750753
0.089971287
0.097274215
0.10443408
0.1112952
0.11779072
0.12393358
0.12977996
0.13539589
0.14083327
0.14612415
0.15128203
0.15629308
0.16111468
0.16567267
0.16985433
0.17349246
0.17634233
0.17803177
0.17776223
0.17510872
0.17183581
0.16973585
0.16798419
0.16634979
0.16492641
0.16366851
0.16272978
0.16193591
0.15949014
0.15342943
0.079744336
0.086636327
0.093790725
0.10098884
0.10803778
0.11480842
0.12125387
0.12739269
0.13327379
0.13894324
0.14443286
0.14975842
0.15491056
0.15985267
0.16451805
0.16880348
0.17255541
0.17555029
0.17744776
0.17749178
0.17513803
0.17192846
0.16982391
0.16810574
0.16648487
0.16506742
0.16380478
0.1628581
0.16206653
0.15956506
0.15349411
0.076783181
0.083383208
0.090394552
0.097619907
0.10485086
0.11190845
0.11867756
0.12512431
0.13127255
0.13716276
0.14283147
0.14830135
0.15357105
0.15861211
0.16336616
0.16773964
0.17159236
0.17471999
0.1768086
0.1771988
0.17512586
0.17198507
0.1699025
0.16820688
0.16660512
0.16520682
0.16394063
0.16299004
0.16220434
0.15965292
0.15356259
0.074357468
0.080662598
0.087479376
0.094650241
0.10197819
0.10925502
0.1163123
0.12305485
0.12946098
0.13555604
0.14137951
0.14696351
0.15231861
0.15742792
0.16224348
0.16668203
0.17061592
0.17385596
0.17610364
0.17680255
0.17508672
0.17202285
0.16994847
0.16830447
0.16673132
0.16534242
0.16407536
0.16312424
0.1623482
0.15974836
0.15361249
0.072790593
0.078800621
0.08537104
0.092390158
0.099692512
0.10706994
0.11431849
0.12128867
0.1279101
0.13417825
0.14012448
0.14578728
0.15119029
0.15633097
0.1611744
0.16564898
0.16963862
0.17296637
0.17535069
0.17630679
0.1749998
0.17206503
0.16998716
0.16836972
0.16682938
0.16546898
0.16420524
0.16325814
0.16249206
0.15986956
0.15365012
0.072345787
0.078064923
0.084356091
0.091140925
0.098286876
0.10560691
0.11289332
0.11996816
0.12671541
0.13309102
0.13910773
0.1448031
0.15021088
0.15534248
0.160177
0.16465513
0.1686725
0.17206479
0.17457473
0.17576899
0.17484559
0.17208838
0.16999559
0.16842831
0.16691326
0.16559041
0.16433612
0.16339573
0.16263443
0.15998997
0.15368665
0.073094655
0.078476502
0.084465042
0.09097445
0.097868145
0.10498927
0.11215607
0.11919077
0.12594129
0.1323295
0.1383448
0.14401694
0.14938391
0.15446696
0.15925763
0.16370858
0.16772705
0.17116201
0.17377709
0.17518239
0.17462317
0.1721227
0.16998175
0.16844684
0.16700404
0.16569889
0.16445779
0.16352729
0.16277447
0.1601393
0.15372687
0.075427373
0.080261827
0.085697733
0.091724347
0.098250755
0.10510098
0.11205931
0.11891893
0.12554389
0.13184182
0.13778519
0.14338613
0.14867715
0.15368297
0.1584046
0.16280597
0.16680482
0.17026377
0.17296747
0.17456321
0.17431188
0.17210234
0.16994376
0.16843847
0.16703307
0.16578511
0.16457361
0.16366084
0.16291338
0.16029436
0.15377733
0.079008959
0.083385991
0.088299574
0.093728738
0.099630627
0.1059106
0.11242516
0.11899415
0.12539247
0.13152675
0.13734781
0.1428418
0.14803402
0.15294892
0.15759038
0.16193036
0.16589794
0.1693686
0.17214751
0.17391803
0.17401783
0.17203833
0.16987988
0.16840356
0.16705314
0.16588197
0.16468317
0.1637844
0.16303673
0.16042898
0.15384426
0.082952096
0.086874019
0.091288749
0.09619256
0.10154891
0.10727986
0.11326557
0.11935531
0.12540896
0.13129744
0.13693546
0.14229488
0.14738059
0.15220638
0.15677249
0.16105404
0.16498884
0.16846442
0.17130376
0.17322217
0.17368127
0.17190979
0.16975755
0.1683426
0.16707343
0.16592427