/*--------------------------------*- C++ -*----------------------------------*\
| =========                 |                                                 |
| \\      /  F ield         | OpenFOAM: The Open Source CFD Toolbox           |
|  \\    /   O peration     | Version:  2406                                  |
|   \\  /    A nd           | Website:  www.openfoam.com                      |
|    \\/     M anipulation  |                                                 |
\*---------------------------------------------------------------------------*/
FoamFile
{
    version     2.0;
    format      ascii;
    arch        "LSB;label=32;scalar=64";
    class       volScalarField;
    location    "0.006";
    object      alphat;
}
// * * * * * * * * * * * * * * * * * * * * * * * * * * * * * * * * * * * * * //

dimensions      [1 -1 -1 0 0 0 0];

internalField   nonuniform List<scalar> 
8950
(
0.0019115897
0.0020851764
0.0022504127
0.0024068055
0.0025570125
0.0027032093
0.0028473188
0.0029908973
0.0031348885
0.0032799687
0.0034266053
0.00357557
0.0037276377
0.0038834851
0.0040436386
0.0042084181
0.0043780234
0.0045527131
0.0047324488
0.0049168778
0.0051058599
0.0052988584
0.0054952024
0.0056939171
0.0058941647
0.0060949957
0.0062955816
0.0064962362
0.0066964667
0.006895641
0.0070931791
0.0072878728
0.0074805241
0.0076729117
0.0078654213
0.0080602349
0.0082576167
0.0084547901
0.0086535056
0.0088557774
0.0090603977
0.0092664913
0.0094731661
0.0096795405
0.0098845829
0.010087137
0.010285781
0.010479003
0.010665287
0.010843764
0.011016411
0.01118098
0.011333071
0.011474381
0.011604459
0.011722783
0.01182875
0.011922124
0.012002557
0.012069949
0.01212427
0.012165737
0.012194643
0.012211157
0.012216113
0.012210507
0.01219547
0.012172365
0.012142425
0.012106118
0.012065047
0.012021642
0.011977185
0.011932499
0.011888597
0.011846321
0.011805402
0.0117737
0.0019363808
0.0020731183
0.0022372448
0.002397677
0.0025526769
0.0027026364
0.0028487936
0.0029926211
0.0031354044
0.0032782575
0.00342245
0.0035688259
0.0037180637
0.0038707622
0.0040273647
0.0041881625
0.0043534082
0.0045233788
0.0046980421
0.0048764015
0.0050583219
0.0052440202
0.0054331205
0.0056250265
0.0058192038
0.0060149442
0.0062117756
0.0064100929
0.0066096449
0.0068100544
0.0070110403
0.0072123131
0.0074145008
0.0076182853
0.0078244815
0.0080343841
0.0082470487
0.00846144
0.0086783183
0.008898108
0.009119843
0.0093424591
0.009564812
0.0097857133
0.010003962
0.010218228
0.010426796
0.010628122
0.01082118
0.011006254
0.011184559
0.011350963
0.011504612
0.011646317
0.011775437
0.011891376
0.011993697
0.01208232
0.012156971
0.012217726
0.012264725
0.012298353
0.012319041
0.012327293
0.012324211
0.012311036
0.012289119
0.012259898
0.01222454
0.012183875
0.012139874
0.012094886
0.012049969
0.012005945
0.011963933
0.011924135
0.011888524
0.0020862043
0.0022340283
0.0024006086
0.0025618213
0.0027159347
0.0028639043
0.0030069361
0.0031467796
0.0032848476
0.0034223082
0.0035602568
0.0036995706
0.0038410807
0.003985394
0.0041329143
0.0042840694
0.0044392719
0.0045989067
0.0047632006
0.0049328939
0.0051072365
0.0052858417
0.0054682999
0.0056542216
0.0058431674
0.0060348012
0.0062291506
0.0064269264
0.0066266499
0.0068288517
0.0070337109
0.0072406937
0.0074508675
0.007664507
0.0078821247
0.0081042428
0.0083299879
0.0085585741
0.0087899308
0.0090236107
0.0092585154
0.0094934063
0.0097269548
0.0099577964
0.010184663
0.010405912
0.010619461
0.010824353
0.011020401
0.011209169
0.011387309
0.011551811
0.011703502
0.01184188
0.011966486
0.012076828
0.012172718
0.012253924
0.012320319
0.012372201
0.012409897
0.012433964
0.012445052
0.012444007
0.012432177
0.01241101
0.012382
0.012346604
0.012306028
0.012261449
0.01221507
0.01216903
0.012124276
0.012081574
0.012041963
0.012005607
0.011976374
0.0023418339
0.002509054
0.0026799946
0.0028417408
0.0029951391
0.0031402119
0.0032787906
0.0034144509
0.0035473953
0.0036789284
0.00381017
0.0039420725
0.0040757491
0.0042114392
0.0043495547
0.0044909999
0.0046362704
0.0047858154
0.0049395763
0.0050973462
0.0052596609
0.0054267176
0.0055984324
0.0057747177
0.0059556453
0.0061411096
0.0063309579
0.0065256493
0.0067262606
0.0069316474
0.0071412641
0.0073548557
0.0075732703
0.0077962401
0.0080240928
0.0082567932
0.0084933818
0.0087329892
0.0089751097
0.0092187657
0.0094626891
0.009705537
0.0099458648
0.010182227
0.010413466
0.010637596
0.010852456
0.011058192
0.011255933
0.011443952
0.011617943
0.011778386
0.011924916
0.012056816
0.012173863
0.012275572
0.012361858
0.012432717
0.012488281
0.012529047
0.012555568
0.012568594
0.01256901
0.01255797
0.01253702
0.012507745
0.012471713
0.012430404
0.012385085
0.012337248
0.012289184
0.012242776
0.012198821
0.012158127
0.012121613
0.012089631
0.012067271
0.0026942677
0.0028731452
0.0030454528
0.003205873
0.0033555695
0.0034962436
0.003630155
0.0037596413
0.0038858747
0.0040101859
0.0041337413
0.0042576631
0.0043834733
0.0045095505
0.0046378118
0.0047702622
0.0049062482
0.0050465508
0.0051908
0.0053391954
0.0054926969
0.0056515772
0.0058157786
0.0059855289
0.0061610546
0.0063425122
0.0065304068
0.0067240382
0.0069231316
0.0071283895
0.007340702
0.007558991
0.0077830633
0.0080128623
0.0082483284
0.0084888388
0.0087332501
0.0089806371
0.0092300399
0.0094800684
0.0097293974
0.0099765609
0.010220003
0.010458247
0.010690521
0.010913689
0.011125234
0.011328772
0.011524054
0.011705294
0.011871711
0.012024152
0.012161495
0.012283248
0.012389337
0.012479392
0.012553476
0.012611803
0.012654761
0.012683114
0.012697494
0.012698861
0.012688343
0.01266735
0.012637562
0.012600638
0.012558169
0.012511635
0.012462428
0.012412278
0.012363372
0.012317271
0.0122747
0.012236483
0.012203558
0.012177018
0.0030976785
0.0032896575
0.0034673638
0.0036287517
0.0037762727
0.003912923
0.0040414804
0.0041642497
0.0042830137
0.0043993479
0.0045146103
0.0046300384
0.0047464835
0.0048640359
0.004984082
0.0051077069
0.0052352586
0.0053678282
0.0055031554
0.0056433631
0.0057904189
0.0059432338
0.0061017425
0.0062669897
0.0064391239
0.0066183543
0.0068050221
0.0069989901
0.0072005414
0.0074090593
0.0076235756
0.0078448216
0.0080736064
0.0083086647
0.0085493679
0.0087947113
0.0090435123
0.0092947315
0.0095471043
0.0097991383
0.010049407
0.010296353
0.01053837
0.01077398
0.011002996
0.011219745
0.011424164
0.01162297
0.011810997
0.011982018
0.012137805
0.01227875
0.01240398
0.012513086
0.012605878
0.012682205
0.012742334
0.012786693
0.012815902
0.012830735
0.012832184
0.012821492
0.012800004
0.01276931
0.012731155
0.012687219
0.012639093
0.012588285
0.012536343
0.012485137
0.012436642
0.012392129
0.012352296
0.012317876
0.012289368
0.012268513
0.0035228004
0.0037336752
0.0039233791
0.0040914163
0.0042401579
0.0043747362
0.0044986636
0.0046149249
0.0047261145
0.0048342524
0.004941003
0.0050477251
0.0051553663
0.0052646932
0.0053768455
0.0054927012
0.005612867
0.0057377458
0.0058669968
0.0060020622
0.0061441702
0.0062925423
0.0064463871
0.0066096403
0.0067800217
0.00695834
0.007145003
0.0073398889
0.0075429273
0.0077538454
0.0079723248
0.0081978165
0.0084289911
0.0086660551
0.0089084718
0.0091552431
0.0094052631
0.009656968
0.0099088447
0.010159304
0.01040684
0.010649821
0.010886505
0.011114453
0.011334318
0.011544232
0.011743625
0.011933155
0.012109479
0.012266521
0.012408617
0.012535431
0.012645785
0.012739319
0.012816272
0.012876785
0.012921334
0.012950538
0.012965218
0.012966389
0.012955251
0.012933137
0.012901547
0.012862174
0.012816776
0.012767023
0.012714505
0.012660773
0.012607467
0.012556426
0.012509359
0.012467334
0.01243106
0.012401358
0.012378711
0.012364841
0.003954297
0.0041933591
0.0044002699
0.0045788038
0.0047326026
0.0048675402
0.0049882778
0.0050989085
0.0052031612
0.0053035672
0.0054022153
0.0055007501
0.0056003831
0.0057022103
0.0058073174
0.005916546
0.0060305197
0.0061496606
0.0062743454
0.0064055756
0.0065439782
0.0066893894
0.0068423278
0.0070046587
0.0071734481
0.0073517788
0.0075391587
0.0077350454
0.0079394048
0.008151831
0.0083718452
0.0085988655
0.0088323097
0.0090712181
0.0093146153
0.0095611956
0.0098093881
0.010058144
0.010306033
0.010551454
0.010792831
0.011028475
0.011256636
0.011475634
0.011684454
0.011882863
0.012071645
0.01224647
0.012404544
0.012545834
0.012672017
0.012782093
0.012875459
0.012952195
0.013012494
0.013056698
0.013085473
0.013099635
0.013100201
0.013088362
0.013065457
0.013032961
0.012992484
0.012945759
0.012894521
0.012840409
0.012785006
0.012729886
0.012676699
0.012627158
0.012582712
0.012544289
0.012512585
0.012488287
0.012471899
0.012465073
0.0043881179
0.004660924
0.0048907634
0.0050806044
0.0052408581
0.0053775328
0.0054966022
0.0056030479
0.0057017196
0.0057955253
0.0058871844
0.0059787118
0.0060715723
0.0061671124
0.0062664594
0.0063704608
0.0064797679
0.0065949185
0.0067164878
0.006845194
0.006981484
0.0071255919
0.0072780895
0.0074394789
0.0076090821
0.0077885329
0.0079754347
0.0081719956
0.0083770481
0.0085899458
0.0088101206
0.0090368556
0.0092693616
0.0095066144
0.0097474614
0.0099905924
0.01023459
0.010477938
0.010719108
0.010956492
0.01118849
0.011413462
0.011629825
0.011836159
0.012031132
0.012215609
0.01238895
0.012545905
0.01268677
0.012811491
0.012920223
0.013012477
0.013088095
0.013147332
0.013190579
0.013218418
0.013231696
0.01323141
0.013218741
0.013195017
0.013161686
0.013120314
0.013072559
0.013020144
0.012964749
0.012907974
0.012851375
0.012796508
0.01274496
0.012698262
0.012657637
0.012623902
0.012597704
0.012579631
0.012570187
0.0048233833
0.0051310539
0.0053856302
0.0055890807
0.0057552613
0.0058936022
0.0060117929
0.0061153765
0.0062095402
0.0062982154
0.0063845784
0.0064707915
0.0065585259
0.0066493985
0.0067445847
0.0068449605
0.0069512157
0.0070639479
0.0071837434
0.0073111636
0.007446587
0.0075903451
0.0077428202
0.0079041959
0.0080744102
0.0082538211
0.0084416717
0.0086383996
0.0088422274
0.0090544154
0.0092731356
0.0094977042
0.009727179
0.009960455
0.010196258
0.010433179
0.010669775
0.010904556
0.011135973
0.011362418
0.011582299
0.011794052
0.01199621
0.012187394
0.012366398
0.012535124
0.012690027
0.01282826
0.01295066
0.01305698
0.0131471
0.013220866
0.01327842
0.013320192
0.013346769
0.01335894
0.013357708
0.013344223
0.01331979
0.013285831
0.013243863
0.013195488
0.013142362
0.013086156
0.01302848
0.012970874
0.012914845
0.012861883
0.012813453
0.012770891
0.012735226
0.01270718
0.012687328
0.012676173
0.012674076
0.0052489156
0.0055932835
0.0058723614
0.006091695
0.0062656087
0.0064069746
0.0065246399
0.0066262705
0.0067170409
0.006801848
0.0068841809
0.0069665552
0.0070509479
0.007138913
0.0072315805
0.0073299042
0.0074345972
0.0075462629
0.0076654433
0.0077925927
0.0079279779
0.0080719201
0.0082246623
0.0083862788
0.0085567323
0.0087359584
0.0089235088
0.0091190977
0.0093221232
0.0095311871
0.0097467466
0.0099672678
0.010191641
0.010418709
0.010647118
0.010875421
0.011102172
0.011325901
0.011545077
0.011758124
0.011963502
0.012159747
0.012345499
0.012519462
0.012680954
0.012831797
0.012966728
0.013085583
0.013188744
0.013275992
0.013347294
0.01340276
0.013442761
0.013467897
0.013478933
0.013476825
0.013462703
0.013437829
0.013403589
0.013361454
0.013312967
0.013259717
0.013203315
0.013145352
0.01308735
0.013030774
0.012977049
0.01292756
0.01288362
0.012846371
0.012816684
0.012795183
0.012782362
0.012778623
0.012783914
0.0056686664
0.0060411442
0.006340005
0.0065760511
0.006761008
0.0069065765
0.0070252072
0.0071259278
0.007215032
0.0072974581
0.0073771154
0.007457025
0.0075394368
0.0076258195
0.0077173336
0.0078148771
0.00791919
0.0080308598
0.008150298
0.0082778676
0.0084136722
0.0085580334
0.0087110906
0.0088728028
0.0090430289
0.0092214916
0.0094076427
0.0096010795
0.0098011037
0.010006845
0.010217284
0.010431716
0.010649039
0.010867826
0.011086711
0.011304256
0.011519032
0.011729598
0.011934469
0.012132131
0.01232114
0.012500159
0.012667951
0.012823334
0.01296663
0.013097749
0.0132125
0.013311865
0.013395809
0.013464291
0.013517455
0.013555625
0.013579362
0.013589418
0.013586701
0.013572295
0.013547419
0.013513403
0.013471668
0.013423695
0.013371003
0.013315134
0.013257617
0.013199944
0.013143539
0.013089768
0.01303995
0.012995339
0.012957084
0.012926152
0.012903273
0.012888979
0.012883673
0.012887604
0.012900019
0.0060811853
0.0064770747
0.006792243
0.0070391865
0.0072319245
0.0073833851
0.0075041126
0.0076049177
0.0076935258
0.00777508
0.0078538529
0.0079329884
0.0080147372
0.0081006953
0.0081920869
0.008289778
0.0083944965
0.0085067704
0.0086268695
0.0087551769
0.0088917613
0.0090364963
0.0091896255
0.0093509846
0.0095203202
0.009697182
0.0098808387
0.010070926
0.010266652
0.010467166
0.010671437
0.010878262
0.011086501
0.011295211
0.011502777
0.011707814
0.011908923
0.012104685
0.012293713
0.01247459
0.012646012
0.012806788
0.01295583
0.01309216
0.013216733
0.013327745
0.013422992
0.013503429
0.013569028
0.013619924
0.013656432
0.013679056
0.013688502
0.013685647
0.013671505
0.01364724
0.013614123
0.013573504
0.013526798
0.013475452
0.013420931
0.013364691
0.013308163
0.013252725
0.013199688
0.013150308
0.013105779
0.013067214
0.013035602
0.013011754
0.01299628
0.012989619
0.012992073
0.013003633
0.013022462
0.0064831842
0.0068983046
0.0072255677
0.0074808816
0.00767861
0.007832901
0.0079561455
0.0080574763
0.0081461032
0.0082277012
0.0083066814
0.0083861948
0.0084684833
0.008555199
0.0086475052
0.008746234
0.008851968
0.0089650687
0.0090858574
0.0092145797
0.0093513227
0.0094959339
0.0096484402
0.0098085712
0.0099760348
0.010150317
0.010330772
0.010516376
0.01070654
0.010900422
0.011096921
0.011294816
0.011492735
0.01168981
0.011884737
0.012076025
0.012262307
0.012442188
0.012614466
0.01277786
0.012931229
0.013073528
0.013203834
0.013321417
0.013427439
0.013519186
0.013596214
0.013659144
0.013708087
0.013743344
0.013765381
0.013774832
0.013772517
0.013759395
0.013736545
0.013705169
0.013666541
0.013621994
0.013572895
0.013520627
0.013466567
0.01341207
0.013358453
0.013306971
0.01325882
0.013215134
0.01317698
0.01314533
0.013121028
0.013104751
0.013097003
0.013098132
0.01310832
0.013127098
0.013151174
0.0068710703
0.0073016803
0.0076367045
0.0078977729
0.0080985381
0.0082543018
0.008378067
0.0084801932
0.0085690097
0.0086510016
0.0087306567
0.0088110923
0.0088945207
0.008982574
0.0090763721
0.0091766399
0.0092837795
0.0093980294
0.0095196474
0.0096486605
0.0097850318
0.0099288341
0.010079766
0.01023751
0.010401664
0.010571779
0.010747245
0.010926951
0.011110166
0.011295978
0.011483354
0.01167113
0.011858155
0.012042873
0.01222429
0.012401127
0.012572011
0.012735618
0.012890989
0.013036988
0.013172645
0.013297045
0.013409427
0.013509372
0.013597842
0.013672166
0.013732958
0.013780551
0.013815231
0.013837434
0.013847742
0.01384688
0.013835732
0.013815304
0.013786692
0.013751092
0.013709742
0.013663916
0.013614907
0.013564005
0.013512485
0.013461586
0.013412505
0.013366379
0.013324284
0.013287238
0.013256186
0.013231972
0.013215312
0.013206775
0.013206771
0.013215561
0.013233179
0.013258584
0.0072406266
0.0076834429
0.0080229466
0.0082872061
0.0084891502
0.0086450641
0.0087685568
0.0088705909
0.0089593673
0.0090416544
0.0091219705
0.0092033435
0.0092879392
0.0093773338
0.0094725415
0.0095741684
0.0096825045
0.0097977049
0.0099198981
0.01004901
0.010184923
0.010327506
0.010476368
0.010631149
0.010791275
0.0109562
0.011125172
0.011297579
0.011472466
0.011648778
0.011825556
0.012001779
0.012176615
0.012348298
0.012515729
0.012677856
0.012833415
0.012981452
0.013120557
0.013250025
0.013369076
0.013476956
0.013573029
0.013657246
0.013730016
0.013789609
0.013836767
0.01387182
0.013895189
0.013907401
0.013909129
0.013901133
0.013884315
0.013859691
0.013828323
0.013791367
0.013749981
0.013705355
0.013658683
0.013611148
0.013563912
0.0135181
0.013474793
0.013435013
0.01339973
0.013369857
0.013346229
0.013329584
0.013320537
0.013319566
0.013327004
0.013343036
0.013367546
0.013399192
0.0075873078
0.0080396402
0.0083831419
0.008646693
0.0088485046
0.0090034616
0.0091258256
0.0092268834
0.0093151457
0.0093973472
0.0094779307
0.0095598379
0.0096451946
0.0097355106
0.0098316188
0.0099340286
0.010042922
0.010158349
0.010280349
0.010408781
0.010543406
0.010683977
0.010830085
0.010981244
0.011136884
0.011296245
0.011458639
0.011623346
0.011789424
0.011955873
0.01212167
0.012285911
0.012447447
0.012605707
0.012758996
0.012906296
0.013046834
0.013179683
0.013303641
0.013418044
0.013522276
0.013615758
0.013698098
0.013769112
0.013829045
0.013877081
0.013913773
0.013939575
0.013954982
0.013960578
0.013957102
0.013945302
0.013926045
0.013900323
0.013869116
0.013833497
0.013794521
0.01375327
0.013710831
0.013668269
0.013626641
0.01358696
0.013550203
0.013517295
0.013489117
0.013466495
0.013450183
0.013440835
0.013438989
0.013445056
0.013459314
0.013481879
0.013512515
0.01354973
0.0079081547
0.0083676616
0.0087141069
0.0089747728
0.0091752987
0.0093283205
0.0094487357
0.0095481668
0.0096352618
0.0097166929
0.0097968508
0.0098786924
0.0099641812
0.010054675
0.010150934
0.010253306
0.010361837
0.010476639
0.01059759
0.010724434
0.010856827
0.01099445
0.011136852
0.01128348
0.011433727
0.011586868
0.011742166
0.011898832
0.012055992
0.012212713
0.012367997
0.012520828
0.012670274
0.012815567
0.012955903
0.013089548
0.013216243
0.013335031
0.01344542
0.013546661
0.013638255
0.013719834
0.013791
0.013851938
0.013902495
0.013942542
0.013972413
0.013992578
0.014003588
0.014006098
0.014000815
0.01398851
0.01396998
0.013946108
0.013917754
0.013885865
0.013851392
0.013815297
0.013778552
0.01374211
0.013706929
0.013673929
0.013644004
0.013618002
0.013596739
0.013580987
0.013571441
0.013568702
0.013573262
0.013585488
0.013605619
0.013633727
0.013669479
0.013711277
0.0082006073
0.0086648737
0.0090136018
0.0092706537
0.0094685902
0.0096189312
0.0097367622
0.0098339062
0.0099191872
0.0099991756
0.010078222
0.010159202
0.010244004
0.010333832
0.010429315
0.010530691
0.010638031
0.010751258
0.010870175
0.010994529
0.011123791
0.011257617
0.011395528
0.011536944
0.011681234
0.011827689
0.011975541
0.012123989
0.012272202
0.012419314
0.012564428
0.012706636
0.012845085
0.012978946
0.013107616
0.013230091
0.01334522
0.01345278
0.013552272
0.013643179
0.013725138
0.013797974
0.013861122
0.013915325
0.013960281
0.013996039
0.014022915
0.014041298
0.014051689
0.014054733
0.014050935
0.014041192
0.014026168
0.014006708
0.013983508
0.013957354
0.013929072
0.013899466
0.013869409
0.013839743
0.013811358
0.013785097
0.013761795
0.013742253
0.013727249
0.013717533
0.013713779
0.013716567
0.013726366
0.013743528
0.013768279
0.013800663
0.01384028
0.013885451
0.0084618278
0.0089291477
0.0092793105
0.009534931
0.0097273963
0.0098749197
0.0099898002
0.010084203
0.010167139
0.010245057
0.01032229
0.010401656
0.010484947
0.010573242
0.010667075
0.010766615
0.010871827
0.010982587
0.011098665
0.011219624
0.011345024
0.011474415
0.011607289
0.011743066
0.011881109
0.012020715
0.012161132
0.012301588
0.012441307
0.012579508
0.012715398
0.012848179
0.01297707
0.013101337
0.013220268
0.013333558
0.013440033
0.013539272
0.013631096
0.013715153
0.013791195
0.013859066
0.013918489
0.013969729
0.01401308
0.014048481
0.014076221
0.014096668
0.014110229
0.014117403
0.01411856
0.014114371
0.014105406
0.01409231
0.014075963
0.014056959
0.014036036
0.014013779
0.013990958
0.013968284
0.013946595
0.013926691
0.013909375
0.013895421
0.013885609
0.013880701
0.013881387
0.013888257
0.013901795
0.013922361
0.013950192
0.01398533
0.014027333
0.014074483
0.0086896182
0.0091593405
0.0095103859
0.0097652041
0.0099519282
0.01009643
0.010208201
0.010299643
0.010379842
0.010455216
0.010530072
0.010607182
0.010688257
0.010774276
0.010865696
0.010962633
0.011064998
0.011172578
0.011285088
0.011402091
0.011523108
0.011647652
0.011775232
0.011905251
0.012037086
0.01217006
0.012303463
0.012436582
0.012568714
0.012699165
0.012827241
0.012952247
0.013073505
0.013190388
0.013302334
0.013408857
0.01350979
0.013604056
0.013691698
0.013772559
0.013846466
0.013913307
0.013973025
0.014025708
0.014071313
0.014110434
0.014142889
0.014169045
0.014189218
0.014203783
0.014213038
0.014217235
0.014216847
0.01421229
0.014204341
0.014193474
0.014180423
0.01416578
0.014150263
0.014134404
0.014118983
0.014104736
0.014092453
0.014082912
0.014076927
0.014075302
0.014078782
0.014088008
0.014103514
0.014125696
0.014154824
0.01419097
0.014233685
0.014281255
0.0088822141
0.0093543166
0.0097054548
0.0099602727
0.010143019
0.010283594
0.010392498
0.010481039
0.010558386
0.010630976
0.010703108
0.010777525
0.010855882
0.010939089
0.011027548
0.011121335
0.011220321
0.011324258
0.011432803
0.011545528
0.011661924
0.01178155
0.01190388
0.012028358
0.012154384
0.012281323
0.012408533
0.012535374
0.012661223
0.012785478
0.012907543
0.013026832
0.013142777
0.013254871
0.013362674
0.013465799
0.013563919
0.01365695
0.013744072
0.013825533
0.0139012
0.013970987
0.014034851
0.014092797
0.014144872
0.014191324
0.014231952
0.014267173
0.014297008
0.014321812
0.014341688
0.014356655
0.014366897
0.014372828
0.014374844
0.014373383
0.014368916
0.014362068
0.014353426
0.014343811
0.014333958
0.014324491
0.014316167
0.014309739
0.014306093
0.01430609
0.014310568
0.014320258
0.014335793
0.014357639
0.014386117
0.014421358
0.014462956
0.014509258
0.0090381535
0.0095127376
0.009864169
0.010119601
0.010301049
0.010436748
0.010543433
0.010629435
0.010704104
0.010773939
0.010843263
0.010914809
0.010990204
0.011070323
0.011155538
0.011245899
0.011341261
0.011441355
0.011545828
0.011654258
0.011766161
0.011881081
0.011998531
0.012118021
0.012238974
0.012360818
0.012482989
0.012604932
0.012726113
0.012846021
0.01296416
0.013080048
0.013193232
0.013303311
0.013409945
0.013512846
0.013611757
0.013706419
0.01379686
0.013882604
0.013963734
0.014040153
0.014111802
0.014178582
0.01424046
0.014297504
0.014349634
0.014396801
0.014438831
0.014476257
0.014509005
0.014536948
0.014559869
0.014577969
0.014591503
0.014600774
0.014605992
0.014607578
0.014606008
0.014602179
0.01459684
0.014590913
0.014585178
0.01458033
0.014577359
0.01457726
0.014580996
0.014589273
0.014602865
0.014622379
0.014648219
0.01468057
0.014719142
0.014762409
0.0091565111
0.0096339453
0.0099866221
0.010243111
0.010424797
0.010556832
0.010661928
0.01074599
0.010818434
0.010885824
0.010952524
0.011021292
0.011093757
0.011170787
0.01125275
0.011339694
0.011431471
0.011527816
0.011628388
0.011732791
0.011840582
0.011951307
0.012064562
0.012179881
0.012296755
0.012414688
0.012533202
0.012651831
0.012770129
0.01288768
0.013004081
0.013118952
0.013231937
0.01334273
0.013451068
0.01355673
0.013659523
0.013759273
0.013855839
0.013949131
0.014039126
0.014125351
0.014207918
0.014286587
0.014361385
0.014432229
0.014498971
0.014561577
0.014620067
0.014672768
0.014720304
0.014762728
0.01479932
0.014830374
0.014856042
0.014876413
0.014891698
0.014902129
0.01490816
0.014910406
0.014909708
0.014907046
0.014903263
0.014899162
0.014895809
0.014894145
0.014895084
0.014899735
0.014909085
0.014923965
0.014945026
0.014972566
0.015006236
0.015044709
0.0092362409
0.0097172891
0.010072528
0.01033068
0.010514123
0.010645132
0.01074881
0.01083187
0.010902814
0.01096832
0.011032833
0.011099166
0.011168981
0.011243172
0.011322123
0.011405902
0.01149438
0.011587315
0.011684393
0.011785254
0.011889508
0.011996782
0.012106691
0.012218827
0.012332762
0.012448076
0.012564389
0.012681321
0.012798516
0.012915643
0.013032392
0.013148467
0.013263597
0.013377546
0.013490111
0.013601118
0.013710413
0.01381786
0.013923332
0.014026764
0.014128151
0.014227372
0.014323877
0.014417302
0.014507215
0.014593475
0.014676011
0.014754562
0.014828664
0.014897496
0.014961063
0.015019237
0.015070829
0.015116376
0.015155554
0.015188342
0.015215157
0.015235765
0.015250456
0.015259691
0.015264461
0.015265576
0.015264015
0.015260485
0.015256325
0.015252693
0.015250701
0.015251358
0.015255746
0.015264905
0.015279673
0.015300599
0.015327676
0.015359733
0.0092772196
0.0097628414
0.010121963
0.010383107
0.010569632
0.010702185
0.010805061
0.010888245
0.010958611
0.011022995
0.011085958
0.011150396
0.011218038
0.011289827
0.011366191
0.011447237
0.011532874
0.011622896
0.011717032
0.011814972
0.011916361
0.012020981
0.012128438
0.012238413
0.012350538
0.012464475
0.012579941
0.012696644
0.012814309
0.012932689
0.013051551
0.013170676
0.013289856
0.013408909
0.013527671
0.013645994
0.013763747
0.013880797
0.013996989
0.014112055
0.014225917
0.014338488
0.014449345
0.01455786
0.014663396
0.014766071
0.014865524
0.014961275
0.015052655
0.015139054
0.015220066
0.015295274
0.015363995
0.015426513
0.015482093
0.015529956
0.015570268
0.015603049
0.015628465
0.01564669
0.015658251
0.015664236
0.015665749
0.015663665
0.015659151
0.015653566
0.015648193
0.015644264
0.015643007
0.01564564
0.01565323
0.015666496
0.015685625
0.015709938
0.009279745
0.0097710212
0.01013554
0.01040142
0.010592298
0.010727697
0.010831694
0.010916183
0.010987019
0.011051185
0.011113374
0.011176595
0.011242669
0.011312613
0.011386921
0.011465757
0.011549085
0.011636753
0.011728548
0.011824228
0.011923528
0.012026202
0.012131982
0.012240626
0.01235186
0.012465427
0.012581126
0.01269874
0.012818071
0.012938943
0.013061192
0.013184671
0.013309216
0.013434685
0.01356094
0.013687841
0.013815262
0.013943042
0.014070985
0.014198955
0.014326755
0.014454093
0.014580511
0.014706072
0.014828974
0.01494922
0.015066958
0.015181427
0.015291735
0.015397066
0.015496885
0.015590559
0.015677401
0.015757018
0.015828719
0.015891542
0.015945971
0.015991601
0.016028471
0.016057214
0.016078104
0.016091597
0.016098682
0.016100383
0.016097741
0.016091627
0.016083758
0.016075752
0.016069048
0.016065025
0.016065067
0.016070103
0.016080566
0.016095874
0.0092444114
0.0097423316
0.010113651
0.010386022
0.010582929
0.010722049
0.010829654
0.010916764
0.010989186
0.011054098
0.01111635
0.011179087
0.011244242
0.011312926
0.011385719
0.01146286
0.011544384
0.011630203
0.011720168
0.011814105
0.011911822
0.012013125
0.012117835
0.012225772
0.012336752
0.012450616
0.012567251
0.012686467
0.012808161
0.012932222
0.013058541
0.013186992
0.01331749
0.013449967
0.01358432
0.013720414
0.013858092
0.013997152
0.014137471
0.014278874
0.014421041
0.01456362
0.014706147
0.014848379
0.014989528
0.015128269
0.015264905
0.015398616
0.015528555
0.015653798
0.015773558
0.015887119
0.015993669
0.016092408
0.016182547
0.016262999
0.016334087
0.016395299
0.016446322
0.016487219
0.01651826
0.016540061
0.016553537
0.016559815
0.01656007
0.016555912
0.016548208
0.01653841
0.016528099
0.016518734
0.016511791
0.016508842
0.016510675
0.016517089
0.0091714044
0.0096770148
0.010056878
0.010337657
0.01054199
0.010687101
0.01080004
0.010890986
0.010966092
0.011032731
0.011095894
0.011158879
0.011223756
0.011291785
0.011363635
0.011439624
0.011519854
0.011604315
0.01169293
0.011785587
0.011882159
0.011982505
0.012086467
0.012193961
0.012304936
0.012419299
0.012536971
0.012657874
0.012781976
0.012909232
0.013039603
0.013173059
0.013309541
0.013448956
0.013591224
0.013736262
0.013883956
0.014034124
0.014186611
0.01434116
0.014497457
0.01465511
0.014813643
0.014972772
0.015131821
0.015289095
0.015444901
0.015598327
0.015748464
0.015894313
0.016034914
0.016169403
0.016296802
0.016416164
0.016526486
0.016626585
0.016716405
0.016795477
0.016863147
0.016919303
0.016964087
0.016997874
0.017021413
0.017035723
0.017041857
0.017040867
0.017034284
0.017023738
0.01701096
0.016997818
0.016986017
0.016976788
0.016971249
0.016969555
0.0090627681
0.0095767454
0.0099665161
0.010257441
0.010471
0.010623759
0.010743977
0.01084013
0.010919293
0.010988842
0.011053949
0.011118092
0.011183457
0.01125133
0.011322469
0.011397344
0.011476231
0.011559214
0.011646292
0.011737426
0.01183256
0.01193164
0.012034632
0.012141627
0.01225257
0.012367381
0.012486042
0.012608551
0.01273493
0.01286519
0.012999339
0.013137373
0.0132793
0.013425094
0.013574715
0.013728099
0.013885146
0.014045716
0.014209631
0.014376641
0.014546423
0.014718574
0.014892606
0.015068317
0.015244693
0.015420298
0.015595218
0.015768465
0.015939085
0.016105996
0.016268141
0.016424423
0.016573725
0.01671499
0.01684703
0.016968601
0.017079129
0.017178259
0.017265028
0.017339126
0.017400469
0.017449234
0.017485954
0.017511452
0.017526691
0.01753275
0.017531046
0.017523188
0.017510947
0.017496179
0.017480688
0.017466374
0.017454764
0.017446531
0.0023482893
0.004482264
0.008117699
0.012512731
0.01662435
0.019413167
0.020140552
0.018855131
0.016665045
0.0024813377
0.00460204
0.0081758384
0.012476068
0.016490852
0.019208423
0.019860809
0.018598512
0.016393248
0.0026223341
0.0047328695
0.0082582146
0.012475833
0.016391529
0.019013542
0.019591045
0.018341705
0.016132541
0.002765911
0.0048613137
0.0083352371
0.012471889
0.016290586
0.018818446
0.01932929
0.018085892
0.015880372
0.0029094632
0.0049867082
0.0084073367
0.012464108
0.016187843
0.018623497
0.019074206
0.017832682
0.015635636
0.0030529845
0.0051084116
0.0084744674
0.012452656
0.016083359
0.018429072
0.018824837
0.017582893
0.015397613
0.0031973343
0.0052269431
0.0085374931
0.012437993
0.015977392
0.018235544
0.018580418
0.017335834
0.015165652
0.0033428357
0.0053434074
0.0085973024
0.012420629
0.015870269
0.018043207
0.018340268
0.01709163
0.014939266
0.0034898911
0.0054586584
0.0086543768
0.012401046
0.01576234
0.017852301
0.01810386
0.016850356
0.01471804
0.0036386561
0.0055729016
0.0087093155
0.012379753
0.015653985
0.017663105
0.017871471
0.016611534
0.014501584
0.0037894755
0.0056868163
0.0087629108
0.012357338
0.015545706
0.017476271
0.017643013
0.016376965
0.014289777
0.0039427731
0.0058012824
0.0088160696
0.012334521
0.015438285
0.01729176
0.017418064
0.016146851
0.014082488
0.0040991467
0.0059173942
0.0088697808
0.012312038
0.015332322
0.017109055
0.017195217
0.015920675
0.013879482
0.0042592766
0.0060363473
0.0089250598
0.012290661
0.015228181
0.016927073
0.016971944
0.01569951
0.013680594
0.0044236481
0.0061592165
0.0089828872
0.012271108
0.015125819
0.016747765
0.016760704
0.015482754
0.013485883
0.0045926416
0.0062867862
0.0090441349
0.012254037
0.015025766
0.016571852
0.016552492