/*--------------------------------*- C++ -*----------------------------------*\
| =========                 |                                                 |
| \\      /  F ield         | OpenFOAM: The Open Source CFD Toolbox           |
|  \\    /   O peration     | Version:  2406                                  |
|   \\  /    A nd           | Website:  www.openfoam.com                      |
|    \\/     M anipulation  |                                                 |
\*---------------------------------------------------------------------------*/
FoamFile
{
    version     2.0;
    format      ascii;
    arch        "LSB;label=32;scalar=64";
    class       volScalarField;
    location    "0.006";
    object      p;
}
// * * * * * * * * * * * * * * * * * * * * * * * * * * * * * * * * * * * * * //

dimensions      [1 -1 -2 0 0 0 0];

internalField   nonuniform List<scalar> 
8950
(
100171.27
100187.69
100195.63
100198.73
100200.5
100201.63
100202.27
100202.78
100203.25
100203.69
100204.28
100205.25
100206.8
100209.01
100212
100215.87
100220.73
100226.64
100233.64
100241.29
100250.26
100260.41
100271.52
100283.63
100296.57
100310.28
100325.1
100340.61
100356.7
100373.37
100390.52
100407.97
100425.64
100443.43
100461.3
100479.09
100496.66
100513.87
100530.64
100546.93
100562.7
100577.84
100592.31
100606.06
100619.09
100631.36
100642.88
100653.72
100663.79
100673.1
100681.86
100689.9
100697.27
100704.31
100710.62
100716.7
100722.27
100727.48
100732.71
100737.84
100742.78
100747.85
100753.1
100758.38
100764.2
100770.44
100777.2
100784.64
100793.06
100801.24
100810.46
100821.2
100832.48
100844.33
100857.09
100871.01
100885.49
100900.51
100168.56
100181.1
100188.86
100192.23
100194.06
100195.21
100195.85
100196.19
100196.37
100196.63
100197.22
100198.34
100200.14
100202.73
100206.19
100210.61
100216.08
100222.61
100230.19
100238.7
100248.43
100259.28
100271.12
100283.95
100297.74
100312.17
100327.57
100343.74
100360.38
100377.62
100395.26
100413.11
100431.13
100449.1
100467.08
100485.06
100502.74
100519.93
100536.65
100552.87
100568.52
100583.51
100597.81
100611.38
100624.2
100636.26
100647.57
100658.25
100668.06
100677.14
100685.77
100693.5
100700.62
100707.57
100713.55
100719.38
100725.02
100730.14
100735.08
100740.19
100745
100749.97
100755.1
100760.4
100766.23
100772.49
100779.32
100786.87
100795.21
100803.56
100813.11
100824
100835.67
100847.39
100860.44
100874.04
100889.08
100168.57
100177.01
100182.55
100185.3
100186.89
100187.84
100188.3
100188.52
100188.72
100189.15
100190.05
100191.57
100193.84
100196.96
100201.01
100206.06
100212.17
100219.35
100227.58
100236.85
100247.28
100258.77
100271.26
100284.71
100299.05
100314.14
100330.13
100346.81
100363.88
100381.56
100399.52
100417.55
100435.83
100453.98
100472.01
100490.01
100507.59
100524.63
100541.25
100557.36
100572.85
100587.66
100601.77
100615.14
100627.77
100639.64
100650.77
100661.36
100670.87
100679.78
100688.36
100695.83
100702.76
100709.54
100715.75
100721.31
100726.99
100732.22
100737.1
100742.13
100746.99
100752.02
100757.22
100762.68
100768.63
100775.04
100782.04
100789.74
100798.11
100806.85
100816.76
100827.79
100839.53
100851.62
100865.12
100878.59
100893.44
100164.99
100170.96
100175.3
100177.66
100179.06
100179.88
100180.33
100180.66
100181.12
100181.92
100183.25
100185.26
100188.05
100191.72
100196.35
100201.99
100208.69
100216.44
100225.25
100235.13
100246.11
100258.13
100271.13
100285.08
100299.88
100315.48
100331.86
100348.84
100366.28
100384.2
100402.33
100420.52
100438.88
100457.15
100475.23
100493.22
100510.65
100527.54
100544.1
100560.11
100575.47
100590.14
100604.11
100617.35
100629.85
100641.6
100652.61
100663.21
100672.42
100681.21
100689.62
100697.38
100704.3
100710.76
100717.25
100722.91
100728.48
100733.7
100738.7
100743.77
100748.77
100753.92
100759.27
100764.93
100771.05
100777.64
100784.84
100792.7
100801.2
100810.28
100820.46
100831.59
100843.42
100855.87
100869.33
100883.42
100897.96
100161.23
100165.86
100169
100170.78
100171.86
100172.56
100173.07
100173.61
100174.39
100175.6
100177.39
100179.89
100183.21
100187.41
100192.58
100198.76
100205.98
100214.25
100223.57
100233.95
100245.4
100257.85
100271.28
100285.61
100300.78
100316.73
100333.38
100350.58
100368.23
100386.24
100404.47
100422.84
100441.19
100459.48
100477.54
100495.4
100512.86
100529.72
100546.13
100562.02
100577.26
100591.82
100605.68
100618.82
100631.23
100642.9
100653.77
100664.16
100673.74
100682.35
100690.48
100698.52
100705.58
100712.05
100718.44
100724.2
100729.79
100735.08
100740.24
100745.41
100750.56
100755.87
100761.39
100767.24
100773.53
100780.32
100787.7
100795.73
100804.41
100813.78
100824.15
100835.39
100847.34
100859.99
100873.52
100887.79
100157.79
100161.38
100163.63
100164.91
100165.75
100166.41
100167.06
100167.85
100168.97
100170.59
100172.83
100175.8
100179.6
100184.3
100189.95
100196.59
100204.26
100212.97
100222.71
100233.49
100245.3
100258.1
100271.83
100286.45
100301.88
100318.04
100334.86
100352.2
100369.96
100388.03
100406.29
100424.67
100443.01
100461.25
100479.24
100496.9
100514.37
100531.3
100547.56
100563.31
100578.45
100592.92
100606.69
100619.77
100632.12
100643.74
100654.59
100664.69
100674.63
100683.28
100691.46
100699.39
100706.49
100713.12
100719.5
100725.39
100731.08
100736.5
100741.82
100747.12
100752.45
100757.93
100763.63
100769.67
100776.15
100783.13
100790.69
100798.9
100807.76
100817.37
100827.91
100839.27
100851.34
100864.14
100877.76
100892.09
100154.84
100157.96
100159.57
100160.37
100160.95
100161.7
100162.55
100163.59
100165.06
100167.07
100169.72
100173.12
100177.35
100182.47
100188.53
100195.56
100203.59
100212.64
100222.7
100233.77
100245.84
100258.86
100272.8
100287.58
100303.15
100319.42
100336.3
100353.68
100371.46
100389.52
100407.76
100426.08
100444.35
100462.49
100480.39
100498.01
100515.33
100532.13
100548.32
100563.99
100579.05
100593.45
100607.18
100620.21
100632.54
100644.14
100655.02
100665.24
100675.02
100683.81
100692.14
100700.03
100707.24
100714.04
100720.49
100726.54
100732.36
100737.95
100743.45
100748.92
100754.43
100760.1
100766
100772.24
100778.91
100786.08
100793.83
100802.22
100811.28
100821.09
100831.78
100843.25
100855.44
100868.37
100882.05
100896.42
100152.49
100155.39
100156.91
100157.21
100157.61
100158.62
100159.6
100160.89
100162.73
100165.09
100168.09
100171.87
100176.46
100181.93
100188.31
100195.64
100203.94
100213.23
100223.51
100234.75
100246.97
100260.11
100274.14
100288.99
100304.59
100320.86
100337.71
100355.04
100372.75
100390.73
100408.87
100427.07
100445.23
100463.25
100481.05
100498.56
100515.72
100532.39
100548.52
100564.12
100579.12
100593.48
100607.18
100620.19
100632.52
100644.15
100655.09
100665.41
100675.13
100684.1
100692.56
100700.51
100707.88
100714.84
100721.44
100727.67
100733.66
100739.45
100745.13
100750.8
100756.52
100762.39
100768.5
100774.95
100781.82
100789.19
100797.13
100805.69
100814.94
100824.94
100835.76
100847.34
100859.64
100872.66
100886.4
100900.8
100151.15
100153.72
100154.88
100155.51
100156.36
100157.17
100158.12
100159.75
100161.98
100164.57
100167.86
100171.98
100176.87
100182.6
100189.23
100196.77
100205.25
100214.68
100225.06
100236.39
100248.65
100261.82
100275.83
100290.65
100306.19
100322.36
100339.1
100356.3
100373.86
100391.69
100409.68
100427.71
100445.71
100463.58
100481.24
100498.62
100515.64
100532.19
100548.25
100563.78
100578.73
100593.06
100606.74
100619.77
100632.13
100643.82
100654.85
100665.26
100675.05
100684.18
100692.79
100700.88
100708.43
100715.58
100722.36
100728.8
100734.99
100740.99
100746.89
100752.77
100758.71
100764.81
100771.14
100777.8
100784.88
100792.45
100800.58
100809.33
100818.75
100828.91
100839.85
100851.54
100863.93
100877.02
100890.8
100150.72
100153.06
100154.16
100155.09
100156.19
100157.13
100158.53
100160.43
100162.65
100165.34
100168.96
100173.37
100178.45
100184.37
100191.17
100198.84
100207.41
100216.89
100227.29
100238.6
100250.81
100263.91
100277.84
100292.53
100307.92
100323.92
100340.46
100357.47
100374.83
100392.45
100410.23
100428.06
100445.85
100463.54
100481.04
100498.26
100515.14
100531.58
100547.56
100563.03
100577.93
100592.25
100605.94
100619
100631.42
100643.19
100654.33
100664.87
100674.79
100684.1
100692.88
100701.14
100708.91
100716.27
100723.26
100729.93
100736.35
100742.59
100748.73
100754.84
100761.02
100767.35
100773.91
100780.79
100788.09
100795.86
100804.18
100813.11
100822.7
100833.01
100844.07
100855.84
100868.3
100881.45
100895.25
100151.41
100153.75
100154.87
100155.72
100156.87
100158.42
100160.28
100162.33
100164.57
100167.7
100171.56
100175.95
100181.1
100187.14
100194.02
100201.73
100210.3
100219.74
100230.08
100241.28
100253.37
100266.33
100280.1
100294.6
100309.76
100325.52
100341.8
100358.56
100375.67
100393.04
100410.56
100428.14
100445.7
100463.18
100480.49
100497.55
100514.28
100530.61
100546.5
100561.91
100576.79
100591.1
100604.82
100617.94
100630.43
100642.31
100653.59
100664.27
100674.35
100683.86
100692.85
100701.32
100709.32
100716.92
100724.15
100731.06
100737.74
100744.23
100750.63
100757
100763.42
100770
100776.8
100783.92
100791.43
100799.41
100807.93
100817.03
100826.79
100837.23
100848.39
100860.24
100872.77
100885.94
100899.75
100153.37
100155.74
100156.96
100157.99
100159.3
100160.85
100162.58
100164.79
100167.65
100171.09
100174.99
100179.46
100184.77
100190.8
100197.61
100205.26
100213.74
100223.12
100233.31
100244.31
100256.2
100269
100282.56
100296.8
100311.68
100327.11
100343.08
100359.55
100376.38
100393.46
100410.7
100427.99
100445.28
100462.54
100479.65
100496.54
100513.11
100529.32
100545.13
100560.49
100575.34
100589.66
100603.42
100616.6
100629.2
100641.21
100652.64
100663.49
100673.76
100683.49
100692.7
100701.41
100709.66
100717.52
100725.01
100732.2
100739.14
100745.91
100752.58
100759.22
100765.91
100772.75
100779.8
100787.16
100794.9
100803.09
100811.8
100821.09
100830.99
100841.57
100852.82
100864.74
100877.31
100890.51
100904.29
100156.66
100158.94
100160.2
100161.31
100162.67
100164.29
100166.22
100168.64
100171.59
100175.04
100179
100183.59
100188.88
100194.9
100201.68
100209.22
100217.61
100226.87
100236.81
100247.56
100259.27
100271.89
100285.17
100299.08
100313.59
100328.6
100344.22
100360.44
100376.97
100393.73
100410.65
100427.6
100444.59
100461.62
100478.55
100495.25
100511.65
100527.73
100543.46
100558.77
100573.61
100587.94
100601.75
100615.02
100627.73
100639.88
100651.48
100662.53
100673.01
100682.97
100692.42
100701.39
100709.92
100718.05
100725.83
100733.3
100740.54
100747.6
100754.56
100761.49
100768.47
100775.58
100782.9
100790.51
100798.48
100806.89
100815.8
100825.26
100835.32
100846.01
100857.35
100869.33
100881.94
100895.13
100908.89
100161.25
100163.23
100164.41
100165.53
100166.92
100168.62
100170.67
100173.17
100176.13
100179.58
100183.58
100188.19
100193.42
100199.33
100205.95
100213.37
100221.65
100230.69
100240.53
100251.31
100262.76
100274.86
100287.77
100301.28
100315.36
100329.93
100345.3
100361.26
100377.41
100393.83
100410.37
100426.9
100443.59
100460.46
100477.2
100493.7
100509.91
100525.84
100541.51
100556.79
100571.62
100585.97
100599.83
100613.2
100626.04
100638.34
100650.13
100661.37
100672.09
100682.29
100692.01
100701.26
100710.07
100718.5
100726.57
100734.36
100741.9
100749.28
100756.54
100763.78
100771.06
100778.46
100786.05
100793.93
100802.15
100810.78
100819.89
100829.53
100839.74
100850.55
100861.98
100874.01
100886.63
100899.81
100913.53
100166.64
100168.29
100169.38
100170.48
100171.88
100173.6
100175.69
100178.21
100181.19
100184.6
100188.6
100193.16
100198.3
100204.1
100210.59
100217.84
100225.84
100234.55
100244.19
100254.64
100265.75
100277.62
100290.17
100303.35
100317.2
100331.78
100346.77
100361.9
100377.56
100393.61
100409.73
100425.82
100442.35
100459.1
100475.6
100491.87
100507.83
100523.63
100539.29
100554.56
100569.36
100583.71
100597.64
100611.12
100624.1
100636.57
100648.54
100660.01
100670.97
100681.43
100691.43
100700.96
100710.08
100718.82
100727.22
100735.33
100743.2
100750.9
100758.5
100766.06
100773.66
100781.36
100789.25
100797.4
100805.88
100814.75
100824.07
100833.89
100844.25
100855.17
100866.68
100878.76
100891.39
100904.55
100172.58
100174.02
100175
100176.03
100177.37
100179.05
100181.09
100183.6
100186.62
100189.9
100193.9
100198.33
100203.36
100209
100215.31
100222.38
100230.19
100238.7
100248.03
100258.1
100268.88
100280.32
100292.34
100305.06
100318.6
100332.84
100347.37
100362.2
100377.53
100393.2
100409.03
100425.17
100441.4
100457.46
100473.61
100489.63
100505.36
100521.15
100536.81
100552.04
100566.82
100581.14
100595.14
100608.78
100621.89
100634.53
100646.71
100658.41
100669.61
100680.36
100690.64
100700.47
100709.9
100718.97
100727.71
100736.17
100744.39
100752.45
100760.39
100768.3
100776.23
100784.27
100792.47
100800.91
100809.66
100818.77
100828.31
100838.31
100848.82
100859.86
100871.45
100883.56
100896.2
100909.33
100179.06
100180.3
100181.11
100182
100183.25
100184.86
100186.82
100189.18
100192.11
100195.4
100199.16
100203.53
100208.41
100213.88
100219.97
100226.85
100234.48
100242.72
100251.69
100261.4
100271.81
100282.87
100294.57
100306.96
100320.08
100333.78
100347.84
100362.26
100377.08
100392.27
100407.88
100423.82
100439.69
100455.52
100471.45
100487.27
100503.11
100518.77
100533.99
100549.08
100563.86
100578.2
100592.34
100606.14
100619.4
100632.18
100644.58
100656.52
100667.99
100679.01
100689.6
100699.73
100709.5
100718.93
100728.03
100736.85
100745.44
100753.87
100762.19
100770.46
100778.76
100787.14
100795.67
100804.42
100813.45
100822.82
100832.58
100842.78
100853.44
100864.6
100876.26
100888.42
100901.05
100914.14
100185.92
100186.6
100187.18
100188.08
100189.23
100190.76
100192.65
100194.91
100197.6
100200.87
100204.39
100208.62
100213.36
100218.69
100224.61
100231.16
100238.37
100246.44
100255.08
100264.47
100274.5
100285.19
100296.52
100308.52
100321.17
100334.36
100348
100362.06
100376.54
100391.4
100406.66
100422.15
100437.66
100453.19
100468.77
100484.46
100500.22
100515.67
100530.88
100545.93
100560.71
100575.22
100589.39
100603.12
100616.53
100629.49
100642.11
100654.3
100666.03
100677.34
100688.24
100698.69
100708.83
100718.64
100728.12
100737.33
100746.31
100755.14
100763.86
100772.52
100781.2
100789.94
100798.82
100807.89
100817.22
100826.86
100836.86
100847.26
100858.09
100869.36
100881.1
100893.29
100905.93
100918.96
100193.12
100193.3
100193.43
100194.1
100195.12
100196.53
100198.31
100200.46
100203.06
100206.12
100209.57
100213.57
100218.13
100223.27
100229.02
100235.26
100242.07
100249.7
100258.1
100267.23
100276.89
100287.17
100298.11
100309.69
100321.88
100334.61
100347.83
100361.51
100375.61
100390.1
100404.93
100420.01
100435.21
100450.51
100465.92
100481.43
100496.93
100512.24
100527.37
100542.34
100557.12
100571.69
100585.91
100599.76
100613.34
100626.53
100639.3
100651.66
100663.67
100675.29
100686.51
100697.34
100707.87
100718.06
100727.93
100737.56
100746.95
100756.21
100765.36
100774.43
100783.51
100792.65
100801.89
100811.31
100820.96
100830.88
100841.13
100851.73
100862.73
100874.13
100885.95
100898.18
100910.8
100923.79
100200.07
100199.78
100199.68
100200.06
100200.89
100202.14
100203.77
100205.79
100208.24
100211.11
100214.42
100218.23
100222.57
100227.47
100232.94
100238.97
100245.62
100252.77
100260.74
100269.47
100278.88
100288.75
100299.27
100310.43
100322.18
100334.47
100347.27
100360.54
100374.24
100388.33
100402.77
100417.47
100432.37
100447.42
100462.59
100477.87
100493.14
100508.32
100523.39
100538.33
100553.12
100567.7
100581.99
100595.96
100609.66
100623.05
100636.03
100648.65
100660.94
100672.82
100684.38
100695.65
100706.6
100717.17
100727.46
100737.51
100747.33
100757.04
100766.65
100776.17
100785.68
100795.22
100804.86
100814.64
100824.61
100834.84
100845.34
100856.17
100867.34
100878.87
100890.77
100903.03
100915.65
100928.58
100206.75
100205.98
100205.59
100205.73
100206.36
100207.43
100208.9
100210.76
100213.04
100215.74
100218.87
100222.48
100226.6
100231.24
100236.44
100242.22
100248.6
100255.57
100263.1
100271.23
100280.31
100289.86
100299.98
100310.71
100322.03
100333.89
100346.27
100359.12
100372.41
100386.11
100400.16
100414.51
100429.09
100443.86
100458.78
100473.82
100488.9
100503.94
100518.93
100533.82
100548.59
100563.19
100577.55
100591.66
100605.51
100619.08
100632.3
100645.2
100657.78
100670.02
100681.97
100693.62
100704.86
100715.84
100726.67
100737.17
100747.46
100757.65
100767.73
100777.68
100787.65
100797.63
100807.68
100817.83
100828.16
100838.69
100849.47
100860.52
100871.87
100883.54
100895.53
100907.84
100920.45
100933.33
100213.05
100211.77
100211.06
100210.95
100211.39
100212.27
100213.58
100215.28
100217.38
100219.9
100222.85
100226.25
100230.15
100234.55
100239.48
100244.97
100251.05
100257.73
100265
100272.71
100281.18
100290.48
100300.21
100310.51
100321.4
100332.83
100344.78
100357.21
100370.1
100383.4
100397.08
100411.07
100425.33
100439.81
100454.48
100469.29
100484.17
100499.08
100513.97
100528.82
100543.57
100558.19
100572.63
100586.86
100600.87
100614.63
100628.11
100641.3
100654.19
100666.79
100679.11
100691.15
100702.85
100714.32
100725.49
100736.47
100747.35
100758.07
100768.57
100778.96
100789.4
100799.82
100810.31
100820.86
100831.55
100842.41
100853.47
100864.76
100876.31
100888.12
100900.2
100912.56
100925.17
100938
100218.69
100216.97
100215.95
100215.62
100215.86
100216.58
100217.71
100219.25
100221.19
100223.53
100226.29
100229.49
100233.16
100237.31
100241.99
100247.19
100252.96
100259.32
100266.26
100273.7
100281.67
100290.55
100299.9
100309.79
100320.25
100331.26
100342.78
100354.8
100367.29
100380.2
100393.49
100407.13
100421.07
100435.27
100449.67
100464.25
100478.95
100493.72
100508.52
100523.3
100538.04
100552.69
100567.21
100581.57
100595.75
100609.72
100623.45
100636.94
100650.16
100663.13
100675.84
100688.28
100700.44
100712.38
100724.06
100735.61
100746.96
100758.09
100769.06
100780.06
100790.92
100801.76
100812.69
100823.65
100834.74
100845.95
100857.31
100868.84
100880.59
100892.56
100904.75
100917.15
100929.77
100942.56
100223.36
100221.35
100220.11
100219.6
100219.68
100220.25
100221.24
100222.62
100224.4
100226.56
100229.14
100232.14
100235.59
100239.51
100243.92
100248.85
100254.32
100260.34
100266.93
100274.07
100281.72
100290.06
100299.08
100308.55
100318.58
100329.16
100340.27
100351.88
100363.96
100376.48
100389.4
100402.69
100416.31
100430.21
100444.36
100458.72
100473.23
100487.86
100502.56
100517.3
100532.03
100546.71
100561.32
100575.82
100590.17
100604.36
100618.36
100632.14
100645.71
100659.05
100672.16
100685.04
100697.67
100710.08
100722.28
100734.32
100746.17
100757.84
100769.4
100780.82
100792.13
100803.55
100814.84
100826.18
100837.66
100849.22
100860.92
100872.72
100884.68
100896.81
100909.12
100921.58
100934.21
100946.96
100227.06
100224.86
100223.49
100222.84
100222.79
100223.23
100224.08
100225.33
100226.96
100228.97
100231.37
100234.18
100237.42
100241.11
100245.27
100249.93
100255.1
100260.81
100267.05
100273.81
100281.15
100289.1
100297.7
100306.77
100316.39
100326.54
100337.24
100348.44
100360.12
100372.26
100384.81
100397.76
100411.05
100424.67
100438.56
100452.7
100467.03
100481.52
100496.13
100510.81
100525.54
100540.27
100554.96
100569.6
100584.16
100598.58
100612.85
100626.95
100640.87
100654.6
100668.14
100681.46
100694.56
100707.45
100720.16
100732.7
100745.07
100757.27
100769.34
100781.3
100793.21
100805.04
100816.74
100828.53
100840.32
100852.21
100864.21
100876.3
100888.51
100900.83
100913.27
100925.81
100938.45
100951.18
100229.91
100227.57
100226.08
100225.32
100225.17
100225.49
100226.24
100227.37
100228.87
100230.74
100232.98
100235.61
100238.65
100242.12
100246.04
100250.43
100255.32
100260.72
100266.65
100273.12
100280.09
100287.6
100295.69
100304.41
100313.65
100323.41
100333.7
100344.51
100355.8
100367.55
100379.74
100392.35
100405.33
100418.67
100432.31
100446.23
100460.39
100474.74
100489.25
100503.88
100518.6
100533.37
100548.15
100562.91
100577.66
100592.32
100606.88
100621.32
100635.63
100649.78
100663.78
100677.58
100691.14
100704.51
100717.73
100730.78
100743.67
100756.4
100768.99
100781.46
100793.89
100806.23
100818.46
100830.62
100842.77
100855.02
100867.24
100879.6
100892.03
100904.53
100917.13
100929.76
100942.45
100955.17
100231.73
100229.38
100227.84
100227.01
100226.83
100227.14
100227.83
100228.86
100230.24
100231.97
100234.06
100236.51
100239.36
100242.61
100246.29
100250.43
100255.04
100260.14
100265.77
100271.94
100278.54
100285.57
100293.22
100301.61
100310.45
100319.79
100329.67
100340.09
100350.99
100362.37
100374.21
100386.48
100399.17
100412.23
100425.64
100439.36
100453.36
100467.59
100482.02
100496.63
100511.36
100526.19
100541.07
100555.97
100570.84
100585.73
100600.57
100615.32
100629.98
100644.51
100659
100673.34
100687.43
100701.3
100715.01
100728.59
100742
100755.25
100768.36
100781.33
100794.24
100807.1
100819.79
100832.35
100844.99
100857.58
100870.11
100882.72
100895.35
100908.03
100920.7
100933.43
100946.17
100958.9
100232.5
100230.29
100228.82
100228.05
100227.83
100228.06
100228.66
100229.6
100230.88
100232.49
100234.44
100236.74
100239.41
100242.47
100245.94
100249.83
100254.17
100258.99
100264.3
100270.12
100276.4
100283.07
100290.37
100298.37
100306.8
100315.77
100325.27
100335.28
100345.8
100356.81
100368.3
100380.26
100392.65
100405.45
100418.63
100432.16
100446.01
100460.14
100474.52
100489.11
100503.89
100518.81
100533.83
100548.92
100564.01
100579.14
100594.26
100609.32
100624.32
100639.19
100653.94
100668.73
100683.42
100697.83
100712.05
100726.14
100740.07
100753.83
100767.45
100780.92
100794.3
100807.65
100820.77
100833.75
100846.79
100859.75
100872.68
100885.56
100898.42
100911.25
100924.03
100936.84
100949.62
100962.35
100232.39
100230.4
100229.02
100228.26
100227.98
100228.14
100228.69
100229.58
100230.79
100232.31
100234.15
100236.32
100238.84
100241.72
100244.98
100248.65
100252.75
100257.3
100262.32
100267.82
100273.77
100280.12
100287.1
100294.69
100302.75
100311.38
100320.52
100330.14
100340.29
100350.95
100362.11
100373.75
100385.86
100398.4
100411.36
100424.7
100438.41
100452.44
100466.76
100481.35
100496.16
100511.17
100526.33
100541.62
100557
100572.42
100587.85
100603.27
100618.65
100633.97
100649.08
100664.18
100679.23
100694.15
100708.88
100723.47
100737.91
100752.17
100766.28
100780.25
100794.1
100807.9
100821.43
100834.84
100848.24
100861.56
100874.8
100887.96
100901.05
100914.07
100927.05
100939.94
100952.76
100965.49
100231.46
100229.75
100228.47
100227.72
100227.51
100227.72
100228.26
100229.11
100230.25
100231.69
100233.43
100235.47
100237.84
100240.55
100243.62
100247.07
100250.93
100255.21
100259.94
100265.14
100270.74
100276.75
100283.47
100290.7
100298.39
100306.62
100315.39
100324.67
100334.47
100344.8
100355.64
100366.98
100378.81
100391.11
100403.86
100417.04
100430.61
100444.56
100458.84
100473.43
100488.28
100503.38
100518.68
100534.15
100549.75
100565.44
100581.18
100596.93
100612.69
100628.43
100644.09
100659.69
100675.09
100690.34
100705.54
100720.63
100735.56
100750.3
100764.88
100779.33
100793.65
100807.84
100821.8
100835.63
100849.39
100863.03
100876.57
100889.99
100903.31
100916.53
100929.66
100942.67
100955.55
100968.3
100212.86
100202.11
100187.72
100174.08
100165.34
100160.79
100157.1
100153.26
100149.98
100224.49
100214.62
100194.63
100180.56
100172.74
100168.69
100165.49
100162.05
100159.36
100220.06
100213.76
100197.03
100186.46
100180.03
100176.74
100174.12
100171.08
100168.8
100217.65
100212.96
100201
100192.99
100188.02
100185.42
100183.25
100180.54
100178.56
100216.98
100214.31
100206.12
100199.78
100195.99
100194.08
100192.39
100190.04
100188.35
100216.34
100216.39
100210.6
100206.12
100203.6
100202.51
100201.39
100199.47
100198.08
100215.17
100217.97
100214.27
100211.98
100210.91
100210.77
100210.29
100208.86
100207.78
100214.25
100218.87
100217.56
100217.63
100218.09
100218.97
100219.18
100218.26
100217.51
100213.9
100219.9
100221.1
100223.3
100225.27
100227.19
100228.11
100227.7
100227.29
100213.93
100221.51
100224.99
100229.06
100232.51
100235.48
100237.1
100237.2
100237.12
100214.34
100223.62
100229.11
100234.99
100239.88
100243.88
100246.19
100246.8
100247.04
100215.23
100226.12
100233.54
100241.15
100247.45
100252.43
100255.41
100256.5
100257.05
100216.74
100229.15
100238.41
100247.63
100255.25
100261.17
100264.78
100266.33
100267.17
100218.93
100232.8
100243.78
100254.49
100263.35
100270.13
100274.33
100276.3
100277.41
100221.88
100237.18
100249.7
100261.77
100271.76
100279.32
100284.07
100286.43
100287.77
100225.72
100242.33
100256.2
100269.51
100280.51
100288.78
100294.01
100296.72
100298.28
100230.52
100248.28
100263.33
100277.74
100289.63
100298.52
100304.16
100307.18
100308.94
100236.29
100255.02
100271.13
100286.49
100299.14
100308.55
100314.55
100317.83
100319.75
100243.07
100262.57
100279.67
100295.77
100309.03
100318.87
100325.17
100328.66
100330.72
100250.83
100271.31
100288.97
100305.58
100319.33
100329.5
100336.02
100339.68
100341.85
100259.81
100280.71
100298.87
100315.92
100330.01
100340.42
100347.1
100350.89
100353.15
100269.78
100290.8
100309.41
100326.78
100341.09
100351.63
100358.4
100362.29
100364.61
100280.63
100301.71
100320.63
100338.16
100352.56
100363.13
100369.94
100373.87
100376.22
100292.38
100313.47
100332.51
100350.03
100364.4
100374.91
100381.69
100385.63
100388
100305
100326.02
100345.01
100362.38
100376.6
100386.96
100393.65
100397.56
100399.92
100318.72
100339.36
100358.11
100375.19
100389.14
100399.27
100405.81
100409.64
100411.97
100333.3
100353.37
100371.76
100388.42
100401.99
100411.82
100418.14
100421.87
100424.14
100348.46
100367.98
100385.9
100402.04
100415.12
100424.56
100430.63
100434.21
100436.41
100364.3
100383.15
100400.49
100415.99
100428.49
100437.49
100443.25
100446.65
100448.75
100380.74
100398.8
100415.46
100430.23
100442.07
100450.55
100455.96
100459.15
100461.14
100397.61
100414.83
100430.74
100444.7
100455.81
100463.72
100468.73
100471.69
100473.55
100414.84
100431.17
100446.26
100459.34
100469.66
100476.94
100481.54
100484.24
100485.95
100432.36
100447.75
100461.94
100474.08
100483.56
100490.19
100494.32
100496.75
100498.3
100450.05
100464.42
100477.68
100488.86
100497.47
100503.4
100507.06
100509.19
100510.58
100467.71
100481.05
100493.4
100503.61
100511.32
100516.54
100519.7
100521.52
100522.74
100485.22
100497.57
100509.04
100518.25
100525.05
100529.55
100532.2
100533.71
100534.75
100502.56
100513.94
100524.49
100532.71
100538.6
100542.37
100544.52
100545.72
100546.58
100519.62
100530.05
100539.68
100546.93
100551.91
100554.98
100556.62
100557.51
100558.19
100536.28
100545.8
100554.53
100560.83
100564.93
100567.3
100568.46
100569.05
100569.55
100552.46
100561.11
100568.94
100574.34
100577.61
100579.31
100580.01
100580.31
100580.64
100568.1
100575.88
100582.87
100587.41
100589.89
100590.96
100591.22
100591.25
100591.43
100583.1
100590.07
100596.25
100600
100601.74
100602.23
100602.08
100601.87
100601.9
100597.42
100603.61
100609.05
100612.06
100613.12
100613.07
100612.56
100612.13
100612.03
100611.02
100616.47
100621.22
100623.55
100624.01
100623.49
100622.65
100622.03
100621.82
100623.87
100628.62
100632.74
100634.47
100634.39
100633.45
100632.34
100631.56
100631.26
100635.96
100640.06
100643.59
100644.79
100644.25
100642.96
100641.63
100640.71
100640.34
100647.28
100650.79
100653.77
100654.51
100653.58
100652.01
100650.51
100649.51
100649.08
100657.87
100660.81
100663.3
100663.64
100662.41
100660.62
100659
100657.94
100657.49
100667.7
100670.14
100672.19
100672.21
100670.73
100668.8
100667.11
100666.04
100665.58
100676.81
100678.81
100680.47
100680.23
100678.59
100676.58
100674.87
100673.81
100673.37
100685.27
100686.86
100688.18
100687.73
100686.01
100683.98
100682.31
100681.3
100680.89
100693.04
100694.3
100695.35
100694.77
100693.02
100691.04
100689.44
100688.52
100688.16
100700.17
100701.18
100702.02
100701.37
100699.67
100697.79
100696.32
100695.51
100695.23
100706.83
100707.59
100708.26
100707.6
100706
100704.28
100702.98
100702.31
100702.12
100712.92
100713.54
100714.1
100713.5
100712.06
100710.56
100709.47
100708.96
100708.88
100718.64
100719.12
100719.62
100719.13
100717.92
100716.68
100715.82
100715.5
100715.54
100723.87
100724.35
100724.87
100724.54
100723.61
100722.68
100722.1
100721.98
100722.16
100728.81
100729.34
100729.93
100729.82
100729.22
100728.63
100728.34
100728.45
100728.78
100733.69
100734.2
100734.88
100735.03
100734.79
100734.58
100734.62
100734.97
100735.44
100738.28
100738.92
100739.78
100740.23
100740.4
100740.6
100740.98
100741.58
100742.2
100742.9
100743.69
100744.73
100745.51
100746.12
100746.75
100747.48
100748.33
100749.12
100747.59
100748.55
100749.81
100750.95
100752.01
100753.09
100754.19
100755.3
100756.24
100752.48
100753.59
100755.12
100756.63
100758.16
100759.69
100761.16
100762.53
100763.63
100757.54
100759.02
100760.75
100762.62
100764.63
100766.62
100768.45
100770.08
100771.33
100762.96
100764.66
100766.72
100769.01
100771.5
100773.95
100776.13
100778
100779.4
100768.85
100770.8
100773.18
100775.89
100778.85
100781.73
100784.25
100786.35
100787.89
100775.29
100777.52
100780.23
100783.33
100786.74
100790.03
100792.87
100795.19
100796.84
100782.36
100784.85
100787.91
100791.42
100795.23
100798.89
100802.03
100804.55
100806.3
100790.29
100792.81
100796.3
100800.19
100804.38
100808.37
100811.77
100814.45
100816.29
100798.81
100802.01
100805.64
100809.73
100814.22
100818.5
100822.11
100824.93
100826.84
100808.11
100811.91
100815.66
100819.98
100824.75
100829.29
100833.07
100836
100837.97
100818.42
100822.22
100826.32
100830.97
100836
100840.74
100844.66
100847.67
100849.66
100829.38
100833.4
100837.86
100842.75
100847.98
100852.86
100856.87
100859.92
100861.93
100841.73
100845.76
100850.3
100855.32
100860.67
100865.63
100869.68
100872.74
100874.74
100854.71
100858.84
100863.49
100868.62
100874.02
100879.01
100883.06
100886.09
100888.06
100868.53
100872.66
100877.41
100882.58
100887.99
100892.95
100896.95
100899.93
100901.84
100883
100887.18
100891.98
100897.16
100902.52
100898.15
100142.16
100131.54
100123.21
100116.88
100112.14
100108.67
100106.17
100104.47
100103.49
100103.14