/*--------------------------------*- C++ -*----------------------------------*\
| =========                 |                                                 |
| \\      /  F ield         | OpenFOAM: The Open Source CFD Toolbox           |
|  \\    /   O peration     | Version:  2406                                  |
|   \\  /    A nd           | Website:  www.openfoam.com                      |
|    \\/     M anipulation  |                                                 |
\*---------------------------------------------------------------------------*/
FoamFile
{
    version     2.0;
    format      ascii;
    arch        "LSB;label=32;scalar=64";
    class       volScalarField;
    location    "0.006";
    object      rho;
}
// * * * * * * * * * * * * * * * * * * * * * * * * * * * * * * * * * * * * * //

dimensions      [1 -3 0 0 0 0 0];

internalField   nonuniform List<scalar> 
8950
(
1.1926569
1.1928622
1.192968
1.1930035
1.1930138
1.1930101
1.1929953
1.1929744
1.1929479
1.1929157
1.1928802
1.1928445
1.1928114
1.1927827
1.1927604
1.1927468
1.1927435
1.1927523
1.1927739
1.1928034
1.1928497
1.1929112
1.1929853
1.1930722
1.1931698
1.193277
1.1933981
1.1935271
1.1936626
1.1938043
1.1939503
1.1940983
1.1942469
1.1943945
1.1945407
1.1946834
1.194821
1.1949522
1.1950762
1.1951933
1.1953031
1.1954055
1.1955004
1.1955879
1.1956684
1.1957421
1.1958095
1.1958716
1.1959277
1.1959781
1.1960249
1.1960659
1.1961021
1.1961369
1.1961652
1.1961932
1.1962169
1.1962378
1.1962603
1.1962826
1.1963032
1.1963262
1.1963514
1.1963772
1.1964094
1.1964464
1.1964893
1.1965399
1.1966018
1.1966602
1.1967317
1.1968212
1.1969168
1.1970198
1.1971351
1.1972646
1.1974025
1.1975485
1.1921074
1.1923025
1.1924288
1.1924858
1.1925129
1.1925244
1.1925246
1.1925165
1.1925023
1.1924847
1.1924668
1.1924513
1.1924404
1.1924357
1.1924388
1.1924512
1.1924743
1.1925089
1.1925544
1.19261
1.1926799
1.1927626
1.1928565
1.1929616
1.1930773
1.1931994
1.193332
1.1934723
1.1936163
1.1937657
1.1939175
1.1940695
1.194221
1.1943692
1.1945151
1.1946586
1.1947964
1.1949268
1.1950502
1.195167
1.195277
1.1953797
1.1954753
1.1955639
1.1956458
1.195721
1.1957902
1.1958544
1.1959117
1.1959634
1.1960125
1.1960534
1.1960901
1.1961269
1.1961542
1.1961819
1.1962089
1.196231
1.1962522
1.1962763
1.1962974
1.1963209
1.1963466
1.1963743
1.1964082
1.196447
1.1964923
1.1965457
1.1966078
1.1966699
1.1967469
1.1968394
1.1969408
1.1970436
1.1971635
1.1972909
1.1974366
1.1914427
1.1916207
1.1917497
1.1918317
1.1918891
1.1919307
1.1919599
1.1919803
1.1919951
1.1920076
1.1920207
1.1920367
1.1920572
1.1920837
1.1921177
1.1921602
1.192212
1.1922735
1.1923445
1.1924253
1.1925175
1.1926199
1.1927318
1.1928528
1.1929818
1.1931171
1.1932606
1.1934096
1.1935602
1.1937154
1.1938708
1.1940243
1.1941781
1.1943275
1.1944731
1.1946164
1.1947533
1.1948825
1.1950059
1.1951231
1.1952336
1.1953373
1.1954341
1.1955242
1.1956078
1.1956849
1.1957563
1.1958233
1.1958809
1.1959345
1.1959866
1.1960278
1.1960652
1.1961031
1.1961359
1.1961627
1.1961927
1.1962183
1.196241
1.1962661
1.1962898
1.196316
1.1963443
1.1963759
1.196413
1.1964553
1.1965043
1.196561
1.196625
1.1966933
1.196776
1.1968714
1.196975
1.1970837
1.1972102
1.1973374
1.1974819
1.1907745
1.1909394
1.1910748
1.1911784
1.1912628
1.1913331
1.1913924
1.191444
1.1914912
1.1915367
1.1915827
1.1916311
1.1916834
1.1917409
1.1918047
1.1918757
1.1919544
1.1920408
1.192135
1.1922376
1.1923491
1.1924687
1.1925959
1.1927302
1.1928708
1.1930169
1.1931686
1.1933235
1.1934801
1.193639
1.193797
1.1939525
1.1941073
1.1942584
1.1944052
1.1945492
1.1946857
1.1948148
1.1949398
1.1950588
1.1951711
1.1952767
1.1953757
1.1954682
1.1955544
1.1956343
1.1957084
1.1957791
1.195837
1.1958926
1.1959461
1.195994
1.1960339
1.1960708
1.1961097
1.1961401
1.1961711
1.1961989
1.1962253
1.196253
1.1962805
1.1963103
1.1963424
1.1963782
1.1964192
1.1964656
1.1965185
1.1965788
1.1966462
1.1967204
1.1968076
1.1969056
1.1970117
1.1971262
1.1972534
1.1973892
1.1975312
1.1902325
1.190386
1.190516
1.1906258
1.1907229
1.1908104
1.1908906
1.1909657
1.1910382
1.1911101
1.1911831
1.1912584
1.1913374
1.1914211
1.1915103
1.1916054
1.1917068
1.1918145
1.1919286
1.1920495
1.1921773
1.1923115
1.1924517
1.1925975
1.192748
1.1929027
1.1930611
1.1932214
1.1933827
1.1935443
1.1937049
1.1938641
1.1940201
1.1941731
1.1943215
1.194466
1.1946052
1.194737
1.1948635
1.1949848
1.1950995
1.1952078
1.1953096
1.1954051
1.1954943
1.195577
1.1956533
1.1957258
1.1957909
1.1958476
1.195901
1.1959552
1.1959996
1.1960393
1.1960795
1.1961136
1.1961472
1.1961784
1.1962089
1.1962402
1.1962718
1.1963055
1.1963418
1.196382
1.1964271
1.1964777
1.1965347
1.1965988
1.1966702
1.1967495
1.1968406
1.1969414
1.1970505
1.1971689
1.1972982
1.1974372
1.1898273
1.1899652
1.1900847
1.1901917
1.1902914
1.1903863
1.1904777
1.1905668
1.1906555
1.1907451
1.1908368
1.1909315
1.1910302
1.1911335
1.1912418
1.1913554
1.1914743
1.1915987
1.1917285
1.1918638
1.1920047
1.1921507
1.1923014
1.1924565
1.1926152
1.192777
1.1929411
1.1931063
1.1932719
1.1934369
1.1936005
1.1937623
1.1939208
1.194076
1.1942265
1.194372
1.1945146
1.1946511
1.1947799
1.1949035
1.1950212
1.1951325
1.1952375
1.1953362
1.1954286
1.1955146
1.195594
1.1956672
1.1957395
1.1957997
1.1958567
1.1959124
1.1959601
1.1960043
1.1960469
1.1960852
1.1961225
1.1961577
1.1961926
1.1962279
1.1962639
1.196302
1.1963428
1.1963875
1.196437
1.1964919
1.1965532
1.1966214
1.196697
1.196781
1.1968756
1.1969794
1.1970917
1.1972133
1.1973449
1.1974858
1.189531
1.1896573
1.1897651
1.1898634
1.189959
1.1900555
1.1901513
1.1902469
1.1903444
1.1904444
1.1905474
1.1906544
1.1907659
1.1908823
1.1910035
1.1911298
1.1912611
1.1913973
1.1915384
1.1916841
1.1918346
1.1919894
1.1921481
1.1923103
1.1924753
1.1926427
1.1928115
1.192981
1.1931504
1.1933188
1.1934856
1.1936501
1.1938114
1.1939692
1.1941226
1.1942714
1.1944164
1.1945556
1.1946878
1.1948147
1.1949357
1.1950504
1.1951588
1.195261
1.1953569
1.1954464
1.1955294
1.1956071
1.195681
1.1957459
1.1958074
1.1958654
1.1959173
1.1959661
1.1960123
1.1960552
1.1960967
1.1961365
1.196176
1.1962159
1.1962567
1.1962995
1.1963451
1.1963945
1.1964486
1.1965081
1.1965738
1.1966463
1.1967262
1.1968145
1.1969126
1.1970195
1.1971349
1.1972594
1.1973932
1.1975358
1.1893154
1.1894318
1.1895322
1.1896193
1.1897081
1.1898044
1.1898994
1.1899966
1.1900983
1.1902032
1.190312
1.1904257
1.1905445
1.1906684
1.1907974
1.1909314
1.1910702
1.1912138
1.1913619
1.1915144
1.1916712
1.1918319
1.191996
1.1921632
1.1923327
1.1925041
1.1926765
1.1928494
1.1930218
1.1931933
1.1933629
1.1935301
1.1936942
1.1938547
1.1940112
1.1941633
1.1943108
1.1944527
1.1945885
1.1947189
1.1948433
1.1949616
1.1950736
1.1951793
1.1952788
1.195372
1.1954591
1.1955409
1.1956174
1.1956873
1.1957533
1.1958149
1.1958715
1.195925
1.1959756
1.1960234
1.1960697
1.1961145
1.196159
1.1962039
1.1962498
1.1962977
1.1963484
1.1964028
1.1964617
1.1965259
1.1965961
1.196673
1.1967572
1.1968497
1.1969512
1.1970612
1.1971796
1.1973067
1.1974426
1.1975867
1.1891616
1.1892667
1.1893561
1.1894405
1.1895291
1.1896175
1.1897076
1.189805
1.1899083
1.1900135
1.1901242
1.1902409
1.1903629
1.1904902
1.1906229
1.1907606
1.1909032
1.1910504
1.1912021
1.1913581
1.1915182
1.1916821
1.1918493
1.1920194
1.1921916
1.1923654
1.1925402
1.1927153
1.19289
1.1930637
1.1932356
1.1934051
1.1935716
1.1937347
1.1938939
1.1940489
1.1941991
1.194344
1.1944831
1.1946169
1.1947446
1.1948664
1.194982
1.1950914
1.1951947
1.1952919
1.1953832
1.1954691
1.1955496
1.1956244
1.1956949
1.195761
1.1958227
1.1958812
1.1959368
1.1959899
1.1960414
1.1960916
1.1961415
1.1961917
1.196243
1.1962962
1.1963522
1.1964118
1.1964757
1.1965448
1.1966197
1.1967011
1.1967896
1.196886
1.196991
1.197104
1.1972252
1.1973547
1.1974923
1.1890516
1.1891469
1.1892289
1.1893106
1.1893957
1.1894798
1.1895697
1.1896655
1.1897641
1.1898665
1.1899775
1.1900949
1.1902167
1.1903445
1.1904779
1.1906164
1.1907596
1.1909076
1.1910601
1.1912169
1.1913778
1.1915427
1.1917109
1.191882
1.1920552
1.1922299
1.1924057
1.1925819
1.1927579
1.192933
1.1931064
1.1932776
1.1934459
1.193611
1.1937725
1.1939299
1.1940826
1.1942302
1.1943724
1.1945092
1.1946403
1.1947655
1.1948847
1.1949979
1.1951051
1.1952064
1.1953021
1.1953925
1.1954775
1.1955573
1.1956327
1.1957038
1.1957709
1.1958348
1.1958958
1.1959545
1.1960115
1.1960674
1.196123
1.1961789
1.1962359
1.1962947
1.1963562
1.1964211
1.1964902
1.1965643
1.1966439
1.1967298
1.1968226
1.1969229
1.1970312
1.1971472
1.197271
1.1974025
1.1975417
1.1889768
1.1890655
1.1891415
1.1892159
1.1892955
1.1893809
1.1894707
1.1895629
1.1896565
1.1897592
1.1898688
1.1899821
1.1901014
1.1902275
1.1903593
1.1904962
1.1906378
1.1907843
1.1909354
1.1910909
1.1912507
1.1914147
1.1915823
1.1917527
1.1919253
1.1920995
1.1922749
1.1924512
1.1926275
1.192803
1.1929771
1.193149
1.1933184
1.193485
1.1936482
1.1938075
1.1939623
1.1941122
1.1942572
1.1943969
1.1945311
1.1946596
1.1947824
1.1948994
1.1950106
1.1951162
1.1952165
1.1953116
1.1954014
1.1954864
1.195567
1.1956435
1.1957162
1.1957857
1.1958525
1.1959171
1.19598
1.1960418
1.1961033
1.1961652
1.196228
1.1962926
1.1963597
1.1964302
1.1965046
1.1965837
1.1966682
1.1967586
1.1968556
1.1969597
1.1970712
1.1971901
1.1973163
1.1974497
1.1975902
1.1889307
1.1890139
1.1890853
1.1891561
1.1892319
1.1893118
1.1893945
1.1894831
1.1895787
1.1896803
1.1897857
1.1898956
1.1900128
1.1901353
1.1902631
1.1903963
1.1905347
1.1906784
1.1908265
1.1909787
1.1911358
1.191298
1.1914638
1.1916321
1.1918027
1.1919749
1.1921487
1.1923241
1.1924998
1.1926749
1.1928487
1.1930205
1.1931901
1.1933575
1.1935219
1.1936826
1.193839
1.1939909
1.1941382
1.1942806
1.1944177
1.1945494
1.1946756
1.1947965
1.1949118
1.1950218
1.1951267
1.1952266
1.1953215
1.1954118
1.1954979
1.19558
1.1956585
1.1957339
1.1958067
1.1958773
1.1959464
1.1960144
1.196082
1.1961499
1.1962188
1.1962893
1.1963623
1.1964383
1.1965181
1.1966024
1.1966917
1.1967867
1.1968879
1.1969957
1.1971104
1.1972319
1.1973604
1.1974955
1.1976371
1.1889089
1.1889858
1.1890525
1.1891191
1.1891903
1.1892658
1.1893456
1.1894315
1.1895232
1.18962
1.1897214
1.1898284
1.1899412
1.1900596
1.1901835
1.1903123
1.190447
1.1905871
1.1907305
1.1908782
1.1910324
1.1911921
1.1913546
1.1915196
1.1916868
1.1918553
1.1920266
1.192201
1.1923753
1.1925491
1.1927218
1.1928924
1.1930614
1.1932292
1.1933943
1.1935558
1.1937133
1.1938667
1.194016
1.1941608
1.1943007
1.1944354
1.194565
1.1946896
1.194809
1.1949234
1.195033
1.1951378
1.1952379
1.1953336
1.1954253
1.1955132
1.1955976
1.1956791
1.195758
1.1958349
1.1959102
1.1959845
1.1960584
1.1961326
1.1962076
1.1962843
1.1963631
1.1964449
1.1965302
1.1966197
1.1967139
1.1968134
1.1969187
1.1970301
1.1971479
1.1972721
1.1974025
1.1975391
1.1976816
1.1889076
1.1889762
1.1890373
1.1890994
1.1891663
1.1892379
1.1893144
1.1893963
1.1894836
1.1895758
1.1896732
1.1897759
1.1898839
1.189997
1.1901154
1.1902396
1.19037
1.1905051
1.1906452
1.1907918
1.1909417
1.1910945
1.1912523
1.1914128
1.1915755
1.1917396
1.1919092
1.1920822
1.1922537
1.1924255
1.192596
1.192764
1.1929319
1.1931003
1.1932658
1.1934277
1.1935855
1.1937398
1.1938911
1.1940382
1.1941804
1.1943179
1.1944507
1.194579
1.1947024
1.1948212
1.1949354
1.1950452
1.1951505
1.1952517
1.1953491
1.1954428
1.1955332
1.1956209
1.1957061
1.1957893
1.195871
1.1959517
1.196032
1.1961126
1.1961939
1.1962767
1.1963616
1.1964492
1.19654
1.1966348
1.1967339
1.1968379
1.1969472
1.1970622
1.1971831
1.1973097
1.1974421
1.19758
1.1977232
1.1889184
1.1889791
1.1890349
1.1890927
1.1891554
1.1892229
1.1892954
1.1893733
1.1894564
1.1895437
1.1896367
1.1897347
1.1898376
1.1899457
1.190059
1.190178
1.1903021
1.1904308
1.1905665
1.1907074
1.190852
1.1910012
1.1911542
1.1913106
1.1914707
1.1916355
1.1918015
1.1919658
1.192133
1.1923022
1.1924695
1.1926344
1.1928024
1.1929714
1.1931364
1.1932979
1.1934551
1.1936102
1.1937636
1.1939128
1.1940572
1.194197
1.1943328
1.1944648
1.1945921
1.1947151
1.194834
1.1949486
1.1950592
1.1951659
1.1952689
1.1953684
1.1954649
1.1955588
1.1956503
1.19574
1.1958281
1.1959154
1.1960022
1.1960892
1.196177
1.196266
1.196357
1.1964504
1.1965469
1.1966469
1.196751
1.1968595
1.1969729
1.1970914
1.1972151
1.1973442
1.1974783
1.1976174
1.1889372
1.1889918
1.1890427
1.1890958
1.1891538
1.1892168
1.1892848
1.1893585
1.1894379
1.1895197
1.1896087
1.1897013
1.189799
1.1899017
1.1900095
1.1901232
1.1902423
1.1903661
1.1904959
1.1906306
1.1907697
1.1909128
1.1910589
1.1912094
1.1913658
1.191527
1.1916881
1.1918496
1.1920142
1.1921801
1.1923455
1.1925125
1.1926788
1.1928417
1.1930044
1.1931648
1.1933214
1.1934784
1.1936338
1.1937846
1.1939307
1.1940723
1.1942111
1.1943469
1.1944779
1.194605
1.1947284
1.1948479
1.1949636
1.1950757
1.1951844
1.1952898
1.1953923
1.1954924
1.1955903
1.1956864
1.1957811
1.1958749
1.1959684
1.196062
1.1961562
1.1962516
1.1963487
1.196448
1.1965502
1.1966555
1.1967645
1.1968775
1.1969949
1.1971168
1.1972435
1.1973747
1.1975106
1.1976506
1.188963
1.1890121
1.1890575
1.1891055
1.189159
1.1892176
1.1892808
1.189349
1.1894235
1.1895016
1.189584
1.1896723
1.1897646
1.1898619
1.1899639
1.1900724
1.1901866
1.1903049
1.1904283
1.190557
1.1906902
1.1908277
1.1909692
1.1911152
1.1912665
1.1914213
1.1915773
1.1917347
1.191894
1.1920551
1.1922192
1.1923852
1.1925487
1.1927104
1.1928721
1.1930319
1.1931915
1.1933486
1.1935009
1.1936519
1.1937997
1.1939433
1.1940855
1.1942252
1.1943598
1.1944905
1.1946183
1.1947427
1.1948634
1.1949809
1.1950952
1.1952062
1.1953148
1.1954212
1.1955255
1.1956281
1.1957294
1.1958299
1.19593
1.1960302
1.1961309
1.1962327
1.196336
1.1964413
1.1965491
1.1966598
1.1967737
1.1968912
1.1970126
1.1971379
1.1972674
1.1974009
1.1975382
1.1976792
1.1889933
1.1890328
1.1890726
1.1891177
1.1891666
1.189221
1.1892799
1.1893433
1.1894115
1.1894859
1.1895621
1.1896451
1.1897326
1.1898249
1.1899219
1.1900236
1.1901304
1.1902444
1.1903618
1.1904849
1.1906123
1.1907441
1.1908804
1.1910212
1.1911666
1.1913154
1.1914665
1.19162
1.1917758
1.191934
1.1920948
1.1922565
1.1924169
1.1925764
1.1927355
1.1928952
1.1930552
1.1932116
1.1933652
1.1935173
1.1936668
1.1938141
1.1939583
1.1940988
1.1942368
1.1943712
1.1945035
1.1946325
1.194758
1.1948806
1.1950004
1.195117
1.1952318
1.1953447
1.1954554
1.1955646
1.1956724
1.1957797
1.1958865
1.1959934
1.1961007
1.1962089
1.1963185
1.1964298
1.1965432
1.1966593
1.1967781
1.1969001
1.1970254
1.1971541
1.1972863
1.197422
1.1975608
1.1977026
1.1890276
1.1890585
1.1890903
1.1891296
1.1891742
1.189224
1.1892784
1.1893373
1.1894011
1.1894696
1.1895417
1.189619
1.1897012
1.1897883
1.1898804
1.1899758
1.1900754
1.1901819
1.1902947
1.190413
1.1905346
1.1906604
1.1907909
1.1909261
1.1910657
1.1912089
1.1913552
1.1915042
1.1916561
1.1918104
1.191967
1.1921247
1.1922825
1.1924403
1.1925984
1.1927573
1.1929156
1.1930716
1.1932256
1.1933781
1.1935291
1.1936785
1.1938249
1.1939682
1.1941098
1.1942484
1.1943839
1.1945165
1.1946468
1.1947747
1.1948999
1.1950225
1.1951435
1.1952626
1.1953796
1.1954954
1.1956099
1.1957239
1.1958376
1.1959511
1.1960651
1.1961798
1.1962956
1.1964129
1.1965321
1.1966534
1.1967772
1.1969036
1.1970328
1.1971649
1.1972999
1.1974376
1.1975779
1.1977205
1.1890589
1.1890819
1.1891084
1.1891417
1.1891811
1.1892261
1.1892758
1.1893302
1.1893891
1.1894523
1.1895196
1.1895916
1.1896683
1.1897497
1.1898359
1.1899264
1.1900218
1.1901206
1.1902263
1.1903382
1.1904555
1.1905753
1.1907
1.1908295
1.1909633
1.191101
1.1912422
1.1913866
1.191534
1.1916841
1.1918365
1.1919905
1.1921455
1.1923012
1.1924576
1.1926147
1.1927714
1.192927
1.1930815
1.1932349
1.1933872
1.193538
1.1936864
1.1938325
1.1939769
1.1941192
1.1942585
1.1943954
1.1945304
1.1946627
1.1947932
1.1949224
1.1950498
1.1951747
1.1952981
1.1954204
1.1955413
1.1956622
1.1957829
1.1959032
1.1960238
1.196145
1.1962671
1.1963904
1.1965152
1.1966419
1.1967706
1.1969014
1.1970345
1.1971699
1.1973076
1.1974474
1.1975892
1.1977325
1.1890871
1.1891023
1.189123
1.1891509
1.1891853
1.1892254
1.1892705
1.1893201
1.1893741
1.1894323
1.1894947
1.1895615
1.1896328
1.1897086
1.1897891
1.1898742
1.1899643
1.190059
1.1901577
1.190261
1.1903729
1.1904878
1.1906069
1.1907306
1.1908588
1.190991
1.191127
1.1912665
1.1914093
1.191555
1.1917033
1.1918536
1.1920055
1.1921587
1.192313
1.1924681
1.1926234
1.1927784
1.1929329
1.1930868
1.19324
1.193392
1.1935424
1.1936912
1.1938385
1.193984
1.1941273
1.1942687
1.1944083
1.1945459
1.1946823
1.1948171
1.1949491
1.1950799
1.1952108
1.1953396
1.1954673
1.1955948
1.1957223
1.1958491
1.1959766
1.1961043
1.1962327
1.196362
1.1964925
1.1966244
1.1967579
1.1968931
1.1970301
1.1971689
1.1973092
1.1974511
1.1975943
1.1977384
1.1891114
1.1891184
1.1891331
1.1891557
1.1891853
1.1892207
1.189261
1.1893059
1.1893552
1.1894085
1.189466
1.1895277
1.1895937
1.1896642
1.1897392
1.1898188
1.1899033
1.1899926
1.1900866
1.1901834
1.1902867
1.1903977
1.1905111
1.190629
1.1907515
1.1908783
1.1910091
1.1911436
1.1912816
1.1914229
1.191567
1.1917136
1.1918623
1.1920127
1.1921646
1.1923177
1.1924716
1.1926257
1.19278
1.1929342
1.193088
1.1932413
1.1933935
1.1935447
1.1936948
1.1938435
1.1939907
1.1941364
1.1942807
1.1944235
1.1945652
1.1947055
1.1948438
1.1949814
1.1951173
1.1952526
1.1953879
1.1955228
1.1956563
1.1957892
1.1959233
1.1960573
1.1961922
1.1963275
1.1964637
1.1966008
1.1967392
1.1968787
1.1970195
1.1971615
1.1973046
1.1974485
1.1975931
1.197738
1.1891287
1.1891285
1.1891373
1.1891549
1.1891798
1.1892107
1.1892466
1.1892869
1.1893315
1.1893802
1.1894328
1.1894896
1.1895507
1.189616
1.1896856
1.1897598
1.1898387
1.1899223
1.1900108
1.190103
1.1901992
1.1903041
1.1904122
1.1905245
1.1906414
1.1907627
1.1908882
1.1910177
1.1911509
1.1912877
1.1914276
1.1915703
1.1917156
1.1918631
1.1920125
1.1921635
1.1923159
1.1924691
1.1926229
1.1927772
1.1929316
1.193086
1.19324
1.1933934
1.1935462
1.1936981
1.1938491
1.193999
1.1941479
1.1942958
1.1944427
1.1945885
1.194733
1.1948768
1.1950194
1.1951619
1.1953035
1.195444
1.1955836
1.1957245
1.1958644
1.1960044
1.1961454
1.1962866
1.1964286
1.196571
1.1967142
1.196858
1.1970025
1.1971477
1.1972935
1.1974396
1.1975856
1.1977314
1.1891356
1.1891299
1.1891341
1.1891473
1.189168
1.1891947
1.1892263
1.1892624
1.1893026
1.1893468
1.1893949
1.189447
1.1895031
1.1895634
1.189628
1.1896969
1.1897703
1.1898484
1.1899313
1.1900184
1.1901097
1.190207
1.1903103
1.1904169
1.1905282
1.1906441
1.1907643
1.1908888
1.1910172
1.1911494
1.1912851
1.191424
1.1915658
1.1917102
1.191857
1.1920059
1.1921566
1.1923087
1.192462
1.1926163
1.1927713
1.1929267
1.1930822
1.1932378
1.1933933
1.1935484
1.193703
1.193857
1.1940105
1.1941632
1.1943154
1.1944668
1.1946173
1.1947671
1.1949162
1.195065
1.1952131
1.1953603
1.1955074
1.1956538
1.1957995
1.1959469
1.196093
1.1962394
1.196387
1.1965347
1.1966829
1.1968309
1.1969793
1.1971277
1.1972761
1.1974242
1.1975718
1.1977185
1.1891323
1.1891225
1.189123
1.1891325
1.1891494
1.1891722
1.1891999
1.189232
1.1892681
1.1893081
1.1893518
1.1893994
1.1894509
1.1895064
1.1895661
1.18963
1.1896982
1.189771
1.1898482
1.1899297
1.1900161
1.1901078
1.1902054
1.1903065
1.1904123
1.1905227
1.1906378
1.1907572
1.1908809
1.1910085
1.1911399
1.1912749
1.1914132
1.1915545
1.1916987
1.1918453
1.1919943
1.1921452
1.1922979
1.1924521
1.1926074
1.1927637
1.1929207
1.1930784
1.1932366
1.1933948
1.193553
1.1937112
1.1938691
1.1940269
1.1941843
1.1943412
1.1944974
1.1946532
1.1948085
1.1949635
1.195118
1.1952718
1.1954252
1.1955781
1.1957313
1.1958839
1.1960354
1.1961878
1.1963397
1.196492
1.1966447
1.1967972
1.1969494
1.1971012
1.1972524
1.1974027
1.1975518
1.1976995
1.1891207
1.1891073
1.1891043
1.1891103
1.1891238
1.1891431
1.1891673
1.1891958
1.1892281
1.1892642
1.1893038
1.1893472
1.1893943
1.1894453
1.1895002
1.1895593
1.1896226
1.1896903
1.1897624
1.1898392
1.1899202
1.1900057
1.1900965
1.1901928
1.1902936
1.1903988
1.1905088
1.1906234
1.1907423
1.1908654
1.1909926
1.1911236
1.1912584
1.1913966
1.191538
1.1916824
1.1918296
1.1919793
1.1921311
1.1922849
1.1924404
1.1925974
1.1927557
1.1929152
1.1930759
1.1932372
1.193399
1.1935613
1.1937239
1.1938867
1.1940498
1.1942124
1.1943741
1.1945356
1.194697
1.1948581
1.1950189
1.195179
1.1953386
1.1954976
1.195657
1.195816
1.1959741
1.1961312
1.1962878
1.196445
1.1966011
1.1967575
1.1969133
1.1970683
1.1972224
1.1973749
1.1975257
1.1976745
1.1890989
1.1890833
1.1890776
1.1890808
1.1890919
1.1891088
1.1891302
1.1891553
1.1891841
1.1892164
1.1892522
1.1892915
1.1893345
1.189381
1.1894315
1.1894858
1.1895443
1.1896071
1.1896744
1.1897467
1.1898222
1.1899011
1.1899857
1.1900776
1.1901732
1.1902731
1.1903777
1.1904875
1.1906016
1.1907202
1.1908432
1.1909704
1.1911017
1.1912368
1.1913756
1.1915179
1.1916634
1.1918118
1.1919629
1.1921165
1.1922723
1.1924302
1.1925898
1.1927509
1.1929132
1.1930772
1.1932423
1.1934082
1.1935749
1.1937422
1.1939109
1.1940799
1.1942479
1.1944151
1.1945823
1.1947494
1.1949162
1.1950825
1.1952482
1.1954132
1.1955782
1.1957433
1.1959071
1.1960692
1.196232
1.1963936
1.1965538
1.1967139
1.1968728
1.1970306
1.1971866
1.1973412
1.1974938
1.1976439
1.1890665
1.1890507
1.1890437
1.1890456
1.189054
1.189068
1.1890862
1.1891082
1.1891338
1.1891628
1.1891951
1.1892308
1.1892698
1.1893124
1.1893587
1.1894087
1.1894626
1.1895207
1.1895832
1.1896502
1.1897209
1.1897948
1.1898746
1.1899612
1.1900513
1.1901464
1.1902462
1.1903509
1.1904603
1.1905744
1.1906932
1.1908166
1.1909444
1.1910764
1.1912126
1.1913527
1.1914965
1.1916437
1.1917941
1.1919476
1.1921039
1.1922629
1.1924241
1.1925873
1.1927521
1.1929188
1.1930871
1.1932566
1.1934271
1.1935981
1.1937697
1.1939438
1.1941187
1.194292
1.194465
1.194638
1.1948107
1.1949829
1.1951544
1.1953253
1.1954957
1.1956666
1.1958356
1.1960027
1.1961703
1.1963367
1.1965021
1.1966658
1.196828
1.1969883
1.1971465
1.1973029
1.197457
1.1976081
1.1890256
1.1890103
1.1890026
1.1890025
1.1890083
1.1890195
1.1890351
1.1890546
1.1890775
1.1891036
1.1891328
1.1891652
1.1892008
1.1892398
1.1892822
1.1893282
1.1893779
1.1894317
1.1894896
1.1895518
1.1896178
1.1896871
1.1897625
1.1898436
1.1899288
1.1900193
1.1901146
1.1902144
1.1903192
1.1904289
1.1905436
1.1906632
1.1907875
1.1909164
1.1910498
1.1911876
1.1913296
1.1914755
1.1916251
1.1917784
1.191935
1.1920948
1.1922574
1.1924228
1.1925907
1.1927607
1.1929324
1.1931057
1.1932805
1.1934565
1.1936319
1.1938093
1.193988
1.1941671
1.1943458
1.1945245
1.1947029
1.1948807
1.1950579
1.1952343
1.1954103
1.1955865
1.1957602
1.1959323
1.1961045
1.1962752
1.1964446
1.196612
1.1967775
1.1969407
1.1971019
1.1972602
1.1974155
1.1975676
1.1889767
1.1889628
1.1889543
1.1889525
1.1889574
1.1889672
1.1889809
1.1889981
1.1890185
1.1890419
1.1890683
1.1890976
1.18913
1.1891655
1.1892042
1.1892464
1.1892921
1.1893417
1.1893952
1.1894529
1.189514
1.1895785
1.1896501
1.1897264
1.1898066
1.189892
1.1899826
1.1900779
1.1901783
1.1902838
1.1903945
1.1905103
1.1906311
1.190757
1.1908878
1.1910233
1.1911634
1.191308
1.1914569
1.1916098
1.1917666
1.1919271
1.192091
1.1922582
1.1924283
1.192601
1.1927759
1.1929527
1.1931316
1.1933122
1.1934937
1.1936765
1.1938588
1.1940415
1.1942253
1.1944095
1.1945934
1.1947765
1.1949591
1.1951409
1.1953222
1.195503
1.1956816
1.1958588
1.1960352
1.19621
1.196383
1.196554
1.1967226
1.1968887
1.1970522
1.1972126
1.1973695
1.1975229
1.1935484
1.1935015
1.1933473
1.1931629
1.1929878
1.1928332
1.1926761
1.1925171
1.1923735
1.1937434
1.1937308
1.1934847
1.193268
1.1930857
1.1929242
1.192764
1.1926035
1.1924628
1.1936957
1.1937643
1.1935416
1.1933525
1.1931737
1.1930111
1.1928503
1.1926892
1.1925493
1.1936576
1.1937655
1.1936082
1.1934406
1.1932685
1.1931045
1.1929418
1.1927792
1.1926389
1.1936342
1.1937823
1.1936837
1.1935293
1.1933613
1.1931965
1.1930324
1.192869
1.1927283
1.193605
1.1938034
1.1937461
1.1936088
1.1934467
1.1932835
1.1931196
1.1929565
1.1928159
1.1935651
1.1938129
1.193792
1.1936773
1.1935249
1.1933657
1.1932036
1.1930419
1.1929019
1.1935225
1.193806
1.1938257
1.1937368
1.1935969
1.1934438
1.1932849
1.1931253
1.1929865
1.1934788
1.1937909
1.1938525
1.1937893
1.1936638
1.1935185
1.1933638
1.193207
1.1930698
1.1934318
1.1937721
1.193872
1.1938352
1.1937258
1.1935898
1.1934403
1.1932871
1.1931518
1.1933817
1.1937496
1.1938843
1.193875
1.1937836
1.1936581
1.1935147
1.1933655
1.1932326
1.1933304
1.1937224
1.1938903
1.1939095
1.1938374
1.1937236
1.193587
1.1934423
1.1933121
1.1932801
1.1936924
1.1938917
1.1939395
1.1938879
1.1937866
1.1936575
1.1935178
1.1933906
1.1932323
1.193661
1.1938898
1.1939661
1.1939355
1.1938475
1.1937265
1.1935921
1.1934681
1.1931893
1.1936298
1.1938863
1.1939904
1.1939811
1.1939067
1.1937942
1.1936654
1.1935448
1.1931537
1.1936019
1.1938826
1.1940134
1.1940252
1.1939647
1.1938609
1.1937381
1.1936211
1.1931277
1.1935793
1.1938806
1.1940364
1.1940686
1.1940221
1.1939272
1.1938104
1.1936971
1.1931125
1.1935637
1.1938822
1.1940606
1.1941124
1.1940794
1.1939936
1.1938828
1.1937734
1.1931097
1.1935568
1.1938898
1.1940875
1.1941574
1.1941375
1.1940604
1.1939557
1.1938502
1.1931206
1.1935656
1.193905
1.1941184
1.1942045
1.1941969
1.1941284
1.1940296
1.193928
1.193148
1.1935837
1.1939275
1.1941541
1.1942546
1.1942583
1.1941979
1.194105
1.1940073
1.1931897
1.1936121
1.1939584
1.1941958
1.1943086
1.1943225
1.1942696
1.1941822
1.1940885
1.1932447
1.1936536
1.1939995
1.1942444
1.1943673
1.19439
1.1943441
1.1942619
1.194172
1.1933132
1.1937088
1.1940516
1.1943007
1.1944315
1.1944616
1.1944218
1.1943445
1.1942582
1.1933943
1.1937774
1.1941146
1.1943652
1.1945016
1.1945376
1.1945031
1.1944303
1.1943475
1.1934915
1.1938595
1.1941887
1.1944381
1.194578
1.1946185
1.1945884
1.1945195
1.19444
1.1936015
1.1939536
1.1942733
1.1945195
1.1946608
1.1947044
1.1946778
1.1946124
1.1945359
1.1937199
1.194058
1.1943679
1.1946091
1.1947498
1.1947952
1.1947713
1.1947089
1.1946352
1.1938477
1.1941721
1.1944714
1.1947061
1.1948447
1.1948908
1.1948687
1.1948089
1.1947379
1.1939836
1.1942942
1.1945827
1.1948098
1.1949451
1.1949906
1.1949698
1.1949121
1.1948435
1.1941247
1.1944225
1.1947002
1.1949192
1.19505
1.1950942
1.195074
1.1950181
1.1949517
1.1942694
1.1945552
1.1948225
1.1950329
1.1951586
1.1952008
1.1951807
1.1951263
1.1950619
1.1944165
1.1946907
1.1949476
1.1951494
1.1952698
1.1953095
1.1952892
1.195236
1.1951736
1.194564
1.1948267
1.1950738
1.1952674
1.1953822
1.1954192
1.1953984
1.1953464
1.1952859
1.194709
1.1949606
1.1951992
1.1953851
1.1954945
1.1955288
1.1955076
1.1954565
1.1953979
1.1948497
1.1950911
1.1953223
1.195501
1.1956054
1.1956372
1.1956154
1.1955655
1.1955087
1.1949859
1.1952175
1.1954413
1.1956134
1.1957133
1.1957429
1.195721
1.1956722
1.1956173
1.1951163
1.1953384
1.1955549
1.1957211
1.1958171
1.195845
1.1958231
1.1957757
1.1957228
1.1952396
1.1954524
1.1956618
1.1958227
1.1959154
1.1959421
1.1959208
1.195875
1.1958241
1.1953551
1.1955585
1.1957608
1.1959169
1.1960072
1.1960334
1.196013
1.1959691
1.1959204
1.1954627
1.1956562
1.1958513
1.196003
1.1960915
1.1961179
1.196099
1.1960573
1.196011
1.1955618
1.1957452
1.1959329
1.1960806
1.1961678
1.196195
1.1961781
1.196139
1.1960952
1.1956526
1.1958254
1.1960056
1.1961493
1.1962357
1.1962642
1.1962499
1.1962137
1.1961726
1.1957352
1.1958971
1.1960694
1.196209
1.196295
1.1963254
1.1963141
1.1962812
1.196243
1.1958102
1.1959609
1.1961248
1.1962602
1.1963459
1.1963787
1.1963708
1.1963415
1.1963063
1.1958778
1.1960173
1.1961723
1.1963033
1.1963888
1.1964243
1.1964203
1.1963949
1.1963629
1.1959386
1.196067
1.1962128
1.196339
1.1964244
1.1964628
1.1964629
1.1964416
1.196413
1.1959934
1.1961108
1.1962471
1.1963682
1.1964533
1.1964948
1.1964994
1.1964825
1.1964574
1.1960423
1.1961491
1.196276
1.1963918
1.1964766
1.1965213
1.1965306
1.1965182
1.1964968
1.196086
1.1961828
1.1963004
1.1964109
1.1964953
1.1965432
1.1965573
1.1965497
1.1965322
1.1961251
1.1962125
1.1963211
1.1964263
1.1965102
1.1965615
1.1965806
1.196578
1.1965644
1.1961591
1.1962382
1.1963386
1.1964388
1.1965224
1.1965772
1.1966014
1.196604
1.1965947
1.1961887
1.1962606
1.1963536
1.1964492
1.1965328
1.1965912
1.1966208
1.1966288
1.1966238
1.1962156
1.1962806
1.1963668
1.1964583
1.1965421
1.1966043
1.1966395
1.1966531
1.1966528
1.1962382
1.196298
1.1963784
1.1964666
1.196551
1.1966174
1.1966585
1.1966779
1.1966825
1.196259
1.1963136
1.196389
1.1964747
1.1965602
1.1966311
1.1966783
1.1967038
1.1967135
1.196276
1.1963273
1.1963989
1.1964829
1.1965702
1.1966459
1.1966994
1.1967313
1.1967464
1.1962912
1.1963401
1.1964088
1.1964918
1.1965814
1.1966623
1.1967225
1.1967608
1.1967815
1.1963072
1.1963529
1.1964191
1.1965019
1.1965943
1.1966807
1.1967477
1.1967927
1.196819
1.1963205
1.1963652
1.1964303
1.1965136
1.1966092
1.1967014
1.1967754
1.1968271
1.1968591
1.1963353
1.1963791
1.1964432
1.1965274
1.1966267
1.1967248
1.1968057
1.1968642
1.1969018
1.1963516
1.1963948
1.1964585
1.196544
1.1966472
1.1967513
1.196839
1.1969041
1.1969471
1.1963705
1.196413
1.196477
1.1965641
1.1966713
1.1967811
1.1968755
1.1969468
1.1969951
1.1963915
1.196436
1.1964996
1.1965884
1.1966994
1.1968149
1.1969155
1.1969927
1.1970459
1.1964169
1.1964614
1.1965263
1.1966174
1.1967324
1.1968532
1.1969594
1.197042
1.1970996
1.1964478
1.1964928
1.1965588
1.1966523
1.196771
1.1968964
1.1970078
1.1970952
1.1971566
1.1964849
1.1965308
1.1965983
1.1966939
1.1968159
1.1969453
1.1970612
1.1971527
1.1972174
1.1965293
1.1965762
1.1966453
1.1967432
1.1968678
1.1970005
1.19712
1.1972149
1.1972824
1.1965836
1.1966287
1.1967009
1.1968008
1.1969275
1.1970627
1.1971849
1.1972824
1.197352
1.1966447
1.1966965
1.196768
1.1968677
1.1969955
1.1971324
1.1972565
1.1973558
1.1974269
1.1967154
1.1967722
1.196843
1.1969432
1.197072
1.1972099
1.1973351
1.1974356
1.1975077
1.1967979
1.1968525
1.1969258
1.197028
1.1971575
1.1972957
1.1974212
1.1975222
1.1975948
1.1968883
1.1969445
1.1970202
1.1971231
1.1972525
1.1973901
1.1975151
1.1976158
1.1976885
1.1969965
1.1970514
1.1971264
1.1972287
1.1973569
1.1974931
1.1976168
1.1977168
1.1977891
1.1971128
1.1971677
1.1972427
1.1973441
1.1974705
1.1976045
1.1977261
1.1978248
1.1978964
1.19724
1.1972941
1.1973688
1.197469
1.1975929
1.1977239
1.197843
1.1979398
1.1980103
1.1973767
1.1974304
1.1975046
1.1976029
1.1977236
1.1975232
1.1921777
1.1919482
1.1917568