/*--------------------------------*- C++ -*----------------------------------*\
| =========                 |                                                 |
| \\      /  F ield         | OpenFOAM: The Open Source CFD Toolbox           |
|  \\    /   O peration     | Version:  2406                                  |
|   \\  /    A nd           | Website:  www.openfoam.com                      |
|    \\/     M anipulation  |                                                 |
\*---------------------------------------------------------------------------*/
FoamFile
{
    version     2.0;
    format      ascii;
    arch        "LSB;label=32;scalar=64";
    class       volScalarField;
    location    "0.02";
    object      nut;
}
// * * * * * * * * * * * * * * * * * * * * * * * * * * * * * * * * * * * * * //

dimensions      [0 2 -1 0 0 0 0];

internalField   nonuniform List<scalar> 
8260
(
0.043739078
0.050110991
0.057773888
0.066700448
0.076881663
0.088354851
0.10119538
0.11550414
0.13139624
0.14902851
0.1685837
0.19023923
0.21416122
0.24046589
0.26915595
0.30006734
0.33276393
0.36641833
0.39966638
0.43043394
0.45567665
0.47107228
0.47085486
0.44792158
0.39484413
0.30700979
0.1909384
0.098510455
0.067161131
0.05041354
0.042008454
0.051892942
0.058529028
0.066049598
0.074660693
0.084476213
0.095583085
0.10807524
0.12206406
0.13767593
0.15506242
0.17439991
0.19586007
0.21959746
0.24571762
0.27420773
0.30488797
0.33730618
0.370617
0.40344053
0.43368002
0.45827306
0.47288501
0.47174291
0.44775268
0.39355641
0.30473866
0.18854827
0.096786874
0.066789214
0.050208001
0.041993118
0.061455611
0.068020181
0.07538284
0.083733395
0.093215833
0.10395629
0.11607762
0.12971123
0.14499851
0.16209372
0.18116772
0.20238714
0.22589536
0.25178541
0.28002759
0.31042427
0.34250558
0.37540617
0.40772864
0.43735142
0.46119124
0.47490051
0.47269788
0.44750384
0.39203248
0.3021105
0.18575708
0.094975126
0.066381793
0.04998665
0.041980074
0.072652942
0.078934444
0.086047806
0.094106652
0.10324892
0.11361456
0.12534672
0.13859565
0.15351815
0.17027591
0.189038
0.2099665
0.23319422
0.25879912
0.28673589
0.31678605
0.34846017
0.38087084
0.41260076
0.44150115
0.46446505
0.47713069
0.47370797
0.44713815
0.39021256
0.2990502
0.18249346
0.0930952
0.065938687
0.049751058
0.04196451
0.085661066
0.091546059
0.098325437
0.10603163
0.11479528
0.12475862
0.13607458
0.14890604
0.16342214
0.17979326
0.19818934
0.21876888
0.24165536
0.2669094
0.29446998
0.32409663
0.35527794
0.38710258
0.41813005
0.44618258
0.46812617
0.4795835
0.47475544
0.44660844
0.38802807
0.2954748
0.17868706
0.091127352
0.065453979
0.049499127
0.041949532
0.10059938
0.10606312
0.11244751
0.11974561
0.12808551
0.13760995
0.14847609
0.16085365
0.17491986
0.19085236
0.20882325
0.22898786
0.25146081
0.27628593
0.30338494
0.33249463
0.36307863
0.39420125
0.42439452
0.45144974
0.47220295
0.4822593
0.47581064
0.44585446
0.38539175
0.29128224
0.17426024
0.089052057
0.06492197
0.04923074
0.041932588
0.11758287
0.12263421
0.12859834
0.13545747
0.14334161
0.15239564
0.16277954
0.17466677
0.18823927
0.20367952
0.22116149
0.24083732
0.26281302
0.28711671
0.31365185
0.3421317
0.37199238
0.40227281
0.43147419
0.45735414
0.47671659
0.48514647
0.476827
0.44479428
0.38219196
0.28634619
0.16912993
0.086852634
0.064337656
0.048946309
0.041910992
0.13670463
0.14137523
0.14692601
0.15334507
0.16076529
0.16933412
0.17921394
0.19058064
0.20361886
0.21851376
0.23543999
0.25454609
0.27592962
0.29960411
0.3254541
0.35316859
0.38215524
0.41142521
0.43944606
0.46393956
0.48167519
0.48821472
0.47773369
0.44331668
0.37828481
0.28050893
0.16320926
0.084517797
0.063696659
0.048650109
0.041879033
0.15803303
0.16237345
0.16754649
0.17355332
0.18052814
0.18861949
0.19799102
0.20881989
0.22129186
0.23559276
0.25189632
0.27034675
0.29103311
0.31395524
0.33897852
0.36576756
0.39370116
0.42176012
0.44837615
0.47123333
0.48706447
0.49140519
0.47842512
0.44127037
0.37348391
0.27357245
0.15640519
0.082041268
0.062995087
0.048350999
0.041821853
0.18159065
0.18566645
0.19052447
0.1961745
0.20274896
0.2103958
0.21927782
0.22957107
0.24145994
0.25512846
0.27074729
0.28845506
0.308332
0.33036471
0.3543997
0.38007746
0.40674793
0.4333594
0.45830594
0.47923265
0.49283373
0.49461594
0.47874597
0.43844898
0.36754683
0.26528835
0.1486283
0.079423074
0.06222922
0.048043842
0.041750217
0.20730198
0.2112033
0.21583203
0.22120746
0.22745511
0.23471911
0.24315834
0.25294388
0.26425484
0.27726978
0.29215328
0.30903641
0.32798951
0.34898579
0.37185328
0.39620895
0.42137408
0.44626301
0.4692311
0.48788367
0.49887485
0.49768082
0.47847006
0.43457057
0.36015693
0.25534331
0.13981672
0.076672822
0.0613962
0.047734143
0.041665162
0.23499607
0.23881702
0.24331685
0.24852068
0.25454257
0.26151466
0.26958711
0.27892144
0.28968635
0.30204995
0.3161663
0.33215548
0.3500756
0.36988529
0.3913939
0.41419527
0.43758217
0.46043448
0.48106849
0.49704951
0.5049911
0.50033872
0.47727037
0.42924939
0.35089959
0.24336001
0.12995816
0.073809623
0.060493974
0.047421996
0.0415671
0.26437919
0.26821825
0.27269554
0.27783649
0.28374338
0.29053242
0.29833561
0.30729948
0.31757634
0.32931723
0.34265925
0.35770585
0.3744984
0.39297765
0.41293259
0.43393314
0.45524336
0.47570861
0.49360643
0.50646267
0.5108512
0.50218925
0.47467653
0.42195716
0.3392319
0.2289088
0.11912688
0.070860668
0.059521322
0.047110891
0.041462059
0.29495171
0.29890655
0.30346741
0.30865653
0.31456068
0.32127969
0.32892216
0.33761153
0.3474783
0.35864936
0.37123669
0.38531873
0.40091244
0.41793435
0.43614853
0.455098
0.4740165
0.49171449
0.50643143
0.51565506
0.51592248
0.50262896
0.47001506
0.41197026
0.32444411
0.2115019
0.10754034
0.067863295
0.058478326
0.046805278
0.041356034
0.32595563
0.3301051
0.33483758
0.34016908
0.34617179
0.35292353
0.3605131
0.36903275
0.37858106
0.38925386
0.40112986
0.41425251
0.42860384
0.4440664
0.46037101
0.47702729
0.49323425
0.50776547
0.51882249
0.52385695
0.51937472
0.50076057
0.46232576
0.3982988
0.30561282
0.19065276
0.096191565
0.064883922
0.057366521
0.046506761
0.041251314
0.35630908
0.36070047
0.36565916
0.37119471
0.37736538
0.38423255
0.39185708
0.40029902
0.40961789
0.41986658
0.43108263
0.44326633
0.45635297
0.47017823
0.48442736
0.49856532
0.51174773
0.52270606
0.52960203
0.52985339
0.51994339
0.49526487
0.45024592
0.37959432
0.28155445
0.16604457
0.086246688
0.06199527
0.056188946
0.04623579
0.041152764
0.38454522
0.38918402
0.39438089
0.40013676
0.40649465
0.41349841
0.42118776
0.42959505
0.43873729
0.44861693
0.45921388
0.47047136
0.48226931
0.49438686
0.50644906
0.51786015
0.52771826
0.53470242
0.53692897
0.53178309
0.51573766
0.48422221
0.43185308
0.35403797
0.25081426
0.13795907
0.076993101
0.059186624
0.054949266
0.045976619
0.041062554
0.40861763
0.41344951
0.41883104
0.42475483
0.43124999
0.43834121
0.44604661
0.45437241
0.46330375
0.47279709
0.48276635
0.49308365
0.50355177
0.51387602
0.52361306
0.53209189
0.53833614
0.54095659
0.53801328
0.52685898
0.50397367
0.46486841
0.40445771
0.31922754
0.21182187
0.10816224
0.068514917
0.056496201
0.053654273
0.045763234
0.040976261
0.42546744
0.43038665
0.43583775
0.44180847
0.4483171
0.45536774
0.46295518
0.47105809
0.47963181
0.4885938
0.49781548
0.50709102
0.51613452
0.52454691
0.53178534
0.53709691
0.53943042
0.53730845
0.52871761
0.51097849
0.48060643
0.43327243
0.36434909
0.27215699
0.16367899
0.087493857
0.061654619
0.05410442
0.052318089
0.045663481
0.040824057
0.43004041
0.43490843
0.44027836
0.4461316
0.45247123
0.45928831
0.46655773
0.47423188
0.48222008
0.49040991
0.49862828
0.50661892
0.51401681
0.5203177
0.52486222
0.52676031
0.52487501
0.51764495
0.50297347
0.47816192
0.43981561
0.38393701
0.30657444
0.20952827
0.11001227
0.070460417
0.056122845
0.052349966
0.050962061
0.045596651
0.040744172
0.41356242
0.41824663
0.42339279
0.42897209
0.43497406
0.44137286
0.44812028
0.45513784
0.46230854
0.46947818
0.47639435
0.4827683
0.48817512
0.49205476
0.49362921
0.49191667
0.48557321
0.47290796
0.45181945
0.41966034
0.37323804
0.30937159
0.22480041
0.13214797
0.078988894
0.058422477
0.052146003
0.050521698
0.049652938
0.045226023
0.040678834
0.36028736
0.36482644
0.36977914
0.37509966
0.38075995
0.38671302
0.39288417
0.39916171
0.40538653
0.41133938
0.41673079
0.42119331
0.42421662
0.42521438
0.42336318
0.41762096
0.4066422
0.38863035
0.36122504
0.32204075
0.26845744
0.20045801
0.13430194
0.083406708
0.05853403
0.051669155
0.050605439
0.048972136
0.048513272
0.044786405
0.040605096
0.25901657
0.26247921
0.26622909
0.2702107
0.27438542
0.2786968
0.28305945
0.28734736
0.29138774
0.29494934
0.29773366
0.29937326
0.29945548
0.29743433
0.29272315
0.2843921
0.27179441
0.25365575
0.22874702
0.19652723
0.15715368
0.11381681
0.079559164
0.058270563
0.050597687
0.049216133
0.047905475
0.047237174
0.04742872
0.044561926
0.040433311
0.14580923
0.14807523
0.15052386
0.15311193
0.15580271
0.15854833
0.1612825
0.16388678
0.16622916
0.16815624
0.16949292
0.17004416
0.16948264
0.16739428
0.1633976
0.15735562
0.14891469
0.13749669
0.1228613
0.10537121
0.086063443
0.067864836
0.05526193
0.048778166
0.047037048
0.046398057
0.04624247
0.045772548
0.046206951
0.044088246
0.040344174
0.072811718
0.074375125
0.076042566
0.077784777
0.079560195
0.081296337
0.082902521
0.084375815
0.085689772
0.086792352
0.087602052
0.088012792
0.087905118
0.087093206
0.085411106
0.082793382
0.079175681
0.07436779
0.068490754
0.061892284
0.055224016
0.049876342
0.046620315
0.045237173
0.045078544
0.044594828
0.044134175
0.044153363
0.044987332
0.043523544
0.040273915
0.047324167
0.047760035
0.048224112
0.048714039
0.049222993
0.049740199
0.050252351
0.050749182
0.051224789
0.051667897
0.052057645
0.0523627
0.052540156
0.05255123
0.052362938
0.051929823
0.051102152
0.049805999
0.048211752
0.046493183
0.044878589
0.044015443
0.043681043
0.043695159
0.043284543
0.043008786
0.043132868
0.043008186
0.043645582
0.042955014
0.040297305
0.041205473
0.041391216
0.041582154
0.041774651
0.041964573
0.042147477
0.042320806
0.042482556
0.042630837
0.042763073
0.042875459
0.042962796
0.043017376
0.043030343
0.04299309
0.042901006
0.04273893
0.04248845
0.042163327
0.041867477
0.041810397
0.042187501
0.042190042
0.042284729
0.042207767
0.042056089
0.041915375
0.041996922
0.042630969
0.042181686
0.040338138
0.040078367
0.040148061
0.040216885
0.040283308
0.040346152
0.040404491
0.040457631
0.040505128
0.040546833
0.04058276
0.040612959
0.040637529
0.040655709
0.040663488
0.040656224
0.040638326
0.040615027
0.040587829
0.040573561
0.040616836
0.040706026
0.040936845
0.041078434
0.041027459
0.040973361
0.040922746
0.040971634
0.04115971
0.041508135
0.041517239
0.04030154
0.039887329
0.039908873
0.039929682
0.039949223
0.039967189
0.039983341
0.039997474
0.040009491
0.040019625
0.040028503
0.040036955
0.040046074
0.040056205
0.04006359
0.040064832
0.040066149
0.040072497
0.04008397
0.040107999
0.040148729
0.040219371
0.04031304
0.04034534
0.040294791
0.04023723
0.040212768
0.040214653
0.040466841
0.040571524
0.040923311
0.040057718
0.039851457
0.039855972
0.039860915
0.039866082
0.039871388
0.03987645
0.039880739
0.039884085
0.039886652
0.039889164
0.039892349
0.039896258
0.039899601
0.039902496
0.039904475
0.039908275
0.039917163
0.039935207
0.039969582
0.040018985
0.040070024
0.040116216
0.040079987
0.040023966
0.039962522
0.03993303
0.039915201
0.040090717
0.040037179
0.040291755
0.039935824
0.039929019
0.03992656
0.039924036
0.039920135
0.039914565
0.039907143
0.039897944
0.039887355
0.039876466
0.039866463
0.039858248
0.039852295
0.039848765
0.039847624
0.039848812
0.039852593
0.039860009
0.039875053
0.039905007
0.039954212
0.039994736
0.039979016
0.039916719
0.039854063
0.039796612
0.039781803
0.039775259
0.039823167
0.039796357
0.039858021
0.039977363
0.0036209982
0.005662779
0.0085478744
0.012296338
0.017004076
0.02282301
0.029935292
0.038646951
0.048834838
0.060998548
0.075380034
0.0921994
0.11168882
0.13413152
0.15978825
0.18882998
0.2212617
0.25679978
0.29470386
0.33354845
0.37100542
0.40348994
0.42582537
0.4309775
0.41029089
0.35481678
0.26255731
0.15340869
0.083697403
0.057907066
0.045019662
0.0061779982
0.0089442281
0.012331353
0.016472685
0.021502402
0.027627547
0.035144777
0.044111752
0.054653247
0.067132685
0.081787326
0.098853181
0.11857767
0.14122969
0.16704653
0.19617214
0.22858097
0.26395133
0.30149915
0.33975991
0.37636488
0.40769937
0.42857693
0.4319935
0.40940023
0.35214542
0.25862027
0.15000892
0.082469978
0.057521696
0.044886369
0.0078109673
0.010752564
0.014451509
0.01902536
0.024588235
0.031334459
0.039440987
0.048843496
0.05988321
0.072809103
0.087849407
0.10524938
0.12526625
0.14816069
0.17415438
0.203372
0.23576012
0.27096303
0.30815216
0.34583009
0.38158881
0.41178399
0.43122006
0.43292345
0.40845145
0.34945301
0.25467311
0.14664766
0.08126289
0.057118051
0.044737259
0.0097168712
0.013059499
0.017143567
0.02208693
0.028045786
0.03521763
0.043634474
0.053476124
0.064967253
0.078315751
0.09374102
0.11148612
0.13180465
0.15494635
0.1811196
0.21042942
0.24279626
0.27782852
0.31465705
0.35175419
0.38667394
0.41574275
0.43375627
0.43377209
0.40745256
0.34674138
0.25072477
0.1433397
0.080092485
0.056708612
0.044573224
0.011591082
0.015258748
0.019697734
0.025028483
0.031455118
0.039001474
0.047804059
0.05806983
0.069977812
0.083721976
0.099516261
0.11759656
0.13820848
0.16159178
0.1879398
0.21733768
0.24968027
0.28453518
0.32100327
0.3575237
0.39161469
0.41957387
0.43618798
0.43454623
0.40641425
0.34402282
0.2467897
0.14010372
0.078971291
0.056301097
0.044398508
0.013399742
0.017442449
0.022271153
0.028024692
0.034833043
0.042751095
0.051962906
0.062632711
0.074930309
0.089045805
0.10518849
0.12358617
0.14447829
0.16809267
0.19460686
0.2240875
0.256398
0.29107101
0.32718012
0.36313041
0.39640613
0.42327641
0.43851859
0.43525352
0.4053479
0.34130989
0.24288225
0.13695589
0.077905849
0.055899323
0.044215978
0.015232203
0.019638
0.024845684
0.031030477
0.038183336
0.046491868
0.056097189
0.067150389
0.079816299
0.09428105
0.11075093
0.12944867
0.15060578
0.17443828
0.2011097
0.2306659
0.26293358
0.29742329
0.33317679
0.36856643
0.40104396
0.42685022
0.44075237
0.43590245
0.40426538
0.33861537
0.23901668
0.13390992
0.076899187
0.055505513
0.044027973
0.017018799
0.021791394
0.027393011
0.033961305
0.0414981
0.050194939
0.060181289
0.071600224
0.084615968
0.099411179
0.11618991
0.13517038
0.15657656
0.18061477
0.20743427
0.23705406
0.26927238
0.30357883
0.33898244
0.3738242
0.40552442
0.43029588
0.44289435
0.43650216
0.40317897
0.33595222
0.23520692
0.13097734
0.075952211
0.055121217
0.043840348
0.018780392
0.023915829
0.029917896
0.036829763
0.044758119
0.053836559
0.064189671
0.075959419
0.089307998
0.10441631
0.12148642
0.14073262
0.16237335
0.18660693
0.21356259
0.24323234
0.27539884
0.30952409
0.34458635
0.3788965
0.4098443
0.43361457
0.44495026
0.43706238
0.40210123
0.3333347
0.23146644
0.12816753
0.075064501
0.05474765
0.043658289
0.020507722
0.026002291
0.032381521
0.039647083
0.047952742
0.057396327
0.068100124
0.080204361
0.093868855
0.10927333
0.1266179
0.14611464
0.16797792
0.19239504
0.21947115
0.2491832
0.28129678
0.31524534
0.34997791
0.38377646
0.41400088
0.43680803
0.44692634
0.43759321
0.40104492
0.3307768
0.2278081
0.12548798
0.074234831
0.054385785
0.043485327
0.022198302
0.028049239
0.034769529
0.042399467
0.05106179
0.060851928
0.071888834
0.084310194
0.098273219
0.11395713
0.13156132
0.15129589
0.17336799
0.19795169
0.22513634
0.25488789
0.2869496
0.32072881
0.35514667
0.38845748
0.41799178
0.43987842
0.44882927
0.43810509
0.40002286
0.32829235
0.2242441
0.12294435
0.073461484
0.054036377
0.043323369
0.02385286
0.030039979
0.037086471
0.045064208
0.054063715
0.064180076
0.075531003
0.088251639
0.10249693
0.1184449
0.13629518
0.15625291
0.17851801
0.20325053
0.23053798
0.26032719
0.29234051
0.3259607
0.36008234
0.39293327
0.42181499
0.44282818
0.45066596
0.43860856
0.39904779
0.32589485
0.22078585
0.12054075
0.072742448
0.053699936
0.043173051
0.025464885
0.031964784
0.039325916
0.047624444
0.056943239
0.067362667
0.079007158
0.092008376
0.10651953
0.12271595
0.14079379
0.16095791
0.1833977
0.20826947
0.23565462
0.26548156
0.29745262
0.33092729
0.36477482
0.39719772
0.42546866
0.44565994
0.45244345
0.43911416
0.39813227
0.32359739
0.21744399
0.11827979
0.072075524
0.053376719
0.043033598
0.027041929
0.033830575
0.041490856
0.050074957
0.059682894
0.070385687
0.082301691
0.095561327
0.11031559
0.12674185
0.14502639
0.16537654
0.18797772
0.21298433
0.24046422
0.27033133
0.30226902
0.33561492
0.36921413
0.40124486
0.4289511
0.44837638
0.45416873
0.43963228
0.39728853
0.32141252
0.21422832
0.11616274
0.071458395
0.053066761
0.042903286
0.028511487
0.035557195
0.043488285
0.052351075
0.062235649
0.073217471
0.085383718
0.098876846
0.11384908
0.13047846
0.14895424
0.1694764
0.19223377
0.21737059
0.24494465
0.27485672
0.30677279
0.34000999
0.3733904
0.40506881
0.4322606
0.45098003
0.45584862
0.44017299
0.39652837
0.31935224
0.21114793
0.11418891
0.070887715
0.052769054
0.042780376
0.02979842
0.037091345
0.045277889
0.054415793
0.06455483
0.075780487
0.088186287
0.1018958
0.117071
0.13388722
0.15254347
0.17323266
0.19614015
0.22140407
0.24907375
0.27903798
0.31094707
0.34409899
0.37729383
0.40866365
0.43539536
0.45347322
0.45748957
0.44074593
0.39586301
0.31742781
0.20822124
0.11233613
0.070358012
0.052482322
0.042652497
0.031177728
0.038629894
0.046984351
0.056304553
0.066640357
0.078062912
0.090672232
0.10458445
0.11994924
0.13694529
0.15577113
0.17661949
0.19967164
0.22506084
0.25282943
0.28285544
0.31477507
0.34786843
0.3809146
0.41202337
0.43835337
0.45585788
0.45909749
0.44136012
0.39530301
0.3156497
0.20546572
0.11058532
0.069866389
0.052206519
0.042536311
0.032511996
0.040087897
0.048570635
0.058012945
0.068487727
0.080063291
0.092833323
0.10691596
0.12245747
0.13962836
0.15861295
0.17961165
0.20280342
0.22831719
0.25618983
0.28628958
0.31824008
0.35130484
0.38424283
0.41514172
0.4411323
0.45813551
0.46067761
0.44202386
0.39485811
0.31402746
0.20289769
0.10891894
0.069411115
0.051940888
0.042427854
0.033812008
0.041464388
0.050026677
0.059555449
0.070116867
0.081790982
0.094673925
0.10888299
0.12456214
0.14187645
0.16101383
0.18216372
0.20550075
0.23114917
0.25913333
0.28932107
0.32132549
0.35439474
0.38726851
0.41801221
0.44372941
0.460307
0.46223433
0.44274455
0.39453722
0.31256954
0.20053222
0.10732037
0.068990831
0.05168561
0.042328308
0.035050507
0.042735129
0.051331762
0.060904829
0.071519771
0.083260051
0.096223629
0.11052843
0.12631909
0.1437549
0.16301695
0.18429472
0.20776034
0.23353479
0.26163785
0.29192714
0.32400777
0.35711477
0.38997922
0.42062793
0.44614143
0.46237254
0.4637711
0.44352857
0.3943482
0.31128334
0.19838247
0.10577424
0.068604364
0.051440958
0.042239254
0.036232004
0.043891601
0.0524697
0.062037976
0.072662008
0.084426156
0.097427405
0.11178793
0.12765707
0.14519022
0.16456232
0.18595852
0.20954903
0.23545239
0.26368505
0.29409741
0.32628584
0.3594717
0.39236871
0.42298171
0.44835937
0.46433139
0.46529033
0.44438113
0.39429791
0.31017497
0.19646008
0.10426586
0.068250606
0.051207155
0.042162882
0.037355132
0.044928483
0.053426952
0.062934274
0.073516155
0.08525541
0.098262834
0.11266046
0.12859013
0.14620162
0.16566536
0.18716316
0.21086503
0.23688919
0.26525426
0.29580883
0.32813518
0.36144117
0.39442451
0.42506616
0.45038934
0.46618213
0.46679323
0.44530622
0.39439203
0.30924955
0.19477571
0.10278028
0.067928546
0.050984416
0.04210077
0.038431111
0.045847968
0.054191164
0.063564398
0.074058095
0.085765882
0.098777312
0.11318864
0.12911878
0.14674941
0.16626375
0.18784174
0.21165126
0.23780896
0.2663256
0.29704726
0.32954961
0.36302721
0.39614246
0.42687357
0.45222018
0.46792239
0.46827979
0.44630642
0.39463505
0.30851238
0.19333924
0.10130168
0.067637191
0.050772546
0.042053485
0.039530313
0.046689943
0.054770636
0.06391163
0.074236842
0.08582053
0.098753812
0.11313523
0.12907632
0.146741
0.16631281
0.18797183
0.21188662
0.23817534
0.26684724
0.29774554
0.33044236
0.36412235
0.39743426
0.42832707
0.45377543
0.46947992
0.46970095
0.4473646
0.3950297
0.30796704
0.19216076
0.099812526
0.067375404
0.050570524
0.042020403
0.0036158121
0.0056018852
0.0083551409
0.011951421
0.016486577
0.022009283
0.028812848
0.037137416
0.04695424
0.058698303
0.072636849
0.089018065
0.10812446
0.13020723
0.15554335
0.18432502
0.21657851
0.2520479
0.29002482
0.32913819
0.36708107
0.40028401
0.42357542
0.4299345
0.41065084
0.35657357
0.26545005
0.15606403
0.084684369
0.058234082
0.045097189
0.003839782
0.0058819057
0.0085844325
0.012080045
0.016481364
0.021911139
0.028607343
0.03677946
0.046515788
0.058059789
0.071730919
0.087827767
0.10664328
0.12845796
0.15354254
0.18209318
0.21414888
0.2494713
0.28737395
0.32651075
0.3646056
0.39811517
0.42189009
0.42892203
0.4104826
0.35731755
0.26708426
0.15769646
0.085268017
0.058430609
0.045155356
0.0040771454
0.0061554736
0.008848555
0.012297171
0.016622309
0.021941238
0.028492034
0.036474131
0.0460028
0.057329369
0.070752895
0.08658246
0.10512001
0.12665674
0.15147204
0.17977241
0.21161101
0.2467684
0.2845818
0.32373252
0.36197595
0.3958
0.42007885
0.42781875
0.41027355
0.35807972
0.2687992
0.15943879
0.085889672
0.058631203
0.04519883
0.0043220386
0.0064228332
0.0091052029
0.012507624
0.016756817
0.021969209
0.028373333
0.036170174
0.045494399
0.056594218
0.069764048
0.085317502
0.10356469
0.12480736
0.14933525
0.17736512
0.20896579
0.24393819
0.28164514
0.32079862
0.35918517
0.39333022
0.41813295
0.42661648
0.41001735
0.35885668
0.27059447
0.16129524
0.086543022
0.058826527
0.045224149
0.0045777034
0.0066879569
0.0093562678
0.012713241
0.01688707
0.021995898
0.028253553
0.035869014
0.044988386
0.055857553
0.06876807
0.084037368
0.10198222
0.12291454
0.14713663
0.17487477
0.20621516
0.24098058
0.27856161
0.31770395
0.35622627
0.3906974
0.41604317
0.42530633
0.40970693
0.35964418
0.27246959
0.16327023
0.087264626
0.059032707
0.045254017
0.0048475612
0.0069579565
0.009607811
0.01291848
0.017016893
0.022023733
0.02813574
0.035572943
0.044487094
0.055123668
0.067769346
0.082744391
0.10037377
0.12097704
0.14487315
0.17229541
0.20335015
0.23788383
0.27531729
0.31443242
0.35308448
0.38788694
0.41379686
0.42387838
0.40933619
0.36045316
0.27443454
0.16539165
0.088093925
0.059288766
0.045299958
0.0051286749
0.0072313598
0.0098595738
0.013123825
0.017147818
0.022054499
0.028022637
0.035284555
0.043993799
0.054398453
0.066770634
0.081441577
0.098741929
0.11900391
0.14254552
0.16962637
0.20036868
0.23464432
0.27190684
0.31097694
0.34975214
0.38488899
0.41138383
0.42232295
0.40889752
0.36128593
0.27649333
0.1676764
0.088994032
0.059563882
0.045354449
0.0054316914
0.0075224369
0.010125355
0.013341792
0.017291202
0.022097965
0.027922859
0.035010688
0.043513465
0.053676456
0.065774908
0.080135573
0.097095632
0.11699881
0.14016703
0.16688261
0.19728607
0.23127632
0.26834198
0.30734553
0.34623126
0.38170073
0.4087965
0.42062923
0.4083791
0.3621194
0.27863169
0.17010814
0.089971516
0.05986323
0.045420944
0.0057591312
0.0078342598
0.010408478
0.013575541
0.017449734
0.022155984
0.027840772
0.034753317
0.043048572
0.052961604
0.064787635
0.078831908
0.095440759
0.11496633
0.13774379
0.16407019
0.1941073
0.22778302
0.26462343
0.30353601
0.34251583
0.37831378
0.40602451
0.41878585
0.40777034
0.36294761
0.28084695
0.17269321
0.091034036
0.060193181
0.045506246
0.0061203578
0.0081773962
0.010719284
0.013833852
0.017630889
0.022235486
0.027782932
0.034518217
0.042605965
0.052276285
0.063816768
0.077536994
0.093784005
0.11291697
0.13528268
0.16119615
0.1908385
0.22416886
0.26075324
0.29954736
0.33860142
0.37472011
0.40305745
0.41678094
0.40705961
0.36376399
0.28313567
0.1754372
0.092190804
0.060561798
0.045613443
0.0065247015
0.0085601355
0.01106556
0.014124768
0.017842465
0.022344562
0.027755404
0.034312017
0.042191532
0.051616474
0.062869737
0.076257901
0.092132594
0.11085846
0.1327906
0.15826861
0.187487
0.22043965
0.25673482
0.2953799
0.33448475
0.37091416
0.39988499
0.41460216
0.40623417
0.36456216
0.28549355
0.17834516
0.093452774
0.060978585
0.045743132
0.0069823299
0.0089914805
0.011456713
0.014457318
0.018093934
0.022489799
0.027764634
0.034141498
0.041811744
0.050989625
0.061961306
0.075002233
0.090494099
0.10879952
0.13028643
0.15529706
0.18406132
0.21660257
0.25257311
0.29103539
0.33016371
0.36689051
0.39649684
0.41223676
0.40528022
0.36533154
0.28791519
0.18142146
0.094832513
0.061454346
0.045895762
0.0075023881
0.0094804205
0.011900965
0.014839394
0.018392398
0.022679145
0.027817377
0.034013318
0.041472579
0.050398394
0.061061116
0.073772033
0.088875711
0.10674857
0.12777328
0.15229097
0.18057107
0.21266623
0.2482746
0.28651718
0.3256376
0.36264246
0.39288299
0.40967177
0.40418299
0.36606
0.29039352
0.18466958
0.09634457
0.062001111
0.046073792
0.0080931885
0.010036244
0.012407277
0.01527933
0.018745318
0.022920036
0.027920242
0.033933888
0.041180299
0.049851032
0.060208125
0.072577402
0.087285515
0.10471379
0.12525226
0.14925983
0.17702683
0.2086406
0.24384748
0.28183039
0.32090732
0.35816575
0.38903379
0.40689419
0.40292693
0.36673316
0.29291938
0.18809234
0.098006562
0.062632188
0.046282227
0.0087581462
0.010663216
0.012980938
0.015782785
0.019158384
0.023218321
0.028078787
0.03390891
0.040940965
0.049355681
0.059414153
0.071429567
0.085732457
0.10270439
0.12274058
0.14621382
0.17344012
0.204537
0.23930155
0.27698197
0.31597568
0.35345814
0.38494372
0.40389116
0.40149588
0.36733371
0.29548142
0.19169107
0.099839071
0.06336245
0.046528017
0.0095053931
0.011364927
0.013624545
0.016352475
0.019634689
0.023577551
0.028296762
0.033942737
0.040759398
0.048917316
0.058675139
0.070346043
0.084225849
0.10072944
0.12024835
0.14316131
0.16982348
0.20036799
0.23464827
0.2719808
0.31084745
0.34851904
0.38060754
0.40064984
0.39987424
0.36784197
0.29806584
0.19546485
0.10186514
0.064208869
0.04682125
0.010328339
0.01213888
0.014336786
0.016987827
0.02017443
0.023998713
0.028575651
0.03403758
0.040638485
0.048538592
0.057990375
0.069288067
0.082764981
0.098796373
0.11778701
0.14013689
0.16619148
0.19614725
0.22990065
0.26683771
0.30552953
0.34334968
0.37601752
0.39715764
0.3980474
0.36823589
0.30065641
0.19941036
0.10411126
0.065191463
0.047177331
0.011220325
0.012979089
0.015112736
0.017684839
0.020774364
0.024479019
0.028912917
0.034196731
0.040578513
0.048221044
0.057364993
0.068292767
0.08135877
0.096912839
0.11536505
0.13712977
0.16255601
0.19188906
0.22507304
0.26156543
0.30003098
0.3379535
0.37116953
0.39340212
0.39600069
0.36848982
0.30323726
0.20352156
0.10660756
0.066334619
0.04761877
0.012173163
0.01387781
0.015945293
0.018437126
0.021428955
0.025014196
0.029306358
0.034416107
0.040579153
0.047965469
0.056804256
0.067376074
0.080017722
0.095086851
0.11299045
0.13414708
0.15892843
0.18760806
0.22018095
0.25617844
0.29436315
0.33233644
0.3660625
0.38937757
0.39371604
0.36857895
0.30578967
0.20778944
0.10938705
0.067667741
0.048148149
0.013179219
0.01482794
0.016827724
0.019238372
0.022132591
0.025599909
0.029750241
0.034690048
0.0406376
0.047770492
0.056307565
0.066525273
0.07875748
0.093326628
0.11067153
0.13120734
0.15531888
0.1833191
0.21524076
0.25069284
0.28853956
0.32650691
0.36069736
0.38507834
0.39117291
0.36848199
0.30829242
0.21220159
0.11248427
0.069223299
0.048737806
0.01422901
0.015820781
0.017751917
0.020080912
0.022877919
0.026228736
0.030238576
0.035012127
0.040748947
0.047632301
0.055871135
0.065733618
0.077534294
0.091626355
0.10841303
0.12832002
0.15174746
0.17903819
0.2102695
0.245126
0.28257579
0.3204758
0.35507734
0.38049441
0.38835405
0.36817641
0.31072202
0.21674172
0.11593332
0.071040133
0.049445994
0.015312429
0.016847978
0.01871061
0.02095795
0.023658124
0.026893585
0.030764957
0.035375511
0.040906953
0.047545371
0.055490233
0.064999933
0.076373948
0.089989682
0.10621922
0.12549409
0.14823992
0.17478117
0.20528423
0.23949625
0.27648922
0.31425652
0.34920859
0.37562119
0.38524171
0.36763842
0.31305248
0.2213897
0.11976489
0.07314927
0.050263785
0.016435051
0.017910749
0.019702217
0.021866083
0.024468491
0.027588762
0.031323149
0.035773285
0.041104721
0.047503364
0.055160236
0.064325394
0.075294696
0.088423205
0.10409376
0.12273207
0.14476801
0.17055722
0.2003011
0.23382236
0.27029877
0.30786492
0.34310037
0.37045859
0.38182896
0.36684218
0.31525453
0.22612232
0.12400252
0.075585872
0.05122357
0.017584332
0.018999657
0.020718911
0.022798139
0.025301963
0.028307038
0.031905661
0.036197555
0.041334259
0.047498643
0.054874215
0.063702568
0.074272103
0.086925926
0.10203835
0.1200384
0.14135841
0.1663767
0.19533524
0.22812312
0.26402445
0.30131899
0.3367648
0.36500886
0.37810966
0.36575736
0.31730074
0.23091467
0.12865923
0.078346645
0.052401731
0.018763596
0.020116857
0.021761341
0.023753077
0.026155758
0.029043991
0.032506642
0.036641253
0.041587699
0.047523139
0.054624427
0.063124584
0.073303954
0.085498982
0.10005356
0.11741552
0.13801565
0.16224037
0.19040042
0.22241702
0.257687
0.2946386
0.33021668
0.35927701
0.37407066
0.36436586
0.31916976
0.235739
0.13373383
0.081433093
0.053603006
0.019961185
0.021251488
0.022820105
0.02472266
0.027022185
0.029791866
0.03311788
0.037095559
0.041855647
0.047567227
0.054400989
0.062580308
0.072373282
0.084092706
0.098123484
0.11486096
0.13474739
0.15819781
0.18551522
0.21672248
0.25130748
0.28784507
0.32347339
0.35327158
0.36970584
0.3626534
0.32084049
0.24056103
0.13920956
0.084780456
0.055032388
0.021164672
0.022393489
0.023886827
0.025699791
0.027894927
0.030544509
0.033732798
0.037553079
0.042129621
0.047621732
0.054194414
0.062061193
0.071479136
0.082752915
0.096253006
0.11237386
0.13155354
0.15422351
0.18068904
0.21105632
0.24490681
0.2809608
0.3165546
0.34700433
0.36501401
0.36059213
0.32227812
0.24533733
0.14505343
0.088327908
0.056554877
0.022358345
0.023529521
0.024950637
0.026675735
0.028766814
0.031295597
0.034345181
0.038007171
0.042402016
0.047678391
0.053996202
0.061559304
0.070614196
0.081456299
0.094437693
0.10995212
0.12843191
0.15030989
0.17592802
0.20543356
0.23850546
0.27400888
0.30948187
0.34048971