/*--------------------------------*- C++ -*----------------------------------*\
| =========                 |                                                 |
| \\      /  F ield         | OpenFOAM: The Open Source CFD Toolbox           |
|  \\    /   O peration     | Version:  2406                                  |
|   \\  /    A nd           | Website:  www.openfoam.com                      |
|    \\/     M anipulation  |                                                 |
\*---------------------------------------------------------------------------*/
FoamFile
{
    version     2.0;
    format      ascii;
    arch        "LSB;label=32;scalar=64";
    class       volScalarField;
    location    "0.01";
    object      alphat;
}
// * * * * * * * * * * * * * * * * * * * * * * * * * * * * * * * * * * * * * //

dimensions      [1 -1 -1 0 0 0 0];

internalField   nonuniform List<scalar> 
23203
(
0.054927889
0.060122994
0.065612011
0.071327084
0.077255015
0.08339228
0.089737607
0.096294504
0.10306642
0.1100594
0.11728211
0.12474094
0.13245171
0.14043005
0.14868353
0.15722794
0.16608255
0.17526737
0.18479196
0.062039884
0.067217848
0.072623364
0.078256282
0.084115378
0.090196434
0.096496325
0.1030158
0.10975793
0.11672805
0.1239334
0.13138199
0.13908686
0.1470593
0.15531132
0.16385487
0.17270885
0.18188867
0.19139578
0.06970045
0.074824662
0.080152662
0.085705931
0.091488831
0.097499942
0.10373773
0.11020313
0.11689923
0.1238309
0.13100479
0.13842894
0.14611379
0.15407015
0.16230987
0.17084509
0.1796911
0.18885894
0.19835525
0.07789307
0.082950833
0.088206115
0.093683295
0.09938965
0.10532698
0.11149612
0.11789925
0.12453998
0.13142333
0.13855572
0.14594489
0.15360012
0.16153174
0.16975087
0.17826925
0.18709947
0.19625256
0.20573754
0.08660511
0.091593374
0.096776082
0.10217816
0.10780835
0.11367085
0.11976851
0.12610485
0.13268434
0.13951245
0.14659567
0.1539416
0.16155902
0.16945771
0.17764819
0.18614158
0.19494939
0.2040826
0.21355125
0.095822948
0.10074158
0.10585188
0.11117966
0.11673453
0.12252237
0.12854761
0.13481496
0.1413298
0.14809813
0.15512676
0.16242331
0.16999635
0.17785526
0.18601015
0.19447163
0.20325066
0.21235801
0.22180411
0.10554352
0.11039245
0.11543093
0.1206855
0.12616617
0.13188013
0.13783299
0.14403048
0.15047875
0.1571844
0.16415457
0.17139708
0.17892042
0.18673379
0.19484698
0.20327025
0.21201419
0.22108934
0.23050618
0.11576906
0.12054839
0.12551578
0.13069827
0.13610594
0.14174696
0.14762788
0.15375522
0.16013579
0.16677672
0.17368554
0.18087027
0.18833946
0.19610222
0.20416817
0.21254731
0.22124993
0.23028638
0.23966696
0.12650541
0.13121575
0.13611275
0.14122405
0.14655966
0.15212851
0.15793787
0.16399488
0.17030687
0.17688144
0.18372647
0.19085019
0.19826128
0.20596883
0.21398234
0.22231164
0.2309668
0.23995791
0.24929505
0.13776293
0.14240512
0.14723177
0.15227202
0.15753586
0.16303277
0.16877054
0.17475675
0.18099916
0.18750572
0.19428461
0.20134428
0.20869352
0.21634144
0.22429747
0.2325713
0.2411728
0.25011182
0.25939815
0.14955506
0.15412985
0.15888503
0.16385322
0.16904467
0.17446911
0.18013462
0.18604907
0.1922205
0.19865714
0.20536739
0.21235988
0.21964348
0.22722732
0.23512078
0.24333343
0.25187493
0.2607549
0.26998282
0.16189331
0.16640157
0.17108377
0.17597839
0.18109621
0.18644703
0.19203902
0.19788019
0.20397878
0.21034319
0.21698198
0.22390387
0.23111782
0.23863295
0.24645856
0.25460409
0.26307902
0.2718927
0.28105428
0.17478726
0.17922936
0.18383732
0.18865692
0.19369967
0.19897532
0.20449203
0.21025792
0.21628132
0.22257073
0.22913481
0.23598234
0.24312227
0.25056371
0.25831587
0.26638803
0.27478946
0.28352925
0.29261621
0.18824504
0.19262118
0.19715377
0.20189692
0.20686295
0.21206156
0.21750086
0.223189
0.22913438
0.23534556
0.2418312
0.24860013
0.25566125
0.2630236
0.27069628
0.27868839
0.28700899
0.29566684
0.30467044
0.20227401
0.20658396
0.2110399
0.21570501
0.22059245
0.22571182
0.23107116
0.23667865
0.24254271
0.2486719
0.2550749
0.26176048
0.26873749
0.27601486
0.28360153
0.29150643
0.29973833
0.30830571
0.31721669
0.21688059
0.22112341
0.22550107
0.23008623
0.23489281
0.23993033
0.24520674
0.25073019
0.25650912
0.26255206
0.26886764
0.27546458
0.28235162
0.28953756
0.29703116
0.3048411
0.3129759
0.32144371
0.33025226
0.23206956
0.23624358
0.24054079
0.24504357
0.24976656
0.25471912
0.25990909
0.2653446
0.27103403
0.27698588
0.28320871
0.28971113
0.29650175
0.30358921
0.31098205
0.31868871
0.3267174
0.33507594
0.34377163
0.24784321
0.25194584
0.2561598
0.26057727
0.26521339
0.27007736
0.27517687
0.28051996
0.28611497
0.29197031
0.29809445
0.30449586
0.311183
0.3181643
0.32544807
0.33304248
0.34095543
0.34919435
0.35776614
0.26419851
0.26822698
0.2723548
0.27668385
0.28122953
0.28600084
0.29100534
0.29625101
0.30174609
0.30749891
0.31351779
0.31981106
0.326387
0.33325382
0.34041957
0.34789212
0.35567902
0.36378734
0.37222355
0.28112983
0.2850822
0.28912013
0.29335692
0.29780782
0.30248171
0.30738605
0.31252866
0.31791767
0.32356129
0.32946771
0.33564507
0.34210144
0.34884479
0.3558829
0.36322331
0.37087323
0.37883933
0.38712764
0.29862256
0.30249993
0.30644876
0.3105876
0.31493759
0.31950812
0.32430624
0.32933941
0.33461552
0.34014261
0.34592869
0.35198169
0.35830947
0.36491972
0.37181993
0.3790173
0.38651867
0.3943303
0.40245777
0.31666933
0.32046126
0.32431948
0.32835939
0.33260226
0.33706273
0.34174784
0.34666451
0.35182025
0.35722284
0.36288007
0.36879965
0.37498919
0.38145609
0.38820752
0.39525034
0.402591
0.41023534
0.41818849
0.33525275
0.33895283
0.34270825
0.34664633
0.3507799
0.35512294
0.35968723
0.3644795
0.36950669
0.37477617
0.38029545
0.38607196
0.39211304
0.39842577
0.405017
0.41189323
0.41906049
0.42652421
0.43428906
0.35434106
0.35794803
0.36159308
0.36541578
0.36943594
0.37365865
0.37809401
0.38275325
0.38764307
0.3927703
0.398142
0.40376531
0.40964722
0.41579451
0.42221367
0.4289108
0.43589156
0.44316092
0.45072306
0.37389828
0.37740629
0.38093806
0.38463762
0.38853041
0.39262765
0.39693021
0.40144748
0.40619052
0.41116583
0.41637994
0.42183952
0.42755121
0.43352143
0.4397563
0.44626153
0.45304234
0.46010329
0.46744807
0.39387941
0.39728228
0.40069379
0.40426702
0.40802421
0.4119816
0.41614534
0.42051584
0.42510249
0.42991581
0.43496196
0.44024706
0.44577726
0.45155858
0.45759675
0.46389708
0.47046435
0.47730268
0.48441528
0.41422937
0.41752134
0.42080554
0.42424525
0.42786316
0.43167196
0.4356824
0.4398995
0.44432404
0.44896529
0.45383291
0.45893261
0.46426998
0.46985055
0.4756796
0.48176202
0.48810215
0.49470365
0.50156925
0.43488288
0.43805835
0.44120874
0.44450792
0.44797911
0.45163525
0.45548322
0.45953263
0.4637881
0.46825067
0.47292939
0.47783283
0.48296613
0.48833424
0.49394193
0.49979361
0.50589318
0.51224381
0.51884777
0.45576413
0.45881782
0.46182825
0.46498062
0.46829806
0.47179396
0.47547519
0.47934737
0.48341995
0.48769693
0.49217941
0.49687614
0.50179442
0.50693871
0.51231318
0.5179217
0.52376766
0.52985376
0.53618178
0.47678661
0.47971375
0.48257862
0.48557841
0.488736
0.49206474
0.49557173
0.49926248
0.5031424
0.50722064
0.51150036
0.51598256
0.52067555
0.52558524
0.53071523
0.53606878
0.54164871
0.54745718
0.55349544
0.49785314
0.50064969
0.50336417
0.50620633
0.50919865
0.51235444
0.51568059
0.51918273
0.52286613
0.52673588
0.53080062
0.5350625
0.53952222
0.54418747
0.5490626
0.55415028
0.55945262
0.5649711
0.57070643
0.51885627
0.52151899
0.52407923
0.52675963
0.5295822
0.53256012
0.53570015
0.53900765
0.54248794
0.54614597
0.54998628
0.55401686
0.5582387
0.56265173
0.56726289
0.57207507
0.57708948
0.58230663
0.58772647
0.53967881
0.54220547
0.5446087
0.54712432
0.54977373
0.55256998
0.5555197
0.55862801
0.56189998
0.56534058
0.56895423
0.57274483
0.5767195
0.58087729
0.58521724
0.58974631
0.59446431
0.59937016
0.60446249
0.56019476
0.56258417
0.56482887
0.56717788
0.56965196
0.57226397
0.57502041
0.57792626
0.58098633
0.58420536
0.58758784
0.59113765
0.59485796
0.59875192
0.60282055
0.60706268
0.6114792
0.61606632
0.62081919
0.58027044
0.58252254
0.58460848
0.58679034
0.58908819
0.5915147
0.59407626
0.59677767
0.59962357
0.6026185
0.60576669
0.60907172
0.61253675
0.61616811
0.6199646
0.62392142
0.6280375
0.63230532
0.63670778
0.59976592
0.60188176
0.60381006
0.60582552
0.60794756
0.61018866
0.61255509
0.61505152
0.61768246
0.62045238
0.62336555
0.62642601
0.62963717
0.63300186
0.63652595
0.64020829
0.64404294
0.64801982
0.65208835
0.6185367
0.62051842
0.62229148
0.62414259
0.62609049
0.62814749
0.63031972
0.63261169
0.63502778
0.63757235
0.64024965
0.64306387
0.64601929
0.64912028
0.65237197
0.65578617
0.65937601
0.66317571
0.63643561
0.63828638
0.6399079
0.64159793
0.64337464
0.6452501
0.64723029
0.64931951
0.65152191
0.65384163
0.65628272
0.65884911
0.66154469
0.66437352
0.66733958
0.67044711
0.67370402
0.67710775
0.6533149
0.65503886
0.65651369
0.65804713
0.65965679
0.66135453
0.66314609
0.66503551
0.66702661
0.66912318
0.67132885
0.67364706
0.67608097
0.6786335
0.68130722
0.68410387
0.6870235
0.69006299
0.6690283
0.67063044
0.67196459
0.67334707
0.67479504
0.67632012
0.67792781
0.6796218
0.68140556
0.68328243
0.68525556
0.6873278
0.6895016
0.69177894
0.69416115
0.69664846
0.69924007
0.70193704
0.68343312
0.68491919
0.68611962
0.68735782
0.68865057
0.69000931
0.69143922
0.69294365
0.69452566
0.69618815
0.69793382
0.69976499
0.70168355
0.70369086
0.70578767
0.70797402
0.7102486
0.71260844
0.69639217
0.69776848
0.69884298
0.69994449
0.70108951
0.7022893
0.70354875
0.70487083
0.70625816
0.70771325
0.70923834
0.7108353
0.71250554
0.71424996
0.71606887
0.71796191
0.719928
0.72196448
0.70777543
0.70904874
0.71000569
0.7109788
0.71198439
0.71303357
0.7141309
0.71527896
0.71647998
0.71773604
0.71904896
0.72042021
0.72185078
0.72334118
0.72489138
0.72650072
0.72816785
0.7298903
0.71746155
0.71863882
0.719487
0.72034046
0.72121551
0.72212308
0.72306742
0.72405069
0.72507472
0.72614118
0.7272515
0.72840671
0.72960745
0.73085386
0.73214554
0.73348155
0.73486026
0.73627882
0.72533895
0.72642717
0.72717545
0.72791829
0.72867201
0.72944741
0.7302484
0.73107673
0.73193379
0.73282086
0.73373896
0.73468876
0.7356705
0.73668398
0.73772847
0.73880273
0.73990488
0.74103193
0.7313066
0.73231257
0.73296971
0.73361091
0.73425261
0.73490547
0.735573
0.73625653
0.73695705
0.7376754
0.73841222
0.73916779
0.73994197
0.74073419
0.7415434
0.74236804
0.74320596
0.74405389
0.73527438
0.73620455
0.73677894
0.73732725
0.73786609
0.73840593
0.7389499
0.73949887
0.7400534
0.74061393
0.74118068
0.74175355
0.74233203
0.74291518
0.7435016
0.74408942
0.7446762
0.74525843
0.73716302
0.73802335
0.7385228
0.73898651
0.73943129
0.73986735
0.74029741
0.74072188
0.74114088
0.74155444
0.74196237
0.74236418
0.74275897
0.74314544
0.74352184
0.74388598
0.74423511
0.74456545
0.73690366
0.73769945
0.73813103
0.73851781
0.73887676
0.7392178
0.73954317
0.73985283
0.74014644
0.74042363
0.74068382
0.74092609
0.74114918
0.74135142
0.7415307
0.74168451
0.7418098
0.74190251
0.73443687
0.73517274
0.73554265
0.73585939
0.73614004
0.73639415
0.73662345
0.73682742
0.73700529
0.73715629
0.73727942
0.73737338
0.73743652
0.7374668
0.73746179
0.73741864
0.73733402
0.73720359
0.72971144
0.73039124
0.73070468
0.7309574
0.73116649
0.73134099
0.7314821
0.73158881
0.73165996
0.73169433
0.73169055
0.73164694
0.73156146
0.73143173
0.73125497
0.73102801
0.73074724
0.73040809
0.72268266
0.72330947
0.72357064
0.72376444
0.72390781
0.72400919
0.72406915
0.72408626
0.72405892
0.72398554
0.72386435
0.7236933
0.72346999
0.72319169
0.72285529
0.72245733
0.72199394
0.72146029
0.71331038
0.71388654
0.71409862
0.71423769
0.71432031
0.71435413
0.71433915
0.71427345
0.71415506
0.71398202
0.71375218
0.71346313
0.71311213
0.71269611
0.71221168
0.71165507
0.71102217
0.71030795
0.7015569
0.70208405
0.70224929
0.70233691
0.70236287
0.70233387
0.70224926
0.70210671
0.70190388
0.70163845
0.70130794
0.70090959
0.70044034
0.69989682
0.69927533
0.69857188
0.69778212
0.69690083
0.68738472
0.68786395
0.68798371
0.6880224
0.68799499
0.68790707
0.68775734
0.68754307
0.68726159
0.68691027
0.68648629
0.68598659
0.68540781
0.68474631
0.68399813
0.68315906
0.68222454
0.68118922
0.67075448
0.67118643
0.67126141
0.67125299
0.67117483
0.67103116
0.67082007
0.67053847
0.6701834
0.66975193
0.66924095
0.66864712
0.66796682
0.66719616
0.66633099
0.66536689
0.66429916
0.66312234
0.65162314
0.65200816
0.65203865
0.65198448
0.65185757
0.65166073
0.65139142
0.65104623
0.65062196
0.6501154
0.64952319
0.64884175
0.64806724
0.6471956
0.64622249
0.64514336
0.6439534
0.64264707
0.62994343
0.63028151
0.63026804
0.63016899
0.62999472
0.62974667
0.62942167
0.62901602
0.6285263
0.62794906
0.62728074
0.62651758
0.62565557
0.62469051
0.62361794
0.62243322
0.62113147
0.61970713
0.60565861
0.60594815
0.60589109
0.60574901
0.6055297
0.60523289
0.6048549
0.60439188
0.60384026
0.60319649
0.60245687
0.60161753
0.60067436
0.59962309
0.59845919
0.59717797
0.59577452
0.59424331
0.57870642
0.57894755
0.57884763
0.57866487
0.57840304
0.57805995
0.57763158
0.57711415
0.57650411
0.57579786
0.57499167
0.57408162
0.57306359
0.57193326
0.57068609
0.56931736
0.56782217
0.56619502
0.54902614
0.54922161
0.54908074
0.5488588
0.54855584
0.54816814
0.5476916
0.54712259
0.54645762
0.54569312
0.54482535
0.5438504
0.54276413
0.54156222
0.54024009
0.53879305
0.53721617
0.53550403
0.51655921
0.51671232
0.51653375
0.51627429
0.51593146
0.51550094
0.51497882
0.51436164
0.51364595
0.51282818
0.5119046
0.5108713
0.50972413
0.50845872
0.50707052
0.50555478
0.50390659
0.50212056
0.48125968
0.48137524
0.48116593
0.48087082
0.48048906
0.48001768
0.47945315
0.47879194
0.47803056
0.47716539
0.47619267
0.47510841
0.47390844
0.47258835
0.47114352
0.46956918
0.4678604
0.46601184
0.44310579
0.4431856
0.44295117
0.44262385
0.44220682
0.44169923
0.44109777
0.44039874
0.4395985
0.43869337
0.4376795
0.43655286
0.43530919
0.43394404
0.43245274
0.43083048
0.42907232
0.42717297
0.40210731
0.40215575
0.40190043
0.40154675
0.40110172
0.40056582
0.39993565
0.3992073
0.39837702
0.39744108
0.39639556
0.39523638
0.39395923
0.39255964
0.39103291
0.38937423
0.38757865
0.38564097
0.35832033
0.35834149
0.35807286
0.35770382
0.35724281
0.35669045
0.35604318
0.35529703
0.35444824
0.35349305
0.35242756
0.35124768
0.34994912
0.34852742
0.34697792
0.34529583
0.34347629
0.34151422
0.31188248
0.31188054
0.3116092
0.31124006
0.31077907
0.31022584
0.30957676
0.30882795
0.30797571
0.30701633
0.30594593
0.30476047
0.30345571
0.30202727
0.30047058
0.29878096
0.29695367
0.29498389
0.26305951
0.26304739
0.26279107
0.26243951
0.26199633
0.26146036
0.26082796
0.2600953
0.25925868
0.25831435
0.25725845
0.25608698
0.25479577
0.25338054
0.25183687
0.25016027
0.24834625
0.24639032
0.21235316
0.2123456
0.21212459
0.21181137
0.21140734
0.21091062
0.21031755
0.2096243
0.20882714
0.20792228
0.20690586
0.20577392
0.2045224
0.20314717
0.20164407
0.20000893
0.19823762
0.1963262
0.16068089
0.16069501
0.16053181
0.16027969
0.1599383
0.15950538
0.15897748
0.15835091
0.15762202
0.15678707
0.1558423
0.15478384
0.15360787
0.15231052
0.15088803
0.14933673
0.14765317
0.14583405
0.10977161
0.10982042
0.10973256
0.10956018
0.10930221
0.10895673
0.10852094
0.1079917
0.10736574
0.10663966
0.10581002
0.10487335
0.10382628
0.10266553
0.10138807
0.099991166
0.098472437
0.096829565
0.063015898
0.063082542
0.063059074
0.06296419
0.062796653
0.062554871
0.062236762
0.061839854
0.061361497
0.060799008
0.06014976
0.059411239
0.058581079
0.057657123
0.056637539
0.055521011
0.05430698
0.052994215
0.026734764
0.026772631
0.026780605
0.026750847
0.026676928
0.026555297
0.026384734
0.026164184
0.025892476
0.025568553
0.025191655
0.02476135
0.024277418
0.023739711
0.023148219
0.022503198
0.021806936
0.021061584
0.0084910708
0.0085448005
0.0085726597
0.0085807167
0.008571754
0.0085468035
0.0085063802
0.0084508147
0.0083804361
0.0082956205
0.0081968286
0.0080844866
0.0079593432
0.0078222776
0.00767426
0.0075164163
0.0073502872
0.0071771793
0.0047697772
0.0047853526
0.004797339
0.0048074163
0.004816157
0.0048235038
0.0048294188
0.004833951
0.0048371641
0.0048391125
0.0048398486
0.0048394135
0.0048378539
0.00483534
0.0048320148
0.0048279986
0.0048235306
0.004818681
0.0044470969
0.0044563256
0.0044651818
0.0044738697
0.0044829679
0.0044923815
0.004501933
0.0045115248
0.0045211202
0.0045307083
0.0045402892
0.004549867
0.0045594464
0.0045690322
0.0045786285
0.0045882511
0.0045979386
0.0043988478
0.004408913
0.0044177709
0.0044260647
0.0044344959
0.0044431239
0.0044519142
0.0044608664
0.0044699913
0.0044792892
0.0044887467
0.0044983403
0.0045080404
0.0045178163
0.0045276424
0.0045375107
0.0045474347
0.0043730975
0.0043820753
0.0043901227
0.0043978017
0.0044057164
0.0044139022
0.0044223007
0.0044308799
0.0044396245
0.0044485195
0.0044575473
0.0044666884
0.0044759212
0.0044852235
0.0044945754
0.0045039663
0.004513393
0.0043533569
0.0043618947
0.0043695973
0.0043769172
0.0043843793
0.0043920271
0.0043998304
0.0044077846
0.0044158956
0.0044241637
0.0044325805
0.0044411302
0.0044497914
0.0044585389
0.0044673475
0.0044761979
0.0044850741
0.0043385562
0.0043462171
0.0043532092
0.0043599222
0.0043668185
0.0043739376
0.0043812475
0.0043887329
0.0043963869
0.004404199
0.0044121535
0.0044202304
0.0044284069
0.0044366581
0.0044449592
0.0044532893
0.0044616241
0.0043271325
0.0043342088
0.0043407858
0.00434712
0.0043536003
0.0043602681
0.0043671002
0.004374087
0.0043812274
0.0043885171
0.004395946
0.0044034989
0.0044111558
0.0044188931
0.0044266854
0.004434508
0.0044423292
0.0043188969
0.0043253529
0.0043313944
0.0043372518
0.0043432652
0.0043494719
0.004355851
0.0043623922
0.0043690904
0.0043759374
0.00438292
0.0043900207
0.0043972186
0.0044044897
0.0044118087
0.0044191494
0.0044264757
0.0043130222
0.0043190034
0.0043246274
0.0043301167
0.0043357493
0.0043415579
0.0043475257
0.0043536445
0.0043599112
0.0043663194
0.0043728583
0.0043795127
0.0043862631
0.0043930867
0.0043999583
0.0044068496
0.0044137207
0.0043092666
0.0043147716
0.0043199786
0.0043250903
0.0043303464
0.0043357754
0.0043413624
0.0043470988
0.00435298
0.0043589982
0.0043651415
0.0043713942
0.0043777368
0.0043841471
0.0043905997
0.0043970663
0.0044035046
0.0043071551
0.0043122628
0.0043171185
0.0043219088
0.0043268364
0.0043319264
0.0043371658
0.0043425474
0.004348067
0.0043537177
0.0043594886
0.0043653651
0.0043713287
0.0043773578
0.0043834275
0.0043895085
0.0043955565
0.0043065043
0.0043112438
0.004315773
0.0043202617
0.0043248848
0.0043296644
0.0043345887
0.0043396505
0.0043448448
0.0043501642
0.0043555975
0.0043611302
0.0043667442
0.0043724185
0.0043781288
0.0043838455
0.0043895237
0.0043070463
0.0043114637
0.0043157055
0.0043199255
0.0043242746
0.0043287722
0.0043334078
0.0043381748
0.0043430684
0.0043480815
0.0043532034
0.0043584203
0.0043637149
0.0043690668
0.004374452
0.004379841
0.0043851881
0.0043086997
0.004312825
0.0043168052
0.0043207798
0.0043248799
0.0043291222
0.0043334969
0.0043379974
0.0043426184
0.0043473527
0.0043521896
0.0043571154
0.0043621134
0.0043671638
0.0043722435
0.004377323
0.0043823567
0.0043113446
0.0043152043
0.0043189473
0.004322699
0.0043265721
0.0043305808
0.0043347157
0.0043389706
0.0043433401
0.0043478171
0.0043523914
0.0043570497
0.004361776
0.0043665512
0.0043713527
0.0043761514
0.0043809016
0.0043149761
0.0043186022
0.0043221325
0.0043256829
0.0043293511
0.0043331482
0.0043370652
0.0043410959
0.0043452351
0.0043494756
0.0043538072
0.0043582171
0.0043626896
0.0043672064
0.0043717454
0.0043762784
0.00438076
0.0043196072
0.0043230223
0.0043263638
0.0043297307
0.00433321
0.0043368111
0.0043405258
0.0043443482
0.0043482734
0.0043522942
0.0043564006
0.00436058
0.0043648171
0.0043690939
0.0043733896
0.0043776767
0.0043819104
0.0043253441
0.0043285668
0.0043317346
0.0043349327
0.0043382383
0.0043416594
0.0043451883
0.0043488193
0.0043525472
0.0043563647
0.0043602616
0.0043642253
0.0043682406
0.0043722903
0.0043763543
0.0043804067
0.0043844042
0.0043323023
0.0043353479
0.0043383557
0.0043413974
0.0043445419
0.0043477957
0.0043511515
0.0043546036
0.0043581468
0.0043617735
0.0043654734
0.0043692337
0.0043730392
0.004376873
0.0043807163
0.0043845456
0.00438832
0.0043406572
0.0043435401
0.0043464002
0.0043492972
0.0043522922
0.0043553905
0.0043585851
0.0043618702
0.0043652404
0.0043686879
0.0043722018
0.0043757689
0.0043793735
0.0043829987
0.0043866271
0.0043902387
0.004393798
0.0043506111
0.0043533417
0.0043560631
0.0043588236
0.0043616774
0.0043646285
0.0043676702
0.0043707968
0.0043740024
0.0043772786
0.0043806144
0.0043839955
0.0043874054
0.0043908265
0.0043942424
0.0043976384
0.0044009898
0.0043623933
0.0043649798
0.0043675697
0.0043702005
0.0043729197
0.0043757307
0.0043786265
0.0043816015
0.0043846492
0.004387761
0.0043909247
0.0043941252
0.0043973442
0.0044005624
0.0044037629
0.0044069375
0.0044100828
0.0043762495
0.0043786961
0.004381158
0.0043836619
0.0043862497
0.0043889234
0.0043916765
0.0043945028
0.0043973957
0.0044003456
0.0044033399
0.0044063619
0.0044093912
0.0044124046
0.0044153815
0.0044183169
0.0044212447
0.0043924207
0.0043947289
0.0043970635
0.0043994409
0.0044018975
0.0044044347
0.0044070456
0.004409724
0.0044124625
0.0044152512
0.0044180765
0.0044209202
0.0044237594
0.0044265654
0.0044293071
0.004431967
0.0044346111
0.0044111338
0.004413301
0.004415505
0.0044177522
0.0044200742
0.0044224712
0.0044249364
0.0044274633
0.0044300439
0.0044326677
0.0044353203
0.0044379826
0.0044406292
0.0044432263
0.0044457274
0.0044480659
0.0044325687
0.0044345895
0.0044366568
0.0044387673
0.0044409482
0.0044431987
0.0044455121
0.0044478812
0.0044502977
0.0044527503
0.004455224
0.0044576991
0.0044601492
0.004462539
0.0044648201
0.0044669253
0.0044568392
0.0044587054
0.0044606268
0.0044625912
0.0044646214
0.004466716
0.0044688679
0.0044710698
0.0044733125
0.0044755844
0.0044778698
0.0044801483
0.0044823928
0.0044845666
0.0044866194
0.0044884815
0.0044839535
0.0044856557
0.0044874208
0.0044892282
0.0044910969
0.0044930247
0.0044950045
0.0044970283
0.0044990866
0.0045011671
0.0045032538
0.0045053258
0.0045073552
0.0045093044
0.0045111216
0.0045127349
0.0045137877
0.0045153168
0.0045169148
0.004518554
0.00452025
0.0045219999
0.0045237962
0.0045256306
0.0045274933
0.0045293716
0.004531249
0.0045331044
0.0045349098
0.0045366269
0.004538203
0.0045395652
0.0045460497
0.0045473985
0.0045488209
0.0045502827
0.0045517967
0.0045533593
0.0045549629
0.0045565989
0.0045582571
0.0045599245
0.0045615847
0.0045632165
0.0045647921
0.0045662733
0.0045676074
0.0045687211
0.0045802611
0.0045814266
0.0045826682
0.0045839472
0.0045852735
0.0045866432
0.0045880485
0.0045894805
0.004590929
0.0045923809
0.00459382
0.0045952256
0.0045965705
0.0045978173
0.0045989143
0.0045997893
0.0046157477
0.0046167324
0.0046177936
0.0046188897
0.0046200283
0.0046212051
0.0046224122
0.0046236408
0.0046248805
0.0046261186
0.0046273392
0.0046285226
0.0046296428
0.0046306643
0.0046315371
0.0046321918
0.0046516574
0.0046524704
0.0046533579
0.0046542775
0.0046552348
0.0046562251
0.0046572409
0.0046582734
0.0046593123
0.0046603452
0.0046613574
0.0046623301
0.0046632394
0.0046640523
0.0046647222
0.004665184
0.0046870036
0.0046876601
0.0046883874
0.0046891435
0.0046899327
0.0046907503
0.0046915887
0.0046924394
0.0046932928
0.0046941369
0.0046949581
0.0046957394
0.0046964593
0.0046970882
0.0046975844
0.0046978883
0.0047207396
0.0047212604
0.0047218462
0.0047224578
0.0047230979
0.0047237619
0.0047244428
0.0047251325
0.0047258217
0.0047264996
0.0047271536
0.0047277688
0.0047283266
0.0047288019
0.0047291589
0.0047293453
0.0047518586
0.0047522677
0.0047527345
0.0047532239
0.0047537378
0.0047542716
0.0047548188
0.004755372
0.0047559227
0.004756461
0.0047569756
0.0047574538
0.0047578802
0.0047582348
0.004758489
0.0047585994
0.0047795041
0.0047798259
0.0047801973
0.0047805882
0.0047809997
0.0047814278
0.0047818665
0.0047823091
0.0047827481
0.0047831745
0.0047835784
0.0047839491
0.0047842744
0.0047845398
0.0047847251
0.0047847977
0.0048030727
0.0048033299
0.004803628
0.0048039427
0.0048042745
0.0048046199
0.0048049738
0.0048053303
0.0048056827
0.0048060232
0.0048063433
0.0048066337
0.0048068849
0.0048070877
0.0048072312
0.0048072969
0.0048222837
0.0048224948
0.0048227385
0.0048229959
0.0048232674
0.0048235499
0.0048238392
0.0048241304
0.0048244179
0.004824695
0.0048249541
0.0048251872
0.0048253866
0.0048255463
0.0048256644
0.0048257419
0.0048371943
0.0048373736
0.0048375776
0.0048377927
0.0048380192
0.0048382545
0.0048384953
0.0048387379
0.0048389775
0.0048392089
0.0048394256
0.0048396204
0.0048397858
0.0048399158
0.0048400116
0.0048400956
0.0048481569
0.004848314
0.0048484892
0.0048486732
0.0048488661
0.0048490661
0.0048492706
0.004849477
0.0048496817
0.0048498808
0.0048500694
0.0048502412
0.0048503889
0.0048505029
0.004850571
0.0048557276
0.0048558689
0.004856023
0.0048561839
0.0048563517
0.0048565251
0.0048567025
0.0048568819
0.0048570612
0.0048572376
0.0048574078
0.0048575679
0.0048577133
0.0048578381
0.0048579352
0.0048605593
0.0048606885
0.0048608266
0.0048609699
0.0048611186
0.0048612718
0.0048614287
0.004861588
0.0048617483
0.0048619081
0.0048620652
0.0048622176
0.0048623623
0.0048624962
0.0048626153
0.0048633077
0.0048634264
0.0048635513
0.0048636803
0.0048638136
0.0048639509
0.0048640916
0.0048642351
0.0048643807
0.0048645275
0.0048646744
0.0048648202
0.0048649635
0.0048651028
0.0048652361
0.0048645726
0.0048646807
0.0048647932
0.0048649092
0.0048650288
0.0048651519
0.0048652784
0.0048654081
0.0048655406
0.0048656755
0.0048658123
0.0048659503
0.0048660892
0.0048662282
0.0048663666
0.0048648711
0.0048649673
0.004865067
0.0048651697
0.0048652756
0.0048653847
0.0048654971
0.0048656127
0.0048657316
0.0048658535
0.0048659782
0.0048661055
0.0048662352
0.0048663674
0.0048665019
0.0048646213
0.0048647058
0.0048647927
0.0048648819
0.0048649737
0.0048650683
0.0048651659
0.0048652666
0.0048653704
0.0048654774
0.0048655875
0.0048657006
0.0048658169
0.0048659365
0.0048660596
0.0048641386
0.00486421
0.0048642834
0.0048643589
0.0048644366
0.0048645166
0.0048645992
0.0048646844
0.0048647724
0.0048648633
0.0048649571
0.0048650539
0.0048651538
0.0048652572
0.0048653644
0.004863624
0.0048636826
0.0048637431
0.0048638054
0.0048638694
0.0048639353
0.0048640031
0.0048640728
0.0048641448
0.0048642191
0.0048642958
0.0048643752
0.0048644574
0.0048645428
0.0048646317
0.0048631871
0.0048632326
0.0048632804
0.0048633298
0.0048633806
0.0048634324
0.0048634851
0.004863539
0.0048635943
0.0048636512
0.00486371
0.004863771
0.0048638344
0.0048639006
0.0048639696
0.0048628848
0.0048629181
0.0048629542
0.0048629916
0.0048630295
0.0048630671
0.0048631043
0.0048631414
0.0048631789
0.0048632174
0.0048632573
0.004863299
0.0048633428
0.0048633886
0.0048634364
0.0048626894
0.0048627139
0.0048627414
0.0048627693
0.0048627959
0.0048628205
0.0048628431
0.0048628644
0.0048628853
0.0048629067
0.0048629291
0.0048629529
0.0048629782
0.0048630051
0.0048626215
0.0048626406
0.0048626596
0.004862677
0.0048626916
0.0048627036
0.0048627136
0.0048627226
0.0048627316
0.004862741
0.0048627514
0.0048627629
0.0048627756
0.0048627893
0.0059202002
0.0071540368
0.0085673224
0.010158028
0.011926961
0.013876443
0.016009885
0.018331606
0.020846795
0.023561306
0.026481204
0.029612557
0.032961425
0.036533802
0.040335347
0.044370692
0.048642921
0.053153151
0.057912387
0.0065296951
0.0079308334
0.0095026433
0.011246974
0.013166451
0.015264154
0.017544078
0.020011169
0.022671169
0.025530291
0.028594748
0.031870584
0.035363632
0.039079528
0.043023416
0.047199052
0.051607795
0.056249842
0.0073385577
0.0088977351
0.010625006
0.012521815
0.014590952
0.016836002
0.019261606
0.021873281
0.024677146
0.027679539
0.030886655
0.034304413
0.037938621
0.041794751
0.045877531
0.05018985
0.054732315
0.059515244
0.0082813622
0.0099925892
0.01187063
0.013916285
0.016132566
0.018523487
0.021094121
0.023850253
0.02679805
0.029943744
0.033293437
0.036853096
0.040628523
0.044624987
0.048846617
0.053295416
0.057972016
0.0093177625
0.011175095
0.013198922
0.015389756
0.017750843
0.020286466
0.023001849
0.025902752
0.028995189
0.032285218
0.035778856
0.03948203
0.04340039
0.047538872
0.051901077
0.056488845
0.061310784
0.010416592
0.012415576
0.014581641
0.016915272
0.019419837
0.022099688
0.024959982
0.028006292
0.031244398
0.034680162
0.038319464
0.042168077
0.046231407
0.050513993
0.055018895
0.059747782
0.011553391
0.01369163
0.015998229
0.018473774
0.021121603
0.023945967
0.026951826
0.030144498
0.033529512
0.03711251
0.040899196
0.044895141
0.04910549
0.053534454
0.058185014
0.0630639
0.012709809
0.014986865
0.017433959
0.020051816
0.022843607
0.025813376
0.028965828
0.032306013
0.035839226
0.03957089
0.043506537
0.047651532
0.052010796
0.056588151
0.061386067
0.013872987
0.016289914
0.018878667
0.021640101
0.024577128
0.027693537
0.030993769
0.034482641
0.038165257
0.042046834
0.046132796
0.050428339
0.054938343
0.059666511
0.064617636
0.015034536
0.017593299
0.020325569
0.023232293
0.026316069
0.029580432
0.033029596
0.036668219
0.040501256
0.044533725
0.048771138
0.053218499
0.057880714
0.062760974
0.016189345
0.018892316
0.021770235
0.024824056
0.028056055
0.03146957
0.035068646
0.038857915
0.042842192
0.047026192
0.051415943
0.056016216
0.060831336
0.06586705
0.017334536
0.020184139
0.02320977
0.02641231
0.029793783
0.033357458
0.037107213
0.041047747
0.045183856
0.049519617
0.0540614
0.058814713
0.063784058
0.068974119
0.018468731
0.021467254
0.02464222
0.027994778
0.031526654
0.035241346
0.039142379
0.043233746
0.047521174
0.052009168
0.056703497
0.061609564
0.066732218
0.019591619
0.022740624
0.026066208
0.029569814
0.033252545
0.037118141
0.04117017
0.045412839
0.04985144
0.054491011
0.059337229
0.064395572
0.069670511
0.020702806
0.024003359
0.027480462
0.03113533
0.034969284
0.038985718
0.043188338
0.047581624
0.052170723
0.056961003
0.061958294
0.067168553
0.072595502
0.021802011
0.025254843
0.028883911
0.032690075
0.036674905
0.040841602
0.045194067
0.049736948
0.054475477
0.059415267
0.064562359
0.069923392
0.022889519
0.026494834
0.030275669
0.034232704
0.038367595
0.042683552
0.047184668
0.05187576