/*--------------------------------*- C++ -*----------------------------------*\
| =========                 |                                                 |
| \\      /  F ield         | OpenFOAM: The Open Source CFD Toolbox           |
|  \\    /   O peration     | Version:  2406                                  |
|   \\  /    A nd           | Website:  www.openfoam.com                      |
|    \\/     M anipulation  |                                                 |
\*---------------------------------------------------------------------------*/
FoamFile
{
    version     2.0;
    format      ascii;
    arch        "LSB;label=32;scalar=64";
    class       volScalarField;
    location    "0.01";
    object      p;
}
// * * * * * * * * * * * * * * * * * * * * * * * * * * * * * * * * * * * * * //

dimensions      [1 -1 -2 0 0 0 0];

internalField   nonuniform List<scalar> 
23203
(
101982.25
101867.09
101798.29
101721.62
101642.43
101566.97
101496.52
101432.64
101373.8
101319.67
101270.44
101223.38
101181.48
101146.14
101112.74
101081.14
101052.37
101027.67
101005
102137.28
102047.73
101963.96
101873.95
101786.93
101705.68
101629.82
101559.38
101493.91
101433.16
101376.89
101324.3
101276.98
101233.92
101194.19
101156.32
101122.44
101093.21
101065.71
102206.79
102128.55
102037.55
101944.28
101856.15
101774.06
101697.27
101625.54
101558.63
101496.29
101438.31
101384.42
101334.92
101289.36
101247.25
101208.01
101172.66
101140.46
101110.76
102262.72
102186.73
102096.82
102004.8
101917.35
101835.4
101758.44
101686.21
101618.54
101555.26
101496.19
101441.14
101390.09
101342.83
101299.03
101258.4
101221.1
101186.8
101155.26
102310.53
102235.51
102148.34
102058.87
101973.02
101892.02
101815.55
101743.4
101675.46
101611.63
101551.76
101495.74
101443.47
101394.79
101349.48
101307.34
101268.32
101232.25
101198.95
102347.67
102273.93
102189.97
102103.72
102020.26
101940.95
101865.65
101794.21
101726.59
101662.74
101602.57
101545.99
101492.93
101443.24
101396.79
101353.42
101313.05
101275.51
101240.71
102375.6
102303.17
102222.74
102140.2
102059.71
101982.68
101909.1
101838.91
101772.13
101708.74
101648.71
101592
101538.54
101488.24
101441.01
101396.72
101355.3
101316.59
101280.53
102395.42
102324.51
102247.94
102169.47
102092.34
102017.99
101946.55
101878.03
101812.48
101749.95
101690.44
101633.95
101580.45
101529.88
101482.18
101437.27
101395.06
101355.45
101318.39
102408.14
102339.33
102266.87
102192.61
102119.02
102047.58
101978.53
101911.96
101847.94
101786.58
101727.9
101671.94
101618.7
101568.16
101520.27
101475
101432.28
101392.01
101354.18
102415.89
102349.79
102281.22
102210.87
102140.7
102072.18
102005.62
101941.14
101878.86
101818.87
101761.27
101706.09
101653.37
101603.12
101555.31
101509.92
101466.92
101426.23
101387.85
102420.77
102357.93
102292.53
102225.38
102158.24
102092.47
102028.36
101966.01
101905.56
101847.11
101790.75
101736.56
101684.58
101634.83
101587.32
101542.05
101498.99
101458.09
101419.37
102422.71
102363.87
102301.07
102236.52
102172.07
102108.87
102047.13
101986.92
101928.35
101871.53
101816.56
101763.51
101712.44
101663.39
101616.38
101571.41
101528.49
101487.58
101448.71
102421.17
102366.75
102306.42
102244.28
102182.36
102121.63
102062.21
102004.12
101947.47
101892.36
101838.88
101787.1
101737.09
101688.89
101642.54
101598.07
101555.46
101514.71
101475.87
102415.86
102366.16
102308.39
102248.65
102189.22
102130.92
102073.79
102017.84
101963.14
101909.79
101857.88
101807.48
101758.65
101711.45
101665.91
101622.07
101579.94
101539.52
101500.86
102406.97
102362.05
102306.95
102249.68
102192.75
102136.89
102082.06
102028.25
101975.54
101924.01
101873.74
101824.8
101777.26
101731.16
101686.56
101643.49
101601.99
101562.04
101523.71
102394.97
102354.61
102302.27
102247.52
102193.13
102139.71
102087.19
102035.55
101984.85
101935.19
101886.62
101839.21
101793.04
101748.15
101704.6
101662.43
101621.66
101582.31
101544.45
102380.37
102344.19
102294.57
102242.37
102190.51
102139.54
102089.35
102039.9
101991.25
101943.49
101896.67
101850.87
101806.14
101762.55
101720.14
101678.96
101639.05
101600.42
101563.13
102363.58
102331
102284.02
102234.37
102185.07
102136.57
102088.72
102041.48
101994.92
101949.1
101904.08
101859.93
101816.71
101774.48
101733.29
101693.2
101654.23
101616.41
101579.82
102344.19
102314.82
102270.56
102223.61
102176.95
102130.97
102085.5
102040.51
101996.05
101952.19
101909.01
101866.55
101824.89
101784.09
101744.19
101705.25
101667.31
101630.39
101594.58
102322.52
102296.47
102254.8
102210.55
102166.52
102123.05
102079.96
102037.21
101994.87
101952.99
101911.66
101870.92
101830.86
101791.51
101752.95
101715.23
101678.38
101642.45
101607.49
102297.11
102275.75
102238.3
102196.3
102154.45
102113.25
102072.44
102031.89
101991.63
101951.72
101912.23
101873.22
101834.77
101796.92
101759.74
101723.27
101687.57
101652.67
101618.65
102270.99
102251.87
102219.51
102181.03
102141.09
102101.9
102063.21
102024.78
101986.56
101948.58
101910.92
101873.64
101836.8
101800.46
101764.68
101729.51
101695
101661.18
101628.13
102245.58
102227.88
102198.18
102163.91
102127.01
102089.52
102052.67
102016.19
101979.91
101943.82
101907.96
101872.38
101837.14
101802.31
101767.94
101734.08
101700.78
101668.08
101636.06
102219.85
102204.51
102176.78
102144.37
102111.09
102076.41
102041.17
102006.4
101971.93
101937.65
101903.53
101869.61
101835.96
101802.63
101769.66
101737.12
101705.05
101673.5
101642.52
102194.14
102180.75
102155.77
102124.78
102093.04
102061.65
102029
101995.74
101962.89
101930.28
101897.83
101865.54
101833.44
101801.57
101770
101738.78
101707.95
101677.55
101647.64
102168.77
102156.91
102134.29
102105.57
102075.02
102045.03
102015.39
101984.5
101953.05
101921.95
101891.07
101860.33
101829.73
101799.31
101769.12
101739.19
101709.59
101680.35
101651.53
102143.87
102133.29
102112.68
102085.96
102057.39
102028.47
102000.15
101972
101942.7
101912.93
101883.46
101854.18
101825.02
101796
101767.15
101738.5
101710.12
101682.02
101654.28
102119.56
102110.02
102091.18
102066.22
102039.42
102012.31
101984.96
101958.09
101931.28
101903.42
101875.22
101847.27
101819.47
101791.79
101764.23
101736.84
101709.65
101682.69
101656.03
102095.91
102087.22
102069.93
102046.61
102021.38
101995.86
101970.17
101944.19
101918.63
101893.06
101866.54
101839.79
101813.24
101786.83
101760.52
101734.33
101708.3
101682.46
101656.86
102073.01
102065
102049.06
102027.22
102003.47
101979.37
101955.15
101930.71
101905.95
101881.6
101857.18
101831.9
101806.49
101781.25
101756.13
101731.11
101706.21
101681.45
101656.89
102050.88
102043.42
102028.66
102008.18
101985.78
101963.02
101940.11
101917.02
101893.69
101870.06
101846.84
101823.51
101799.39
101775.22
101751.19
101727.27
101703.46
101679.76
101656.21
102029.55
102022.54
102008.8
101989.55
101968.41
101946.88
101925.2
101903.32
101881.24
101858.94
101836.38
101814.23
101791.93
101768.87
101745.82
101722.93
101700.15
101677.48
101654.91
102009.01
102002.37
101989.54
101971.41
101951.41
101931.03
101910.48
101889.74
101868.79
101847.66
101826.34
101804.79
101783.67
101762.27
101740.11
101718.18
101696.4
101674.7
101653.08
101989.24
101982.93
101970.9
101953.79
101934.85
101915.51
101896.02
101876.33
101856.44
101836.36
101816.13
101795.76
101775.25
101754.72
101734.09
101713.15
101692.31
101671.52
101650.8
101970.21
101964.19
101952.88
101936.71
101918.74
101900.37
101881.84
101863.12
101844.2
101825.08
101805.78
101786.28
101766.56
101747.29
101728.04
101708.14
101688.06
101668.07
101648.17
101951.87
101946.14
101935.5
101920.18
101903.1
101885.63
101868
101850.2
101832.2
101814.01
101795.66
101777.17
101758.53
101739.68
101721.18
101702.66
101683.55
101664.34
101645.24
101934.18
101928.74
101918.71
101904.18
101887.94
101871.3
101854.5
101837.54
101820.4
101803.07
101785.58
101767.95
101750.2
101732.34
101714.3
101696.64
101678.87
101660.5
101917.05
101911.93
101902.5
101888.71
101873.23
101857.36
101841.35
101825.19
101808.85
101792.33
101775.67
101758.86
101741.94
101724.92
101707.81
101690.55
101673.69
101656.7
101900.44
101895.67
101886.81
101873.72
101858.96
101843.81
101828.54
101813.11
101797.53
101781.78
101765.89
101749.87
101733.74
101717.52
101701.24
101684.93
101668.57
101652.16
101884.26
101879.88
101871.6
101859.17
101845.09
101830.62
101816.03
101801.32
101786.45
101771.43
101756.27
101740.99
101725.59
101710.11
101694.54
101678.87
101663.1
101647.8
101868.46
101864.52
101856.82
101845.02
101831.58
101817.76
101803.82
101789.78
101775.59
101761.26
101746.81
101732.24
101717.58
101702.83
101688.01
101673.16
101658.24
101643.19
101852.96
101849.51
101842.4
101831.21
101818.38
101805.18
101791.87
101778.47
101764.93
101751.27
101737.49
101723.61
101709.63
101695.58
101681.46
101667.29
101653.11
101638.88
101837.71
101834.8
101828.29
101817.7
101805.46
101792.85
101780.15
101767.36
101754.46
101741.44
101728.32
101715.09
101701.79
101688.41
101674.97
101661.5
101648
101634.48
101822.66
101820.34
101814.44
101804.44
101792.77
101780.73
101768.63
101756.44
101744.15
101731.75
101719.26
101706.67
101694.01
101681.28
101668.5
101655.67
101642.82
101629.91
101807.78
101806.1
101800.82
101791.38
101780.27
101768.8
101757.27
101745.67
101733.98
101722.2
101710.32
101698.36
101686.34
101674.25
101662.11
101649.94
101637.74
101625.51
101793.03
101792.03
101787.37
101778.5
101767.93
101757.02
101746.06
101735.05
101723.95
101712.76
101701.49
101690.15
101678.74
101667.28
101655.78
101644.24
101632.68
101621.09
101778.42
101778.12
101774.09
101765.77
101755.74
101745.38
101734.99
101724.55
101714.04
101703.45
101692.78
101682.04
101671.25
101660.41
101649.53
101638.63
101627.7
101616.75
101763.94
101764.37
101760.96
101753.19
101743.69
101733.88
101724.05
101714.19
101704.26
101694.26
101684.19
101674.06
101663.87
101653.65
101643.39
101633.1
101622.8
101612.47
101749.63
101750.81
101747.99
101740.75
101731.78
101722.52
101713.26
101703.97
101694.63
101685.21
101675.74
101666.21
101656.63
101647.02
101637.37
101627.7
101618.01
101608.3
101735.54
101737.45
101735.2
101728.47
101720.03
101711.33
101702.64
101693.93
101685.16
101676.34
101667.46
101658.53
101649.56
101640.56
101631.52
101622.47
101613.4
101604.3
101721.71
101724.34
101722.62
101716.39
101708.48
101700.34
101692.22
101684.09
101675.92
101667.68
101659.4
101651.08
101642.71
101634.31
101625.89
101617.45
101609
101600.52
101708.24
101711.56
101710.31
101704.55
101697.18
101689.6
101682.06
101674.52
101666.94
101659.3
101651.62
101643.89
101636.14
101628.35
101620.54
101612.71
101604.87
101597.01
101695.22
101699.18
101698.34
101693.04
101686.2
101679.19
101672.24
101665.29
101658.29
101651.25
101644.17
101637.05
101629.9
101622.73
101615.53
101608.31
101601.09
101593.83
101682.78
101687.32
101686.79
101681.92
101675.62
101669.2
101662.83
101656.47
101650.08
101643.64
101637.16
101630.65
101624.1
101617.54
101610.95
101604.34
101597.73
101591.08
101671.06
101676.08
101675.78
101671.31
101665.56
101659.72
101653.96
101648.19
101642.39
101636.55
101630.68
101624.77
101618.83
101612.87
101606.89
101600.89
101594.88
101588.84
101660.24
101665.65
101665.45
101661.36
101656.15
101650.92
101645.75
101640.58
101635.37
101630.13
101624.85
101619.55
101614.21
101608.85
101603.47
101598.07
101592.66
101587.21
101650.53
101656.22
101656.01
101652.27
101647.59
101642.94
101638.35
101633.77
101629.15
101624.5
101619.81
101615.1
101610.37
101605.6
101600.82
101596.01
101591.19
101586.33
101642.24
101648.05
101647.76
101644.28
101640.08
101635.97
101631.94
101627.92
101623.88
101619.81
101615.71
101611.59
101607.45
101603.27
101599.07
101594.84
101590.6
101586.3
101634.97
101640.46
101639.99
101636.88
101633.3
101629.84
101626.45
101623.05
101619.63
101616.17
101612.68
101609.15
101605.59
101602
101598.36
101594.7
101591.02
101587.28
101628.55
101633.44
101632.73
101630.21
101627.46
101624.8
101622.15
101619.43
101616.66
101613.83
101610.95
101608.01
101605.02
101601.98
101598.9
101595.78
101592.62
101589.4
101623.82
101628.3
101627.38
101625.48
101623.56
101621.66
101619.69
101617.61
101615.44
101613.19
101610.86
101608.46
101605.99
101603.46
101600.87
101598.24
101595.56
101592.81
101621.34
101625.77
101624.89
101623.6
101622.35
101621.05
101619.61
101618.05
101616.37
101614.58
101612.7
101610.74
101608.71
101606.61
101604.44
101602.23
101599.98
101597.64
101621.42
101626.72
101626.82
101625.95
101624.89
101623.76
101622.55
101621.23
101619.82
101618.31
101616.72
101615.07
101613.35
101611.57
101609.74
101607.86
101605.95
101603.96
101624.25
101630.81
101632.47
101631.8
101630.55
101629.33
101628.12
101626.88
101625.57
101624.21
101622.8
101621.34
101619.84
101618.3
101616.72
101615.11
101613.48
101611.78
101629.53
101637.92
101640.89
101640.12
101638.54
101637.12
101635.84
101634.58
101633.31
101632.01
101630.71
101629.39
101628.05
101626.69
101625.31
101623.92
101622.51
101621.05
101636.48
101646.39
101650.18
101649.33
101647.61
101646.16
101644.9
101643.69
101642.5
101641.31
101640.12
101638.94
101637.75
101636.56
101635.35
101634.15
101632.93
101631.67
101645.77
101655.32
101658.97
101658.34
101656.94
101655.78
101654.77
101653.77
101652.78
101651.77
101650.76
101649.75
101648.73
101647.71
101646.68
101645.64
101644.59
101643.5
101657.38
101666.3
101669.69
101669.17
101667.99
101667.01
101666.16
101665.32
101664.46
101663.59
101662.72
101661.84
101660.96
101660.07
101659.17
101658.27
101657.35
101656.4
101671.16
101679.03
101681.91
101681.37
101680.3
101679.44
101678.68
101677.94
101677.18
101676.41
101675.64
101674.87
101674.09
101673.3
101672.5
101671.68
101670.86
101669.98
101685.92
101692.49
101694.74
101694.14
101693.16
101692.37
101691.69
101691.01
101690.32
101689.64
101688.96
101688.27
101687.58
101686.88
101686.17
101685.44
101684.69
101683.89
101701.17
101706.08
101707.59
101706.95
101706.06
101705.33
101704.67
101704.02
101703.38
101702.73
101702.08
101701.43
101700.77
101700.1
101699.42
101698.72
101697.98
101697.19
101714.14
101716.63
101717.13
101716.43
101715.64
101715
101714.44
101713.91
101713.4
101712.9
101712.4
101711.91
101711.4
101710.87
101710.32
101709.72
101709.06
101708.32
101722.83
101724.16
101724.61
101724.48
101724.1
101723.61
101723.07
101722.48
101721.84
101721.15
101720.41
101719.63
101718.81
101717.98
101717.13
101716.25
101715.34
101714.36
101723.33
101722.99
101722.64
101722.27
101721.87
101721.41
101720.88
101720.28
101719.62
101718.89
101718.1
101717.24
101716.32
101715.33
101714.27
101713.14
101711.92
101710.63
101716.64
101716.3
101715.88
101715.47
101715.02
101714.51
101713.95
101713.32
101712.64
101711.9
101711.1
101710.24
101709.32
101708.33
101707.29
101706.17
101705
101703.76
101709
101708.61
101708.14
101707.68
101707.2
101706.69
101706.14
101705.54
101704.89
101704.2
101703.45
101702.65
101701.79
101700.87
101699.9
101698.85
101697.74
101701.36
101701.02
101700.59
101700.17
101699.73
101699.24
101698.72
101698.15
101697.53
101696.87
101696.15
101695.39
101694.57
101693.7
101692.77
101691.78
101690.74
101694.22
101693.87
101693.44
101693.01
101692.57
101692.09
101691.58
101691.02
101690.43
101689.79
101689.11
101688.38
101687.6
101686.78
101685.9
101684.97
101683.98
101687.33
101686.99
101686.58
101686.17
101685.74
101685.28
101684.78
101684.25
101683.68
101683.07
101682.42
101681.72
101680.98
101680.19
101679.36
101678.47
101677.53
101680.85
101680.5
101680.09
101679.68
101679.26
101678.8
101678.31
101677.79
101677.24
101676.64
101676.01
101675.34
101674.63
101673.88
101673.08
101672.24
101671.35
101674.62
101674.28
101673.88
101673.47
101673.05
101672.61
101672.13
101671.63
101671.09
101670.51
101669.9
101669.26
101668.58
101667.85
101667.09
101666.28
101665.43
101668.71
101668.37
101667.97
101667.57
101667.15
101666.71
101666.24
101665.74
101665.22
101664.66
101664.07
101663.44
101662.78
101662.09
101661.35
101660.58
101659.76
101663.04
101662.7
101662.31
101661.91
101661.5
101661.06
101660.6
101660.11
101659.6
101659.05
101658.48
101657.87
101657.24
101656.56
101655.86
101655.11
101654.33
101657.63
101657.29
101656.9
101656.5
101656.09
101655.66
101655.21
101654.73
101654.23
101653.69
101653.14
101652.55
101651.93
101651.28
101650.6
101649.88
101649.13
101652.44
101652.1
101651.71
101651.32
101650.91
101650.49
101650.04
101649.57
101649.08
101648.56
101648.01
101647.44
101646.84
101646.21
101645.55
101644.86
101644.14
101647.46
101647.12
101646.74
101646.35
101645.95
101645.53
101645.09
101644.62
101644.14
101643.63
101643.1
101642.54
101641.96
101641.35
101640.71
101640.05
101639.35
101642.68
101642.34
101641.96
101641.57
101641.17
101640.76
101640.33
101639.87
101639.4
101638.9
101638.38
101637.84
101637.27
101636.68
101636.06
101635.42
101634.74
101638.07
101637.74
101637.36
101636.98
101636.59
101636.18
101635.75
101635.31
101634.84
101634.35
101633.85
101633.32
101632.77
101632.19
101631.59
101630.97
101630.32
101633.63
101633.3
101632.93
101632.55
101632.16
101631.76
101631.34
101630.91
101630.45
101629.98
101629.48
101628.97
101628.43
101627.87
101627.29
101626.68
101626.05
101629.34
101629.01
101628.65
101628.28
101627.9
101627.5
101627.09
101626.66
101626.22
101625.75
101625.27
101624.77
101624.25
101623.7
101623.14
101622.55
101621.94
101625.19
101624.87
101624.51
101624.15
101623.77
101623.39
101622.98
101622.56
101622.13
101621.68
101621.2
101620.72
101620.21
101619.68
101619.13
101618.56
101617.96
101621.17
101620.85
101620.5
101620.14
101619.78
101619.4
101619.01
101618.6
101618.17
101617.73
101617.27
101616.8
101616.3
101615.79
101615.25
101614.7
101614.12
101617.26
101616.95
101616.61
101616.26
101615.9
101615.53
101615.15
101614.75
101614.33
101613.91
101613.46
101613
101612.52
101612.02
101611.5
101610.96
101610.41
101613.47
101613.16
101612.83
101612.49
101612.14
101611.78
101611.4
101611.02
101610.61
101610.2
101609.76
101609.32
101608.85
101608.37
101607.87
101607.35
101606.81
101609.78
101609.48
101609.16
101608.82
101608.49
101608.13
101607.77
101607.39
101607
101606.6
101606.18
101605.74
101605.29
101604.82
101604.34
101603.84
101603.32
101606.2
101605.91
101605.59
101605.27
101604.94
101604.6
101604.24
101603.88
101603.5
101603.11
101602.7
101602.28
101601.84
101601.39
101600.92
101600.44
101599.93
101602.72
101602.44
101602.13
101601.82
101601.5
101601.16
101600.82
101600.47
101600.1
101599.72
101599.32
101598.92
101598.49
101598.06
101597.61
101597.14
101596.65
101599.35
101599.07
101598.77
101598.47
101598.16
101597.83
101597.5
101597.16
101596.8
101596.43
101596.05
101595.66
101595.25
101594.83
101594.39
101593.94
101593.47
101596.08
101595.81
101595.51
101595.22
101594.92
101594.61
101594.28
101593.95
101593.6
101593.25
101592.88
101592.5
101592.1
101591.7
101591.27
101590.84
101592.9
101592.64
101592.36
101592.07
101591.78
101591.48
101591.16
101590.84
101590.51
101590.16
101589.8
101589.44
101589.06
101588.66
101588.25
101587.83
101589.83
101589.58
101589.3
101589.03
101588.74
101588.45
101588.15
101587.83
101587.51
101587.18
101586.83
101586.47
101586.11
101585.73
101585.33
101584.93
101586.86
101586.61
101586.35
101586.08
101585.8
101585.52
101585.23
101584.93
101584.61
101584.29
101583.96
101583.61
101583.26
101582.89
101582.51
101582.12
101583.99
101583.75
101583.49
101583.23
101582.97
101582.7
101582.41
101582.12
101581.82
101581.51
101581.19
101580.85
101580.51
101580.16
101579.79
101579.42
101581.22
101580.99
101580.74
101580.49
101580.24
101579.97
101579.7
101579.42
101579.13
101578.83
101578.52
101578.2
101577.87
101577.53
101577.18
101576.82
101578.56
101578.34
101578.1
101577.86
101577.62
101577.36
101577.1
101576.83
101576.55
101576.26
101575.96
101575.65
101575.34
101575.01
101574.67
101574.32
101576.01
101575.8
101575.57
101575.34
101575.1
101574.86
101574.6
101574.34
101574.07
101573.8
101573.51
101573.21
101572.91
101572.59
101572.27
101571.94
101573.58
101573.37
101573.15
101572.93
101572.7
101572.46
101572.22
101571.97
101571.71
101571.44
101571.17
101570.89
101570.59
101570.29
101569.98
101569.66
101571.25
101571.05
101570.84
101570.63
101570.41
101570.18
101569.95
101569.71
101569.46
101569.2
101568.94
101568.67
101568.38
101568.09
101567.79
101567.48
101569.04
101568.85
101568.64
101568.44
101568.23
101568.01
101567.78
101567.55
101567.31
101567.07
101566.81
101566.55
101566.28
101566
101565.71
101565.42
101566.93
101566.74
101566.55
101566.35
101566.15
101565.94
101565.72
101565.5
101565.27
101565.03
101564.79
101564.54
101564.28
101564.01
101563.73
101563.45
101564.93
101564.75
101564.56
101564.37
101564.17
101563.97
101563.76
101563.55
101563.33
101563.1
101562.86
101562.62
101562.37
101562.11
101561.85
101561.57
101563.03
101562.86
101562.68
101562.49
101562.3
101562.11
101561.91
101561.7
101561.49
101561.26
101561.04
101560.8
101560.56
101560.31
101560.06
101559.79
101561.24
101561.07
101560.9
101560.72
101560.54
101560.35
101560.16
101559.96
101559.75
101559.54
101559.32
101559.09
101558.86
101558.62
101558.37
101558.11
101559.56
101559.4
101559.23
101559.06
101558.88
101558.7
101558.51
101558.32
101558.12
101557.92
101557.7
101557.49
101557.26
101557.03
101556.79
101556.54
101557.99
101557.84
101557.68
101557.51
101557.34
101557.17
101556.99
101556.8
101556.61
101556.41
101556.2
101555.99
101555.78
101555.55
101555.32
101556.54
101556.39
101556.24
101556.08
101555.92
101555.75
101555.57
101555.39
101555.21
101555.02
101554.82
101554.62
101554.41
101554.19
101553.97
101555.21
101555.07
101554.92
101554.77
101554.61
101554.45
101554.28
101554.11
101553.93
101553.74
101553.55
101553.36
101553.15
101552.94
101552.73
101554.01
101553.87
101553.72
101553.58
101553.42
101553.27
101553.11
101552.94
101552.77
101552.59
101552.4
101552.22
101552.02
101551.82
101551.61
101552.93
101552.79
101552.65
101552.51
101552.36
101552.21
101552.05
101551.89
101551.73
101551.55
101551.38
101551.19
101551
101550.81
101550.61
101551.97
101551.84
101551.71
101551.57
101551.42
101551.28
101551.13
101550.97
101550.81
101550.64
101550.47
101550.29
101550.11
101549.92
101549.72
101551.15
101551.02
101550.89
101550.76
101550.62
101550.47
101550.32
101550.17
101550.01
101549.85
101549.68
101549.51
101549.33
101549.15
101548.96
101550.46
101550.34
101550.21
101550.08
101549.94
101549.8
101549.65
101549.5
101549.35
101549.19
101549.03
101548.86
101548.68
101548.5
101548.32
101549.92
101549.8
101549.68
101549.54
101549.41
101549.27
101549.13
101548.98
101548.83
101548.67
101548.51
101548.34
101548.17
101548
101547.82
101549.52
101549.4
101549.28
101549.15
101549.02
101548.88
101548.74
101548.59
101548.44
101548.29
101548.13
101547.97
101547.8
101547.62
101547.45
101549.34
101549.22
101549.09
101548.97
101548.84
101548.7
101548.56
101548.42
101548.27
101548.12
101547.96
101547.8
101547.63
101547.46
101547.28
101549.26
101549.14
101549.01
101548.89
101548.76
101548.62
101548.48
101548.34
101548.19
101548.03
101547.87
101547.71
101547.54
101547.37
101549.17
101549.03
101548.9
101548.76
101548.62
101548.47
101548.32
101548.17
101548.02
101547.86
101547.69
101547.53
101547.36
101547.18
99911.345
99891.96
99877.45
99868.517
99861.99
99856.871
99853.48
99852.477
99854.6
99860.09
99867.818
99876.837
99887.079
99899.019
99913.174
99929.25
99946.849
99965.772
99985.887
99887.447
99874.512
99863.536
99855.99
99850.022
99845.487
99843.142
99843.728
99847.707
99855.058
99865.044
99877.152
99890.793
99905.788
99922.144
99939.692
99958.242
99977.832
99848.955
99832.574
99821.167
99815.179
99811.658
99810.312
99811.618
99815.934
99823.439
99834.072
99847.307
99862.299
99878.528
99895.757
99914.14
99933.602
99954.004
99975.369
99803.659
99788.205
99779.444
99776.601
99776.42
99778.539
99783.348
99791.063
99801.709
99815.018
99830.44
99847.425
99865.672
99885.044
99905.54
99927.004
99949.316
99755.645
99742.893
99737.416
99737.944
99741.25
99746.977
99755.419
99766.625
99780.432
99796.495
99814.381
99833.73
99854.321
99875.999
99898.651
99922.087
99946.259
99705.274
99695.925
99694.203
99698.574
99705.799
99715.455
99727.712
99742.491
99759.552
99778.556
99799.162
99821.083
99844.117
99868.074
99892.819
99918.172
99652.82
99647.536
99650.159
99658.88
99670.408
99684.243
99700.463
99718.923
99739.361
99761.444
99784.889
99809.434
99834.908
99861.091
99887.907
99915.169
99598.661
99598.137
99605.702
99619.235
99635.393
99653.631
99673.967
99696.227
99720.161
99745.4
99771.726
99798.893
99826.809
99855.193
99884.156
99543.263
99548.198
99561.262
99580.015
99601.082
99623.919
99648.504
99674.673
99702.195
99730.589
99759.817
99789.597
99820.059
99850.739
99881.879
99487.214
99498.281
99517.331
99541.637
99567.829
99595.419
99624.345
99654.54
99685.74
99717.173
99749.419
99781.907
99814.988
99848.12
99431.263
99449.065
99474.43
99504.521
99535.967
99568.45
99601.781
99636.202
99671.26
99705.426
99740.873
99776.267
99810.351
99845.118
99376.496
99401.372
99433.021
99469.064
99505.807
99543.508
99581.352
99620.012
99659.116
99695.69
99732.849
99770.667
99807.608
99844.307
99324.289
99356.047
99393.528
99435.984
99477.903
99521.492
99564.195
99604.991
99646.682
99687.278
99727.628
99767.584
99806.686
99274.398
99312.238
99357.466
99406.753
99453.304
99500.926
99547.577
99592.86
99637.667
99681.408
99724.326
99766.313
99807.273
99225.213
99272.46
99325.214
99379.672
99432.292
99484.073
99534.46
99583.462
99631.244
99677.672
99722.872
99766.826
99809.503
99181.827
99237.111
99296.648
99356.573
99414.423
99470.364
99524.425
99576.71
99627.295
99676.191
99723.499
99769.258
99144.042
99206.741
99272.561
99337.76
99400.245
99460.118
99517.614
99572.881
99626.025
99677.134
99726.324
99773.676
99112.281
99181.937
99253.539
99323.558
99390.206
99453.657
99514.245
99572.166
99627.573
99680.611
99731.431
99780.146
99087.168
99163.239
99240.032
99314.317
99384.631
99451.231
99514.512
99574.723
99632.065
99686.732
99738.914
99788.738
99069.276
99151.127
99232.434
99310.365
99383.795
99453.059
99518.594
99580.697
99639.618
99695.594
99748.841
99059.107
99146.021
99231.095
99311.997
99387.944
99459.34
99526.651
99590.217
99650.331
99707.268
99761.265
99057.093
99148.289
99236.321
99319.468
99397.292
99470.25
99538.826
99603.397
99664.295
99721.825
99776.253
99063.604
99158.245
99248.378
99333
99412.025
99485.943
99555.244
99620.337
99681.589
99739.335
99793.864
99078.982
99176.176
99267.494
99352.779
99432.299
99506.55
99576.01
99641.117
99702.273
99759.85
99814.15
99103.645
99202.427
99293.921
99378.988
99458.268
99532.203
99601.224
99665.804
99726.395
99783.437
99837.266
99137.996
99237.416
99327.968
99411.897
99490.206
99563.151
99631.086
99694.561
99754.106
99810.305
99863.692
99181.125
99280.534
99369.362
99451.724
99528.617
99599.965
99666.175
99728.035
99786.107
99840.971
99893.22
99229.814
99328.126
99414.961
99495.428
99570.567
99639.809
99703.634
99763.634
99820.214
99873.53
99923.717
99284.793
99380.425
99464.823
99542.082
99614.547
99681.081
99741.34
99798.574
99852.919
99904.352
99953.472
99345.141
99439.012
99518.602
99592.176
99662.5
99725.404
99781.749
99836.28
99888.207
99936.674
99981.112
99415.8
99505.572
99578.749
99645.015
99706.02
99766.858
99827.847
99882.604
99932.71
99979.305
100022.74
100064.45
99513.645
99595.168
99660.941
99721.042
99778.07
99833.439
99886.741
99936.454
99982.748
100026.12
100066.85
100105.49
99616.647
99691.826
99750.12
99803.238
99854.187
99903.13
99949.896
99994.259
100036.17
100075.73
100113.09
100148.53
99722.691
99791.802
99842.651
99888.645
99933.099
99975.877
100016.84
100055.96
100093.21
100128.62
100162.25
100194.23
99834.683
99897.215
99940.13
99978.635
100016.28
100052.74
100087.79
100121.46
100153.77
100184.71
100214.29
100242.56
100269.69
99953.07
100008.48
100042.91
100073.46
100103.91
100133.74
100162.62
100190.61
100217.7
100243.89
100269.14
100293.45
100316.87
100077.82
100125.58
100150.98
100173.1
100195.95
100218.8
100241.24
100263.28
100284.92
100306.1
100326.77
100346.88
100366.42
100208.78
100248.41
100264.28
100277.53
100292.36
100307.89
100323.59
100339.42
100355.34
100371.27
100387.13
100402.83
100418.29
100433.61
100345.66
100376.76
100382.65
100386.62
100393.07
100400.95
100409.6
100418.95
100428.9
100439.35
100450.18
100461.25
100472.45
100483.76
100488.05
100510.3
100505.86
100500.19
100497.95
100497.86
100499.18
100501.78
100505.54
100510.28
100515.86
100522.12
100528.89
100536.05
100635.47
100648.65
100633.59
100618.02
100606.8
100598.48
100592.23
100587.85
100585.17
100583.99
100584.12
100585.37
100587.56
100590.46
100594.11
100787.38
100791.33
100765.49
100739.82
100719.42
100702.66
100688.62
100677.04
100667.72
100660.42
100654.91
100650.97
100648.38
100646.9
100646.38
100943.18
100937.84
100901.18
100865.28
100835.56
100810.21
100788.2
100769.26
100753.11
100739.5
100728.16
100718.86
100711.33
100705.32
100700.58
100697.18
101102.2
101087.53
101040.18
100994.05
100954.93
100920.87
100890.79
100864.36
100841.23
100821.12
100803.8
100788.97
100776.36
100765.67
100756.61
100749.07
101263.6
101239.32
101181.66
101125.49
101076.97
101034.19
100995.99
100962.03
100931.86
100905.12
100881.67
100861.18
100843.38
100827.89
100814.38
100802.7
100792.87
101427.21
101391.85
101324.21
101258.49
101200.76
101149.37
101103.15
101061.83
101024.77
100991.36
100961.71
100935.47
100912.42
100892.11
100874.02
100858.13
100844.27
101596.87
101546.59
101469.06
101394.53
101327.74
101267.8
101213.58
101165.12
101121.56
101081.49
101045.51
101013.29
100984.79
100959.57
100936.69
100916.3
100898.29
100882.6
101780.11
101712.47
101629.33
101547.59
101471.17
101401.49
101337.71
101280.92
101230.37
101182.73
101139.39
101100
101064.93
101034.14
101005.7
100979.94
100957.06
100936.91
101947.64
101881.85
101815.23
101735.03
101652.64
101573.06
101496.79
101428.56
101367.3
101308.75
101254.99
101205.25
101160.58
101122.11
101086.25
101053.25
101023.78
100998.03
100974.89
99989.092
99978.935
99963.828
99952.516
99943.702
99936.502
99930.979
99927.358
99925.768
99926.161
99928.42
99932.149
99937.714
99945.32
99955.25
99967.223
99980.892
99996.01
100012.48
100007.86
99998.669
99987.093
99976.433
99967.063
99959.18
99953.062
99948.894
99946.653
99946.131
99947.009
99949.45
99953.772
99960.374
99969.28
99980.239
99992.931
100007.22
100022.94