/*--------------------------------*- C++ -*----------------------------------*\
| =========                 |                                                 |
| \\      /  F ield         | OpenFOAM: The Open Source CFD Toolbox           |
|  \\    /   O peration     | Version:  2406                                  |
|   \\  /    A nd           | Website:  www.openfoam.com                      |
|    \\/     M anipulation  |                                                 |
\*---------------------------------------------------------------------------*/
FoamFile
{
    version     2.0;
    format      ascii;
    arch        "LSB;label=32;scalar=64";
    class       volScalarField;
    location    "0.01";
    object      rho;
}
// * * * * * * * * * * * * * * * * * * * * * * * * * * * * * * * * * * * * * //

dimensions      [1 -3 0 0 0 0 0];

internalField   nonuniform List<scalar> 
23203
(
1.2115408
1.210136
1.2092805
1.208323
1.2073288
1.206374
1.2054754
1.2046522
1.2038873
1.2031774
1.2025253
1.201899
1.2013344
1.2008491
1.200388
1.1999498
1.1995469
1.1991945
1.1988682
1.2131442
1.2120599
1.2110361
1.2099302
1.2088543
1.2078428
1.2068917
1.2060023
1.2051697
1.2043916
1.2036658
1.2029834
1.2023636
1.2017946
1.2012661
1.2007606
1.2003037
1.1999037
1.1995259
1.2137275
1.2127876
1.2116879
1.2105548
1.2094777
1.2084684
1.2075185
1.2066254
1.2057872
1.2050013
1.2042657
1.2035777
1.2029413
1.2023513
1.2018026
1.2012885
1.2008213
1.2003925
1.1999944
1.214165
1.2132602
1.212183
1.211075
1.2100165
1.2090196
1.2080781
1.2071896
1.2063526
1.2055653
1.2048263
1.2041336
1.2034874
1.2028856
1.2023244
1.201801
1.2013174
1.2008698
1.2004558
1.2145231
1.2136367
1.2126002
1.2115312
1.2105009
1.2095242
1.2085976
1.2077192
1.206888
1.2061031
1.2053632
1.2046672
1.2040144
1.2034032
1.2028313
1.2022967
1.2017991
1.2013364
1.2009071
1.2147699
1.2139048
1.2129131
1.2118897
1.2108953
1.2099465
1.2090418
1.2081798
1.2073604
1.206583
1.2058472
1.2051521
1.2044971
1.2038809
1.2033022
1.2027593
1.2022516
1.2017772
1.2013353
1.2149223
1.2140776
1.2131335
1.2121602
1.2112075
1.2102924
1.209415
1.2085748
1.2077722
1.2070072
1.20628
1.20559
1.2049369
1.2043198
1.2037379
1.20319
1.2026754
1.2021925
1.2017408
1.2149928
1.21417
1.2132762
1.2123563
1.2114488
1.2105712
1.209725
1.2089105
1.2081286
1.2073799
1.2066649
1.2059836
1.2053359
1.2047213
1.2041395
1.2035896
1.2030709
1.2025822
1.2021234
1.2149924
1.2141976
1.2133561
1.2124902
1.2116293
1.2107909
1.209978
1.2091917
1.2084333
1.2077037
1.2070038
1.2063341
1.2056948
1.2050858
1.2045068
1.2039576
1.2034375
1.2029457
1.2024822
1.2149457
1.2141853
1.213393
1.2125768
1.21176
1.2109601
1.2101809
1.2094237
1.2086902
1.2079816
1.2072991
1.2066434
1.2060149
1.2054139
1.2048404
1.2042944
1.2037754
1.2032828
1.2028168
1.2148768
1.214157
1.2134044
1.2126287
1.2118507
1.2110865
1.2103397
1.2096114
1.2089034
1.2082169
1.2075532
1.2069132
1.2062976
1.2057068
1.2051409
1.2046002
1.2040846
1.2035934
1.2031271
1.214784
1.214113
1.2133928
1.21265
1.211906
1.2111748
1.2104588
1.2097588
1.2090762
1.2084124
1.2077686
1.2071457
1.2065445
1.2059655
1.2054092
1.2048758
1.2043654
1.2038776
1.203413
1.2146599
1.2140422
1.2133526
1.2126397
1.2119274
1.2112275
1.2105411
1.2098688
1.2092115
1.2085707
1.2079474
1.2073426
1.2067571
1.2061914
1.2056462
1.2051218
1.2046184
1.2041357
1.2036746
1.2145004
1.2139392
1.2132806
1.2125972
1.2119157
1.2112462
1.2105887
1.2099435
1.2093116
1.208694
1.2080917
1.2075058
1.2069369
1.2063858
1.205853
1.2053391
1.2048441
1.2043682
1.2039122
1.2143067
1.2138025
1.2131761
1.2125226
1.2118718
1.2112321
1.2106033
1.2099851
1.2093784
1.2087842
1.2082034
1.207637
1.2070856
1.20655
1.2060308
1.2055285
1.2050434
1.2045757
1.2041261
1.2140839
1.2136338
1.2130402
1.212417
1.2117968
1.211187
1.2105865
1.2099952
1.2094138
1.2088431
1.2082842
1.2077378
1.2072046
1.2066853
1.2061806
1.2056911
1.205217
1.2047587
1.2043169
1.2138373
1.2134365
1.2128753
1.2122824
1.2116926
1.2111123
1.2105401
1.2099756
1.2094195
1.2088727
1.2083359
1.2078099
1.2072954
1.2067932
1.2063039
1.205828
1.205366
1.2049181
1.2044853
1.2135712
1.2132128
1.2126826
1.21212
1.2115606
1.2110099
1.2104659
1.2099283
1.2093976
1.2088747
1.2083602
1.207855
1.2073598
1.2068752
1.2064018
1.2059404
1.2054913
1.2050548
1.2046319
1.2132803
1.2129593
1.212461
1.2119301
1.211402
1.2108812
1.2103658
1.2098552
1.20935
1.2088511
1.2083592
1.207875
1.2073993
1.2069327
1.2064759
1.2060295
1.205594
1.2051698
1.2047577
1.2129676
1.2126854
1.2122173
1.2117181
1.211221
1.2107299
1.2102427
1.209759
1.2092792
1.2088043
1.2083349
1.2078718
1.2074158
1.2069675
1.2065276
1.2060968
1.2056755
1.2052641
1.2048635
1.2126154
1.2123882
1.2119696
1.2114967
1.2110251
1.2105608
1.2101005
1.2096428
1.2091879
1.2087365
1.2082895
1.2078474
1.2074112
1.2069813
1.2065586
1.2061436
1.2057369
1.2053389
1.2049505
1.2122593
1.2120578
1.211699
1.2112673
1.210818
1.2103772
1.2099419
1.2095093
1.2090786
1.2086503
1.2082252
1.207804
1.2073873
1.2069759
1.2065705
1.2061715
1.2057798
1.2053955
1.2050196
1.2119157
1.2117303
1.2114023
1.21102
1.2106063
1.2101852
1.2097715
1.2093617
1.2089541
1.2085481
1.2081444
1.2077436
1.2073463
1.2069531
1.2065649
1.2061821
1.2058054
1.2054351
1.2050722
1.2115719
1.2114136
1.2111084
1.2107475
1.2103762
1.209988
1.2095929
1.2092033
1.2088169
1.2084323
1.2080492
1.2076682
1.2072899
1.2069148
1.2065436
1.2061769
1.2058153
1.2054591
1.2051093
1.2112317
1.2110957
1.2108224
1.2104777
1.210124
1.2097745
1.2094097
1.2090376
1.20867
1.2083051
1.2079418
1.20758
1.2072201
1.2068627
1.2065083
1.2061575
1.2058109
1.2054689
1.2051323
1.2108985
1.21078
1.2105339
1.2102154
1.2098752
1.2095417
1.2092122
1.2088678
1.2085166
1.2081693
1.2078244
1.207481
1.2071389
1.2067986
1.2064606
1.2061254
1.2057937
1.2054658
1.2051424
1.2105736
1.2104694
1.2102464
1.209951
1.2096338
1.2093123
1.2089979
1.2086857
1.2083595
1.2080278
1.2076994
1.207373
1.207048
1.2067242
1.2064021
1.2060823
1.2057651
1.2054511
1.2051409
1.210258
1.2101655
1.2099627
1.2096876
1.2093907
1.2090901
1.2087868
1.2084891
1.2081923
1.2078828
1.2075692
1.2072583
1.2069492
1.2066412
1.2063346
1.2060295
1.2057266
1.2054262
1.205129
1.2099526
1.2098694
1.2096844
1.2094279
1.2091491
1.2088668
1.2085827
1.2082951
1.2080125
1.2077298
1.2074358
1.2071389
1.2068444
1.2065513
1.2062593
1.2059686
1.2056795
1.2053924
1.2051079
1.2096579
1.2095821
1.2094124
1.209173
1.208911
1.2086451
1.2083778
1.2081079
1.2078344
1.2075658
1.2072963
1.2070166
1.2067353
1.206456
1.2061778
1.2059008
1.205625
1.2053509
1.2050787
1.2093742
1.2093043
1.2091479
1.208924
1.2086774
1.2084268
1.2081745
1.2079202
1.2076631
1.2074027
1.207147
1.2068901
1.2066238
1.2063569
1.2060915
1.2058274
1.2055644
1.2053027
1.2050426
1.2091016
1.2090363
1.2088915
1.2086815
1.2084493
1.2082127
1.2079745
1.207734
1.2074914
1.2072462
1.206998
1.2067547
1.2065096
1.2062555
1.2060017
1.2057495
1.2054987
1.205249
1.2050005
1.2088397
1.2087783
1.2086436
1.2084464
1.2082272
1.2080036
1.2077783
1.2075508
1.2073211
1.2070893
1.2068554
1.2066189
1.2063875
1.2061529
1.2059092
1.2056682
1.205429
1.2051907
1.2049533
1.2085883
1.2085301
1.2084044
1.2082187
1.2080115
1.2077999
1.2075865
1.2073711
1.2071534
1.2069337
1.2067123
1.2064894
1.2062648
1.2060402
1.2058143
1.2055848
1.2053566
1.205129
1.2049021
1.2083469
1.2082916
1.2081739
1.2079987
1.2078025
1.2076018
1.2073994
1.207195
1.2069884
1.2067796
1.2065688
1.2063557
1.2061403
1.2059302
1.2057204
1.205503
1.2052836
1.2050652
1.2048478
1.2081147
1.2080623
1.2079519
1.2077864
1.2076003
1.2074097
1.2072176
1.2070235
1.2068273
1.2066292
1.2064292
1.2062278
1.2060246
1.2058192
1.205618
1.2054167
1.2052084
1.204999
1.2047911
1.2078909
1.2078415
1.207738
1.2075814
1.2074046
1.2072234
1.2070407
1.2068562
1.2066698
1.2064814
1.2062912
1.2060995
1.2059066
1.2057125
1.2055166
1.2053251
1.2051325
1.2049328
1.2076749
1.2076287
1.2075318
1.2073835
1.2072154
1.2070429
1.206869
1.2066935
1.2065161
1.2063369
1.2061561
1.2059739
1.2057904
1.205606
1.2054206
1.2052336
1.2050515
1.2048679
1.2074655
1.2074231
1.2073326
1.2071921
1.2070321
1.2068677
1.206702
1.2065349
1.2063661
1.2061956
1.2060236
1.2058503
1.2056758
1.2055005
1.2053247
1.2051487
1.2049722
1.2047951
1.2072621
1.2072239
1.2071398
1.2070067
1.2068542
1.2066976
1.2065397
1.2063805
1.2062197
1.2060574
1.2058938
1.2057288
1.2055628
1.2053958
1.2052281
1.2050592
1.2048895
1.2047254
1.2070637
1.2070303
1.2069526
1.2068266
1.2066814
1.206532
1.2063814
1.2062298
1.2060768
1.2059223
1.2057666
1.2056098
1.205452
1.2052934
1.2051343
1.2049748
1.2048148
1.2046534
1.2068694
1.2068415
1.2067704
1.2066513
1.2065129
1.2063704
1.2062269
1.2060825
1.2059369
1.2057899
1.2056419
1.2054928
1.2053428
1.2051921
1.2050409
1.2048893
1.2047377
1.2045858
1.2066786
1.2066567
1.2065924
1.20648
1.2063482
1.2062124
1.2060757
1.2059383
1.2057998
1.2056601
1.2055194
1.2053778
1.2052354
1.2050924
1.204949
1.2048052
1.2046614
1.2045177
1.2064906
1.2064754
1.2064179
1.2063121
1.2061867
1.2060574
1.2059274
1.2057967
1.2056651
1.2055325
1.2053989
1.2052645
1.2051295
1.2049938
1.2048578
1.2047215
1.204585
1.2044482
1.2063049
1.2062969
1.2062465
1.2061471
1.206028
1.205905
1.2057815
1.2056575
1.2055327
1.2054069
1.2052804
1.2051531
1.2050252
1.2048969
1.2047682
1.2046393
1.2045104
1.2043813
1.2061212
1.2061209
1.2060776
1.2059846
1.2058716
1.2057549
1.2056379
1.2055204
1.2054023
1.2052833
1.2051636
1.2050433
1.2049225
1.2048013
1.2046798
1.2045581
1.2044365
1.2043146
1.2059394
1.2059472
1.205911
1.2058242
1.2057174
1.2056069
1.2054962
1.2053853
1.2052738
1.2051615
1.2050487
1.2049353
1.2048214
1.2047073
1.2045929
1.2044784
1.204364
1.2042495
1.2057596
1.2057758
1.2057466
1.2056659
1.2055651
1.2054608
1.2053566
1.2052522
1.2051472
1.2050417
1.2049356
1.2048291
1.2047221
1.204615
1.2045076
1.2044002
1.2042929
1.2041855
1.205582
1.2056067
1.2055843
1.2055096
1.2054148
1.2053168
1.205219
1.2051211
1.2050228
1.2049239
1.2048246
1.2047249
1.2046249
1.2045247
1.2044243
1.204324
1.2042237
1.2041233
1.2054072
1.2054403
1.2054244
1.2053556
1.2052668
1.205175
1.2050837
1.2049924
1.2049007
1.2048086
1.204716
1.2046232
1.20453
1.2044368
1.2043434
1.2042501
1.2041569
1.2040636
1.2052359
1.2052773
1.2052673
1.2052041
1.2051213
1.205036
1.2049511
1.2048665
1.2047815
1.2046961
1.2046103
1.2045243
1.2044382
1.2043518
1.2042655
1.2041791
1.204093
1.2040067
1.205069
1.2051183
1.2051137
1.2050559
1.2049791
1.2049002
1.204822
1.204744
1.2046657
1.2045871
1.2045082
1.2044291
1.2043499
1.2042705
1.2041911
1.2041118
1.2040327
1.2039534
1.2049078
1.2049644
1.2049643
1.2049116
1.204841
1.2047686
1.2046971
1.2046258
1.2045543
1.2044825
1.2044105
1.2043383
1.204266
1.2041936
1.2041212
1.2040489
1.2039768
1.2039046
1.2047536
1.2048168
1.2048202
1.2047724
1.2047079
1.2046422
1.2045774
1.2045129
1.2044483
1.2043833
1.2043182
1.2042529
1.2041876
1.2041222
1.2040568
1.2039915
1.2039263
1.2038611
1.2046083
1.204677
1.2046828
1.2046396
1.2045813
1.2045223
1.2044644
1.2044067
1.2043489
1.2042908
1.2042326
1.2041742
1.2041158
1.2040573
1.2039989
1.2039405
1.2038824
1.203824
1.2044738
1.2045469
1.2045538
1.2045148
1.2044628
1.2044106
1.2043595
1.2043086
1.2042576
1.2042064
1.204155
1.2041036
1.204052
1.2040005
1.203949
1.2038975
1.2038462
1.2037947
1.2043529
1.2044291
1.2044357
1.2044005
1.2043545
1.2043091
1.2042647
1.2042205
1.2041762
1.2041317
1.2040872
1.2040426
1.2039979
1.2039532
1.2039085
1.2038638
1.2038192
1.2037744
1.2042492
1.2043267
1.204332
1.2042997
1.2042592
1.2042199
1.2041819
1.2041442
1.2041064
1.2040687
1.2040309
1.203993
1.2039551
1.2039171
1.2038791
1.2038411
1.2038031
1.2037649
1.2041581
1.2042314
1.2042345
1.2042064
1.2041729
1.2041411
1.2041104
1.2040798
1.2040492
1.2040185
1.2039876
1.2039566
1.2039254
1.2038941
1.2038626
1.2038311
1.2037996
1.2037677
1.2040775
1.2041436
1.2041434
1.204122
1.2040983
1.2040758
1.2040535
1.2040309
1.2040078
1.2039842
1.2039603
1.2039361
1.2039115
1.2038866
1.2038614
1.203836
1.2038106
1.2037846
1.2040175
1.2040784
1.2040756
1.2040614
1.2040472
1.2040335
1.2040191
1.2040038
1.2039876
1.2039707
1.2039532
1.203935
1.2039164
1.2038973
1.2038778
1.203858
1.2038381
1.2038175
1.203985
1.2040451
1.2040425
1.2040352
1.2040288
1.2040219
1.2040137
1.2040043
1.2039937
1.2039821
1.2039697
1.2039566
1.2039429
1.2039286
1.2039139
1.2038989
1.2038837
1.2038679
1.2039836
1.2040539
1.2040628
1.2040603
1.2040558
1.2040508
1.204045
1.2040383
1.2040306
1.2040221
1.2040129
1.2040032
1.203993
1.2039823
1.2039714
1.2039602
1.2039488
1.2039369
1.2040161
1.2041011
1.2041282
1.2041279
1.204121
1.2041146
1.2041087
1.2041026
1.204096
1.204089
1.2040816
1.204074
1.2040662
1.2040581
1.2040499
1.2040416
1.2040334
1.2040246
1.204079
1.2041855
1.2042279
1.2042262
1.2042151
1.2042062
1.2041991
1.2041926
1.2041861
1.2041797
1.2041734
1.2041672
1.204161
1.2041548
1.2041488
1.2041428
1.2041369
1.2041307
1.2041634
1.2042877
1.2043396
1.2043368
1.2043238
1.2043142
1.2043072
1.204301
1.2042952
1.2042897
1.2042845
1.2042796
1.204275
1.2042705
1.2042663
1.2042622
1.2042584
1.2042543
1.2042778
1.2043975
1.2044474
1.2044468
1.2044374
1.204431
1.2044266
1.2044227
1.204419
1.2044154
1.2044121
1.2044089
1.204406
1.2044033
1.2044008
1.2043985
1.2043963
1.204394
1.2044225
1.2045344
1.2045809
1.2045814
1.2045742
1.2045697
1.2045669
1.2045644
1.204562
1.2045597
1.2045577
1.2045558
1.2045542
1.2045527
1.2045515
1.2045504
1.2045495
1.2045484
1.2045968
1.2046959
1.204736
1.2047358
1.2047295
1.204726
1.2047239
1.2047222
1.2047206
1.2047191
1.2047179
1.2047169
1.2047161
1.2047154
1.2047149
1.2047146
1.2047143
1.2047138
1.2047877
1.204871
1.2049031
1.2049018
1.2048961
1.2048929
1.2048912
1.2048898
1.2048886
1.2048877
1.204887
1.2048866
1.2048863
1.2048863
1.2048863
1.2048865
1.2048867
1.2048866
1.2049916
1.2050545
1.2050772
1.2050748
1.2050695
1.2050664
1.2050644
1.2050628
1.2050614
1.2050603
1.2050594
1.2050587
1.2050583
1.2050579
1.2050577
1.2050576
1.2050573
1.2050567
1.2051771
1.2052104
1.2052203
1.2052162
1.2052112
1.2052084
1.2052067
1.2052057
1.2052051
1.2052049
1.2052051
1.2052055
1.2052061
1.2052067
1.2052072
1.2052074
1.2052072
1.2052064
1.2053233
1.205342
1.2053503
1.2053521
1.205351
1.2053489
1.2053462
1.2053433
1.2053399
1.2053361
1.205332
1.2053276
1.2053231
1.2053185
1.2053139
1.2053092
1.2053043
1.2052989
1.205376
1.2053727
1.2053693
1.2053661
1.2053629
1.2053594
1.2053554
1.2053508
1.2053456
1.20534
1.2053337
1.2053269
1.2053195
1.2053115
1.2053028
1.2052934
1.2052832
1.2052722
1.2053236
1.2053214
1.2053181
1.2053148
1.2053111
1.2053068
1.2053019
1.2052965
1.2052907
1.2052843
1.2052775
1.2052702
1.2052623
1.205254
1.2052452
1.2052359
1.2052261
1.2052158
1.2052601
1.2052562
1.2052515
1.2052471
1.2052429
1.2052384
1.2052337
1.2052286
1.2052232
1.2052174
1.2052111
1.2052044
1.2051972
1.2051895
1.2051813
1.2051725
1.2051631
1.2051945
1.2051918
1.2051882
1.2051848
1.2051812
1.2051771
1.2051727
1.2051679
1.2051626
1.205157
1.2051509
1.2051445
1.2051375
1.2051302
1.2051224
1.2051141
1.2051054
1.2051355
1.2051322
1.2051281
1.2051243
1.2051204
1.2051162
1.2051118
1.2051071
1.205102
1.2050966
1.2050909
1.2050848
1.2050782
1.2050713
1.2050639
1.205056
1.2050476
1.2050767
1.2050739
1.2050702
1.2050668
1.2050632
1.2050594
1.2050552
1.2050506
1.2050458
1.2050406
1.2050351
1.2050292
1.2050229
1.2050163
1.2050092
1.2050018
1.2049939
1.2050227
1.2050197
1.2050159
1.2050123
1.2050086
1.2050047
1.2050005
1.2049961
1.2049913
1.2049863
1.204981
1.2049753
1.2049693
1.204963
1.2049563
1.2049491
1.2049416
1.2049699
1.204967
1.2049635
1.20496
1.2049564
1.2049527
1.2049486
1.2049443
1.2049397
1.2049348
1.2049297
1.2049242
1.2049184
1.2049123
1.2049059
1.2048991
1.2048919
1.2049204
1.2049175
1.2049138
1.2049103
1.2049068
1.204903
1.204899
1.2048948
1.2048903
1.2048856
1.2048806
1.2048753
1.2048697
1.2048638
1.2048576
1.2048511
1.2048442
1.2048725
1.2048696
1.2048661
1.2048627
1.2048591
1.2048554
1.2048515
1.2048473
1.204843
1.2048383
1.2048335
1.2048283
1.2048229
1.2048173
1.2048113
1.204805
1.2047984
1.204827
1.2048241
1.2048206
1.2048172
1.2048137
1.20481
1.2048062
1.2048021
1.2047978
1.2047933
1.2047886
1.2047836
1.2047784
1.2047729
1.2047671
1.2047611
1.2047547
1.2047832
1.2047803
1.2047769
1.2047735
1.20477
1.2047664
1.2047626
1.2047586
1.2047544
1.2047499
1.2047453
1.2047405
1.2047354
1.2047301
1.2047245
1.2047187
1.2047126
1.2047413
1.2047384
1.204735
1.2047316
1.2047282
1.2047246
1.2047209
1.204717
1.2047129
1.2047085
1.204704
1.2046993
1.2046944
1.2046893
1.2046839
1.2046782
1.2046723
1.2047009
1.204698
1.2046947
1.2046913
1.204688
1.2046844
1.2046807
1.2046769
1.2046728
1.2046686
1.2046642
1.2046596
1.2046548
1.2046498
1.2046446
1.2046391
1.2046334
1.2046621
1.2046592
1.2046559
1.2046526
1.2046493
1.2046458
1.2046422
1.2046384
1.2046345
1.2046303
1.2046261
1.2046216
1.2046169
1.2046121
1.204607
1.2046017
1.2045962
1.2046246
1.2046217
1.2046185
1.2046153
1.204612
1.2046086
1.204605
1.2046013
1.2045974
1.2045934
1.2045892
1.2045848
1.2045803
1.2045755
1.2045706
1.2045655
1.2045601
1.2045884
1.2045856
1.2045824
1.2045792
1.204576
1.2045727
1.2045692
1.2045655
1.2045617
1.2045578
1.2045537
1.2045495
1.204545
1.2045404
1.2045357
1.2045307
1.2045255
1.2045533
1.2045506
1.2045474
1.2045443
1.2045412
1.2045379
1.2045344
1.2045309
1.2045272
1.2045233
1.2045193
1.2045152
1.2045109
1.2045064
1.2045018
1.2044969
1.2044919
1.2045193
1.2045166
1.2045136
1.2045105
1.2045074
1.2045042
1.2045009
1.2044974
1.2044938
1.20449
1.2044862
1.2044821
1.2044779
1.2044736
1.2044691
1.2044644
1.2044596
1.2044863
1.2044836
1.2044807
1.2044777
1.2044747
1.2044715
1.2044682
1.2044649
1.2044614
1.2044577
1.2044539
1.20445
1.204446
1.2044418
1.2044374
1.2044328
1.2044281
1.2044542
1.2044516
1.2044487
1.2044458
1.2044429
1.2044398
1.2044366
1.2044333
1.2044299
1.2044264
1.2044227
1.2044189
1.204415
1.2044109
1.2044067
1.2044023
1.2043978
1.204423
1.2044205
1.2044177
1.2044148
1.204412
1.204409
1.2044059
1.2044027
1.2043994
1.204396
1.2043924
1.2043887
1.2043849
1.204381
1.2043769
1.2043726
1.2043683
1.2043928
1.2043903
1.2043875
1.2043848
1.204382
1.2043791
1.2043761
1.204373
1.2043698
1.2043665
1.204363
1.2043595
1.2043558
1.204352
1.204348
1.2043439
1.2043397
1.2043634
1.204361
1.2043583
1.2043556
1.2043529
1.2043501
1.2043472
1.2043442
1.2043411
1.2043378
1.2043345
1.2043311
1.2043275
1.2043238
1.20432
1.2043161
1.204312
1.2043349
1.2043325
1.2043299
1.2043273
1.2043247
1.204322
1.2043191
1.2043162
1.2043132
1.2043101
1.2043069
1.2043036
1.2043001
1.2042966
1.2042929
1.2042891
1.2042851
1.2043072
1.204305
1.2043025
1.2042999
1.2042974
1.2042947
1.204292
1.2042892
1.2042863
1.2042832
1.2042801
1.2042769
1.2042736
1.2042701
1.2042666
1.2042629
1.2042805
1.2042783
1.2042758
1.2042734
1.2042709
1.2042684
1.2042657
1.204263
1.2042602
1.2042572
1.2042542
1.2042511
1.2042479
1.2042446
1.2042412
1.2042376
1.2042546
1.2042525
1.2042501
1.2042478
1.2042454
1.2042429
1.2042403
1.2042377
1.2042349
1.2042321
1.2042292
1.2042262
1.2042231
1.2042199
1.2042166
1.2042132
1.2042296
1.2042275
1.2042253
1.204223
1.2042207
1.2042183
1.2042158
1.2042132
1.2042106
1.2042079
1.2042051
1.2042022
1.2041992
1.2041961
1.2041929
1.2041896
1.2042055
1.2042035
1.2042013
1.2041991
1.2041968
1.2041945
1.2041921
1.2041897
1.2041871
1.2041845
1.2041818
1.204179
1.2041761
1.2041732
1.2041701
1.2041669
1.2041823
1.2041803
1.2041782
1.2041761
1.2041739
1.2041717
1.2041694
1.204167
1.2041646
1.2041621
1.2041594
1.2041568
1.204154
1.2041511
1.2041482
1.2041451
1.20416
1.2041581
1.2041561
1.204154
1.2041519
1.2041498
1.2041476
1.2041453
1.2041429
1.2041405
1.204138
1.2041354
1.2041328
1.20413
1.2041272
1.2041243
1.2041386
1.2041368
1.2041349
1.2041329
1.2041309
1.2041288
1.2041267
1.2041245
1.2041222
1.2041199
1.2041175
1.204115
1.2041124
1.2041098
1.2041071
1.2041043
1.2041182
1.2041165
1.2041146
1.2041127
1.2041108
1.2041088
1.2041068
1.2041046
1.2041025
1.2041002
1.2040979
1.2040955
1.2040931
1.2040905
1.2040879
1.2040852
1.2040988
1.2040971
1.2040953
1.2040935
1.2040916
1.2040897
1.2040877
1.2040857
1.2040836
1.2040815
1.2040792
1.2040769
1.2040746
1.2040721
1.2040696
1.2040671
1.2040802
1.2040786
1.2040769
1.2040752
1.2040734
1.2040715
1.2040696
1.2040677
1.2040657
1.2040636
1.2040615
1.2040593
1.204057
1.2040546
1.2040522
1.2040497
1.2040626
1.204061
1.2040594
1.2040577
1.204056
1.2040542
1.2040524
1.2040505
1.2040486
1.2040466
1.2040445
1.2040424
1.2040402
1.204038
1.2040356
1.2040333
1.2040458
1.2040443
1.2040427
1.2040411
1.2040394
1.2040377
1.204036
1.2040342
1.2040323
1.2040304
1.2040284
1.2040264
1.2040243
1.2040221
1.2040199
1.2040176
1.2040299
1.2040285
1.2040269
1.2040254
1.2040238
1.2040221
1.2040204
1.2040187
1.2040169
1.204015
1.2040131
1.2040111
1.2040091
1.204007
1.2040049
1.2040027
1.2040149
1.2040135
1.204012
1.2040105
1.2040089
1.2040073
1.2040057
1.204004
1.2040023
1.2040005
1.2039986
1.2039968
1.2039948
1.2039928
1.2039907
1.2039886
1.2040007
1.2039994
1.2039979
1.2039965
1.203995
1.2039935
1.2039919
1.2039903
1.2039886
1.2039869
1.2039851
1.2039833
1.2039814
1.2039794
1.2039774
1.2039754
1.2039875
1.2039862
1.2039848
1.2039834
1.203982
1.2039805
1.203979
1.2039774
1.2039758
1.2039742
1.2039725
1.2039707
1.2039689
1.203967
1.2039651
1.2039753
1.203974
1.2039727
1.2039714
1.20397
1.2039686
1.2039671
1.2039656
1.203964
1.2039624
1.2039608
1.2039591
1.2039573
1.2039555
1.2039536
1.2039641
1.2039629
1.2039616
1.2039603
1.203959
1.2039576
1.2039562
1.2039547
1.2039532
1.2039517
1.2039501
1.2039484
1.2039467
1.203945
1.2039432
1.2039539
1.2039527
1.2039515
1.2039502
1.203949
1.2039476
1.2039463
1.2039449
1.2039434
1.2039419
1.2039404
1.2039388
1.2039371
1.2039354
1.2039337
1.2039448
1.2039436
1.2039425
1.2039412
1.20394
1.2039387
1.2039374
1.203936
1.2039346
1.2039332
1.2039317
1.2039301
1.2039285
1.2039269
1.2039252
1.2039367
1.2039356
1.2039345
1.2039333
1.2039321
1.2039308
1.2039296
1.2039282
1.2039269
1.2039255
1.203924
1.2039225
1.203921
1.2039194
1.2039178
1.2039298
1.2039288
1.2039277
1.2039265
1.2039253
1.2039241
1.2039229
1.2039216
1.2039203
1.2039189
1.2039175
1.203916
1.2039145
1.203913
1.2039114
1.2039242
1.2039232
1.2039221
1.203921
1.2039198
1.2039186
1.2039174
1.2039161
1.2039148
1.2039135
1.2039121
1.2039107
1.2039092
1.2039077
1.2039062
1.20392
1.2039189
1.2039179
1.2039168
1.2039156
1.2039145
1.2039133
1.203912
1.2039107
1.2039094
1.2039081
1.2039067
1.2039052
1.2039038
1.2039022
1.2039169
1.2039159
1.2039148
1.2039138
1.2039126
1.2039115
1.2039103
1.2039091
1.2039078
1.2039065
1.2039052
1.2039038
1.2039024
1.2039009
1.2038994
1.2039158
1.2039148
1.2039138
1.2039127
1.2039116
1.2039105
1.2039093
1.2039081
1.2039069
1.2039056
1.2039043
1.2039029
1.2039015
1.2039001
1.2038986
1.2039153
1.2039143
1.2039132
1.2039122
1.2039111
1.2039099
1.2039088
1.2039076
1.2039063
1.203905
1.2039037
1.2039024
1.203901
1.2038995
1.2039137
1.2039125
1.2039113
1.2039101
1.2039089
1.2039077
1.2039064
1.2039052
1.2039039
1.2039025
1.2039012
1.2038998
1.2038984
1.203897
1.1817302
1.1817822
1.181888
1.1820479
1.1822193
1.1823891
1.1825618
1.1827461
1.1829519
1.1831826
1.183425
1.183669
1.1839146
1.1841686
1.1844379
1.1847196
1.1850095
1.1853061
1.1856085
1.1817368
1.1818722
1.1820083
1.1821659
1.1823237
1.1824816
1.1826495
1.1828371
1.1830503
1.1832892
1.1835457
1.1838149
1.1840904
1.1843707
1.1846563
1.184946
1.1852384
1.1855345
1.1815365
1.1816122
1.1817269
1.1818901
1.1820662
1.182252
1.1824534
1.1826751
1.1829198
1.1831874
1.1834727
1.1837664
1.184063
1.1843603
1.1846611
1.1849652
1.1852718
1.1855818
1.1812373
1.1813121
1.1814484
1.1816393
1.1818452
1.1820617
1.1822939
1.182545
1.1828161
1.1831049
1.1834057
1.1837128
1.1840236
1.1843372
1.1846545
1.1849743
1.1852961
1.1809015
1.1809987
1.1811645
1.1813852
1.1816218
1.1818701
1.1821344
1.1824159
1.1827136
1.1830243
1.183344
1.1836692
1.1839984
1.1843305
1.1846649
1.1850003
1.1853368
1.1805366
1.1806647
1.180865
1.1811206
1.1813925
1.181676
1.1819741
1.1822866
1.1826119
1.1829468
1.1832884
1.1836344
1.1839832
1.1843335
1.1846844
1.1850348
1.1801484
1.1803144
1.1805555
1.1808512
1.1811622
1.1814834
1.1818165
1.182161
1.182515
1.1828756
1.1832405
1.1836077
1.1839762
1.1843441
1.1847115
1.185077
1.179743
1.1799542
1.1802419
1.1805821
1.1809353
1.1812959
1.1816653
1.1820428
1.1824266
1.1828136
1.1832023
1.1835907
1.1839789
1.1843643
1.1847492
1.1793272
1.1795902
1.1799297
1.180318
1.1807156
1.1811172
1.181524
1.1819353
1.1823499
1.182763
1.1831755
1.1835851
1.1839943
1.1843984
1.1848014
1.1789085
1.1792293
1.1796247
1.1800638
1.1805073
1.1809509
1.1813956
1.1818418
1.1822879
1.1827257
1.1831634
1.1835952
1.1840264
1.1844513
1.1784955
1.1788794
1.1793329
1.179824
1.180314
1.1808007
1.1812834
1.1817667
1.1822462
1.1827048
1.1831699
1.1836264
1.1840601
1.1844959
1.178101
1.1785496
1.1790589
1.1796028
1.1801389
1.180672
1.1811939
1.181714
1.182229
1.1827044
1.1831788
1.1836543
1.1841132
1.1845638
1.1777403
1.1782489
1.1788069
1.1794083
1.1799884
1.1805756
1.1811402
1.1816712
1.1822041
1.1827159
1.1832179
1.1837091
1.1841848
1.177408
1.1779651
1.1785944
1.1792577
1.1798745
1.1804925
1.1810887
1.1816594
1.1822166
1.1827544
1.1832763
1.1837821
1.1842713
1.1770821
1.1777279
1.1784249
1.179129
1.1797997
1.1804502
1.1810754
1.1816764
1.1822563
1.1828145
1.1833532
1.183873
1.184374
1.1768249
1.177541
1.1782957
1.179044
1.1797581
1.1804411
1.1810945
1.1817207
1.1823214
1.1828976
1.1834512
1.1839833
1.176631
1.1774094
1.1782153
1.1790054
1.1797558
1.1804685
1.1811476
1.1817955
1.1824143
1.1830057
1.1835717
1.1841138
1.1765035
1.1773385
1.1781898
1.1790163
1.1797974
1.1805359
1.1812367
1.1819028
1.1825365
1.18314
1.1837157
1.1842653
1.1764483
1.1773336
1.1782236
1.1790801
1.1798863
1.1806459
1.1813641
1.1820442
1.1826892
1.1833017
1.1838843
1.1844387
1.1764708
1.1773993
1.1783203
1.1792
1.1800254
1.1808007
1.1815314
1.1822214
1.1828739
1.1834918
1.1840781
1.1765754
1.1775396
1.1784834
1.179379
1.180217
1.1810023
1.1817405
1.1824357
1.1830915
1.1837112
1.1842977
1.1767662
1.1777577
1.1787158
1.1796195
1.1804633
1.1812525
1.1819927
1.1826882
1.183343
1.1839606
1.184544
1.1770465
1.1780567
1.17902
1.1799236
1.1807661
1.1815528
1.1822892
1.18298
1.1836293
1.1842407
1.1848176
1.1774194
1.1784392
1.1793981
1.1802931
1.1811268
1.1819045
1.1826313
1.1833119
1.1839508
1.1845521
1.185119
1.177889
1.1789087
1.1798525
1.1807298
1.181547
1.1823089
1.1830197
1.1836845
1.1843082
1.1848956
1.1854501
1.1784595
1.1794695
1.1803866
1.1812364
1.1820297
1.1827688
1.1834568
1.1840997
1.1847031
1.1852735
1.1858167
1.1791188
1.1801133
1.1809961
1.1818151
1.1825806
1.1832907
1.1839494
1.1845651
1.1851439
1.1856919
1.1862158
1.1798254
1.1807937
1.1816415
1.1824276
1.1831629
1.1838395
1.1844621
1.1850487
1.1856035
1.1861276
1.1866218
1.1805902
1.1815142
1.1823231
1.1830627
1.1837585
1.1843958
1.1849693
1.185517
1.1860399
1.1865368
1.1870142
1.1814003
1.1822942
1.1830396
1.1837285
1.1843927
1.1849807
1.1855019
1.1860124
1.1865019
1.1869593
1.1873769
1.1823246
1.1831654
1.1838245
1.1844179
1.1849641
1.185523
1.1860965
1.1866064
1.1870707
1.1875023
1.1879048
1.1882946
1.1835662
1.1843006
1.1848659
1.185381
1.1858753
1.1863638
1.1868404
1.1872858
1.187701
1.1880908
1.1884582
1.1888087
1.1848446
1.1855019
1.185976
1.1864052
1.1868239
1.1872325
1.1876279
1.1880063
1.1883663
1.1887082
1.1890328
1.1893429
1.1861379
1.1867245
1.1871105
1.1874544
1.1877946
1.1881282
1.1884527
1.1887667
1.1890692
1.1893597
1.189638
1.1899053
1.1874851
1.1879965
1.1882901
1.188546
1.1888056
1.1890639
1.1893174
1.1895658
1.1898084
1.1900444
1.1902734
1.1904952
1.1907112
1.1888929
1.1893238
1.1895198
1.1896836
1.1898593
1.1900398
1.1902206
1.1904014
1.1905819
1.1907609
1.1909379
1.1911119
1.1912832
1.1903613
1.190707
1.1908002
1.1908675
1.1909555
1.1910554
1.1911612
1.1912725
1.1913886
1.1915086
1.1916311
1.1917551
1.1918798
1.1918888
1.1921451
1.1921308
1.1920974
1.1920944
1.1921104
1.1921386
1.1921781
1.1922278
1.1922865
1.1923525
1.1924245
1.192501
1.1925828
1.1934719
1.1936356
1.1935101
1.1933725
1.193275
1.1932043
1.1931523
1.1931176
1.1930987
1.193094
1.1931015
1.1931195
1.1931461
1.1931807
1.1951065
1.1951753
1.1949356
1.1946908
1.1944961
1.194336
1.1942013
1.1940901
1.1940006
1.1939304
1.1938776
1.1938398
1.193815
1.1938012
1.1967872
1.1967598
1.1964038
1.1960498
1.1957557
1.1955041
1.1952846
1.1950948
1.1949325
1.1947951
1.19468
1.1945849
1.1945071
1.1944439
1.1943955
1.1985081
1.198384
1.1979109
1.1974464
1.1970515
1.1967067
1.1964007
1.1961306
1.1958938
1.1956873
1.1955083
1.195354
1.1952216
1.1951081
1.1950115
1.2002629
1.2000425
1.1994528
1.1988773
1.1983808
1.1979418
1.1975481
1.1971964
1.1968835
1.1966063
1.1963618
1.1961467
1.1959582
1.195793
1.1956479
1.1955237
1.2020442
1.2017279
1.2010243
1.2003387
1.1997404
1.1992068
1.1987247
1.1982905
1.1979004
1.197551
1.1972394
1.1969622
1.1967163
1.196498
1.1963036
1.196132
1.2038427
1.203428
1.2026158
1.2018232
1.201124
1.2004961
1.1999259
1.1994096
1.198942
1.1985191
1.1981394
1.197799
1.1974948
1.1972224
1.1969776
1.1967587
1.1965661
1.2056573
1.2051273
1.2042112
1.2033179
1.2025207
1.2018007
1.2011442
1.2005483
1.2000057
1.1995095
1.1990613
1.1986571
1.1982943
1.1979677
1.1976713
1.1974047
1.1971662
1.2075356
1.2068445
1.2058258
1.2048413
1.2039486
1.2031376
1.2023955
1.2017231
1.2011108
1.200542
1.200024
1.1995536
1.1991303
1.198749
1.1983987
1.1980813
1.1977955
1.1975407
1.2095682
1.2086879
1.2076187
1.2065628
1.2055679
1.204652
1.2038058
1.2030432
1.2023555
1.2017033
1.2011038
1.2005532
1.2000563
1.1996126
1.1991996
1.1988212
1.1984799
1.1981741
1.2113987
1.2105609
1.2097092
1.2086887
1.207637
1.206615
1.2056302
1.20474
1.2039327
1.2031575
1.20244
1.2017715
1.2011648
1.2006338
1.200136
1.1996745
1.1992573
1.1988872
1.1985507
1.1825497
1.182736
1.1828354
1.1829648
1.1831082
1.1832538
1.1834021
1.1835564
1.1837192
1.1838907
1.1840703
1.1842537
1.1844463
1.1846512
1.1848728
1.1851084
1.1853545
1.1856088
1.1858709
1.1827561
1.1829545
1.1830976
1.1832311
1.1833623
1.1834944
1.183631
1.1837751
1.1839271
1.1840853
1.1842466
1.1844135
1.1845907
1.1847835
1.1849932
1.1852172
1.1854526