/*--------------------------------*- C++ -*----------------------------------*\
| =========                 |                                                 |
| \\      /  F ield         | OpenFOAM: The Open Source CFD Toolbox           |
|  \\    /   O peration     | Version:  2406                                  |
|   \\  /    A nd           | Website:  www.openfoam.com                      |
|    \\/     M anipulation  |                                                 |
\*---------------------------------------------------------------------------*/
FoamFile
{
    version     2.0;
    format      ascii;
    arch        "LSB;label=32;scalar=64";
    class       volScalarField;
    location    "0.016";
    object      k;
}
// * * * * * * * * * * * * * * * * * * * * * * * * * * * * * * * * * * * * * //

dimensions      [0 2 -2 0 0 0 0];

internalField   nonuniform List<scalar> 
92813
(
661.44329
648.18549
632.91598
616.09483
598.01927
578.91665
559.00172
538.48772
517.57565
496.44614
475.25652
454.14081
433.21134
412.55944
392.25221
372.34164
352.86759
333.8605
315.34308
297.33222
279.84655
262.90409
246.51702
230.69216
215.43262
200.73876
186.6087
173.03877
160.02394
147.55815
135.63463
124.24616
113.3853
103.04454
93.216523
83.894097
75.070666
66.740553
58.897375
51.534146
44.653863
38.256668
32.341557
26.913185
21.979681
17.55159
13.665735
10.367405
7.7094675
5.7245751
4.3747316
3.5208769
2.9857374
2.6293646
2.3677771
2.159069
1.9836751
1.8319507
1.6987533
1.5806501
1.4753721
1.3815871
1.2975232
1.2221392
1.1544913
1.0932538
1.0378056
0.9875101
0.94141805
0.89930564
0.8609744
0.82570859
0.79343464
0.76414804
0.73724786
0.71265802
0.6903262
0.6699066
0.65106077
0.63376001
0.6180017
0.6033429
0.58982869
0.57743555
0.56578461
0.55501601
0.54495696
0.53554154
0.52683281
0.51860307
0.51101826
0.50390288
0.49721864
0.49106482
0.48521582
0.47971729
0.47464397
0.46983572
0.46529552
0.46108341
0.45710677
0.45338286
0.44991652
0.44664422
0.44356539
0.44065755
0.43788916
0.43531728
0.43295898
0.43077114
0.42872611
0.42682046
0.42504845
0.42338633
0.42184872
0.42044002
0.41913858
0.41794418
0.41686487
0.41590041
0.41504973
0.41430517
0.41369309
0.41317853
0.41283064
0.41250137
0.41248206
651.00458
636.28258
619.93744
602.42136
583.94347
564.67599
544.79212
524.46476
503.85827
483.12256
462.39015
441.77495
421.37236
401.25964
381.49519
362.12428
343.18094
324.68963
306.66897
289.13373
272.09964
255.58348
239.59862
224.15399
209.25446
194.90172
181.09507
167.83191
155.10825
142.91902
131.25842
120.12016
109.4977
99.384423
89.773824
80.659604
72.035977
63.898244
56.241426
49.056902
42.349007
36.122542
30.375069
25.113585
20.349758
16.103619
12.413296
9.3295378
6.9050607
5.1556514
4.0061639
3.2925274
2.8409793
2.5299189
2.2932411
2.0991343
1.9333148
1.7886968
1.6612091
1.5478466
1.4465534
1.356259
1.2752002
1.2024221
1.1370495
1.0777386
1.0239662
0.97514871
0.93033412
0.88932292
0.85198915
0.81764574
0.78620936
0.75766934
0.73148901
0.70751811
0.68572131
0.66581545
0.64741472
0.63050215
0.6150857
0.60072752
0.58748532
0.57533194
0.56388165
0.55328992
0.54339768
0.53411129
0.52552389
0.51740203
0.50990466
0.50288485
0.49627638
0.4901957
0.48442524
0.47899145
0.47397916
0.46923719
0.46474791
0.46058242
0.45665352
0.45296488
0.44953276
0.44629374
0.44324255
0.44036169
0.43761692
0.43506336
0.43272299
0.43055376
0.42852493
0.42663324
0.42487659
0.42322837
0.4217016
0.42030337
0.41901247
0.41782631
0.41675404
0.41579583
0.4149508
0.41421101
0.41360262
0.41309153
0.41274545
0.4124179
0.41239905
637.65284
622.12534
605.24315
587.4029
568.79661
549.57502
529.88526
509.87129
489.66914
469.40371
449.18655
429.11463
409.26965
389.71787
370.51063
351.68741
333.27786
315.30379
297.78241
280.72728
264.15275
248.07462
232.5056
217.4551
202.929
188.93014
175.45895
162.51393
150.09216
138.18963
126.80157
115.92268
105.54741
95.670089
86.285162
77.387281
68.971556
61.034168
53.570848
46.57423
40.050146
34.004907
28.437059
23.357062
18.780527
14.734235
11.260697
8.413663
6.2379304
4.720278
3.7474643
3.1426841
2.7487839
2.4667465
2.2454771
2.0606071
1.9011644
1.7614428
1.6379239
1.5278453
1.4292816
1.3413428
1.262276
1.1911944
1.1272701
1.0691658
1.0164248
0.968503
0.92446958
0.88411724
0.84736333
0.81354911
0.78253959
0.75437832
0.72857217
0.70491217
0.68338374
0.66374392
0.64556933
0.62885079
0.61360778
0.5994018
0.5862954
0.57426367
0.56291312
0.55240257
0.5425959
0.53336036
0.52482637
0.51675194
0.50928434
0.50231336
0.49573473
0.48968617
0.48396258
0.47855987
0.47357687
0.46887659
0.4644136
0.46027042
0.45636974
0.45269757
0.44928196
0.44606193
0.44302562
0.44016012
0.4374282
0.43488174
0.43254906
0.43039019
0.42837041
0.42648618
0.42473893
0.4230996
0.42157892
0.42018674
0.41890278
0.41772161
0.41665343
0.41569884
0.41485724
0.41412039
0.41351406
0.4130051
0.41266018
0.41233317
0.41231461
621.49952
605.50396
588.44486
570.61277
552.16067
533.21743
513.90966
494.3603
474.68477
454.98903
435.36823
415.90568
396.67217
377.72578
359.11241
340.86763
323.01852
305.58572
288.58586
272.03181
255.93718
240.31708
225.18355
210.5461
196.41134
182.78314
169.66305
157.05077
144.94454
133.34149
122.23796
111.62976
101.51238
91.881242
82.731804
74.059765
65.861221
58.133378
50.87185
44.073042
37.744149
31.890612
26.514043
21.628607
17.253956
13.422495
10.18094
7.5821989
5.6550872
4.3515645
3.5286396
3.0108654
2.6623764
2.4038407
2.1957941
2.0193364
1.8659621
1.7310364
1.6114807
1.5047353
1.4089784
1.3235083
1.2465564
1.1773058
1.1149731
1.0582108
1.0066316
0.95973961
0.91662406
0.8770491
0.84098859
0.80784349
0.77739589
0.74973462
0.72444222
0.70120091
0.68003498
0.66076141
0.64289703
0.62645001
0.6114486
0.5974562
0.5845423
0.57268166
0.56147281
0.55108533
0.54140239
0.53225421
0.52380358
0.51580874
0.50839754
0.50149986
0.49497619
0.48897777
0.48332016
0.47796819
0.47302793
0.4683832
0.46396144
0.45985094
0.45598981
0.45234539
0.44895421
0.4457613
0.44274766
0.43990363
0.43719126
0.43465822
0.43233821
0.43019417
0.42818763
0.42631444
0.42457938
0.42295202
0.42144023
0.42005624
0.41878132
0.41760712
0.4165447
0.41559513
0.41475817
0.4140254
0.41342192
0.41291579
0.41257242
0.41224654
0.41222836
603.08646
586.93278
569.95403
552.36118
534.26729
515.77707
496.9974
478.0332
458.98328
439.9386
420.98128
402.18374
383.60819
365.30639
347.32018
329.68262
312.4195
295.55109
279.094
263.06089
247.46503
232.32104
217.6406
203.43324
189.70614
176.46409
163.70975
151.44398
139.66623
128.37485
117.56736
107.24072
97.391598
88.016505
79.112032
70.674978
62.702542
55.193268
48.141843
41.549959
35.426594
29.774272
24.59974
19.920568
15.760712
12.157782
9.1616264
6.8199457
5.1382161
4.0319679
3.3385456
2.893216
2.582397
2.343853
2.14758
1.9789712
1.8314737
1.70129
1.5856828
1.4822741
1.3893312
1.3063366
1.2314954
1.1640702
1.1033165
1.0478794
0.99744058
0.95155873
0.90935813
0.8705461
0.83515477
0.80266211
0.77274768
0.74555257
0.72073918
0.69788622
0.67705531
0.65810806
0.64052146
0.62432639
0.60954112
0.59573964
0.58299949
0.57128775
0.56020609
0.54992829
0.54035494
0.53128091
0.52289993
0.51497509
0.50760992
0.50077706
0.49430149
0.48834453
0.48274762
0.47744149
0.4725365
0.46794176
0.46355742
0.45947332
0.45564702
0.45202726
0.44865579
0.44548645
0.44249312
0.43966777
0.43697281
0.43445084
0.43214088
0.43000964
0.42801484
0.42615126
0.42442663
0.42281012
0.42130623
0.41992921
0.41866247
0.41749454
0.41643724
0.41549206
0.41465919
0.41393012
0.41332906
0.41282539
0.41248338
0.41215831
0.41214046
582.77941
566.74693
550.06386
532.8898
515.3087
497.40457
479.26626
460.98246
442.63762
424.31024
406.07178
387.98596
370.10818
352.48539
335.15637
318.15257
301.49922
285.21675
269.3221
253.82818
238.74825
224.09679
209.88532
196.1235
182.819
169.97744
157.6025
145.69624
134.2593
123.29127
112.7909
102.75638
93.185562
84.076158
75.425924
67.232808
59.495222
52.213148
45.381217
39.005296
33.096257
27.654967
22.693412
18.232447
14.300859
10.941211
8.2045003
6.1273022
4.6843568
3.756657
3.1733249
2.7875032
2.5076312
2.2860159
2.1002098
1.9388896
1.7970301
1.6714705
1.5597291
1.4596022
1.3694385
1.2888954
1.2161387
1.1505252
1.0913411
1.037221
0.98791508
0.94304439
0.90177872
0.8637382
0.8290191
0.79719837
0.76783379
0.74111927
0.71680144
0.69435058
0.67387136
0.65526072
0.63796181
0.62203483
0.60747795
0.59387747
0.58132128
0.56976641
0.55882051
0.54866069
0.53920448
0.53021354
0.52190743
0.51406121
0.50674875
0.49998638
0.49356706
0.48765521
0.4821241
0.47687053
0.47200344
0.46746142
0.46311997
0.45906435
0.45527511
0.45168428
0.44833425
0.44519016
0.44221977
0.43941473
0.43673942
0.43423057
0.43193178
0.42981442
0.42783276
0.42597991
0.42426619
0.42266149
0.42116643
0.4197969
0.4185389
0.41737789
0.41632621
0.41538586
0.41455741
0.41383241
0.41323398
0.41273292
0.41239243
0.41206827
0.41205077
560.92457
545.23614
529.02545
512.41344
495.46479
478.24786
460.83638
443.30497
425.72576
408.16671
390.69046
373.35362
356.20615
339.29122
322.64529
306.29872
290.27657
274.59963
259.28542
244.34736
229.79902
215.65497
201.92684
188.62453
175.75622
163.32831
151.34549
139.81092
128.72648
118.09297
107.91042
98.178266
88.895606
80.06139
71.674597
63.734379
56.240473
49.194242
42.591269
36.440908
30.755205
25.535369
20.798494
16.568918
12.880733
9.7807618
7.3175354
5.5085481
4.2919396
3.5210756
3.0290858
2.6915076
2.4370795
2.2299731
2.0536204
1.899156
1.7627666
1.641759
1.5338276
1.4369528
1.3495645
1.2714694
1.2007836
1.136981
1.0793655
1.0265603
0.97838428
0.93452779
0.89421725
0.85695625
0.82291065
0.79177142
0.76296185
0.73673083
0.71290437
0.69085356
0.67072962
0.6524468
0.63542894
0.61977213
0.60544143
0.59203843
0.57966421
0.5682618
0.55745074
0.5474084
0.538067
0.52915928
0.52092511
0.51315765
0.50589772
0.49920426
0.49284314
0.48697504
0.48150878
0.47630936
0.47147868
0.466987
0.46268967
0.45866116
0.45490688
0.45134587
0.44801631
0.44489611
0.44194877
0.4391636
0.43650797
0.43401226
0.43172389
0.42961982
0.42765123
0.42580905
0.42410553
0.42251243
0.4210262
0.41966383
0.41841432
0.41726018
0.41621406
0.41527845
0.41445429
0.41373334
0.41313742
0.41263885
0.41229985
0.41197648
0.4119593
537.84076
522.6781
507.07865
491.139
474.91278
458.45725
441.83408
425.10629
408.33569
391.58138
374.89868
358.3383
341.94576
325.76112
309.81902
294.149
278.77606
263.72145
249.00331
234.63572
220.63272
207.00922
193.77711
180.94669
168.52671
156.52433
144.94521
133.7936
123.07255
112.78412
102.9296
93.509684
84.524762
75.975063
67.860852
60.182562
52.941376
46.139581
39.775107
33.860615
28.408172
23.421163
18.921879
14.938651
11.510987
8.6881973
6.5103942
4.9668304
3.9574924
3.3199382
2.9020769
2.6032929
2.3699018
2.1753977
2.0076914
1.8597192
1.7286547
1.6121292
1.5079343
1.4142682
1.3296517
1.2539914
1.1853475
1.1233443
1.0672877
1.0157883
0.96873517
0.92589302
0.8865514
0.85007475
0.81670601
0.78625416
0.75800672
0.73226867
0.70893082
0.68728145
0.66752254
0.64956662
0.63282938
0.61744849
0.60334819
0.59014418
0.57795446
0.56670623
0.55603313
0.5461113
0.53688588
0.52806594
0.51990512
0.51222007
0.5050164
0.49839271
0.49209534
0.48627278
0.48087189
0.47573088
0.47093794
0.46649564
0.46224577
0.45824554
0.45452538
0.45099671
0.44768869
0.44459215
0.44166901
0.43890451
0.43626965
0.43378829
0.4315106
0.42941994
0.42746514
0.42563423
0.42394082
0.42235962
0.42088272
0.41952768
0.41828675
0.41713976
0.41609944
0.41516878
0.41434901
0.41363228
0.41303896
0.4125429
0.41220545
0.41188286
0.41186599
513.827
499.34717
484.45296
469.26319
453.82237
438.17891
422.38487
406.49388
390.55932
374.63295
358.76395
342.9981
327.37718
311.93862
296.71549
281.7366
267.02691
252.60803
238.49871
224.7137
211.26763
198.17582
185.45062
173.10281
161.14176
149.57541
138.41037
127.65193
117.30433
107.37083
97.853966
88.755738
80.077819
71.821766
63.989194
56.581944
49.60285
43.053928
36.937944
31.270748
26.062237
21.320719
17.073598
13.353753
10.205517
7.6771129
5.7916849
4.5021675
3.6754126
3.1476331
2.788886
2.521227
2.3054215
2.1220418
1.9623513
1.8205725
1.6947129
1.5826088
1.482067
1.3915671
1.3097377
1.236503
1.1698687
1.1096539
1.0551476
1.004948
0.95901601
0.91719258
0.87882961
0.84314322
0.81046268
0.78070039
0.75302147
0.72778806
0.70493208
0.68368329
0.66429726
0.64666633
0.63020764
0.61510456
0.60123628
0.58823024
0.57622573
0.56513163
0.5545978
0.5447981
0.53568735
0.52695818
0.51887121
0.51127025
0.50412546
0.49757022
0.49134115
0.4855654
0.48022814
0.47514862
0.47039437
0.46599875
0.46179845
0.45782739
0.45413912
0.45064415
0.44735851
0.44428463
0.44138598
0.4386425
0.4360289
0.43356263
0.43129544
0.42921786
0.42727715
0.42545785
0.42377413
0.42220476
0.42073743
0.4193897
0.41815718
0.41701745
0.41598302
0.41505736
0.41424197
0.41352951
0.41293877
0.41244517
0.41210929
0.41178738
0.41177081
489.18095
475.47026
461.3511
446.96457
432.35002
417.5496
402.60812
387.57193
372.48758
357.40085
342.35579
327.39396
312.55391
297.87078
283.37615
269.09811
255.06146
241.28808
227.79719
214.60417
201.72423
189.17318
176.96386
165.10765
153.61457
142.49336
131.75152
121.39542
111.43039
101.8609
92.690741
83.923175
75.561192
67.607701
60.065724
52.938675
46.231414
39.944206
34.087407
28.679734
23.726696
19.245116
15.266788
11.829522
8.9806709
6.7611973
5.1669271
4.1108899
3.4386344
2.9987267
2.6865782
2.4439899
2.243112
2.0697185
1.9175539
1.7817217
1.6609599
1.553215
1.456225
1.3688467
1.2898357
1.2190148
1.1543483
1.0959039
1.0429347
0.99402854
0.94921816
0.90841842
0.87103282
0.83613979
0.8041662
0.7750899
0.74798414
0.72326902
0.70088705
0.6800378
0.66103112
0.64372608
0.62754574
0.61272075
0.59908682
0.58627846
0.57446095
0.56352259
0.55312989
0.54345478
0.53445746
0.52582271
0.51781192
0.51029743
0.50321521
0.49672717
0.49057193
0.48484557
0.47956981
0.4745553
0.46984191
0.46549038
0.46134187
0.45740207
0.45374368
0.4502837
0.44702218
0.44397041
0.44109651
0.43837482
0.43578319
0.43333315
0.43107663
0.42901192
0.42708582
0.42527864
0.42360444
0.42204685
0.4205895
0.41924924
0.41802503
0.41689274
0.41586437
0.41494387
0.41413292
0.41342479
0.41283671
0.41234557
0.41201129
0.41169
0.41167371
464.15635
451.26073
437.9568
424.40365
410.63687
396.69395
382.61422
368.43836
354.20753
339.96257
325.7432
311.58737
297.53078
283.60643
269.84451
256.27231
242.91434
229.79253
216.92645
204.33202
192.02494
180.02151
168.33512
156.97774
145.96008
135.29166
124.98091
115.03519
105.46093
96.263781
87.448736
79.020344
70.982906
63.340702
56.098208
49.260546
42.834533
36.820265
31.234314
26.097204
21.413524
17.208473
13.517851
10.384244
7.8541668
5.9521369
4.6369806
3.7859611
3.2394634
2.8683021
2.5927253
2.3705424
2.1825738
2.0182919
1.873273
1.7431873
1.6274232
1.5239668
1.4304139
1.3461174
1.2699689
1.2015462
1.1388001
1.0821033
1.0306557
0.98303991
0.93935739
0.89958849
0.86316801
0.82907073
0.79783251
0.7694352
0.74290603
0.71872307
0.6968079
0.67635752
0.65773299
0.64075619
0.62485514
0.61030603
0.59690778
0.58429658
0.57266791
0.56188687
0.55163655
0.54208853
0.53320244
0.52466508
0.51673355
0.50930746
0.50229137
0.49586851
0.48979234
0.48411833
0.4789009
0.47395425
0.4692843
0.46497385
0.46087844
0.45697239
0.45334167
0.44991698
0.44668154
0.44365143
0.44080209
0.43810283
0.43553367
0.43310091
0.43085521
0.42880302
0.42689186
0.4250973
0.4234324
0.42188638
0.42043933
0.41910667
0.41789058
0.41676584
0.41574367
0.41482843
0.41402194
0.41331818
0.41273283
0.4122441
0.41191144
0.41159068
0.41157466
438.96047
426.89899
414.42777
401.71969
388.80686
375.72294
362.50303
349.18337
335.80076
322.39196
308.99305
295.63885
282.36248
269.19499
256.16514
243.29935
230.62167
218.15395
205.91588
193.92379
182.19382
170.74268
159.58428
148.73119
138.19481
127.98545
118.11239
108.584
99.40778
90.590505
82.138382
74.057219
66.352644
59.030337
52.096302
45.557516
39.422232
33.692603
28.390636
23.536619
19.138159
15.228261
11.846596
9.0386701
6.8433294
5.2572031
4.1973295
3.5179825
3.0703654
2.7521588
2.5053891
2.3000918
2.1235162
1.9676711
1.8294913
1.704994
1.5941359
1.4948771
1.4046476
1.3234038
1.2501583
1.184106
1.1232311
1.0682556
1.0183105
0.97198624
0.92944229
0.89071068
0.85523204
0.8219323
0.79146391
0.76373656
0.7377857
0.71414599
0.6926925
0.67264147
0.65439743
0.63775208
0.62213286
0.60785583
0.59469417
0.58228031
0.57084256
0.5602209
0.55011396
0.54069599
0.53191884
0.52348148
0.51563339
0.50829781
0.50135176
0.49499218
0.48900007
0.48338205
0.47821965
0.47334315
0.46871991
0.46444787
0.46040612
0.456537
0.45293222
0.44954238
0.44633527
0.44332698
0.44050182
0.4378257
0.43527949
0.4328652
0.43063071
0.42859069
0.42669482
0.42491342
0.42325779
0.42172301
0.42028662
0.41896178
0.41775362
0.41663657
0.41562076
0.41471092
0.41390894
0.41320955
0.41262704
0.41214073
0.41180967
0.41148939
0.41147362
413.75888
402.53347
390.89716
379.03238
366.96818
354.735
342.36451
329.8894
317.34296
304.75858
292.16923
279.60701
267.10272
254.68553
242.38282
230.22001
218.22057
206.40606
194.79616
183.40745
172.25639
161.36001
150.73271
140.38762
130.33681
120.59134
111.16137
102.05618
93.28434
84.853734
76.771752
69.045459
61.681816
54.687957
48.07156
41.841706
36.00657
30.574012
25.571088
21.014566
16.919492
13.325737
10.276183
7.8147812
5.9624033
4.6771059
3.8385681
3.2965373
2.9245586
2.6468922
2.4230736
2.2320557
2.0657376
1.9178091
1.7861861
1.6671595
1.56114
1.4659498
1.3789603
1.3007585
1.2304214
1.1666885
1.1076463
1.0543677
1.0059031
0.96087686
0.91948532
0.88179414
0.84722863
0.81473066
0.78506642
0.75800122
0.73262988
0.70953936
0.68854526
0.66889602
0.65102687
0.63471539
0.61938191
0.60537244
0.59244772
0.58023226
0.56898701
0.55852679
0.54856385
0.53927898
0.53060871
0.52227332
0.51451337
0.50727024
0.50039818
0.49410045
0.48819638
0.48263822
0.47752778
0.47272258
0.46814965
0.46391391
0.45992519
0.45609646
0.45251656
0.44916016
0.44598346
0.44299775
0.44019622
0.43754383
0.43502084
0.4326262
0.43040348
0.42837523
0.42649487
0.42472715
0.42308086
0.42155688
0.42013142
0.41881467
0.41761424
0.41650499
0.41549567
0.41459132
0.41379393
0.41309889
0.41251934
0.41203543
0.41170595
0.4113861
0.41137054
388.6929
378.29216
367.48083
356.44697
345.21694
333.81837
322.2801
310.63194
298.90425
287.12762
275.33235
263.54814
251.80365
240.1263
228.54205
217.07525
205.74866
194.5834
183.59899
172.8121
162.2394
151.89814
141.80314
131.96806
122.40558
113.12749
104.14476
95.467627
87.105643
79.067799
71.36265
63.99851
56.983691
50.326834
44.037512
38.127342
32.602294
27.481021
22.793694
18.550867
14.780279
11.526183
8.8324179
6.7333336
5.2192275
4.2050392
3.54799
3.1114638
2.7963579
2.5498883
2.3446572
2.1660247
2.0090919
1.8686955
1.7433256
1.629703
1.5284839
1.4371748
1.3534159
1.2782629
1.2107644
1.1492644
1.0920468
1.0404503
0.9934395
0.94972247
0.90949646
0.87284164
0.83916379
0.80747727
0.77864135
0.75223361
0.72744366
0.70490192
0.68436649
0.66512343
0.64762185
0.63164406
0.61660118
0.60285518
0.59016738
0.57815262
0.56710041
0.55680368
0.5469852
0.53783625
0.52927183
0.52103994
0.51337301
0.50622405
0.49943008
0.49319409
0.48738054
0.48188622
0.47682566
0.47209149
0.46757269
0.46337222
0.4594347
0.45564995
0.4520949
0.4487698
0.44562517
0.44266351
0.43988518
0.43725698
0.43475735
0.43238355
0.43017341
0.42815656
0.42629181
0.4245383
0.42290159
0.42138788
0.41997358
0.41866524
0.41747237
0.41637102
0.41536832
0.41446958
0.41367686
0.4129861
0.41240966
0.41192818
0.41160022
0.41128075
0.41126541
363.8843
354.28675
344.28082
334.05702
323.63926
313.05277
302.32399
291.4803
280.54962
269.56011
258.53975
247.51603
236.51568
225.5644
214.68672
203.90589
193.2438
182.72105
172.35683
162.1678
152.17069
142.3829
132.8196
123.49489
114.42204
105.61351
97.081081
88.83587
80.888425
73.248812
65.926748
58.931799
52.273647
45.962518
40.010086
34.429997
29.228985
24.435334
20.078544
16.16975
12.747882
9.8587209
7.5417911
5.8099609
4.6123524
3.8275971
3.311733
2.9537878
2.6812985
2.4592457
2.2693048
2.1017216
1.9534447
1.8203222
1.7009096
1.5927017
1.4961868
1.4085217
1.328111
1.2560091
1.1911707
1.1317848
1.0764397
1.0265212
0.98092941
0.93853626
0.89948448
0.86385203
0.83104915
0.80019233
0.7721894
0.74643756
0.72223346
0.70023534
0.68015678
0.66132565
0.64418619
0.62853795
0.61379079
0.60030556
0.58785421
0.57604365
0.56518348
0.55505217
0.54537869
0.53636766
0.52790966
0.51978266
0.51221322
0.50515951
0.49844779
0.49227542
0.4865528
0.48112608
0.47611484
0.47144974
0.46698886
0.46282385
0.4589345
0.45519703
0.45166801
0.44837158
0.44525985
0.44232432
0.43956904
0.43696531
0.43448901
0.43213711
0.42994063
0.42793486
0.4260856
0.42434683
0.42272012
0.42121609
0.41981305
0.41851347
0.41732802
0.41623465
0.4152387
0.41434566
0.41355771
0.41287115
0.41229796
0.41181894
0.41149242
0.41117333
0.41115817
339.43765
330.61426
321.38672
311.94541
302.31215
292.51012
282.56371
272.4982
262.33937
252.11323
241.84565
231.56211
221.28745
211.04572
200.86002
190.75242
180.74393
170.85445
161.10276
151.50541
142.0791
132.84128
123.80736
114.99186
106.40856
98.070588
89.990463
82.180178
74.651255
67.414833
60.4818
53.862991
47.569511
41.613365
36.008714
30.769431
25.90789
21.460925
17.452422
13.901324
10.854466
8.3549129
6.4275632
5.0505448
4.130201
3.5273902
3.1168162
2.8162374
2.5760997
2.3735539
2.196365
2.0389615
1.8986792
1.7726247
1.6590618
1.5563576
1.4641524
1.3799479
1.3031552
1.2340567
1.1715948
1.1142093
1.060855
1.0126038
0.9683799
0.92733149
0.88945696
0.85482293
0.8228983
0.7928993
0.76571104
0.74061312
0.71700356
0.69554299
0.67591535
0.65750191
0.64072403
0.62539703
0.61095018
0.59772483
0.58550866
0.5739067
0.5632362
0.55327198
0.54374451
0.53487212
0.52652302
0.51850254
0.51103439
0.5040761
0.49745077
0.49134648
0.48571285
0.48035707
0.47539649
0.47079687
0.46639738
0.46226935
0.45842426
0.45473668
0.45123614
0.44796575
0.44488674
0.44197974
0.4392479
0.43666884
0.43421568
0.43188654
0.42970508
0.42771019
0.42587612
0.42415256
0.42253644
0.42104153
0.41964968
0.41835928
0.41718116
0.41609584
0.41510675
0.41421949
0.41343645
0.41275399
0.41218418
0.41170767
0.41138251
0.4110638
0.41104881
315.44174
307.358
298.87623
290.18489
281.30403
272.25509
263.06067
253.7442
244.32953
234.84066
225.30148
215.73553
206.16588
196.61491
187.10432
177.65496
168.28689
159.01928
149.8704
140.85658
131.99442
123.30135
114.79296
106.48411
98.389062
90.521545
82.894817
75.52172
68.414746
61.586122
55.047934
48.812325
42.891898
37.300732
32.056243
27.169479
22.66569
18.586794
14.947471
11.781195
9.1362365
7.0451878
5.5039355
4.4479214
3.753263
3.2863569
2.9525843
2.6933883
2.4782508
2.2914966
2.1253612
1.9776873
1.8448667
1.7255147
1.6179791
1.5208833
1.4322139
1.3514953
1.2786228
1.2123839
1.1519831
1.0965591
1.0453529
0.99871731
0.95578969
0.91611836
0.87942258
0.84575874
0.81472172
0.78561855
0.75920999
0.73475749
0.71175681
0.69083058
0.67164238
0.653651
0.63723986
0.62222316
0.60807979
0.59511525
0.58313158
0.571743
0.56125932
0.55146328
0.54208356
0.53334902
0.52511296
0.51720127
0.50983743
0.50297373
0.49643878
0.49040956
0.4848608
0.47957865
0.4746719
0.47013295
0.46579764
0.46170924
0.45790417
0.45426798
0.4507994
0.44755295
0.44450543
0.4416293
0.43892187
0.43636771
0.43393743
0.43163157
0.42946673
0.42748275
0.4256633
0.42395533
0.42235056
0.42086432
0.41948339
0.41820258
0.41703176
0.41595454
0.41497244
0.41409102
0.41331306
0.41263457
0.41206826
0.41159433
0.41127041
0.41095212
0.41093729
291.97002
284.58804
276.81577
268.83864
260.67528
252.34563
243.87075
235.27233
226.57238
217.79299
208.95614
200.0835
191.19636
182.31553
173.46127
164.65324
155.91049
147.25144
138.6938
130.25362
121.94735
113.7923
105.80421
97.998238
90.389072
82.991014
75.818032
68.883818
62.201853
55.785495
49.648091
43.803172
38.264933
33.049792
28.178014
23.661372
19.537487
15.846081
12.602055
9.8501144
7.6302081
5.9522067
4.7700896
3.9824091
3.4585416
3.088718
2.8107928
2.5825968
2.3845128
2.2107982
2.0564409
1.917814
1.792733
1.6797892
1.5776737
1.4849933
1.4004128
1.3238089
1.2544481
1.1908925
1.1323638
1.078951
1.0299918
0.98486254
0.9431596
0.90489777
0.86938986
0.83667753
0.80652245
0.77836222
0.75269366
0.72886714
0.70649644
0.68610337
0.66733932
0.6497729
0.63373644
0.61901914
0.60518033
0.59247909
0.58072335
0.56955274
0.55925391
0.54962597
0.54039665
0.53179799
0.52367991
0.51588022
0.50862313
0.50185255
0.49541167
0.48946619
0.48399671
0.47879021
0.47394182
0.46945826
0.46518893
0.4611435
0.45737467
0.45378989
0.45035733
0.44713386
0.44411571
0.44127233
0.4385908
0.43606196
0.4336544
0.43137191
0.4292254
0.4272527
0.42544705
0.42375496
0.42216239
0.42068458
0.4193141
0.41804324
0.41687979
0.41581071
0.41483573
0.4139602
0.41318747
0.41251289
0.41195013
0.41147886
0.41115608
0.41083826
0.41082358
269.08379
262.3637
255.26245
247.96189
240.47956
232.83415
225.04522
217.1328
209.11709
201.01829
192.85648
184.65152
176.42299
168.19014
159.97185
151.7866
143.65246
135.58706
127.60752
119.72961
111.96956
104.34454
96.870388
89.562505
82.435988
75.505692
68.786285
62.29232
56.03831
50.038827
44.308613
38.862754
33.717318
28.891521
24.406276
20.280164
16.562147
13.281874
10.462724
8.1513385
6.3672403
5.0822758
4.2079232
3.6266506
3.2239651
2.9246103
2.6834278
2.4754922
2.2947183
2.1340424
1.9897922
1.8595275
1.7416053
1.6347951
1.5379392
1.4498953
1.3696215
1.2965516
1.2299915
1.1690182
1.1130016
1.0616989
1.0147388
0.97103171
0.93053819
0.89365515
0.85936248
0.82760661
0.79830324
0.77113666
0.74616841
0.72294247
0.70123031
0.68136296
0.66300812
0.64587126
0.63021427
0.61578779
0.60225286
0.58981867
0.57828433
0.56733568
0.55722187
0.54776001
0.53868467
0.53021957
0.52222401
0.51454051
0.50739211
0.50071359
0.49437018
0.48851697
0.48312105
0.4779915
0.4732064
0.46877365
0.4645706
0.46057161
0.45683663
0.45330164
0.44990906
0.44670909
0.44371786
0.44090817
0.43825433
0.4357516
0.4333669
0.43110734
0.42898082
0.42702021
0.42522739
0.42355126
0.42197177
0.42050244
0.41914177
0.41788113
0.41672521
0.41566429
0.41469657
0.41382696
0.41305963
0.41238893
0.41182973
0.41136118
0.41103947
0.41072219
0.41070765
246.83452
240.73569
234.26586
227.6035
220.76532
213.76877
206.63191
199.37303
192.0105
184.56264
177.04768
169.48372
161.88873
154.28045
146.67646
139.09411
131.55051
124.06251
116.64668
109.31846
102.09385
94.989853
88.022376
81.207057
74.559375
68.094728
61.828497
55.776131
49.95325
44.375771
39.060026
34.022938
29.282929
24.863029
20.780186
17.070418
13.787278
10.944842
8.579579
6.7236961
5.3615637
4.4194401
3.7863875
3.3519539
3.0337228
2.7795931
2.5629236
2.3754814
2.2092891
2.0599578
1.9249931
1.8026407
1.6915675
1.5906795
1.4989514
1.4153916
1.3391175
1.2695251
1.2059401
1.1476024
1.093949
1.0446211
0.99915714
0.95703708
0.91820247
0.88238318
0.84932643
0.81856782
0.79009093
0.76394491
0.73962959
0.71699239
0.69597098
0.67660472
0.65864904
0.6419543
0.6266718
0.61252973
0.59929941
0.5871358
0.5758148
0.56509189
0.55516536
0.54586508
0.53694825
0.52861513
0.52074491
0.51318265
0.50614442
0.49955873
0.49331603
0.4875611
0.48223451
0.47718253
0.4724651
0.46808034
0.46394196
0.45999249
0.45629108
0.45280283
0.44945329
0.44627898
0.4433125
0.4405363
0.43791188
0.43543639
0.43307527
0.43083781
0.42873262
0.4267854
0.42500436
0.42334406
0.42177847
0.42031803
0.41896644
0.41771608
0.41656795
0.41551521
0.41455491
0.41369124
0.41292946
0.41226271
0.411707
0.41124124
0.41092052
0.41060388
0.41058947
225.26576
219.74756
213.87022
207.80817
201.57776
195.19509
188.67653
182.03858
175.29777
168.47059
161.57352
154.62303
147.63553
140.62741
133.615
126.6146
119.64242
112.71458
105.84709
99.055078
92.354324
85.761655
79.293041
72.964346
66.791441
60.790281
54.976996
49.367995
43.980121
38.83083
33.938342
29.321825
25.002563
21.006941
17.351948
14.089736
11.266331
8.8911572
6.9990875
5.5892249
4.6012468
3.9282774
3.4703568
3.1356576
2.8683991
2.6448109
2.4518337
2.2809297
2.1273207
1.9882652
1.8620025
1.7471724
1.6426565
1.5474811
1.4607325
1.3815434
1.3091354
1.2428813
1.1821654
1.1263524
1.0749333
1.0275568
0.98383924
0.94331477
0.90580394
0.87118543
0.83914717
0.80942249
0.78204683
0.75677465
0.7330688
0.71103992
0.69072585
0.67181964
0.65426265
0.63803273
0.62310579
0.60924298
0.59632552
0.58443093
0.57331496
0.56282287
0.55308609
0.54394051
0.53518789
0.52698689
0.51924211
0.51180683
0.50487975
0.49839048
0.49225188
0.48659672
0.48133812
0.47636375
0.47171688
0.46737971
0.46330234
0.45940474
0.45573897
0.45229356
0.4489886
0.44584338
0.44290049
0.44015645
0.43756284
0.4351159
0.43277983
0.43056344
0.42848033
0.42654826
0.42477811
0.42313323
0.42158219
0.42013139
0.4187882
0.41754795
0.41640794
0.41536337
0.41441071
0.413553
0.41279685
0.41213425
0.41158191
0.41111894
0.4107992
0.41048327
0.41046902
204.42183
199.44321
194.12062
188.62138
182.96237
177.15836
171.22396
165.17382
159.02266
152.78526
146.47644
140.11113
133.70435
127.27122
120.82694
114.38682
107.96624
101.58065
95.245534
88.97573
82.786821
76.695472
70.717736
64.869727
59.167739
53.628336
48.268465
43.105608
38.157999
33.444898
28.986864
24.806055
20.927554
17.378246
14.181282
11.401214
9.063238
7.176097
5.7501046
4.739708
4.0471722
3.5706598
3.224813
2.9485743
2.7197692
2.5225111
2.3478425
2.1907628
2.0483821
1.9188454
1.8008043
1.6931513
1.5949236
1.5052514
1.4233165
1.3483475
1.2796478
1.2166202
1.1586985
1.1053454
1.0561131
1.010633
0.9685517
0.92954812
0.89344155
0.86005053
0.82914956
0.80049612
0.77397097
0.74938319
0.7264685
0.7051955
0.68547818
0.66700562
0.64985986
0.63411188
0.61950982
0.60592722
0.59334136
0.58170134
0.57078506
0.56053229
0.55098386
0.5419854
0.5334043
0.52533747
0.51771508
0.51041311
0.50359801
0.49721117
0.49118039
0.48562168
0.48043303
0.47553582
0.47096056
0.46667284
0.4626511
0.45880692
0.45518071
0.45177448
0.44851378
0.44540164
0.44248262
0.43976863
0.43720669
0.43478948
0.43248067
0.4302846
0.42822354
0.42630861
0.42454887
0.42291867
0.4213826
0.41994243
0.4186072
0.41737661
0.4162451
0.41520869
0.41426388
0.4134122
0.41266166
0.41200353
0.41145443
0.41099423
0.41067547
0.41036035
0.41034626
184.3425
179.86207
175.05677
170.08455
164.96128
159.70078
154.31618
148.82043
143.22653
137.54762