/*--------------------------------*- C++ -*----------------------------------*\
| =========                 |                                                 |
| \\      /  F ield         | OpenFOAM: The Open Source CFD Toolbox           |
|  \\    /   O peration     | Version:  2406                                  |
|   \\  /    A nd           | Website:  www.openfoam.com                      |
|    \\/     M anipulation  |                                                 |
\*---------------------------------------------------------------------------*/
FoamFile
{
    version     2.0;
    format      ascii;
    arch        "LSB;label=32;scalar=64";
    class       volScalarField;
    location    "0.07";
    object      alphat;
}
// * * * * * * * * * * * * * * * * * * * * * * * * * * * * * * * * * * * * * //

dimensions      [1 -1 -1 0 0 0 0];

internalField   nonuniform List<scalar> 
2065
(
0.0032266511
0.0035573308
0.0038955467
0.0042445268
0.0046071314
0.0049847448
0.005380377
0.0057968416
0.0062308697
0.0066853913
0.0071605346
0.0076487252
0.0081490082
0.0086587524
0.0091655143
0.00965947
0.010135987
0.010569365
0.010960373
0.011290349
0.011546053
0.011719892
0.011811002
0.011821554
0.011765017
0.011655408
0.011510317
0.011341597
0.011156564
0.010961753
0.01075119
0.010519519
0.010288773
0.010090094
0.0099278205
0.0097841507
0.0096760382
0.0096404863
0.0097030979
0.0098503425
0.010094629
0.010455055
0.010936949
0.011524807
0.012194522
0.012971597
0.013784632
0.014632062
0.015473067
0.016289346
0.017008625
0.017614717
0.018043247
0.018303828
0.018418824
0.018290604
0.018075173
0.017398588
0.0020237358
0.0023282748
0.0026581355
0.0030192317
0.0034078694
0.0038251334
0.004273739
0.0047542144
0.0052606667
0.0057928865
0.0063487275
0.0069209005
0.0075127971
0.0081201455
0.008732347
0.0093225555
0.0098974249
0.010437423
0.010918392
0.011319523
0.011627826
0.01183782
0.011948485
0.011973019
0.011932612
0.011839854
0.01171128
0.011558547
0.011389325
0.011210611
0.011017227
0.010808946
0.010611938
0.010455813
0.010342748
0.010257006
0.010219292
0.01026651
0.010421663
0.010666675
0.011012147
0.011470285
0.01204526
0.012713748
0.013456747
0.014286981
0.01515592
0.016043409
0.016922205
0.017774248
0.018535895
0.019176079
0.019657917
0.019952516
0.020120071
0.020027062
0.019838903
0.019187142
0.0013239831
0.0015948396
0.0019082938
0.0022606151
0.0026449485
0.0030431602
0.0034769674
0.0039383206
0.0044202199
0.0049237628
0.0054540211
0.0060124657
0.0066022776
0.0072279217
0.0078686827
0.0085284127
0.0091726519
0.0098161284
0.010429996
0.010959017
0.011395879
0.011726629
0.011944313
0.01206414
0.012103616
0.012074874
0.011995752
0.011882819
0.011747523
0.011598291
0.011442507
0.011276289
0.011104108
0.010953884
0.010854496
0.010805741
0.01079363
0.01084089
0.010982703
0.011238509
0.011585074
0.012030562
0.012580601
0.013239438
0.013977688
0.014782425
0.015655092
0.016569353
0.017486213
0.018397914
0.019273919
0.020074212
0.020737309
0.0212678
0.021591079
0.021806148
0.021745038
0.021579861
0.020953981
0.0016941731
0.0019549397
0.0022245109
0.002496002
0.0027707983
0.0030730401
0.0034093166
0.0037766941
0.0041627045
0.0045896229
0.0050524164
0.0055546577
0.0060910764
0.0066649994
0.0072716366
0.0079128576
0.0085881659
0.0092363847
0.0098967677
0.010530453
0.011063684
0.011493302
0.011816517
0.012037241
0.012163414
0.01220448
0.012180907
0.01211439
0.012020388
0.011909637
0.01178988
0.011668546
0.011543468
0.01142278
0.011335772
0.011309111
0.011340519
0.011416913
0.011561126
0.011805135
0.012164396
0.012610704
0.013149965
0.013782307
0.014513355
0.015309435
0.01616407
0.017069472
0.018018752
0.018955512
0.019894445
0.020784488
0.021618544
0.022296948
0.022869811
0.023217737
0.023475159
0.023442349
0.023296782
0.022696564
0.0027785843
0.0030196417
0.003246813
0.003475301
0.0037086706
0.0039573801
0.0042260963
0.004520583
0.0048362406
0.0051855216
0.0055704466
0.0059855755
0.0064382949
0.0069483121
0.0075163656
0.0081393998
0.0087947939
0.0094194439
0.010067119
0.010670057
0.011181686
0.011596446
0.011906556
0.012110661
0.012222679
0.012261418
0.012248798
0.012202735
0.012136835
0.012060955
0.011983304
0.011911343
0.011844349
0.011792734
0.01178561
0.011847542
0.011973212
0.012149454
0.012397479
0.012745201
0.01320453
0.013743341
0.014365993
0.015068502
0.015858921
0.016700775
0.017593893
0.018523004
0.019497361
0.020447014
0.021405627
0.02230414
0.023164546
0.023853876
0.024461704
0.024831068
0.025125634
0.025117644
0.024988906
0.024413356
0.0036234194
0.0038880021
0.0041095306
0.0043036297
0.0044814206
0.0046611033
0.0048545163
0.0050673437
0.0053043553
0.0055646481
0.0058578274
0.0061889253
0.0065578992
0.0069806994
0.0074460713
0.007953977
0.008517404
0.0091114775
0.0096925262
0.010302666
0.010860206
0.011323772
0.011691783
0.011959057
0.012136446
0.012239519
0.012285008
0.012292569
0.012277882
0.012252767
0.012226432
0.012207492
0.012203089
0.012212973
0.012247315
0.01233622
0.012499013
0.012728126
0.013009318
0.013361097
0.01380735
0.014357633
0.014977455
0.015670474
0.01642989
0.017266763
0.018142944
0.019064041
0.020008724
0.020999499
0.021955855
0.022927455
0.023829546
0.024709292
0.025406196
0.026041999
0.02642959
0.026756325
0.026770148
0.026655807
0.026103503
0.0041895136
0.0045294053
0.0047859506
0.0049855975
0.0051517866
0.0053018574
0.0054474568
0.0056034768
0.0057795217
0.0059814232
0.0062115169
0.0064746559
0.0067770369
0.0071223852
0.0075161179
0.0079644212
0.0084342465
0.0089523934
0.0094944441
0.010009191
0.010547098
0.011021854
0.011414732
0.011729498
0.0119618
0.012122932
0.012228112
0.012293871
0.012337035
0.012370138
0.012403205
0.01244474
0.01250348
0.012585521
0.012688817
0.012824269
0.013019114
0.013288395
0.013622591
0.014006094
0.014454452
0.014988281
0.015616274
0.016303152
0.017052517
0.017855702
0.018726899
0.019627061
0.020566829
0.021519965
0.022519752
0.023477456
0.024456189
0.025357615
0.026250546
0.026951833
0.027609424
0.028012131
0.028366152
0.028399543
0.028297318
0.02776665
0.0048428483
0.0051707542
0.0054093452
0.0055882404
0.0057336404
0.0058645216
0.0059960191
0.0061393973
0.0063030141
0.0064927519
0.0067131618
0.0069662326
0.0072582052
0.0075948547
0.0079799281
0.0084055644
0.0088472025
0.0093076998
0.0097872262
0.010235184
0.010704103
0.01110851
0.011443761
0.011716434
0.011928324
0.012091232
0.012219053
0.01232639
0.012426301
0.012527646
0.012638651
0.012766844
0.012920558
0.013102777
0.013311728
0.013555928
0.01385761
0.014230201
0.014662807
0.015138762
0.015670972
0.016277761
0.016968248
0.017707606
0.018499692
0.019334557
0.020229289
0.02114446
0.022094916
0.023050439
0.024053012
0.025007524
0.025988345
0.026885474
0.027786242
0.02848895
0.029162878
0.02957776
0.029954152
0.03000589
0.029913469
0.029402809
0.0052943738
0.0055935041
0.0058011342
0.0059543698
0.0060804405
0.0062002398
0.0063277186
0.006470823
0.0066361709
0.0068298257
0.0070537751
0.0073104318
0.0076035342
0.0079347416
0.0083085633
0.0087170407
0.0091338299
0.0095508584
0.0099721225
0.010362847
0.010771383
0.011126513
0.011424274
0.011679836
0.011898379
0.012091048
0.012269285
0.012444002
0.012623538
0.012812881
0.013018585
0.01324671
0.013503572
0.013793891
0.014111015
0.014459693
0.014860217
0.015324797
0.015842503
0.016396218
0.016996652
0.017660599
0.018398419
0.019176538
0.019999092
0.020855141
0.021764237
0.02268691
0.023641405
0.02459428
0.025594497
0.02654205
0.027520672
0.028410444
0.029314453
0.0300159
0.030701395
0.031125718
0.031520067
0.03158895
0.031504416
0.031012268
0.0052009892
0.0055841652
0.0058477128
0.0060225357
0.0061504759
0.0062619076
0.0063736528
0.0064973729
0.0066405739
0.0068087159
0.0070065625
0.0072355895
0.0074993784
0.0077973916
0.008127436
0.0084862747
0.0088804795
0.0092738943
0.0096662251
0.010046706
0.010409395
0.010776665
0.011117728
0.011413226
0.011687135
0.011946468
0.012200349
0.012456684
0.01272135
0.01299751
0.013286598
0.013592626
0.01392321
0.014284936
0.014677853
0.015093278
0.015534083
0.016018523
0.016558729
0.017144894
0.017759992
0.018412814
0.019119017
0.019890532
0.020695475
0.021538129
0.022406688
0.023322652
0.024246752
0.025199902
0.026146058
0.027139754
0.028077289
0.029050138
0.029930024
0.030833369
0.031531185
0.032224112
0.03265538
0.033063852
0.033148592
0.033070425
0.032595516
0.0053899417
0.0057357112
0.0059682021
0.0061152197
0.0062228534
0.0063192222
0.006421069
0.0065384396
0.0066774271
0.0068430219
0.0070399392
0.0072692105
0.0075339825
0.0078337185
0.0081644041
0.0085211579
0.0089119521
0.0093005538
0.0096884784
0.010067516
0.01043659
0.010805607
0.01116747
0.011503121
0.011830874
0.012161035
0.012499972
0.01285171
0.013215999
0.013592619
0.01398102
0.014385226
0.014810889
0.015264382
0.0157453
0.016243324
0.016759369
0.01731023
0.017908676
0.018546746
0.019207862
0.01989899
0.020634745
0.021428622
0.022250641
0.023105059
0.023979261
0.024896188
0.025816956
0.026764523
0.027700768
0.028684646
0.029609748
0.030573902
0.031441865
0.032341287
0.033033427
0.033730242
0.034166221
0.034585517
0.03468483
0.034611844
0.034153177
0.0054438153
0.0057687827
0.0059848235
0.0061147003
0.0062070474
0.0062904448
0.0063809116
0.0064874165
0.0066156361
0.0067705836
0.0069574993
0.0071790123
0.0074385315
0.0077389844
0.008073407
0.0084409897
0.0088481855
0.0092662885
0.0096870603
0.010108808
0.010527363
0.010945222
0.0113521
0.011768743
0.012173936
0.012591718
0.013025474
0.013475279
0.013937673
0.014409301
0.014887862
0.015377303
0.015883609
0.016413185
0.016965447
0.017529348
0.018104146
0.018705429
0.019346868
0.020022724
0.020717113
0.021435203
0.022190518
0.022997936
0.023829482
0.024689261
0.025563887
0.026477294
0.02739113
0.028329887
0.029253804
0.03022533
0.031136161
0.032089297
0.032943752
0.033836582
0.034521337
0.035219057
0.035657791
0.036085122
0.03619778
0.036129087
0.035685968
0.0053717905
0.0056939782
0.0059044609
0.0060292598
0.0061150882
0.0061900391
0.006269851
0.0063632285
0.0064764995
0.0066142885
0.0067839641
0.0069930118
0.0072434487
0.0075435392
0.0078854809
0.0082739069
0.0087193182
0.0091923066
0.0096854703
0.010186035
0.010694802
0.011196944
0.011683927
0.012197278
0.012696809
0.013209981
0.013740087
0.014285228
0.014839698
0.01539781
0.015956518
0.016519637
0.017094057
0.017686552
0.018296463
0.018912784
0.019533458
0.020172931
0.020845796
0.021548723
0.022266773
0.023003386
0.023770923
0.0245854
0.025420903
0.026281329
0.027152578
0.028059196
0.028963493
0.02989108
0.03080093
0.031758234
0.032653471
0.033593806
0.034433588
0.035317704
0.035993703
0.036689869
0.037129695
0.037562757
0.037687632
0.037622618
0.037194668
0.005169766
0.0055076726
0.0057276115
0.0058601528
0.0059486357
0.0060206391
0.0060923893
0.006173943
0.0062716811
0.0063925418
0.0065430142
0.0067313722
0.0069648874
0.0072517762
0.0075975339
0.0080062845
0.0085005033
0.0090441269
0.0096298289
0.010237512
0.010864215
0.011478998
0.012079778
0.012705717
0.013313846
0.01393149
0.014562223
0.015203229
0.015848009
0.016489755
0.017124598
0.017755932
0.018391211
0.019038081
0.019696792
0.020356846
0.021015023
0.021684637
0.02238115
0.023103758
0.023838758
0.024588027
0.025362727
0.026179751
0.027015291
0.027873044
0.028738279
0.029635847
0.030528822
0.031443613
0.032338241
0.033280028
0.034158803
0.03508505
0.03590938
0.036783158
0.037449367
0.038142014
0.03858157
0.039018523
0.039154624
0.039092936
0.038680084
0.0048394632
0.0052026702
0.0054438922
0.0055954466
0.0056954522
0.0057705096
0.0058376041
0.0059075245
0.0059886365
0.006090078
0.006217315
0.0063795067
0.0065853748
0.00684938
0.0071885205
0.007617002
0.0081634039
0.0087723704
0.009451891
0.010191194
0.01095172
0.011707787
0.01244881
0.01320783
0.01394188
0.014676656
0.015416944
0.016159468
0.016898045
0.017625466
0.018337309
0.01903635
0.019730662
0.020428668
0.021131994
0.021831274
0.022522388
0.023217564
0.023933045
0.024670632
0.025418184
0.026176264
0.026954851
0.027771456
0.028604407
0.029457271
0.030314781
0.031201849
0.032082393
0.032983376
0.033862122
0.0347876
0.035649448
0.036560764
0.03736922
0.038231502
0.038887214
0.039574843
0.040013079
0.040452525
0.040599027
0.040540571
0.040142686
0.0047619498
0.0050281325
0.0052057411
0.0053264362
0.0054134993
0.0054842322
0.0055500065
0.0056188405
0.0056997545
0.0058019846
0.0059350972
0.006113028
0.0063552108
0.0066820334
0.0071259195
0.0076999302
0.0083575121
0.0091467917
0.010022557
0.010934154
0.011855075
0.012753197
0.013664722
0.014540778
0.015404644
0.016263493
0.017113846
0.017950839
0.018767465
0.019559248
0.020328447
0.021082338
0.021830336
0.022576939
0.023313617
0.024035616
0.024754119
0.025486042
0.026235806
0.026993158
0.027757658
0.028538146
0.029352509
0.03018122
0.031027818
0.031876605
0.032752366
0.033619916
0.034506587
0.035369218
0.036278027
0.037122841
0.038018786
0.038811282
0.039661336
0.040306165
0.040987717
0.041423896
0.041864854
0.042021126
0.041966068
0.041583313
0.0041546195
0.0044380838
0.0046399586
0.0047845504
0.0048926713
0.004979294
0.0050540616
0.0051254463
0.0052004917
0.005289217
0.0054055968
0.0055707752
0.0057933663
0.0061115081
0.0065514104
0.0071281995
0.0078330355
0.0087423614
0.0097671325
0.010856218
0.011959577
0.013027846
0.014093251
0.01512214
0.016119616
0.017100105
0.018059886
0.018996436
0.019903362
0.020774998
0.021613209
0.022426427
0.023225379
0.024015029
0.024788457
0.025540535
0.026281422
0.027028536
0.027788862
0.028554316
0.0293238
0.030105081
0.03091618
0.031739704
0.032579283
0.033418891
0.03428304
0.035137471
0.036009746
0.03685639
0.037748549
0.038576545
0.039457046
0.0402338
0.041071291
0.041705166
0.042379998
0.042813699
0.043255591
0.043421213
0.043369988
0.043002762
0.0033377359
0.0036186029
0.0038316064
0.0039975461
0.0041331892
0.0042506129
0.004359861
0.0044637097
0.0045647298
0.0046691511
0.0047986119
0.0049761669
0.0051914567
0.0055226217
0.0059667113
0.0065548675
0.0073846929
0.0084119868
0.0095807557
0.010832373
0.012104808
0.01334032
0.014537475
0.015714209
0.016841818
0.017938389
0.019001426
0.020032166
0.021025026
0.021974336
0.022881762
0.02375467
0.024604053
0.025436216
0.026245797
0.027027442
0.027790253
0.028551915
0.029321826
0.030094285
0.030867888
0.031649408
0.032456758
0.033274645
0.034106903
0.034937279
0.035789906
0.036631444
0.037489592
0.038320686
0.039196546
0.040008225
0.040873543
0.041635068
0.042460032
0.04308319
0.043751051
0.044182169
0.044624795
0.044799575
0.044752897
0.044401781
0.002568969
0.0027818498
0.002963408
0.0031344277
0.003300682
0.0034643148
0.0036273663
0.0037883167
0.0039474489
0.0041314118
0.0043673091
0.0046211946
0.0050136691
0.005513363
0.0062370919
0.0071578967
0.0082609216
0.0095265009
0.010894209
0.012303054
0.013693399
0.015029323
0.016323694
0.017584336
0.018790392
0.019948865
0.02106703
0.022140021
0.023162309
0.024134645
0.025064124
0.025961773
0.02683485
0.027679359
0.028489756
0.02927399
0.030049716
0.030828497
0.031607151
0.032384312
0.033165843
0.033969305
0.034781447
0.035606414
0.036427811
0.03726931
0.03809847
0.038943054
0.039759302
0.040619509
0.041415634
0.04226634
0.043013422
0.043826246
0.044439234
0.045100249
0.045528991
0.045972512
0.046156495
0.046115369
0.045781032
0.034649799
0.035449442
0.036255972
0.037073921
0.037886821
0.038717837
0.03953537
0.040367207
0.041169552
0.042015017
0.042796589
0.043633542
0.044367232
0.045168646
0.045772328
0.046426985
0.046853861
0.047298778
0.04749225
0.047457988
0.047140729
0.017463235
0.014934705
0.0077950599
0.011130851
0.014696656
0.017632775
0.019053564
0.018721199
0.016948633
0.014466598
0.0054574986
0.0080260436
0.011245532
0.014641033
0.017374651
0.018632151
0.018216705
0.016436508
0.014004563
0.0057548594
0.0082492779
0.011343475
0.014564528
0.017094817
0.018183916
0.017701398
0.015919987
0.01354696
0.0060565821
0.0084644344
0.011425122
0.014465519
0.016780301
0.01768238
0.017172468
0.01539766
0.013084337
0.0063623386
0.0086727608
0.01149098
0.014344375
0.01645499
0.01723706
0.016642794
0.014880153
0.012628229
0.0066736265
0.0088760388
0.01154222
0.014205035
0.016119109
0.016777235
0.016103236
0.014365199
0.012181098
0.00699125
0.0090752071
0.011581093
0.014050362
0.015770573
0.016300193
0.0155475
0.013848592
0.011737535
0.0073177814
0.0092729867
0.011610281
0.013882603
0.015410257
0.015815787
0.015012881
0.013338016
0.011298698
0.0076511994
0.0094691145
0.011630552
0.013702996
0.015040883
0.015329463
0.014487778
0.012835358
0.01086579
0.0079951896
0.0096665691
0.011644712
0.013513671
0.014664123
0.014841244
0.013961778
0.012338259
0.010438217
0.0083519795
0.0098680906
0.011654827
0.013316258
0.014283843
0.014351984
0.013438036
0.011846693
0.01001587
0.0087178491
0.010072863
0.01166253
0.013111431
0.013901204
0.013863403
0.012918062
0.011360696
0.0095982996
0.009089825
0.010279241
0.011667801
0.012899533
0.013516907
0.013376945
0.012403499
0.010881245
0.0091862214
0.0094656228
0.010485104
0.011668013
0.012680102
0.013136664
0.012894046
0.011895815
0.010409265
0.0087801267
0.0098360737
0.010683832
0.011660121
0.012455484
0.012759913
0.012417433
0.011397111
0.009946551
0.0083817407
0.010194367
0.010871824
0.011642855
0.012226311
0.012387259
0.011950112
0.010910416
0.0094957498
0.0079933387
0.010534095
0.011042593
0.011608472
0.012005054
0.012019186
0.011494151
0.010437984
0.009058948
0.0076170106
0.010844555
0.011192305
0.011568272
0.01178507
0.011659319
0.011053261
0.0099836894
0.0086400178
0.0072564244
0.011114276
0.011317371
0.011519199
0.011566138
0.011310101
0.010629997
0.0095493648
0.0082396853
0.0069110795
0.011341125
0.011415462
0.011460424
0.011351908
0.010975423
0.010228045
0.0091384295
0.0078611915
0.0065841579
0.011513614
0.011480227
0.01139039
0.011145263
0.010660261
0.0098527011
0.0087558937
0.0075091077
0.006279854
0.011624158
0.011505663
0.011305811
0.010945461
0.010365918
0.0095053264
0.0084025734
0.0071838109
0.0059983917
0.011668106
0.011486545
0.011202462
0.010751837
0.010093667
0.0091884235
0.0080811301
0.0068876454
0.005741584
0.011647674
0.011420512
0.011074868
0.010558054
0.0098383175
0.0088979764
0.0077881476
0.0066172501
0.0055059043
0.011568552
0.011309985
0.010921107
0.010358277
0.0095940371
0.008628743
0.0075195409
0.0063697922
0.0052897625
0.011440952
0.011160292
0.010742306
0.010147542
0.00935322
0.0083722395
0.0072671567
0.0061380068
0.0050869114
0.011280013
0.010982393
0.010544138
0.0099276203
0.0091148609
0.0081263353
0.0070288127
0.0059200658
0.0048958741
0.011097207
0.01078657
0.010333921
0.0097034642
0.0088808502
0.0078913657
0.0068044371
0.0057159642
0.004716771
0.010900126
0.010580146
0.010118605
0.0094811796
0.0086558631
0.0076707483
0.0065966435
0.0055278498
0.004551469
0.010694731
0.010368209
0.0099025649
0.0092647538
0.0084438102
0.0074686022
0.0064098615
0.0053603271
0.0044045116
0.010474483
0.010143168
0.009676969
0.0090442767
0.0082343753
0.0072752199
0.0062358599
0.0052069924
0.0042711976
0.010229734
0.0098918756
0.0094248926
0.0087992567
0.0080044943
0.0070667625
0.0060521026
0.0050481928
0.0041354126
0.0099788287
0.0096291949
0.0091564622
0.0085341472
0.0077527492
0.0068367895
0.0058488509
0.004872817
0.003986137
0.0097536529
0.0093871928
0.0089035339
0.0082797767
0.007507807
0.0066106701
0.0056474491
0.0046980921
0.0038369252
0.009559694
0.0091717158
0.0086726814
0.0080438627
0.0072786689
0.0063983594
0.0054581077
0.0045337418
0.0036965206
0.0093776817
0.008962468
0.008442677
0.0078046462
0.0070439383
0.0061799391
0.0052633356
0.004365189
0.0035532257
0.0092207752
0.0087688923
0.0082178183
0.0075607107
0.0067970226
0.0059451101
0.0050510231
0.0041802064
0.0033957782
0.0091250667
0.008625841
0.0080310281
0.0073421558
0.0065641745
0.0057156692
0.0048383864
0.0039917992
0.0032337067
0.0091170395
0.0085594486
0.0079069538
0.0071710191
0.006364547
0.0055082149
0.0046398382
0.0038123829
0.0030775355
0.0091863514
0.0085618009
0.0078396108
0.0070428903
0.0061952252
0.0053210693
0.0044547556
0.0036421459
0.0029279492
0.0093464403
0.0086469367
0.007842071
0.0069674081
0.0060602942
0.0051530057
0.0042785971
0.0034752744
0.0027792035
0.0096221811
0.0088448046
0.007948618
0.006980671
0.0059947879
0.0050354135
0.004137158
0.0033318478
0.0026465018
0.010020422
0.009163932
0.0081696123
0.0070937306
0.0060074582
0.0049726355
0.0040311053
0.0032102319
0.0025271746
0.010533834
0.0096057383
0.0085175314
0.0073303056
0.0061298196
0.0049978486
0.0039897658
0.0031336151
0.0024386368
0.01113528
0.010141837
0.0089644578
0.0076660061
0.0063440976
0.0051004105
0.0040079325
0.0030999385
0.0023798301
0.011861779
0.010819888
0.0095717746
0.0081747465
0.0067282592
0.0053499274
0.0041384706
0.0031457435
0.0023756204
0.012624205
0.011537252
0.010224913
0.0087441981
0.0071987942
0.0057125765
0.0043909166
0.0032975273
0.002451306
0.013435043
0.012316739
0.010955572
0.0094013391
0.0077547036
0.0061495001
0.0047141495
0.003526297
0.0026063066
0.014243543
0.013100446
0.011700873
0.010089862
0.0083646806
0.0066589642
0.0051063167
0.0038057449
0.002794594
0.015030428
0.013867557
0.012437198
0.01078043
0.0089918508
0.0072061093
0.0055633698
0.0041692973
0.0030705935
0.015719105
0.014538678
0.013081854
0.011386646
0.0095459231
0.0076954845
0.0059803084
0.0045132434
0.0033481855
0.016295096
0.015097342
0.013616553
0.01188918
0.010007724
0.0081094863
0.0063427865
0.0048246472
0.0036125949
0.016687357
0.015472784
0.013970807
0.012219962
0.010311761
0.008383038
0.006584686
0.0050363258
0.0037972213
0.016926577
0.015708891
0.014199125
0.01243247
0.010504573
0.0085601778
0.006748462
0.0051884899
0.0039386567
0.01700763
0.015779657
0.014259744
0.012485818
0.010554302
0.0086062582
0.0067973829
0.0052434666
0.0039990538
0.016862999
0.015643559
0.014136928
0.012381875
0.010473663
0.0085513843
0.0067629698
0.0052255466
0.0039948769
0.016637057
0.015430463
0.013940406
0.012206135
0.010323143
0.008430289
0.0066742779
0.0051676886
0.0039631021
0.015958958
0.014780273
0.01333203
0.011655843
0.0098464938
0.0080380215
0.0063687614
0.0049416521
0.0038021332
0.01222231
0.0093973502
0.0065370456
0.0038341461
0.0015364706
0.00018974475
0.011831617
0.0091003375
0.0063320834
0.0037224241
0.0014932333
0.00018473629
0.011449387
0.0088050836
0.0061350921
0.0036151259
0.0014557188
0.00017954056
0.011067301
0.0085132757
0.0059422731
0.0035100398
0.0014159528
0.00017421454
0.01068732
0.0082298261
0.0057540826
0.0034081533
0.001380118
0.00016876607
0.010317172
0.0079516664
0.0055697313
0.0033077627
0.0013422598
0.00016323269
0.0099531233
0.0076785361
0.0053887097
0.0032091477
0.0013066282
0.00015761307
0.00959416
0.0074097108
0.0052101536
0.0031109149
0.0012691192
0.00015192216
0.0092396103
0.0071441916
0.0050331616
0.0030127909
0.001231956
0.00014614846
0.0088894431
0.0068813635
0.0048569649
0.0029139041
0.0011932112
0.00014028662
0.0085429811
0.0066203099
0.0046806953
0.0028138284
0.0011536468
0.00013431868
0.0082000646
0.0063607594
0.0045040429
0.0027122749
0.0011127053
0.00012822911
0.0078600536
0.0061020314
0.0043264861
0.0026090686
0.0010706819
0.00012200136
0.0075235907
0.0058447298
0.0041485735
0.0025046258
0.0010277089
0.00011562579
0.0071909237
0.005589011
0.0039705249
0.0023993139
0.00098420963
0.00010910419
0.0068637965
0.0053365974
0.0037939078
0.0022943335
0.00094084754
0.00010245298
0.0065441902
0.0050892585
0.0036204032
0.0021913405
0.00089890329
9.5749886e-05
0.0062343761
0.0048494812
0.0034524582
0.002092035
0.00085861544
8.9086676e-05
0.005937506
0.0046194703
0.0032908152
0.0019955862
0.00081861331
8.2512418e-05
0.0056518881
0.0043964508
0.0031319759
0.0018985401
0.0007763632
7.5829217e-05
0.0053807494
0.0041838113
0.0029796612
0.0018049369
0.00073553922
6.9205768e-05
0.0051280347
0.0039853066
0.0028373178
0.001717473
0.00069746071
6.3227751e-05
0.0048939708
0.0038011587
0.0027049525
0.001635684
0.00066146707
5.8157935e-05
0.0046796702
0.0036315826
0.0025817724
0.0015580389
0.00062604091
5.3749935e-05
0.004481511
0.0034730967
0.0024648796
0.0014827461
0.00059065612
4.9825089e-05
0.0042991317
0.0033265776
0.0023562931
0.0014125575
0.00055795834
4.6261414e-05
0.0041272412
0.0031876442
0.0022525034
0.0013448634
0.00052640297
4.2975587e-05
0.003964564
0.0030550994
0.0021523573
0.0012786095
0.00049512547
3.9941163e-05
0.0038112968
0.0029291872
0.0020561749
0.0012142262
0.0004645578
3.7162643e-05
0.0036691101
0.0028114138
0.0019653158
0.0011528662
0.00043545102
3.4666126e-05
0.0035423002
0.0027056008
0.0018828779
0.0010966715
0.0004088421
3.2494154e-05
0.0034276561
0.0026098269
0.0018079697
0.0010454767
0.00038489159
3.0661397e-05
0.003312666
0.002515207
0.0017351227
0.00099666794
0.00036290546
2.9127698e-05
0.00318716
0.0024130192
0.0016575567
0.00094571093
0.00034073772
2.7797817e-05
0.0030614994
0.0023107262
0.0015801996
0.00089546924
0.00031971443
2.6695489e-05
0.0029432554
0.0022145163
0.0015076807
0.00084893106
0.00030114138
2.5858544e-05
0.002823397
0.0021178989
0.0014357937
0.00080373382
0.00028390639
2.5215274e-05
0.0026921013
0.0020128613
0.0013585501
0.00075591411
0.00026594396
2.4644297e-05
0.0025560889
0.0019038085
0.0012786133
0.00070705017
0.00024827748
2.4144754e-05
0.0024240521
0.0017974904
0.0012006825
0.00065978108
0.00023169001
2.3730352e-05
0.0022969019
0.0016948107
0.0011254253
0.00061439655
0.00021614885
2.3377709e-05
0.0021695889
0.0015917909
0.0010500689
0.00056919118
0.00020067956
2.302876e-05
0.0020532958
0.0014961508
0.00097949842
0.00052692379
0.0001865448
2.2695623e-05
0.0019450751
0.0014051729
0.00091161018
0.0004863205
0.00017319291
2.2357055e-05
0.0018575495
0.0013274364
0.00085166512
0.00044991355
0.00016119903
2.2017936e-05
0.0017895915
0.0012613785
0.00079790673
0.00041637212
0.00015003427
2.165304e-05
0.0017578472
0.0012174858
0.00075635519
0.00038856333
0.00014078063
2.1267463e-05
0.0017801459
0.0012053574
0.00073048543
0.00036686437
0.00013273693
2.0851787e-05
0.0018744937
0.0012470343
0.00073630172
0.00035843818
0.00012739996
2.0475984e-05
0.0019922263
0.0013091804
0.00076000982
0.00036059957
0.00012638826
2.0217466e-05
0.0021855626
0.0014241967
0.00081343808
0.00037645046
0.00012554228
1.9959042e-05
0.0024002031
0.0015723825
0.00089768234
0.00040735243
0.00012786233
1.9706525e-05
0.0026171466
0.0017357755
0.0010056946
0.00045850095
0.00013278246
1.9419539e-05
0.002773202
0.0018577227
0.0010917748
0.00050571759
0.00014297096
1.9268625e-05
0.0028995624
0.0019613669
0.0011680631
0.00054765807
0.00015030323
1.8916588e-05
0.0029595949
0.0020136867
0.001209536
0.00057397959
0.00015807872
1.8503054e-05
0.0029634721
0.0020203126
0.0012168425
0.00057816235
0.00016159507
1.7744467e-05
0.0029486936
0.0020145332
0.0012176823
0.00058224213
0.00015981315
1.6807038e-05
0.0028374704
0.001941609
0.0011745239
0.00056019511
0.00015538057
1.5561303e-05
)
;

boundaryField
{
    Side1
    {
        type            empty;
    }
    Inlet
    {
        type            calculated;
        value           nonuniform List<scalar> 0();
    }
    Side2
    {
        type            empty;
    }
    Outlet
    {
        type            zeroGradient;
    }
    Botwall
    {
        type            compressible::alphatWallFunction;
        value           nonuniform List<scalar> 
59
(
2.122059e-05
2.0392551e-05
1.9533473e-05
1.8650227e-05
1.7745898e-05
1.6824885e-05
1.5888203e-05
1.4937107e-05
1.3970228e-05
1.2985974e-05
1.1981292e-05
1.0953054e-05
9.8980453e-06
8.8139938e-06
7.7004559e-06
6.5592396e-06
5.4026539e-06
4.2453351e-06
3.0945915e-06
1.9131739e-06
7.2894274e-07
0
0
0
0
0
0
0
0
0
0
0
0
0
0
0
0
0
0
0
0
0
0
0
0
0
0
0
0
0
0
0
0
0
0
0
0
0
0
)
;
    }
    Cyli
    {
        type            compressible::alphatWallFunction;
        value           nonuniform List<scalar> 0();
    }
    procBoundary1to0
    {
        type            processor;
        value           nonuniform List<scalar> 
44
(
0.0029003956
0.0051646772
0.0017427156
0.0017427156
0.0010916799
0.0010916799
0.0014462486
0.0025035607
0.0025035607
0.0032990506
0.0032990506
0.0037561302
0.0044017481
0.0048719807
0.0048719807
0.0046834552
0.0048864666
0.0049518151
0.0048899847
0.0046928979
0.0043788988
0.0043668092
0.0043788988
0.0037703015
0.0029896542
0.0023185888
0.0023185888
0.017973893
0.015404197
0.0075519977
0.010994581
0.014727533
0.017866776
0.019446934
0.019216447
0.019216447
0.0051646772
0.0051646772
0.012616904
0.0097018751
0.0067431405
0.0039481351
0.0015769753
0.00019457473
)
;
    }
    procBoundary1to3
    {
        type            processor;
        value           nonuniform List<scalar> 
62
(
0.0014870939
0.0016790377
0.0018639803
0.0020619159
0.0022734588
0.0024963157
0.002728694
0.0029619821
0.0032111654
0.0035007071
0.0038415997
0.0042323951
0.0047536205
0.0053785705
0.0061670939
0.0071660236
0.0083632977
0.0097207794
0.011183251
0.012694139
0.014195057
0.015648317
0.017024456
0.018392924
0.019693327
0.020928798
0.022119316
0.023260018
0.024345389
0.025375143
0.026355527
0.027297224
0.028208237
0.02908589
0.029924202
0.030729414
0.031518611
0.032305401
0.033089441
0.033869732
0.033869732
0.036098473
0.036894216
0.037695334
0.038506772
0.039311949
0.040133461
0.040940551
0.041760941
0.042550667
0.043382676
0.04415103
0.044975354
0.045696984
0.046488203
0.047083824
0.047732869
0.048158293
0.048605273
0.048808632
0.048782631
0.048481552
)
;
    }
}


// ************************************************************************* //
