# Force and moment coefficients
# dragDir       : (1.00000000e+00 0.00000000e+00 0.00000000e+00)
# sideDir       : (0.00000000e+00 0.00000000e+00 -1.00000000e+00)
# liftDir       : (0.00000000e+00 1.00000000e+00 0.00000000e+00)
# rollAxis      : (1.00000000e+00 0.00000000e+00 0.00000000e+00)
# pitchAxis     : (0.00000000e+00 0.00000000e+00 -1.00000000e+00)
# yawAxis       : (0.00000000e+00 1.00000000e+00 0.00000000e+00)
# magUInf       : 5.14718807e+01
# lRef          : 1.16975207e-02
# Aref          : 1.16975207e-02
# CofR          : (0.00000000e+00 0.00000000e+00 0.00000000e+00)
#
# Time          	Cd              	Cd(f)           	Cd(r)           	Cl              	Cl(f)           	Cl(r)           	CmPitch         	CmRoll          	CmYaw           	Cs              	Cs(f)           	Cs(r)           
0.00200179      	1.93573484e+00	-1.34856222e+01	1.54213571e+01	3.38139987e-01	1.70239192e-01	1.67900796e-01	1.16919792e-03	-1.44534896e+01	8.27412447e+01	2.52213576e-21	8.27412447e+01	-8.27412447e+01
0.00200358      	1.93170080e+00	-1.34370958e+01	1.53687966e+01	3.36957521e-01	1.69663931e-01	1.67293590e-01	1.18517094e-03	-1.44029462e+01	8.25688135e+01	2.05960686e-21	8.25688135e+01	-8.25688135e+01
0.00200538      	1.92702940e+00	-1.35863591e+01	1.55133885e+01	3.40394899e-01	1.71389285e-01	1.69005614e-01	1.19183579e-03	-1.45498738e+01	8.23691387e+01	9.94542871e-21	8.23691387e+01	-8.23691387e+01
0.00200717      	1.93029925e+00	-1.37379996e+01	1.56682989e+01	3.43980784e-01	1.73179468e-01	1.70801316e-01	1.18907580e-03	-1.47031493e+01	8.25089052e+01	-3.89387246e-21	8.25089052e+01	-8.25089052e+01
0.00200896      	1.92748216e+00	-1.37382219e+01	1.56657041e+01	3.43953032e-01	1.73164608e-01	1.70788423e-01	1.18809265e-03	-1.47019630e+01	8.23884915e+01	2.58498259e-21	8.23884915e+01	-8.23884915e+01
