/*--------------------------------*- C++ -*----------------------------------*\
| =========                 |                                                 |
| \\      /  F ield         | OpenFOAM: The Open Source CFD Toolbox           |
|  \\    /   O peration     | Version:  2406                                  |
|   \\  /    A nd           | Website:  www.openfoam.com                      |
|    \\/     M anipulation  |                                                 |
\*---------------------------------------------------------------------------*/
FoamFile
{
    version     2.0;
    format      ascii;
    arch        "LSB;label=32;scalar=64";
    class       volScalarField;
    location    "0.018";
    object      Ma;
}
// * * * * * * * * * * * * * * * * * * * * * * * * * * * * * * * * * * * * * //

dimensions      [0 0 0 0 0 0 0];

internalField   nonuniform List<scalar> 
92813
(
0.14390389
0.14458415
0.14531752
0.14603642
0.14667468
0.14725605
0.1478003
0.14832179
0.14883299
0.14934426
0.14986465
0.15040129
0.15096003
0.15154453
0.15215102
0.15278066
0.15342878
0.15408236
0.15472816
0.15536236
0.15598174
0.15658084
0.15716841
0.15774692
0.15831649
0.15887615
0.15942427
0.15995877
0.16047713
0.16097645
0.16145341
0.16190431
0.16232499
0.16271083
0.16305673
0.16335692
0.16360493
0.16379781
0.16392314
0.16396203
0.16392035
0.16379202
0.1635572
0.16320589
0.16272995
0.16212465
0.16139267
0.16055161
0.15964411
0.15874439
0.15794227
0.15729884
0.15681464
0.15644874
0.1561565
0.15590621
0.15567924
0.15546644
0.15526319
0.15506802
0.15488047
0.15469878
0.15452318
0.15435354
0.15418899
0.1540287
0.1538729
0.15372206
0.15357482
0.15343214
0.1532938
0.15315844
0.15302713
0.15289981
0.15277516
0.15265427
0.15253715
0.15242239
0.1523111
0.15220333
0.15209766
0.15199525
0.15189606
0.15179885
0.15170475
0.15161364
0.15152445
0.15143817
0.15135467
0.15127305
0.15119416
0.15111799
0.15104372
0.15097185
0.15090262
0.15083507
0.15076944
0.15070629
0.15064444
0.15058466
0.15052749
0.15047192
0.15041849
0.15036753
0.15031872
0.15027149
0.15022613
0.15018308
0.15014168
0.15010207
0.15006463
0.15002894
0.14999496
0.149963
0.14993292
0.1499046
0.14987824
0.14985391
0.1498313
0.14981076
0.14979199
0.14977551
0.14976058
0.1497487
0.1497381
0.14973221
0.14972748
0.14138547
0.14226256
0.14314096
0.14396959
0.14474068
0.14546577
0.14615687
0.14682293
0.14747215
0.14811239
0.14875093
0.14939418
0.15004717
0.15071259
0.15138939
0.15207559
0.15276649
0.15345455
0.15413274
0.15479783
0.15544795
0.15608161
0.15670143
0.1573087
0.15790347
0.15848491
0.15905155
0.15960146
0.16013224
0.16064109
0.16112478
0.16157963
0.16200152
0.16238582
0.16272738
0.16302045
0.16325876
0.16343752
0.16354345
0.16356349
0.16350261
0.16334507
0.16307834
0.16269292
0.16218117
0.16154062
0.1607786
0.15992061
0.15902045
0.15816105
0.1574273
0.15685965
0.15643883
0.1561177
0.15585547
0.15562614
0.15541513
0.15521569
0.15502431
0.15484018
0.15466305
0.15449106
0.15432469
0.15416386
0.15400762
0.15385514
0.15370683
0.15356318
0.15342269
0.15328652
0.15315437
0.1530248
0.1528991
0.15277713
0.1526575
0.15254148
0.15242901
0.15231862
0.15221157
0.15210783
0.15200594
0.15190721
0.15181151
0.15171759
0.15162669
0.1515386
0.15145228
0.15136877
0.1512879
0.15120878
0.15113232
0.15105844
0.15098635
0.15091658
0.15084933
0.15078368
0.15071985
0.15065843
0.15059824
0.15054001
0.15048436
0.15043025
0.15037817
0.15032847
0.15028091
0.15023484
0.15019054
0.15014852
0.15010811
0.15006939
0.1500328
0.14999794
0.14996473
0.14993347
0.14990407
0.14987637
0.14985057
0.14982677
0.14980464
0.14978452
0.14976612
0.14974997
0.14973532
0.14972368
0.14971326
0.14970749
0.1497028
0.1385537
0.13955416
0.14060232
0.14159276
0.14252195
0.14340187
0.14424308
0.14505326
0.14583932
0.14660794
0.14736541
0.14811735
0.14886824
0.14962071
0.15037491
0.15112923
0.15188013
0.15262256
0.15335165
0.15406461
0.15475985
0.1554366
0.15609585
0.15673849
0.15736466
0.15797377
0.15856459
0.15913538
0.15968393
0.16020754
0.1607031
0.16116701
0.16159516
0.16198294
0.16232517
0.16261606
0.16284928
0.1630189
0.16311106
0.16311896
0.16304264
0.16286106
0.16256844
0.162155
0.1616143
0.16094669
0.16016482
0.15930286
0.15842506
0.15761853
0.15695604
0.15645638
0.15608704
0.15580071
0.15556228
0.15535066
0.15515408
0.15496734
0.15478754
0.15461426
0.15444747
0.15428511
0.1541279
0.15397581
0.15382781
0.15368309
0.15354218
0.15340564
0.15327178
0.153142
0.15301595
0.15289208
0.15277187
0.15265516
0.15254048
0.15242922
0.15232132
0.15221523
0.15211234
0.15201257
0.15191444
0.15181931
0.15172707
0.15163641
0.15154863
0.15146354
0.15138004
0.15129925
0.15122098
0.15114433
0.15107023
0.15099861
0.15092868
0.15086096
0.15079566
0.1507319
0.15066985
0.15061014
0.15055161
0.15049491
0.15044075
0.15038808
0.15033733
0.15028889
0.15024256
0.15019766
0.15015441
0.15011341
0.150074
0.15003619
0.15000045
0.14996643
0.14993399
0.14990344
0.14987472
0.14984765
0.14982241
0.14979914
0.14977749
0.14975779
0.14973978
0.14972396
0.14970959
0.14969819
0.14968795
0.1496823
0.14967767
0.13593452
0.13704452
0.13822744
0.13935854
0.14042826
0.14144602
0.14242093
0.14335959
0.14426794
0.14515175
0.1460165
0.14686708
0.14770742
0.14854004
0.14936573
0.15018373
0.15099182
0.15178665
0.15256483
0.15332404
0.15406284
0.15478049
0.15547741
0.15615414
0.15681075
0.15744673
0.15806101
0.158652
0.15921761
0.15975527
0.16026195
0.16073409
0.16116763
0.16155793
0.16189975
0.16218722
0.16241381
0.16257287
0.16265117
0.16264589
0.16255046
0.16234388
0.16202442
0.16158212
0.16101258
0.16031983
0.1595231
0.15866643
0.15782359
0.15708064
0.15649267
0.15605795
0.1557356
0.15548083
0.15526452
0.15506994
0.15488759
0.15471357
0.15454541
0.15438311
0.15422681
0.15407419
0.15392626
0.15378304
0.15364341
0.15350656
0.1533732
0.15324389
0.1531168
0.15299354
0.15287371
0.15275566
0.15264108
0.15252975
0.15242013
0.15231377
0.15221056
0.1521089
0.15201027
0.15191459
0.15182031
0.1517289
0.1516402
0.1515529
0.15146836
0.15138635
0.15130577
0.15122778
0.1511522
0.15107809
0.15100643
0.15093716
0.15086945
0.15080386
0.15074058
0.15067877
0.15061855
0.15056061
0.15050379
0.15044867
0.15039606
0.15034488
0.15029551
0.15024836
0.15020331
0.15015962
0.15011747
0.15007752
0.15003914
0.15000227
0.1499674
0.14993424
0.14990261
0.14987278
0.14984476
0.14981834
0.14979368
0.14977095
0.1497498
0.14973053
0.14971291
0.14969744
0.14968335
0.14967221
0.14966216
0.14965663
0.14965206
0.13350422
0.13471256
0.13600369
0.13725267
0.13844448
0.13958416
0.14067838
0.14173229
0.14275078
0.14373873
0.14470088
0.14564148
0.14656405
0.14747102
0.14836355
0.1492416
0.15010393
0.15094853
0.15177315
0.15257606
0.15335604
0.15411245
0.15484532
0.15555484
0.1562409
0.15690299
0.15754009
0.1581507
0.15873282
0.15928397
0.15980115
0.16028085
0.160719
0.16111092
0.16145133
0.16173419
0.16195277
0.16209966
0.16216382
0.1621432
0.1620251
0.16179259
0.16144496
0.1609729
0.16037493
0.15965986
0.158855
0.15801501
0.15722065
0.15655044
0.15603792
0.15566411
0.15538436
0.15515822
0.15496261
0.15478454
0.15461628
0.15445503
0.15429866
0.15414752
0.15400189
0.15385917
0.15372069
0.15358652
0.15345541
0.15332658
0.15320091
0.15307898
0.15295879
0.15284219
0.1527287
0.15261659
0.15250775
0.15240192
0.15229746
0.15219611
0.15209768
0.15200053
0.15190626
0.15181475
0.15172439
0.15163677
0.1515517
0.15146782
0.15138657
0.1513077
0.1512301
0.15115498
0.15108212
0.15101061
0.15094145
0.15087455
0.15080911
0.15074569
0.15068446
0.15062463
0.15056628
0.15051015
0.15045508
0.15040157
0.15035052
0.15030088
0.15025291
0.15020708
0.15016332
0.15012086
0.15007983
0.15004094
0.15000362
0.14996771
0.14993373
0.14990144
0.14987063
0.14984155
0.14981423
0.14978848
0.14976441
0.14974222
0.14972159
0.14970275
0.14968554
0.14967042
0.14965663
0.14964574
0.14963588
0.14963048
0.14962597
0.13123555
0.13254381
0.13392921
0.13527779
0.13657378
0.13781851
0.13901634
0.14017106
0.14128653
0.14236683
0.14341597
0.14443763
0.14543495
0.14641025
0.14736492
0.14829938
0.14921314
0.1501051
0.15097388
0.15181823
0.15263723
0.15343031
0.15419728
0.15493803
0.15565231
0.1563395
0.1569986
0.15762812
0.15822611
0.15879012
0.15931718
0.15980378
0.16024581
0.16063855
0.16097661
0.16125384
0.16146332
0.16159671
0.16164548
0.16160743
0.1614647
0.16120523
0.16082819
0.16032614
0.15970122
0.15896836
0.15816439
0.1573544
0.15662169
0.15603057
0.15559175
0.15527386
0.15503244
0.15483238
0.15465631
0.15449437
0.15434015
0.15419177
0.15404733
0.15390752
0.15377274
0.15364007
0.15351121
0.15338623
0.15326379
0.15314311
0.15302528
0.15291087
0.15279769
0.15268787
0.15258084
0.15247478
0.15237179
0.15227156
0.15217237
0.15207611
0.15198256
0.15189
0.15180017
0.15171291
0.15162656
0.15154281
0.15146143
0.15138103
0.15130314
0.15122748
0.15115291
0.15108071
0.15101065
0.15094178
0.15087516
0.15081069
0.15074757
0.15068635
0.15062722
0.15056942
0.15051298
0.15045868
0.1504054
0.15035353
0.15030407
0.150256
0.15020948
0.15016498
0.15012254
0.15008135
0.15004146
0.15000365
0.1499674
0.14993248
0.1498994
0.14986801
0.14983804
0.14980971
0.14978311
0.14975804
0.14973458
0.14971295
0.14969284
0.14967445
0.14965765
0.14964289
0.1496294
0.14961877
0.14960911
0.14960384
0.14959938
0.12913318
0.13054419
0.13201265
0.13344462
0.13482717
0.1361597
0.13744485
0.13868532
0.13988411
0.14104448
0.14216978
0.14326313
0.14432728
0.14536438
0.14637587
0.14736247
0.14832421
0.14926058
0.15017079
0.15105401
0.15190956
0.15273692
0.15353577
0.15430582
0.15504663
0.1557575
0.15643736
0.15708471
0.15769758
0.15827352
0.15880954
0.15930209
0.15974701
0.1601395
0.16047406
0.16074444
0.16094358
0.16106175
0.16109359
0.1610365
0.16086723
0.16057951
0.16017221
0.15964068
0.15899166
0.15824768
0.15745621
0.15669108
0.15603184
0.15552284
0.15515364
0.15488615
0.15467909
0.1545029
0.15434547
0.1541994
0.1540592
0.15392381
0.15379144
0.15366314
0.15353939
0.15341691
0.15329782
0.1531822
0.15306855
0.15295616
0.15284631
0.15273955
0.1526335
0.15253059
0.15243013
0.15233023
0.15223321
0.15213868
0.15204485
0.15195379
0.1518652
0.15177733
0.15169203
0.15160909
0.15152683
0.15144702
0.15136939
0.15129256
0.15121809
0.15114569
0.15107423
0.151005
0.15093778
0.15087161
0.15080759
0.1507456
0.15068483
0.15062587
0.15056887
0.15051314
0.15045864
0.1504062
0.15035476
0.15030458
0.15025673
0.15021026
0.15016521
0.15012208
0.15008098
0.15004108
0.15000236
0.14996565
0.1499305
0.14989658
0.14986442
0.14983394
0.14980482
0.14977727
0.1497514
0.14972703
0.14970418
0.14968312
0.14966354
0.14964562
0.14962923
0.14961484
0.14960165
0.14959128
0.14958183
0.14957669
0.1495723
0.12722559
0.12872526
0.13026219
0.13176084
0.13321236
0.13461551
0.13597177
0.137283
0.1385514
0.13977954
0.14097007
0.14212556
0.14324832
0.14434025
0.14540274
0.14643665
0.14744228
0.14841952
0.14936796
0.15028706
0.15117632
0.15203527
0.15286351
0.15366058
0.15442592
0.15515869
0.15585773
0.15652147
0.1571479
0.15773451
0.15827826
0.15877553
0.15922207
0.15961297
0.15994259
0.16020458
0.16039178
0.16049286
0.16050675
0.16042834
0.16023032
0.1599132
0.15947528
0.15891575
0.15824719
0.15750129
0.15673658
0.15603174
0.15545508
0.15502772
0.15472241
0.1544998
0.1543236
0.15416946
0.15402998
0.15389961
0.15377344
0.15365117
0.15353104
0.15341441
0.15330186
0.15318971
0.15308053
0.15297441
0.1528697
0.15276573
0.152664
0.15256501
0.15246622
0.15237034
0.15227656
0.15218292
0.15209198
0.15200325
0.15191489
0.15182912
0.15174559
0.15166249
0.15158181
0.15150327
0.15142517
0.15134937
0.15127557
0.15120237
0.15113139
0.15106232
0.15099401
0.15092783
0.15086349
0.15080008
0.15073871
0.15067923
0.15062087
0.15056421
0.15050939
0.15045576
0.15040325
0.15035271
0.15030313
0.15025467
0.15020846
0.15016363
0.15012009
0.15007835
0.15003861
0.15000004
0.14996251
0.14992691
0.14989288
0.14986
0.14982878
0.14979921
0.14977097
0.14974421
0.14971909
0.14969542
0.14967321
0.14965273
0.14963369
0.14961623
0.14960027
0.14958625
0.14957338
0.14956328
0.14955403
0.14954902
0.1495447
0.12552123
0.12709042
0.12867953
0.13022835
0.13173207
0.13318948
0.13460139
0.13596897
0.13729377
0.13857765
0.13982262
0.14103068
0.14220368
0.14334322
0.14445053
0.14552646
0.14657142
0.14758552
0.14856856
0.1495202
0.15044004
0.15132763
0.1521825
0.15300408
0.15379164
0.15454423
0.15526056
0.15593896
0.15657733
0.15717308
0.15772306
0.15822355
0.15867017
0.15905787
0.15938085
0.15963254
0.15980562
0.15988882
0.15988373
0.15977967
0.15955137
0.15920416
0.15873604
0.15815135
0.1574701
0.15673451
0.15601305
0.15538298
0.15489413
0.15454471
0.15429661
0.15411372
0.15396539
0.15383183
0.15370982
0.15359504
0.15348292
0.15337391
0.15326617
0.15316139
0.15306018
0.15295849
0.15285938
0.15276289
0.15266724
0.15257181
0.15247834
0.15238726
0.15229584
0.15220711
0.15212011
0.15203285
0.1519481
0.15186526
0.15178246
0.15170209
0.1516237
0.15154546
0.15146948
0.15139541
0.15132156
0.15124984
0.15117994
0.15111044
0.15104302
0.15097733
0.15091225
0.15084916
0.15078777
0.15072717
0.1506685
0.15061159
0.15055568
0.15050136
0.15044876
0.15039728
0.15034679
0.15029817
0.15025051
0.15020381
0.15015926
0.15011611
0.15007411
0.15003378
0.14999542
0.14995821
0.1499219
0.14988744
0.14985455
0.14982272
0.14979246
0.14976381
0.14973648
0.14971053
0.14968615
0.14966321
0.14964165
0.14962176
0.14960327
0.1495863
0.14957076
0.14955713
0.14954458
0.14953475
0.14952571
0.14952084
0.14951659
0.12402069
0.12563706
0.12726135
0.12884468
0.13038515
0.13188186
0.13333519
0.13474577
0.13611455
0.13744274
0.13873175
0.13998301
0.14119793
0.14237774
0.14352344
0.14463576
0.14571513
0.14676169
0.14777536
0.14875588
0.1497029
0.15061594
0.15149446
0.15233777
0.15314501
0.15391506
0.1546465
0.15533755
0.15598596
0.15658901
0.15714344
0.15764536
0.15809026
0.15847291
0.15878732
0.15902674
0.15918311
0.15924754
0.15922151
0.15908749
0.15882825
0.15845057
0.15795374
0.15734868
0.15666456
0.15595474
0.1552942
0.15475054
0.1543502
0.15407254
0.1538747
0.15372693
0.15360401
0.15348992
0.15338501
0.15328574
0.15318773
0.1530921
0.15299691
0.15290414
0.15281439
0.15272331
0.15263439
0.15254765
0.15246118
0.15237442
0.15228936
0.15220628
0.15212235
0.15204089
0.15196078
0.15188
0.15180155
0.1517247
0.15164757
0.15157269
0.15149951
0.15142623
0.15135503
0.15128551
0.15121598
0.15114843
0.15108249
0.15101676
0.15095295
0.15089072
0.15082892
0.15076899
0.1507106
0.15065287
0.15059694
0.15054264
0.15048923
0.1504373
0.15038696
0.15033767
0.15028924
0.15024259
0.15019687
0.15015197
0.15010911
0.15006767
0.15002725
0.14998836
0.1499514
0.14991558
0.14988052
0.14984721
0.14981548
0.14978473
0.14975545
0.14972774
0.14970133
0.14967621
0.1496526
0.14963038
0.14960949
0.1495902
0.14957227
0.14955579
0.1495407
0.14952745
0.14951524
0.14950567
0.14949685
0.14949212
0.14948795
0.12272091
0.12435796
0.12600013
0.12760366
0.12916733
0.13069022
0.13217236
0.13361393
0.13501532
0.1363772
0.13770041
0.13898589
0.14023457
0.14144733
0.14262489
0.14376778
0.14487635
0.14595071
0.14699075
0.14799623
0.14896677
0.14990185
0.15080083
0.15166288
0.15248699
0.15327191
0.15401603
0.15471742
0.15537368
0.15598193
0.15653873
0.15704002
0.15748111
0.15785656
0.15816025
0.1583853
0.15852231
0.15856577
0.15851617
0.15834992
0.15805921
0.15765109
0.15712862
0.15651066
0.1558371
0.1551714
0.15458874
0.15413849
0.153823
0.15360938
0.1534552
0.15333861
0.15323914
0.15314367
0.15305564
0.1529718
0.15288794
0.15280583
0.15272335
0.15264275
0.15256456
0.1524842
0.15240562
0.15232872
0.15225153
0.15217358
0.15209706
0.15202208
0.15194577
0.15187169
0.15179855
0.15172438
0.15165233
0.15158155
0.1515102
0.15144089
0.15137302
0.15130478
0.15123844
0.15117354
0.15110842
0.1510451
0.15098319
0.15092131
0.15086119
0.15080245
0.15074402
0.15068729
0.15063195
0.15057714
0.15052402
0.15047237
0.15042151
0.15037201
0.15032398
0.15027691
0.15023059
0.15018593
0.15014221
0.15009914
0.150058
0.1500183
0.14997949
0.14994208
0.14990654
0.14987213
0.14983836
0.14980621
0.14977566
0.14974602
0.14971774
0.14969099
0.14966551
0.14964124
0.1496184
0.14959693
0.14957673
0.14955805
0.14954069
0.14952471
0.14951007
0.14949722
0.14948535
0.14947605
0.14946746
0.14946286
0.14945877
0.12159517
0.12323825
0.12488541
0.1264973
0.12807274
0.12961059
0.13111056
0.13257244
0.1339962
0.13538203
0.1367303
0.13804146
0.13931606
0.14055459
0.14175748
0.14292506
0.14405748
0.14515474
0.14621668
0.14724299
0.14823319
0.1491867
0.15010273
0.15098033
0.15181831
0.15261524
0.15336936
0.15407854
0.15474018
0.15535123
0.15590804
0.15640634
0.1568412
0.15720697
0.15749741
0.15770565
0.15782043
0.15784105
0.1577652
0.15756462
0.15724221
0.15680509
0.15626241
0.1556426
0.154997
0.15439535
0.15390425
0.15354872
0.15331097
0.15315316
0.15303678
0.15294817
0.15287054
0.15279317
0.15272185
0.15265331
0.15258367
0.15251519
0.1524456
0.15237732
0.15231072
0.15224125
0.15217311
0.1521061
0.15203831
0.15196931
0.15190148
0.15183468
0.15176612
0.15169951
0.15163343
0.15156598
0.15150044
0.15143581
0.15137035
0.15130671
0.1512442
0.15118111
0.15111971
0.15105948
0.15099886
0.15093985
0.15088203
0.15082407
0.1507677
0.15071253
0.15065751
0.15060405
0.15055181
0.15049999
0.15044972
0.15040076
0.1503525
0.15030549
0.1502598
0.15021499
0.15017082
0.15012819
0.15008651
0.15004531
0.15000591
0.14996798
0.14993083
0.14989493
0.14986082
0.14982785
0.14979539
0.14976444
0.14973508
0.14970658
0.14967932
0.14965353
0.14962901
0.14960562
0.14958357
0.14956285
0.14954335
0.14952529
0.14950851
0.14949305
0.14947887
0.14946641
0.14945489
0.14944587
0.14943751
0.14943306
0.14942904
0.12062902
0.12226674
0.12390838
0.12551842
0.12709562
0.12863857
0.13014665
0.13161934
0.13305623
0.13445712
0.13582196
0.13715083
0.13844386
0.13970122
0.14092304
0.14210939
0.14326023
0.14437542
0.14545463
0.14649746
0.14750331
0.14847145
0.14940095
0.1502907
0.15113934
0.15194523
0.15270642
0.15342056
0.15408486
0.15469603
0.15525019
0.15574283
0.15616876
0.15652205
0.1567962
0.15698447
0.1570756
0.15707181
0.15696464
0.15672872
0.15637573
0.15591332
0.1553592
0.15475295
0.15415618
0.15363756
0.15324598
0.15298091
0.15281166
0.15270174
0.15261843
0.15255517
0.15249802
0.15243863
0.15238388
0.15233036
0.15227503
0.15222027
0.15216376
0.15210797
0.15205294
0.15199454
0.15193693
0.15187985
0.15182155
0.15176165
0.15170263
0.15164407
0.1515834
0.15152436
0.15146541
0.15140483
0.15134587
0.15128747
0.15122801
0.15117012
0.15111304
0.15105519
0.15099882
0.15094333
0.1508873
0.15083266
0.15077898
0.15072503
0.15067247
0.15062092
0.15056939
0.15051926
0.15047017
0.15042139
0.15037403
0.15032781
0.15028219
0.15023771
0.15019441
0.15015189
0.15010992
0.15006936
0.15002974
0.14999045
0.14995283
0.1499167
0.14988124
0.14984688
0.14981422
0.14978273
0.14975161
0.14972188
0.14969373
0.14966639
0.14964018
0.14961536
0.14959181
0.14956932
0.14954807
0.14952812
0.14950934
0.14949192
0.14947573
0.14946079
0.14944707
0.14943503
0.14942387
0.14941513
0.149407
0.14940269
0.14939876
0.11981036
0.12143336
0.12306054
0.12465984
0.12623
0.12776932
0.1292769
0.13075189
0.13219359
0.13360144
0.13497505
0.13631415
0.13761853
0.13888805
0.14012256
0.14132187
0.14248573
0.14361379
0.14470557
0.1457605
0.14677783
0.14775667
0.14869591
0.14959424
0.15045012
0.15126169
0.15202678
0.15274282
0.15340677
0.15401509
0.15456366
0.15504769
0.15546169
0.15579947
0.15605422
0.15621882
0.1562849
0.15625449
0.15611085
0.15584066
0.15545964
0.15497876
0.15442633
0.15385372
0.1533283
0.15290737
0.15261615
0.15243291
0.15232215
0.15225316
0.15219975
0.15215935
0.15212128
0.15208058
0.1520421
0.15200289
0.15196207
0.15192116
0.15187802
0.1518349
0.15179125
0.15174414
0.15169717
0.15164998
0.15160129
0.15155066
0.15150056
0.15145027
0.15139767
0.15134628
0.1512945
0.15124093
0.15118865
0.15113653
0.15108318
0.15103114
0.15097954
0.15092704
0.15087576
0.15082507
0.15077371
0.15072352
0.15067405
0.15062418
0.15057549
0.15052762
0.15047965
0.1504329
0.150387
0.15034133
0.15029692
0.15025348
0.15021055
0.15016866
0.15012778
0.1500876
0.15004786
0.15000941
0.14997191
0.14993456
0.14989874
0.14986445
0.14983071
0.14979794
0.14976675
0.14973676
0.14970701
0.14967852
0.1496516
0.14962543
0.14960031
0.14957648
0.14955391
0.14953234
0.14951191
0.14949273
0.14947468
0.14945792
0.14944232
0.14942793
0.14941469
0.14940306
0.14939226
0.1493838
0.14937591
0.14937175
0.14936791
0.11912772
0.12072795
0.12233306
0.12391402
0.12546949
0.12699756
0.12849701
0.12996672
0.13140572
0.13281317
0.13418837
0.13553074
0.13683981
0.13811514
0.13935632
0.14056291
0.14173444
0.14287033
0.14396993
0.14503246
0.14605701
0.14704249
0.14798758
0.14889077
0.14975029
0.15056406
0.15132966
0.15204427
0.15270459
0.15330681
0.15384653
0.15431867
0.15471748
0.15503648
0.15526866
0.15540584
0.15544403
0.15538406
0.15520236
0.15490037
0.15449596
0.15400761
0.15347527
0.15296017
0.15252672
0.15221074
0.1520139
0.15190156
0.1518397
0.15180585
0.15178102
0.15176028
0.15173993
0.15171987
0.15169671
0.15167062
0.15164481
0.15161788
0.15158864
0.15155841
0.15152564
0.15149018
0.15145396
0.15141651
0.15137753
0.15133638
0.15129532
0.1512533
0.15120896
0.15116526
0.15112071
0.1510743
0.15102877
0.15098298
0.15093589
0.15088975
0.15084368
0.15079664
0.15075054
0.15070469
0.1506581
0.15061242
0.1505672
0.1505215
0.15047675
0.1504326
0.15038827
0.15034495
0.1503023
0.15025979
0.15021838
0.15017776
0.15013758
0.15009833
0.1500599
0.15002209
0.14998465
0.14994833
0.14991298
0.14987762
0.14984364
0.1498112
0.14977923
0.14974807
0.14971837
0.14968991
0.14966157
0.14963434
0.14960867
0.1495837
0.14955969
0.14953687
0.14951528
0.14949466
0.14947507
0.14945668
0.14943937
0.14942328
0.14940829
0.14939445
0.14938169
0.14937048
0.14936006
0.14935189
0.14934425
0.14934023
0.14933648
0.11856907
0.12013995
0.12171676
0.12327306
0.12480737
0.12631757
0.1278022
0.12925989
0.13068944
0.13208977
0.13345995
0.13479916
0.13610665
0.13738177
0.13862384
0.1398322
0.14100615
0.14214489
0.14324756
0.14431317
0.14534061
0.14632856
0.1472755
0.14817967
0.14903905
0.14985133
0.15061382
0.1513234
0.15197653
0.15256908
0.15309637
0.15355304
0.15393302
0.15422962
0.15443574
0.15454159
0.15455005
0.15445799
0.15423808
0.1539086
0.15348969
0.15301049
0.15252197
0.15208904
0.15176182
0.15154957
0.15143633
0.15138393
0.15136249
0.1513591
0.15136207
0.1513568
0.15135446
0.1513567
0.15134703
0.15133367
0.15132355
0.15131055
0.15129607
0.1512787
0.15125597
0.15123292
0.15120749
0.15117938
0.15115026
0.1511189
0.15108703
0.15105316
0.15101732
0.15098135
0.15094403
0.15090498
0.15086625
0.15082683
0.15078614
0.15074596
0.15070547
0.15066401
0.15062313
0.15058217
0.15054045
0.15049935
0.15045844
0.15041699
0.15037623
0.15033586
0.15029523
0.1502554
0.15021605
0.15017676
0.1501384
0.15010065
0.15006326
0.15002669
0.14999076
0.14995536
0.14992026
0.14988612
0.14985295
0.14981962
0.14978751
0.14975695
0.14972678
0.14969728
0.14966909
0.14964217
0.14961527
0.14958935
0.14956492
0.14954119
0.14951832
0.14949651
0.14947593
0.14945628
0.14943755
0.14941995
0.1494034
0.149388
0.14937362
0.14936034
0.14934808
0.1493373
0.14932726
0.14931938
0.14931199
0.14930813
0.14930447
0.11812249
0.11965902
0.12120262
0.12272905
0.12423674
0.12572339
0.1271873
0.12862696
0.13004097
0.13142807
0.13278715
0.13411719
0.13541726
0.13668646
0.13792391
0.13912874
0.1403
0.14143669
0.14253772
0.14360188
0.14462783
0.14561402
0.14655867
0.14745979
0.1483151
0.14912199
0.1498775
0.15057821
0.15122027
0.15179928
0.15231024
0.15274751
0.15310473
0.15337481
0.15355071
0.15362384
0.15360176
0.15347208
0.15321797
0.15286917
0.15245062
0.15200352
0.15158583
0.15125554
0.15103897
0.15092283
0.15087991
0.15087824
0.15089044
0.15091061
0.15093747
0.15095065
0.15096766
0.15098743
0.15099254
0.15099499
0.15099931
0.1509997
0.15100065
0.1509951
0.15098233
0.15097285
0.15095787
0.15093844
0.15091941
0.15089838
0.15087581
0.15084982
0.15082285
0.15079461
0.15076446
0.150733
0.15070112
0.15066808
0.15063394
0.15059977
0.15056489
0.15052914
0.15049355
0.15045751
0.15042078
0.15038431
0.15034774
0.15031064
0.15027393
0.15023738
0.15020053
0.15016424
0.15012823
0.15009222
0.15005696
0.15002212
0.14998757
0.14995373
0.14992034
0.14988738
0.14985467
0.14982275
0.1497918
0.14976053
0.14973034
0.14970167
0.14967335
0.14964555
0.14961889
0.14959354
0.1495681
0.14954351
0.14952036
0.14949787
0.14947617
0.14945541
0.14943584
0.14941718
0.14939932
0.14938253
0.14936675
0.14935206
0.1493383
0.14932559
0.14931384
0.14930349
0.14929385
0.14928626
0.14927913
0.14927542
0.14927186
0.11777727
0.11927556
0.12078199
0.12227426
0.12375069
0.12520882
0.12664682
0.12806303
0.12945595
0.13082423
0.13216661
0.13348193
0.13476909
0.13602701
0.13725461
0.13845081
0.13961444
0.14074429
0.14183903
0.14289722
0.14391728
0.1448974
0.14583555
0.14672946
0.14757657
0.14837396
0.14911837
0.14980608
0.15043291
0.15099416
0.15148457
0.15189827
0.15222871
0.15246828
0.15260928
0.15264951
0.15259545
0.15242557
0.152146
0.15179095
0.15139472
0.15100793
0.15068674
0.15047036
0.15035878
0.15032895
0.15034137
0.15037581
0.15041832
0.15046141
0.15050716
0.15054353
0.15057928
0.15061209
0.1506353
0.15065495
0.15067284
0.15068682
0.15070089
0.15070596
0.15070655
0.15071033
0.15070467
0.15069392
0.15068513
0.15067506
0.1506617
0.15064326
0.15062577
0.15060507
0.15058193
0.15055842
0.15053342
0.1505067
0.15047932
0.15045122
0.15042195
0.15039205
0.15036179
0.1503307
0.15029907
0.1502673
0.1502351
0.15020245
0.15016985
0.15013715
0.15010417
0.15007147
0.15003882
0.15000618
0.14997406
0.14994216
0.14991051
0.14987944
0.14984863
0.14981815
0.14978789
0.14975822
0.14972951
0.14970036
0.14967212
0.14964536
0.14961892
0.14959286
0.14956776
0.14954399
0.14952005
0.14949684
0.14947496
0.14945374
0.14943324
0.14941354
0.14939499
0.14937734
0.14936039
0.14934441
0.14932941
0.14931544
0.14930233
0.14929019
0.14927896
0.14926906
0.14925982
0.14925253
0.14924566
0.14924211
0.14923864
0.11752263
0.11898006
0.12044634
0.12190099
0.12334221
0.12476745
0.12617483
0.12756266
0.12892944
0.13027374
0.13159425
0.1328897
0.13415885
0.13540045
0.13661326
0.13779597
0.13894722
0.14006557
0.14114945
0.14219719
0.14320694
0.14417662
0.14510395
0.14598634
0.14682093
0.14760451
0.14833345
0.14900373
0.14961084
0.15014978
0.15061509
0.1510008
0.1513004
0.1515058
0.15160797
0.15161513
0.151528
0.15132287
0.15103083
0.15068987
0.15034467
0.15004724
0.14984136
0.14973912
0.1497217
0.14975636
0.14980986
0.14987527
0.1499444
0.15001254
0.15007749
0.15013445
0.15018732
0.15023553
0.15027593
0.15031141
0.15034349
0.1503715
0.15039658
0.15041405
0.15042872
0.15044294
0.15044721
0.15044755
0.15044803
0.15044905
0.15044416
0.1504337
0.15042629
0.15041266
0.15039639
0.15038141
0.15036319
0.15034265
0.15032234
0.15030032
0.15027662
0.15025275
0.15022786
0.15020173
0.15017534
0.1501483
0.15012052
0.15009242
0.15006397
0.15003516
0.15000613
0.14997706
0.14994783
0.14991861
0.14988967
0.14986076
0.14983206
0.14980381
0.14977561
0.14974765
0.14971988
0.1496925
0.14966607
0.14963909
0.14961284
0.14958801
0.14956347
0.14953919
0.14951569
0.14949351
0.1494711
0.1494493
0.14942872
0.14940878
0.14938951
0.1493709
0.14935338
0.14933676
0.14932073
0.14930559
0.14929138
0.14927815
0.14926568
0.14925414
0.14924344
0.14923398
0.14922515
0.14921817
0.14921156
0.14920818
0.14920481
0.11734874
0.11876414
0.12018799
0.12160199
0.12300436
0.12439261
0.12576497
0.12711984
0.12845577
0.12977136
0.13106525
0.13233608
0.13358248
0.13480307
0.13599643
0.13716105
0.13829536
0.13939768
0.14046622
0.14149905
0.14249406
0.14344889
0.14436096
0.14522738
0.14604497
0.14681016
0.14751901
0.14816713
0.1487497
0.14926145
0.14969678
0.15004982
0.15031443
0.15048197
0.15054542
0.15052128
0.15039908
0.15017239
0.14988837
0.14959035
0.14932811
0.14914298
0.14906106
0.14906227
0.14911233
0.14919327
0.14928227
0.14937909
0.14947389
0.14956354
0.14964721
0.14972316
0.14979316
0.14985714
0.1499139
0.14996489
0.15001116
0.15005266
0.1500898
0.15012063
0.15014727
0.1501706
0.15018689
0.15019916
0.15020919
0.1502194
0.15022227
0.15022239
0.15022419
0.15021709
0.15020819
0.15020217
0.15019037
0.15017591
0.15016311
0.1501471
0.15012886
0.15011128
0.1500918
0.1500706
0.1500496
0.15002734
0.15000397
0.14998054
0.1499563
0.14993141
0.14990641
0.14988101
0.14985524
0.14982951
0.14980379
0.1497779
0.1497522
0.14972681
0.14970127
0.14967588
0.14965065
0.1496256
0.14960145
0.14957669
0.14955248
0.1495296
0.149507
0.14948453
0.14946267
0.14944208
0.14942125
0.14940088
0.14938163
0.14936299
0.14934497
0.14932749
0.149311
0.14929541
0.14928033
0.14926604
0.14925264
0.14924016
0.14922836
0.14921741
0.14920726
0.14919825
0.14918984
0.14918317
0.14917684
0.14917361
0.14917035
0.11724754
0.11862053
0.12000041
0.12137048
0.12273002
0.12407705
0.12541007
0.12672765
0.12802841
0.12931097
0.13057391
0.13181579
0.13303513
0.13423037
0.13539993
0.1365421
0.1376551
0.13873702
0.13978583
0.14079934
0.14177516
0.14271064
0.1436029
0.14444873
0.1452446
0.14598662
0.14667047
0.14729142
0.14784434
0.14832376
0.14872404
0.14903977
0.14926601
0.14939284
0.14942154
0.14936855
0.1492164
0.14899127
0.14874465
0.14852451
0.14837332
0.14831457
0.14834124
0.14841727
0.14852125
0.14863945
0.14876425
0.14888742
0.14900449
0.1491142
0.14921631
0.14931034
0.1493972
0.1494771
0.14954969
0.14961579
0.14967618
0.14973106
0.14978056
0.14982393
0.14986238
0.14989641
0.14992421
0.14994743
0.14996785
0.1499861
0.14999839
0.15000882
0.15001787
0.15001832
0.15001856
0.15002049
0.15001466
0.15000678
0.15000178
0.14999148
0.14997866
0.14996775
0.14995361
0.14993724
0.14992187
0.14990443
0.14988545
0.14986681
0.14984683
0.14982587
0.149805
0.14978333
0.14976103
0.14973888
0.14971641
0.14969357
0.14967094
0.14964844
0.14962558
0.14960281
0.14958018
0.1495575
0.14953564
0.14951316
0.14949105
0.14947012
0.14944949
0.14942887
0.1494087
0.1493897
0.14937047
0.14935158
0.14933367
0.14931634
0.14929959
0.14928327
0.14926784
0.1492533
0.14923919
0.14922577
0.14921318
0.14920147
0.14919035
0.14918
0.1491704
0.14916186
0.14915387
0.14914752
0.14914147
0.14913841
0.14913525
0.11721001
0.11853839
0.11987337
0.12119659
0.12250952