/*--------------------------------*- C++ -*----------------------------------*\
| =========                 |                                                 |
| \\      /  F ield         | OpenFOAM: The Open Source CFD Toolbox           |
|  \\    /   O peration     | Version:  2406                                  |
|   \\  /    A nd           | Website:  www.openfoam.com                      |
|    \\/     M anipulation  |                                                 |
\*---------------------------------------------------------------------------*/
FoamFile
{
    version     2.0;
    format      ascii;
    arch        "LSB;label=32;scalar=64";
    class       volScalarField;
    location    "0.018";
    object      pMean;
}
// * * * * * * * * * * * * * * * * * * * * * * * * * * * * * * * * * * * * * //

dimensions      [1 -1 -2 0 0 0 0];

internalField   nonuniform List<scalar> 
92813
(
100963.23
100901.32
100874.66
100844.68
100814.94
100789.63
100768.68
100751.67
100738.32
100728.24
100720.97
100715.92
100712.54
100710.48
100709.56
100710.03
100712.2
100716.36
100722.5
100730.53
100740.08
100750.87
100762.71
100775.43
100788.91
100803.02
100817.66
100832.75
100848.2
100863.95
100879.91
100896.01
100912.15
100928.28
100944.36
100960.31
100976.11
100991.41
101006.04
101020.03
101034.19
101048.6
101061.43
101073.21
101084.19
101094.28
101103.46
101111.72
101119.12
101125.79
101131.93
101137.65
101143.01
101148.09
101152.98
101157.7
101162.28
101166.73
101171.05
101175.25
101179.33
101183.29
101187.15
101190.9
101194.56
101198.12
101201.58
101204.96
101208.25
101211.46
101214.58
101217.63
101220.6
101223.49
101226.31
101229.06
101231.74
101234.36
101236.9
101239.38
101241.8
101244.16
101246.45
101248.68
101250.86
101252.98
101255.04
101257.04
101258.99
101260.89
101262.73
101264.52
101266.26
101267.94
101269.58
101271.17
101272.71
101274.21
101275.65
101277.05
101278.41
101279.72
101280.98
101282.2
101283.38
101284.51
101285.61
101286.66
101287.66
101288.63
101289.56
101290.44
101291.28
101292.07
101292.83
101293.54
101294.2
101294.82
101295.4
101295.92
101296.39
101296.81
101297.18
101297.48
101297.75
101297.9
101298.07
101104.6
101063.49
101026.47
100986.03
100949.39
100918.7
100893.16
100871.98
100854.64
100840.63
100829.47
100820.59
100813.42
100807.48
100802.61
100798.93
100796.66
100796.03
100797.34
100800.62
100805.7
100812.4
100820.61
100830.05
100840.47
100851.67
100863.52
100875.91
100888.74
100901.92
100915.37
100929.03
100942.77
100956.55
100970.37
100984.12
100997.75
101011.15
101024.09
101035.89
101048.48
101061.58
101073.07
101083.69
101093.7
101103
101111.55
101119.33
101126.39
101132.84
101138.81
101144.35
101149.5
101154.36
101159
101163.48
101167.81
101172.02
101176.1
101180.07
101183.94
101187.7
101191.37
101194.94
101198.42
101201.81
101205.11
101208.34
101211.48
101214.55
101217.54
101220.46
101223.31
101226.09
101228.8
101231.45
101234.03
101236.55
101239
101241.4
101243.73
101246.01
101248.23
101250.39
101252.5
101254.55
101256.55
101258.49
101260.38
101262.23
101264.02
101265.76
101267.45
101269.09
101270.69
101272.23
101273.74
101275.19
101276.6
101277.97
101279.29
101280.57
101281.81
101283
101284.15
101285.26
101286.33
101287.36
101288.35
101289.29
101290.2
101291.06
101291.89
101292.67
101293.41
101294.1
101294.76
101295.36
101295.93
101296.44
101296.91
101297.32
101297.69
101297.98
101298.24
101298.4
101298.56
101177.39
101145.87
101105.09
101060.47
101020.96
100987.62
100959.34
100935.34
100915.13
100898.24
100884.21
100872.6
100862.94
100854.88
100848.26
100842.99
100839.1
100836.79
100836.29
100837.66
100840.88
100845.89
100852.49
100860.39
100869.37
100879.23
100889.84
100901.07
100912.81
100924.97
100937.46
100950.19
100963.03
100975.94
100988.92
101001.85
101014.66
101027.34
101039.44
101050.23
101062.28
101074.62
101085.28
101095.18
101104.5
101113.14
101121.08
101128.3
101134.86
101140.9
101146.48
101151.65
101156.44
101160.97
101165.31
101169.5
101173.56
101177.51
101181.35
101185.08
101188.72
101192.27
101195.74
101199.11
101202.41
101205.63
101208.77
101211.83
101214.83
101217.75
101220.61
101223.4
101226.12
101228.78
101231.38
101233.92
101236.39
101238.81
101241.17
101243.48
101245.73
101247.92
101250.06
101252.15
101254.19
101256.17
101258.1
101259.99
101261.82
101263.61
101265.34
101267.03
101268.67
101270.27
101271.82
101273.33
101274.79
101276.2
101277.58
101278.91
101280.2
101281.45
101282.65
101283.82
101284.94
101286.03
101287.07
101288.08
101289.04
101289.97
101290.85
101291.7
101292.51
101293.27
101294
101294.68
101295.32
101295.92
101296.47
101296.97
101297.43
101297.83
101298.2
101298.48
101298.75
101298.9
101299.06
101237.7
101210.01
101169.69
101124.07
101082.85
101047.33
101016.56
100989.89
100966.92
100947.28
100930.58
100916.45
100904.53
100894.54
100886.29
100879.68
100874.69
100871.38
100869.84
100870.1
100872.12
100875.83
100881.07
100887.63
100895.33
100904
100913.5
100923.7
100934.5
100945.78
100957.45
100969.42
100981.55
100993.79
101006.13
101018.45
101030.67
101042.87
101054.15
101064.33
101076.14
101087.78
101097.77
101107.08
101115.78
101123.81
101131.12
101137.74
101143.76
101149.29
101154.41
101159.13
101163.53
101167.72
101171.74
101175.63
101179.42
101183.1
101186.68
101190.18
101193.6
101196.93
101200.19
101203.37
101206.48
101209.52
101212.49
101215.39
101218.23
101221.01
101223.73
101226.38
101228.98
101231.52
101234
101236.43
101238.8
101241.12
101243.39
101245.6
101247.76
101249.87
101251.94
101253.95
101255.91
101257.82
101259.69
101261.51
101263.28
101265.01
101266.69
101268.33
101269.92
101271.47
101272.98
101274.44
101275.86
101277.24
101278.57
101279.87
101281.13
101282.34
101283.52
101284.65
101285.75
101286.81
101287.83
101288.81
101289.75
101290.66
101291.52
101292.35
101293.14
101293.89
101294.6
101295.27
101295.9
101296.48
101297.02
101297.52
101297.97
101298.36
101298.72
101299
101299.26
101299.41
101299.56
101293
101267.23
101228.04
101182.61
101140.76
101104.07
101071.77
101043.31
101018.38
100996.69
100977.93
100961.79
100947.99
100936.28
100926.5
100918.53
100912.32
100907.86
100905.18
100904.25
100905.03
100907.44
100911.34
100916.58
100923
100930.46
100938.8
100947.92
100957.69
100968
100978.77
100989.87
101001.17
101012.64
101024.23
101035.82
101047.38
101058.96
101069.24
101078.95
101090.43
101101.23
101110.53
101119.2
101127.27
101134.65
101141.33
101147.34
101152.8
101157.82
101162.45
101166.72
101170.74
101174.57
101178.28
101181.87
101185.37
101188.78
101192.12
101195.37
101198.56
101201.67
101204.72
101207.7
101210.62
101213.48
101216.28
101219.02
101221.7
101224.33
101226.91
101229.43
101231.9
101234.31
101236.68
101238.99
101241.26
101243.47
101245.64
101247.76
101249.84
101251.86
101253.84
101255.78
101257.67
101259.51
101261.31
101263.06
101264.78
101266.45
101268.07
101269.66
101271.2
101272.7
101274.16
101275.57
101276.95
101278.29
101279.59
101280.85
101282.07
101283.25
101284.4
101285.5
101286.57
101287.6
101288.6
101289.55
101290.47
101291.36
101292.2
101293.01
101293.79
101294.52
101295.21
101295.87
101296.48
101297.06
101297.59
101298.07
101298.51
101298.9
101299.25
101299.53
101299.78
101299.92
101300.08
101342.28
101316.96
101278.62
101234.18
101192.68
101155.73
101122.71
101093.21
101067.02
101043.9
101023.63
101005.95
100990.65
100977.53
100966.42
100957.22
100949.85
100944.28
100940.48
100938.41
100938.01
100939.21
100941.89
100945.92
100951.15
100957.46
100964.71
100972.78
100981.54
100990.91
101000.76
101010.98
101021.44
101032.11
101042.94
101053.77
101064.62
101075.48
101084.76
101094.07
101105.06
101114.95
101123.53
101131.54
101138.92
101145.63
101151.65
101157.05
101161.96
101166.46
101170.59
101174.43
101178.06
101181.55
101184.93
101188.22
101191.43
101194.57
101197.65
101200.66
101203.61
101206.5
101209.33
101212.11
101214.84
101217.52
101220.14
101222.71
101225.24
101227.72
101230.15
101232.53
101234.86
101237.16
101239.4
101241.6
101243.76
101245.87
101247.94
101249.97
101251.95
101253.89
101255.79
101257.64
101259.45
101261.23
101262.96
101264.65
101266.3
101267.91
101269.48
101271.01
101272.5
101273.95
101275.36
101276.73
101278.07
101279.36
101280.62
101281.85
101283.03
101284.18
101285.29
101286.37
101287.41
101288.41
101289.38
101290.31
101291.21
101292.07
101292.9
101293.69
101294.44
101295.16
101295.84
101296.48
101297.08
101297.64
101298.16
101298.63
101299.07
101299.45
101299.79
101300.06
101300.31
101300.45
101300.61
101386.36
101360.09
101322.19
101279.34
101238.92
101202.36
101169.24
101139.3
101112.38
101088.33
101067
101048.19
101031.73
101017.46
101005.25
100994.99
100986.59
100980.01
100975.19
100972.09
100970.63
100970.73
100972.3
100975.22
100979.37
100984.61
100990.82
100997.89
101005.7
101014.14
101023.11
101032.47
101042.1
101051.98
101062.03
101072.1
101082.24
101092.28
101100.62
101109.6
101119.95
101128.92
101136.77
101144.07
101150.74
101156.75
101162.1
101166.88
101171.22
101175.19
101178.84
101182.25
101185.49
101188.63
101191.69
101194.67
101197.59
101200.46
101203.27
101206.03
101208.74
101211.41
101214.03
101216.6
101219.14
101221.62
101224.07
101226.48
101228.84
101231.16
101233.45
101235.69
101237.89
101240.05
101242.18
101244.26
101246.31
101248.31
101250.28
101252.21
101254.1
101255.95
101257.77
101259.54
101261.28
101262.98
101264.64
101266.26
101267.85
101269.4
101270.91
101272.38
101273.82
101275.22
101276.58
101277.91
101279.2
101280.46
101281.68
101282.86
101284.01
101285.13
101286.21
101287.25
101288.26
101289.24
101290.18
101291.09
101291.96
101292.8
101293.61
101294.38
101295.11
101295.81
101296.48
101297.1
101297.69
101298.24
101298.75
101299.21
101299.63
101300.01
101300.34
101300.61
101300.85
101300.99
101301.15
101425.68
101397.91
101360.38
101319.37
101280.42
101244.68
101211.92
101181.97
101154.77
101130.23
101108.23
101088.64
101071.33
101056.18
101043.08
101031.92
101022.64
101015.16
101009.44
101005.4
101002.98
101002.09
101002.66
101004.56
101007.69
101011.93
101017.17
101023.29
101030.17
101037.72
101045.82
101054.33
101063.14
101072.23
101081.49
101090.81
101100.25
101109.33
101116.78
101125.49
101135.08
101143.11
101150.21
101156.77
101162.71
101167.99
101172.66
101176.82
101180.6
101184.03
101187.19
101190.18
101193.04
101195.83
101198.56
101201.23
101203.86
101206.44
101208.99
101211.49
101213.97
101216.4
101218.8
101221.17
101223.51
101225.8
101228.07
101230.3
101232.5
101234.67
101236.8
101238.9
101240.97
101243
101245
101246.97
101248.9
101250.8
101252.67
101254.5
101256.29
101258.05
101259.78
101261.48
101263.14
101264.76
101266.35
101267.91
101269.43
101270.91
101272.37
101273.78
101275.17
101276.52
101277.83
101279.11
101280.36
101281.57
101282.75
101283.9
101285.01
101286.09
101287.14
101288.15
101289.13
101290.08
101291
101291.88
101292.73
101293.55
101294.33
101295.08
101295.8
101296.48
101297.12
101297.74
101298.31
101298.84
101299.34
101299.79
101300.21
101300.57
101300.9
101301.16
101301.41
101301.54
101301.69
101460.66
101431.44
101394.39
101355.25
101317.92
101283.25
101251.16
101221.56
101194.44
101169.74
101147.41
101127.35
101109.47
101093.68
101079.89
101068.02
101057.99
101049.75
101043.22
101038.36
101035.07
101033.3
101032.95
101033.92
101036.12
101039.43
101043.75
101048.96
101054.96
101061.64
101068.9
101076.56
101084.56
101092.86
101101.32
101109.89
101118.63
101126.54
101133.27
101141.76
101150.41
101157.49
101163.83
101169.62
101174.79
101179.33
101183.32
101186.87
101190.06
101192.96
101195.65
101198.22
101200.7
101203.13
101205.53
101207.89
101210.22
101212.52
101214.8
101217.05
101219.28
101221.48
101223.66
101225.82
101227.95
101230.06
101232.14
101234.2
101236.23
101238.24
101240.22
101242.18
101244.1
101246.01
101247.88
101249.73
101251.54
101253.33
101255.09
101256.82
101258.53
101260.2
101261.84
101263.45
101265.03
101266.58
101268.09
101269.58
101271.04
101272.46
101273.85
101275.21
101276.54
101277.84
101279.1
101280.34
101281.54
101282.71
101283.85
101284.95
101286.03
101287.07
101288.09
101289.07
101290.02
101290.94
101291.83
101292.68
101293.51
101294.3
101295.06
101295.79
101296.49
101297.16
101297.79
101298.38
101298.94
101299.46
101299.95
101300.39
101300.8
101301.15
101301.48
101301.73
101301.97
101302.1
101302.25
101491.37
101461.3
101425.1
101387.78
101352.05
101318.59
101287.36
101258.36
101231.58
101207.01
101184.62
101164.35
101146.15
101129.94
101115.66
101103.24
101092.61
101083.73
101076.53
101070.94
101066.9
101064.33
101063.16
101063.29
101064.63
101067.08
101070.54
101074.89
101080.04
101085.89
101092.3
101099.14
101106.33
101113.83
101121.49
101129.3
101137.27
101143.94
101150.16
101158.32
101165.89
101172.05
101177.59
101182.58
101186.96
101190.76
101194.06
101196.99
101199.61
101201.98
101204.21
101206.36
101208.47
101210.54
101212.6
101214.65
101216.68
101218.7
101220.7
101222.69
101224.67
101226.64
101228.59
101230.54
101232.47
101234.38
101236.28
101238.16
101240.02
101241.87
101243.7
101245.51
101247.3
101249.06
101250.81
101252.53
101254.24
101255.91
101257.57
101259.2
101260.8
101262.38
101263.93
101265.46
101266.96
101268.43
101269.87
101271.29
101272.68
101274.03
101275.37
101276.67
101277.94
101279.18
101280.4
101281.58
101282.74
101283.87
101284.96
101286.03
101287.07
101288.07
101289.05
101290
101290.92
101291.81
101292.67
101293.5
101294.3
101295.07
101295.81
101296.52
101297.2
101297.85
101298.46
101299.04
101299.58
101300.09
101300.57
101301
101301.4
101301.74
101302.06
101302.31
101302.54
101302.67
101302.82
101518.01
101487.81
101453
101417.46
101383.28
101351.08
101320.88
101292.65
101266.42
101242.2
101219.98
101199.73
101181.42
101164.98
101150.39
101137.58
101126.5
101117.11
101109.34
101103.14
101098.44
101095.17
101093.26
101092.63
101093.19
101094.84
101097.49
101101.03
101105.37
101110.41
101116.01
101122.03
101128.42
101135.12
101141.97
101149.01
101156.1
101161.6
101167.47
101175.03
101181.49
101186.74
101191.46
101195.63
101199.2
101202.25
101204.88
101207.18
101209.22
101211.09
101212.86
101214.61
101216.33
101218.05
101219.78
101221.5
101223.23
101224.96
101226.69
101228.41
101230.15
101231.88
101233.61
101235.34
101237.06
101238.77
101240.48
101242.19
101243.88
101245.56
101247.24
101248.9
101250.54
101252.17
101253.79
101255.39
101256.97
101258.54
101260.08
101261.61
101263.11
101264.6
101266.06
101267.5
101268.92
101270.31
101271.68
101273.03
101274.35
101275.64
101276.91
101278.15
101279.37
101280.56
101281.72
101282.85
101283.96
101285.04
101286.1
101287.12
101288.12
101289.09
101290.04
101290.95
101291.84
101292.7
101293.53
101294.34
101295.11
101295.86
101296.58
101297.26
101297.92
101298.55
101299.15
101299.71
101300.24
101300.74
101301.2
101301.62
101302
101302.34
101302.65
101302.9
101303.12
101303.25
101303.4
101541.06
101511.38
101478.21
101444.48
101411.91
101381.07
101352
101324.7
101299.2
101275.51
101253.65
101233.6
101215.35
101198.86
101184.12
101171.06
101159.67
101149.88
101141.66
101134.95
101129.69
101125.81
101123.25
101121.94
101121.78
101122.7
101124.59
101127.37
101130.93
101135.19
101139.98
101145.2
101150.81
101156.69
101162.73
101169.01
101175.06
101179.52
101185.1
101191.85
101197.18
101201.54
101205.4
101208.71
101211.48
101213.79
101215.74
101217.41
101218.9
101220.27
101221.6
101222.95
101224.3
101225.66
101227.04
101228.45
101229.87
101231.31
101232.76
101234.22
101235.71
101237.2
101238.7
101240.21
101241.72
101243.24
101244.76
101246.28
101247.8
101249.32
101250.83
101252.34
101253.84
101255.34
101256.82
101258.3
101259.76
101261.21
101262.64
101264.07
101265.47
101266.86
101268.23
101269.58
101270.92
101272.23
101273.52
101274.8
101276.05
101277.27
101278.48
101279.66
101280.82
101281.95
101283.06
101284.15
101285.21
101286.25
101287.26
101288.24
101289.2
101290.13
101291.04
101291.92
101292.78
101293.61
101294.41
101295.19
101295.94
101296.66
101297.35
101298.02
101298.66
101299.27
101299.85
101300.39
101300.91
101301.39
101301.84
101302.25
101302.63
101302.96
101303.26
101303.49
101303.72
101303.84
101303.99
101561.11
101532.4
101501.01
101469.16
101438.25
101408.86
101381.03
101354.77
101330.12
101307.11
101285.76
101266.07
101248.04
101231.65
101216.89
101203.73
101192.14
101182.07
101173.51
101166.38
101160.65
101156.25
101153.12
101151.19
101150.39
101150.62
101151.81
101153.87
101156.69
101160.19
101164.2
101168.63
101173.45
101178.5
101183.76
101189.26
101194.06
101197.66
101203.01
101208.73
101212.93
101216.39
101219.37
101221.82
101223.78
101225.35
101226.62
101227.69
101228.64
101229.53
101230.42
101231.38
101232.35
101233.35
101234.4
101235.48
101236.6
101237.75
101238.91
101240.11
101241.35
101242.59
101243.86
101245.15
101246.46
101247.77
101249.1
101250.44
101251.78
101253.13
101254.49
101255.84
101257.2
101258.56
101259.91
101261.25
101262.59
101263.93
101265.25
101266.57
101267.87
101269.16
101270.44
101271.7
101272.95
101274.18
101275.4
101276.6
101277.78
101278.94
101280.08
101281.2
101282.3
101283.38
101284.43
101285.47
101286.48
101287.47
101288.43
101289.38
101290.3
101291.19
101292.06
101292.91
101293.73
101294.53
101295.31
101296.05
101296.78
101297.47
101298.15
101298.79
101299.41
101300
101300.56
101301.09
101301.59
101302.06
101302.49
101302.89
101303.26
101303.58
101303.87
101304.1
101304.32
101304.45
101304.59
101578.76
101551.37
101521.81
101491.85
101462.65
101434.76
101408.24
101383.11
101359.42
101337.2
101316.48
101297.27
101279.59
101263.43
101248.78
101235.62
101223.94
101213.71
101204.89
101197.45
101191.33
101186.48
101182.86
101180.38
101178.99
101178.6
101179.13
101180.5
101182.62
101185.37
101188.62
101192.28
101196.3
101200.52
101205
101209.65
101213.04
101216.1
101221.11
101225.59
101228.7
101231.25
101233.32
101234.9
101236.07
101236.91
101237.52
101238
101238.43
101238.87
101239.32
101239.89
101240.49
101241.13
101241.83
101242.6
101243.41
101244.27
101245.15
101246.07
101247.06
101248.06
101249.09
101250.17
101251.26
101252.37
101253.51
101254.66
101255.83
101257.01
101258.2
101259.4
101260.61
101261.83
101263.04
101264.26
101265.48
101266.69
101267.9
101269.11
101270.31
101271.5
101272.69
101273.86
101275.02
101276.17
101277.31
101278.43
101279.54
101280.63
101281.71
101282.76
101283.8
101284.83
101285.83
101286.81
101287.77
101288.71
101289.64
101290.54
101291.41
101292.27
101293.11
101293.92
101294.71
101295.47
101296.22
101296.94
101297.63
101298.31
101298.95
101299.57
101300.17
101300.74
101301.28
101301.8
101302.28
101302.74
101303.16
101303.55
101303.9
101304.21
101304.5
101304.73
101304.94
101305.06
101305.2
101594.64
101568.75
101541.03
101512.93
101485.43
101459.07
101433.91
101409.98
101387.32
101365.97
101345.98
101327.35
101310.12
101294.29
101279.85
101266.8
101255.13
101244.82
101235.84
101228.16
101221.73
101216.52
101212.46
101209.5
101207.57
101206.61
101206.53
101207.25
101208.68
101210.71
101213.2
101216.1
101219.31
101222.7
101226.37
101230.03
101232.14
101234.87
101239.19
101242.37
101244.45
101246.06
101247.21
101247.94
101248.33
101248.45
101248.42
101248.33
101248.27
101248.26
101248.28
101248.48
101248.71
101248.98
101249.35
101249.79
101250.31
101250.87
101251.45
101252.11
101252.85
101253.6
101254.4
101255.25
101256.13
101257.04
101257.98
101258.95
101259.93
101260.94
101261.98
101263.02
101264.07
101265.15
101266.23
101267.31
101268.41
101269.5
101270.6
101271.7
101272.79
101273.88
101274.97
101276.05
101277.13
101278.2
101279.25
101280.3
101281.33
101282.36
101283.36
101284.36
101285.34
101286.3
101287.25
101288.18
101289.09
101289.98
101290.86
101291.72
101292.55
101293.37
101294.17
101294.94
101295.7
101296.43
101297.15
101297.84
101298.51
101299.15
101299.77
101300.37
101300.95
101301.5
101302.02
101302.52
101302.99
101303.43
101303.84
101304.21
101304.56
101304.86
101305.14
101305.36
101305.56
101305.68
101305.82
101609.17
101584.89
101558.99
101532.71
101506.91
101482.08
101458.3
101435.6
101414.03
101393.62
101374.42
101356.46
101339.76
101324.33
101310.19
101297.34
101285.76
101275.45
101266.38
101258.54
101251.88
101246.35
101241.93
101238.54
101236.13
101234.63
101233.97
101234.07
101234.84
101236.17
101237.92
101240.05
101242.43
101245.01
101247.86
101250.3
101251.33
101253.83
101257.14
101259.03
101260.12
101260.77
101261.02
101260.9
101260.52
101259.94
101259.29
101258.65
101258.15
101257.72
101257.33
101257.15
101257
101256.9
101256.94
101257.07
101257.27
101257.54
101257.83
101258.21
101258.71
101259.22
101259.77
101260.41
101261.07
101261.77
101262.51
101263.29
101264.1
101264.93
101265.8
101266.69
101267.59
101268.52
101269.46
101270.42
101271.38
101272.36
101273.34
101274.33
101275.32
101276.31
101277.3
101278.29
101279.27
101280.26
101281.23
101282.2
101283.16
101284.11
101285.05
101285.98
101286.9
101287.8
101288.69
101289.57
101290.43
101291.28
101292.1
101292.92
101293.71
101294.49
101295.25
101295.99
101296.71
101297.41
101298.09
101298.75
101299.39
101300.01
101300.61
101301.19
101301.74
101302.27
101302.77
101303.25
101303.71
101304.13
101304.53
101304.89
101305.23
101305.52
101305.79
101306
101306.2
101306.32
101306.45
101622.67
101600.11
101576
101551.5
101527.36
101504.06
101481.68
101460.23
101439.76
101420.33
101401.97
101384.73
101368.62
101353.67
101339.9
101327.3
101315.88
101305.64
101296.56
101288.62
101281.78
101276
101271.26
101267.49
101264.64
101262.64
101261.43
101260.93
101261.06
101261.69
101262.71
101264.07
101265.61
101267.39
101269.4
101270.29
101270.63
101272.89
101274.88
101275.54
101275.64
101275.34
101274.67
101273.75
101272.64
101271.37
101270.12
101268.97
101268.07
101267.27
101266.48
101265.86
101265.34
101264.91
101264.6
101264.4
101264.3
101264.27
101264.27
101264.39
101264.64
101264.89
101265.21
101265.63
101266.08
101266.56
101267.1
101267.7
101268.32
101268.98
101269.69
101270.41
101271.16
101271.95
101272.75
101273.57
101274.41
101275.26
101276.12
101277
101277.88
101278.77
101279.66
101280.56
101281.45
101282.35
101283.24
101284.13
101285.02
101285.9
101286.77
101287.63
101288.49
101289.33
101290.17
101290.99
101291.8
101292.59
101293.37
101294.14
101294.89
101295.63
101296.35
101297.05
101297.74
101298.4
101299.05
101299.68
101300.3
101300.89
101301.46
101302.02
101302.55
101303.06
101303.54
101304
101304.44
101304.85
101305.23
101305.58
101305.91
101306.19
101306.45
101306.66
101306.85
101306.97
101307.1
101635.49
101614.67
101592.35
101569.58
101547.08
101525.29
101504.28
101484.08
101464.73
101446.3
101428.81
101412.31
101396.84
101382.41
101369.05
101356.77
101345.57
101335.45
101326.41
101318.41
101311.44
101305.47
101300.45
101296.33
101293.08
101290.61
101288.87
101287.79
101287.28
101287.22
101287.52
101288.09
101288.79
101289.73
101290.71
101290.17
101290.15
101291.75
101292.33
101291.85
101290.96
101289.7
101288.16
101286.46
101284.6
101282.63
101280.93
101279.47
101278.11
101276.81
101275.63
101274.61
101273.73
101272.95
101272.31
101271.79
101271.37
101271.05
101270.79
101270.66
101270.62
101270.62
101270.71
101270.91
101271.14
101271.41
101271.75
101272.17
101272.6
101273.09
101273.63
101274.19
101274.79
101275.43
101276.09
101276.77
101277.48
101278.21
101278.95
101279.71
101280.49
101281.27
101282.07
101282.87
101283.67
101284.48
101285.29
101286.1
101286.91
101287.72
101288.52
101289.31
101290.11
101290.89
101291.66
101292.43
101293.19
101293.93
101294.66
101295.38
101296.09
101296.79
101297.47
101298.13
101298.78
101299.42
101300.03
101300.63
101301.22
101301.78
101302.33
101302.86
101303.37
101303.86
101304.32
101304.77
101305.18
101305.58
101305.95
101306.29
101306.6
101306.87
101307.13
101307.33
101307.52
101307.63
101307.76
101648.06
101628.89
101608.31
101587.24
101566.34
101546.02
101526.35
101507.38
101489.14
101471.7
101455.09
101439.36
101424.54
101410.66
101397.75
101385.82
101374.88
101364.92
101355.96
101347.96
101340.9
101334.76
101329.49
101325.07
101321.43
101318.51
101316.26
101314.6
101313.45
101312.7
101312.27
101312.05
101311.9
101311.96
101311.65
101309.96
101309.72
101310.23
101309.42
101307.87
101306
101303.83
101301.42
101298.93
101296.32
101293.96
101291.94
101289.95
101288.08
101286.36
101284.8
101283.4
101282.16
101281.04
101280.07
101279.23
101278.51
101277.89
101277.37
101276.96
101276.66
101276.42
101276.29
101276.25
101276.26
101276.31
101276.47
101276.69
101276.93
101277.25
101277.63
101278.02
101278.46
101278.96
101279.47
101280.02
101280.6
101281.2
101281.83
101282.47
101283.14
101283.82
101284.51
101285.21
101285.92
101286.64
101287.37
101288.1
101288.83
101289.56
101290.3
101291.02
101291.75
101292.47
101293.19
101293.9
101294.6
101295.29
101295.98
101296.65
101297.32
101297.97
101298.61
101299.23
101299.85
101300.45
101301.03
101301.6
101302.16
101302.69
101303.22
101303.72
101304.21
101304.67
101305.12
101305.54
101305.94
101306.32
101306.68
101307
101307.3
101307.57
101307.81
101308.01
101308.19
101308.3
101308.43
101660.68
101642.99
101624.11
101604.71
101585.38
101566.49
101548.13
101530.34
101513.18
101496.7
101480.96
101465.99
101451.83
101438.52
101426.08
101414.52
101403.86
101394.1
101385.24
101377.26
101370.15
101363.86
101358.38
101353.66
101349.65
101346.3
101343.53
101341.29
101339.5
101338.06
101336.87
101335.84
101334.85
101333.99
101332.05
101329.67
101329.15
101328.24
101326.1
101323.54
101320.74
101317.63
101314.35
101311.1
101308.14
101305.46
101302.84
101300.34
101298.04
101295.93
101293.99
101292.22
101290.62
101289.18
101287.88
101286.72
101285.69
101284.79
101284
101283.32
101282.76
101282.28
101281.91
101281.64
101281.43
101281.29
101281.24
101281.26
101281.32
101281.46
101281.67
101281.9
101282.19
101282.54
101282.91
101283.31
101283.76
101284.24
101284.74
101285.27
101285.83
101286.4
101286.99
101287.6
101288.22
101288.85
101289.49
101290.13
101290.79
101291.44
101292.1
101292.76
101293.42
101294.08
101294.74
101295.39
101296.04
101296.68
101297.32
101297.94
101298.56
101299.17
101299.77
101300.36
101300.93
101301.5
101302.05
101302.59
101303.11
101303.62
101304.12
101304.6
101305.06
101305.5
101305.93
101306.33
101306.72
101307.08
101307.42
101307.73
101308.02
101308.28
101308.51
101308.7
101308.88
101308.98
101309.11
101673.33
101657.71
101640.25
101622.38
101604.52
101586.98
101569.84
101553.16
101537.02
101521.46
101506.55
101492.33
101478.82
101466.08
101454.11
101442.93
101432.57
101423.02
101414.28
101406.35
101399.19
101392.78
101387.09
101382.09
101377.71
101373.92
101370.64
101367.8
101365.34
101363.17
101361.21
101359.36
101357.49
101355.51
101352.11
101349.37
101348.05
101345.64
101342.34
101338.8
101335.02
101330.92
101327.02
101323.43
101320.04
101316.75
101313.62
101310.7
101308
101305.5
101303.19
101301.06
101299.12
101297.34
101295.72
101294.25
101292.93
101291.74
101290.67
101289.73
101288.91
101288.19
101287.59
101287.08
101286.65
101286.31
101286.06
101285.89
101285.77
101285.74
101285.77
101285.83
101285.96
101286.16
101286.39
101286.65
101286.98
101287.32
101287.7
101288.12
101288.56
101289.02
101289.51
101290.02
101290.54
101291.08
101291.64
101292.2
101292.77
101293.36
101293.94
101294.53
101295.13
101295.72
101296.32
101296.91
101297.5
101298.09
101298.68
101299.26
101299.83
101300.39
101300.95
101301.5
101302.04
101302.57
101303.08
101303.59
101304.08
101304.57
101305.03
101305.49
101305.92
101306.35
101306.75
101307.14
101307.51
101307.85
101308.18
101308.48
101308.75
101309
101309.23
101309.41
101309.58
101309.68
101309.8
101686.07
101674.45
101658.28
101641.19
101624.31
101607.83
101591.73
101576.04
101560.82
101546.12
101531.99
101518.47
101505.6
101493.4
101481.9
101471.11
101461.04
101451.71
101443.1
101435.21
101428.01
101421.48
101415.59
101410.29
101405.55
101401.3
101397.48
101394.03
101390.88
101387.94
101385.15
101382.47
101379.72
101376.39
101371.82
101368.76
101366.26
101362.44
101358
101353.46
101348.69
101344.04
101339.81
101335.68
101331.68
101327.89
101324.34
101321.02
101317.93
101315.05
101312.38
101309.91
101307.62
101305.52
101303.58
101301.81
101300.19
101298.72
101297.38
101296.18
101295.11
101294.15
101293.31
101292.57
101291.93
101291.39
101290.93
101290.56
101290.27
101290.05
101289.91
101289.82
101289.79
101289.83
101289.91
101290.04
101290.23
101290.45
101290.71
101291
101291.33
101291.69
101292.07
101292.48
101292.91
101293.36
101293.82
101294.3
101294.79
101295.3
101295.81
101296.33
101296.86
101297.39
101297.92
101298.46
101298.99
101299.53
101300.06
101300.59
101301.12
101301.64
101302.15
101302.66
101303.16
101303.65
101304.14
101304.61
101305.07
101305.53
101305.97
101306.39
101306.81
101307.21
101307.59
101307.96
101308.31
101308.64
101308.95
101309.23
101309.5
101309.74
101309.95
101310.13
101310.29
101310.39
101310.51
101699.91
101691.12
101677.55
101660.99
101644.73
101629.07
101613.86
101599.04
101584.65
101570.73
101557.34
101544.49
101532.22
101520.54
101509.49
101499.07
101489.29
101480.17
101471.68
101463.83
101456.59
101449.92
101443.81
101438.21
101433.07
101428.34
101423.96
101419.87
101415.99
101412.24
101408.58
101404.99
101401.35
101396.49
101391.2
101387.6
101383.61
101378.47
101372.9
101367.46
101362.23
101357.22
101352.33
101347.62
101343.16
101338.95
101335
101331.3
101327.83
101324.59
101321.56
101318.75
101316.13
101313.71
101311.46
101309.39
101307.49
101305.74
101304.13
101302.67
101301.35
101300.15
101299.07
101298.11
101297.26
101296.51
101295.85
101295.29
101294.81
101294.42
101294.1
101293.85
101293.67
101293.55
101293.49
101293.48
101293.53
101293.62
101293.75
101293.93
101294.14
101294.39
101294.67
101294.98
101295.31
101295.66
101296.04
101296.44
101296.85
101297.27
101297.71
101298.16
101298.62
101299.09
101299.56
101300.03
101300.51
101300.99
101301.47
101301.95
101302.43
101302.9
101303.38
101303.84
101304.31
101304.76
101305.21
101305.65
101306.08
101306.5
101306.92
101307.32
101307.71
101308.08
101308.45
101308.79
101309.12
101309.44
101309.73
101310
101310.26
101310.48
101310.69
101310.86
101311.02
101311.11
101311.23
101715.03
101708.39
101695.86
101680.48
101665.22
101650.47
101636.12
101622.12
101608.52
101595.35
101582.64
101570.42
101558.71
101547.54
101536.91
101526.84
101517.33
101508.39
101500.01
101492.17
101484.86
101478.04
101471.68
101465.74
101460.18
101454.93
101449.95
101445.16
101440.5