/*--------------------------------*- C++ -*----------------------------------*\
| =========                 |                                                 |
| \\      /  F ield         | OpenFOAM: The Open Source CFD Toolbox           |
|  \\    /   O peration     | Version:  2406                                  |
|   \\  /    A nd           | Website:  www.openfoam.com                      |
|    \\/     M anipulation  |                                                 |
\*---------------------------------------------------------------------------*/
FoamFile
{
    version     2.0;
    format      ascii;
    arch        "LSB;label=32;scalar=64";
    class       volScalarField;
    location    "0.018";
    object      T;
}
// * * * * * * * * * * * * * * * * * * * * * * * * * * * * * * * * * * * * * //

dimensions      [0 0 0 1 0 0 0];

internalField   nonuniform List<scalar> 
92813
(
292.80877
292.80892
292.80835
292.80912
292.811
292.81353
292.81649
292.81972
292.82304
292.82633
292.8295
292.83248
292.83522
292.83765
292.83973
292.84142
292.84267
292.84345
292.84376
292.84354
292.8428
292.84157
292.83987
292.83768
292.83503
292.83192
292.82837
292.8244
292.82002
292.81527
292.81016
292.80474
292.79903
292.79309
292.78695
292.7807
292.7744
292.76815
292.76211
292.75645
292.75126
292.74673
292.74339
292.74164
292.742
292.74516
292.75191
292.76298
292.77869
292.7982
292.81905
292.83806
292.85322
292.86436
292.87243
292.87858
292.88363
292.88808
292.89217
292.89603
292.8997
292.90322
292.90658
292.90981
292.91291
292.91591
292.9188
292.92161
292.92433
292.92697
292.92955
292.93207
292.93453
292.93693
292.93928
292.94158
292.94382
292.94601
292.94815
292.95022
292.95224
292.95419
292.95608
292.95792
292.95969
292.96141
292.96309
292.96471
292.96628
292.96781
292.9693
292.97075
292.97217
292.97355
292.9749
292.97623
292.9775
292.97875
292.97995
292.98112
292.98227
292.98339
292.98448
292.98556
292.98661
292.98762
292.98859
292.98953
292.99042
292.99126
292.99207
292.99284
292.99355
292.99422
292.99486
292.99545
292.996
292.99653
292.99702
292.99749
292.99793
292.99832
292.99868
292.99897
292.9992
292.99936
292.99947
292.85083
292.847
292.84437
292.84334
292.84324
292.8437
292.84459
292.84577
292.84714
292.84859
292.85002
292.85136
292.85257
292.8536
292.85439
292.85489
292.85509
292.85494
292.8544
292.85344
292.85204
292.8502
292.84793
292.84522
292.84208
292.83852
292.83456
292.83022
292.8255
292.82045
292.81507
292.80941
292.8035
292.79738
292.79111
292.78476
292.7784
292.77214
292.76614
292.76063
292.75562
292.7514
292.74852
292.74737
292.74853
292.75273
292.76075
292.77321
292.79011
292.81012
292.83037
292.84791
292.86138
292.87111
292.87821
292.88372
292.88835
292.8925
292.89636
292.90001
292.90349
292.90683
292.91003
292.91311
292.91606
292.91892
292.92168
292.92436
292.92697
292.9295
292.93197
292.93439
292.93675
292.93905
292.94132
292.94353
292.94569
292.94781
292.94987
292.95187
292.95382
292.95571
292.95753
292.95931
292.96103
292.9627
292.96432
292.9659
292.96742
292.96891
292.97036
292.97176
292.97315
292.9745
292.97581
292.9771
292.97835
292.97956
292.98074
292.98188
292.983
292.9841
292.98517
292.98622
292.98725
292.98824
292.98919
292.99011
292.99098
292.99181
292.9926
292.99335
292.99406
292.99472
292.99534
292.99592
292.99646
292.99698
292.99746
292.99792
292.99835
292.99874
292.99909
292.99938
292.99961
292.99976
292.99987
292.89539
292.88952
292.88498
292.88192
292.87966
292.87798
292.87676
292.87592
292.87534
292.87492
292.87459
292.87426
292.87389
292.87341
292.87277
292.87195
292.87091
292.86962
292.86804
292.86614
292.86387
292.86124
292.85823
292.85485
292.8511
292.84698
292.8425
292.83767
292.83252
292.82706
292.82132
292.81532
292.80911
292.80274
292.79625
292.78971
292.78322
292.77688
292.77088
292.76544
292.76057
292.75665
292.7542
292.75368
292.7557
292.761
292.77033
292.78416
292.80209
292.82222
292.84148
292.85739
292.86922
292.87771
292.88396
292.88892
292.89317
292.89703
292.90065
292.90409
292.90738
292.91054
292.91356
292.91647
292.91927
292.92199
292.92461
292.92716
292.92965
292.93206
292.93442
292.93673
292.939
292.94121
292.94338
292.9455
292.94758
292.94962
292.9516
292.95353
292.95541
292.95723
292.95899
292.96072
292.96238
292.96399
292.96557
292.96709
292.96857
292.97002
292.97142
292.97279
292.97414
292.97545
292.97673
292.97798
292.9792
292.98038
292.98153
292.98264
292.98374
292.98481
292.98586
292.98689
292.9879
292.98887
292.9898
292.9907
292.99155
292.99237
292.99314
292.99388
292.99457
292.99522
292.99582
292.99639
292.99693
292.99743
292.99791
292.99836
292.99879
292.99917
292.99951
292.99979
293.00002
293.00017
293.00028
292.93853
292.93098
292.92465
292.91969
292.91552
292.91195
292.90889
292.90623
292.90389
292.90178
292.89981
292.89792
292.89605
292.89414
292.89215
292.89004
292.88778
292.88534
292.88269
292.87979
292.87661
292.87315
292.86938
292.86529
292.86089
292.85617
292.85114
292.84581
292.84019
292.8343
292.82817
292.82182
292.8153
292.80864
292.80191
292.79519
292.78856
292.78213
292.77616
292.77078
292.76604
292.76247
292.76052
292.76069
292.76364
292.77013
292.78082
292.79595
292.81463
292.83445
292.85238
292.86655
292.87684
292.8842
292.8897
292.89417
292.89807
292.90165
292.90503
292.90825
292.91135
292.91432
292.91717
292.91991
292.92256
292.92512
292.92761
292.93003
292.93239
292.93468
292.93693
292.93914
292.9413
292.94341
292.94549
292.94753
292.94951
292.95147
292.95338
292.95523
292.95704
292.9588
292.96049
292.96216
292.96376
292.96532
292.96685
292.96832
292.96975
292.97115
292.97252
292.97384
292.97515
292.97642
292.97766
292.97889
292.98007
292.98122
292.98234
292.98343
292.9845
292.98554
292.98657
292.98757
292.98856
292.98951
292.99042
292.9913
292.99214
292.99294
292.9937
292.99442
292.99509
292.99573
292.99632
292.99688
292.9974
292.9979
292.99837
292.99881
292.99923
292.99961
292.99995
293.00022
293.00044
293.00059
293.0007
292.97973
292.97072
292.96283
292.95621
292.95035
292.94509
292.94035
292.93604
292.93208
292.92839
292.9249
292.92155
292.91827
292.91501
292.91174
292.90841
292.90499
292.90146
292.89778
292.89391
292.88983
292.88552
292.88098
292.87618
292.87112
292.86579
292.86019
292.85434
292.84824
292.84191
292.83538
292.82867
292.82183
292.81489
292.80794
292.80103
292.79427
292.78779
292.78185
292.77656
292.77205
292.76887
292.7675
292.76847
292.77247
292.78024
292.79233
292.80861
292.82767
292.84672
292.86304
292.87543
292.88427
292.89062
292.89546
292.89947
292.90304
292.90635
292.90949
292.9125
292.91539
292.91818
292.92085
292.92342
292.92591
292.92832
292.93067
292.93295
292.93519
292.93736
292.93949
292.94159
292.94365
292.94566
292.94765
292.94959
292.95149
292.95337
292.95519
292.95697
292.95871
292.9604
292.96203
292.96363
292.96518
292.96668
292.96815
292.96957
292.97096
292.97231
292.97363
292.97491
292.97618
292.97742
292.97862
292.97981
292.98096
292.98208
292.98317
292.98423
292.98527
292.98629
292.98729
292.98827
292.98924
292.99017
292.99106
292.99191
292.99274
292.99352
292.99426
292.99497
292.99563
292.99625
292.99683
292.99737
292.99789
292.99837
292.99884
292.99927
292.99968
293.00005
293.00038
293.00065
293.00087
293.00102
293.00113
293.01909
293.00887
292.99968
292.99161
292.98426
292.97749
292.97123
292.96541
292.95997
292.95483
292.94992
292.9452
292.9406
292.93607
292.93158
292.92709
292.92257
292.91798
292.9133
292.90849
292.90352
292.89838
292.89306
292.88753
292.8818
292.87584
292.86967
292.86328
292.85669
292.84991
292.84297
292.8359
292.82873
292.82152
292.81433
292.80725
292.80038
292.79386
292.78799
292.78283
292.7786
292.77591
292.77521
292.77708
292.78225
292.79138
292.80484
292.82205
292.84104
292.85889
292.87339
292.88403
292.89154
292.89699
292.90123
292.90483
292.90807
292.91112
292.91403
292.91682
292.91951
292.9221
292.9246
292.92699
292.92931
292.93158
292.93379
292.93593
292.93804
292.94009
292.9421
292.9441
292.94605
292.94795
292.94984
292.9517
292.9535
292.9553
292.95704
292.95874
292.96041
292.96203
292.96359
292.96513
292.96662
292.96806
292.96948
292.97085
292.97218
292.9735
292.97477
292.97601
292.97724
292.97843
292.9796
292.98075
292.98187
292.98295
292.98402
292.98504
292.98606
292.98705
292.98803
292.98899
292.98993
292.99083
292.9917
292.99254
292.99335
292.99411
292.99484
292.99553
292.99617
292.99678
292.99735
292.99788
292.99838
292.99886
292.99931
292.99974
293.00014
293.0005
293.00083
293.00109
293.00131
293.00146
293.00156
293.05655
293.04538
293.03512
293.02581
293.01716
293.00905
293.00143
292.99426
292.98747
292.981
292.97479
292.9688
292.96296
292.95725
292.95161
292.94602
292.94044
292.93484
292.9292
292.92347
292.91763
292.91167
292.90557
292.89932
292.89291
292.88632
292.87956
292.87264
292.86555
292.85831
292.85096
292.84351
292.83602
292.82853
292.82111
292.81387
292.80691
292.80039
292.79461
292.78963
292.78576
292.78362
292.7837
292.7866
292.79304
292.8036
292.81832
292.83611
292.85452
292.87078
292.88337
292.89235
292.89867
292.90332
292.90703
292.91024
292.91318
292.91596
292.91864
292.92121
292.92369
292.92609
292.9284
292.93063
292.93278
292.93489
292.93696
292.93896
292.94094
292.94287
292.94476
292.94664
292.94849
292.95029
292.95208
292.95384
292.95556
292.95727
292.95893
292.96055
292.96214
292.96369
292.96518
292.96666
292.96808
292.96947
292.97083
292.97216
292.97344
292.9747
292.97593
292.97713
292.97831
292.97947
292.98059
292.98171
292.98279
292.98384
292.98488
292.98588
292.98686
292.98783
292.98878
292.98971
292.99063
292.99151
292.99236
292.99318
292.99397
292.99471
292.99542
292.99609
292.99673
292.99732
292.99787
292.9984
292.99889
292.99935
292.9998
293.00021
293.00061
293.00097
293.00129
293.00154
293.00176
293.0019
293.00201
293.09206
293.08014
293.06902
293.05866
293.04889
293.03962
293.03083
293.02245
293.01445
293.00678
292.99938
292.99222
292.98524
292.97842
292.97171
292.96508
292.95849
292.95193
292.94537
292.93876
292.93207
292.92531
292.91845
292.91148
292.9044
292.89718
292.88984
292.88237
292.87478
292.86708
292.85931
292.8515
292.84368
292.83592
292.82829
292.8209
292.81386
292.80739
292.80176
292.797
292.79357
292.79209
292.79305
292.79711
292.80493
292.8169
292.83268
292.85058
292.86791
292.88231
292.89298
292.90043
292.90568
292.90963
292.91286
292.91571
292.91835
292.92087
292.92332
292.92568
292.92794
292.93015
292.93228
292.93432
292.93631
292.93827
292.94019
292.94205
292.9439
292.9457
292.94747
292.94924
292.95097
292.95267
292.95436
292.95602
292.95765
292.95927
292.96085
292.96239
292.96391
292.96538
292.9668
292.96821
292.96958
292.9709
292.97221
292.97348
292.97471
292.97593
292.97711
292.97827
292.97941
292.98052
292.98161
292.98269
292.98373
292.98475
292.98576
292.98673
292.98768
292.98862
292.98955
292.99045
292.99134
292.99221
292.99303
292.99383
292.9946
292.99533
292.99602
292.99668
292.99729
292.99787
292.99841
292.99892
292.9994
292.99985
293.00029
293.0007
293.00109
293.00144
293.00175
293.002
293.00221
293.00235
293.00246
293.1256
293.11311
293.10128
293.09007
293.07936
293.06911
293.05929
293.04986
293.04079
293.03204
293.02357
293.01535
293.00733
292.99948
292.99177
292.98416
292.97664
292.96917
292.96172
292.95426
292.94676
292.93922
292.93163
292.92396
292.91621
292.90838
292.90045
292.89244
292.88435
292.8762
292.86802
292.85984
292.85171
292.84369
292.83587
292.82835
292.82126
292.81491
292.80945
292.80496
292.80209
292.80139
292.80337
292.80871
292.81797
292.83128
292.84776
292.86524
292.88101
292.89338
292.90221
292.90828
292.91261
292.91595
292.91874
292.92124
292.92359
292.92586
292.92807
292.93021
292.93226
292.93427
292.93621
292.93808
292.9399
292.9417
292.94347
292.94519
292.94691
292.94858
292.95023
292.95188
292.9535
292.95509
292.95669
292.95825
292.95978
292.96131
292.96281
292.96426
292.9657
292.9671
292.96846
292.9698
292.9711
292.97237
292.97362
292.97484
292.97602
292.97719
292.97832
292.97943
292.98053
292.9816
292.98265
292.98369
292.9847
292.98568
292.98665
292.98759
292.98852
292.98943
292.99033
292.99121
292.99207
292.99292
292.99372
292.9945
292.99524
292.99595
292.99663
292.99727
292.99787
292.99843
292.99896
292.99945
292.99992
293.00037
293.00079
293.00119
293.00157
293.00191
293.00222
293.00247
293.00268
293.00281
293.00292
293.15723
293.14428
293.13188
293.11998
293.1085
293.09743
293.08673
293.0764
293.0664
293.0567
293.04727
293.03809
293.02912
293.02033
293.0117
293.00319
292.99478
292.98645
292.97818
292.96991
292.96164
292.95335
292.94504
292.9367
292.92831
292.91987
292.91137
292.90283
292.89425
292.88565
292.87707
292.86853
292.8601
292.85184
292.84384
292.83623
292.82916
292.82295
292.81771
292.81363
292.81142
292.81162
292.81476
292.82149
292.83221
292.84665
292.86335
292.87981
292.89367
292.90397
292.9111
292.91596
292.91947
292.92228
292.92467
292.92683
292.9289
292.93092
292.9329
292.93481
292.93664
292.93846
292.94021
292.94189
292.94354
292.94519
292.94681
292.94838
292.94997
292.95152
292.95304
292.95457
292.95608
292.95756
292.95905
292.96051
292.96195
292.96339
292.9648
292.96617
292.96753
292.96886
292.97014
292.97142
292.97265
292.97386
292.97506
292.97622
292.97734
292.97846
292.97955
292.98061
292.98166
292.9827
292.9837
292.9847
292.98568
292.98663
292.98756
292.98847
292.98937
292.99026
292.99113
292.99198
292.99282
292.99364
292.99442
292.99517
292.9959
292.99659
292.99725
292.99787
292.99846
292.999
292.99952
293
293.00046
293.00089
293.0013
293.0017
293.00207
293.0024
293.0027
293.00295
293.00315
293.00328
293.00339
293.18699
293.17369
293.16083
293.14837
293.13628
293.12452
293.1131
293.10199
293.09119
293.08066
293.07039
293.06036
293.05053
293.04089
293.03142
293.02208
293.01285
293.00372
292.99467
292.98564
292.97663
292.96763
292.95864
292.94964
292.94063
292.9316
292.92255
292.9135
292.90444
292.89541
292.88644
292.87756
292.86885
292.86037
292.85224
292.84457
292.83756
292.83156
292.82661
292.82307
292.82165
292.82288
292.82732
292.83553
292.84762
292.86283
292.87916
292.89405
292.90577
292.91407
292.91969
292.9235
292.9263
292.92863
292.93065
292.93249
292.93428
292.93604
292.93779
292.93947
292.94108
292.94271
292.94427
292.94577
292.94725
292.94874
292.95021
292.95163
292.95308
292.9545
292.95589
292.95731
292.9587
292.96007
292.96146
292.96282
292.96415
292.96551
292.96683
292.96811
292.9694
292.97065
292.97185
292.97306
292.97424
292.97538
292.97652
292.97762
292.97869
292.97976
292.9808
292.98181
292.98282
292.98381
292.98478
292.98574
292.98668
292.98759
292.9885
292.98937
292.99024
292.9911
292.99194
292.99276
292.99358
292.99437
292.99513
292.99586
292.99657
292.99724
292.99788
292.99848
292.99905
292.99958
293.00008
293.00055
293.001
293.00142
293.00183
293.00221
293.00257
293.0029
293.00319
293.00343
293.00363
293.00376
293.00386
293.21497
293.20141
293.18818
293.17529
293.1627
293.15039
293.13836
293.1266
293.11511
293.10387
293.09286
293.08208
293.07149
293.06109
293.05085
293.04075
293.03077
293.0209
293.01111
293.00138
292.99167
292.98201
292.97237
292.96274
292.95314
292.94354
292.93396
292.92441
292.9149
292.90545
292.89611
292.88693
292.87796
292.8693
292.86106
292.85339
292.84653
292.8408
292.83624
292.83336
292.83289
292.83531
292.84118
292.85087
292.86412
292.87956
292.89484
292.90775
292.91726
292.92372
292.92802
292.93093
292.93311
292.93502
292.93668
292.93821
292.93973
292.94123
292.94275
292.9442
292.94559
292.94702
292.94839
292.9497
292.95101
292.95234
292.95366
292.95493
292.95625
292.95753
292.95879
292.9601
292.96137
292.96262
292.9639
292.96517
292.9664
292.96766
292.96889
292.97009
292.9713
292.97247
292.9736
292.97474
292.97585
292.97692
292.97801
292.97905
292.98007
292.98109
292.98208
292.98304
292.98401
292.98495
292.98587
292.98679
292.98769
292.98857
292.98944
292.99029
292.99112
292.99195
292.99277
292.99356
292.99435
292.99512
292.99586
292.99657
292.99725
292.9979
292.99852
292.99911
292.99966
293.00018
293.00066
293.00112
293.00155
293.00196
293.00236
293.00273
293.00308
293.0034
293.00369
293.00393
293.00412
293.00425
293.00435
293.24122
293.22748
293.21399
293.20076
293.18777
293.17502
293.16249
293.1502
293.13813
293.12627
293.11463
293.10319
293.09193
293.08085
293.06992
293.05913
293.04847
293.03792
293.02746
293.01706
293.00671
292.99641
292.98616
292.97595
292.96578
292.95565
292.94557
292.93554
292.9256
292.91577
292.90609
292.89662
292.88744
292.87864
292.87034
292.86273
292.85613
292.85075
292.84667
292.84463
292.84526
292.84903
292.85642
292.8675
292.88148
292.89648
292.9101
292.92076
292.92814
292.93296
292.93616
292.93828
292.93992
292.94145
292.94277
292.94398
292.94524
292.94649
292.94777
292.949
292.95016
292.95139
292.95257
292.95369
292.95483
292.956
292.95716
292.95829
292.95947
292.96061
292.96174
292.96293
292.96408
292.96521
292.9664
292.96755
292.96869
292.96986
292.971
292.9721
292.97323
292.97432
292.97538
292.97645
292.97749
292.9785
292.97952
292.98051
292.98148
292.98244
292.98338
292.98429
292.98521
292.98611
292.98699
292.98787
292.98873
292.98957
292.99041
292.99123
292.99202
292.99282
292.99361
292.99438
292.99514
292.99588
292.9966
292.99728
292.99795
292.99858
292.99918
292.99975
293.00028
293.00078
293.00125
293.0017
293.00212
293.00252
293.0029
293.00326
293.00361
293.00392
293.0042
293.00443
293.00462
293.00475
293.00485
293.26581
293.25195
293.23829
293.22481
293.21153
293.19842
293.18549
293.17276
293.16021
293.14784
293.13566
293.12365
293.1118
293.10012
293.08858
293.07717
293.06589
293.05472
293.04364
293.03264
293.02168
293.0108
292.99998
292.98922
292.97852
292.96789
292.95733
292.94687
292.93652
292.92634
292.91635
292.90664
292.89729
292.8884
292.88013
292.87266
292.86639
292.86144
292.85805
292.85703
292.85892
292.86418
292.87307
292.88526
292.89937
292.91318
292.92467
292.93302
292.93846
292.94186
292.94414
292.94559
292.94674
292.94792
292.9489
292.94982
292.95082
292.95181
292.95286
292.95385
292.95479
292.95583
292.95681
292.95774
292.95871
292.95972
292.96072
292.96169
292.96274
292.96374
292.96474
292.96581
292.96684
292.96785
292.96893
292.96998
292.97101
292.97209
292.97313
292.97415
292.9752
292.9762
292.97719
292.97819
292.97916
292.98011
292.98107
292.982
292.98291
292.98382
292.98471
292.98557
292.98644
292.98729
292.98813
292.98897
292.98979
292.99059
292.9914
292.99218
292.99295
292.99371
292.99447
292.99521
292.99594
292.99666
292.99735
292.99801
292.99866
292.99927
292.99985
293.0004
293.00092
293.0014
293.00185
293.00228
293.00269
293.00308
293.00345
293.00381
293.00414
293.00445
293.00472
293.00494
293.00513
293.00525
293.00535
293.2888
293.2749
293.26112
293.24748
293.23397
293.2206
293.20736
293.19427
293.18133
293.16854
293.1559
293.14341
293.13106
293.11885
293.10677
293.09481
293.08297
293.07124
293.0596
293.04804
293.03654
293.02512
293.01377
293.0025
292.99131
292.98022
292.96922
292.95836
292.94765
292.93715
292.92691
292.917
292.90753
292.89863
292.89046
292.88325
292.87741
292.87304
292.87053
292.87071
292.87402
292.88082
292.89107
292.90386
292.91731
292.92929
292.93839
292.94453
292.94828
292.9505
292.952
292.95286
292.95359
292.95443
292.95508
292.95572
292.95646
292.9572
292.958
292.95876
292.95947
292.96032
292.9611
292.96185
292.96264
292.96349
292.96433
292.96515
292.96606
292.96692
292.96779
292.96873
292.96964
292.97054
292.9715
292.97244
292.97337
292.97435
292.97531
292.97623
292.9772
292.97812
292.97903
292.97996
292.98086
292.98174
292.98264
292.98351
292.98436
292.98522
292.98605
292.98687
292.98769
292.9885
292.98929
292.99009
292.99087
292.99163
292.9924
292.99315
292.99388
292.99462
292.99535
292.99606
292.99676
292.99745
292.99812
292.99876
292.99938
292.99997
293.00053
293.00106
293.00156
293.00203
293.00247
293.00288
293.00328
293.00365
293.00401
293.00436
293.00468
293.00498
293.00525
293.00546
293.00565
293.00577
293.00586
293.31026
293.29636
293.28254
293.2688
293.25515
293.24158
293.22811
293.21474
293.20149
293.18835
293.17533
293.16243
293.14965
293.13699
293.12444
293.112
293.09967
293.08743
293.0753
293.06323
293.05124
293.03932
293.0275
293.01576
293.00413
292.99261
292.98122
292.97
292.95898
292.9482
292.93775
292.92771
292.9182
292.90936
292.90139
292.89458
292.88932
292.88567
292.88426
292.88582
292.89068
292.89898
292.9102
292.92284
292.93483
292.94452
292.95121
292.95537
292.9577
292.95893
292.95971
292.96013
292.96051
292.96092
292.96129
292.96171
292.96218
292.96264
292.9632
292.96371
292.96422
292.96486
292.96544
292.96601
292.96663
292.96732
292.96799
292.96866
292.96943
292.97015
292.97088
292.9717
292.97248
292.97326
292.97412
292.97495
292.97578
292.97666
292.97752
292.97835
292.97923
292.98008
292.9809
292.98176
292.98259
292.98341
292.98424
292.98505
292.98584
292.98665
292.98743
292.98819
292.98896
292.98973
292.99047
292.99122
292.99197
292.99269
292.99343
292.99414
292.99484
292.99554
292.99624
292.99692
292.9976
292.99826
292.9989
292.99952
293.00011
293.00068
293.00123
293.00174
293.00222
293.00267
293.00309
293.00349
293.00387
293.00424
293.00459
293.00492
293.00524
293.00553
293.00579
293.006
293.00617
293.00629
293.00639
293.33025
293.31641
293.30259
293.28881
293.27507
293.26138
293.24774
293.23417
293.22067
293.20726
293.19393
293.1807
293.16755
293.1545
293.14155
293.12869
293.11593
293.10326
293.09068
293.07817
293.06572
293.05337
293.04112
293.02897
293.01693
293.00504
292.99331
292.98178
292.97049
292.95951
292.94891
292.93881
292.92934
292.92067
292.91302
292.90681
292.90225
292.8995
292.89943
292.90253
292.90897
292.91849
292.93001
292.94163
292.95149
292.95872
292.96314
292.96558
292.96677
292.96721
292.96734
292.96744
292.96747
292.96743
292.96757
292.96777
292.96794
292.96816
292.96843
292.96869
292.96905
292.96946
292.96983
292.97023
292.97068
292.9712
292.9717
292.97222
292.97284
292.97342
292.97402
292.97471
292.97536
292.97603
292.97677
292.97749
292.97822
292.979
292.97976
292.98051
292.9813
292.98206
292.98281
292.98359
292.98435
292.9851
292.98587
292.98662
292.98735
292.9881
292.98883
292.98954
292.99026
292.99098
292.99167
292.99238
292.99309
292.99377
292.99447
292.99515
292.99581
292.99648
292.99715
292.9978
292.99845
292.99908
292.9997
293.00029
293.00086
293.00141
293.00193
293.00242
293.00289
293.00332
293.00373
293.00411
293.00448
293.00483
293.00517
293.00549
293.0058
293.00608
293.00633
293.00654
293.00671
293.00683
293.00692
293.34884
293.33508
293.32132
293.30755
293.29378
293.28001
293.26627
293.25255
293.23888
293.22525
293.21168
293.19817
293.18473
293.17137
293.15807
293.14486
293.13172
293.11867
293.1057
293.0928
293.07997
293.06723
293.0546
293.04208
293.02971
293.01749
293.00547
292.99369
292.98219
292.97107
292.96042
292.95035
292.94103
292.93266
292.9255
292.92002
292.91633
292.91479
292.91626
292.92096
292.92878
292.93895
292.94989
292.95968
292.96704
292.97179
292.97424
292.97526
292.97554
292.97542
292.97506
292.97475
292.9744
292.97407
292.97391
292.97381
292.97373
292.97371
292.97369
292.97376
292.97393
292.97407
292.97426
292.97452
292.97479
292.97512
292.97545
292.97584
292.97631
292.97674
292.97721
292.97776
292.97829
292.97884
292.97947
292.98008
292.9807
292.98138
292.98204
292.9827
292.9834
292.98408
292.98475
292.98546
292.98615
292.98683
292.98753
292.98822
292.98889
292.98958
292.99025
292.99091
292.99158
292.99225
292.9929
292.99356
292.99423
292.99487
292.99553
292.99618
292.99681
292.99744
292.99808
292.9987
292.99931
292.99992
293.00051
293.00108
293.00163
293.00215
293.00265
293.00313
293.00357
293.00399
293.00438
293.00475
293.0051
293.00544
293.00576
293.00608
293.00637
293.00665
293.00689
293.00709
293.00726
293.00737
293.00746
293.36607
293.35245
293.33877
293.32505
293.31129
293.29751
293.2837
293.2699
293.2561
293.24232
293.22857
293.21485
293.20117
293.18755
293.17397
293.16046
293.14701
293.13364
293.12034
293.1071
293.09394
293.08087
293.06792
293.05509
293.04243
293.02995
293.0177
293.00574
292.99412
292.98294
292.97231
292.96239
292.95335
292.94544
292.939
292.93444
292.93181
292.93175
292.93487
292.94108
292.9498
292.95974
292.96918
292.97654
292.9813
292.98373
292.98463
292.9847
292.98425
292.98355
292.98275
292.98203
292.98135
292.98074
292.98027
292.97989
292.97955
292.97928
292.97904
292.97891
292.97883
292.97872
292.97876
292.97886
292.97895
292.97908
292.97924
292.97952
292.9798
292.9801
292.98045
292.98086
292.98126
292.98169
292.9822
292.9827
292.98322
292.9838
292.98436
292.98493
292.98554
292.98613
292.98672
292.98735
292.98797
292.98858
292.98922
292.98984
292.99046
292.99109
292.9917
292.99231
292.99293
292.99354
292.99415
292.99477
292.99539
292.996
292.99661
292.99722
292.99782
292.99842
292.99902
292.99961
293.0002
293.00078
293.00134
293.00188
293.00241
293.00291
293.00339
293.00384
293.00426
293.00466
293.00504
293.00539
293.00573
293.00606
293.00637
293.00667
293.00696
293.00722
293.00746
293.00765
293.00782
293.00793
293.00802
293.38201
293.36855
293.35499
293.34135
293.32765
293.31388
293.30006
293.28622
293.27235
293.25846
293.24458
293.23071
293.21685
293.20302
293.18923
293.17547
293.16177
293.14813
293.13456
293.12105
293.10761
293.09427
293.08105
293.06798
293.05509
293.04242
293.03002
293.01795
293.0063
292.99516
292.98469
292.97504
292.96645
292.95919
292.95374
292.95026
292.94893
292.95056
292.95529
292.9626
292.97139
292.98011
292.98722
292.99187
292.99418
292.99487
292.9947
292.99389
292.99279
292.99159
292.9904
292.98932
292.98832
292.98743
292.98667
292.986
292.98541
292.9849
292.98444
292.98407
292.98376
292.98348
292.98332
292.98321
292.98314
292.98307
292.98311
292.98323
292.98333
292.9835
292.98374
292.98399
292.98426
292.9846
292.98498
292.98536
292.98578
292.98625
292.98672
292.98719
292.98771
292.98822
292.98873
292.98928
292.98982
292.99037
292.99094
292.9915
292.99205
292.99262
292.99318
292.99373
292.9943
292.99486
292.99542
292.99599
292.99657
292.99714
292.99772
292.99829
292.99885
292.99941
292.99998
293.00054
293.00109
293.00165
293.00218
293.0027
293.0032
293.00368
293.00414
293.00457
293.00497
293.00535
293.00571
293.00605
293.00637
293.00668
293.00699
293.00728
293.00756
293.00781
293.00804
293.00823
293.00839
293.00849
293.00858
293.39671
293.38342
293.37002
293.35649
293.34286
293.32914
293.31536
293.30151
293.28761
293.27368
293.25971
293.24574
293.23175
293.21778
293.20382
293.18988
293.17598
293.16213
293.14834
293.13461
293.12096
293.10741
293.094
293.08075
293.06771
293.05492
293.04245
293.03038
293.0188
293.00783
292.99765
292.98845
292.9805
292.97417
292.96992
292.9677
292.96797
292.9713
292.97728
292.98489
292.99269
292.99927
293.00352
293.00559
293.00611
293.00558
293.00439
293.00285
293.0012
292.99957
292.99803
292.99661
292.99531
292.99413
292.99309
292.99215
292.99131
292.99055
292.98987
292.98927
292.98874
292.98827
292.98791
292.98761
292.98736
292.98714
292.98703
292.98697
292.9869
292.98697
292.98707
292.98715
292.98731
292.98755
292.98778
292.98806
292.98838
292.98874
292.9891
292.98949
292.98992
292.99034
292.99077
292.99124
292.99171
292.99219
292.99269
292.99318
292.99367
292.99418
292.99468
292.99518
292.99569
292.9962
292.99671
292.99724
292.99777
292.9983
292.99884
292.99937
292.9999
293.00043
293.00096
293.00149
293.00201
293.00253
293.00304
293.00353
293.00401
293.00446
293.0049
293.00531
293.00569
293.00606
293.00639
293.00672
293.00703
293.00733
293.00762
293.0079
293.00816
293.00841
293.00863
293.00881
293.00896
293.00907
293.00915
293.41022
293.39705
293.38381
293.37043
293.35692
293.3433
293.32959
293.31578
293.3019
293.28796
293.27397
293.25994
293.24588
293.23181
293.21773
293.20367
293.18963
293.17563
293.16168
293.1478
293.13399
293.1203
293.10676
293.09341
293.0803
293.06749
293.05506
293.04309
293.03172
293.02109
293.01138
293.00284
292.99576
292.99067
292.9878
292.98703
292.98901
292.99373
293.0002
293.00698
293.01271
293.01646
293.01811
293.0183
293.01737
293.01573
293.01373
293.01161
293.00951
293.00751
293.00563
293.0039
293.0023
293.00085
292.99953
292.99833
292.99724
292.99624
292.99533
292.99451
292.99377
292.99311
292.99254
292.99205
292.99162
292.99125
292.99097
292.99074
292.99056
292.99048
292.99041
292.99035
292.99042
292.99053
292.99062
292.9908
292.99103
292.99126
292.99152
292.99183
292.99215
292.99249
292.99285
292.99324
292.99363
292.99403
292.99446
292.99489
292.99532
292.99577
292.99621
292.99665
292.99711
292.99757
292.99803
292.99851
292.999
292.99949
292.99998
293.00048
293.00097
293.00146
293.00196
293.00245
293.00295
293.00344
293.00392
293.00438
293.00483
293.00526
293.00568
293.00606
293.00643
293.00677
293.00709
293.0074
293.00769
293.00798
293.00826
293.00852
293.00878
293.00902
293.00923
293.00941
293.00955
293.00965
293.00974
293.42255
293.40954
293.39642
293.38322
293.36987
293.35639
293.34278
293.32905
293.31523
293.30133
293.28735
293.27331
293.25922
293.2451
293.23097
293.21683
293.20271
293.18862
293.17458
293.1606
293.14671
293.13295
293.11936
293.106
293.09292
293.08019
293.06792
293.05621
293.04521
293.03511
293.02612
293.0185
293.01259
293.00892
293.00755
293.00844
293.01192
293.01721
293.02291
293.02767
293.03065
293.03179
293.0315
293.03006
293.02793
293.02544
293.02282
293.02023
293.01775
293.0154
293.0132
293.01117
293.00929
293.00757
293.00598
293.00452
293.00319
293.00195
293.00082
292.99978
292.99883
292.99797
292.9972
292.99653
292.99593
292.9954
292.99495
292.99457
292.99424
292.994
292.9938
292.99363
292.99356
292.99352
292.99349
292.99358
292.99371
292.9938
292.99399
292.99421
292.99442
292.99467
292.99496
292.99526
292.99558
292.99592
292.99627
292.99663
292.997
292.99738
292.99776
292.99815
292.99855
292.99896
292.99937
292.9998
293.00025
293.00069
293.00115
293.00161
293.00206
293.00251
293.00298
293.00344
293.0039
293.00435
293.00481
293.00525
293.00567
293.00607
293.00647
293.00683
293.00718
293.0075
293.0078
293.00809
293.00837
293.00864
293.00891
293.00916
293.00941
293.00964
293.00984
293.01001
293.01016
293.01025
293.01034
293.43372
293.42092
293.40803
293.395
293.38181
293.36846
293.35498
293.34136
293.32763
293.31379
293.29986
293.28586
293.27179
293.25768
293.24354
293.22938
293.21523
293.20111
293.18704
293.17304
293.15914
293.14539
293.13185
293.11858