/*--------------------------------*- C++ -*----------------------------------*\
| =========                 |                                                 |
| \\      /  F ield         | OpenFOAM: The Open Source CFD Toolbox           |
|  \\    /   O peration     | Version:  2406                                  |
|   \\  /    A nd           | Website:  www.openfoam.com                      |
|    \\/     M anipulation  |                                                 |
\*---------------------------------------------------------------------------*/
FoamFile
{
    version     2.0;
    format      ascii;
    arch        "LSB;label=32;scalar=64";
    class       volVectorField;
    location    "0.018";
    object      U;
}
// * * * * * * * * * * * * * * * * * * * * * * * * * * * * * * * * * * * * * //

dimensions      [0 1 -1 0 0 0 0];

internalField   nonuniform List<vector> 
92813
(
(39.501694 29.728392 -4.9526424e-21)
(40.348071 28.971682 1.6552286e-20)
(41.154228 28.262045 -1.0152031e-20)
(41.907141 27.585021 -1.0382002e-20)
(42.599873 26.915784 -8.6396904e-21)
(43.242365 26.25829 6.9291765e-21)
(43.840999 25.619259 5.4220334e-21)
(44.401317 25.003165 0)
(44.929073 24.412556 -3.0359669e-21)
(45.429809 23.848493 -1.1668283e-24)
(45.908844 23.311019 -1.5127843e-21)
(46.370885 22.799422 -1.0578154e-21)
(46.820174 22.312426 0)
(47.260186 21.848141 0)
(47.691474 21.404459 1.7316681e-23)
(48.116157 20.979569 0)
(48.534048 20.571621 -1.3179516e-21)
(48.941681 20.178918 -1.6416585e-21)
(49.335083 19.800775 2.4563838e-25)
(49.71361 19.436823 -8.585704e-21)
(50.076634 19.087157 0)
(50.42235 18.752803 0)
(50.755163 18.431986 0)
(51.076874 18.123487 5.4164332e-21)
(51.388296 17.826205 -1.0677562e-20)
(51.689801 17.539024 -5.272881e-21)
(51.981475 17.260836 0)
(52.263188 16.990536 0)
(52.534619 16.727021 5.1516245e-21)
(52.795273 16.469182 -1.5416342e-20)
(53.044486 16.215894 -1.0282936e-20)
(53.28143 15.966005 5.160277e-21)
(53.505103 15.718325 -1.5589757e-20)
(53.714329 15.471613 0)
(53.907758 15.224556 0)
(54.083814 14.975695 -1.631051e-20)
(54.240562 14.723913 1.1140027e-20)
(54.377617 14.466928 -1.1476183e-20)
(54.491024 14.203065 1.1893605e-20)
(54.574824 13.929499 -3.0874363e-20)
(54.630183 13.649777 -4.5345252e-20)
(54.657511 13.353594 1.378944e-20)
(54.649262 13.042752 3.6903983e-20)
(54.602641 12.713847 3.1845137e-20)
(54.515176 12.364656 8.6713614e-21)
(54.385348 11.993898 2.8640204e-20)
(54.213916 11.601633 0)
(54.006183 11.191106 0)
(53.77511 10.771113 0)
(53.543266 10.35806 5.8240504e-20)
(53.338037 9.9726402 6.274893e-20)
(53.178327 9.6288031 6.5848126e-20)
(53.064764 9.3261044 1.6916173e-20)
(52.985278 9.0545496 -1.7155127e-20)
(52.926517 8.803598 6.9098334e-20)
(52.878907 8.5662166 -8.6635804e-20)
(52.836832 8.3383721 -4.3348203e-20)
(52.797573 8.1180022 3.5810495e-25)
(52.759789 7.9040444 -1.4686475e-19)
(52.72314 7.6958874 0)
(52.687559 7.4933085 1.2852286e-19)
(52.652537 7.2960301 -1.3632612e-19)
(52.618252 7.103703 8.4641377e-21)
(52.584727 6.916209 1.4282542e-19)
(52.551721 6.7334699 1.2498158e-19)
(52.519034 6.5551041 8.2570821e-21)
(52.486799 6.3810453 1.1447898e-19)
(52.455238 6.2111495 2.589499e-19)
(52.423923 6.0453351 1.6011563e-20)
(52.393259 5.8833098 -7.9118846e-21)
(52.363191 5.7251536 1.3288921e-19)
(52.333311 5.5705985 -1.5439824e-20)
(52.304033 5.4194754 1.2954483e-19)
(52.275369 5.2718153 1.2781761e-19)
(52.246902 5.1274152 1.9738145e-25)
(52.219051 4.9861224 2.3397024e-19)
(52.19184 4.8479678 -7.2059171e-21)
(52.164824 4.7127635 2.2010447e-19)
(52.138419 4.5803825 1.3986991e-20)
(52.112656 4.4508184 -6.8863342e-21)
(52.087081 4.3239161 -2.1693655e-19)
(52.062124 4.1995475 0)
(52.037789 4.0776989 -2.166358e-19)
(52.013674 3.9582384 -2.0019694e-19)
(51.990195 3.8410504 3.1541734e-24)
(51.967321 3.7261201 0)
(51.944711 3.6133236 -1.9033957e-19)
(51.922723 3.5025732 -6.0352591e-21)
(51.901328 3.393834 2.5210361e-24)
(51.880235 3.2870195 0)
(51.859752 3.1820421 0)
(51.839886 3.0788705 -3.6006947e-19)
(51.820372 2.9774268 -4.0349868e-24)
(51.801396 2.8776347 -5.4280769e-21)
(51.783053 2.7794364 1.0661502e-20)
(51.765029 2.6826957 3.2456082e-19)
(51.747403 2.5875162 3.2896875e-19)
(51.730399 2.4935487 -3.1794128e-19)
(51.713602 2.4011021 0)
(51.6973 2.3097926 -3.1127017e-19)
(51.681684 2.2196551 0)
(51.666411 2.1307795 2.9519687e-19)
(51.651681 2.0429476 4.5986114e-21)
(51.637612 1.9560656 0)
(51.624107 1.8700772 -2.8343877e-19)
(51.610962 1.785076 0)
(51.5983 1.7007648 2.7290393e-19)
(51.586274 1.6170396 -2.698537e-19)
(51.574654 1.5340058 4.1047739e-21)
(51.563496 1.4515166 -2.0135164e-21)
(51.552943 1.369395 0)
(51.542848 1.2876746 0)
(51.533196 1.2063661 4.8471635e-19)
(51.524106 1.125201 -1.4607718e-26)
(51.515526 1.0442076 -4.6636487e-19)
(51.507421 0.96330926 0)
(51.49986 0.8823767 2.4336949e-24)
(51.49287 0.80122895 0)
(51.486343 0.71998978 -4.3322014e-19)
(51.480403 0.63825049 -2.1694037e-24)
(51.474943 0.55618626 0)
(51.470143 0.47323271 -4.0816583e-19)
(51.465743 0.38994148 4.0024421e-19)
(51.462256 0.30496875 0)
(51.459068 0.22016265 0)
(51.457358 0.13226961 3.7768944e-19)
(51.455892 0.045455166 -3.6963532e-19)
(38.783055 29.250203 -6.0818973e-21)
(39.691158 28.524517 -1.7527176e-20)
(40.514717 27.877685 0)
(41.277954 27.254596 -1.0472558e-20)
(41.991133 26.640285 1.9894664e-20)
(42.66014 26.036817 -9.4792201e-21)
(43.289274 25.44877 6.5234084e-24)
(43.882503 24.879159 0)
(44.443952 24.32996 8.3211898e-21)
(44.977894 23.802371 1.5992995e-20)
(45.488568 23.296844 -2.0961004e-24)
(45.980036 22.813156 1.4874352e-20)
(46.455951 22.350415 0)
(46.919206 21.907041 -6.9681778e-21)
(47.371232 21.481153 1.3523412e-20)
(47.812889 21.071014 -2.9297125e-24)
(48.243844 20.675008 6.3957211e-21)
(48.662475 20.291839 6.2371151e-21)
(49.066953 19.921068 0)
(49.45663 19.562774 0)
(49.83132 19.217063 5.8462385e-21)
(50.19091 18.884209 1.0840442e-24)
(50.53704 18.563696 -5.6493846e-21)
(50.870924 18.254725 -5.5669544e-21)
(51.193321 17.956303 1.0994466e-20)
(51.504635 17.667378 -5.4425438e-21)
(51.805 17.386897 5.3981018e-21)
(52.094331 17.113801 1.0736321e-20)
(52.372344 16.847025 -5.3505631e-21)
(52.638578 16.585489 1.6042978e-20)
(52.892396 16.328087 -5.3608498e-21)
(53.132986 16.073679 5.3911432e-21)
(53.359357 15.821074 -1.0877181e-20)
(53.570337 15.569025 5.5077099e-21)
(53.764565 15.316204 -1.6801567e-20)
(53.940479 15.061155 2.2881291e-20)
(54.096277 14.802533 0)
(54.230779 14.538551 1.2121511e-20)
(54.339964 14.266673 6.2926382e-21)
(54.420317 13.982599 2.6176149e-20)
(54.471353 13.694956 -1.376386e-20)
(54.491429 13.388145 7.3391564e-21)
(54.474947 13.066496 -2.3592599e-20)
(54.419503 12.725646 -8.4959906e-21)
(54.322695 12.36379 3.7065049e-20)
(54.183692 11.980021 0)
(54.004702 11.575196 0)
(53.793462 11.154106 3.7788267e-20)
(53.566303 10.728124 6.9769157e-20)
(53.348337 10.316376 -1.5217695e-20)
(53.165336 9.9393661 -4.859183e-20)
(53.029904 9.6067052 -6.7291292e-20)
(52.936659 9.3133879 0)
(52.871662 9.0478327 0)
(52.822777 8.8001242 -6.963998e-20)
(52.782197 8.5643605 5.2288397e-20)
(52.745567 8.3372956 8.7064757e-20)
(52.710917 8.1173118 0)
(52.677252 7.9035579 1.7310016e-20)
(52.644437 7.6955345 -1.7228674e-20)
(52.61248 7.4930637 1.7131547e-20)
(52.580831 7.2958795 1.1912851e-19)
(52.549756 7.1036303 -1.4358631e-19)
(52.519291 6.9162101 8.3815069e-21)
(52.489163 6.7335603 -2.573273e-19)
(52.459189 6.5552479 1.3152962e-19)
(52.429552 6.3812627 -2.6033627e-19)
(52.40048 6.2114297 -1.3678738e-19)
(52.3715 6.0456792 -1.2726666e-19)
(52.34309 5.883711 1.336066e-19)
(52.315161 5.7256127 -1.5522488e-20)
(52.287285 5.5711024 7.6613895e-21)
(52.259948 5.4200249 0)
(52.23313 5.2724084 0)
(52.2064 5.1280436 -2.3525827e-19)
(52.180231 4.9867894 -2.3187276e-19)
(52.154623 4.8486699 7.1397034e-21)
(52.129115 4.7134921 -2.3208317e-19)
(52.104171 4.5811425 2.2162698e-19)
(52.079797 4.4516012 6.8184299e-21)
(52.05553 4.3247163 -6.7110482e-21)
(52.031841 4.2003685 0)
(52.008709 4.0785316 -2.1439692e-19)
(51.985731 3.9590804 2.0448829e-19)
(51.963352 3.8419033 -1.948101e-19)
(51.941523 3.7269768 0)
(51.9199 3.6141827 -2.8934453e-24)
(51.898867 3.5034366 0)
(51.878381 3.3946955 -1.8775785e-19)
(51.858149 3.2878775 0)
(51.8385 3.1828972 1.8127683e-19)
(51.819425 3.0797159 1.7808345e-19)
(51.800664 2.9782624 6.9973349e-19)
(51.782411 2.8784566 5.3694235e-21)
(51.764751 2.7802402 3.3221972e-19)
(51.747381 2.6834778 -6.6285954e-19)
(51.730376 2.5882801 5.0884718e-21)
(51.713969 2.4942871 3.0956054e-19)
(51.697745 2.401811 -3.0883261e-19)
(51.681977 2.3104896 3.0799427e-19)
(51.666885 2.2203243 0)
(51.652114 2.1314173 2.5345923e-24)
(51.637847 2.0435752 0)
(51.624216 1.9566676 0)
(51.611139 1.8706546 0)
(51.598396 1.7856225 2.7535951e-19)
(51.586097 1.7012972 2.1110569e-21)
(51.574423 1.6175462 -2.0714975e-21)
(51.563145 1.5344794 2.6221051e-19)
(51.552297 1.4519744 -5.1256223e-19)
(51.542036 1.3698309 1.9568215e-21)
(51.532227 1.2880763 4.9148992e-19)
(51.52284 1.2067422 -1.8835531e-21)
(51.513991 1.1255571 0)
(51.505645 1.0445303 4.6588532e-19)
(51.497755 0.96360282 -3.5565988e-21)
(51.490385 0.882648 -8.9139546e-19)
(51.483577 0.8014745 0)
(51.477215 0.72020328 -2.2810438e-24)
(51.471418 0.63844466 4.2226954e-19)
(51.466088 0.55634522 -8.0735319e-22)
(51.461402 0.47337055 4.0542636e-19)
(51.457096 0.39004575 -7.9525766e-19)
(51.453694 0.30505015 0)
(51.450566 0.22020731 0)
(51.448897 0.13227115 -8.9738364e-23)
(51.447448 0.045456625 8.9629839e-23)
(38.039921 28.625719 -1.4071448e-23)
(38.934052 27.989466 -1.0683051e-20)
(39.77197 27.424321 -5.0838488e-21)
(40.558114 26.868468 4.8467654e-21)
(41.298197 26.315061 9.2747265e-21)
(41.996488 25.768323 -8.8870894e-21)
(42.656576 25.232593 -8.5328659e-21)
(43.281872 24.710516 -8.205637e-21)
(43.87584 24.203927 3.0839061e-24)
(44.442023 23.714107 0)
(44.983978 23.241754 1.5266872e-24)
(45.505151 22.786958 -7.4423734e-25)
(46.008697 22.34921 1.0211666e-24)
(46.497168 21.927425 -6.7435973e-21)
(46.972147 21.52024 1.3125787e-20)
(47.43444 21.126258 -1.2792903e-20)
(47.883989 20.744136 1.2488504e-20)
(48.319959 20.372864 0)
(48.741243 20.012093 -5.9768217e-21)
(49.147309 19.661903 -5.8617747e-21)
(49.53804 19.322409 -7.1394155e-25)
(49.913563 18.993827 -5.6659491e-21)
(50.274733 18.676068 5.5855786e-21)
(50.622493 18.368619 -1.1038432e-20)
(50.957561 18.070702 0)
(51.28037 17.781423 0)
(51.591102 17.499838 1.0767521e-20)
(51.889719 17.224972 -1.0724474e-20)
(52.175983 16.955822 -5.356439e-21)
(52.449468 16.69135 -5.3630295e-21)
(52.709567 16.430485 1.077376e-20)
(52.95549 16.172104 -1.0855585e-20)
(53.186261 15.915026 1.6464904e-20)
(53.400711 15.657998 5.5717724e-21)
(53.597474 15.399676 1.7030978e-20)
(53.774982 15.138581 2.6149038e-24)
(53.93146 14.873197 5.9822629e-21)
(54.065242 14.60203 -6.1872999e-21)
(54.17234 14.321659 -6.4425049e-21)
(54.251021 14.029439 -2.6867729e-20)
(54.299511 13.732138 2.8342582e-20)
(54.31421 13.414524 -3.0343054e-20)
(54.291682 13.081772 3.2608504e-20)
(54.229595 12.728799 0)
(54.125829 12.354309 4.8324488e-20)
(53.980415 11.957944 8.5666217e-25)
(53.797158 11.54174 4.7359582e-20)
(53.586389 11.11258 -1.1837065e-19)
(53.367516 10.684779 -1.0139511e-19)
(53.166806 10.27932 8.6545565e-25)
(53.006358 9.9142566 -1.6484945e-20)
(52.892341 9.5936491 5.0937853e-20)
(52.815438 9.3089798 8.6208858e-20)
(52.761663 9.0484815 0)
(52.720626 8.8034287 6.9640992e-20)
(52.686018 8.5690583 4.0456285e-24)
(52.654331 8.3427691 1.7383842e-20)
(52.624074 8.1232669 1.2132164e-19)
(52.594432 7.9098406 0)
(52.565401 7.7020708 0)
(52.537054 7.4997992 1.7064854e-20)
(52.508766 7.302779 -1.6944855e-20)
(52.480891 7.1106491 2.5218423e-19)
(52.453484 6.9233084 -1.1666853e-19)
(52.426241 6.7407336 1.6506464e-20)
(52.398988 6.5624331 -1.6341037e-20)
(52.371946 6.3884629 -4.5723053e-24)
(52.345367 6.2186064 0)
(52.318719 6.052822 -7.9021406e-21)
(52.292551 5.8907963 -1.1708304e-19)
(52.266764 5.7326235 -7.7069099e-21)
(52.240894 5.5780212 7.6061352e-21)
(52.215488 5.4268408 1.2756607e-19)
(52.190521 5.2791065 1.8500058e-25)
(52.16553 5.134615 2.3343007e-19)
(52.141039 4.9932298 -7.188735e-21)
(52.117042 4.8549675 -7.0821996e-21)
(52.09305 4.7196403 6.975209e-21)
(52.069567 4.587143 -2.1977804e-19)
(52.046595 4.4574401 0)
(52.023648 4.3303923 -6.6537765e-21)
(52.001228 4.2058844 -1.3694623e-25)
(51.979313 4.0838758 6.4361582e-21)
(51.957482 3.9642563 -1.9634872e-19)
(51.936205 3.846914 -6.2280567e-21)
(51.915429 3.7318155 6.1231635e-21)
(51.894802 3.6188541 1.9260774e-19)
(51.874725 3.5079457 -1.1831546e-20)
(51.855153 3.3990381 -1.8021826e-19)
(51.835788 3.2920575 0)
(51.81697 3.1869198 -1.7958535e-19)
(51.798691 3.0835768 0)
(51.780686 2.981967 -5.4110504e-21)
(51.763155 2.8820061 5.3185484e-21)
(51.74618 2.7836347 -3.3428272e-19)
(51.729473 2.686719 6.565354e-19)
(51.713091 2.5913759 -3.2736586e-19)
(51.697287 2.4972339 9.8898887e-21)
(51.681643 2.4046069 3.0585146e-19)
(51.666409 2.3131619 -3.0501829e-19)
(51.651841 2.2228566 -4.6783167e-21)
(51.637576 2.1338098 -2.9388779e-19)
(51.623773 2.0458568 -2.7943824e-19)
(51.61058 1.9588266 -8.8468603e-21)
(51.597935 1.8726945 4.3411613e-21)
(51.585601 1.7875388 -2.7265573e-19)
(51.57367 1.7031158 0)
(51.562353 1.619256 2.0511225e-21)
(51.551423 1.5360752 -2.596228e-19)
(51.540891 1.4534776 -3.4169562e-24)
(51.530926 1.3712399 0)
(51.521409 1.2893801 -4.866197e-19)
(51.512292 1.20795 4.7741285e-19)
(51.503689 1.1266801 4.6835894e-19)
(51.495579 1.0455566 -4.5946007e-19)
(51.487908 0.96453685 -4.4895978e-19)
(51.480733 0.88350039 -2.4811296e-24)
(51.474108 0.80224422 -2.5411327e-21)
(51.467914 0.72088377 4.2539387e-19)
(51.462263 0.63905178 8.1493557e-22)
(51.457066 0.55686426 0)
(51.452496 0.47381582 0)
(51.448286 0.39040717 3.936626e-19)
(51.44497 0.30533743 3.8608234e-19)
(51.441905 0.22040837 0)
(51.440278 0.13238954 -7.4263753e-19)
(51.438846 0.045504692 0)
(37.415359 27.964271 1.0041954e-20)
(38.291615 27.411377 -9.8175954e-21)
(39.12963 26.924034 4.6992068e-21)
(39.926031 26.438184 0)
(40.682167 25.948645 -8.6710171e-21)
(41.400313 25.460327 1.6706585e-20)
(42.082922 24.977826 8.0561507e-21)
(42.732563 24.50392 -7.7881087e-21)
(43.351961 24.040566 0)
(43.943974 23.589216 7.3038914e-21)
(44.511512 23.150807 0)
(45.057419 22.725741 -6.8894188e-21)
(45.584316 22.313892 1.0038983e-24)
(46.094381 21.914667 -6.533592e-21)
(46.589134 21.527186 0)
(47.06947 21.15046 0)
(47.535614 20.783519 9.2688491e-25)
(47.987202 20.425644 -5.9749148e-21)
(48.42362 20.076549 5.8652736e-21)
(48.844492 19.736266 5.7655316e-21)
(49.249704 19.404918 -7.9953791e-25)
(49.639374 19.082693 0)
(50.014075 18.769617 -5.5309225e-21)
(50.374513 18.465387 5.4709821e-21)
(50.721284 18.169448 5.4296124e-21)
(51.05478 17.881087 5.394015e-21)
(51.375185 17.599501 -2.1488116e-20)
(51.682475 17.323816 0)
(51.976435 17.053107 -5.3667291e-21)
(52.25666 16.786398 5.3848385e-21)
(52.52256 16.522656 -1.6261104e-20)
(52.773357 16.260787 5.4722191e-21)
(53.008078 15.999623 0)
(53.225553 15.737911 -1.6920898e-20)
(53.4244 15.47429 -5.763182e-21)
(53.603025 15.207246 -5.9120617e-21)
(53.759614 14.935155 -2.4399431e-20)
(53.892182 14.656727 2.5314969e-20)
(53.997546 14.366404 6.485995e-25)
(54.073295 14.069374 -3.4366931e-20)
(54.118525 13.760119 0)
(54.127521 13.431636 3.1409374e-20)
(54.09868 13.08744 -3.3845366e-20)
(54.029669 12.722192 0)
(53.91894 12.335173 -5.0443121e-20)
(53.767631 11.926777 1.114977e-20)
(53.581522 11.500589 -6.1871261e-20)
(53.373875 11.066013 8.2182888e-20)
(53.166887 10.640219 1.0479216e-19)
(52.986454 10.244559 0)
(52.849427 9.8927921 5.0086753e-20)
(52.755892 9.5835769 1.7088685e-20)
(52.693996 9.3063348 -1.7281312e-20)
(52.650493 9.0499628 1.7371892e-20)
(52.616826 8.8070342 1.7397381e-20)
(52.588007 8.5737946 -1.7379101e-20)
(52.561217 8.3481547 0)
(52.535368 8.1290646 7.4511143e-24)
(52.509785 7.915913 1.7200194e-20)
(52.484587 7.7083558 -1.7102474e-20)
(52.459904 7.5062359 0)
(52.435024 7.3093332 1.6864453e-20)
(52.410401 7.1172756 -2.8433434e-19)
(52.386105 6.9299625 -1.6575605e-20)
(52.361794 6.7474188 1.6409465e-20)
(52.337307 6.569079 -1.1371745e-19)
(52.31291 6.395085 -1.6073115e-20)
(52.288874 6.2251628 -1.2707716e-19)
(52.264603 6.0593091 0)
(52.240729 5.8971951 0)
(52.217128 5.7389189 0)
(52.193306 5.5842007 -1.132367e-19)
(52.169878 5.4328998 3.4959797e-24)
(52.146804 5.2850323 -7.3413321e-21)
(52.123594 5.1404032 0)
(52.100825 4.998882 -2.2816071e-19)
(52.078476 4.8604732 -7.0231701e-21)
(52.056039 4.7249959 2.2823803e-19)
(52.034055 4.5923558 -6.8091918e-21)
(52.01252 4.4624963 -2.0776112e-19)
(51.990926 4.3352937 -2.1104318e-19)
(51.969812 4.2106383 0)
(51.949145 4.0884705 4.1482183e-19)
(51.928491 3.9686982 1.8828247e-19)
(51.908347 3.8512091 6.1708847e-21)
(51.888653 3.7359565 -1.9412772e-19)
(51.869051 3.6228475 -1.9081492e-19)
(51.849958 3.5117986 0)
(51.831326 3.4027457 1.7851324e-19)
(51.812853 3.295624 5.6579341e-21)
(51.794892 3.1903521 0)
(51.777431 3.0868697 1.6926359e-19)
(51.760206 2.9851258 -3.3250167e-19)
(51.743419 2.8850325 7.8322831e-26)
(51.72715 2.7865281 3.3103421e-19)
(51.711124 2.6894823 -6.5520157e-19)
(51.695384 2.594015 0)
(51.680198 2.4997462 3.1336493e-19)
(51.665153 2.406987 0)
(51.65047 2.3154405 2.9727864e-19)
(51.636441 2.2250157 9.2637368e-21)
(51.622699 2.1358474 -4.5463146e-21)
(51.609376 2.0478025 -2.4582589e-24)
(51.596634 1.9606691 -2.8027237e-19)
(51.584433 1.8744365 -2.7075776e-19)
(51.57252 1.7891724 -4.2175057e-21)
(51.560969 1.7046694 0)
(51.550017 1.6207177 0)
(51.539447 1.5374381 -2.550155e-19)
(51.529242 1.4547623 5.0041988e-19)
(51.51958 1.3724464 0)
(51.510363 1.290497 0)
(51.501524 1.2089824 -4.7442e-19)
(51.493173 1.1276427 -9.254065e-19)
(51.485306 1.0464366 1.776563e-21)
(51.477861 0.96533616 8.9228327e-19)
(51.470887 0.88423022 8.7355912e-19)
(51.46445 0.8029048 -4.292782e-19)
(51.458429 0.72146585 0)
(51.452927 0.63957221 -8.0664514e-22)
(51.447867 0.55730812 -4.0428867e-19)
(51.443416 0.47419638 0)
(51.439306 0.39071517 0)
(51.436077 0.30558174 -3.8177415e-19)
(51.433077 0.22057716 -5.4898261e-22)
(51.431494 0.13248457 3.6771493e-19)
(51.430081 0.045543944 0)
(36.882854 27.286251 4.6074813e-21)
(37.740971 26.808816 9.0633086e-21)
(38.571416 26.392375 -4.3671452e-21)
(39.369304 25.973493 8.4240932e-21)
(40.133358 25.546699 -8.1393555e-21)
(40.863945 25.116407 -7.8753585e-21)
(41.562237 24.687056 0)
(42.229867 24.261469 -1.0041052e-24)
(42.86879 23.841715 7.1928028e-21)
(43.481183 23.429408 3.1962607e-24)
(44.069336 23.025708 6.8130314e-21)
(44.635531 22.631308 6.6397672e-21)
(45.181901 22.246443 1.6623835e-24)
(45.710274 21.870948 6.3366081e-21)
(46.222027 21.504381 6.200242e-21)
(46.718061 21.146153 -4.2999491e-25)
(47.198773 20.795661 -5.9605224e-21)
(47.664125 20.452453 9.3502707e-25)
(48.11386 20.116335 8.6945518e-25)
(48.547771 19.787334 -5.6752256e-21)
(48.965799 19.465578 -7.1565567e-26)
(49.368055 19.151231 5.5352008e-21)
(49.754924 18.844357 -2.2796834e-25)
(50.126901 18.544792 1.6301078e-20)
(50.484433 18.252155 -1.6198557e-20)
(50.827831 17.965902 -1.075536e-20)
(51.157242 17.685364 1.6094968e-20)
(51.472629 17.409781 0)
(51.773773 17.138313 0)
(52.060273 16.870052 1.6236723e-20)
(52.331539 16.604012 -5.4601846e-21)
(52.58679 16.339131 -5.5239595e-21)
(52.825049 16.07426 -2.2436831e-20)
(53.045128 15.808148 5.7181964e-21)
(53.245622 15.539423 1.7566242e-20)
(53.424895 15.266545 6.0241152e-21)
(53.581054 14.987875 -1.2462867e-20)
(53.711832 14.702186 -6.4806341e-21)
(53.815116 14.402806 -2.6992996e-20)
(53.887782 14.098557 3.5432525e-20)
(53.928383 13.777733 7.5731436e-21)
(53.931279 13.438555 -8.1430848e-21)
(53.89573 13.082529 0)
(53.819492 12.704854 9.5937965e-21)
(53.701882 12.305436 -1.0545086e-20)
(53.545482 11.885708 0)
(53.358477 11.451203 5.1705986e-20)
(53.15727 11.014181 -1.423342e-20)
(52.966085 10.594139 -3.0829709e-20)
(52.80856 10.210985 -1.6309252e-20)
(52.695173 9.8729803 0)
(52.620879 9.5742444 -8.5854575e-20)
(52.572644 9.3034217 -3.4625089e-20)
(52.538511 9.0505428 3.4742168e-20)
(52.51177 8.8094384 -5.2129285e-20)
(52.488571 8.57723 -6.93905e-20)
(52.466629 8.3522374 0)
(52.445202 8.1335989 7.5575889e-24)
(52.423714 7.9207733 1.7135501e-20)
(52.402396 7.7134974 -1.3624602e-19)
(52.381431 7.5115888 -1.6910405e-20)
(52.360003 7.3148666 -1.3423221e-19)
(52.338678 7.1229448 1.3307239e-19)
(52.317543 6.9357145 -1.3183666e-19)
(52.296208 6.7532636 2.6103022e-19)
(52.27453 6.5749332 -1.2913461e-19)
(52.252822 6.4009754 1.2768772e-19)
(52.231372 6.2310357 1.2619091e-19)
(52.209516 6.065164 -1.0907853e-19)
(52.187973 5.9030122 -1.5385353e-20)
(52.166596 5.7446762 -1.2147753e-19)
(52.144856 5.5898861 1.1984277e-19)
(52.123442 5.4385091 -1.3295884e-19)
(52.102295 5.2905463 7.2814881e-21)
(52.080897 5.1458175 7.1760773e-21)
(52.059879 5.004198 2.2622971e-19)
(52.03921 4.8656741 0)
(52.018354 4.7300773 -2.1938915e-19)
(51.997898 4.597325 6.7490365e-21)
(51.977824 4.4673331 2.125394e-19)
(51.957608 4.3400001 2.0912809e-19)
(51.937823 4.2152211 -6.4288388e-21)
(51.918425 4.0929128 -4.0466322e-19)
(51.89897 3.9730067 1.9896427e-19)
(51.87998 3.8553892 0)
(51.861387 3.739997 1.9228373e-19)
(51.842827 3.6267549 1.8308372e-19)
(51.824737 3.5155793 5.8038676e-21)
(51.807062 3.406392 1.7678971e-19)
(51.789497 3.2991394 5.6029202e-21)
(51.772408 3.1937436 0)
(51.75578 3.0901294 2.2598059e-24)
(51.739347 2.9882583 5.3100914e-21)
(51.723318 2.8880394 -3.389685e-19)
(51.707766 2.7894077 -6.5547853e-19)
(51.692434 2.6922373 3.26842e-19)
(51.677348 2.59665 -4.9370436e-21)
(51.66279 2.502259 -6.2042596e-19)
(51.648357 2.4093687 2.9978293e-19)
(51.634235 2.3177248 9.3420504e-21)
(51.620752 2.2271825 5.6289621e-26)
(51.607544 2.1378939 5.4082546e-26)
(51.59471 2.0497575 2.782499e-19)
(51.582426 1.9625238 2.8174468e-19)
(51.570676 1.8761916 -4.2559924e-21)
(51.559194 1.7908176 2.6715811e-19)
(51.548031 1.706236 -2.048075e-21)
(51.53745 1.6221929 2.6124955e-19)
(51.527246 1.5388144 5.0083696e-19)
(51.517374 1.4560586 3.8692585e-21)
(51.50802 1.373666 -3.7961831e-21)
(51.499107 1.2916279 -1.5195167e-26)
(51.490554 1.210026 -4.6769061e-19)
(51.48246 1.1286169 4.6060137e-19)
(51.474839 1.047329 -4.5008894e-19)
(51.467624 0.96614608 -4.415156e-19)
(51.460856 0.88496942 2.5355623e-24)
(51.454609 0.80357544 4.2482045e-19)
(51.448765 0.72205636 0)
(51.443416 0.64010023 4.0871224e-19)
(51.438494 0.55775946 4.0165134e-19)
(51.434166 0.47458276 3.2606826e-27)
(51.430157 0.39102876 -3.8635726e-19)
(51.427017 0.30583047 0)
(51.424083 0.22074959 -3.7087716e-19)
(51.422544 0.13258297 8.8797825e-23)
(51.421151 0.04558497 -8.6916197e-23)
(36.428051 26.593703 0)
(37.269083 26.190279 -4.2025475e-21)
(38.088648 25.840008 8.1450102e-21)
(38.882429 25.483838 -7.8988897e-21)
(39.647977 25.116949 -1.5327351e-20)
(40.384392 24.742843 2.2346182e-20)
(41.09189 24.365465 7.2443545e-21)
(41.771325 23.987515 -1.4111107e-20)
(42.423967 23.611089 6.8765517e-21)
(43.051366 23.237909 -1.3423003e-20)
(43.655237 22.869311 -1.3113528e-20)
(44.237344 22.506229 6.4134203e-21)
(44.799371 22.149205 -1.2554806e-20)
(45.342809 21.798438 0)
(45.868847 21.45386 0)
(46.378323 21.115244 0)
(46.871709 20.78231 0)
(47.349158 20.454839 0)
(47.810629 20.132758 -1.1323911e-20)
(48.256055 19.816126 -1.1183412e-20)
(48.685427 19.505084 -5.529943e-21)
(49.098852 19.199793 -5.4754027e-21)
(49.496581 18.900339 -1.0867363e-20)
(49.878943 18.606646 0)
(50.246247 18.318463 -5.3766222e-21)
(50.598707 18.03538 1.6091772e-20)
(50.936407 17.756854 0)
(51.259273 17.48223 0)
(51.567062 17.210757 5.4031756e-21)
(51.859354 16.941594 -5.4419558e-21)
(52.135544 16.673806 1.1005386e-20)
(52.394836 16.406368 1.1161221e-20)
(52.636231 16.138148 -2.204774e-24)
(52.858517 15.867902 0)
(53.060253 15.594247 -1.1918059e-20)
(53.239764 15.315631 0)
(53.39506 15.030474 1.9125253e-20)
(53.523586 14.737397 6.2200638e-25)
(53.624286 14.429126 -1.0640885e-24)
(53.693367 14.116654 3.660424e-20)
(53.728637 13.784234 -3.1401649e-20)
(53.725057 13.434309 -3.3842566e-20)
(53.682441 13.066044 0)
(53.59888 12.675844 0)
(53.474807 12.264304 0)
(53.314634 11.834249 -3.6631362e-20)
(53.129371 11.393599 -6.7444143e-20)
(52.938482 10.957606 -1.4751938e-20)
(52.766905 10.547016 -4.7457346e-20)
(52.634078 10.178368 0)
(52.543726 9.8539859 0)
(52.487115 9.5647249 6.8907156e-20)
(52.451212 9.2994818 0)
(52.425638 9.0496515 -8.6784271e-20)
(52.405453 8.81021 1.7341182e-20)
(52.387742 8.5790229 1.7305808e-20)
(52.370615 8.3547391 5.1731688e-20)
(52.353625 8.1366393 -1.3729073e-19)
(52.336266 7.9242275 1.365206e-19)
(52.318868 7.7173384 1.1866267e-19)
(52.301668 7.5157261 1.6825615e-20)
(52.283727 7.3192708 1.5018832e-19)
(52.265741 7.1275694 1.3231006e-19)
(52.24781 6.9404907 -1.6383797e-20)
(52.229486 6.7582067 -1.2967318e-19)
(52.210654 6.5799412 2.5652963e-19)
(52.191674 6.4060879 1.426509e-19)
(52.172848 6.2361806 -1.5659933e-20)
(52.15344 6.0703436 2.629264e-19)
(52.134265 5.9082053 3.4861102e-25)
(52.115145 5.7498504 9.0388335e-20)
(52.095518 5.5950297 1.3374143e-19)
(52.07615 5.4436181 0)
(52.056961 5.295593 0)
(52.037404 5.1507974 0)
(52.018169 5.0091131 0)
(51.999205 4.8705 0)
(51.979958 4.7348092 0)
(51.961055 4.6019714 2.0732012e-19)
(51.942467 4.471867 6.5807881e-21)
(51.923654 4.3444237 2.071878e-19)
(51.90522 4.2195421 0)
(51.887114 4.0971089 2.0041089e-19)
(51.86888 3.9770858 3.5902154e-24)
(51.851065 3.8593571 6.0539844e-21)
(51.833593 3.7438383 -5.9505031e-21)
(51.816095 3.630477 -1.9299318e-19)
(51.799026 3.5191888 1.1493634e-20)
(51.782325 3.4098778 -1.1290152e-20)
(51.765686 3.3025051 1.1094471e-20)
(51.749486 3.1969969 -1.7437314e-19)
(51.733706 3.0932598 2.3582339e-24)
(51.718081 2.9912698 -5.2564638e-21)
(51.702824 2.8909343 3.2520793e-19)
(51.688004 2.792183 3.2947493e-19)
(51.67338 2.6948958 0)
(51.65896 2.5991947 3.1274064e-19)
(51.64504 2.5046888 3.0222893e-19)
(51.631232 2.4116716 4.7125044e-21)
(51.617684 2.3199371 0)
(51.604755 2.2292821 -4.5374954e-21)
(51.592094 2.1398783 -2.8057028e-19)
(51.579762 2.0516526 0)
(51.567943 1.9643252 -2.7881288e-19)
(51.556652 1.8778972 8.4165383e-21)
(51.545611 1.7924152 -5.3699068e-19)
(51.534844 1.7077587 4.0532291e-21)
(51.524639 1.6236281 -2.5453159e-19)
(51.514809 1.5401541 -2.4973959e-19)
(51.50528 1.457319 -4.9006088e-19)
(51.496239 1.3748538 0)
(51.487635 1.2927314 0)
(51.479374 1.2110419 4.6094745e-19)
(51.471542 1.1295667 4.5574228e-19)
(51.464171 1.0482007 4.4707079e-19)
(51.457192 0.96693645 4.3343772e-19)
(51.450633 0.88569013 -4.268385e-19)
(51.44458 0.80423096 1.6419002e-21)
(51.438917 0.72263301 -8.0523276e-22)
(51.433724 0.64061574 -8.087633e-19)
(51.428943 0.558201 -7.7464992e-22)
(51.424739 0.47496 -3.8900188e-19)
(51.420835 0.39133546 7.6265856e-19)
(51.417784 0.30607363 3.7453254e-19)
(51.414919 0.22091808 7.3388894e-19)
(51.413424 0.13267917 3.5994875e-19)
(51.412053 0.045625543 3.5214637e-19)
(36.046533 25.893497 0)
(36.871373 25.564305 -3.9175373e-21)
(37.677952 25.275976 1.5250917e-20)
(38.463338 24.978149 -1.1140169e-20)
(39.224949 24.66749 7.2406741e-21)
(39.961333 24.346727 -7.0630228e-21)
(40.672128 24.019182 -6.8962744e-21)
(41.357616 23.687337 1.3476604e-20)
(42.018501 23.353244 -6.5918895e-21)
(42.655787 23.018665 6.4524312e-21)
(43.27067 22.685045 1.8964367e-20)
(43.864436 22.353497 -1.8599055e-20)
(44.438358 22.0248 1.8258802e-20)
(44.993599 21.699437 -5.9816154e-21)
(45.531131 21.377647 0)
(46.051682 21.059504 0)
(46.555723 20.744999 1.1476553e-24)
(47.043491 20.434121 5.6391133e-21)
(47.51506 20.126922 5.571939e-21)
(47.970443 19.823521 5.513062e-21)
(48.409667 19.524084 5.4636961e-21)
(48.832816 19.228782 5.4239177e-21)
(49.240047 18.937725 -1.078781e-20)
(49.631561 18.650896 1.6112599e-20)
(50.007542 18.368138 5.3599383e-21)
(50.368104 18.089146 5.3576786e-21)
(50.713254 17.813483 0)
(51.04286 17.540589 0)
(51.356636 17.269795 1.6293451e-20)
(51.654126 17.000324 -1.6452051e-20)
(51.934694 16.731293 0)
(52.197514 16.46171 5.6486199e-21)
(52.441553 16.190463 1.7285697e-20)
(52.665561 15.916311 0)
(52.868059 15.637859 -6.075938e-21)
(53.047327 15.353548 -6.1388645e-25)
(53.201286 15.061932 1.9607143e-20)
(53.327011 14.761149 2.0515955e-20)
(53.424496 14.444202 -7.1577167e-21)
(53.489579 14.122821 4.6066444e-24)
(53.518822 13.77874 -4.6962983e-24)
(53.508374 13.417702 3.5234076e-20)
(53.458413 13.036923 0)
(53.367664 12.634226 -1.0493015e-20)
(53.23795 12.211118 5.784031e-20)
(53.075948 11.772235 1.2776491e-20)
(52.895817 11.328311 6.8382523e-25)
(52.719551 10.897348 -1.5240361e-20)
(52.570963 10.499676 8.0839646e-20)
(52.463621 10.146745 5.9507003e-25)
(52.394992 9.8353431 -1.7103068e-20)
(52.354336 9.5545087 -6.9056257e-20)
(52.329511 9.294124 6.9308339e-20)
(52.311788 9.0470187 6.9342818e-20)
(52.297853 8.8091614 1.3846767e-19)
(52.285529 8.5790302 0)
(52.27319 8.3555445 -6.8732331e-20)
(52.260658 8.1380891 0)
(52.247459 7.9261888 -2.7181336e-19)
(52.234019 7.7198077 -1.3495464e-19)
(52.220628 7.5185808 -1.6736117e-20)
(52.206208 7.3224849 1.6592121e-20)
(52.1916 7.131096 -1.3149826e-19)
(52.176912 6.9442393 1.4645671e-19)
(52.161635 6.7622007 -3.2200891e-20)
(52.145685 6.5840562 -1.114432e-19)
(52.129472 6.4103814 -1.2587508e-19)
(52.113308 6.2405567 0)
(52.096381 6.0748102 -1.0742527e-19)
(52.079608 5.9127402 -1.363203e-19)
(52.062779 5.7544081 0)
(52.045297 5.5996009 -1.3262672e-19)
(52.028009 5.4481996 2.9054981e-20)
(52.010808 5.3001465 -1.4316167e-20)
(51.993123 5.1553198 0)
(51.975699 5.0136072 -2.2226164e-19)
(51.958469 4.8749326 -1.3677453e-20)
(51.940858 4.7391756 1.3463886e-20)
(51.923534 4.606282 -2.1200806e-19)
(51.906456 4.4760862 2.1512235e-19)
(51.889071 4.3485551 4.4261412e-24)
(51.872011 4.2235947 -1.2614402e-20)
(51.855219 4.1010536 2.0467018e-19)
(51.838228 3.9809322 -1.9512781e-19)
(51.821607 3.8631114 0)
(51.805277 3.7474801 1.885275e-19)
(51.788861 3.634015 1.7948095e-19)
(51.772831 3.5226296 5.6889771e-21)
(51.757121 3.4132068 -1.7885727e-19)
(51.741426 3.305726 1.7021796e-19)
(51.726131 3.2001178 1.8337735e-19)
(51.711214 3.0962672 -1.7480902e-19)
(51.696413 2.9941673 -5.2024065e-21)
(51.681941 2.8937243 5.1086631e-21)