/*--------------------------------*- C++ -*----------------------------------*\
| =========                 |                                                 |
| \\      /  F ield         | OpenFOAM: The Open Source CFD Toolbox           |
|  \\    /   O peration     | Version:  2406                                  |
|   \\  /    A nd           | Website:  www.openfoam.com                      |
|    \\/     M anipulation  |                                                 |
\*---------------------------------------------------------------------------*/
FoamFile
{
    version     2.0;
    format      ascii;
    arch        "LSB;label=32;scalar=64";
    class       volScalarField;
    location    "0.01";
    object      Ma;
}
// * * * * * * * * * * * * * * * * * * * * * * * * * * * * * * * * * * * * * //

dimensions      [0 0 0 0 0 0 0];

internalField   nonuniform List<scalar> 
2065
(
0.15494213
0.15438405
0.15150471
0.18871866
0.18521658
0.18155406
0.17821989
0.17506086
0.17188014
0.16899313
0.16632832
0.1641414
0.16220797
0.16077999
0.15943828
0.15820089
0.15695106
0.156026
0.15541566
0.15517193
0.15498776
0.15438925
0.15152937
0.12085945
0.17059651
0.19265746
0.19981915
0.20213396
0.20241837
0.20133481
0.19933234
0.19713483
0.19452031
0.19158076
0.18832964
0.18468557
0.1811809
0.17791795
0.1748252
0.17167874
0.1688402
0.16623705
0.1640635
0.16215922
0.1607679
0.15943349
0.15820921
0.15695887
0.15602602
0.15544722
0.15519747
0.15500077
0.15439467
0.15154763
0.13264151
0.17948792
0.19792518
0.20300993
0.20383165
0.2034136
0.20206642
0.19951897
0.19699848
0.1941334
0.19095034
0.1875657
0.18429886
0.18059421
0.17736674
0.17434833
0.1713354
0.16858113
0.16607507
0.16397709
0.16210918
0.16074479
0.15942009
0.15820893
0.15695706
0.15603257
0.15547157
0.15520577
0.15500183
0.15440009
0.15156097
0.14285797
0.18601909
0.20212197
0.20551462
0.20587078
0.20513441
0.20319304
0.19978232
0.19684715
0.19384607
0.19057489
0.18717067
0.18364213
0.17995845
0.17691326
0.17398515
0.17097705
0.16833004
0.16588855
0.16385319
0.16203968
0.16071529
0.15940627
0.15820699
0.15696152
0.1560478
0.15549294
0.15522635
0.15500667
0.15440511
0.15158781
0.16017196
0.197147
0.20874919
0.21060926
0.20928222
0.20673516
0.20372959
0.20034102
0.19695943
0.19332638
0.18982175
0.18629391
0.18289459
0.17927257
0.1762639
0.17340876
0.1705472
0.16800001
0.16567214
0.16372545
0.16196678
0.16067294
0.15937475
0.15820087
0.1569758
0.15607167
0.15551653
0.15525107
0.1550196
0.15441083
0.15160831
0.18269743
0.20882807
0.21462992
0.21377857
0.21096157
0.20794517
0.20474463
0.20102366
0.1968858
0.19300974
0.18942948
0.18571727
0.18228588
0.17848135
0.17574846
0.17286059
0.17004077
0.16764084
0.16542061
0.16356756
0.16187202
0.16062274
0.15934069
0.15818969
0.15699119
0.15611014
0.15554217
0.15526499
0.15503035
0.15441851
0.15162349
0.20078019
0.21640776
0.21887242
0.21666214
0.21396519
0.21059207
0.20609549
0.20099921
0.19630387
0.19268291
0.18844319
0.18477777
0.18104127
0.17782724
0.17496764
0.17217148
0.16952206
0.16727012
0.16520151
0.16340157
0.16177027
0.16055731
0.15929403
0.15817144
0.15701394
0.15615071
0.15556195
0.15528582
0.15504684
0.15442853
0.15163975
0.21772234
0.22499468
0.22455941
0.22077471
0.21632772
0.21126043
0.20585476
0.20026854
0.19571929
0.19154826
0.1876565
0.18378532
0.18031389
0.1767857
0.17401079
0.17127362
0.16884184
0.1667942
0.16485783
0.1631935
0.16163148
0.16047079
0.15923768
0.15815548
0.15704252
0.15618472
0.15557832
0.15531321
0.15506383
0.15443968
0.15165366
0.22858658
0.22941664
0.22604018
0.22123312
0.21596386
0.21017269
0.20392537
0.19913919
0.19449841
0.19040842
0.18606609
0.18230077
0.17882375
0.1755422
0.17307407
0.17038684
0.16818028
0.16633436
0.16451019
0.1629241
0.16147594
0.16037026
0.1591836
0.15813002
0.15705089
0.15623352
0.15560355
0.155353
0.15507682
0.15445256
0.15166724
0.22974769
0.22834621
0.22424141
0.21886234
0.21219774
0.2061364
0.20140738
0.19669316
0.19224443
0.18764148
0.1838406
0.18063722
0.17713522
0.17415587
0.1715296
0.16915492
0.1673221
0.1656513
0.16403246
0.16261925
0.1612855
0.16024582
0.15910399
0.15809979
0.15705866
0.15627392
0.15563149
0.15538133
0.15509155
0.15446978
0.1516828
0.22690447
0.22271011
0.2171008
0.2124503
0.20726752
0.20301273
0.19777608
0.19419064
0.18994158
0.18529571
0.18205427
0.17795321
0.1752633
0.17220047
0.17003567
0.16794188
0.16630206
0.16492182
0.16345801
0.16221717
0.16106289
0.16009696
0.15901848
0.15806408
0.15707828
0.15629985
0.15565873
0.15541798
0.15511134
0.15449247
0.15170353
0.21708565
0.21117584
0.20823917
0.20375114
0.19987433
0.19583536
0.19176212
0.18853728
0.18379271
0.18054062
0.17754798
0.17511187
0.1725099
0.16999196
0.16821906
0.16649625
0.16523594
0.16413352
0.16290222
0.16182586
0.16081516
0.15991815
0.15891524
0.15802106
0.15711438
0.15632131
0.15568864
0.15545961
0.15513245
0.15451201
0.15173043
0.20340283
0.19949479
0.19778361
0.19403726
0.19182452
0.18805244
0.18582845
0.1826833
0.17907573
0.17701882
0.17440535
0.1723185
0.1694151
0.16754063
0.1660022
0.16475796
0.16390146
0.16310949
0.1621539
0.16132694
0.16051182
0.15972408
0.15881891
0.15798214
0.15713831
0.15636695
0.15572439
0.15551267
0.15515326
0.1545297
0.1517567
0.19011839
0.18716755
0.18605544
0.18343549
0.18215551
0.17925642
0.17777446
0.17507716
0.17363353
0.17085662
0.16902437
0.16709267
0.16555373
0.16493896
0.16377929
0.16314243
0.16263276
0.16215805
0.1614108
0.16077982
0.16020985
0.15950985
0.15871123
0.15793306
0.1571667
0.15642523
0.15575876
0.15556255
0.15517443
0.15455598
0.15179496
0.17580032
0.17346777
0.17278445
0.17099047
0.17011475
0.16829137
0.16756712
0.16576519
0.16505851
0.163306
0.16277213
0.1626655
0.1625065
0.16200327
0.161418
0.16125003
0.16118002
0.1610288
0.1606076
0.16027468
0.15985084
0.1592879
0.15860498
0.15789383
0.15719462
0.15645016
0.1557919
0.1555947
0.15519121
0.1545897
0.15181171
0.16345124
0.16176264
0.16143665
0.1606488
0.16037419
0.15976374
0.15974287
0.15949372
0.15939916
0.15885629
0.15859279
0.1588316
0.1585285
0.15839913
0.15876971
0.15889559
0.1593042
0.15963624
0.15956561
0.15962922
0.15950167
0.15906773
0.15849765
0.15783748
0.15720447
0.15648578
0.1558204
0.15562317
0.15521837
0.15462074
0.15182496
0.1499924
0.14864479
0.1486054
0.14844382
0.14876886
0.14886597
0.14911344
0.14912988
0.14954151
0.14992485
0.15076067
0.1518664
0.15288992
0.15456372
0.15588966
0.15668161
0.15774836
0.15848014
0.15872493
0.1590723
0.15916493
0.15885197
0.15839327
0.1577782
0.15721217
0.15653426
0.15585408
0.15565625
0.15524701
0.15464805
0.15182057
0.13526512
0.13418021
0.13473226
0.13499465
0.13595098
0.13643304
0.13748714
0.1379011
0.13989573
0.14112501
0.14420184
0.14639998
0.14917766
0.15139237
0.15311663
0.1545939
0.15626738
0.15731409
0.15794814
0.15861408
0.15880622
0.15867435
0.15830256
0.15773199
0.15723273
0.15656963
0.15588685
0.15570023
0.15527381
0.1546788
0.15181879
0.1213501
0.12059198
0.12271443
0.12358932
0.12570217
0.12668204
0.12910686
0.13064022
0.13438277
0.13626641
0.14025813
0.14290203
0.14565038
0.14767463
0.149893
0.1521049
0.15429009
0.15587254
0.15696603
0.15801694
0.15850272
0.1584937
0.15821514
0.15768082
0.15725062
0.15659696
0.15591329
0.15575712
0.15532717
0.15470189
0.15184251
0.10490355
0.10480068
0.10814108
0.11009565
0.11311021
0.11541698
0.11893772
0.12151295
0.1264535
0.12869432
0.13343385
0.13659231
0.13993538
0.14336641
0.14691288
0.15020368
0.15288876
0.15491193
0.15635776
0.15754887
0.1581918
0.15832982
0.15813958
0.15763192
0.15725303
0.15662635
0.15594108
0.15579188
0.15535585
0.15472656
0.15186559
0.087037608
0.088893511
0.092145464
0.095241976
0.098757591
0.10237723
0.10671202
0.11085017
0.11683771
0.12150021
0.12715723
0.13235659
0.13734807
0.14209311
0.14632664
0.14996198
0.15271916
0.15479681
0.15631292
0.15744766
0.15789631
0.1581956
0.15805214
0.15759291
0.15725804
0.15666058
0.15597266
0.15580667
0.15540418
0.15475612
0.15189438
0.079901701
0.082418394
0.085340957
0.088676865
0.092457026
0.096563567
0.10137688
0.1065049
0.11266182
0.11932408
0.12657515
0.13227145
0.13780861
0.14280432
0.14705128
0.15059872
0.15309916
0.15502321
0.15641556
0.15740489
0.15775673
0.15807489
0.15796622
0.15757407
0.15726282
0.15667519
0.15601693
0.15582299
0.15544749
0.15479117
0.15188368
0.087317441
0.088803491
0.090881444
0.093476082
0.096566925
0.10027305
0.10472669
0.10939633
0.11477974
0.12061069
0.12756647
0.13472755
0.14146559
0.14605549
0.14926835
0.15187224
0.15371407
0.15533299
0.15651317
0.15739769
0.15775826
0.15800847
0.1578993
0.15755041
0.15726281
0.15668972
0.15604407
0.1558323
0.15545472
0.15483199
0.1518576
0.11691584
0.11697292
0.1170158
0.11720096
0.11778306
0.11839557
0.11941866
0.12213013
0.12573212
0.12986431
0.13564829
0.1413557
0.14546278
0.14842234
0.15074124
0.15277237
0.15439009
0.15579922
0.1567394
0.15748953
0.1577982
0.15801103
0.15784806
0.15752616
0.15725433
0.15671983
0.156087
0.15584999
0.1554561
0.1548739
0.15186031
0.14214149
0.14292522
0.14375199
0.14516177
0.14625247
0.14777397
0.15110425
0.15355004
0.15539814
0.1559296
0.15520702
0.15410322
0.15279279
0.1527749
0.15391645
0.15522612
0.15640202
0.15733073
0.15769634
0.15797002
0.15792343
0.15803979
0.15783582
0.15750636
0.15725081
0.15673636
0.15612465
0.1558699
0.15546533
0.15491925
0.15186862
0.14726973
0.14884846
0.15168975
0.15308131
0.15496563
0.15879788
0.16306847
0.16599835
0.16827322
0.16902254
0.16915665
0.16979423
0.16925245
0.16598011
0.16426197
0.16312914
0.16197858
0.16081294
0.15959486
0.15882069
0.15819984
0.15814207
0.157852
0.15748349
0.15724742
0.15674722
0.15613572
0.15588237
0.15548473
0.15497423
0.15187422
0.14464326
0.14679334
0.14947848
0.15235574
0.15604006
0.16021901
0.1640671
0.16821925
0.17360598
0.1776022
0.18011156
0.18054291
0.17813597
0.17376659
0.16991961
0.16692634
0.16414204
0.1619229
0.16012411
0.15903343
0.15830785
0.15822984
0.15788844
0.15748278
0.15724238
0.15675614
0.15614672
0.15590153
0.15551191
0.1550358
0.1519064
0.14824924
0.15114629
0.15496699
0.15885781
0.16312987
0.16714004
0.17161866
0.17656111
0.18007845
0.18223166
0.18314334
0.18200258
0.17866156
0.17386456
0.16974589
0.16668037
0.16391497
0.1617776
0.16008082
0.15902788
0.15832549
0.15823802
0.15790382
0.15749978
0.15724803
0.15675955
0.15616585
0.15593138
0.15555215
0.15510421
0.15185824
0.16048976
0.16348651
0.16603555
0.16839719
0.17082705
0.17316148
0.1757718
0.17780363
0.17924123
0.18005361
0.18019409
0.1782398
0.17455434
0.17042641
0.16755471
0.16518155
0.16297885
0.16123003
0.15989242
0.15896452
0.15829378
0.1582023
0.15789089
0.15750994
0.15724567
0.15676683
0.15620467
0.15595833
0.15561259
0.15517504
0.15182103
0.1604434
0.16204776
0.16371452
0.16537777
0.16718419
0.16881659
0.17007314
0.17054572
0.17053799
0.17007188
0.16857078
0.16623112
0.16478743
0.16344883
0.1624819
0.16137686
0.16069837
0.15977938
0.15913457
0.15848323
0.15801099
0.15800468
0.15775249
0.15743324
0.15724263
0.15678418
0.1562613
0.15600443
0.15566215
0.15524652
0.15173923
0.15088378
0.15079975
0.15100896
0.1511617
0.15131726
0.1513401
0.15165288
0.15220475
0.15246409
0.15248176
0.15289238
0.15303476
0.15355657
0.1532776
0.15396642
0.15466507
0.15557426
0.15613872
0.15672743
0.15710122
0.15738458
0.15766765
0.15763249
0.15737456
0.1572656
0.15682277
0.15630736
0.15606595
0.15575238
0.15531762
0.15164731
0.11981382
0.11967566
0.12083479
0.12189707
0.12342443
0.12523085
0.12736741
0.12965722
0.13188816
0.13371296
0.13554621
0.13797056
0.14162865
0.14497086
0.14861558
0.15140806
0.15362538
0.15513619
0.15620282
0.15698489
0.15740245
0.15768379
0.15765883
0.15740004
0.15731182
0.15686122
0.15638762
0.1561521
0.15581987
0.15538263
0.15154039
0.10203276
0.10337857
0.10498979
0.10689032
0.10917335
0.11174489
0.11455434
0.11745443
0.12061279
0.12415696
0.12847454
0.13290381
0.13850125
0.14438508
0.14903849
0.15203972
0.15423775
0.15572865
0.15673054
0.15744796
0.15777793
0.15788864
0.15778558
0.15747254
0.15735999
0.15692329
0.15650016
0.15623798
0.15586141
0.15543469
0.15143368
0.10232379
0.1035411
0.10494926
0.10662742
0.10871691
0.11121537
0.11418562
0.11746718
0.12113437
0.12521614
0.12997453
0.13496653
0.14159384
0.14877672
0.15445252
0.15733467
0.15868952
0.15922725
0.15935296
0.15947582
0.15908115
0.15863481
0.1582702
0.15770992
0.15750004
0.15703773
0.15659516
0.15629848
0.155947
0.15548573
0.15136112
0.10722253
0.10824714
0.10962584
0.11137932
0.11354009
0.11617358
0.11943511
0.12323282
0.12780131
0.13300883
0.13924214
0.14653404
0.1547555
0.1609885
0.16354029
0.16389291
0.16330353
0.162437
0.1615588
0.16077886
0.15977815
0.15904576
0.15845758
0.15777382
0.15753778
0.15706821
0.15665196
0.15636516
0.15607994
0.15553566
0.15137108
0.11817685
0.1201422
0.12237778
0.12485982
0.12760773
0.13077099
0.13448335
0.13876702
0.14378645
0.14911726
0.15395452
0.15809733
0.16165472
0.16371265
0.16427494
0.1639181
0.16321347
0.16235486
0.16145051
0.16061067
0.15961924
0.15892667
0.1583572
0.15771514
0.15749979
0.15704405
0.15667182
0.15642361
0.15616988
0.15558217
0.15128116
0.12695605
0.12867601
0.13055128
0.13267455
0.13507885
0.13782593
0.14093586
0.14442572
0.1483482
0.15250031
0.15592996
0.1586278
0.16059791
0.162019
0.16237116
0.16205377
0.16135056
0.16057315
0.15967743
0.15902088
0.15846084
0.15817755
0.15784647
0.1574863
0.15741443
0.15701352
0.15668401
0.15644569
0.1562471
0.15562291
0.15119461
0.12833483
0.12976866
0.13142314
0.13334258
0.13559104
0.13815742
0.14102867
0.14417524
0.14750442
0.15053386
0.15317406
0.15460585
0.15515903
0.15520999
0.15535724
0.15614215
0.1567747
0.15722216
0.15742902
0.15754803
0.15763414
0.15775752
0.15761775
0.15743651
0.15739196
0.15701477
0.15673046
0.15650135
0.15630601
0.15566491
0.15116983
0.12147187
0.12272809
0.12414038
0.12573642
0.12754993
0.12962234
0.13196391
0.13458542
0.13735316
0.14006572
0.14202755
0.1439439
0.14640994
0.14954032
0.15265473
0.15484377
0.15619793
0.15703474
0.15748718
0.1577387
0.15783707
0.15794411
0.15776934
0.15756144
0.15748448
0.15709891
0.15684241
0.15661395
0.15642727
0.15572459
0.15111479
0.11464839
0.11586404
0.11724723
0.1188488
0.12071126
0.12289996
0.12548511
0.128496
0.13181704
0.1352176
0.13853114
0.14184182
0.14559661
0.14991101
0.1540126
0.15670132
0.15812658
0.15884846
0.15917351
0.15900972
0.15887314
0.15875169
0.1582739
0.15785902
0.15758846
0.15712796
0.15691529
0.15672251
0.15659665
0.15579639
0.15104328
0.11439511
0.11570921
0.11722481
0.11900238
0.12110096
0.1235791
0.12647408
0.12977964
0.13338435
0.13715366
0.14106473
0.14505092
0.14953731
0.15435817
0.15787579
0.15951713
0.16019523
0.16032442
0.16022216
0.15984563
0.1594562
0.15903732
0.15830419
0.15782907
0.15753243
0.15709279
0.15697152
0.15679075
0.15676391
0.15588329
0.15092327
0.11813296
0.11958209
0.12132655
0.12340086
0.12584283
0.12866577
0.13188301
0.13542918
0.13910179
0.1426698
0.14599809
0.14922448
0.15257854
0.1558711
0.15822163
0.1594686
0.15995581
0.16003232
0.15988946
0.15941917
0.15892381
0.15848471
0.15787025
0.15757421
0.15738348
0.15706642
0.15703189
0.15683569
0.15684806
0.15598015
0.15085346
0.12034727
0.12181485
0.12351585
0.12547988
0.12773333
0.13029377
0.13316541
0.13631135
0.13962919
0.14290252
0.14599422
0.14895872
0.15177446
0.15427295
0.15632285
0.1577815
0.15847139
0.15870794
0.15862718
0.15830309
0.15810906
0.15795624
0.15764855
0.1575123
0.15737592
0.15709113
0.1571059
0.15688428
0.15689622
0.15602274
0.15090324
0.11971487
0.12109957
0.122687
0.12449775
0.12655299
0.12887643
0.13148629
0.13436465
0.13746535
0.14066088
0.14380694
0.14685924
0.14978589
0.15269029
0.15531554
0.15717051
0.15803053
0.15840105
0.15845295
0.158242
0.15813742
0.15805203
0.15782
0.15771891
0.15755247
0.15722359
0.15717022
0.15691975
0.15689675
0.15605953
0.15102053
0.11851227
0.11986608
0.12142682
0.12321888
0.12526592
0.12759256
0.13022225
0.13315771
0.13637647
0.13976445
0.14314354
0.14643387
0.14962713
0.15276849
0.15563315
0.15757646
0.15846746
0.15886541
0.15887689
0.15862622
0.15852617
0.15841861
0.15815418
0.15795117
0.15769127
0.15733203
0.15718627
0.15693464
0.15687852
0.1560532
0.15120526
0.11872159
0.12008977
0.12167166
0.12349553
0.12558932
0.12797679
0.13067518
0.13368289
0.13695627
0.1403595
0.14371654
0.14697495
0.15021042
0.15344756
0.15625356
0.15799899
0.15878052
0.15909881
0.15900964
0.15872966
0.15858319
0.15841584
0.15814831
0.15793463
0.15769103
0.15734719
0.15717502
0.15694135
0.15682741
0.15605284
0.15135454
0.11938733
0.12076573
0.12235638
0.1241876
0.12628617
0.12867217
0.13135704
0.13433513
0.13755842
0.14089759
0.14418019
0.14734061
0.15045204
0.15353267
0.1562066
0.15786579
0.15861947
0.15892291
0.15880298
0.15853502
0.15838444
0.15824166
0.15806429
0.15788087
0.15769553
0.15737648
0.15717354
0.15696272
0.15679875
0.1560537
0.15160442
0.11973986
0.12109594
0.12265661
0.12444823
0.12649705
0.12882639
0.13145098
0.13436969
0.13754582
0.14085916
0.14414259
0.14731182
0.15040399
0.15344894
0.1560777
0.1577306
0.15849877
0.15879824
0.15869615
0.15846023
0.15831634
0.1581977
0.15805211
0.15788665
0.15771241
0.15743599
0.15717949
0.15703088
0.15678931
0.15606885
0.15181245
0.1198969
0.12124346
0.12279178
0.12456703
0.12659451
0.12889649
0.13149087
0.13437971
0.13752408
0.14082268
0.14412139
0.14731198
0.15041082
0.15346167
0.15610295
0.1577552
0.15852978
0.15882082
0.1587319
0.15850104
0.15834425
0.15823327
0.15807892
0.15789916
0.15770766
0.15746507
0.1572273
0.1571426
0.15680037
0.15609965
0.15190683
0.12005814
0.12140168
0.12294588
0.12471553
0.12673485
0.12902503
0.13160094
0.134469
0.13760108
0.14090105
0.14421771
0.14744248
0.15057873
0.15365946
0.15630094
0.15788598
0.15862139
0.15888973
0.15882869
0.15860462
0.15842633
0.15828509
0.15811836
0.1579124
0.15768926
0.15749593
0.15732585
0.15722121
0.15683394
0.15611868
0.15196665
0.12054056
0.12187572
0.12340757
0.12516062
0.1271586
0.12942243
0.1319698
0.13480637
0.13790975
0.14120317
0.14454998
0.14782765
0.15100202
0.15406688
0.15667782
0.15819741
0.15885632
0.15908054
0.15901732
0.15883093
0.15860876
0.15839815
0.15817105
0.15794148
0.15768548
0.15750905
0.15734114
0.15722264
0.15681959
0.1560952
0.15195089
0.12100921
0.12231484
0.12381203
0.12552537
0.1274794
0.12969764
0.13220052
0.13499767
0.13807113
0.14135352
0.14471773
0.14803121
0.15123765
0.15431455
0.15696487
0.15849238
0.15907839
0.15923463
0.15914753
0.1589637
0.15875131
0.15858105
0.15828706
0.15800417
0.15771694
0.15751839
0.15728674
0.15717822
0.15676266
0.15602678
0.15180427
0.12123741
0.12252258
0.12399892
0.12569077
0.12762291
0.12981956
0.13230126
0.13507817
0.13813588
0.14141368
0.14479009
0.14812627
0.15135137
0.1544369
0.15709928
0.15863993
0.1592858
0.15950229
0.15940648
0.1592322
0.1590216
0.15875754
0.15846905
0.15816527
0.15782517
0.1575939
0.15732012
0.15714523
0.15679486
0.15594826
0.1515508
0.12167784
0.12294963
0.12440891
0.12608093
0.12799049
0.13016103
0.13261234
0.1353543
0.13837705
0.14162995
0.14500127
0.14834712
0.15157932
0.15466399
0.15735225
0.15893987
0.1595399
0.15971475
0.15959977
0.15940152
0.15916548
0.15883811
0.15855513
0.15827078
0.15800841
0.15770069
0.15743476
0.15711386
0.15689775
0.15587338
0.15124069
0.12341194
0.12468989
0.12614987
0.12781149
0.12969288
0.13181212
0.13418547
0.13682195
0.13971741
0.1428354
0.14608114
0.14931442
0.15243157
0.15538857
0.15788353
0.15912968
0.15959351
0.15972228
0.15961424
0.15941146
0.15915463
0.15881384
0.15856638
0.15830409
0.15805053
0.15771693
0.15747253
0.15703347
0.15693388
0.1556824
0.15085831
0.12685676
0.12806847
0.12944714
0.13101295
0.13278583
0.1347823
0.13701159
0.13947184
0.14214188
0.14497008
0.14786416
0.15070943
0.15342385
0.15596204
0.1579727
0.15903696
0.15940735
0.15950086
0.1593446
0.1591162
0.15881282
0.15852984
0.1584096
0.15821172
0.15795625
0.15762179
0.15741663
0.15694435
0.15693613
0.15548775
0.15043149
0.1280206
0.12919674
0.1305361
0.13205915
0.1337862
0.13573298
0.13790719
0.14030383
0.1428954
0.14562293
0.1483954
0.15110841
0.15368481
0.15606991
0.15787876
0.1587345
0.15906068
0.15913317
0.15899044
0.1587651
0.15849865
0.1583029
0.15822609
0.15806561
0.15784584
0.15753321
0.1573953
0.15693944
0.15695052
0.15541915
0.15007661
0.13040966
0.13146685
0.1326719
0.13404404
0.13560254
0.1373643
0.13934082
0.14153212
0.14391828
0.14645137
0.14905256
0.15161663
0.15404453
0.15622798
0.15772849
0.158449
0.15877035
0.15887404
0.15883666
0.15869754
0.15851805
0.15835481
0.15826583
0.15806977
0.1578273
0.1575353
0.15734409
0.15696835
0.15684942
0.15528536
0.14985746
0.047168487
0.055246661
0.063576399
0.073435863
0.08539889
0.098080992
0.10671657
0.11513423
0.12625847
0.13723816
0.14951006
0.17805733
0.21017243
0.21781681
0.21384198
0.19753391
0.17916015
0.16447171
0.15170582
0.13718132
0.12177546
0.10214194
0.076854279
0.062327923
0.070046998
0.10271875
0.13179814
0.14090146
0.13995168
0.13368031
0.13641928
0.14601374
0.14804504
0.14114566
0.10967389
0.096660595
0.099171265
0.10477609
0.10885222
0.11752983
0.045139531
0.053687469
0.063449857
0.07605643
0.09194631
0.10623811
0.11989285
0.13324932
0.14363641
0.15739512
0.19088278
0.21791662
0.22178406
0.21575083
0.19908201
0.18214029
0.16615786
0.15452572
0.14002307
0.12424814
0.10572756
0.08243094
0.066740285
0.070664159
0.098446732
0.12965438
0.14159588
0.14133642
0.13635004
0.13910932
0.1492266
0.15079904
0.14315877
0.11063953
0.097278568
0.09935167
0.10515948
0.11081598
0.11966745
0.12144795
0.11466316
0.10894827
0.10876377
0.11202732
0.11377282
0.11329753
0.11227363
0.11242881
0.112984
0.11333971
0.113478
0.11360375
0.11404003
0.11457797
0.11484021
0.1152868
0.11685549
0.12042343
0.12170931
0.12465496
0.045632395
0.056698477
0.069472851
0.085084751
0.10289971
0.11982008
0.13480464
0.14667163
0.16701889
0.20450273
0.22409638
0.22438093
0.21650992
0.20037638
0.18513822
0.16907313
0.15635887
0.14214795
0.12702376
0.10993527
0.088241252
0.071728701
0.072183806
0.093237613
0.12559549
0.1419571
0.14285434
0.13873227
0.14153594
0.15215363
0.15356389
0.14533525
0.11217863
0.098085094
0.099696956
0.10553264
0.11273129
0.12170349
0.12337962
0.11636438
0.11040683
0.11019377
0.11359483
0.11544482
0.1149282
0.11385438
0.11402366
0.11460726
0.11496281
0.11510536
0.11523751
0.11568503
0.11620375
0.1164577
0.11690267
0.11852033
0.12208238
0.12333158
0.12612533
0.054926745
0.068814541
0.083542842
0.10058567
0.11918018
0.13584127
0.15262498
0.18356956
0.21647356
0.2277205
0.22616404
0.21695177
0.20150931
0.18734557
0.17208011
0.15950834
0.14554745
0.13031396
0.1144264
0.094228239
0.07688697
0.074490497
0.089823135
0.12340319
0.1420411
0.1442409
0.14083792
0.14384509
0.15512556
0.1562554
0.14750171
0.11433736
0.09911972
0.10034199
0.10606215
0.11459249
0.12357652
0.12519418
0.11809166
0.11186821
0.1116221
0.11514786
0.11713275
0.11657933
0.11545785
0.11564097
0.11625527
0.11661299
0.11676095
0.11690294
0.1173648
0.11786703
0.1181134
0.11855636
0.12022232
0.12375985
0.12497603
0.12762672
0.066950957
0.078958958
0.092083688
0.10628739
0.12356112
0.1443912
0.17096116
0.20379324
0.22429639
0.22944317
0.22720183
0.21745074
0.20256709
0.18897105
0.17402262
0.16126837
0.14759847
0.13286455
0.11841833
0.10013578
0.082343993
0.077104975
0.086531264
0.11706261
0.14140399
0.146028
0.14274416
0.14569988
0.1575887
0.15857109
0.14949549
0.11714961
0.10046714
0.10124379
0.10649238
0.11621121
0.12531038
0.12687356
0.11986691
0.11333251
0.11305725
0.11669078
0.11882303
0.11823557
0.11707144
0.11726829
0.11791369
0.11827433
0.11843035
0.11858539
0.11906359
0.119552
0.11979205
0.1202366
0.12194898
0.12544746
0.12663697
0.12915054
)
;

boundaryField
{
    Side1
    {
        type            empty;
    }
    Inlet
    {
        type            calculated;
        value           nonuniform List<scalar> 
59
(
0.15031578
0.15066935
0.15067846
0.15034433
0.15069929
0.15070966
0.15071739
0.15072534
0.15039075
0.15073906
0.15074656
0.15041538
0.15077002
0.15078326
0.15080175
0.15046884
0.15081818
0.15081707
0.15081609
0.15082773
0.15083971
0.15085339
0.15084879
0.15083704
0.1508383
0.15084116
0.15084193
0.15051194
0.15082988
0.15080981
0.15076745
0.15072005
0.15066689
0.15061409
0.15057661
0.15057729
0.15053022
0.1504881
0.15047354
0.15044572
0.15041103
0.15035329
0.1503182
0.15034634
0.15040926
0.15050489
0.15058588
0.15071166
0.15081647
0.15086302
0.15089185
0.15087577
0.15078638
0.15064796
0.15048859
0.15029063
0.15007549
0.14989914
0.14980477
)
;
    }
    Side2
    {
        type            empty;
    }
    Outlet
    {
        type            calculated;
        value           nonuniform List<scalar> 
35
(
0.13040966
0.13146685
0.1326719
0.13404404
0.13560254
0.1373643
0.13934082
0.14153212
0.14391828
0.14645137
0.14905256
0.15161663
0.15404453
0.15622798
0.15772849
0.158449
0.15877035
0.15887404
0.15883666
0.15869754
0.15851805
0.15835481
0.15826583
0.15806977
0.1578273
0.1575353
0.15734409
0.15696835
0.15684942
0.15528536
0.14985746
0.12465496
0.12612533
0.12762672
0.12915054
)
;
    }
    Botwall
    {
        type            calculated;
        value           nonuniform List<scalar> 0();
    }
    Cyli
    {
        type            calculated;
        value           nonuniform List<scalar> 0();
    }
    procBoundary3to0
    {
        type            processor;
        value           nonuniform List<scalar> 7(0.04111815 0.038100722 0.038100722 0.036332517 0.036332517 0.042147743 0.042147743);
    }
    procBoundary3to1
    {
        type            processor;
        value           nonuniform List<scalar> 
62
(
0.059015748
0.068466543
0.07745085
0.088353345
0.095583905
0.10184943
0.10306517
0.10527167
0.1115093
0.12451455
0.13886909
0.16637783
0.20110316
0.21267745
0.21015046
0.19616084
0.17669165
0.16216989
0.14972055
0.13640148
0.12051077
0.098881169
0.071837358
0.058992793
0.070970278
0.10831291
0.13417103
0.14048001
0.13888989
0.13079341
0.13349306
0.14253732
0.14540761
0.13922652
0.10914413
0.096221804
0.099091596
0.10424716
0.10702243
0.11525379
0.11942987
0.11942987
0.11294566
0.10751522
0.10733963
0.11044969
0.1121269
0.11170199
0.11072932
0.11086939
0.11140021
0.1117599
0.11189498
0.11201725
0.1124464
0.11300538
0.11327761
0.11372199
0.11523949
0.11879392
0.12011882
0.12321973
)
;
    }
    procBoundary3to2
    {
        type            processor;
        value           nonuniform List<scalar> 
35
(
0.15487991
0.15437918
0.15148927
0.18906377
0.18544232
0.18189492
0.17851169
0.17530419
0.17208105
0.16913694
0.16643579
0.16420169
0.16224387
0.1607923
0.15944281
0.15817952
0.15690145
0.15599935
0.15537462
0.15511536
0.15511536
0.11489108
0.11489108
0.16684985
0.18974958
0.19761305
0.20052202
0.20139581
0.20096017
0.19927255
0.19726666
0.19494706
0.19185645
0.19185645
0.055858586
)
;
    }
}


// ************************************************************************* //
