/*--------------------------------*- C++ -*----------------------------------*\
| =========                 |                                                 |
| \\      /  F ield         | OpenFOAM: The Open Source CFD Toolbox           |
|  \\    /   O peration     | Version:  2406                                  |
|   \\  /    A nd           | Website:  www.openfoam.com                      |
|    \\/     M anipulation  |                                                 |
\*---------------------------------------------------------------------------*/
FoamFile
{
    version     2.0;
    format      ascii;
    arch        "LSB;label=32;scalar=64";
    class       volVectorField;
    location    "0.018";
    object      UMean;
}
// * * * * * * * * * * * * * * * * * * * * * * * * * * * * * * * * * * * * * //

dimensions      [0 1 -1 0 0 0 0];

internalField   nonuniform List<vector> 
23203
(
(51.896376 16.876763 -1.1839641e-20)
(52.047596 16.381852 0)
(52.184008 15.907734 0)
(52.307305 15.453615 0)
(52.418973 15.018579 5.8099098e-21)
(52.520234 14.601898 -1.1556472e-20)
(52.612258 14.202733 -5.7316735e-21)
(52.696167 13.820191 0)
(52.77296 13.453512 0)
(52.843567 13.101835 5.5154813e-21)
(52.908677 12.764329 -1.6293761e-20)
(52.96899 12.440218 -1.0696034e-20)
(53.025102 12.128714 5.2646363e-21)
(53.077444 11.829126 -1.5526847e-20)
(53.126458 11.540842 0)
(53.172517 11.263071 0)
(53.215968 10.995213 -1.4841024e-20)
(53.257079 10.736723 9.7862578e-21)
(53.296086 10.487008 -9.7229083e-21)
(53.33304 10.245515 9.7115991e-21)
(53.367916 10.011764 -2.4275562e-20)
(53.400704 9.7852825 -3.400634e-20)
(53.431412 9.5656658 9.7167732e-21)
(53.460181 9.3525134 2.4283011e-20)
(53.487115 9.1454325 1.9409792e-20)
(53.512285 8.9441082 4.8468382e-21)
(53.535692 8.7481833 1.4531909e-20)
(53.557235 8.5573736 0)
(53.576824 8.3713447 0)
(53.59441 8.1898611 0)
(53.60995 8.0126266 1.9300916e-20)
(53.623405 7.8394057 1.9269304e-20)
(53.634728 7.6699334 1.9249882e-20)
(53.643813 7.5039428 4.8111678e-21)
(53.650539 7.3411787 -4.8129285e-21)
(53.6548 7.1813703 1.9277433e-20)
(53.656507 7.0242928 -2.4151021e-20)
(53.655687 6.8698205 -1.211154e-20)
(53.652483 6.7179173 1.6756684e-25)
(53.647015 6.5685409 -4.1490672e-20)
(53.639269 6.4215218 0)
(53.629304 6.2767856 3.6986443e-20)
(53.61739 6.134434 -3.9708563e-20)
(53.604068 5.994748 2.503024e-21)
(53.590167 5.8582945 4.2861911e-20)
(53.576913 5.7258506 3.8037769e-20)
(53.565758 5.5985364 2.5414721e-21)
(53.556775 5.4762518 3.5552267e-20)
(53.547824 5.357103 8.1107831e-20)
(53.537132 5.2397644 5.0614124e-21)
(53.523963 5.123697 -2.5271098e-21)
(53.507985 5.0086042 4.2938589e-20)
(53.488973 4.8942503 -5.052248e-21)
(53.466689 4.7804052 4.2972245e-20)
(53.440873 4.6668199 4.3021426e-20)
(53.411251 4.5532151 1.1056305e-25)
(53.377511 4.4393156 8.151859e-20)
(53.339309 4.3248007 -2.5597589e-21)
(53.296294 4.2093749 7.980335e-20)
(53.248146 4.0927183 5.1882397e-21)
(53.194584 3.9745926 -2.6183306e-21)
(53.135505 3.8548251 -8.4654711e-20)
(53.071046 3.7334188 0)
(53.00149 3.610508 -8.9705344e-20)
(52.927136 3.4862462 -8.5626006e-20)
(52.848276 3.3606529 1.209332e-24)
(52.765212 3.2338555 0)
(52.678406 3.1060412 -9.0353505e-20)
(52.588405 2.9774943 -2.9700701e-21)
(52.49648 2.8488918 1.140727e-24)
(52.40891 2.7222701 0)
(52.340807 2.6091997 0)
(52.299252 2.5160398 -1.9844815e-19)
(52.267562 2.4291378 -1.9096143e-24)
(52.238569 2.3446665 -2.9893006e-21)
(52.210757 2.2618346 5.867284e-21)
(52.184059 2.1806735 1.7848527e-19)
(52.158394 2.1010527 1.8079125e-19)
(52.133758 2.0229218 -1.7462788e-19)
(52.110141 1.9461813 0)
(52.087523 1.8707544 -1.7077284e-19)
(52.065886 1.7965447 0)
(52.045198 1.7234812 1.617765e-19)
(52.025446 1.6514739 2.5181085e-21)
(52.00661 1.5804572 0)
(51.98866 1.5103408 -1.550943e-19)
(51.971581 1.4410565 0)
(51.955357 1.3725197 1.4922947e-19)
(51.939973 1.3046564 -1.47493e-19)
(51.925404 1.2373902 2.2434863e-21)
(51.911638 1.1706503 -1.1001451e-21)
(51.898654 1.1043607 0)
(51.886427 1.0384431 0)
(51.874944 0.97282377 2.6468247e-19)
(51.864194 0.90742051 -7.9410546e-27)
(51.854158 0.84215731 -2.5458316e-19)
(51.84483 0.77694461 0)
(51.83619 0.71171433 1.1252164e-24)
(51.828247 0.64635088 0)
(51.820975 0.5808151 -2.3638955e-19)
(51.81441 0.51492057 -1.0087784e-24)
(51.808496 0.44871721 0)
(51.803327 0.38185412 -2.2270336e-19)
(51.79877 0.31459088 2.1835757e-19)
(51.795036 0.2462396 0)
(51.791909 0.17752476 0)
(51.789731 0.10707696 2.0608276e-19)
(51.788089 0.036424411 -1.9954037e-19)
(51.494729 16.913155 0)
(51.66806 16.428813 6.6307663e-21)
(51.825578 15.96355 1.3173258e-24)
(51.969066 15.516712 -6.3946024e-21)
(52.099943 15.087554 -6.2818641e-21)
(52.219408 14.675557 1.2349479e-20)
(52.32866 14.280049 -6.0743187e-21)
(52.428853 13.900252 5.9762468e-21)
(52.521009 13.535558 1.176738e-20)
(52.606027 13.1852 -5.7936379e-21)
(52.684615 12.848454 1.7123609e-20)
(52.757544 12.524644 -5.6261827e-21)
(52.825442 12.213044 5.5479496e-21)
(52.888802 11.91301 -1.0943375e-20)
(52.948114 11.623956 5.3989516e-21)
(53.003754 11.345223 -1.5987806e-20)
(53.056109 11.076233 2.1050177e-20)
(53.105502 10.816444 0)
(53.152165 10.565289 1.0278739e-20)
(53.196188 10.322233 5.0813849e-21)
(53.237647 10.086821 2.0105856e-20)
(53.276573 9.8585848 -9.9379005e-21)
(53.313005 9.6371752 4.9037814e-21)
(53.347144 9.422203 -1.4534081e-20)
(53.37913 9.2132834 -4.792799e-21)
(53.409121 9.0100842 1.9076487e-20)
(53.437118 8.8122471 0)
(53.462991 8.6194772 0)
(53.486651 8.4314686 1.4319626e-20)
(53.508061 8.2479989 2.3890395e-20)
(53.52719 8.0687703 -4.7835518e-21)
(53.544001 7.8935646 -1.4366514e-20)
(53.558452 7.7221001 -1.9178107e-20)
(53.570448 7.5541136 0)
(53.579879 7.3893499 0)
(53.586652 7.2275335 -1.9289295e-20)
(53.590724 7.0684651 1.4508251e-20)
(53.592176 6.9120576 2.4254483e-20)
(53.591176 6.758293 0)
(53.587815 6.6071007 4.8889849e-21)
(53.582077 6.4583009 -4.9130132e-21)
(53.574089 6.3118679 4.9414615e-21)
(53.564186 6.1679433 3.4807205e-20)
(53.552988 6.0268753 -4.2541647e-20)
(53.541437 5.8892782 2.5184881e-21)
(53.530821 5.7560008 -7.835064e-20)
(53.522424 5.628102 4.048124e-20)
(53.51571 5.5049777 -8.0840991e-20)
(53.508371 5.3846126 -4.2853051e-20)
(53.498933 5.2659092 -4.0256326e-20)
(53.486844 5.1484397 4.271788e-20)
(53.471832 5.0319364 -5.022453e-21)
(53.453691 4.9161684 2.5114629e-21)
(53.432186 4.8009041 0)
(53.407056 4.6858928 0)
(53.37802 4.5708521 -8.0805465e-20)
(53.344767 4.4555016 -8.1120192e-20)
(53.306961 4.3395259 2.5482072e-21)
(53.264258 4.2226267 -8.4650068e-20)
(53.216345 4.1044911 8.2767583e-20)
(53.162971 3.9848942 2.6118185e-21)
(53.10407 3.8636865 -2.6408059e-21)
(53.039811 3.7409039 0)
(52.970504 3.6166862 -8.9557617e-20)
(52.896429 3.4911753 8.8182367e-20)
(52.817868 3.3644057 -8.6893437e-20)
(52.735145 3.2364927 0)
(52.648742 3.1076461 -1.1416612e-24)
(52.559273 2.9781624 0)
(52.468305 2.8487915 -9.6853915e-20)
(52.382987 2.7222937 0)
(52.319281 2.6111622 9.9216096e-20)
(52.280932 2.519249 9.7857947e-20)
(52.250484 2.432289 3.8440913e-19)
(52.222234 2.3476172 2.947696e-21)
(52.195082 2.2646183 1.8225077e-19)
(52.169002 2.1832968 -3.6337133e-19)
(52.143921 2.1035245 2.7872572e-21)
(52.119838 2.0252465 1.694784e-19)
(52.096743 1.9483633 -1.6897609e-19)
(52.074615 1.8727997 1.6842288e-19)
(52.05344 1.7984595 0)
(52.033188 1.7252714 1.1639321e-24)
(52.013845 1.6531469 0)
(51.995396 1.5820164 0)
(51.977809 1.5117902 0)
(51.961072 1.442401 1.5013439e-19)
(51.945167 1.3737622 1.1505048e-21)
(51.930082 1.3058046 -1.1283395e-21)
(51.915796 1.23845 1.4281665e-19)
(51.902293 1.1716246 -2.7907585e-19)
(51.889556 1.1052534 1.0644217e-21)
(51.877559 1.0392599 2.6740721e-19)
(51.866291 0.97356696 -1.0247073e-21)
(51.85574 0.90809481 0)
(51.845888 0.84276624 2.5334177e-19)
(51.836729 0.77749145 -1.9332115e-21)
(51.828245 0.71220154 -4.8441735e-19)
(51.820444 0.64678246 0)
(51.813302 0.58119202 -1.0538902e-24)
(51.806852 0.51524667 2.2941918e-19)
(51.80104 0.44899282 -4.3858566e-22)
(51.795959 0.38208251 2.2022412e-19)
(51.791477 0.31477135 -4.3188828e-19)
(51.787805 0.24637672 0)
(51.78473 0.17761152 0)
(51.782576 0.10711057 -4.8867135e-23)
(51.780945 0.036434374 4.8134301e-23)
(51.064554 16.964664 -6.6695938e-21)
(51.262199 16.491492 -1.0806685e-24)
(51.442859 16.035634 -6.4306852e-21)
(51.608332 15.596517 6.3196777e-21)
(51.760003 15.173605 -1.2434947e-20)
(51.899133 14.766534 0)
(52.026918 14.37487 0)
(52.144559 13.997899 1.1858959e-20)
(52.253122 13.635176 -1.1680924e-20)
(52.353519 13.286043 -5.757759e-21)
(52.446489 12.949896 -5.6767523e-21)
(52.53288 12.626166 1.1202386e-20)
(52.613375 12.314155 -1.1057834e-20)
(52.688498 12.013391 1.6381496e-20)
(52.758816 11.723257 5.396772e-21)
(52.82473 11.443181 1.60015e-20)
(52.886668 11.172631 2.0491647e-24)
(52.944994 10.911092 5.222472e-21)
(52.999974 10.658024 -5.1695793e-21)
(53.051741 10.412922 -5.1227493e-21)
(53.100436 10.175366 -2.0305842e-20)
(53.146161 9.9448852 2.0120687e-20)
(53.188991 9.7211746 -1.9949348e-20)
(53.229133 9.5038665 1.9793008e-20)
(53.26674 9.2925949 0)
(53.301941 9.0870351 2.4425863e-20)
(53.334776 8.8868179 3.8643513e-25)
(53.3652 8.6916417 1.9442257e-20)
(53.393136 8.5012192 -4.3626263e-20)
(53.418568 8.3153419 -3.3828997e-20)
(53.441483 8.1337112 3.5968201e-25)
(53.461851 7.9561129 -4.8134244e-21)
(53.47963 7.7822569 1.441971e-20)
(53.494739 7.611883 2.4023759e-20)
(53.50708 7.4447415 0)
(53.516583 7.2805648 1.9248611e-20)
(53.523255 7.1191954 9.5233706e-25)
(53.527215 6.960581 4.8361245e-21)
(53.528628 6.8046989 3.3971035e-20)
(53.527548 6.6514327 0)
(53.523989 6.5006212 0)
(53.518148 6.3523004 4.9245865e-21)
(53.510427 6.2066552 -4.9543031e-21)
(53.501528 6.0641125 7.4767704e-20)
(53.492465 5.9253179 -3.5073676e-20)
(53.484557 5.7911911 5.0253327e-21)
(53.478811 5.6625767 -5.0256161e-21)
(53.47414 5.5383205 -1.1482462e-24)
(53.468314 5.4164923 0)
(53.46015 5.2962398 -2.4981496e-21)
(53.449202 5.1772083 -3.7422417e-20)
(53.435229 5.0591454 -2.4934094e-21)
(53.418031 4.9418215 2.493631e-21)
(53.397375 4.8250013 4.2433705e-20)
(53.373001 4.7084312 1.0736784e-25)
(53.344624 4.5918267 8.0252914e-20)
(53.311935 4.4749072 -2.517898e-21)
(53.274602 4.3573566 -2.5311996e-21)
(53.232288 4.23888 2.5481171e-21)
(53.184695 4.1191731 -8.2228467e-20)
(53.1316 3.9980259 0)
(53.072975 3.8753115 -2.627131e-21)
(53.009012 3.7511043 -8.8398663e-26)
(52.940033 3.625541 2.7002398e-21)
(52.866303 3.4987492 -8.5066526e-20)
(52.788098 3.3707693 -2.7897408e-21)
(52.705767 3.2417221 2.8389867e-21)
(52.61981 3.1118284 9.2555381e-20)
(52.530898 2.9814172 -5.9021619e-21)
(52.440956 2.8513153 -9.3364384e-20)
(52.358202 2.7251573 0)
(52.298609 2.6163277 -9.8023759e-20)
(52.26281 2.5251819 0)
(52.233363 2.4379452 -2.9619331e-21)
(52.205816 2.3529355 2.9089411e-21)
(52.179315 2.269641 -1.8270347e-19)
(52.153844 2.1880353 3.5856918e-19)
(52.129342 2.1079929 -1.7867784e-19)
(52.105805 2.0294549 5.3947407e-21)
(52.083225 1.9523215 1.6673576e-19)
(52.061582 1.8765183 -1.6618924e-19)
(52.040865 1.8019484 -2.5476355e-21)
(52.021045 1.7285402 -1.5994757e-19)
(52.002108 1.6562054 -1.5194478e-19)
(51.984042 1.584874 -4.810695e-21)
(51.966815 1.5144562 2.3593657e-21)
(51.950416 1.4448847 -1.4811692e-19)
(51.934831 1.3760733 0)
(51.920045 1.3079508 1.1133915e-21)
(51.90604 1.2404375 -1.4090888e-19)
(51.8928 1.173462 -1.5546455e-24)
(51.880309 1.1069476 0)
(51.868544 1.0408179 -2.638203e-19)
(51.85749 0.97499485 2.5879926e-19)
(51.847138 0.90939892 2.538495e-19)
(51.837471 0.84395206 -2.4897239e-19)
(51.828483 0.77856443 -2.4318252e-19)
(51.820156 0.71316606 -1.1379659e-24)
(51.812499 0.64764357 -1.3761882e-21)
(51.805487 0.58195277 2.3033907e-19)
(51.799153 0.5159116 4.4120453e-22)
(51.793444 0.44956377 0)
(51.788454 0.38256351 0)
(51.784048 0.31516249 2.1303706e-19)
(51.780437 0.24668271 2.0891451e-19)
(51.777415 0.17782662 0)
(51.775287 0.1072381 -4.0182781e-19)
(51.773667 0.03648149 0)
(50.645579 16.975335 6.5819209e-21)
(50.865164 16.51575 -1.1785219e-24)
(51.066974 16.071724 0)
(51.252728 15.642649 -6.2528611e-21)
(51.423744 15.22809 6.1487067e-21)
(51.581284 14.828079 6.0583359e-21)
(51.726562 14.442189 5.9646993e-21)
(51.860773 14.069901 -2.3507378e-20)
(51.985004 13.71091 0)
(52.10017 13.36463 -5.712313e-21)
(52.207025 13.03061 5.6351129e-21)
(52.306482 12.708391 -1.6687389e-20)
(52.399262 12.397299 5.4920028e-21)
(52.485905 12.097028 0)
(52.567035 11.806959 -1.6087802e-20)
(52.643072 11.526595 -5.3043364e-21)
(52.714486 11.255462 -5.2460753e-21)
(52.781672 10.993088 -2.0776427e-20)
(52.844921 10.738965 2.0580202e-20)
(52.904409 10.492625 3.988802e-25)
(52.960338 10.253694 -2.5281596e-20)
(53.012867 10.021699 0)
(53.062099 9.7963808 1.9921263e-20)
(53.108256 9.577382 -1.9790289e-20)
(53.151504 9.3643515 0)
(53.191966 9.1569733 -2.445924e-20)
(53.229711 8.9548882 4.8685522e-21)
(53.264738 8.7578026 -2.4242253e-20)
(53.297021 8.5654371 2.8987457e-20)
(53.32655 8.3775868 3.3719668e-20)
(53.35332 8.1939618 0)
(53.377305 8.0143421 1.4390796e-20)
(53.398469 7.8384418 4.7917713e-21)
(53.416747 7.6660043 -4.7890913e-21)
(53.43205 7.4967848 4.7920376e-21)
(53.444343 7.3305341 4.7985251e-21)
(53.453681 7.1671373 -4.8072326e-21)
(53.460214 7.0065653 0)
(53.464092 6.8487735 1.8657613e-24)
(53.465345 6.6936163 4.8583663e-21)
(53.464036 6.5409833 -4.8815009e-21)
(53.46043 6.3909595 0)
(53.454995 6.2437826 4.9368982e-21)
(53.448518 6.0999514 -8.4392985e-20)
(53.442071 5.960135 -4.9867472e-21)
(53.436972 5.8253111 4.9958977e-21)
(53.433845 5.6959629 -3.4954523e-20)
(53.431142 5.5705021 -4.9832503e-21)
(53.426819 5.447217 -3.9762757e-20)
(53.419943 5.3254494 0)
(53.410156 5.2048908 0)
(53.397238 5.0852999 0)
(53.380997 4.9664485 -3.7142382e-20)
(53.361204 4.8480979 1.0188763e-24)
(53.337593 4.7299923 -2.4833057e-21)
(53.309881 4.6118443 0)
(53.277764 4.4933749 -8.0030608e-20)
(53.240909 4.3742642 -2.5144456e-21)
(53.198992 4.2542241 8.3548229e-20)
(53.151728 4.1329598 -2.5535617e-21)
(53.098923 4.0102803 -7.9988351e-20)
(53.040587 3.8860843 -8.3561328e-20)
(52.976944 3.7604775 0)
(52.908318 3.6335888 1.7449905e-19)
(52.834963 3.5055374 8.1795124e-20)
(52.75715 3.3763613 2.7718375e-21)
(52.675254 3.246204 -9.0259895e-20)
(52.589794 3.1152921 -9.1961326e-20)
(52.501511 2.9840034 0)
(52.412755 2.8532659 9.2671013e-20)
(52.332897 2.7277469 3.0341228e-21)
(52.277533 2.6213279 0)
(52.244116 2.5306314 9.235124e-20)
(52.215674 2.4431305 -1.8132986e-19)
(52.188864 2.3578147 5.5137115e-26)
(52.163045 2.2742466 1.8027119e-19)
(52.138211 2.192378 -3.5654705e-19)
(52.114313 2.1120853 0)
(52.091346 2.0333068 1.7032501e-19)
(52.069304 1.955942 0)
(52.048169 1.8799179 1.6139816e-19)
(52.027929 1.8051354 5.0268599e-21)
(52.00856 1.7315245 -2.4656422e-21)
(51.990048 1.6589962 -1.1223051e-24)
(51.972381 1.5874798 -1.5186406e-19)
(51.955531 1.5168855 -1.4663795e-19)
(51.939485 1.4471458 -2.2828324e-21)
(51.924233 1.3781738 0)
(51.909758 1.3098994 0)
(51.896045 1.2422414 -1.3792488e-19)
(51.883081 1.1751285 2.7057143e-19)
(51.870846 1.1084828 0)
(51.85932 1.0422285 0)
(51.84849 0.97628642 -2.5629833e-19)
(51.838346 0.91057738 -4.9984194e-19)
(51.828871 0.84502249 9.593596e-22)
(51.82006 0.77953207 4.8164972e-19)
(51.811897 0.71403485 4.7143807e-19)
(51.804389 0.64841843 -2.3167989e-19)
(51.797512 0.58263643 0)
(51.791299 0.51650837 -4.3521195e-22)
(51.785697 0.45007531 -2.1810275e-19)
(51.780799 0.38299365 0)
(51.776473 0.31551122 0)
(51.772925 0.24695456 -2.0586734e-19)
(51.769959 0.17801617 -2.9596126e-22)
(51.767855 0.10734629 1.9826057e-19)
(51.766249 0.036521671 0)
(50.231963 16.970874 -6.4962439e-21)
(50.471972 16.525959 7.5108901e-26)
(50.693681 16.094978 6.285532e-21)
(50.89854 15.677024 -6.1810482e-26)
(51.087871 15.27189 1.8267135e-20)
(51.263007 14.879928 -1.7992726e-20)
(51.425089 14.500771 -1.1822271e-20)
(51.575307 14.134051 1.7475988e-20)
(51.714747 13.7796 0)
(51.844317 13.436908 0)
(51.964778 13.105702 1.6782713e-20)
(52.077095 12.785622 -5.5253222e-21)
(52.182007 12.475999 -5.4567435e-21)
(52.280066 12.176725 -2.1568073e-20)
(52.371938 11.887168 5.3307588e-21)
(52.458057 11.606906 1.5819863e-20)
(52.538938 11.335535 5.2188479e-21)
(52.614991 11.072627 -1.0336688e-20)
(52.686539 10.817708 -5.119215e-21)
(52.753794 10.570358 -2.0302751e-20)
(52.817012 10.330252 2.5169341e-20)
(52.876399 10.096912 4.996168e-21)
(52.932089 9.8701325 -4.9608236e-21)
(52.984326 9.6495616 0)
(53.033278 9.4348627 4.9008157e-21)
(53.079079 9.2257359 -4.8749046e-21)
(53.121819 9.021846 0)
(53.16154 8.8229095 1.933238e-20)
(53.198248 8.6286573 -4.816262e-21)
(53.231949 8.4388801 -9.6034901e-21)
(53.262643 8.2532986 -4.7908062e-21)
(53.290308 8.0716858 0)
(53.314921 7.8937678 -2.388988e-20)
(53.33643 7.7192865 -9.5521361e-21)
(53.354759 7.5480094 9.5581871e-21)
(53.36992 7.3797183 -1.4356228e-20)
(53.382012 7.2143386 -1.9180076e-20)
(53.391202 7.0518535 0)
(53.397619 6.8921835 1.8881845e-24)
(53.401281 6.7351756 4.8440209e-21)
(53.402319 6.5807815 -3.893429e-20)
(53.401061 6.4291249 -4.892173e-21)
(53.398049 6.2805128 -3.9352967e-20)
(53.39415 6.135496 3.9548836e-20)
(53.39048 5.9947733 -3.9695403e-20)
(53.3883 5.8593339 7.9478371e-20)
(53.387745 5.7291768 -3.9680221e-20)
(53.38694 5.6024393 3.957722e-20)
(53.384115 5.4776878 3.9480376e-20)
(53.378554 5.3544115 -3.4479836e-20)
(53.369959 5.232333 -4.9192559e-21)
(53.358129 5.1112197 -3.9332974e-20)
(53.342876 4.9908441 3.9339933e-20)
(53.323969 4.8709638 -4.4303751e-20)
(53.301145 4.7513205 2.4660513e-21)
(53.27412 4.631625 2.4736271e-21)
(53.242592 4.5115996 7.9489633e-20)
(53.206233 4.3909215 0)
(53.164726 4.2693118 -8.0491044e-20)
(53.11781 4.1464858 2.5375185e-21)
(53.065317 4.0222739 8.204821e-20)
(53.007296 3.8966012 8.3035521e-20)
(52.944005 3.7696016 -2.6291978e-21)
(52.875758 3.6413911 -1.7072489e-19)
(52.802798 3.5120876 8.6687766e-20)
(52.725408 3.3817208 0)
(52.643978 3.2504674 8.9657163e-20)
(52.559052 3.1185552 8.8468392e-20)
(52.471466 2.9864181 2.909298e-21)
(52.38409 2.8551286 9.1938096e-20)
(52.307501 2.7305559 3.0024617e-21)
(52.256421 2.6265555 0)
(52.225126 2.5360911 1.0838898e-24)
(52.197648 2.4483243 2.8856189e-21)
(52.171584 2.3627125 -1.8407427e-19)
(52.14646 2.2788744 -3.5567135e-19)
(52.122276 2.1967455 1.7724904e-19)
(52.098993 2.1162044 -2.6755271e-21)
(52.076607 2.0371867 -3.3604966e-19)
(52.055113 1.9595917 1.6228085e-19)
(52.034495 1.8833475 5.0543986e-21)
(52.014742 1.8083528 3.4912126e-26)
(51.995832 1.734539 3.2771672e-26)
(51.977753 1.661817 1.5027074e-19)
(51.960493 1.5901154 1.5213174e-19)
(51.944027 1.5193441 -2.2968944e-21)
(51.928342 1.449435 1.4409999e-19)
(51.913428 1.380303 -1.1046601e-21)
(51.899272 1.3118749 1.4085021e-19)
(51.885857 1.2440709 2.6995673e-19)
(51.873173 1.1768191 2.0849868e-21)
(51.8612 1.110041 -2.0439177e-21)
(51.849919 1.0436607 -8.2478538e-27)
(51.839316 0.97759822 -2.5181019e-19)
(51.829384 0.91177481 2.4794576e-19)
(51.820105 0.84611046 -2.4223244e-19)
(51.811476 0.78051599 -2.3752825e-19)
(51.803479 0.71491849 1.1564666e-24)
(51.796123 0.64920675 2.2850022e-19)
(51.789383 0.58333223 0)
(51.783294 0.5171159 2.1977223e-19)
(51.777802 0.45059626 2.1595222e-19)
(51.772998 0.38343188 1.4873418e-27)
(51.768753 0.31586675 -2.0766059e-19)
(51.765269 0.2472317 0)
(51.76236 0.17821021 -1.992558e-19)
(51.760282 0.10745722 4.771301e-23)
(51.75869 0.036563567 -4.6190285e-23)
(49.827768 16.939809 -1.2796961e-20)
(50.086516 16.510988 -6.3094279e-21)
(50.326432 16.094757 -6.2118055e-21)
(50.548759 15.689409 -1.2239228e-20)
(50.755082 15.295142 0)
(50.946732 14.912612 -5.9406385e-21)
(51.124662 14.541534 1.7568061e-20)
(51.290059 14.181684 0)
(51.44401 13.832992 0)
(51.587408 13.49502 5.6242247e-21)
(51.721002 13.167726 -5.5505015e-21)
(51.845791 12.850811 1.0969101e-20)
(51.962522 12.543582 1.083945e-20)
(52.071745 12.246191 -2.0120529e-24)
(52.174162 11.957946 0)
(52.27021 11.678528 -1.0487502e-20)
(52.360447 11.407609 0)
(52.445294 11.144803 1.5426459e-20)
(52.525099 10.889672 3.1950644e-25)
(52.600106 10.641851 -6.8198449e-25)
(52.670619 10.401075 2.5065852e-20)
(52.736887 10.166848 -1.9905252e-20)
(52.799066 9.9390406 -1.9769664e-20)
(52.857422 9.7172894 0)
(52.912123 9.501276 0)
(52.963314 9.2907254 0)
(53.011113 9.0853325 -1.4511467e-20)
(53.055596 8.8848222 -2.4087984e-20)
(53.096793 8.6889408 -4.8015561e-21)
(53.134726 8.4974708 -1.4364102e-20)
(53.169405 8.310144 0)
(53.20081 8.1267297 0)
(53.228932 7.9469702 1.905669e-20)
(53.253732 7.7706022 0)
(53.275157 7.5974178 -2.3829743e-20)
(53.293269 7.4272381 4.7712651e-21)
(53.308203 7.2600207 4.7824595e-21)
(53.320134 7.09575 1.4385861e-20)
(53.329158 6.934305 -3.8485815e-20)
(53.33531 6.7755556 3.8640116e-20)
(53.338798 6.619518 3.3963127e-20)
(53.340005 6.466352 4.8762676e-21)
(53.339561 6.3164471 4.4108263e-20)
(53.338393 6.1703822 3.9380646e-20)
(53.337653 6.0289036 -4.9373563e-21)
(53.338458 5.892923 -3.9491282e-20)
(53.340388 5.7618807 7.8816904e-20)
(53.341418 5.6338271 4.4212935e-20)
(53.340095 5.5076195 -4.9001381e-21)
(53.335872 5.3828542 8.3144602e-20)
(53.328498 5.2592743 2.1660289e-25)
(53.317782 5.1366544 2.9292051e-20)
(53.303543 5.0147667 4.3949622e-20)
(53.285546 4.8933655 0)
(53.26353 4.7721901 0)
(53.237211 4.6509508 0)
(53.206289 4.52937 0)
(53.170442 4.4071238 0)
(53.129367 4.283945 0)
(53.08282 4.1595593 7.8170362e-20)
(53.030666 4.0338207 2.5481568e-21)
(52.972997 3.9066824 8.2524327e-20)
(52.910091 3.7783029 0)
(52.842258 3.6487806 8.4822947e-20)
(52.769728 3.518236 1.3499421e-24)
(52.692793 3.386691 2.7356776e-21)
(52.611866 3.2543589 -2.7827429e-21)
(52.527519 3.1214686 -9.3527473e-20)
(52.440706 2.9885212 5.7766655e-21)
(52.354951 2.8567929 -5.8826342e-21)
(52.282007 2.7335239 5.9393643e-21)
(52.235227 2.6318297 -9.4171895e-20)
(52.205757 2.5414514 1.1484401e-24)
(52.179228 2.4534332 -2.8465939e-21)
(52.153925 2.3675385 1.7599323e-19)
(52.129511 2.2834372 1.7817137e-19)
(52.105993 2.2010542 0)
(52.08334 2.1202697 1.6891642e-19)
(52.061548 2.0410176 1.6314419e-19)
(52.040617 1.963197 2.5421208e-21)
(52.020528 1.8867361 0)
(52.001273 1.8115328 -2.4454576e-21)
(51.982835 1.7375193 -1.511365e-19)
(51.965199 1.6646067 0)
(51.948357 1.5927225 -1.5004031e-19)
(51.932283 1.5217768 4.5276555e-21)
(51.916967 1.4517004 -2.8866982e-19)
(51.902401 1.3824098 2.1788793e-21)
(51.88857 1.3138301 -1.3677869e-19)
(51.875461 1.2458822 -1.3416466e-19)
(51.863064 1.178493 -2.6319945e-19)
(51.851359 1.1115839 0)
(51.840328 1.0450788 0)
(51.829959 0.97889732 2.4736053e-19)
(51.820243 0.91296065 2.4452227e-19)
(51.811165 0.84718785 2.3981764e-19)
(51.802722 0.78149034 2.32419e-19)
(51.794896 0.71579353 -2.2882876e-19)
(51.787695 0.64998739 8.8024892e-22)
(51.781096 0.58402117 -4.3163366e-22)
(51.775133 0.51771743 -4.3346377e-19)
(51.769753 0.45111201 -4.1513479e-22)
(51.765046 0.38386562 -2.0844565e-19)
(51.760885 0.3162186 4.0854764e-19)
(51.757466 0.2475057 2.0060939e-19)
(51.754615 0.17840245 3.9295791e-19)
(51.752565 0.10756636 1.9277493e-19)
(51.750987 0.036605408 1.8654804e-19)
(49.433905 16.886665 6.3035387e-21)
(49.709177 16.476959 6.1901036e-21)
(49.964983 16.077621 6.1042694e-21)
(50.203251 15.685708 -1.2076259e-20)
(50.4255 15.303206 1.789214e-20)
(50.632635 14.931054 5.8856249e-21)
(50.825456 14.569001 5.803966e-21)
(51.005228 14.216978 0)
(51.173 13.874914 0)
(51.329665 13.542468 1.6745612e-20)
(51.475929 13.219902 -1.6538318e-20)
(51.612801 12.906913 0)
(51.741034 12.602747 5.386416e-21)
(51.86117 12.307908 1.5976752e-20)
(51.973931 12.021567 0)
(52.079749 11.743547 -5.2158963e-21)
(52.17923 11.473591 -2.6535543e-25)
(52.272792 11.211358 1.5353036e-20)
(52.360807 10.956442 1.5219173e-20)
(52.443546 10.708544 -5.0309521e-21)
(52.521352 10.467461 2.589509e-24)
(52.594514 10.232673 -2.4381163e-24)
(52.663205 10.004142 1.9694535e-20)
(52.727706 9.7814813 0)
(52.788191 9.5643992 -4.8674145e-21)
(52.84482 9.3526543 2.4216904e-20)
(52.897739 9.1459732 4.8202002e-21)
(52.947046 8.9440809 2.8770246e-25)
(52.992788 8.7467509 -4.7870472e-21)
(53.035011 8.5537486 2.3868589e-20)
(53.073727 8.3648215 2.8215065e-25)
(53.108926 8.1797406 -4.7555346e-21)
(53.140611 7.9982637 -1.9006423e-20)
(53.168757 7.8201212 1.9003717e-20)
(53.193346 7.6451473 1.9015815e-20)
(53.214491 7.4732023 3.8082368e-20)
(53.232352 7.3042666 0)
(53.247094 7.1383103 -1.9128372e-20)
(53.25879 6.975178 0)
(53.26752 6.8147917 -7.705864e-20)
(53.273559 6.657222 -3.8700356e-20)
(53.277357 6.5026735 -4.8604622e-21)
(53.279628 6.3516188 4.8823485e-21)
(53.281344 6.204645 -3.9202071e-20)
(53.283676 6.0625628 4.4180693e-20)
(53.287484 5.9260691 -9.8095815e-21)
(53.291793 5.7940522 -3.424384e-20)
(53.294612 5.6646576 -3.9022599e-20)
(53.2948 5.5370076 0)
(53.291942 5.4107729 -3.3994135e-20)
(53.285816 5.2857095 -4.3654344e-20)
(53.276242 5.1615983 0)
(53.26304 5.0382103 -4.3643197e-20)
(53.245975 4.9152968 9.7096192e-21)
(53.224785 4.7925951 -4.864971e-21)
(53.199189 4.669815 0)
(53.16889 4.5466797 -7.8436386e-20)
(53.133572 4.422865 -4.9307679e-21)
(53.092945 4.2981183 4.9668895e-21)
(53.046787 4.172176 -8.0183796e-20)
(52.995 4.0449174 8.3568534e-20)
(52.937717 3.916327 1.545737e-24)
(52.875232 3.7865806 -5.1929412e-21)
(52.807843 3.6557589 8.6923997e-20)
(52.735776 3.5239808 -8.5576952e-20)
(52.65933 3.3912746 0)
(52.578947 3.2578804 8.8452612e-20)
(52.495225 3.124038 8.7249223e-20)
(52.409282 2.9903196 2.8668006e-21)
(52.325416 2.8583011 -9.3370113e-20)
(52.256492 2.7367258 9.1014395e-20)
(52.213898 2.6371187 9.8681312e-20)
(52.186024 2.5467166 -9.4405301e-20)
(52.160428 2.4584673 -2.8078277e-21)
(52.135899 2.3723021 2.7551514e-21)
(52.112211 2.2879444 -2.7036974e-21)
(52.089373 2.2053134 1.7244445e-19)
(52.067363 2.1242906 -1.665955e-19)
(52.04618 2.0448087 2.5538828e-21)
(52.025822 1.9667672 -1.6537637e-19)
(52.006274 1.8900926 1.5733048e-19)
(51.987529 1.8146846 2.411658e-21)
(51.969572 1.7404743 3.0282696e-19)
(51.952389 1.6673739 0)
(51.935973 1.5953095 2.9135767e-19)
(51.920301 1.5241912 1.4290636e-19)
(51.905363 1.4539497 1.3795204e-19)
(51.891152 1.3845024 -2.2005453e-26)
(51.877654 1.3157724 4.2150776e-21)
(51.864858 1.247682 -2.0671467e-21)
(51.852753 1.1801565 5.1907543e-19)
(51.841323 1.1131174 -2.5448035e-19)
(51.830549 1.0464886 -2.4861405e-19)
(51.820418 0.98018905 7.1566763e-27)
(51.810924 0.91413969 -1.8750565e-21)
(51.802052 0.84825922 -2.3463547e-19)
(51.793797 0.78245935 1.216617e-24)
(51.786145 0.71666379 -2.2652928e-19)
(51.779104 0.65076384 -2.2133235e-19)
(51.772649 0.5847064 -8.5122244e-22)
(51.766816 0.51831573 2.1370741e-19)
(51.76155 0.45162498 -4.0934104e-22)
(51.756942 0.38429696 2.0592497e-19)
(51.752866 0.31656844 9.4880525e-25)
(51.749514 0.24777797 -1.976186e-19)
(51.746721 0.17859432 -1.9373657e-19)
(51.7447 0.10767419 -3.8006226e-19)
(51.743138 0.036647516 -3.6800228e-19)
(49.049797 16.818938 6.2513734e-21)
(49.339978 16.426339 0)
(49.611616 16.038645 0)
(49.865007 15.66076 2.9805602e-20)
(50.101443 15.292878 -1.7613334e-20)
(50.322354 14.933051 -2.3203681e-20)
(50.528939 14.581059 5.7382808e-21)
(50.722172 14.237901 -1.1347836e-20)
(50.902923 13.90338 -5.6086652e-21)
(51.072169 13.577308 -1.107807e-20)
(51.230532 13.260393 5.4743154e-21)
(51.378975 12.95218 -1.0823013e-20)
(51.51829 12.651814 -1.0702052e-20)
(51.649 12.360296 -1.7575175e-25)
(51.771816 12.076533 1.5720115e-20)
(51.887168 11.800556 0)
(51.995716 11.532167 -5.1393884e-21)
(52.097851 11.271067 -5.0926221e-21)
(52.193971 11.016876 -1.0099584e-20)
(52.284371 10.769377 0)
(52.369426 10.528437 -1.9889151e-20)
(52.449457 10.29349 1.4812883e-20)
(52.524647 10.064614 -2.5923142e-25)
(52.595289 9.8413861 4.8773993e-21)
(52.661567 9.6235511 4.8516441e-21)
(52.723665 9.4109084 -1.9311372e-20)
(52.781741 9.2032139 1.4421315e-20)
(52.835915 9.0001854 0)
(52.886247 8.8016306 0)
(52.932801 8.6073004 -1.9042558e-20)
(52.975597 8.4169582 1.4251119e-20)
(53.014636 8.2303822 2.3715319e-20)
(53.04993 8.047343 2.3695069e-20)
(53.081476 7.8675711 -4.2649308e-20)
(53.1093 7.6909598 -1.4225375e-20)
(53.13356 7.5173997 -2.3741449e-20)
(53.154427 7.3468834 0)
(53.172046 7.1793538 0)
(53.186484 7.0146437 0)
(53.197885 6.8527466 3.8419817e-20)
(53.206588 6.6937736 7.2342411e-20)
(53.213111 6.5379933 4.8438388e-21)
(53.21825 6.3859447 -3.890725e-20)
(53.223006 6.2382195 0)
(53.228538 6.0956853 -3.9047381e-20)
(53.235312 5.9586602 3.8980405e-20)
(53.24189 5.8255871 -4.8581646e-21)
(53.246467 5.6948457 -2.9062144e-20)
(53.248182 5.5657745 3.3820642e-20)
(53.246717 5.438094 0)
(53.241867 5.311569 3.8531318e-20)
(53.233461 5.1859849 0)
(53.221321 5.0611112 0)
(53.205209 4.9366963 0)
(53.184865 4.8124764 4.8321144e-21)
(53.160011 4.6881608 -4.8478599e-21)
(53.130351 4.5634735 1.5583866e-19)
(53.095576 4.438093 7.8383038e-20)
(53.055417 4.3117823 0)
(53.009673 4.184289 -8.466287e-20)
(52.958283 4.055521 -7.5504988e-20)
(52.901423 3.9254952 -5.0929709e-21)
(52.839395 3.7943968 8.7733212e-20)
(52.772483 3.6622902 -8.1138398e-20)
(52.700909 3.5292903 -2.6572173e-21)
(52.624993 3.3954428 8.640429e-20)
(52.545196 3.2610059 -1.757308e-19)
(52.462151 3.1262406 2.7951091e-21)
(52.377198 2.9917921 8.8227886e-20)
(52.29553 2.8596859 9.2589839e-20)
(52.230987 2.7401971 -1.8571882e-19)
(52.192373 2.6423862 0)
(52.16591 2.5518858 -9.0290996e-20)
(52.141236 2.4634165 0)
(52.117494 2.3769928 0)
(52.094547 2.2923861 -1.7063691e-19)
(52.072406 2.2095138 -1.6744087e-19)
(52.051053 2.1282583 2.5670043e-21)
(52.030492 2.0485519 -2.5182907e-21)
(52.01072 1.9702942 -1.581375e-19)
(51.991724 1.8934099 -1.5513986e-19)
(51.9735 1.8178012 0)
(51.956036 1.7433976 -2.9860558e-19)
(51.939316 1.6701123 0)
(51.923337 1.5978708 -1.4587684e-19)
(51.908076 1.5265822 4.4032976e-21)
(51.893524 1.456178 -2.1591051e-21)
(51.879675 1.386576 -2.1185017e-21)
(51.866519 1.3176975 2.0780685e-21)
(51.854043 1.249466 -1.3043611e-19)
(51.842237 1.1818059 1.6012959e-24)
(51.831087 1.1146381 2.5092829e-19)
(51.820575 1.0478868 2.4606912e-19)
(51.810689 0.98147044 0)
(51.801422 0.91530927 9.2634194e-22)
(51.792759 0.84932213 2.3133506e-19)
(51.784699 0.78342077 8.9085988e-22)
(51.777225 0.71752728 2.2247698e-19)
(51.770347 0.65153422 4.3814596e-19)