/*--------------------------------*- C++ -*----------------------------------*\
| =========                 |                                                 |
| \\      /  F ield         | OpenFOAM: The Open Source CFD Toolbox           |
|  \\    /   O peration     | Version:  2406                                  |
|   \\  /    A nd           | Website:  www.openfoam.com                      |
|    \\/     M anipulation  |                                                 |
\*---------------------------------------------------------------------------*/
FoamFile
{
    version     2.0;
    format      ascii;
    arch        "LSB;label=32;scalar=64";
    class       volScalarField;
    location    "0.073";
    object      p;
}
// * * * * * * * * * * * * * * * * * * * * * * * * * * * * * * * * * * * * * //

dimensions      [1 -1 -2 0 0 0 0];

internalField   nonuniform List<scalar> 
8260
(
101071.74
100993.47
100948.42
100893.65
100843.69
100807.69
100787.81
100783.86
100794.87
100818.73
100855.62
100903.42
100959.13
101019.93
101081.05
101145.25
101184.27
101215.18
101240.4
101262.22
101281.54
101297.97
101312.58
101324.95
101335.6
101344.79
101352.4
101358.66
101363.81
101366.96
101369.24
101227.95
101159.15
101092.16
101020.53
100958.05
100910.29
100878.48
100863.23
100862.92
100876.37
100903.69
100943.21
100991.48
101046.54
101099.88
101158.03
101192.45
101223.32
101246.81
101267.25
101285.54
101301.14
101315.12
101326.99
101337.24
101346.12
101353.5
101359.58
101364.59
101367.65
101369.88
101333.43
101270.52
101197.05
101118.83
101050.03
100994.96
100954.81
100931.1
100922.61
100926.62
100946.12
100978.73
101021.13
101072.19
101120.05
101173.6
101203.04
101233.14
101254.35
101273.12
101290.19
101304.82
101318.06
101329.34
101339.13
101347.66
101354.76
101360.63
101365.49
101368.44
101370.61
101420.18
101361.12
101288.1
101208.2
101135.76
101075.36
101028.44
100996.67
100980.01
100976.79
100989.08
101015.07
101052.01
101099.22
101142.35
101190.76
101216.05
101244.24
101262.93
101279.81
101295.5
101309.02
101321.42
101332.02
101341.28
101349.41
101356.19
101361.83
101366.51
101369.34
101371.43
101495.17
101440.14
101370.58
101292.32
101219.02
101155.63
101103.88
101065.55
101041.55
101031.61
101036.82
101056.09
101087.37
101129.95
101167.93
101209.51
101231.82
101256.68
101272.69
101287.42
101301.54
101313.82
101325.25
101335.08
101343.74
101351.4
101357.83
101363.19
101367.68
101370.37
101372.37
101557.2
101506.06
101441.86
101368.27
101297.23
101233.66
101179.53
101136.83
101107.1
101091.06
101089.63
101102.31
101127.89
101165.04
101197.16
101230.15
101250.52
101270.62
101283.73
101296.09
101308.41
101319.28
101329.61
101338.57
101346.55
101353.67
101359.69
101364.74
101369
101371.53
101373.44
101606.06
101558.88
101500.8
101434.36
101368.44
101307.44
101253.51
101208.8
101175.27
101154.32
101147.09
101153.67
101173.84
101204.71
101230.02
101253.44
101271.88
101286.26
101296.2
101305.92
101316.23
101325.48
101334.56
101342.52
101349.74
101356.26
101361.8
101366.51
101370.5
101372.86
101374.65
101643.21
101600.66
101549.88
101491.72
101432.65
101376.37
101324.95
101280.52
101245.23
101220.91
101209
101210.3
101225.59
101248.9
101266.19
101280.9
101295.36
101303.8
101310.21
101317.07
101325.09
101332.54
101340.2
101347.02
101353.36
101359.2
101364.21
101368.52
101372.2
101374.37
101376.03
101673.05
101634.19
101590.79
101541.59
101490.64
101440.75
101393.77
101351.66
101316.57
101290.52
101275.26
101272.32
101283.23
101297.07
101305.73
101313.43
101320.53
101323.34
101325.91
101329.65
101335.07
101340.55
101346.62
101352.12
101357.46
101362.55
101366.95
101370.81
101374.14
101376.09
101377.59
101697.5
101664.79
101627.3
101586.58
101544.48
101502.09
101460.87
101422.62
101389.34
101363.08
101345.82
101339.64
101345.79
101349.73
101349.44
101349.39
101347.37
101344.93
101343.36
101343.75
101346.27
101349.62
101353.91
101357.93
101362.14
101366.36
101370.08
101373.43
101376.35
101378.06
101379.37
101717.28
101697.52
101669.41
101636.5
101600.81
101564.48
101528.7
101494.76
101464.24
101439.01
101421.22
101412.71
101412.84
101406.81
101396.39
101386.07
101376.25
101368.41
101362.57
101359.44
101358.8
101359.83
101362.14
101364.56
101367.47
101370.69
101373.64
101376.41
101378.86
101380.31
101381.39
101744.76
101731.45
101712.37
101686.49
101657.74
101628.18
101598.56
101569.71
101542.88
101519.9
101502.96
101492.03
101481.78
101464.42
101442.78
101423.02
101406.64
101393.42
101383.5
101376.7
101372.8
101371.2
101371.36
101372.09
101373.55
101375.59
101377.69
101379.81
101381.73
101382.87
101383.71
101788.02
101787.63
101776.08
101753.55
101728.27
101702.98
101678.02
101653.4
101629.62
101607.73
101588.16
101568.8
101544.59
101515.21
101485.78
101459.63
101437.67
101419.9
101405.92
101395.5
101388.22
101383.78
101381.6
101380.51
101380.43
101381.14
101382.28
101383.66
101385
101385.76
101386.36
101863.56
101849.52
101831.38
101809.66
101787.94
101768.54
101750.36
101730.83
101708.71
101684.03
101656.47
101625.68
101592.22
101557.67
101524.42
101494.62
101468.95
101447.22
101429.44
101415.55
101405.09
101397.57
101392.82
101389.81
101388.12
101387.41
101387.45
101388.01
101388.69
101389.03
101389.41
101894.37
101894.53
101891.54
101885.38
101871.33
101847.86
101821.35
101794.09
101764.45
101732.31
101698.63
101663.45
101627.86
101592.62
101558.67
101527.18
101499.09
101474.57
101453.56
101436.48
101423.01
101412.54
101405.08
101399.94
101396.62
101394.46
101393.26
101392.88
101392.83
101392.7
101392.88
101896.13
101887.46
101875.22
101860.25
101847.38
101837.37
101826.81
101814.59
101794.78
101765.15
101730.04
101692.92
101656.78
101622.06
101588.69
101556.65
101527.06
101500.8
101477.52
101457.71
101441.64
101428.52
101418.42
101411.01
101405.9
101402.3
101399.77
101398.3
101397.44
101396.8
101396.81
101888.16
101880.55
101871.07
101860.02
101848.16
101835.03
101818.58
101798.37
101779.4
101764.02
101743.95
101715.64
101681.61
101646.89
101614.33
101582.99
101552.57
101525.02
101500.44
101478.74
101460.47
101445.16
101432.77
101423.1
101415.99
101410.88
101406.98
101404.3
101402.55
101401.37
101401.2
101859.97
101853.96
101846.73
101838.45
101828.96
101817.98
101805.26
101790.68
101774.57
101756.36
101738.23
101721.95
101699.79
101668.3
101635.37
101605.07
101575.67
101547.22
101521.57
101498.77
101478.99
101462.07
101447.85
101436.11
101426.87
101420.09
101414.86
101410.9
101408.18
101406.44
101406.07
101834.33
101829.49
101823.66
101817
101809.39
101800.63
101790.58
101779.13
101766.18
101751.71
101734.99
101715.12
101696.45
101679.33
101652.37
101622.64
101595.09
101567.37
101540.73
101517.17
101496.63
101478.64
101463
101449.65
101438.43
101429.82
101423.3
101418.15
101414.4
101412.04
101411.41
101804.3
101800.5
101795.92
101790.72
101784.77
101777.95
101770.1
101761.12
101750.84
101739.11
101725.98
101711.73
101694.88
101677.83
101661.42
101637.07
101610.52
101584.49
101558.17
101534.12
101512.98
101494.33
101477.63
101463.06
101450.45
101440.09
101432.26
101426.05
101421.26
101418.23
101417.25
101777.33
101774.35
101770.76
101766.67
101762.01
101756.65
101750.49
101743.4
101735.24
101725.88
101715.13
101702.71
101689.15
101673.65
101658.67
101643.54
101621.02
101597.39
101573.6
101550.17
101528.42
101509.01
101491.53
101476.04
101462.65
101451
101441.79
101434.56
101428.8
101425.04
101423.61
101748.55
101746.24
101743.46
101740.3
101736.71
101732.56
101727.78
101722.28
101715.95
101708.68
101700.36
101690.92
101680.02
101667.8
101653.49
101640.27
101625.92
101605.48
101585.16
101564.34
101543.01
101523.19
101505.15
101488.87
101474.94
101462.48
101451.92
101443.63
101437.01
101432.51
101430.55
101722.14
101720.34
101718.18
101715.72
101712.92
101709.68
101705.93
101701.58
101696.56
101690.74
101684.01
101676.25
101667.4
101657.33
101646.18
101633.11
101620.93
101608.74
101593.02
101574.95
101555.51
101536.65
101518.57
101501.75
101487.07
101474.12
101462.52
101453.15
101445.79
101440.61
101438.09
101696
101694.63
101692.98
101691.12
101689
101686.55
101683.72
101680.45
101676.66
101672.28
101667.23
101661.41
101654.72
101647.14
101638.53
101628.58
101618.05
101607.62
101594.7
101578.5
101562.08
101546.33
101529.94
101513.66
101498.39
101485.17
101473.18
101462.98
101455.01
101449.28
101446.26
101672.83
101671.81
101670.58
101669.19
101667.6
101665.77
101663.64
101661.17
101658.3
101654.98
101651.11
101646.61
101641.42
101635.43
101628.58
101621.11
101612.63
101602.94
101594.16
101582.88
101567.62
101552.93
101537.58
101522.73
101508.33
101495.23
101483.52
101472.97
101464.55
101458.41
101455.01
101651.66
101650.93
101650.06
101649.08
101647.96
101646.65
101645.14
101643.37
101641.32
101638.91
101636.11
101632.83
101629
101624.54
101619.37
101613.3
101606.36
101598.52
101589
101581.14
101572.85
101559.01
101544.34
101530.46
101517.58
101504.86
101493.53
101483.05
101474.31
101467.9
101464.2
101632.43
101631.89
101631.25
101630.53
101629.7
101628.73
101627.62
101626.32
101624.81
101623.04
101620.98
101618.56
101615.75
101612.47
101608.56
101604.01
101598.75
101592.8
101586.59
101579.52
101572.23
101563.82
101551.05
101538.16
101526.62
101514.54
101503.21
101493.02
101484.17
101477.56
101473.67
101616.32
101615.94
101615.49
101614.98
101614.39
101613.71
101612.92
101611.99
101610.91
101609.65
101608.19
101606.48
101604.46
101602.06
101599.31
101596.15
101592.45
101588.1
101582.81
101576.35
101568.51
101561.57
101554.31
101543.81
101533.6
101523.03
101512.16
101502.4
101493.82
101487.15
101483.18
101604.8
101604.5
101604.16
101603.76
101603.31
101602.79
101602.19
101601.49
101600.68
101599.72
101598.59
101597.26
101595.68
101593.82
101591.62
101588.98
101585.83
101582.08
101577.65
101572.69
101567.39
101559.98
101552.95
101546.72
101537.63
101529.01
101519.75
101510.75
101502.72
101496.29
101492.36
101594.12
101593.86
101593.55
101593.2
101592.8
101592.33
101591.79
101591.15
101590.42
101589.55
101588.55
101587.38
101586.02
101584.45
101582.64
101580.53
101578.1
101575.3
101572.08
101568.24
101563.58
101558.59
101554.16
101548.76
101541.41
101533.64
101525.68
101517.72
101510.4
101504.43
101500.74
101582.14
101582.01
101581.86
101581.68
101581.47
101581.23
101580.95
101580.62
101580.23
101579.77
101579.22
101578.56
101577.78
101576.82
101575.65
101574.25
101572.58
101570.58
101568.2
101565.38
101562.1
101558.35
101553.92
101548.66
101542.7
101536.08
101529.02
101521.84
101515.07
101509.44
101505.98
100479.06
100464.94
100455.43
100445.95
100435.21
100428.04
100430.82
100445.26
100468.19
100503.69
100550.7
100607.52
100672.51
100743.13
100816.74
100896.68
100966.35
101039.04
101084.14
101131.07
101172.72
101207.69
101237.61
101262.84
101283.96
101301.55
101315.89
101327.27
101336.11
101341.9
101345.76
100490.88
100475.11
100454.59
100437.44
100424.5
100419.46
100426.72
100446.69
100476.98
100518.09
100568.88
100627.95
100693.84
100763.71
100835.75
100912.32
100980.92
101047
101087.35
101136.83
101177.62
101211.78
101240.95
101265.57
101286.19
101303.38
101317.41
101328.55
101337.23
101342.9
101346.71
100453.38
100428.22
100404.11
100389.61
100384.84
100389.97
100406.82
100435.87
100473.58
100520.8
100576.4
100638.91
100706.9
100777.42
100849.83
100924.1
100993.93
101054.36
101093.15
101143.2
101182.72
101215.97
101244.36
101268.34
101288.45
101305.23
101318.94
101329.84
101338.35
101343.91
101347.62
100392.64
100370.79
100353.61
100346.85
100350.07
100363.55
100388.46
100424.39
100468.7
100521.53
100581.51
100647.18
100717.2
100788.65
100862.44
100935
101005.36
101061.64
101100.27
101149.54
101187.77
101220.14
101247.77
101271.12
101290.72
101307.09
101320.48
101331.15
101339.49
101344.93
101348.53
100313.38
100299.4
100291.88
100295.81
100310.21
100334.7
100369.42
100413.36
100464.77
100523.22
100587.38
100655.97
100727.76
100800.04
100875.32
100946.96
101015.85
101068.5
101107.67
101155.81
101192.8
101224.3
101251.18
101273.9
101292.99
101308.96
101322.04
101332.46
101340.63
101345.95
101349.48
100219.04
100217.42
100223.92
100242.09
100269.94
100306.51
100351.45
100403.78
100462.23
100526.08
100594.16
100665.43
100738.77
100811.71
100888.31
100959.54
101025.32
101074.61
101115.17
101161.96
101197.79
101228.43
101254.57
101276.68
101295.27
101310.84
101323.6
101333.78
101341.78
101346.99
101350.44
100110.86
100127.91
100152.93
100187.85
100230.41
100279.58
100334.93
100395.72
100460.94
100529.87
100601.58
100675.28
100749.9
100823.33
100900.83
100971.85
101034.84
101080.49
101122.76
101168.01
101202.74
101232.53
101257.94
101279.45
101297.55
101312.73
101325.17
101335.11
101342.94
101348.02
101351.4
100000.62
100039.34
100084.15
100136.24
100193.57
100255.11
100320.63
100389.53
100461.06
100534.63
100609.61
100685.45
100761.1
100835.12
100912.93
100983.2
101044.67
101086.82
101130.39
101173.95
101207.65
101236.59
101261.3
101282.21
101299.83
101314.62
101326.75
101336.45
101344.11
101349.07
101352.38
99897.368
99957.21
100020.65
100089.35
100160.92
100234.14
100309.16
100385.54
100462.76
100540.45
100618.29
100695.95
100772.44
100847.95
100925.01
100993.45
101054.06
101093.86
101137.96
101179.8
101212.52
101240.62
101264.64
101284.96
101302.1
101316.5
101328.33
101337.8
101345.28
101350.12
101353.36
99805.28
99885.339
99965.132
100049.48
100134.18
100217.64
100301.06
100384.02
100466.17
100547.38
100627.61
100706.77
100784.07
100861.22
100936.97
101003.68
101062.68
101101.39
101145.44
101185.57
101217.34
101244.61
101267.95
101287.7
101304.36
101318.39
101329.91
101339.14
101346.46
101351.18
101354.34
99727.963
99825.105
99921.802
100019.29
100114.63
100206.36
100296.89
100385.25
100471.39
100555.44
100637.59
100718.04
100796.5
100874.66
100948.17
101013.79
101070.69
101109.2
101152.77
101191.25
101222.11
101248.57
101271.24
101290.42
101306.62
101320.27
101331.49
101340.49
101347.64
101352.24
101355.33
99673.218
99784.028
99892.648
99998.966
100101.8
100201.19
100297.36
100389.58
100478.61
100564.77
100648.42
100730.13
100809.85
100886.1
100957.97
101023.76
101078.44
101117.17
101159.96
101196.86
101226.82
101252.48
101274.49
101293.12
101308.86
101322.15
101333.06
101341.84
101348.83
101353.3
101356.32
99645.683
99764.372
99879.223
99990.722
100098.44
100202.11
100302.07
100397.64
100488.5
100576.01
100660.74
100743.24
100821.13
100895.34
100968.11
101033.12
101086.21
101125.23
101167.01
101202.4
101231.47
101256.34
101277.72
101295.79
101311.09
101324.01
101334.64
101343.2
101350.01
101354.36
101357.32
99645.809
99767.157
99882.83
99995.344
100104.69
100210.19
100312.25
100409.96
100502.22
100590.08
100674.42
100754.32
100830.93
100905.49
100977.88
101042.12
101094.26
101133.32
101173.9
101207.87
101236.07
101260.16
101280.9
101298.44
101313.3
101325.87
101336.21
101344.54
101351.2
101355.43
101358.32
99658.67
99784.297
99900.737
100012.65
100121.38
100226.75
100329.01
100425.74
100517.3
100603.26
100684.07
100763.39
100842.25
100915.79
100987.32
101051.6
101102.56
101141.44
101180.64
101213.26
101240.59
101263.93
101284.05
101301.06
101315.49
101327.71
101337.77
101345.89
101352.39
101356.5
101359.32
99679.596
99806.333
99924.318
100036.68
100144.38
100247.7
100347.33
100439.29
100526.15
100611.67
100695.78
100776.01
100854.03
100926
100996.67
101061.23
101111.02
101149.57
101187.2
101218.56
101245.05
101267.63
101287.15
101303.65
101317.66
101329.53
101339.32
101347.23
101353.57
101357.57
101360.33
99748.432
99857.034
99960.973
100064.57
100166.83
100265.38
100358.14
100449.99
100541.81
100627.33
100710.04
100789.4
100865.95
100936.18
101005.94
101070.68
101119.51
101157.62
101193.59
101223.78
101249.43
101271.29
101290.21
101306.21
101319.8
101331.34
101340.86
101348.56
101354.76
101358.64
101361.33
99887.944
99971.674
100050.16
100132.22
100218.04
100304.72
100389.55
100476.33
100563.62
100645.61
100725.44
100803.04
100877.97
100946.39
101015.12
101080
101127.98
101165.55
101199.84
101228.92
101253.75
101274.88
101293.22
101308.73
101321.92
101333.13
101342.38
101349.89
101355.94
101359.71
101362.34
100021.88
100091.09
100151.47
100215.21
100284.34
100356.81
100430.3
100508.15
100588.82
100665.58
100741.71
100817
100890.12
100956.71
101024.2
101089.28
101136.37
101173.33
101205.97
101233.96
101257.99
101278.41
101296.19
101311.2
101324
101334.9
101343.89
101351.2
101357.11
101360.78
101363.35
100173.32
100223.06
100262.75
100307.09
100358.62
100415.38
100475.92
100543.68
100616.58
100687.32
100758.88
100831.26
100902.3
100967.14
101033.19
101098.57
101144.66
101180.94
101211.99
101238.9
101262.13
101281.86
101299.08
101313.63
101326.05
101336.64
101345.38
101352.5
101358.27
101361.85
101364.37
100343.94
100370.69
100386.83
100409.15
100440.69
100479.79
100526.95
100583.29
100646.61
100710.78
100776.96
100845.74
100914.4
100977.64
101042.13
101107.74
101152.73
101188.27
101217.82
101243.69
101266.14
101285.21
101301.89
101315.99
101328.04
101338.34
101346.85
101353.79
101359.43
101362.92
101365.38
100534.03
100533.82
100524.43
100522.38
100531.07
100552.75
100586.33
100628.16
100679.8
100736.87
100796.84
100861.13
100926.87
100988.45
101051.11
101116.32
101160.3
101195.01
101223.37
101248.27
101269.99
101288.43
101304.61
101318.29
101329.99
101340.01
101348.3
101355.07
101360.58
101363.98
101366.4
100750.85
100723.47
100689.67
100660.94
100645.76
100646.22
100659.66
100685.2
100722.57
100769.71
100821.76
100880
100941.56
101000.69
101060.63
101124.07
101166.99
101200.92
101228.63
101252.7
101273.72
101291.56
101307.27
101320.55
101331.92
101341.67
101349.74
101356.34
101361.73
101365.05
101367.42
100977.37
100937.73
100895.06
100845.28
100801.8
100772.96
100760.28
100763.98
100782.92
100813.98
100854.87
100904.73
100960.26
101015.93
101072.03
101132.45
101173.44
101206.83
101234.12
101257.32
101277.6
101294.8
101309.99
101322.84
101333.86
101343.34
101351.18
101357.61
101362.88
101366.11
101368.44
100517.96
100512.16
100502
100491.63
100482.22
100476.13
100476.68
100486.47
100504.38
100534.45
100575.89
100627.35
100687.25
100753.24
100821.9
100896.31
100960.79
101028.38
101078.47
101125.25
101168.35
101204.13
101234.7
101260.47
101282.04
101299.97
101314.59
101326.18
101335.18
101341.07
101344.96
100526.24
100524.31
100515.18
100504.51
100495.14
100489.85
100490.6
100496.91
100512.87
100540.67
100579.68
100628.87
100686.81
100751.41
100819.35
100893.02
100959.31
101024.74
101077.24
101122.83
101166.04
101202.03
101232.87
101258.91
101280.72
101298.86
101313.65
101325.38
101334.47
101340.43
101344.33
100522.24
100520.03
100513.6
100507.23
100501.61
100498.49
100500.29
100507.04
100522.81
100549.21
100586.26
100633.32
100689.2
100752.05
100818.88
100891.09
100958.33
101023.04
101075.68
101120.77
101164.11
101200.21
101231.24
101257.48
101279.47
101297.78
101312.71
101324.56
101333.74
101339.77
101343.46
100518.25
100516.69
100513.42
100510.4
100508.04
100507.51
100510.85
100518.99
100534.89
100560.12
100595.3
100640.16
100693.75
100754.51
100819.74
100889.81
100956.94
101021.26
101073.68
101118.36
101161.97
101198.24
101229.47
101255.93
101278.13
101296.62
101311.7
101323.68
101332.95
101339.05
101342.46
100516.01
100516.41
100515.73
100515.01
100514.84
100516.44
100521.38
100530.84
100547
100571.4
100604.97
100647.77
100699.12
100757.7
100821.15
100888.72
100955.4
101019.13
101071.4
101115.73
101159.57
101196.05
101227.53
101254.22
101276.65
101295.34
101310.6
101322.72
101332.09
101338.28
101341.61
100513.78
100515.94
100517.33
100518.68
100520.63
100524.28
100530.92
100541.72
100558.36
100582.31
100614.63
100655.62
100704.87
100761.29
100822.87
100887.8
100953.73
101017.14
101069.01
101113.01
101157.06
101193.72
101225.44
101252.39
101275.07
101293.97
101309.42
101321.69
101331.17
101337.45
101340.9
100510.6
100513.88
100517.25
100520.83
100525.08
100530.92
100539.45
100551.71
100569.09
100592.92
100624.3
100663.72
100711.01
100765.32
100824.98
100887.29
100952.51
101015.42
101066.89
101110.22
101154.51
101191.33
101223.28
101250.48
101273.4
101292.53
101308.16
101320.6
101330.2
101336.57
101340.14
100506.86
100511.54
100516.55
100522.14
100528.65
100536.75
100547.27
100561.12
100579.45
100603.42
100634.14
100672.2
100717.67
100769.91
100827.57
100887.66
100951.92
101013.62
101065.28
101107.48
101151.95
101188.89
101221.05
101248.49
101271.66
101291.01
101306.84
101319.44
101329.17
101335.64
101339.11
100502.78
100509.11
100515.7
100523.2
100531.9
100542.21
100554.75
100570.26
100589.66
100613.99
100644.25
100681.15
100724.91
100775.13
100830.77
100889.03
100951.38
101011.46
101063.84
101104.91
101149.39
101186.4
101218.76
101246.43
101269.84
101289.42
101305.45
101318.22
101328.07
101334.65
101337.99
100498.59
100506.48
100514.84
100524.38
100535.27
100547.76
100562.31
100579.48
100600.02
100624.81
100654.77
100690.65
100732.8
100781.05
100834.62
100891.13
100951
101009.62
101062.3
101102.5
101146.84
101183.88
101216.4
101244.3
101267.94
101287.75
101303.98
101316.93
101326.91
101333.59
101336.81
100495.33
100504.56
100514.81
100526.39
100539.41
100554
100570.46
100589.22
100610.87
100636.14
100665.88
100700.82
100741.44
100787.73
100839.19
100893.85
100951.63
101008.53
101060.61
101100.31
101144.32
101181.33
101213.99
101242.09
101265.96
101285.99
101302.43
101315.55
101325.67
101332.47
101335.74
100494.42
100504.96
100516.94
100530.37
100545.3
100561.76
100579.91
100600.05
100622.65
100648.32
100677.8
100711.82
100750.92
100795.26
100844.54
100897.22
100953.02
101008.13
101059.17
101098.45
101141.86
101178.79
101211.54
101239.81
101263.9
101284.16
101300.8
101314.1
101324.37
101331.27
101334.67
100497.43
100509.13
100522.62
100537.59
100554.07
100572.02
100591.49
100612.66
100635.91
100661.75
100690.82
100723.84
100761.38
100803.73
100850.76
100901.32
100955
101007.82
101057.86
101097.15
101139.49
101176.27
101209.06
101237.48
101261.77
101282.24
101299.08
101312.58
101322.98
101330.01
101333.52
100506.27
100518.9
100533.53
100549.59
100567.07
100585.92
100606.12
100627.79
100651.23
100676.87
100705.28
100737.11
100772.97
100813.23
100857.91
100906.21
100957.6
101008.09
101056.6
101096.16
101137.25
101173.8
101206.58
101235.1
101259.56
101280.24
101297.29
101310.96
101321.52
101328.67
101332.27
100523.64
100536.52
100551.55
100567.94
100585.62
100604.55
100624.71
100646.19
100669.2
100694.14
100721.49
100751.87
100785.85
100823.89
100866.1
100911.96
100960.89
101009.06
101055.82
101095.46
101135.17
101171.43
101204.12
101232.69
101257.29
101278.17
101295.42
101309.27
101319.98
101327.25
101330.93
100550.66
100562.74
100577.73
100593.71
100610.68
100628.77
100648.01
100668.46
100690.33
100713.95
100739.77
100768.32
100800.18
100835.8
100875.39
100918.63
100964.81
101010.52
101055.64
101095.17
101133.28
101169.19
101201.72
101230.26
101254.97
101276.03
101293.46
101307.49
101318.35
101325.75
101329.5
100586.49
100599.26
100613.04
100627.33
100642.55
100658.88
100676.3
100694.91
100714.89
100736.57
100760.33
100786.65
100816.08
100849.07
100885.86
100926.25
100969.23
101012.31
101056.33
101095.38
101131.61
101167.13
101199.4
101227.84
101252.62
101273.82
101291.43
101305.63
101316.64
101324.17
101327.99
100631.26
100642.42
100654.63
100667.09
100680.22
100694.23
100709.22
100725.35
100742.83
100761.99
100783.21
100806.92
100833.62
100863.75
100897.57
100934.91
100974.49
101015.36
101058.65
101096.08
101130.24
101165.29
101197.21
101225.46
101250.24
101271.56
101289.33
101303.69
101314.85
101322.5
101326.4
100681.08
100690.44
100700.98
100711.49
100722.28
100733.68
100745.89
100759.14
100773.71
100789.96
100808.26
100829.04
100852.76
100879.85
100910.56
100944.78
100981.43
101020.28
101061.81
101097.04
101129.26
101163.76
101195.19
101223.14
101247.86
101269.25
101287.16
101301.67
101312.97
101320.74
101324.73
100733.27
100741.15
100749.91
100758.36
100766.79
100775.56
100784.95
100795.23
100806.75
100819.9
100835.1
100852.77
100873.36
100897.28
100924.8
100955.88
100989.73
101025.81
101064.1
101098.3
101128.99
101162.55
101193.37
101220.93
101245.52
101266.92
101284.94
101299.57
101311
101318.9
101322.96
100784.97
100791.23
100798.35
100805.05
100811.46
100817.93
100824.74
100832.25
100840.86
100851.01
100863.14
100877.7
100895.14
100915.87
100940.19
100968.11
100999.03
101032.21
101067.29
101100.19
101129.27
101161.73
101191.77
101218.85
101243.23
101264.58
101282.66
101297.4
101308.96
101316.97
101321.11
100834.39
100839.09
100844.61
100849.72
100854.44
100858.99
100863.65
100868.8
100874.87
100882.33
100891.64
100903.29
100917.73
100935.39
100956.56
100981.34
101009.24
101039.56
101071.82
101102.41
101130.16
101161.33
101190.39
101216.96
101241.03
101262.26
101280.35
101295.16
101306.83
101314.95
101319.17
100880.41
100883.56
100887.46
100891.05
100894.27
100897.26
100900.25
100903.56
100907.62
100912.89
100919.83
100928.94
100940.7
100955.52
100973.71
100995.46
101020.34
101047.77
101077.11
101105.56
101132.05
101161.42
101189.23
101215.25
101238.95
101259.97
101278.03
101292.87
101304.62
101312.85
101317.13
100921.29
100923.65
100926.08
100928.26
100930.19
100931.97
100933.72
100935.72
100938.32
100941.95
100947.06
100954.12
100963.61
100975.93
100991.43
101010.28
101032.26
101056.76
101082.81
101108.47
101135.12
101162.47
101188.43
101213.79
101236.99
101257.75
101275.7
101290.54
101302.35
101310.67
101315.01
100955.19
100956.3
100958.66
100960.47
100961.61
100962.59
100963.58
100964.76
100966.46
100969.03
100972.87
100978.42
100986.1
100996.34
101009.47
101025.68
101044.9
101066.53
101089.53
101113.62
101138.06
101163.68
101188.67
101212.8
101235.23
101255.63
101273.39
101288.18
101300.01
101308.41
101312.81
100986.59
100986.46
100986.68
100987.34
100988.3
100989.06
100989.72
100990.57
100991.89
100993.95
100997.06
101001.61
101007.96
101016.54
101027.66
101041.55
101058.2
101077.18
101097.79
101120.04
101141.81
101165.67
101189.19
101211.84
101233.58
101253.61
101271.14
101285.81
101297.63
101306.08
101310.53
101011.43
101011.5
101011.81
101011.97
101012.04
101012.2
101012.72
101013.67
101015.04
101016.99
101019.79
101023.75
101029.19
101036.46
101045.89
101057.74
101072.06
101088.61
101106.84
101126.71
101146.22
101167.26
101189.72
101211.8
101232.46
101251.78
101268.96
101283.46
101295.2
101303.69
101308.18
101032
101032.02
101032.23
101032.47
101032.94
101033.66
101034.55
101035.62
101037.05
101039
101041.65
101045.2
101049.94
101056.14
101064.13
101074.17
101086.36
101100.59
101116.45
101133.79
101151.08
101169.13
101191.29
101212.61
101231.28
101250.1
101266.89
101281.16
101292.77
101301.24
101305.77
101051.61
101051.93
101052.4
101052.84
101053.42
101054.3
101055.43
101056.76
101058.41
101060.46
101063.03
101066.27
101070.41
101075.69
101082.39
101090.78
101101
101113.03
101126.58
101141.52
101155.86
101172.35
101192.85
101212.9
101231.26
101248.72
101264.94
101278.93
101290.33
101298.77
101303.32
101071.32
101071.95
101072.76
101073.6
101074.55
101075.39
101076.43
101078.03
101079.91
101082
101084.42
101087.29
101090.81
101095.18
101100.66
101107.49
101115.87
101125.82
101137.12
101149.52
101161.67
101177.05
101195.26
101213.57
101231.1
101247.49
101263.16
101276.8
101287.94
101296.27
101300.82
101091.56
101092.33
101093.28
101094.23
101095.17
101096.48
101098.24
101100.02
101101.87
101103.83
101105.96
101108.36
101111.17
101114.6
101118.86
101124.2
101130.84
101138.85
101148.08
101158.31
101169.2
101182.26
101197.79
101214.5
101231.32
101246.73
101261.54
101274.79
101285.59
101293.78
101298.31
101113.07
101113.83
101114.79
101115.71
101116.9
101118.55
101120.32
101122.01
101123.71
101125.47
101127.27
101129.15
101131.23
101133.7
101136.77
101140.7
101145.71
101151.94
101159.33
101167.75
101177.1
101187.57
101201.13
101216.11
101231.49
101246.21
101260.17
101272.91
101283.33
101291.32
101295.8
101135.49
101136.07
101136.9
101137.93
101139.25
101140.67
101142.1
101143.54
101145
101146.43
101147.79
101149.12
101150.49
101152.05
101154.02
101156.64
101160.17
101164.77
101170.47
101177.15
101184.73
101193.18
101204.97
101218.11
101232.45
101246.15
101259.02
101271.17
101281.17
101288.91
101293.32
101158.66
101158.92
101159.52
101160.13
101160.89
101161.88
101162.94
101164.03
101165.08
101166.03
101166.87
101167.61
101168.31
101169.07
101170.08
101171.59
101173.84
101177.04
101181.24
101186.36
101192.38
101199.12
101209.18
101220.86
101233.7
101246.2
101258.13
101269.58
101279.17
101286.59
101290.88
101179.09
101178.89
101179.43
101180.66
101182.12
101183.02
101183.3
101183.53
101183.81
101184.05
101184.19
101184.24
101184.24
101184.29
101184.53
101185.16
101186.39
101188.45
101191.41
101195.26
101199.97
101205.31
101213.69
101223.73
101234.79
101246.74
101258.03
101268.27
101277.32
101284.39
101288.53
101197.9
101197.51
101197.2
101196.66
101196.23
101196.66
101197.87
101199.08
101199.51
101199.16
101198.68
101198.18
101197.67
101197.22
101196.94
101196.99
101197.53
101198.78
101200.84
101203.71
101207.36
101211.64
101218.44
101227.05
101236.94
101247.56
101257.68
101267.11
101275.7
101282.35
101286.29
101213.8
101213.32
101212.94
101212.42
101211.61
101210.56
101209.47
101208.6
101208.52
101209.05
101209.07
101208.51
101207.88
101207.33
101206.95
101206.83
101207.12
101207.96
101209.46
101211.63
101214.47
101217.95
101223.3
101230.71
101239.15
101248.36
101257.9
101266.48
101274.31
101280.51
101284.21
101222.74
101222.61
101222.3
101221.91
101221.45
101220.86
101220.09
101219.06
101217.84
101216.71
101216.1
101215.83
101215.45
101215.12
101214.94
101214.99
101215.35
101216.09
101217.31
101219.05
101221.29
101224.1
101228.31
101234.57
101241.74
101249.93
101258.38
101265.95
101273.12
101278.89
101282.31
101225.22
101225.2
101225.13
101225.01
101224.83
101224.62
101224.37
101224.11
101223.82
101223.45
101222.95
101222.56
101222.36
101222.18
101222.17
101222.35
101222.8
101223.56
101224.66
101226.1
101227.88
101230.12
101233.43
101238.56
101244.65
101251.52
101258.57
101265.86
101272.53
101277.56
101280.65
101228.23
101228.4
101228.52
101228.59
101228.66
101228.75
101228.84
101228.95
101229.07
101229.18
101229.09
101228.79
101228.76
101229.08
101229.41
101229.75
101230.22
101230.91
101231.83
101232.98
101234.35
101236.07
101238.55
101242.64
101247.66
101253.31
101259.83
101266.34
101271.82
101276.47