/*--------------------------------*- C++ -*----------------------------------*\
| =========                 |                                                 |
| \\      /  F ield         | OpenFOAM: The Open Source CFD Toolbox           |
|  \\    /   O peration     | Version:  2406                                  |
|   \\  /    A nd           | Website:  www.openfoam.com                      |
|    \\/     M anipulation  |                                                 |
\*---------------------------------------------------------------------------*/
FoamFile
{
    version     2.0;
    format      ascii;
    arch        "LSB;label=32;scalar=64";
    class       volScalarField;
    location    "0.073";
    object      T;
}
// * * * * * * * * * * * * * * * * * * * * * * * * * * * * * * * * * * * * * //

dimensions      [0 0 0 1 0 0 0];

internalField   nonuniform List<scalar> 
8260
(
292.77417
292.77546
292.77772
292.78532
292.79687
292.81052
292.82462
292.83757
292.8477
292.8537
292.85444
292.84898
292.83701
292.819
292.79774
292.78039
292.8021
292.87464
292.92236
292.94545
292.96176
292.9758
292.98898
292.99994
293.00896
293.01647
293.02291
293.02826
293.03258
293.03518
293.03697
292.83998
292.83487
292.83261
292.83458
292.83947
292.84628
292.85394
292.86111
292.86633
292.86823
292.86569
292.85765
292.84372
292.82418
292.8026
292.78695
292.8136
292.88603
292.92891
292.94976
292.96508
292.97838
292.99098
293.00153
293.01023
293.01751
293.02375
293.02896
293.03318
293.03571
293.03745
292.91062
292.90089
292.89342
292.88929
292.8875
292.88744
292.88843
292.88938
292.88907
292.88638
292.87996
292.86879
292.8524
292.83093
292.80871
292.79476
292.8274
292.89811
292.93571
292.95446
292.96877
292.98127
292.99324
293.00332
293.01168
293.01869
293.02472
293.02977
293.03387
293.03632
293.03801
292.98267
292.96896
292.95669
292.9469
292.93894
292.93244
292.92695
292.92171
292.91571
292.90791
292.89714
292.88237
292.86309
292.8394
292.81633
292.80455
292.84404
292.91132
292.94329
292.95987
292.97306
292.98463
292.99587
293.0054
293.01336
293.02005
293.02584
293.0307
293.03466
293.03702
293.03865
293.05415
293.03721
293.02094
293.00626
292.99279
292.98036
292.96874
292.95744
292.94566
292.93253
292.91706
292.89832
292.87577
292.84965
292.82573
292.81753
292.86412
292.92551
292.9517
292.96601
292.97796
292.98848
292.99887
293.00778
293.01527
293.02161
293.02711
293.03176
293.03556
293.03781
293.03938
293.12401
293.10475
293.0854
293.06669
293.04849
293.03076
293.01347
292.99633
292.97884
292.96028
292.93987
292.91683
292.89068
292.86198
292.83749
292.83488
292.88793
292.94054
292.96101
292.97297
292.98354
292.99286
293.00229
293.01049
293.01746
293.02339
293.02857
293.03297
293.03659
293.0387
293.04021
293.1911
293.17039
293.1489
293.12712
293.10507
293.08284
293.06052
293.03801
293.01503
292.99112
292.96567
292.9381
292.90809
292.87682
292.85254
292.85817
292.91518
292.95631
292.9713
292.98084
292.98989
292.99784
293.00618
293.01359
293.01995
293.02541
293.03021
293.03434
293.03775
293.03973
293.04114
293.25407
293.23265
293.20985
293.18599
293.16112
293.13537
293.10887
293.08168
293.05371
293.02472
292.99435
292.96221
292.92823
292.89482
292.87248
292.88936
292.94489
292.97278
292.98267
292.98974
292.99712
293.00349
293.0106
293.01711
293.02278
293.02771
293.03209
293.0359
293.03908
293.04089
293.04221
293.31151
293.2901
293.26679
293.24178
293.2151
293.18685
293.15716
293.12619
293.09397
293.06047
293.02556
292.9891
292.95139
292.91698
292.89995
292.92995
292.97501
292.98994
292.99521
292.99979
293.00528
293.0099
293.01564
293.0211
293.026
293.03034
293.03423
293.03768
293.04058
293.04222
293.04342
293.36231
293.34132
293.31822
293.29289
293.26529
293.23553
293.20373
293.17003
293.13456
293.09743
293.05872
293.01862
292.97818
292.94504
292.93993
292.97789
293.00365
293.00799
293.00909
293.01106
293.0144
293.01717
293.02139
293.02564
293.02965
293.03333
293.03667
293.0397
293.04228
293.04374
293.04479
293.40548
293.38498
293.36227
293.33717
293.30956
293.27938
293.24666
293.21147
293.17398
293.13439
293.093
293.05057
293.01003
292.98457
292.99735
293.02506
293.03052
293.02711
293.02426
293.02363
293.02454
293.0254
293.02792
293.03082
293.03381
293.03673
293.03946
293.04202
293.04423
293.04547
293.04635
293.43922
293.41985
293.39808
293.37378
293.34677
293.31695
293.28428
293.24881
293.21066
293.17013
293.12797
293.08666
293.05357
293.04586
293.0618
293.06525
293.05627
293.04737
293.04087
293.03739
293.03581
293.0346
293.03526
293.03674
293.03859
293.04059
293.04264
293.04466
293.04645
293.04745
293.04813
293.46141
293.44301
293.42241
293.39962
293.37429
293.34613
293.31502
293.28101
293.24444
293.20615
293.16807
293.13584
293.12044
293.12173
293.11469
293.09804
293.08244
293.06857
293.05868
293.05248
293.04826
293.04472
293.04347
293.04343
293.04404
293.04496
293.04625
293.04767
293.04899
293.0497
293.05017
293.47267
293.45718
293.43972
293.41998
293.39758
293.37221
293.34398
293.31361
293.28235
293.25217
293.22627
293.20789
293.1954
293.17692
293.15171
293.12861
293.10821
293.09065
293.07757
293.06871
293.06172
293.05581
293.05253
293.05091
293.05015
293.04992
293.05032
293.05108
293.05187
293.05224
293.05251
293.48788
293.47359
293.45689
293.43793
293.41763
293.39711
293.37616
293.35431
293.33203
293.31023
293.28917
293.2671
293.24014
293.2106
293.18191
293.15584
293.13359
293.11316
293.09713
293.08563
293.07624
293.06786
293.06233
293.05905
293.05699
293.05551
293.05491
293.05491
293.05512
293.05511
293.05519
293.49295
293.48584
293.47833
293.46989
293.45866
293.44305
293.42329
293.39977
293.37477
293.35002
293.32403
293.29521
293.26546
293.2375
293.20839
293.18023
293.15671
293.13541
293.11703
293.10296
293.09117
293.08078
293.07304
293.06784
293.06445
293.06177
293.06006
293.0592
293.05875
293.05831
293.05825
293.47104
293.46284
293.45366
293.44382
293.4335
293.42315
293.41368
293.40569
293.39387
293.37215
293.34348
293.31519
293.28809
293.2602
293.23215
293.20301
293.17801
293.15631
293.13668
293.12011
293.10625
293.09447
293.08463
293.0774
293.07253
293.06869
293.06581
293.06394
293.06277
293.0619
293.06169
293.45812
293.4529
293.44685
293.43951
293.43062
293.41984
293.40634
293.39006
293.37396
293.36109
293.34895
293.32851
293.30287
293.27739
293.25189
293.2256
293.19851
293.17556
293.15527
293.1369
293.12129
293.10857
293.09693
293.08779
293.08123
293.0762
293.07216
293.06916
293.06721
293.06588
293.06553
293.42891
293.42407
293.41859
293.41242
293.40554
293.39799
293.38987
293.38096
293.37036
293.35651
293.34059
293.32823
293.31296
293.28812
293.26531
293.24318
293.21849
293.19376
293.17217
293.15259
293.13608
293.12287
293.1095
293.09871
293.09055
293.08408
293.07902
293.0749
293.0721
293.07029
293.06975
293.41013
293.40696
293.40329
293.39898
293.39383
293.38766
293.38021
293.37135
293.36127
293.35055
293.33874
293.3228
293.30734
293.29434
293.27431
293.25486
293.23308
293.21001
293.18732
293.16693
293.15026
293.13649
293.12153
293.10968
293.10026
293.09229
293.08624
293.0812
293.07749
293.07516
293.07437
293.38239
293.37948
293.37617
293.37239
293.36808
293.36322
293.35779
293.35175
293.3449
293.33681
293.32749
293.31824
293.30746
293.29498
293.28181
293.26179
293.24225
293.22145
293.20139
293.18113
293.16351
293.1487
293.13272
293.12007
293.11017
293.10097
293.09381
293.08801
293.08343
293.08053
293.07941
293.36381
293.362
293.35991
293.35743
293.35449
293.35096
293.34671
293.34161
293.33555
293.32853
293.32038
293.31044
293.29905
293.28724
293.27528
293.26376
293.24828
293.23054
293.21213
293.1948
293.1764
293.15975
293.14383
293.13026
293.12018
293.11026
293.10188
293.09527
293.08996
293.08643
293.0849
293.33686
293.33511
293.33309
293.33077
293.32811
293.32509
293.32167
293.31784
293.31352
293.30862
293.30305
293.29686
293.28975
293.28085
293.271
293.26025
293.24962
293.23928
293.22371
293.2063
293.18826
293.17101
293.15615
293.14141
293.13039
293.11999
293.11041
293.10299
293.097
293.09286
293.09088
293.31901
293.31797
293.31677
293.31533
293.3136
293.31151
293.30897
293.30588
293.30213
293.29764
293.29236
293.28624
293.27945
293.2723
293.26414
293.25637
293.24806
293.23661
293.22635
293.2113
293.1952
293.18063
293.16769
293.15312
293.1402
293.12948
293.11914
293.11096
293.10444
293.09979
293.09739
293.29645
293.29544
293.29428
293.29292
293.29137
293.28959
293.28759
293.28536
293.28288
293.2801
293.27693
293.27319
293.26861
293.26301
293.25684
293.24897
293.24082
293.23273
293.22233
293.21258
293.20099
293.18795
293.17557
293.16249
293.14835
293.13784
293.12764
293.119
293.11217
293.10714
293.10439
293.28037
293.27984
293.27921
293.27846
293.27755
293.27645
293.2751
293.27346
293.27144
293.269
293.26612
293.2628
293.2591
293.25497
293.25002
293.24477
293.23853
293.23075
293.22312
293.21254
293.20232
293.19116
293.17994
293.168
293.15519
293.14516
293.13587
293.12712
293.1201
293.11486
293.11184
293.2625
293.2619
293.26121
293.26041
293.25949
293.25845
293.25729
293.25603
293.25468
293.25325
293.25172
293.25003
293.24805
293.24554
293.24199
293.23744
293.23221
293.22643
293.21894
293.21198
293.20376
293.19415
293.18422
293.17398
293.16337
293.15296
293.14411
293.1355
293.12824
293.12287
293.11963
293.24851
293.24832
293.24808
293.24778
293.2474
293.24691
293.24628
293.24547
293.24442
293.24306
293.24128
293.23897
293.23612
293.23287
293.22976
293.22649
293.22283
293.21877
293.21495
293.21145
293.2074
293.19926
293.18962
293.18054
293.17086
293.16128
293.1522
293.14392
293.13654
293.13098
293.12764
293.23506
293.23479
293.23448
293.23412
293.23369
293.2332
293.23263
293.23195
293.23117
293.23026
293.22925
293.22819
293.22709
293.22589
293.22438
293.22241
293.21992
293.21672
293.2127
293.20758
293.20166
293.19846
293.19282
293.18429
293.1764
293.1678
293.15943
293.15154
293.14454
293.13899
293.13564
293.22908
293.22891
293.22871
293.22847
293.22818
293.22784
293.22743
293.22694
293.22637
293.22567
293.22483
293.22378
293.22248
293.22097
293.2191
293.21695
293.21449
293.21177
293.20867
293.20516
293.20089
293.19457
293.18854
293.18449
293.17917
293.17201
293.16453
293.15735
293.15088
293.14566
293.14244
293.22178
293.22162
293.22143
293.22121
293.22094
293.22063
293.22026
293.21983
293.21932
293.21872
293.21803
293.21722
293.21626
293.21502
293.21356
293.21178
293.20974
293.20743
293.20471
293.20146
293.19781
293.19411
293.19054
293.18622
293.18057
293.17447
293.16787
293.1613
293.15525
293.15029
293.14723
293.87908
293.7563
293.63095
293.51521
293.41429
293.32589
293.2459
293.17389
293.1075
293.04775
292.99438
292.94678
292.90367
292.86361
292.82482
292.78461
292.74429
292.71469
292.73032
292.79887
292.85983
292.89785
292.92541
292.94734
292.96506
292.97974
292.99196
293.0017
293.0092
293.01415
293.01741
293.70695
293.5935
293.4992
293.41565
293.33704
293.26197
293.19149
293.12663
293.06686
293.01336
292.96578
292.92319
292.8842
292.84749
292.81115
292.77328
292.73494
292.71212
292.73668
292.80946
292.86677
292.90211
292.92859
292.94988
292.96712
292.98141
292.99334
293.00285
293.01019
293.01504
293.01822
293.64101
293.54334
293.45402
293.36938
293.28918
293.21485
293.14738
293.08659
293.0322
292.98409
292.94142
292.90307
292.86756
292.83363
292.79926
292.7635
292.72721
292.71101
292.74396
292.8192
292.87258
292.90578
292.93144
292.95221
292.96902
292.98297
292.99462
293.00393
293.01113
293.01588
293.01892
293.56967
293.47497
293.38827
293.3075
293.23268
293.16445
293.10315
293.0485
293.00011
292.95744
292.91953
292.88514
292.85281
292.82137
292.7887
292.75486
292.72131
292.71086
292.75218
292.82872
292.87818
292.90951
292.93441
292.95461
292.97097
292.98456
292.99594
293.00504
293.01209
293.01673
293.01963
293.48943
293.40005
293.31951
293.24504
293.17668
293.1151
293.06041
293.01222
292.9699
292.93265
292.89936
292.86874
292.83941
292.81028
292.77922
292.74725
292.71724
292.71174
292.7618
292.83789
292.8834
292.91313
292.93733
292.95698
292.97291
292.98615
292.99725
293.00615
293.01305
293.01758
293.02041
293.39813
293.31895
293.24688
293.18027
293.11984
293.06611
293.0189
292.97765
292.94156
292.90968
292.88086
292.85382
292.82731
292.80032
292.77086
292.74074
292.71451
292.7137
292.7726
292.84655
292.88834
292.91671
292.94024
292.95935
292.97485
292.98775
292.99858
293.00726
293.01402
293.01844
293.0212
293.30212
293.23357
293.17102
293.11396
293.063
293.01818
292.97908
292.94506
292.91523
292.88861
292.86406
292.8404
292.81652
292.7915
292.76366
292.73533
292.71243
292.71691
292.78419
292.85461
292.89302
292.92023
292.94312
292.9617
292.97678
292.98934
292.9999
293.00838
293.01499
293.01931
293.022
293.19736
293.14227
293.09223
293.04707
293.007
292.97188
292.94131
292.91464
292.891
292.86946
292.84897
292.82848
292.80703
292.78376
292.75751
292.73104
292.7109
292.7219
292.79611
292.86203
292.89751
292.92371
292.94598
292.96403
292.97871
292.99093
293.00122
293.0095
293.01596
293.02018
293.02281
293.08766
293.04883
293.01353
292.98149
292.9529
292.92784
292.90593
292.88655
292.86893
292.85224
292.83558
292.81804
292.79883
292.77702
292.75241
292.72781
292.7102
292.72881
292.80781
292.86887
292.90184
292.92713
292.94881
292.96635
292.98062
292.99252
293.00255
293.01063
293.01694
293.02105
293.02362
292.97939
292.95745
292.93734
292.91851
292.90153
292.8866
292.87325
292.86094
292.84909
292.83699
292.8239
292.80909
292.79189
292.77141
292.74845
292.72547
292.71051
292.73741
292.81896
292.87519
292.90607
292.93052
292.9516
292.96864
292.98253
292.9941
293.00387
293.01176
293.01793
293.02193
293.02443
292.87558
292.87054
292.8649
292.85917
292.85373
292.84869
292.84352
292.83797
292.83155
292.82373
292.81393
292.8016
292.78617
292.76705
292.74574
292.72402
292.71192
292.74688
292.82938
292.88108
292.91019
292.93386
292.95437
292.97091
292.98442
292.99567
293.00519
293.01289
293.01891
293.02281
293.02525
292.77829
292.78918
292.7979
292.80499
292.81056
292.81455
292.81699
292.81772
292.81634
292.81246
292.80566
292.79558
292.78173
292.76418
292.74409
292.72345
292.7143
292.75702
292.83914
292.88664
292.91425
292.93716
292.95709
292.97316
292.9863
292.99724
293.00651
293.01401
293.0199
293.02369
293.02607
292.69125
292.71642
292.73817
292.75674
292.77221
292.78461
292.79397
292.80027
292.80345
292.80312
292.79904
292.79103
292.77883
292.76264
292.74308
292.72372
292.71759
292.76763
292.84822
292.89193
292.91823
292.94041
292.95978
292.97538
292.98816
292.9988
293.00782
293.01514
293.02088
293.02457
293.0269
292.61836
292.6547
292.68711
292.71536
292.73933
292.75902
292.77446
292.78573
292.79292
292.79581
292.79426
292.78813
292.77737
292.76214
292.74301
292.72467
292.72177
292.77846
292.85663
292.897
292.92215
292.94361
292.96243
292.97758
292.99001
293.00034
293.00913
293.01626
293.02187
293.02545
293.02772
292.56313
292.60711
292.64689
292.68221
292.71277
292.73837
292.75894
292.77468
292.78546
292.79115
292.79184
292.78704
292.77705
292.76244
292.74384
292.72619
292.7269
292.78923
292.8644
292.90191
292.92601
292.94676
292.96503
292.97975
292.99183
293.00188
293.01043
293.01738
293.02285
293.02634
293.02855
292.52263
292.57362
292.61867
292.65867
292.69381
292.72385
292.74846
292.76785
292.78162
292.78921
292.79083
292.78695
292.77777
292.76367
292.74556
292.72861
292.73297
292.7997
292.87157
292.90667
292.9298
292.94987
292.9676
292.9819
292.99364
293.0034
293.01172
293.0185
293.02384
293.02723
293.02938
292.48251
292.54294
292.59577
292.64164
292.68122
292.71493
292.74283
292.76428
292.77925
292.7883
292.79117
292.78817
292.77958
292.76593
292.74818
292.73205
292.73987
292.80973
292.87834
292.91135
292.93356
292.95293
292.97014
292.98403
292.99544
293.00492
293.01301
293.01961
293.02483
293.02812
293.03022
292.45699
292.51786
292.5745
292.62527
292.66945
292.70691
292.73769
292.76154
292.77856
292.78913
292.79312
292.7908
292.78259
292.76924
292.7517
292.73625
292.74747
292.8193
292.88477
292.91595
292.93727
292.95596
292.97264
292.98613
292.99721
293.00642
293.01429
293.02072
293.02581
293.029
293.03106
292.46159
292.51655
292.56977
292.61958
292.6645
292.70354
292.73612
292.76171
292.78022
292.79196
292.79677
292.79489
292.78683
292.77359
292.75611
292.74112
292.75541
292.8284
292.89087
292.92046
292.94095
292.95895
292.97511
292.98821
292.99897
293.00792
293.01556
293.02182
293.02679
293.02989
293.0319
292.47938
292.52967
292.57864
292.62522
292.66823
292.70658
292.73929
292.76538
292.78453
292.79689
292.80216
292.80046
292.79234
292.77898
292.7614
292.74662
292.7635
292.83706
292.89671
292.9249
292.94459
292.96191
292.97754
292.99026
293.00071
293.00939
293.01682
293.02292
293.02777
293.03078
293.03274
292.50935
292.55375
292.59768
292.64001
292.67971
292.7158
292.74708
292.77256
292.79159
292.80395
292.8093
292.80751
292.79911
292.78538
292.76751
292.75271
292.77158
292.84531
292.9023
292.92924
292.94817
292.9648
292.97992
292.99227
293.00241
293.01084
293.01806
293.024
293.02874
293.03166
293.03358
292.55132
292.58787
292.62528
292.66224
292.69763
292.73019
292.75889
292.78296
292.80121
292.813
292.81803
292.81594
292.80708
292.79274
292.7744
292.75937
292.77957
292.85316
292.90761
292.93344
292.95164
292.9676
292.98222
292.99422
293.00407
293.01227
293.01928
293.02508
293.0297
293.03254
293.03442
292.60515
292.63116
292.65957
292.68955
292.71947
292.74791
292.77373
292.79568
292.81265
292.82358
292.82805
292.82548
292.81604
292.80093
292.78196
292.76647
292.78732
292.86041
292.91251
292.9374
292.95496
292.97029
292.98444
292.99611
293.0057
293.01367
293.0205
293.02614
293.03067
293.03343
293.03527
292.67594
292.69007
292.70604
292.72575
292.748
292.77088
292.79262
292.81163
292.82648
292.83619
292.83973
292.83645
292.82627
292.81011
292.79019
292.77363
292.79414
292.86668
292.91696
292.94118
292.9582
292.97293
292.98665
292.998
293.00733
293.01508
293.02173
293.02724
293.03166
293.03434
293.03616
293.87732
293.77598
293.65395
293.53684
293.43362
293.3438
293.26349
293.18943
293.12257
293.06204
293.00744
292.95835
292.91375
292.87233
292.8325
292.79154
292.7506
292.71835
292.72842
292.79376
292.85648
292.8956
292.92362
292.94586
292.96384
292.97874
292.99114
293.00101
293.00861
293.01364
293.01694
293.85574
293.75466
293.63686
293.52652
293.42858
293.34239
293.26515
293.19401
293.12898
293.06946
293.01512
292.96571
292.92046
292.87822
292.83755
292.79591
292.75438
292.72111
292.72745
292.79073
292.85463
292.89425
292.92244
292.9448
292.9629
292.97793
292.99043
293.00039
293.00805
293.01313
293.01638
293.83512
293.7392
293.626
293.52066
293.42717
293.3443
293.26955
293.20046
293.13667
293.07782
293.02358
292.97377
292.9278
292.88467
292.84307
292.80068
292.75834
292.72376
292.72639
292.78709
292.85237
292.89266
292.92108
292.94359
292.96184
292.97701
292.98964
292.9997
293.00742
293.01256
293.01587
293.81601
293.72797
293.61911
293.51712
293.42672
293.34635
293.27365
293.20626
293.14372
293.08569
293.03178
292.98179
292.93527
292.89138
292.84892
292.80584
292.76275
292.72664
292.72569
292.78324
292.8498
292.89083
292.91952
292.94222
292.96064
292.97598
292.98875
292.99893
293.00674
293.01195
293.01503
293.79577
293.71691
293.61245
293.51384
293.42593
293.34778
293.27703
293.21137
293.15025
293.09324
293.03986
292.98989
292.94299
292.89844
292.85519
292.8115
292.76767
292.72996
292.72544
292.77938
292.84706
292.88887
292.91783
292.94073
292.95934
292.97489
292.9878
292.9981
293.006
293.01129
293.01455
293.77427
293.70503
293.60549
293.50986
293.42453
293.34865
293.2799
293.2161
293.15652
293.10065
293.04796
292.99818
292.95102
292.90592
292.86195
292.81772
292.77316
292.73371
292.72563
292.77554
292.8442
292.88684
292.9161
292.9392
292.95799
292.97372
292.9868
292.99722
293.00522
293.01058
293.01396
293.75087
293.69132
293.59792
293.5057
293.423
293.34936
293.2826
293.22067
293.16268
293.10803
293.05613
293.00666
292.95938
292.91382
292.86921
292.8245
292.77914
292.73797
292.72623
292.77181
292.84126
292.88476
292.9143
292.93758
292.95657
292.97249
292.98573
292.99629
293.00439
293.00983
293.01352
293.72761
293.67698
293.59039
293.50188
293.42173
293.3502
293.28535
293.22524
293.16883
293.11542
293.06439
293.01535
292.96807
292.92216
292.87699
292.8318
292.78566
292.74292
292.72728
292.76817
292.83821
292.88261
292.91244
292.93591
292.95508
292.9712
292.98461
292.99531
293.00351
293.00903
293.01241
293.70593
293.66216
293.58266
293.49839
293.42091
293.35145
293.28842
293.23004
293.17516
293.12299
293.07285
293.02432
292.97713
292.93097
292.88532
292.83957
292.7928
292.74876
292.7288
292.76472
292.83505
292.88041
292.91051
292.93416
292.95353
292.96985
292.98343
292.99427
293.00257
293.00819
293.01167
293.68625
293.64752
293.57507
293.49542
293.42083
293.35344
293.29215
293.23537
293.1819
293.13089
293.08163
293.03363
292.98661
292.94027
292.89419
292.84788
292.80049
292.75533
292.73092
292.76152
292.83179
292.87814
292.90854
292.93235
292.9519
292.96843
292.98218
292.99317
293.00158
293.00728
293.01072
293.66933
293.63427
293.56842
293.49353
293.42194
293.35658
293.2969
293.24154
293.18932
293.13934
293.09088
293.04339
292.99655
292.95009
292.90364
292.85676
292.80875
292.76245
292.73411
292.75871
292.82844
292.87582
292.90651
292.93048
292.9502
292.96694
292.98087
292.99201
293.00053
293.00633
293.00989
293.65604
293.6234
293.5635
293.49338
293.42481
293.36139
293.3031
293.24891
293.1977
293.14856
293.10075
293.0537
293.00703
292.96048
292.91369
292.86626
292.81759
292.77008
292.73821
292.7565
292.82501
292.87346
292.90444
292.92855
292.94844
292.96538
292.97949
292.99078
292.99942
293.00531
293.00897
293.64749
293.61618
293.56133
293.49575
293.43009
293.36841
293.31123
293.25786
293.20734
293.15878
293.11143
293.06469
293.01814
292.97147
292.92436
292.87639
292.82706
292.77845
292.7433
292.75502
292.82149
292.87107
292.90234
292.92657
292.94662
292.96376
292.97804
292.98948
292.99824
293.00424
293.00796
293.64433
293.61345
293.56255
293.50109
293.43819
293.37805
293.32167
293.26875
293.21852
293.17022
293.12308
293.07647
293.02994
292.98313
292.93569
292.88719
292.83722
292.7876
292.74928
292.75436
292.81791
292.86867
292.90022
292.92454
292.94473
292.96207
292.97653
292.98812
292.997
293.00309
293.00687
293.64667
293.61627
293.56841
293.51032
293.44968
293.39067
293.33471
293.28182
293.23148
293.18305
293.13584
293.08917
293.04252
292.99549
292.9477
292.89868
292.84809
292.79761
292.75626
292.75477
292.81434
292.86626
292.89811
292.92249
292.9428
292.96033
292.97495
292.98669
292.99569
293.00189
293.00572
293.65339
293.62337
293.57802
293.52292
293.46429
293.40614
293.35028
293.29708
293.24628
293.19738
293.14977
293.10283
293.05592
293.0086
292.96043
292.91092
292.85975
292.80851
292.76455
292.75613
292.81084
292.86387
292.89601
292.92041
292.94082
292.95853
292.97332
292.98519
292.99431
293.00061
293.0045
293.66227
293.63272
293.59003
293.53787
293.48123
293.42392
293.36804
293.31434
293.26283
293.2132
293.16493
293.11747
293.07018
293.02248
292.97392
292.92397
292.87241
292.82052
292.7737
292.75834
292.80756
292.86153
292.89396
292.91835
292.93882
292.95668
292.97161
292.98362
292.99286
292.99927
293.00322
293.67238
293.64454
293.60447
293.55493
293.50007
293.44352
293.38755
293.33324
293.28087
293.23033
293.18124
293.13307
293.08524
293.03713
292.98817
292.93788
292.88613
292.83377
292.78423
292.76124
292.80445
292.85927
292.89198
292.91627
292.93679
292.95479
292.96986
292.98199
292.99134
292.99785
293.00186
293.6828
293.6571
293.61993
293.57315
293.52015
293.46437
293.40829
293.35333
293.30005
293.24852
293.1985
293.14953
293.10107
293.05249
293.00316
292.95258
292.90061
292.8477
292.7954
292.76545
292.80194
292.8571
292.89014
292.91431
292.93479
292.95287
292.96805
292.98029
292.98975
292.99636
293.00044
293.69244
293.66917
293.63533
293.59167
293.54078
293.48591
293.4298
293.37421
293.32
293.26747
293.2165
293.16671
293.11757
293.06849
293.0188
292.96794
292.9156
292.86176
292.80761
292.77135
292.80011
292.85509
292.88838
292.91236
292.9328
292.95094
292.96621
292.97853
292.98809
292.9948
292.99894
293.70129
293.68051
293.65013
293.6099
293.56148
293.50778
293.45177
293.39559
293.34047
293.28693
293.23502
293.18441
293.13461
293.08502
293.035
292.98387
292.93113
292.87653
292.82104
292.77891
292.79858
292.85323
292.8869
292.91056
292.93087
292.94902
292.96433
292.97672
292.98636
292.99317
292.99738
293.71006
293.6913
293.66406
293.62737
293.58182
293.52972
293.47404
293.41735
293.36131
293.30675
293.25389
293.20248
293.15204
293.10198
293.05162
293.00027
292.94717
292.89191
292.83517
292.78832
292.79817
292.85146
292.88543
292.90898
292.9291
292.94709
292.96241
292.97486
292.98457
292.99147
292.99574
293.71892
293.70165
293.67706
293.64371
293.60133
293.55134
293.49644
293.43946
293.38254
293.32692
293.27307
293.22083
293.16977
293.11926
293.06859
293.01701
292.96362
292.90779
292.84987
292.79873
292.80009
292.8501
292.88419
292.90735
292.92728
292.94525
292.96053
292.97295
292.98272
292.9897
292.99402
293.72878
293.71229
293.68939
293.65866
293.61926
293.57178
293.51826
293.46151
293.404
293.34741
293.29254
293.23945
293.18775
293.13679
293.08582
293.03402
292.98042
292.92418
292.86545
292.81117
292.80286
292.8493
292.88328
292.9064
292.92585
292.94344
292.95858
292.97102
292.98082
292.98786
292.99222
293.73844
293.72292
293.70154
293.6728
293.63583
293.59079
293.53909
293.48311
293.42544
293.36812
293.31231
293.25834
293.20595
293.15453
293.10326
293.05125
292.99751
292.94111
292.88194
292.82467
292.80584
292.8488
292.88329
292.9052
292.92432
292.94172
292.95677
292.96906
292.97887
292.98596
292.99036
293.74644
293.73158
293.7116
293.68503
293.65069
293.60824
293.5586
293.50387
293.44655
293.38887
293.33231
293.27752
293.22441
293.17246
293.12087
293.06867
293.01484
292.95841
292.8991
292.83982
292.81063
292.848
292.88261
292.90476
292.92313
292.94026
292.95488
292.96712
292.97688
292.98401
292.98842
293.75135
293.73757
293.719
293.69429
293.66225
293.62251
293.57553
293.5228
293.46657
293.40915
293.35225
293.29683
293.24305
293.19057
293.13862
293.08622
293.03232
292.97589
292.91628
292.85536
292.81685
292.84762
292.88341
292.90524
292.92259
292.93863
292.95316
292.96519
292.97486
292.98201
292.98645
293.75011
293.73759
293.7207
293.69821
293.66902
293.63232
293.58839
293.53844
293.48429
293.42804
293.37151
293.3159
293.26169
293.20874
293.15643
293.10385
293.0499
292.99346
292.9337
292.87169
292.82535
292.84868
292.88482
292.90529
292.92137
292.93753
292.95154
292.96329
292.97284
292.97997
292.98443
293.74133
293.73025
293.71526
293.69523
293.6691
293.63617
293.59625
293.55002
293.49891
293.44477
293.38942
293.33424
293.27998
293.22677
293.17421
293.12147
293.0675
293.01112
292.95137
292.8887
292.83657
292.85038
292.88548
292.90579
292.92151
292.93654
292.94986
292.9615
292.97084
292.97791
292.98238
293.72519
293.71569
293.70283
293.68558
293.66291
293.63402
293.59854
293.55668
293.50948
293.45844
293.4052
293.35122
293.29747
293.24437
293.19174
293.13897
293.08506
293.02885
292.96927
292.90632
292.84939
292.85414
292.88634
292.90651
292.92187
292.93532
292.94861
292.95975
292.96884
292.97584
292.98031
293.7021
293.69412
293.68335
293.66895
293.64997
293.62551
293.59491
293.55816
293.51571
293.46863
293.41836
293.36634
293.31373
293.26119
293.20881
293.15618
293.10247
293.04656
292.98733
292.92446
292.86452
292.85799
292.88848
292.9073
292.92203
292.93522
292.9473
292.95813
292.96698
292.97378
292.97822
293.67376
293.66725
293.65852
293.64686
293.63142
293.61129
293.58583
293.55454
293.51743
293.47509
293.42861
293.37932
293.32848
293.27698
293.22518
293.17293
293.11957
293.0641
293.00538
292.94284
292.88078
292.86255
292.89078
292.90883
292.92266
292.93473
292.94604
292.95669
292.96502
292.97174
292.97615
293.64215
293.63692
293.62996
293.62073
293.60855
293.59265
293.57214
293.54634
293.51489
293.4779
293.43597
293.39015
293.34169
293.29167
293.24077
293.1891
293.13624
293.08132
293.02323
292.96112
292.89714
292.86886
292.89359
292.91141
292.92321
292.93451
292.94548
292.95522
292.96341
292.9698
292.97409
293.60987
293.60544
293.5997
293.59231
293.58286
293.57055
293.55451
293.53393
293.50812
293.47675
293.43993
293.39834
293.35301
293.30507
293.25545
293.2046
293.15238
293.09811
293.04073
292.97923
292.91463
292.87672
292.89663
292.91306
292.92418
292.93501
292.94477
292.95391
292.96165
292.96784
292.97211
293.58262
293.57841
293.57331
293.56691
293.55871
293.54834
293.53523
293.51861
293.49759
293.47148
293.43993
293.4031
293.36166
293.31658
293.26885
293.21921
293.16785
293.11434
293.05777
292.99702
292.93243
292.88572
292.89953
292.91544
292.92591
292.93516
292.94416
292.95313
292.96024
292.96615
292.97019
293.56248
293.55827
293.55341
293.54767
293.54068
293.53188
293.52061
293.50625
293.48815
293.46571
293.43831
293.40572
293.36815
293.32623
293.28086
293.23282
293.18253
293.12989
293.07418
293.01434
292.95018
292.8968
292.90255
292.91802
292.92698
292.93605
292.94467
292.95216
292.95905
292.96441
292.96837
293.55347
293.5486
293.54314
293.53694
293.5298
293.52141
293.51131
293.49882
293.4831
293.46326
293.43873
293.4092
293.37467
293.3355
293.29231
293.24582
293.1966
293.14479
293.08995
293.03109
292.96757
292.90899
292.90606
292.92042
292.92888
292.93734
292.9446
292.95126
292.9577
292.96302
292.96675
293.55706
293.55172
293.54572
293.53893
293.53117
293.52219
293.51165
293.49906
293.4838
293.46523
293.44259
293.41514
293.38264
293.34537
293.30383
293.25864
293.21035
293.15926
293.10513
293.04719
292.98445
292.92243
292.91001
292.92304
292.93104
292.93807
292.94495
292.95157
292.95722
292.96181
292.96516
293.56377
293.5587
293.55291
293.54625
293.53852
293.52944
293.51872
293.50596
293.49067
293.47223
293.44996
293.42341
293.39219
293.35605
293.31553
293.27126
293.22378
293.17332
293.11981
293.06264
293.00058
292.93539
292.91428
292.92596
292.93335
292.93922
292.94572
292.95159
292.95663
292.9606
292.96396
293.56449
293.56034
293.5555
293.5498
293.54303
293.5349
293.52506
293.51309
293.49847
293.48067
293.45914
293.43329
293.40263
293.36731
293.32755
293.28387
293.2369
293.18699
293.13405
293.07751
293.01608
292.94977
292.91949
292.92908
292.93613
292.94136
292.94676
292.95155