/*--------------------------------*- C++ -*----------------------------------*\
| =========                 |                                                 |
| \\      /  F ield         | OpenFOAM: The Open Source CFD Toolbox           |
|  \\    /   O peration     | Version:  2406                                  |
|   \\  /    A nd           | Website:  www.openfoam.com                      |
|    \\/     M anipulation  |                                                 |
\*---------------------------------------------------------------------------*/
FoamFile
{
    version     2.0;
    format      ascii;
    arch        "LSB;label=32;scalar=64";
    class       volScalarField;
    location    "0.09";
    object      alphat;
}
// * * * * * * * * * * * * * * * * * * * * * * * * * * * * * * * * * * * * * //

dimensions      [1 -1 -1 0 0 0 0];

internalField   nonuniform List<scalar> 
2065
(
0.0030527828
0.0033538695
0.0036600058
0.0039790839
0.0043171247
0.0046811884
0.0050806844
0.0055238272
0.0060183074
0.0065693445
0.007172039
0.0078137076
0.0084647742
0.009093889
0.00967491
0.010208258
0.010683693
0.01108582
0.011409788
0.011716252
0.011841443
0.011645328
0.011304407
0.010965409
0.010722557
0.010522653
0.010205069
0.0099813592
0.010241358
0.010880615
0.011536269
0.011868214
0.011450467
0.010178263
0.0088473263
0.0083643966
0.0088323821
0.0095906478
0.0099690641
0.0095447762
0.0092729418
0.0096390965
0.010353511
0.011176596
0.011915811
0.012627383
0.013417395
0.014311941
0.015081637
0.015717257
0.016164413
0.016542177
0.016753987
0.0167069
0.016637766
0.01628115
0.0160266
0.015196982
0.0018629941
0.002133189
0.0024250573
0.0027492623
0.0030981096
0.0034797154
0.0039073547
0.0043835272
0.0049161619
0.0055192891
0.0061922836
0.0069216313
0.0076860784
0.0084528731
0.0091987666
0.0098853427
0.010545811
0.011090271
0.011524667
0.011891169
0.011952415
0.011688336
0.011326576
0.011012553
0.010817836
0.010670516
0.010436418
0.010343133
0.01071166
0.01136847
0.011974363
0.012201731
0.011642728
0.010323606
0.0090891919
0.0087609129
0.0093552343
0.010188925
0.010652268
0.010339896
0.010138373
0.010589719
0.011378496
0.012306958
0.013109757
0.013858627
0.014673653
0.015584521
0.016367184
0.017022888
0.017489942
0.017886629
0.018138498
0.018102734
0.018068213
0.017726303
0.017488821
0.016662074
0.0011917042
0.0014301773
0.0016967883
0.0020045624
0.0023401565
0.0026651946
0.0030339612
0.0034295719
0.0038497758
0.0043242612
0.004877786
0.0055430535
0.0063149795
0.0071643363
0.0080473891
0.008908381
0.00978431
0.010597338
0.011229257
0.011748558
0.012089694
0.012023541
0.011705995
0.011340942
0.011066574
0.010925488
0.010830262
0.010686004
0.010716389
0.0111678
0.011821969
0.012375635
0.012512347
0.011842973
0.010502358
0.0093729639
0.0092006084
0.0099159369
0.010837045
0.011407217
0.011248214
0.011107024
0.011622366
0.012471718
0.013485971
0.014340339
0.015115142
0.015944805
0.016861062
0.017650654
0.01831671
0.018798771
0.019208388
0.019495021
0.019467866
0.019464039
0.019135047
0.018910934
0.018089414
0.0015670162
0.0018122335
0.0020628277
0.0023129503
0.0025500383
0.0027786483
0.0029955505
0.0032488991
0.0035253129
0.0038270354
0.0042373968
0.0047300653
0.0053356692
0.0061036495
0.0069675043
0.0079080268
0.0089245499
0.0099454787
0.01082235
0.011490473
0.012022017
0.012232791
0.012055904
0.011697961
0.011347629
0.011124972
0.011044035
0.010999517
0.010949037
0.011092862
0.011601409
0.012241133
0.012752258
0.012823801
0.012081989
0.010740491
0.0097161635
0.0096959349
0.010528632
0.011552852
0.012236762
0.012265608
0.012174433
0.012728779
0.013625487
0.01470391
0.015597559
0.016387611
0.017224827
0.018135867
0.018929259
0.019593276
0.020087186
0.020505425
0.020821077
0.020800653
0.020823653
0.020505892
0.020292326
0.019477509
0.0026801641
0.0029235405
0.0031242891
0.003299199
0.0034544793
0.0035924774
0.0037224572
0.0038655149
0.0040205222
0.0041867558
0.0044859159
0.00487038
0.0054503233
0.0062193582
0.0071337559
0.0081601296
0.0092550426
0.010300265
0.011131176
0.011805019
0.012261866
0.012308068
0.012041021
0.01166795
0.011353344
0.011192025
0.011170495
0.011184668
0.011220635
0.011461898
0.012004814
0.012630864
0.01311827
0.013166975
0.012401698
0.011071483
0.010143096
0.010261317
0.011203417
0.012347205
0.013146335
0.013379249
0.013331521
0.013898103
0.014829764
0.015950513
0.016872928
0.017668643
0.018506017
0.019404272
0.020199224
0.02084834
0.021352606
0.021775686
0.022114494
0.022100216
0.022145824
0.021838114
0.021632784
0.02082574
0.0035686599
0.0038507995
0.004053886
0.004206163
0.0043115789
0.0043784648
0.0044288885
0.0044767379
0.0045395406
0.0046146493
0.0047399055
0.0049820961
0.0053366756
0.0058504318
0.0065890209
0.0075331456
0.0085972694
0.0096841836
0.010670255
0.011490048
0.012151781
0.012408875
0.012304134
0.011984119
0.011625917
0.011367098
0.011273043
0.011307647
0.011380478
0.01149778
0.011813404
0.012379729
0.012999245
0.013497621
0.013578023
0.012842442
0.011534089
0.010681644
0.010919604
0.011946149
0.013221736
0.014144467
0.014566228
0.014566453
0.015118125
0.016073486
0.017215503
0.018159216
0.01895101
0.019780845
0.020661197
0.02145464
0.022081431
0.022593007
0.023017549
0.023373938
0.023365784
0.02342969
0.02313151
0.022932413
0.022134082
0.0041940302
0.0045609614
0.0048287521
0.0049981501
0.0051005559
0.0051572327
0.0051795463
0.0051773334
0.0051743638
0.0051942639
0.0052468017
0.0053746418
0.0056136512
0.0059798496
0.0065141299
0.0072235089
0.0081329368
0.0091696018
0.010218604
0.011164505
0.011923415
0.012361544
0.012429605
0.012231975
0.011904109
0.011590464
0.011400368
0.011372306
0.011457665
0.011583414
0.01177831
0.012151796
0.01272722
0.013360544
0.013919322
0.014091093
0.013445447
0.012165468
0.011357391
0.011683503
0.012766119
0.014172979
0.015224018
0.01580219
0.015868226
0.016376449
0.017344543
0.018489421
0.019449802
0.020226129
0.021044043
0.021902498
0.022690231
0.023292128
0.023806763
0.024229753
0.024598944
0.024596489
0.024675075
0.024385914
0.024191566
0.023402921
0.00494844
0.005318657
0.0055673487
0.0057165835
0.0057937834
0.0058231928
0.0058255682
0.0058117108
0.005803521
0.0058235017
0.0058934466
0.0060472219
0.0063153313
0.0067154682
0.0072876188
0.0080170089
0.0088942848
0.0098815745
0.010824752
0.011595421
0.012160411
0.012402674
0.01235486
0.012126927
0.011837344
0.011590106
0.011468674
0.011496108
0.011622294
0.011793336
0.012045796
0.012462264
0.013051566
0.013741841
0.014411883
0.014728477
0.014234704
0.012990833
0.012187897
0.01255644
0.013675853
0.01518914
0.016366537
0.017071856
0.017218389
0.01766192
0.018629408
0.019765146
0.020738228
0.021486285
0.022291033
0.02312466
0.023901797
0.024479795
0.02499255
0.025411343
0.025789255
0.025791851
0.025882073
0.025601463
0.025410786
0.0246329
0.0055301281
0.0058834996
0.0061080446
0.0062382526
0.0063059324
0.0063359234
0.0063466445
0.0063535072
0.0063734249
0.0064251964
0.0065307602
0.0067160455
0.0070104141
0.00743472
0.008028348
0.0087595398
0.0095949835
0.010455616
0.011222701
0.011841099
0.012216534
0.012328045
0.012238341
0.012050732
0.011840288
0.011665395
0.011595638
0.011656491
0.011807066
0.012010928
0.012304591
0.01275246
0.013379029
0.014170582
0.01499898
0.015492298
0.015208162
0.01401649
0.013178212
0.013535599
0.014675311
0.016257218
0.017551936
0.018364224
0.01859553
0.018964673
0.019913185
0.021039807
0.022014051
0.022727529
0.023517931
0.024324673
0.025087486
0.025642317
0.026149278
0.026561624
0.026944788
0.026951695
0.027050997
0.026778529
0.026590758
0.025824528
0.0054937016
0.0059746626
0.0063069872
0.0065128273
0.006632238
0.0066996311
0.0067406692
0.0067738084
0.0068132255
0.0068722206
0.006966555
0.0071146526
0.0073365204
0.0076504038
0.0080789555
0.0086579191
0.0093322468
0.01008018
0.010799566
0.011431968
0.01189699
0.012138622
0.012205243
0.012167303
0.012090487
0.011997698
0.011880366
0.011818584
0.011876333
0.012025664
0.012244063
0.012563978
0.013043649
0.0137366
0.01466419
0.015689753
0.016364046
0.016331738
0.015227859
0.014318526
0.014610677
0.015755035
0.017362877
0.018761433
0.019666373
0.019980964
0.020272937
0.021189802
0.022306471
0.023267126
0.023946826
0.024721464
0.025499981
0.026245709
0.026777976
0.027276079
0.027680117
0.028065615
0.028076086
0.028182337
0.027917676
0.027732295
0.026978492
0.005840056
0.0062970338
0.0066123164
0.0068096122
0.0069266677
0.0070006035
0.0070574417
0.0071150407
0.0071856218
0.0072801408
0.0074113845
0.007594321
0.0078443836
0.0081744806
0.0085948986
0.0091402286
0.0097448931
0.010366036
0.010939761
0.011446435
0.011804811
0.012008095
0.012134649
0.012245776
0.012344165
0.012375341
0.012301549
0.012206072
0.012197413
0.012304278
0.012511782
0.012843978
0.013363021
0.014152105
0.01524246
0.016473204
0.017328179
0.017537546
0.016597359
0.015586031
0.015766001
0.016897024
0.018492583
0.019977485
0.020965637
0.021359338
0.021576244
0.022453028
0.023556975
0.024490908
0.025142843
0.025898896
0.026648431
0.027375116
0.027885399
0.028372286
0.028766532
0.029151936
0.029165278
0.029276719
0.029019601
0.028836304
0.028095824
0.0060581506
0.006502357
0.0068096272
0.0070071845
0.0071282093
0.0072124286
0.0072853815
0.007363086
0.0074572731
0.0075769228
0.0077320411
0.0079342272
0.0081956308
0.0085240233
0.0089221597
0.0094129748
0.0099488578
0.010459308
0.010918298
0.01132631
0.011651444
0.01191878
0.012193752
0.012487251
0.012748493
0.012913821
0.012896303
0.01276097
0.012662099
0.012681477
0.012845667
0.01317457
0.013741861
0.01463355
0.01589182
0.017335284
0.018371449
0.018776981
0.018057192
0.016949276
0.016985654
0.018073
0.019637403
0.021185737
0.022250775
0.022717985
0.022865498
0.02369632
0.024781615
0.025684785
0.02631376
0.027047921
0.027768231
0.028474579
0.0289635
0.029437415
0.029820732
0.03020406
0.030219671
0.030334887
0.030085104
0.029903763
0.029177497
0.0061398465
0.0065885253
0.0068964108
0.007101393
0.0072327782
0.00733015
0.0074181933
0.0075125338
0.007622662
0.0077563013
0.0079216452
0.0081273399
0.0083832927
0.0086938854
0.0090604275
0.0094827221
0.0099389913
0.010369881
0.01076883
0.011146218
0.011511791
0.011912856
0.012376532
0.012881323
0.013330583
0.013651241
0.013710084
0.013517149
0.013302209
0.01319886
0.013279887
0.013582971
0.014187773
0.015208647
0.016577187
0.018251138
0.019454593
0.020022414
0.019548302
0.018373215
0.018251412
0.019258472
0.02078737
0.02237472
0.023512256
0.024046608
0.02413305
0.024914395
0.025975139
0.026847902
0.027456093
0.028166611
0.028857914
0.029543178
0.030011445
0.03047114
0.030842714
0.031222384
0.031239775
0.031357656
0.031115064
0.0309357
0.030224516
0.0060947591
0.0065579473
0.0068803401
0.0071024956
0.0072498206
0.0073618339
0.0074637906
0.0075701858
0.0076899477
0.0078293166
0.0079938559
0.0081895146
0.0084228084
0.0087051899
0.0090335985
0.0093949588
0.0097785558
0.010153858
0.010532823
0.010936271
0.011395955
0.011941409
0.012592455
0.013302455
0.013950383
0.014435153
0.014644049
0.014460227
0.014138237
0.013886525
0.013841325
0.014086448
0.014733422
0.015845791
0.017305741
0.01917024
0.020536936
0.021250247
0.021026334
0.019826862
0.019545064
0.020438437
0.021930676
0.023535335
0.024742292
0.025336996
0.025372638
0.026102989
0.027134281
0.027978489
0.028567273
0.029253412
0.029916303
0.03058018
0.031028608
0.031473277
0.031832587
0.032207379
0.032226184
0.032345893
0.03211041
0.03193318
0.031237789
0.0059122512
0.0064014507
0.0067541126
0.0070030538
0.0071756547
0.0073086679
0.0074272242
0.0075458531
0.0076734527
0.0078148396
0.0079737109
0.0081543542
0.0083624998
0.0086077381
0.0088864863
0.0091898028
0.0095204298
0.0098777996
0.010266929
0.010701532
0.01123961
0.011907443
0.012725386
0.013634484
0.014496337
0.015169272
0.015574065
0.015488953
0.015121786
0.014740628
0.014559485
0.014720567
0.01537626
0.016525549
0.01805629
0.020059495
0.021587386
0.022439535
0.022455675
0.021286903
0.020850296
0.02160363
0.023057294
0.024660122
0.025934688
0.026582768
0.026579261
0.02725872
0.02825697
0.029074703
0.029645387
0.030307111
0.030942478
0.031585033
0.032014549
0.032443766
0.032790553
0.033159575
0.033179555
0.033300498
0.033072107
0.032897287
0.032217561
0.0061143413
0.0065064837
0.0067917726
0.0069976269
0.0071586493
0.0072993111
0.0074349069
0.0075741503
0.0077216187
0.0078796458
0.0080504429
0.0082383877
0.0084522505
0.0086914196
0.0089474838
0.0092273945
0.0095312527
0.0098875945
0.010349304
0.010953585
0.011724901
0.01269759
0.013803544
0.01489513
0.015789913
0.016407087
0.016513154
0.016177185
0.015717233
0.015410283
0.015470991
0.016081571
0.017229999
0.018796262
0.02089982
0.022584341
0.023574602
0.023808464
0.022736985
0.02215326
0.022750921
0.024156203
0.025745105
0.027084747
0.027779096
0.02774902
0.02837914
0.029341489
0.030135183
0.030689012
0.031326788
0.031935748
0.032557346
0.032968985
0.033382654
0.033716893
0.034079545
0.034100585
0.034222386
0.034001134
0.033829113
0.033164438
0.0056949268
0.0061249018
0.0064501719
0.0066955861
0.00689172
0.0070617289
0.0072209691
0.0073781439
0.0075370602
0.0076984289
0.0078618304
0.0080283444
0.0082058378
0.0083950012
0.0085925568
0.0088149267
0.0090822694
0.0094231983
0.0098882215
0.010519719
0.011365541
0.012482412
0.013783078
0.015115857
0.016263562
0.017099411
0.017455502
0.017230062
0.016755473
0.01634721
0.016291121
0.016811944
0.017939242
0.019513874
0.021677792
0.023513641
0.024646496
0.025075678
0.024153389
0.023442174
0.0238806
0.025209641
0.026795777
0.028189291
0.028922658
0.028879276
0.029462161
0.030386875
0.031158772
0.031697099
0.03231178
0.032895628
0.033496877
0.033891773
0.034290083
0.034611955
0.034967895
0.034989997
0.035112477
0.034898471
0.034729746
0.03407949
0.0051315801
0.0055904899
0.0059516031
0.0062370854
0.0064726462
0.0066794552
0.0068720114
0.0070584687
0.0072416814
0.007420788
0.0075929004
0.0077557703
0.0079141304
0.0080683978
0.0082180997
0.0083846437
0.008595168
0.0088931007
0.0093314846
0.0099632301
0.010851041
0.012099731
0.013584208
0.015159108
0.016580668
0.017644389
0.018267087
0.018225571
0.017798191
0.01732703
0.017156617
0.017558773
0.018626076
0.020209284
0.022387291
0.024368822
0.025648831
0.026253957
0.025517741
0.024707744
0.024988241
0.026221557
0.027806983
0.02924525
0.030011385
0.029967399
0.030506184
0.031392689
0.032144626
0.032668899
0.033261642
0.033821812
0.034403523
0.034782895
0.035166277
0.035476141
0.035825253
0.035848526
0.03597168
0.035765089
0.03560026
0.034964324
0.0048789445
0.0052638576
0.00558179
0.0058548139
0.0061021778
0.0063368935
0.006565788
0.0067897855
0.0070064651
0.0072101712
0.0073941309
0.0075570274
0.0076984276
0.007818678
0.0079394558
0.0080983379
0.0083477911
0.0087416512
0.0093388544
0.01024106
0.011582882
0.013225851
0.015033737
0.016744624
0.018066229
0.018922472
0.019131247
0.018803871
0.018312629
0.018040645
0.018311543
0.019282576
0.02087378
0.023034032
0.025148263
0.026579378
0.027345105
0.026816674
0.02594264
0.026070729
0.027196426
0.028775464
0.030248789
0.031044718
0.031011924
0.031510425
0.032358679
0.03309218
0.033603912
0.034176114
0.034714152
0.035277304
0.035642438
0.036011529
0.036309886
0.036652254
0.036676906
0.036800884
0.036601936
0.036441709
0.035820294
0.028134807
0.029695059
0.031204441
0.03202418
0.032012014
0.032474267
0.0332848
0.034001113
0.034501836
0.035055093
0.035572641
0.036118348
0.036470583
0.036826181
0.037113655
0.037449538
0.037475862
0.037600952
0.037409929
0.037255118
0.036648631
0.017120055
0.014606618
0.0075045422
0.01075077
0.014240704
0.017176236
0.018639191
0.018339926
0.016606112
0.014141019
0.0052164143
0.0077130622
0.010854128
0.014184111
0.016923548
0.018228163
0.017838619
0.016090453
0.013677265
0.0054841502
0.007915725
0.010943163
0.014108485
0.016650809
0.017798892
0.017329456
0.01557284
0.013215564
0.005760387
0.0081164627
0.011021229
0.014016583
0.016359283
0.017344844
0.016811034
0.015058463
0.012760433
0.0060484985
0.0083182572
0.011092148
0.013911376
0.016046693
0.016861668
0.016282481
0.014541954
0.012308728
0.0063553052
0.0085309865
0.011163201
0.013795673
0.015717411
0.01637738
0.015747048
0.014018634
0.01185098
0.0066897817
0.0087611377
0.01123875
0.013674641
0.015387551
0.015919907
0.01520402
0.01349901
0.011397695
0.0070586983
0.0090128786
0.011323679
0.013552956
0.015053639
0.015446146
0.014646305
0.012975138
0.010947138
0.0074664621
0.0092916746
0.011422383
0.013432867
0.014716398
0.014968291
0.014108649
0.012455381
0.010497436
0.0079183545
0.0096008853
0.011535256
0.013313843
0.014376591
0.014489386
0.013573917
0.011939236
0.010049595
0.0084103274
0.0099330329
0.011655987
0.013193277
0.014034382
0.014009309
0.013038523
0.011426333
0.0096044851
0.0089265459
0.010275227
0.011777217
0.013060179
0.013685234
0.013528442
0.012506275
0.010919508
0.0091651443
0.0094403109
0.010603771
0.011877296
0.012902658
0.01333365
0.013046253
0.011980312
0.010422569
0.0087356969
0.0099216879
0.010893367
0.011937547
0.012715497
0.012975858
0.012566601
0.011466331
0.0099417972
0.0083222816
0.010341979
0.011120689
0.011941018
0.012501082
0.012608713
0.012095502
0.010972533
0.0094854405
0.0079320896
0.010697745
0.011279852
0.011881658
0.012266893
0.012234556
0.011639377
0.010506142
0.0090599713
0.0075704898
0.010998738
0.011389055
0.011796753
0.012019846
0.011868686
0.011214418
0.010084488
0.0086834356
0.0072557026
0.011242762
0.011460839
0.011690771
0.011771244
0.011522562
0.010828932
0.0097124293
0.0083575365
0.0069871238
0.01143904
0.011511507
0.011583592
0.011539579
0.011211802
0.010494671
0.009399975
0.0080914969
0.0067732548
0.011632215
0.011582422
0.011512546
0.011347782
0.010947503
0.0102121
0.0091428528
0.0078805567
0.0066107776
0.011722005
0.011591375
0.011424503
0.011167029
0.010709873
0.00995818
0.008909974
0.0076869117
0.0064583738
0.01155901
0.011430205
0.011239624
0.010941165
0.010450799
0.0096919028
0.0086662801
0.0074827094
0.0062960738
0.01123908
0.011121848
0.010933122
0.010623755
0.010115918
0.0093565463
0.0083519739
0.0072049094
0.0060593986
0.010888753
0.010763411
0.010560694
0.010229232
0.009697482
0.0089307602
0.0079414556
0.0068298604
0.0057301643
0.010607951
0.010441632
0.010186355
0.0097898189
0.0092104781
0.0084143496
0.0074312517
0.0063583684
0.0053157976
0.010362785
0.010143333
0.0098201531
0.0093556905
0.008708613
0.0078666648
0.0068744692
0.0058278782
0.0048345387
0.0099846045
0.0097019274
0.0093105941
0.0087790176
0.0080817103
0.0072218875
0.0062497846
0.0052542341
0.0043283231
0.0096527768
0.0092784362
0.0087841998
0.0081539077
0.0073855433
0.0065025614
0.0055600534
0.0046337897
0.0037951465
0.0098130849
0.0093595251
0.0087651114
0.0080237599
0.0071531165
0.0061986675
0.0052269618
0.0043089794
0.0035014929
0.010424137
0.0099479143
0.0093145483
0.0085160963
0.0075768611
0.0065494908
0.0055057577
0.0045242237
0.003665245
0.011110073
0.010654629
0.010034067
0.0092248254
0.0082494112
0.0071567752
0.0060272843
0.0049539069
0.0040084778
0.011520275
0.011123514
0.010563237
0.0098045764
0.0088422787
0.0077407531
0.006581372
0.0054516503
0.0044319015
0.011224967
0.010937104
0.01052349
0.0099183293
0.0090769512
0.0080201966
0.0068470737
0.0056778522
0.0046185783
0.010006105
0.0097695154
0.0094416569
0.009000003
0.0083977881
0.0075936851
0.0066008997
0.0055389283
0.0045335929
0.0086141978
0.0083359049
0.0079704288
0.0074983148
0.0069045794
0.0061919879
0.0054094263
0.0045998117
0.0038242427
0.0080192819
0.0076596196
0.0072020154
0.0066381217
0.0059729805
0.0052310627
0.0044572321
0.0037063487
0.0030282145
0.0083857631
0.0079448219
0.0073910211
0.0067221686
0.005952873
0.0051200121
0.0042788077
0.003489085
0.0027988252
0.0090815711
0.0085814272
0.0079592421
0.0072144639
0.0063630007
0.0054439984
0.004518156
0.003652976
0.0029025987
0.0093962174
0.0088389972
0.0081732301
0.0074056397
0.0065469082
0.005622205
0.0046817925
0.0037924175
0.003013813
0.0089019801
0.0082978765
0.0076159809
0.0068824764
0.0061125907
0.0053111769
0.0044939799
0.003700807
0.0029799165
0.0085719962
0.0079204024
0.007182684
0.0063949631
0.0055884516
0.0047832336
0.0039997345
0.0032693131
0.0026309837
0.0088598318
0.0081367966
0.0073071034
0.0064146696
0.0055062582
0.0046193523
0.003785607
0.0030371342
0.0024019051
0.0095004489
0.0086968657
0.0077537424
0.0067215936
0.0056691194
0.0046611998
0.003745313
0.0029526507
0.0023004924
0.010221176
0.0093178845
0.0082423566
0.0070539643
0.0058452465
0.0047104716
0.0037133541
0.0028810806
0.0022170549
0.010897285
0.009929082
0.00876629
0.0074597355
0.006109339
0.0048341889
0.0037289301
0.0028328274
0.0021417197
0.011571457
0.010567073
0.0093467299
0.0079658817
0.006523351
0.0051383725
0.0039132781
0.0029140345
0.0021533075
0.012335945
0.011308408
0.010046936
0.008595677
0.007051079
0.005547248
0.0042098332
0.0031124566
0.0022722039
0.013213158
0.012171538
0.01088197
0.009379847
0.0077532103
0.0061305905
0.0046504102
0.0034159959
0.0024684342
0.013970656
0.012921646
0.0116151
0.010080477
0.0084003649
0.0067024566
0.0051279886
0.0037892039
0.0027394761
0.014591075
0.013535187
0.012215825
0.010658972
0.0089436211
0.0071955949
0.0055578616
0.0041484628
0.0030290119
0.015024065
0.013966043
0.012641917
0.011073915
0.0093385822
0.0075607724
0.005884892
0.004432581
0.0032698561
0.015387077
0.014323424
0.012988412
0.011408043
0.0096568063
0.0078587763
0.00615925
0.0046813034
0.0034923569
0.015572156
0.014499559
0.013154746
0.011560572
0.0097990657
0.0079971106
0.0062975155
0.0048191018
0.0036267116
0.015523886
0.014466092
0.013139971
0.011567637
0.0098236758
0.0080337657
0.0063435489
0.0048762451
0.0036956345
0.015434517
0.014376024
0.013051248
0.011484887
0.0097547661
0.0079859194
0.0063205909
0.00487385
0.0037070999
0.015077324
0.014038298
0.012741051
0.01121171
0.0095279534
0.0078116011
0.0061986351
0.0047992486
0.0036703286
0.014818613
0.013794716
0.012517235
0.011012689
0.0093582767
0.0076741984
0.0060938329
0.0047245297
0.0036211128
0.014003321
0.01301661
0.011792597
0.010359731
0.0087934251
0.0072075565
0.0057259509
0.0044462148
0.0034164134
0.011907471
0.0091036591
0.006281394
0.0036475322
0.0014393248
0.00017230544
0.011520291
0.0088104537
0.0060890142
0.003542857
0.00140407
0.00016786312
0.011136263
0.0085193218
0.005895476
0.0034404174
0.0013663843
0.00016324411
0.010757393
0.0082376248
0.0057061387
0.0033405741
0.0013324403
0.00015845489
0.010386576
0.0079542399
0.0055225477
0.0032422066
0.0012964574
0.00015352887
0.010013714
0.0076756088
0.0053407757
0.0031451254
0.0012623669
0.00014846232
0.009642491
0.0074010722
0.0051602615
0.0030476992
0.0012261119
0.00014326439
0.0092768201
0.0071279216
0.0049798675
0.0029494318
0.0011897781
0.00013791476
0.0089118733
0.0068547467
0.0047982774
0.0028491107
0.0011511882
0.00013239877
0.0085469862
0.006580583
0.0046145953
0.002746255
0.0011111655
0.00012668619
0.0081824113
0.0063052442
0.0044285488
0.0026407063
0.0010692987
0.00012075852
0.0078190191
0.0060293782
0.0042406384
0.0025329592
0.0010263544
0.00011460167
0.0074597279
0.0057555955
0.0040532352
0.0024252567
0.00098400906
0.00010826815
0.0071087983
0.0054881961
0.0038704777
0.002320886
0.00094362146
0.00010187137
0.0067715856
0.005231054
0.0036939747
0.0022188034
0.00090278568
9.5442375e-05
0.0064536862
0.0049878406
0.003525467
0.002119437
0.0008614341
8.8871376e-05
0.006159494
0.0047622317
0.0033683545
0.0020261865
0.00082252839
8.2339927e-05
0.005906921
0.0045711947
0.0032376762
0.0019508498
0.00079316997
7.6911973e-05
0.0056939381
0.0044119453
0.0031302099
0.0018899131
0.00077001875
7.2434605e-05
0.0055280037
0.0042903183
0.0030496497
0.0018448881
0.00075319669
6.8729826e-05
0.0054079243
0.0042073576
0.0029986336
0.0018190005
0.00074504763
6.5619785e-05
0.0052920012
0.0041237452
0.002943232
0.0017865792
0.00073084293
6.2604208e-05
0.0051673029
0.004032699
0.0028814326
0.0017491947
0.00071404128
5.95534e-05
0.0049710017
0.003876903
0.0027662173
0.0016742199
0.00067811416
5.5847208e-05
0.0046910679
0.0036501503
0.0025960705
0.001562419
0.00062367089
5.1454914e-05
0.0043409909
0.0033710568
0.0023927132
0.0014351733
0.00056650995
4.6813939e-05
0.0039204882
0.0030227382
0.0021277397
0.0012619801
0.00048802903
4.1468984e-05
0.0034875594
0.0026699115
0.0018618498
0.0010865494
0.00040233064
3.7160057e-05
0.0030448364
0.002321849
0.0016113517
0.00093065474
0.0003330763
3.3818086e-05
0.0027905422
0.0021141297
0.0014579194
0.00083656065
0.00030093385
3.2271998e-05
0.0029099578
0.0021930141
0.001502386
0.0008554081
0.0003087968
3.2588709e-05
0.0031733502
0.0023790677
0.001616685
0.00091031705
0.00032653004
3.3941162e-05
0.003517
0.0026374272
0.0017900608
0.0010077544
0.00036599763
3.5868722e-05
0.0036680368
0.0027527335
0.0018697515
0.0010539336
0.00038311219
3.6700766e-05
0.0036137733
0.0027195351
0.0018510919
0.0010452076
0.00038018084
3.6046085e-05
0.0030954922
0.0023618028
0.0016270444
0.00092682087
0.00033605666
3.2927298e-05
0.0024169112
0.0018218254
0.0012397673
0.00069453224
0.00024553645
2.9218298e-05
0.0021935806
0.0016216929
0.0010822418
0.00059769805
0.0002170503
2.8356293e-05
0.0022508982
0.0016425597
0.0010802745
0.00058897302
0.00021578539
2.9484136e-05
0.0023338723
0.0016969436
0.0011098653
0.00060140191
0.00022358484
3.1112103e-05
0.0023311296
0.0017082282
0.0011225689
0.00060884544
0.00022498464
3.1983723e-05
0.0020672207
0.0015260304
0.0010125304
0.0005551531
0.00020774748
3.1246692e-05
0.0018558443
0.0013475189
0.0008816644
0.00048015673
0.00018286881
3.0380352e-05
0.0017529681
0.0012544465
0.00081001643
0.00043976585
0.00017335766
3.0231294e-05
0.0016716116
0.001183371
0.00075570984
0.00040639763
0.00016341702
3.0134218e-05
0.001590251
0.0011097757
0.00070062635
0.00037525424
0.0001529722
2.9799968e-05
0.0015615274
0.0010629795
0.00065617184
0.00034743785
0.00014421154
2.9361853e-05
0.0016154187
0.0010686406
0.000639234
0.00033058711
0.00013805872
2.8932499e-05
0.0017331725
0.0011249311
0.00065222994
0.00032566067
0.00013465241
2.8524959e-05
0.0019083866
0.0012153801
0.00068669168
0.00033093408
0.0001338387
2.8127981e-05
0.0021274771
0.0013574092
0.00075444911
0.00034932219
0.00013259971
2.755197e-05
0.0023221934
0.0014985029
0.00083963987
0.00038089506
0.00013632316
2.7020351e-05
0.0025136783
0.0016491653
0.00094197315
0.00042901299
0.0001390547
2.6307519e-05
0.0026378843
0.0017541469
0.0010202756
0.00047120073
0.00014479957
2.5577354e-05
0.0027120311
0.0018234671
0.0010762
0.00050251155
0.00014744182
2.45602e-05
0.0027301327
0.001842775
0.0010942171
0.00051466401
0.00014999112
2.3452714e-05
0.0027186435
0.0018446775
0.0011018295
0.00051972744
0.00014907826
2.2138531e-05
0.0026875035
0.0018259583
0.0010934171
0.00051822997
0.00014831604
2.0932364e-05
0.0025404795
0.0017253068
0.0010302075
0.00048400748
0.00014046694
1.9102387e-05
)
;

boundaryField
{
    Side1
    {
        type            empty;
    }
    Inlet
    {
        type            calculated;
        value           nonuniform List<scalar> 0();
    }
    Side2
    {
        type            empty;
    }
    Outlet
    {
        type            zeroGradient;
    }
    Botwall
    {
        type            compressible::alphatWallFunction;
        value           nonuniform List<scalar> 
59
(
1.8321223e-05
1.7583282e-05
1.6813623e-05
1.6015011e-05
1.5191341e-05
1.4343049e-05
1.3470467e-05
1.2570692e-05
1.1640481e-05
1.0674688e-05
9.6695868e-06
8.6222376e-06
7.5408946e-06
6.4439871e-06
5.3358486e-06
4.195992e-06
3.0547523e-06
2.0974869e-06
1.3006123e-06
6.3588736e-07
7.2261957e-08
0
0
0
0
0
0
0
0
0
0
0
0
0
0
0
0
0
0
0
0
0
0
0
0
0
0
0
0
0
0
0
0
0
0
0
0
0
0
)
;
    }
    Cyli
    {
        type            compressible::alphatWallFunction;
        value           nonuniform List<scalar> 0();
    }
    procBoundary1to0
    {
        type            processor;
        value           nonuniform List<scalar> 
44
(
0.0027555144
0.0049507951
0.0016123139
0.0016123139
0.00098663095
0.00098663095
0.0013495583
0.0023988259
0.0023988259
0.0032385846
0.0032385846
0.0037190518
0.0044399423
0.0050272569
0.0050272569
0.0048377305
0.0051743302
0.0053863724
0.0054641164
0.0054157238
0.0055943325
0.0052293731
0.0055943325
0.0051421149
0.0045569171
0.0044087466
0.0044087466
0.017628488
0.015073866
0.00728358
0.010626616
0.014273082
0.017403761
0.01904401
0.018842129
0.018842129
0.0049507951
0.0049507951
0.012299953
0.0094049049
0.0064850138
0.0037595823
0.0014802992
0.00017653418
)
;
    }
    procBoundary1to3
    {
        type            processor;
        value           nonuniform List<scalar> 
62
(
0.0039757645
0.0043616205
0.0046939773
0.0049934278
0.0052770888
0.0055567012
0.0058385911
0.0061211712
0.0063996197
0.0066659948
0.0069086595
0.0071192408
0.0072925738
0.0074248272
0.007533853
0.0076588995
0.0078591736
0.0081990879
0.0087251769
0.0096274174
0.01101501
0.012765545
0.014746553
0.016729449
0.018379782
0.019459293
0.019955627
0.019799583
0.01933139
0.018961187
0.019076613
0.019899658
0.02146142
0.02358245
0.025815339
0.027419108
0.028352692
0.028082575
0.027176775
0.027136797
0.027136797
0.029031049
0.030549357
0.032098268
0.032955538
0.032975933
0.033399342
0.03416954
0.034871044
0.035363181
0.035898529
0.036396732
0.036926317
0.037267566
0.037610185
0.037886983
0.03821715
0.038245843
0.038372522
0.038189882
0.038041495
0.037450785
)
;
    }
}


// ************************************************************************* //
