/*--------------------------------*- C++ -*----------------------------------*\
| =========                 |                                                 |
| \\      /  F ield         | OpenFOAM: The Open Source CFD Toolbox           |
|  \\    /   O peration     | Version:  2406                                  |
|   \\  /    A nd           | Website:  www.openfoam.com                      |
|    \\/     M anipulation  |                                                 |
\*---------------------------------------------------------------------------*/
FoamFile
{
    version     2.0;
    format      ascii;
    arch        "LSB;label=32;scalar=64";
    class       volScalarField;
    location    "0.09";
    object      omega;
}
// * * * * * * * * * * * * * * * * * * * * * * * * * * * * * * * * * * * * * //

dimensions      [0 0 -1 0 0 0 0];

internalField   nonuniform List<scalar> 
8260
(
19412.641
16548.964
13854.834
11448.43
9365.955
7592.3626
6099.1775
4855.4749
3830.8364
2995.4759
2321.8376
1784.7946
1361.4912
1031.4705
774.84577
571.43352
393.47769
263.32568
201.10412
169.71589
149.92001
134.28025
123.81565
115.75273
109.89249
106.10835
103.39124
101.65513
100.40386
99.594547
99.166223
16028.29
13806.883
11765.384
9911.8403
8256.0961
6800.2732
5539.431
4463.4037
3558.5474
2808.2135
2194.148
1698.4325
1303.5076
992.80888
748.75834
552.36524
377.74882
253.51481
197.36042
167.94971
148.83505
133.6185
123.37087
115.43887
109.69523
105.9916
103.32466
101.61572
100.3807
99.58016
99.158195
13127.306
11490.914
9951.5126
8521.9861
7212.2793
6030.1206
4980.1137
4063.0078
3275.624
2610.7437
2057.9691
1605.5351
1240.7328
950.7313
720.26882
531.46222
361.81774
247.01006
195.43817
167.03478
148.25548
133.27518
123.13281
115.27109
109.58706
105.92608
103.28687
101.58922
100.36355
99.567541
99.149092
10635.003
9468.0251
8332.1322
7247.8607
6228.0999
5284.0205
4424.795
3656.887
2983.4263
2403.6755
1913.364
1505.8852
1172.8419
904.87542
688.97492
508.12649
344.62233
239.46945
192.7368
165.54144
147.23938
132.66171
122.69365
114.9645
109.38829
105.80435
103.21633
101.54551
100.33725
99.55026
99.137755
8520.4802
7710.7874
6889.844
6084.6543
5307.0946
4568.6655
3879.9594
3249.918
2685.0612
2188.7678
1761.1692
1399.7607
1099.8144
855.05339
654.52121
481.68804
325.69581
232.07318
190.17628
164.11106
146.27736
132.09507
122.29374
114.69674
109.21868
105.7016
103.15754
101.50624
100.31267
99.53275
99.124879
6752.7328
6200.1044
5619.6458
5035.3244
4456.2899
3892.2824
3353.1112
2847.9495
2384.5538
1968.4898
1602.7272
1287.7646
1021.8169
801.15612
616.49882
451.51864
305.31015
224.68655
187.23479
162.31621
145.02559
131.33498
121.74578
114.32924
108.98329
105.55702
103.07434
101.45333
100.28064
99.510988
99.110056
5290.7038
4919.5231
4517.9155
4103.8379
3683.3518
3263.5645
2852.2863
2457.4899
2086.6364
1745.9514
1439.8736
1170.8296
939.20675
743.12323
574.33502
417.08701
284.24172
217.56345
184.1617
160.38645
143.68419
130.52518
121.16754
113.95907
108.75245
105.41608
102.99435
101.4003
100.24791
99.487651
99.093198
4094.66
3849.817
3578.1164
3291.8205
2994.408
2690.4305
2385.3745
2085.3398
1796.5609
1524.8266
1274.9254
1050.2281
852.53485
680.88227
527.10364
378.09321
263.74701
210.66347
180.68557
158.09679
142.07053
129.51582
120.44314
113.49658
108.46333
105.23677
102.89225
101.33435
100.20784
99.459703
99.073949
3127.7357
2969.5693
2790.0744
2597.1905
2392.5815
2178.779
1959.1901
1737.9599
1519.7044
1309.1275
1110.5631
927.50136
762.45219
614.15634
473.30221
335.49608
245.43304
203.91692
176.84678
155.55733
140.2775
128.37689
119.64079
113.00311
108.16588
105.05116
102.78782
101.26544
100.16517
99.428899
99.051998
2355.483
2255.7312
2140.2724
2013.9671
1877.3763
1731.6544
1578.6134
1420.7131
1260.9719
1102.7726
949.53403
804.23498
669.33802
541.97658
411.06813
293.12978
230.25697
196.9758
172.4179
152.5978
138.15053
126.99506
118.67903
112.41146
107.81262
104.8263
102.66
101.18318
100.11423
99.392564
99.026886
1746.3406
1685.0263
1613.1861
1533.1841
1445.0243
1349.0562
1246.0201
1137.1105
1024.0168
908.87351
794.03935
681.4967
572.55139
460.67375
341.47588
258.55602
217.79442
189.47916
167.42333
149.24326
135.69653
125.42972
117.61185
111.76296
107.44155
104.58992
102.52422
101.09557
100.05872
99.352059
98.998103
1270.9473
1234.5303
1191.4468
1142.706
1088.0046
1027.1848
960.28613
887.6347
809.95209
728.38001
644.31221
557.99225
467.36828
367.27293
280.11289
235.79143
205.52203
180.89284
161.821
145.21597
132.82332
123.62284
116.37967
110.99873
107.00598
104.31564
102.36105
100.99237
99.993437
99.305124
98.964081
901.93417
881.43792
856.7787
828.3149
795.5749
758.10604
715.55238
667.72324
614.74135
557.05803
495.64538
429.06642
353.04813
283.26442
243.70113
217.03487
191.71822
172.15396
155.41484
140.79867
129.49831
121.63008
115.00649
110.1666
106.53597
104.02844
102.18607
100.88021
99.92213
99.253393
98.920366
610.49836
598.89941
584.68308
568.15536
548.72929
525.6142
498.43221
466.97519
431.26545
391.14447
350.04142
306.29556
266.96667
237.04128
217.24982
196.35053
178.25054
161.37635
148.16036
135.73928
126.2408
119.3044
113.44137
109.22228
106.00192
103.69514
101.98433
100.74932
99.840384
99.195063
98.869797
388.93785
382.03451
374.21978
365.63035
355.34496
342.72795
327.86728
311.27633
292.61593
272.56085
254.30885
235.74012
221.06665
207.92054
191.24739
176.75262
162.01705
150.86768
140.30483
131.02164
122.55529
116.78507
111.83758
108.25229
105.44059
103.32846
101.77903
100.60906
99.752686
99.131893
98.813858
264.76818
261.40862
257.40182
253.19507
248.56711
243.26528
236.95487
230.13625
220.99449
212.03409
202.86992
195.61044
190.9835
181.04039
169.28913
157.55995
148.67099
139.59449
132.51463
125.56542
119.14585
114.33051
110.13466
107.22167
104.83432
102.9235
101.54993
100.45085
99.655348
99.061898
98.753771
199.55613
198.38601
197.04221
195.40776
193.70168
191.61416
189.05953
186.67781
183.49082
180.42622
172.8347
166.54418
161.25638
157.77534
153.00402
145.89029
137.97889
131.74187
125.27699
121.0924
115.94294
111.75889
108.80637
106.1991
104.16599
102.52273
101.32758
100.29074
99.55075
98.986601
98.691298
166.2499
165.5817
164.99572
164.36757
163.76436
163.71353
163.79139
162.4647
160.38728
155.73679
154.62204
151.52401
145.94462
141.32543
138.48552
135.86628
132.09462
126.09486
120.66428
117.16994
113.07246
109.78783
107.41416
105.21387
103.50944
102.10745
101.08462
100.11236
99.435222
98.904444
98.624498
148.36852
148.41052
148.28294
147.83543
146.99012
145.579
142.92368
141.27383
140.62947
141.3008
140.7891
139.40549
136.48696
132.76258
128.06766
126.30342
124.69009
122.296
117.85408
114.72572
111.17137
108.01999
106.34518
104.31257
102.90243
101.72011
100.8306
99.945271
99.31285
98.813727
98.553052
130.42637
130.28565
130.12872
129.9091
129.67841
129.66114
130.41847
130.61162
129.85891
128.00927
126.16684
125.25352
125.77378
124.99323
122.5605
119.22057
117.21836
115.97672
114.62455
112.21835
109.51372
106.99621
105.10282
103.59019
102.34506
101.31526
100.55105
99.765964
99.174855
98.715838
98.475691
121.2996
121.40593
121.39588
121.25915
120.95456
120.40718
119.19154
118.48953
118.04784
117.58881
117.517
117.00023
115.67279
115.25239
115.92027
115.22717
112.98417
110.9987
109.90696
109.39537
107.89728
105.83543
104.23492
102.9242
101.85011
100.96414
100.27789
99.587906
99.041518
98.609371
98.393435
112.53434
112.55264
112.52478
112.43908
112.32392
112.23246
112.44779
112.62823
112.51322
112.10109
110.98861
110.11523
109.5995
109.47167
109.05997
109.23561
109.4215
108.16785
106.58861
105.68418
105.37641
104.99264
103.45057
102.19961
101.44618
100.59615
100.01641
99.391191
98.887338
98.505161
98.303992
108.06684
108.1513
108.15544
108.09117
107.95225
107.72522
107.27321
106.92001
106.75062
106.62744
106.53964
106.47106
106.22426
105.77358
105.49442
105.19348
105.09054
104.94236
104.56259
103.77706
103.04663
103.43667
102.89478
101.68483
100.96263
100.30497
99.770721
99.212177
98.732379
98.398997
98.215968
103.91331
103.94132
103.93206
103.89222
103.84026
103.80061
103.86969
104.02606
104.10927
104.13646
104.12357
104.08911
104.0408
103.76958
103.28375
103.28333
102.85954
102.61034
102.84854
102.19998
101.68447
101.6158
101.83094
101.10789
100.61069
99.987592
99.477035
98.998254
98.576944
98.296036
98.130585
101.71103
101.75408
101.75491
101.72767
101.67882
101.6119
101.51553
101.40814
101.36109
101.39484
101.46506
101.53624
101.59523
101.76122
101.81178
101.52461
101.43114
101.17844
101.04912
101.02448
100.79342
100.63186
100.42298
100.56789
100.14307
99.63304
99.19462
98.78418
98.43888
98.195763
98.056332
99.738822
99.757508
99.760506
99.759024
99.763857
99.77987
99.808727
99.851955
99.947006
100.04995
100.1582
100.27108
100.32485
100.27602
100.20264
100.12463
100.0179
100.18552
99.966654
100.00255
100.30229
100.08561
99.672949
99.669552
99.452232
99.27545
98.821715
98.588095
98.31013
98.112889
98.008933
98.881
98.897917
98.906936
98.91479
98.928792
98.947053
98.964173
98.975575
98.985155
98.99983
99.016378
99.036367
99.069332
99.111202
99.138176
99.179588
99.265238
99.237233
99.312411
99.254577
99.38113
99.375139
99.194395
99.028682
98.893957
98.792951
98.620399
98.401311
98.217504
98.067693
97.982974
98.416908
98.427422
98.433373
98.437888
98.443575
98.451083
98.460706
98.472828
98.487621
98.505201
98.52723
98.558609
98.600439
98.643126
98.670725
98.685719
98.698596
98.741346
98.756265
98.813917
98.766602
98.752056
98.707369
98.650975
98.624995
98.556659
98.445302
98.307745
98.171967
98.048883
97.968632
98.24333
98.247981
98.250134
98.252053
98.255721
98.261895
98.270766
98.282333
98.296706
98.315329
98.340856
98.375788
98.414067
98.442676
98.462283
98.479881
98.496833
98.517049
98.551184
98.553929
98.552011
98.543927
98.52406
98.499927
98.495518
98.441913
98.37051
98.270592
98.156546
98.059868
98.023522
98.164598
98.168865
98.172887
98.177752
98.184276
98.192587
98.202658
98.214761
98.229913
98.250168
98.278383
98.314372
98.350796
98.373725
98.388761
98.399918
98.412867
98.428646
98.445704
98.454829
98.467001
98.47297
98.464612
98.448549
98.449035
98.407552
98.348005
98.268324
98.21764
98.176391
98.129632
98.283887
98.282738
98.281893
98.281213
98.280666
98.28031
98.280309
98.280876
98.282377
98.285318
98.291509
98.308139
98.338666
98.358129
98.367922
98.378114
98.39149
98.40216
98.411861
98.437318
98.441883
98.441047
98.457313
98.447223
98.448324
98.425571
98.391404
98.36117
98.343701
98.31001
98.305132
106418
90247.96
71125.167
54704.158
41754.692
31492.036
23463.176
17342.781
12727.226
9253.4872
6662.2302
4754.2345
3366.1052
2366.8065
1654.0124
1148.8709
790.13018
528.66317
342.28457
227.34998
172.41023
145.7952
130.7052
120.99394
113.87161
108.76813
105.04134
102.66951
101.04697
100.01774
99.488386
94320.838
71213.037
54454.918
42533.187
33095.306
25492.315
19468.668
14701.423
10966.158
8080.4139
5888.8983
4250.4114
3041.511
2159.8547
1523.3031
1066.8024
738.00187
494.87147
320.419
215.51855
167.49499
143.65921
129.64089
120.3558
113.44775
108.50589
104.8896
102.59112
101.00427
99.995108
99.479649
75449.554
59783.931
47849.301
37878.094
29502.698
22678.099
17263.434
13027.697
9740.8778
7213.7762
5292.8025
3849.2376
2776.3461
1987.3244
1412.569
996.38709
692.99363
466.07445
303.34102
208.62743
165.24445
142.70019
129.16129
120.05748
113.24088
108.36538
104.80112
102.54259
100.97409
99.976855
99.467783
66198.084
53319.908
42366.575
33259.325
25878.892
19979.229
15300.59
11613.136
8731.0542
6503.7053
4801.8409
3515.4557
2553.1374
1840.4055
1317.2522
935.17235
653.54222
440.88613
288.24792
201.52546
162.27523
141.29067
128.41284
119.5694
112.90117
108.14911
104.67426
102.47522
100.93594
99.955793
99.455737
59011.671
47024.813
37246.152
29333.887
22943.634
17803.958
13697.107
10442.546
7889.821
5909.1564
4388.3367
3232.3466
2362.3096
1713.7533
1234.3946
881.47023
618.62175
418.1569
274.57604
195.7446
160.27342
140.37837
127.9302
119.24528
112.67537
107.99957
104.58311
102.42479
100.90493
99.937099
99.444218
52432.301
41826.27
33228.921
26237.477
20571.685
16008.741
12357.571
9459.6414
7180.8333
5405.8464
4036.4237
2989.9468
2197.8417
1603.8371
1161.9565
834.04652
587.53721
397.27772
262.30556
190.64569
158.21372
139.32813
127.34704
118.84314
112.39063
107.81473
104.47361
102.36486
100.86984
99.916954
99.432506
47331.456
37741.198
29966.677
23671.484
18590.691
14503.448
11231.679
8631.2224
6580.8036
4977.7515
3735.4641
2781.4436
2055.516
1508.119
1098.4341
792.09388
559.75835
378.23899
251.40017
186.35934
156.62028
138.53349
126.90597
118.52813
112.16795
107.66796
104.38515
102.31483
100.83904
99.898196
99.420475
43219.811
34346.844
27240.025
21530.001
16935.933
13242.313
10285.273
7931.9402
6071.8751
4612.7794
3477.4994
2601.7343
1932.1479
1424.6592
1042.6639
754.96405
534.82371
360.91594
241.80454
182.70524
155.1324
137.7229
126.43875
118.18758
111.92277
107.50717
104.28916
102.26051
100.80641
99.878768
99.407859
39693.819
31492.881
24968.588
19746.044
15551.928
12184.119
9488.4196
7340.8067
5639.7187
4301.3528
3256.2561
2446.7972
1825.2202
1351.9222
993.80065
722.11778
512.58289
345.24474
233.4568
179.64014
153.91551
137.05976
126.05546
117.89873
111.71401
107.36981
104.2063
102.21227
100.7765
99.860199
99.394794
36805.048
29134.592
23080.19
18255.599
14391.777
11295.024
8816.9816
6840.9504
5272.7926
4035.7411
3066.6624
2313.3742
1732.6871
1288.6576
951.14809
693.21369
492.62291
331.13393
226.27493
177.06648
152.83144
136.42589
125.67789
117.60888
111.50046
107.22944
104.12156
102.16257
100.746
99.841388
99.381559
34340.027
27145.606
21493.219
17004.318
13418.2
10548.021
8251.561
6418.7278
4961.7191
3809.637
2904.565
2198.7865
1652.8559
1233.8261
914.03266
667.88221
474.74247
318.51154
220.16245
174.92274
151.93125
135.88937
125.35597
117.35435
111.31079
107.10506
104.0457
102.11691
100.71739
99.823159
99.368175
32260.74
25471.618
20160.238
15954.566
12602.2
9921.3609
7776.4849
6063.0567
4698.8515
3617.8724
2766.5426
2100.8139
1584.3108
1186.6125
881.8923
645.82455
458.82469
307.31239
215.02366
173.14344
151.1577
135.39817
125.05286
117.11025
111.12506
106.98324
103.9709
102.07133
100.68887
99.804922
99.35467
30485.901
24056.16
19039.307
15075.11
11919.464
9397.345
7378.9755
5764.9422
4477.9604
3456.2122
2649.7715
2017.6084
1525.8991
1146.2012
854.20765
626.79287
444.72442
297.48361
210.76091
171.67999
150.52411
134.98083
124.79093
116.89358
110.95729
106.87352
103.90271
102.02875
100.66175
99.787117
99.341051
28971.809
22859.728
18098.064
14340.474
11351.119
8961.925
7048.6863
5517.0665
4293.9979
3321.2626
2551.9809
1947.7477
1476.6248
1111.8847
830.5657
610.4893
432.32091
288.97764
207.28154
170.48973
150.00395
134.61482
124.55276
116.69241
110.79796
106.76903
103.83709
101.98709
100.6351
99.769421
99.327331
27685.62
21854.066
17313.815
13732.481
10883.241
8604.5482
6777.9567
5313.9525
4143.1097
3210.5255
2471.5159
1889.996
1435.6797
1083.2383
810.73383
596.59976
421.48414
281.73822
204.50422
169.5405
149.59725
134.31252
124.34832
116.51452
110.65395
106.6744
103.77688
101.94788
100.60961
99.752089
99.313492
26619.416
21029.185
16676.49
13241.788
10507.374
8318.5284
6561.7793
5152.0071
4022.6035
3121.7187
2406.797
1843.2726
1402.4315
1059.8752
794.49871
585.06658
412.12797
275.72692
202.3392
168.80669
149.28896
134.06472
124.16953
116.35406
110.5208
106.5861
103.72002
101.91005
100.5848
99.734964
99.2995
25775.573
20382.811
16179.921
12861.297
10217.024
8098.0826
6395.3356
5027.0631
3929.4879
3052.6988
2356.295
1806.7643
1376.354
1041.4769
781.67047
575.91975
404.27923
270.90048
200.64664
168.26936
149.07419
133.87688
124.02082
116.21439
110.40182
106.50626
103.66792
101.87439
100.56102
99.718145
99.285364
24995.429
19823.234
15772.085
12560.734
9993.9929
7931.9592
6271.4396
4934.4863
3860.7987
3001.9786
2319.1207
1779.8294
1357.0456
1027.7934
772.08562
569.06144
397.97897
267.12898
199.42362
167.91436
148.94284
133.74513
123.89868
116.09265
110.29491
106.43304
103.61953
101.84036
100.53802
99.701555
99.271113
24190.964
19278.502
15400.693
12305.824
9817.3619
7808.1164
6183.6038
4871.3959
3814.9023
2968.4179
2294.5945
1762.0059
1344.2132
1018.643
765.62327
564.42344
393.25104
264.33791
198.62129
167.73128
148.88991
133.67155
123.8055
115.99041
110.20161
106.36742
103.57555
101.80838
100.51599
99.685246
99.256776
23530.701
18837.004
15107.377
12113.258
9692.1322
7726.8792
6130.6447
4836.1419
3790.7019
2951.3023
2282.2337
1752.9986
1337.6703
1013.9064
762.2073
561.94073
390.11333
262.46059
198.21955
167.71379
148.90164
133.65464
123.74104
115.90688
110.12108
106.30858
103.53548
101.77818
100.49482
99.669173
99.242361
22945.456
18476.164
14888.083
11983.816
9619.1151
7688.2089
6112.031
4828.1397
3787.6724
2950.2726
2281.8128
1752.6649
1337.313
1013.5332
761.8094
561.56121
388.58869
261.4476
198.19938
167.86231
149.01325
133.69689
123.70836
115.84371
110.05419
106.25704
103.49966
101.74995
100.47458
99.653334
99.227857
22422.36
18181.205
14734.144
11913.877
9597.5826
7691.5067
6125.2956
4844.1007
3802.717
2963.536
2292.6799
1760.8806
1343.1284
1017.5286
764.44978
563.29292
388.67873
261.28742
198.56291
168.18189
149.18636
133.79932
123.70845
115.80116
110.00042
106.21229
103.46767
101.72345
100.45514
99.63765
99.213212
21934.062
17935.428
14636.109
11898.909
9621.901
7731.1019
6168.4596
4885.6219
3839.7612
2993.7776
2315.9153
1777.9624
1355.2014
1025.9408
770.18752
567.23232
390.33793
261.73779
199.31017
168.67395
149.44684
133.95891
123.72782
115.7787
109.95895
106.17387
103.43923
101.69853
100.4364
99.622074
99.198187
21430.804
17708.983
14574.885
11924.609
9685.3491
7806.1331
6241.0597
4948.8482
3891.5433
3034.3074
2346.3725
1800.0515
1370.7393
1036.6671
777.40821
572.12283
393.07573
262.89028
200.2656
169.26421
149.71435
134.13768
123.7726
115.77193
109.92721
106.14041
103.41356
101.67488
100.41826
99.606626
99.182354
103736.77
88105.07
70008.801
54374.426
41989.88
32183.64
24292.094
18089.389
13314.417
9698.3991
6987.9156
4985.2519
3525.3683
2473.8135
1724.2426
1193.9877
818.52888
545.89747
352.23934
231.70881
173.908
146.38677
130.98419
121.17929
114.01878
108.87392
105.11055
102.70722
101.07043
100.03182
99.492105
98397.132
83807.2
67446.348
53171.344
41473.149
31939.743
24221.796
18119.864
13398.699
9795.0007
7076.5512
5057.8619
3580.7375
2513.8983
1752.0779
1212.6076
830.70756
553.71141
357.39233
234.26093
174.83543
146.75132
131.14375
121.28517
114.1154
108.94115
105.15397
102.7314
101.0859
100.0424
99.495486
93099.844
79837.355
64711.486
51585.698
40621.713
31541.365
24097.269
18137.177
13477.389
9890.4664
7166.5797
5132.8844
3638.6165
2556.1556
1781.6013
1232.442
843.68946
562.00532
362.88468
237.04275
175.84633
147.14498
131.32828
121.40783
114.21534
109.01873
105.20744
102.7597
101.10365
100.05238
99.500504
88130.595
76123.514
62087.205
49990.701
39737.217
31111.299
23947.067
18136.346
13548.265
9983.4498
7257.1823
5209.885
3698.8297
2600.5517
1812.8428
1253.5435
857.51041
570.82256
368.71652
240.0716
176.98006
147.57289
131.49364
121.51081
114.32439
109.08879
105.25171
102.78541
101.1202
100.06452
99.506917
83376.739
72679.539
59589.822
48399.781
38820.542
30646.518
23769.057
18123.023
13609.647
10072.504
7347.4555
5288.3881
3761.1778
2647.0421
1845.8316
1275.9686
872.21097
580.27153
374.88108
243.34355
178.21566
148.07209
131.74821
121.67217
114.43963
109.18046
105.31548
102.81878
101.14097
100.07676
99.511846
78687.17
69461.365
57223.175
46823.971
37875.489
30146.2
23560.652
18088.063
13658.879
10155.835
7436.2543
5367.7604
3825.372
2695.5378
1880.5791
1299.7695
887.83459
590.38465
381.24741
246.87842
179.58611
148.57164
131.92768
121.78049
114.56488
109.27007
105.37618
102.8518
101.16151
100.08975
99.514895
74047.319
66379.905
54965.144
45257.444
36895.289
29602.711
23314.859
18024.043
13692.157
10231.297
7522.3853
5447.4038
3891.1671
2745.9803
1917.1122
1325.003
904.4578
601.18122
387.93696
250.68398
181.09211
149.14968
132.16909
121.92369
114.69572
109.36497
105.44063
102.88702
101.1832
100.10347
99.518723
69509.305
63382.703
52797.644
43705.332
35886.345
29019.502
23033.02
17933.475
13707.185
10298.103
7605.3587
5527.0291
3958.4331
2798.3417
1955.4566
1351.7054
922.16654
612.70923
395.32211
254.78134
182.74443
149.78143
132.42954
122.07025
114.83428
109.46496
105.50891
102.92438
101.20594
100.1179
99.526779
65065.329
60436.954
50710.204
42171.389
34849.086
28392.796
22709.795
17811.042
13701.673
10353.136
7682.9958
5605.3106
4026.47
2852.3124
1995.5147
1379.8662
940.98657
625.01107
403.26159
259.18373
184.55712
150.47346
132.70979
122.22984
114.97904
109.57068
105.58106
102.96426
101.22992
100.133
99.539708
60836.043
57458.556
48655.523
40638.734
33779.494
27719.91
22341.988
17654.215
13677.749
10394.426
7753.5428
5681.1315
4094.6662
2907.6157
2037.1945
1409.4798
960.94684
638.22217
411.75705
263.91531
186.5408
151.22828
133.01272
122.38886
115.13188
109.68166
105.65714
103.00663
101.2549
100.14876
99.55174
56810.882
54471.918
46649.57
39120.371
32681.902
27000.193
21926.596
17458.303
13622.998
10418.256
7814.8709
5753.1981
4162.2881
2963.8914
2080.361
1440.5243
982.06308
652.34924
420.91724
269.01466
188.71176
152.05857
133.34416
122.57276
115.29101
109.79883
105.7373
103.05186
101.28122
100.16522
99.561432
53025.147
51443.683
44588.149
37578.868
31545.864
26229.475
21459.799
17218.728
13534.351
10417.479
7864.3294
5820.0064
4228.4781
3020.7017
2124.8314
1472.9562
1004.3477
667.29925
430.40194
274.45313
191.07644
152.95381
133.69739
122.74691
115.45706
109.92062
105.82108
103.09991
101.30839
100.18237
99.570978
49588.838
48414.733
42433.668
35987.374
30361.918
25403.56
20938.014
16932.075
13411.698
10401.279
7900.66
5880.0189
4292.2608
3077.5225
2170.3703
1506.7053
1027.8078
683.12099
440.19366
280.27498
193.64538
153.94721
134.09985
122.96466
115.63037
110.04846
105.90917
103.15083
101.337
100.20027
99.581973
46404.827
45376.812
40208.642
34341.538
29125.093
24519.575
20358.572
16595.393
13251.33
10358.215
7920.6403
5931.4555
4352.5523
3133.7512
2216.6875
1541.6715
1052.4389
699.84024
450.56041
286.49253
196.41753
155.00166
134.51198
123.16033
115.80755
110.17929
106.00025
103.20497
101.36629
100.21876
99.594146
43451.135
42314.479
37855.565
32596.88
27815.77
23570.416
19718.299
16205.863
13048.911
10281.169
7918.9188
5972.2115
4408.1364
3188.7133
2263.4581
1577.7266
1078.2212
717.47099
461.54127
293.1568
199.41263
156.16505
135.01069
123.41616
115.99449
110.31475
106.09604
103.26121
101.39708
100.23794
99.60685
40654.376
39267.811
35374.004
30734.446
26421.825
22551.781
19015.946
15762.416
12803.203
10173.984
7903.263
6001.6336
4457.9254
3241.6842
2310.2995
1614.714
1105.1201
736.01657
473.23886
300.11879
202.64715
157.44115
135.50297
123.64985
116.18361
110.45126
106.19413
103.32119
101.42856
100.25748
99.619842
37855.166
36208.517
32789.301
28769.011
24950.661
21468.906
18255.361
15267.158
12514.721
10035.069
7864.1812
6017.828
4500.8374
3291.9348
2356.7938
1652.4559
1133.1005
755.49044
485.77971
307.85224
206.05329
158.69906
136.09243
123.93199
116.38091
110.58854
106.29677
103.38119
101.46136
100.27762
99.63292
34951.692
33129.329
30145.349
26727.333
23415.2
20332.3
17445.24
14725.945
12186.255
9864.0307
7799.2285
6016.8689
4535.5303
3338.7344
2402.5216
1690.7622
1162.1412
775.99071
499.32259
316.16539
209.84002
160.35832
136.74276
124.24084
116.59111
110.72715
106.40147
103.44553
101.49525
100.29778
99.645947
31948.997
30132.52
27573.639
24705.309
21872.171
19175.131
16605.783
14150.974
11824.563
9664.4025
7713.6451
6006.461
4562.2324
3381.5659
2447.0838
1729.421
1192.151
797.59751
513.91321
324.3943
213.57927
161.58774
137.3164
124.5203
116.78649
110.85924
106.50759
103.50659
101.52943
100.31843
99.658807
29034.39
27344.32
25174.628
22787.335
20380.637
18036.602
15763.392
13559.433
11440.094
9441.9372
7609.2501
5980.8283
4580.4523
3420.0374
2490.1217
1768.1929
1222.9854
820.14981
529.3054
333.19188
217.91724
163.56463
138.25411
124.96614
117.02893
110.99838
106.61644
103.57265
101.56558
100.33852
99.671356
26357.531
24865.429
23045.184
21045.406
18993.343
16954.208
14944.935
12970.302
11045.442
9204.0761
7489.2648
5941.2394
4590.2745
3453.9452
2531.3504
1806.8512
1254.5213
843.62345
545.54071
342.6935
222.27398
165.21124
138.78246
125.2254
117.20973
111.12102
106.71857
103.63184
101.59946
100.35903
99.683394
24022.895
22749.523
21218.135
19521.907
17751.804
15963.626
14178.329
12403.996
10654.684
8959.7474
7358.8236
5891.6217
4591.5294
3483.2177
2570.5746
1845.2065
1286.6336
867.95663
562.55113
352.67871
226.81262
166.61022
139.75799
125.80841
117.45915
111.25704
106.82415
103.69638
101.63628
100.37798
99.694674
22070.106
21001.019
19703.027
18240.594
16686.069
15092.694
13486.648
11879.054
10281.679
8718.4161
7223.7848
5835.2988
4588.1888
3508.3758
2607.7119
1883.0768
1319.1927
893.07873
580.27562
362.89159
232.04469
169.37526
140.87631
126.13872
117.6712
111.37258
106.91387
103.75106
101.66716
100.39717
99.704928
20496.23
19599.934
18489.527
17208.227
15814.828
14363.998
12891.135
11412.926
9939.6675
8489.4462
7090.2477
5775.6044
4579.8418
3529.9009
2642.7824
1920.3179
1352.0687
918.92994
598.76977
373.76239
237.14927
171.2498
141.44338
126.63412
117.83274
111.48769
107.00168
103.8089
101.70129
100.41349
99.713824
19221.276
18477.171
17528.28
16398.729
15134.013
13788.815
12408.982
11021.741
9641.2862
8281.7774
6963.9799
5715.6763
4567.9302
3548.2717
2675.8215
1956.7828
1385.1105
945.43101
618.04793
385.69984
242.49892
173.06746
142.76522
127.31599
118.13966
111.60146
107.07361
103.85652
101.72775
100.42881
99.721054
18157.035
17547.952
16744.457
15754.406
14607.243
13351.606
12039.953
10713.186
9395.7869
8102.8232
6849.922
5658.3979
4554.434
3563.9016
2706.7488
1992.2528
1418.1145
972.44037
638.02167
398.43617
248.28689
175.68005
143.99149
127.6092
118.23514
111.66605
107.12464
103.89534
101.75509
100.44015
99.726165
17218.79
16731.611
16061.242
15203.329
14172.504
13006.432
11757.383
10476.814
9202.136
7955.1826
6750.9359
5605.7285
4540.2586
3577.0632
2735.4642
2026.4361
1450.7795
999.77383
658.59575
411.84487
254.46248
177.60131
144.58443
128.11416
118.40354
111.75466
107.17267
103.93196
101.7769
100.44906
99.728812
16305.039
15932.822
15390.179
14663.296
13754.163
12688.337
11512.568
10282.11
9044.5436
7832.2169
6664.7528
5556.956
4525.0523
3587.5129
2761.4156
2058.859
1482.7984
1027.2426
679.73743
426.13049
261.56957
180.20237
146.076
129.08337
118.65102
111.75836
107.17724
103.94245
101.792
100.45688
99.728309
15332.457
15065.393
14646.512
14052.661
13274.696
12326.422
11244.828
10081.775
8890.7626
7714.6426
6580.7817
5506.1006
4504.5141
3590.8137
2782.5865
2088.5385
1513.6574
1054.5861
701.33535
441.19876
269.23439
183.66136
147.73964
129.33994
118.6203
111.7415
107.17384
103.94162
101.80622
100.45729
99.724442
14286.612
14095.568
13778.358
13308.263
12666.629
11852.218
10887.886
9818.2602
8697.5334
7574.0113
6482.4479
5444.6329
4475.3881
3588.07
2798.7951
2114.7817
1542.7504
1081.4948
723.29423
457.04997
277.63864
186.7094
148.4776
129.44504
118.59283
111.70454
107.14945
103.93025
101.80666
100.45495
99.71642
13189.546
13047.648
12802.193
12427.707
11904.28
11223.544
10394.759
9447.438
8426.9304
7381.5372
6350.5001
5361.1039
4431.6029
3576.3291
2805.9086
2135.6981
1569.2024
1107.545
745.51444
473.77701
287.18963
189.81743
149.4005
129.78528
118.5567
111.56138
107.09525
103.90391
101.80378
100.44799
99.704415
12059.271
11945.291
11749.947
11450.088
11026.073
10465.831
9770.5377
8958.0075
8060.4571
7118.0524
6169.2407
5244.2573
4364.823
3547.3973
2803.7389
2150.5069
1592.3364
1132.3505
767.74946
491.24642
297.7977
193.46144
150.23742
129.87087
118.40173
111.47318
107.0601
103.86986
101.7949
100.43571
99.687563
10952.005
10850.377
10686.561
10441.291
10097.31
9641.4944
9069.3024
8388.426
7619.7173
6792.8995
5940.8684
5093.4091
4274.3179
3502.4705
2793.6847
2159.298
1611.7478
1155.4282
789.57119
508.97783
308.91538
196.96405
150.66507
129.80763
118.29333
111.3753
106.93557
103.80058
101.76932
100.40942
99.666294
9936.3764
9839.1367
9694.5239
9487.5021
9203.9353
8831.5265
8362.9029
7798.9144
7149.9301
6435.9465
5683.1888
4918.1337
4164.6497
3442.9543
2770.2003
2159.9259
1626.9697
1176.4575
810.62021
526.51648
320.04502
200.21952
150.79379
129.60602
118.18371
111.17336
106.84226
103.7604
101.74878
100.38784
99.639912
9076.1555
8979.7191
8845.9432
8663.7437
8422.0065
8110.1268
7720.0286
7248.332
6698.9245
6084.1999
5422.5335
4735.9546
4046.8077
3375.611
2740.5272
2157.4963
1639.196
1195.7355
830.90146
543.77209
331.13213
203.02135
150.84122
129.46312
118.1125
111.13812
106.81413
103.71439
101.70164
100.34574
99.608691
8408.8084
8312.6874
8185.1206
8018.2548
7803.3725
7531.6429
7195.4181
6790.0054
6315.6946
5778.6258
5191.2663
4571.0332
3937.8411
3311.7106
2711.3401
2153.3755
1650.3302
1214.325
850.97473
561.20489
342.81827
206.63986
151.00447
129.44553
118.11427
111.15013
106.71093
103.65687
101.66001
100.32016
99.572568
7925.3339
7834.3117
7715.0952
7561.6937
7366.6484
7122.3375
6821.9487
6460.5111
6036.2909
5552.4328
5017.6979
4446.1306
3855.3616
3264.3299
2691.357
2153.5939
1663.1396
1233.788
871.82529
579.67382
356.18722
212.11681
151.7104
129.63415
118.23831
111.19327
106.67064
103.64353
101.61592
100.27218
99.531447
7536.9761
7457.9497
7353.8613
7219.3481
7047.3362
6830.2948
6561.226
6234.7163
5848.1371
5402.8524
4905.4153
4367.8605
3806.4765
3239.7202
2686.0601
2159.5293
1679.8617
1255.4111
894.15624
599.60725
371.50799
219.479
153.71907
130.55529
118.6368
111.35842
106.6829
103.61844
101.55796
100.24229
99.485938
7151.8235
7088.7473
7004.083
6892.777
6748.3906
6563.6593
6330.8843
6043.0564
5695.6496
5288.184
4825.3254
4317.2894
3779.4559
3230.6048
2689.705
2175.1758
1701.1268
1279.2397
917.7747
620.60684
388.09562
228.0664
156.04848
131.62549
119.13841
111.63392
106.70287
103.6122
101.53526
100.19554
99.435407
6727.0389
6680.3892
6615.6462
6527.6992
6410.5148
6257.3417
6060.9804
5814.3573
5511.4586
5148.959
4728.2152
4256.6079
3747.4463
3218.5653
2692.4036
2190.8704
1723.2185
1303.6761
941.6258
641.81039
405.15325
237.52151
158.24251
132.21024
119.63949
111.90963
106.76031