/*--------------------------------*- C++ -*----------------------------------*\
| =========                 |                                                 |
| \\      /  F ield         | OpenFOAM: The Open Source CFD Toolbox           |
|  \\    /   O peration     | Version:  2406                                  |
|   \\  /    A nd           | Website:  www.openfoam.com                      |
|    \\/     M anipulation  |                                                 |
\*---------------------------------------------------------------------------*/
FoamFile
{
    version     2.0;
    format      ascii;
    arch        "LSB;label=32;scalar=64";
    class       volScalarField;
    location    "0.09";
    object      rho;
}
// * * * * * * * * * * * * * * * * * * * * * * * * * * * * * * * * * * * * * //

dimensions      [1 -3 0 0 0 0 0];

internalField   nonuniform List<scalar> 
8260
(
1.2000041
1.1990707
1.1985262
1.197846
1.1972067
1.196724
1.1964328
1.1963348
1.1964219
1.1966768
1.1971087
1.1976943
1.1984003
1.1991862
1.1999907
1.2008089
1.2011858
1.2012544
1.201353
1.2015111
1.201669
1.2018051
1.2019243
1.2020271
1.2021161
1.2021916
1.2022567
1.2023096
1.2023537
1.202381
1.2024034
1.2015829
1.2007881
1.2000029
1.1991455
1.1983851
1.197792
1.1973856
1.1971777
1.1971512
1.1973001
1.197632
1.1981303
1.1987562
1.1994802
1.2001933
1.2009322
1.2012359
1.2013041
1.2014025
1.2015534
1.2017032
1.2018324
1.2019461
1.2020446
1.2021303
1.2022031
1.2022663
1.2023176
1.2023606
1.202387
1.202409
1.2025397
1.2018339
1.2009936
1.2000835
1.1992757
1.1986242
1.1981463
1.1978634
1.1977634
1.1978194
1.198075
1.1985047
1.1990713
1.1997559
1.2004059
1.201085
1.2013043
1.201371
1.2014643
1.2016039
1.2017436
1.2018646
1.2019717
1.2020652
1.2021468
1.2022165
1.2022772
1.2023267
1.2023684
1.2023939
1.2024152
1.2032675
1.2026242
1.2018094
1.200903
1.2000776
1.1993894
1.1988574
1.1985038
1.1983309
1.1983231
1.1985117
1.1988784
1.1993925
1.2000409
1.2006371
1.2012488
1.2013896
1.2014481
1.2015352
1.2016613
1.2017893
1.2019011
1.2020008
1.2020884
1.2021655
1.2022317
1.2022897
1.2023371
1.2023772
1.2024017
1.2024224
1.2038578
1.2032757
1.2025187
1.2016521
1.2008396
1.2001404
1.199576
1.1991692
1.1989334
1.1988688
1.1989935
1.1992977
1.1997585
1.200362
1.2008996
1.2014182
1.2014935
1.2015371
1.2016165
1.2017265
1.2018413
1.2019426
1.2020339
1.202115
1.2021868
1.202249
1.2023038
1.202349
1.2023873
1.2024106
1.2024305
1.2043011
1.2037739
1.2030932
1.2022992
1.2015333
1.2008538
1.2002845
1.1998498
1.1995699
1.1994562
1.1995232
1.1997679
1.2001764
1.2007261
1.2011957
1.2015918
1.2016171
1.2016401
1.2017093
1.2018006
1.2019004
1.2019899
1.2020715
1.2021453
1.202211
1.2022687
1.20232
1.2023625
1.2023987
1.2024207
1.2024397
1.2045997
1.2041254
1.2035253
1.2028287
1.2021396
1.2015092
1.200963
1.2005266
1.2002245
1.2000754
1.2000951
1.2002872
1.2006479
1.2011338
1.2015212
1.2017721
1.2017582
1.2017602
1.2018148
1.2018847
1.2019672
1.2020436
1.2021142
1.2021798
1.2022386
1.2022911
1.2023383
1.2023778
1.2024117
1.2024322
1.2024502
1.204776
1.2043593
1.2038519
1.2032619
1.2026652
1.2021051
1.2016057
1.2011918
1.2008896
1.2007218
1.2007075
1.2008569
1.2011768
1.2015818
1.2018662
1.2019689
1.2019144
1.2018999
1.2019341
1.2019797
1.2020428
1.2021044
1.2021626
1.2022191
1.20227
1.2023166
1.2023591
1.2023953
1.2024265
1.2024453
1.2024621
1.2048888
1.2045157
1.2040973
1.203618
1.203125
1.2026509
1.202217
1.2018462
1.2015639
1.2013947
1.2013603
1.2014788
1.2017626
1.2020595
1.2022213
1.2021875
1.2020889
1.2020603
1.202068
1.2020869
1.2021281
1.2021731
1.2022172
1.2022636
1.2023056
1.2023456
1.2023828
1.2024151
1.2024433
1.2024603
1.2024757
1.2049649
1.2046638
1.2043132
1.2039352
1.203551
1.2031721
1.202815
1.2025009
1.2022535
1.2020971
1.2020559
1.2021528
1.2023919
1.2025664
1.2025753
1.2024173
1.2022889
1.202241
1.2022168
1.2022077
1.2022244
1.2022503
1.2022791
1.2023139
1.202346
1.2023786
1.2024099
1.2024376
1.2024624
1.2024774
1.2024911
1.2050141
1.2048665
1.20463
1.2043445
1.2040349
1.2037281
1.2034383
1.2031806
1.2029739
1.2028404
1.2028056
1.2028865
1.2030544
1.2030791
1.2028958
1.2026583
1.2025199
1.2024389
1.2023801
1.2023432
1.2023325
1.2023369
1.2023494
1.2023704
1.2023917
1.2024159
1.2024409
1.2024633
1.2024842
1.202497
1.2025088
1.2052031
1.2051267
1.2049911
1.2047845
1.2045547
1.2043265
1.2041093
1.2039129
1.2037525
1.2036506
1.2036315
1.20368
1.203693
1.2035098
1.2031803
1.2029298
1.2027713
1.2026482
1.2025568
1.2024913
1.2024525
1.2024347
1.202429
1.2024342
1.2024436
1.2024583
1.2024763
1.2024928
1.202509
1.2025193
1.2025289
1.205626
1.2056994
1.2056484
1.2054754
1.2052799
1.2050957
1.2049272
1.2047748
1.2046439
1.2045458
1.2044792
1.2043892
1.2041624
1.2038022
1.2034748
1.2032279
1.2030274
1.2028689
1.2027443
1.2026497
1.2025838
1.2025437
1.2025187
1.2025063
1.2025022
1.2025066
1.2025165
1.2025264
1.2025372
1.2025444
1.2025518
1.2064751
1.2063733
1.206231
1.2060551
1.2058912
1.2057677
1.2056695
1.2055635
1.2054303
1.2052631
1.2050468
1.2047598
1.2044142
1.2040787
1.2037838
1.2035191
1.2032904
1.2030963
1.2029394
1.2028171
1.2027253
1.2026617
1.2026182
1.2025876
1.2025685
1.202561
1.2025618
1.2025643
1.2025691
1.2025727
1.2025777
1.2067718
1.2068352
1.2068723
1.2068816
1.2068013
1.2066094
1.2063846
1.2061563
1.2059012
1.2056109
1.2052937
1.2049637
1.2046456
1.2043435
1.20406
1.2037936
1.2035465
1.2033284
1.2031434
1.2029921
1.2028736
1.2027882
1.2027256
1.202678
1.2026428
1.2026217
1.2026123
1.2026067
1.2026049
1.2026042
1.2026069
1.2067641
1.2066917
1.2065787
1.2064367
1.2063303
1.2062759
1.2062326
1.2061854
1.206058
1.2058203
1.2055337
1.2052264
1.2049012
1.204581
1.2042914
1.2040285
1.2037833
1.2035552
1.2033513
1.2031751
1.2030309
1.2029213
1.2028393
1.2027752
1.2027242
1.2026891
1.2026678
1.2026536
1.2026448
1.2026392
1.2026396
1.2067515
1.2066952
1.2066211
1.2065316
1.2064353
1.206324
1.2061684
1.20596
1.2057773
1.2056624
1.2055656
1.2054114
1.2051342
1.2048142
1.2045129
1.2042338
1.203986
1.20376
1.2035527
1.2033633
1.2031954
1.2030617
1.202958
1.2028773
1.2028115
1.2027626
1.2027288
1.202705
1.2026891
1.2026783
1.202676
1.2064794
1.2064305
1.2063707
1.206304
1.2062294
1.2061453
1.2060532
1.205953
1.2058347
1.2056834
1.2054833
1.2053161
1.2051987
1.2049907
1.2047256
1.2044406
1.2041724
1.2039367
1.2037309
1.2035423
1.2033641
1.2032101
1.203082
1.2029829
1.202904
1.2028422
1.2027958
1.2027615
1.202738
1.2027217
1.2027165
1.2062812
1.2062439
1.2061974
1.206144
1.2060823
1.2060097
1.205924
1.2058243
1.2057145
1.2056018
1.2054779
1.2052959
1.2050835
1.2049709
1.2048485
1.2046212
1.2043557
1.2041049
1.203887
1.2037
1.2035229
1.2033604
1.2032141
1.2030943
1.2030012
1.2029274
1.2028692
1.2028239
1.2027918
1.2027701
1.2027615
1.2060162
1.2059849
1.2059465
1.2059033
1.2058546
1.2057996
1.2057375
1.2056674
1.2055863
1.205489
1.2053761
1.205263
1.2051485
1.2049758
1.2047933
1.204677
1.2044889
1.2042536
1.2040348
1.203839
1.2036613
1.2035
1.2033482
1.2032134
1.2031039
1.2030178
1.2029482
1.2028922
1.202851
1.2028235
1.2028113
1.2057911
1.2057676
1.2057384
1.2057054
1.2056676
1.2056238
1.2055727
1.2055128
1.2054436
1.2053653
1.2052768
1.2051755
1.2050704
1.2049646
1.2048209
1.2046513
1.204531
1.2043536
1.204152
1.2039597
1.2037801
1.2036201
1.2034713
1.2033342
1.2032118
1.2031117
1.2030313
1.2029656
1.2029156
1.2028822
1.2028663
1.2055458
1.2055265
1.2055029
1.2054764
1.2054467
1.2054131
1.205375
1.2053318
1.2052828
1.2052261
1.2051599
1.2050817
1.2049875
1.204881
1.204781
1.2046679
1.2045257
1.2044092
1.204245
1.2040598
1.203885
1.2037246
1.2035743
1.2034436
1.2033193
1.2032073
1.203117
1.2030432
1.2029854
1.2029462
1.2029267
1.2053336
1.2053196
1.2053023
1.2052829
1.2052608
1.2052352
1.2052052
1.2051701
1.2051289
1.205081
1.2050259
1.2049633
1.2048922
1.2048084
1.2047135
1.2046236
1.2045285
1.2044199
1.2043258
1.2041594
1.203982
1.2038223
1.203665
1.2035351
1.2034193
1.2033031
1.2032045
1.203124
1.2030599
1.2030154
1.2029924
1.2051105
1.2050989
1.2050849
1.2050692
1.2050517
1.2050319
1.2050094
1.204984
1.2049553
1.2049226
1.204885
1.2048415
1.2047918
1.2047346
1.2046647
1.2045782
1.2044939
1.2044061
1.2043027
1.2042132
1.2040669
1.2039097
1.2037554
1.2036231
1.2035113
1.2033967
1.2032942
1.2032073
1.2031383
1.2030893
1.2030631
1.2049349
1.2049273
1.204918
1.2049076
1.2048957
1.2048819
1.2048655
1.2048462
1.2048234
1.2047966
1.2047649
1.2047276
1.2046837
1.2046337
1.2045789
1.2045175
1.204443
1.2043641
1.2042746
1.2041692
1.2041023
1.2039805
1.2038372
1.2037162
1.2035978
1.2034853
1.2033823
1.2032926
1.2032194
1.2031669
1.2031381
1.2047353
1.2047285
1.2047203
1.2047111
1.2047008
1.2046891
1.2046757
1.2046605
1.2046433
1.204624
1.2046025
1.2045786
1.2045522
1.2045222
1.2044864
1.2044432
1.2043891
1.2043163
1.2042361
1.204174
1.2041051
1.2040095
1.2038923
1.203788
1.2036714
1.2035651
1.2034648
1.2033766
1.2033014
1.2032471
1.2032164
1.2045999
1.2045953
1.2045898
1.2045837
1.2045768
1.204569
1.2045601
1.2045498
1.204538
1.2045243
1.2045084
1.2044895
1.2044669
1.2044393
1.2044061
1.2043672
1.2043254
1.204283
1.2042322
1.2041658
1.2040872
1.2039853
1.2039191
1.2038293
1.2037309
1.2036359
1.2035415
1.203457
1.2033836
1.2033281
1.2032965
1.2044528
1.2044495
1.2044457
1.2044416
1.2044368
1.2044314
1.2044251
1.2044177
1.204409
1.2043989
1.2043871
1.2043734
1.2043576
1.2043396
1.2043191
1.2042945
1.2042636
1.2042257
1.2041841
1.204128
1.2040711
1.2040427
1.2039751
1.2038699
1.2037844
1.2037008
1.2036152
1.2035343
1.203464
1.2034084
1.2033762
1.2043711
1.2043689
1.2043662
1.2043631
1.2043596
1.2043555
1.2043507
1.2043451
1.2043384
1.2043304
1.2043207
1.2043089
1.2042946
1.2042773
1.2042569
1.2042329
1.2042058
1.2041742
1.2041374
1.2041022
1.2040582
1.2040171
1.2039842
1.2039123
1.2038317
1.2037538
1.203679
1.2036043
1.2035376
1.2034842
1.2034517
1.2042734
1.2042707
1.2042677
1.2042644
1.2042606
1.2042563
1.2042514
1.2042457
1.2042394
1.2042321
1.204224
1.2042149
1.2042044
1.204192
1.2041783
1.2041627
1.2041452
1.2041253
1.2041021
1.2040736
1.2040386
1.2039874
1.203938
1.2039084
1.2038586
1.2037951
1.2037287
1.2036632
1.2036029
1.2035532
1.2035222
1.2041576
1.2041568
1.2041559
1.2041548
1.2041536
1.2041522
1.2041505
1.2041485
1.2041462
1.2041433
1.2041398
1.2041356
1.2041305
1.2041246
1.204117
1.2041082
1.2040968
1.2040823
1.2040647
1.2040435
1.2040183
1.2039902
1.2039556
1.2039105
1.2038611
1.203809
1.2037525
1.2036945
1.2036392
1.2035927
1.2035642
1.1885712
1.1889226
1.1893348
1.1896993
1.1899858
1.1902567
1.1906027
1.1910483
1.1915689
1.1922092
1.1929584
1.1938016
1.1947266
1.1957099
1.1967285
1.1978345
1.1988142
1.199804
1.2002748
1.200546
1.2007872
1.2010469
1.2012938
1.2015053
1.2016841
1.2018308
1.2019509
1.2020462
1.2021215
1.2021703
1.2022038
1.1894375
1.1897247
1.189872
1.1900116
1.1901766
1.1904143
1.1907724
1.1912527
1.1918336
1.1925154
1.193287
1.194138
1.1950579
1.1960197
1.1970106
1.1980688
1.1990261
1.1999108
1.2002863
1.2005708
1.2008164
1.201078
1.2013207
1.2015273
1.201702
1.2018455
1.2019632
1.2020567
1.2021306
1.2021786
1.2022123
1.1892803
1.189385
1.1894639
1.1896331
1.1898964
1.1902492
1.1907078
1.1912797
1.1919274
1.1926608
1.1934709
1.194347
1.1952791
1.1962383
1.1972259
1.1982494
1.1992136
1.2000059
1.2003243
1.2006061
1.2008528
1.2011127
1.2013496
1.2015509
1.2017211
1.201861
1.2019761
1.2020676
1.2021401
1.2021872
1.2022209
1.1888638
1.188988
1.1891337
1.1893764
1.1897102
1.1901348
1.1906629
1.1912919
1.191994
1.1927726
1.1936168
1.1945158
1.1954601
1.1964212
1.1974192
1.1984115
1.1993756
1.2000952
1.2003743
1.2006422
1.2008896
1.201147
1.2013781
1.2015741
1.20174
1.2018764
1.201989
1.2020785
1.2021496
1.2021958
1.2022294
1.1882558
1.1884505
1.1886833
1.1890239
1.1894609
1.1899872
1.1906041
1.1913025
1.1920648
1.1928891
1.1937654
1.1946849
1.1956391
1.1966016
1.1976121
1.1985827
1.1995208
1.2001738
1.2004224
1.2006788
1.2009278
1.2011816
1.2014067
1.2015975
1.201759
1.201892
1.202002
1.2020895
1.2021592
1.2022044
1.2022375
1.1875181
1.1878132
1.188173
1.1886469
1.1892089
1.1898455
1.1905535
1.1913237
1.1921448
1.1930125
1.1939184
1.1948563
1.1958182
1.1967811
1.197802
1.1987589
1.1996444
1.200238
1.2004674
1.2007162
1.2009667
1.201216
1.2014352
1.2016209
1.201778
1.2019077
1.2020151
1.2021007
1.2021689
1.2022131
1.2022456
1.1866282
1.1870978
1.1876356
1.1882677
1.1889648
1.1897144
1.1905132
1.1913551
1.1922321
1.1931398
1.1940724
1.1950264
1.1959938
1.1969555
1.1979801
1.1989236
1.1997653
1.2002951
1.2005105
1.200755
1.2010063
1.2012505
1.2014637
1.2016442
1.2017971
1.2019234
1.2020282
1.2021119
1.2021787
1.2022219
1.2022536
1.1857481
1.1864147
1.187134
1.1879205
1.1887483
1.1896056
1.190491
1.1914002
1.1923278
1.1932711
1.194227
1.1951944
1.1961647
1.1971262
1.1981455
1.1990756
1.1998934
1.200349
1.2005526
1.2007951
1.2010463
1.2012847
1.2014919
1.2016675
1.2018161
1.2019392
1.2020415
1.2021232
1.2021885
1.2022307
1.2022617
1.1849523
1.1858075
1.1866904
1.1876222
1.1885731
1.1895288
1.1904929
1.1914622
1.1924338
1.1934073
1.1943826
1.1953604
1.1963321
1.1973047
1.1983093
1.199215
1.2000115
1.2004032
1.2005951
1.2008367
1.2010864
1.2013187
1.2015201
1.2016906
1.2018352
1.2019549
1.2020547
1.2021345
1.2021984
1.2022396
1.20227
1.1842887
1.185317
1.1863328
1.1873973
1.1884567
1.1894935
1.1905242
1.1915437
1.1925514
1.193549
1.1945391
1.1955245
1.1964982
1.197485
1.1984673
1.1993488
1.2001148
1.200458
1.2006387
1.2008794
1.2011266
1.2013525
1.2015481
1.2017137
1.2018542
1.2019707
1.202068
1.2021458
1.2022084
1.2022485
1.2022782
1.1837823
1.1849452
1.1861039
1.187272
1.188411
1.1895065
1.1905905
1.1916472
1.1926814
1.1936962
1.1946968
1.1956884
1.19667
1.1976631
1.1986101
1.199477
1.2002063
1.2005132
1.2006835
1.200923
1.2011665
1.201386
1.2015759
1.2017366
1.2018731
1.2019865
1.2020814
1.2021572
1.2022183
1.2022575
1.2022866
1.1835156
1.1847768
1.1860197
1.1872414
1.1884272
1.1895785
1.1906982
1.1917763
1.1928257
1.1938506
1.194858
1.1958563
1.1968467
1.1978115
1.1987346
1.1996021
1.2002902
1.2005677
1.2007293
1.2009672
1.2012063
1.2014193
1.2016034
1.2017594
1.2018919
1.2020022
1.2020947
1.2021686
1.2022283
1.2022664
1.2022949
1.183529
1.1848263
1.1860921
1.1873305
1.1885359
1.1897052
1.1908424
1.1919387
1.192992
1.19402
1.1950299
1.1960305
1.1969927
1.1979285
1.1988628
1.1997153
1.2003695
1.2006211
1.2007762
1.2010118
1.2012456
1.2014521
1.2016307
1.201782
1.2019107
1.2020179
1.2021079
1.20218
1.2022383
1.2022755
1.2023033
1.1838111
1.1850964
1.1863316
1.1875451
1.1887369
1.1898994
1.1910371
1.1921395
1.1931944
1.1942152
1.1952108
1.1961729
1.1971153
1.1980529
1.1989818
1.1998155
1.2004478
1.200674
1.2008242
1.2010565
1.2012846
1.2014846
1.2016577
1.2018044
1.2019293
1.2020335
1.2021212
1.2021914
1.2022484
1.2022845
1.2023117
1.184193
1.1854926
1.1867027
1.1878791
1.1890373
1.1901753
1.1912954
1.1923696
1.1934024
1.1943897
1.1953348
1.1962848
1.1972515
1.1981755
1.1990911
1.1999195
1.2005258
1.2007275
1.2008731
1.201101
1.201323
1.2015167
1.2016844
1.2018266
1.2019477
1.202049
1.2021343
1.2022028
1.2022584
1.2022935
1.2023201
1.1845796
1.185874
1.1870864
1.1882517
1.1893811
1.1904786
1.1915547
1.192559
1.1935223
1.194497
1.1954774
1.1964348
1.1973891
1.198293
1.199196
1.2000249
1.2006014
1.2007819
1.2009225
1.2011452
1.201361
1.2015484
1.2017107
1.2018485
1.2019659
1.2020644
1.2021474
1.2022141
1.2022684
1.2023026
1.2023286
1.185545
1.1865881
1.1876053
1.188645
1.1896935
1.1907211
1.191704
1.1926987
1.1937155
1.1946855
1.1956449
1.1965888
1.1975238
1.1984056
1.1992966
1.2001242
1.2006741
1.2008372
1.2009715
1.2011887
1.2013982
1.2015794
1.2017366
1.2018701
1.201984
1.2020796
1.2021604
1.2022253
1.2022783
1.2023116
1.2023371
1.1872827
1.1880333
1.1887369
1.1895044
1.1903414
1.1912147
1.1920937
1.1930196
1.1939738
1.1948977
1.1958194
1.1967399
1.1976549
1.1985142
1.1993926
1.2002191
1.2007433
1.2008926
1.2010203
1.2012316
1.2014348
1.20161
1.2017621
1.2018913
1.2020018
1.2020946
1.2021732
1.2022365
1.2022883
1.2023206
1.2023456
1.1888518
1.1894493
1.1899502
1.1905041
1.1911404
1.1918397
1.1925803
1.1933959
1.1942622
1.1951217
1.1959973
1.1968892
1.1977825
1.1986196
1.1994839
1.2003106
1.20081
1.2009481
1.201069
1.2012738
1.2014707
1.20164
1.201787
1.2019122
1.2020193
1.2021094
1.2021859
1.2022476
1.2022981
1.2023296
1.202354
1.1905712
1.1909563
1.1912283
1.1915644
1.1919987
1.192514
1.1931068
1.193805
1.1945695
1.1953574
1.1961787
1.197036
1.1979053
1.1987217
1.1995707
1.2003984
1.2008745
1.2010033
1.2011174
1.2013151
1.2015057
1.2016692
1.2018113
1.2019325
1.2020364
1.2021239
1.2021985
1.2022585
1.2023079
1.2023386
1.2023625
1.1924694
1.1926052
1.1926178
1.1927096
1.1929188
1.193231
1.1936818
1.194246
1.1948928
1.1956044
1.1963636
1.1971795
1.198022
1.1988202
1.1996529
1.2004796
1.2009363
1.2010566
1.2011647
1.2013549
1.2015394
1.2016974
1.2018349
1.2019523
1.2020531
1.2021382
1.2022108
1.2022693
1.2023176
1.2023476
1.202371
1.1945488
1.1943967
1.194133
1.1939577
1.1939151
1.1940373
1.1943286
1.1947237
1.1952503
1.1958761
1.1965634
1.1973282
1.1981384
1.1989186
1.1997313
1.2005509
1.2009929
1.2011044
1.2012096
1.2013929
1.2015715
1.2017244
1.2018576
1.2019715
1.2020695
1.2021522
1.2022229
1.2022801
1.2023273
1.2023566
1.2023795
1.1968969
1.1964654
1.1959487
1.1954852
1.1951823
1.1950705
1.1951289
1.195343
1.1957116
1.1962225
1.1968181
1.197514
1.1982772
1.1990313
1.1998134
1.2006136
1.2010407
1.2011445
1.2012528
1.20143
1.201603
1.201751
1.20188
1.2019905
1.2020857
1.2021661
1.202235
1.2022908
1.202337
1.2023656
1.2023884
1.1992911
1.1987618
1.1981909
1.1975207
1.1969129
1.1964761
1.1962399
1.196209
1.1963711
1.1966963
1.1971635
1.1977636
1.1984588
1.1991758
1.1999156
1.2006862
1.20109
1.2011885
1.2013004
1.20147
1.2016363
1.2017789
1.2019032
1.20201
1.2021021
1.2021801
1.2022471
1.2023014
1.2023465
1.2023745
1.2023973
1.1890327
1.1893938
1.1897911
1.1901519
1.1904651
1.1907569
1.1910795
1.19148
1.1919441
1.1925228
1.1932098
1.1939941
1.1948631
1.1957957
1.1967589
1.1978008
1.1987242
1.1996619
1.2002147
1.2004976
1.2007492
1.201014
1.2012666
1.2014831
1.2016662
1.2018162
1.2019389
1.2020361
1.2021127
1.2021625
1.2021968
1.1892309
1.1896218
1.190012
1.1903478
1.1906414
1.1909266
1.1912377
1.1915852
1.1920178
1.1925644
1.1932211
1.1939797
1.1948283
1.1957481
1.1967064
1.1977423
1.1986922
1.1996058
1.2002033
1.2004813
1.2007297
1.2009947
1.2012497
1.2014688
1.2016544
1.2018065
1.2019307
1.2020291
1.2021067
1.2021571
1.2021913
1.1892736
1.1896523
1.190045
1.1904089
1.190725
1.1910222
1.1913357
1.1916787
1.1921025
1.1926287
1.1932615
1.1939964
1.1948235
1.1957268
1.1966761
1.1976986
1.198665
1.1995742
1.2001889
1.2004719
1.2007164
1.2009799
1.2012359
1.2014566
1.2016439
1.2017975
1.2019229
1.2020223
1.2021005
1.2021515
1.202183
1.1893208
1.1896714
1.1900839
1.1904686
1.1908099
1.1911247
1.1914463
1.1917971
1.1922156
1.1927234
1.193332
1.1940412
1.1948437
1.1957256
1.1966602
1.1976608
1.1986302
1.1995416
1.2001676
1.2004592
1.2007019
1.2009643
1.2012213
1.2014437
1.2016328
1.2017879
1.2019145
1.2020149
1.2020939
1.2021456
1.2021737
1.1893972
1.1897228
1.1901494
1.1905465
1.1909016
1.1912299
1.19156
1.1919171
1.1923309
1.1928232
1.1934098
1.1940943
1.194872
1.1957313
1.1966487
1.197623
1.1985908
1.1995027
1.2001413
1.200444
1.2006853
1.2009467
1.2012051
1.2014294
1.2016205
1.2017774
1.2019054
1.2020069
1.2020868
1.2021391
1.2021655
1.1894849
1.189785
1.1902107
1.1906181
1.1909846
1.1913247
1.191664
1.1920266
1.1924376
1.1929183
1.1934865
1.1941486
1.1949028
1.1957395
1.1966386
1.1975849
1.1985479
1.1994628
1.2001119
1.2004275
1.2006677
1.2009278
1.2011876
1.201414
1.2016072
1.2017661
1.2018955
1.2019983
1.2020792
1.2021322
1.2021596
1.189571
1.1898431
1.1902594
1.1906746
1.1910534
1.1914064
1.191756
1.1921251
1.1925358
1.1930086
1.1935618
1.194204
1.1949361
1.1957506
1.1966305
1.1975488
1.1985072
1.1994242
1.2000841
1.2004101
1.2006502
1.2009084
1.2011693
1.2013977
1.2015932
1.2017541
1.2018851
1.2019892
1.202071
1.2021249
1.2021541
1.1896548
1.1898991
1.1902999
1.1907189
1.1911096
1.191476
1.1918372
1.1922142
1.1926271
1.1930952
1.1936364
1.1942614
1.1949728
1.1957655
1.1966256
1.1975198
1.198472
1.1993823
1.2000604
1.200393
1.200633
1.2008887
1.2011505
1.2013808
1.2015785
1.2017414
1.2018741
1.2019795
1.2020623
1.202117
1.2021451
1.1897323
1.1899555
1.1903382
1.1907571
1.1911573
1.1915364
1.1919096
1.1922956
1.1927126
1.1931787
1.193711
1.194321
1.1950134
1.195785
1.1966248
1.1975007
1.1984351
1.1993328
1.2000367
1.2003772
1.2006164
1.2008688
1.2011313
1.2013633
1.2015632
1.2017282
1.2018624
1.2019693
1.2020532
1.2021087
1.2021336
1.1898067
1.1900111
1.1903739
1.1907895
1.1911974
1.1915886
1.1919742
1.1923703
1.1927933
1.1932598
1.1937858
1.1943832
1.1950582
1.1958095
1.1966288
1.1974879
1.1983956
1.1992841
1.2000101
1.2003623
1.2006004
1.2008489
1.2011115
1.2013452
1.2015472
1.2017142
1.2018502
1.2019584
1.2020434
1.2020999
1.2021232
1.1898738
1.1900695
1.1904115
1.19082
1.1912329
1.1916351
1.192033
1.1924399
1.1928705
1.1933395
1.1938616
1.1944486
1.1951077
1.1958395
1.196638
1.1974798
1.1983662
1.1992409
1.1999775
1.2003483
1.2005852
1.2008289
1.2010914
1.2013264
1.2015305
1.2016996
1.2018372
1.201947
1.2020331
1.2020905
1.202114
1.1899231
1.1901163
1.190442
1.1908444
1.1912632
1.191677
1.192088
1.1925069
1.1929465
1.1934197
1.1939397
1.1945182
1.1951629
1.1958758
1.1966532
1.1974766
1.1983433
1.1992022
1.1999441
1.2003358
1.2005711
1.2008091
1.201071
1.2013071
1.2015132
1.2016843
1.2018236
1.2019348
1.2020221
1.2020805
1.2021051
1.1899757
1.1901616
1.1904636
1.1908635
1.1912903
1.1917169
1.1921424
1.1925746
1.1930243
1.1935029
1.1940223
1.1945936
1.1952249
1.1959194
1.1966755
1.197479
1.1983249
1.1991609
1.1999079
1.200327
1.2005586
1.2007898
1.2010504
1.2012874
1.2014952
1.2016683
1.2018093
1.201922
1.2020105
1.2020699
1.2020956
1.1900093
1.1902071
1.1905128
1.1909029
1.1913285
1.1917645
1.1922032
1.1926484
1.1931082
1.1935926
1.194112
1.1946768
1.1952951
1.1959714
1.1967057
1.1974878
1.198311
1.1991237
1.1998683
1.200319
1.2005477
1.2007712
1.20103
1.2012673
1.2014766
1.2016516
1.2017943
1.2019086
1.2019982
1.2020586
1.2020853
1.1900543
1.1902678
1.1905666
1.190937
1.1913738
1.1918244
1.1922771
1.1927347
1.1932041
1.1936936
1.1942125
1.1947705
1.1953756
1.1960332
1.1967449
1.1975041
1.1983027
1.1990936
1.1998309
1.20031
1.2005385
1.2007537
1.2010097
1.201247
1.2014575
1.2016342
1.2017786
1.2018944
1.2019852
1.2020467
1.2020742
1.1901222
1.1903351
1.1906372
1.1910189
1.191456
1.1919129
1.1923755
1.1928427
1.1933192
1.1938117
1.1943284
1.1948779
1.1954687
1.1961066
1.1967945
1.1975287
1.1983005
1.1990695
1.1997955
1.2003017
1.2005308
1.2007375
1.2009901
1.2012267
1.2014381
1.2016162
1.2017623
1.2018795
1.2019716
1.2020341
1.2020622
1.1902399
1.190461
1.1907746
1.1911632
1.1915948
1.1920495
1.1925141
1.1929845
1.1934627
1.1939538
1.1944648
1.1950033
1.1955773
1.1961935
1.1968556
1.1975625
1.1983038
1.1990475
1.1997658
1.2002954
1.2005254
1.2007231
1.2009711
1.2012067
1.2014183
1.2015977
1.2017452
1.2018639
1.2019572
1.2020208
1.2020495
1.1904602
1.1906855
1.1909999
1.1913827
1.1918029
1.1922481
1.1927063
1.1931717
1.1936442
1.1941274
1.1946271
1.1951503
1.1957042
1.1962959
1.1969299
1.1976062
1.1983128
1.1990284
1.1997562
1.2002951
1.200522
1.200711
1.2009533
1.201187
1.2013985
1.2015787
1.2017275
1.2018476
1.2019421
1.2020067
1.2020361
1.1908255
1.1910391
1.1913335
1.1917005
1.1921005
1.1925256
1.192966
1.1934153
1.1938722
1.194339
1.1948206
1.1953227
1.1958521
1.1964157
1.1970186
1.1976617
1.1983344
1.1990236
1.1997381
1.20029
1.2005241
1.2007014
1.2009365
1.201168
1.2013786
1.2015593
1.2017092
1.2018306
1.2019263
1.2019919
1.202022
1.1913017
1.1915201
1.1918123
1.1921397
1.1925016
1.192892
1.1933009
1.1937216
1.1941518
1.1945929
1.1950483
1.1955229
1.1960229
1.1965546
1.1971232
1.197731
1.1983709
1.1990307
1.1997119
1.2002795
1.2005301
1.2006949
1.2009217
1.20115
1.2013592
1.2015397
1.2016904
1.201813
1.2019097
1.2019764
1.2020072
1.191907
1.1921161
1.192372
1.1926601
1.1929823
1.1933325
1.1937022
1.1940856
1.1944807
1.194888
1.1953101
1.1957512
1.1962167
1.1967127
1.1972442
1.1978144
1.1984196
1.1990487
1.1996974
1.2002738
1.2005395
1.2006919
1.2009087
1.2011328
1.2013399
1.2015199
1.201671
1.2017947
1.2018925
1.2019601
1.2019915
1.1925772
1.1927545
1.1929755
1.1932282
1.1935118
1.1938212
1.1941498
1.1944929
1.1948488
1.1952178
1.1956019
1.196005
1.1964321
1.196889
1.1973809
1.1979115
1.1984795
1.1990766
1.1996983
1.2002682
1.2005492
1.2006932
1.2008978
1.201117
1.2013219
1.2015001
1.2016515
1.2017759
1.2018746
1.2019431
1.2019751
1.193262
1.1934101
1.1935983
1.1938154
1.1940609
1.194331
1.1946201
1.194924
1.1952408
1.1955707
1.1959153
1.1962784
1.1966651
1.197081
1.1975318
1.1980212
1.1985501
1.1991127
1.1997023
1.2002465
1.20056
1.2007066
1.2008927
1.2011042
1.2013044
1.2014808
1.2016317
1.2017566
1.2018561
1.2019253
1.2019579
1.1939227
1.1940428
1.1942005
1.1943852
1.1945966
1.1948322
1.195087
1.1953563
1.1956378
1.1959313
1.1962384
1.1965627
1.1969093
1.1972844
1.1976936
1.1981417
1.1986306
1.199156
1.1997065
1.2002309
1.2005843
1.2007224
1.2008855
1.2010902
1.2012882
1.2014616
1.201612
1.2017369
1.2018369
1.2019068
1.2019399
1.1945437
1.194639
1.1947681
1.194922
1.1951016
1.1953056
1.1955297
1.1957693
1.196021
1.1962834
1.1965576
1.1968469
1.1971566
1.1974931
1.1978625
1.1982704
1.1987195
1.199207
1.1997213
1.2002415
1.2006117
1.2007328
1.2008834
1.2010841
1.2012742
1.201444
1.2015925
1.2017171
1.2018174
1.2018877
1.2019212
1.1951192
1.1951914
1.1952929
1.195417
1.1955651
1.1957379
1.1959331
1.1961464
1.1963734
1.1966111
1.1968589
1.1971195
1.1973978
1.1977002
1.1980335
1.1984038
1.1988152
1.1992667
1.1997507
1.2002551
1.2006293
1.2007528
1.2008954
1.2010793
1.2012587
1.2014261
1.2015731
1.2016971
1.2017972
1.201868
1.2019017
1.1956291
1.1956844
1.1957623
1.1958604
1.1959801
1.1961237
1.1962913
1.1964803
1.1966857
1.1969034
1.1971312
1.1973701
1.1976239
1.1978985
1.198201
1.1985382
1.1989151
1.199333
1.1997869
1.2002672
1.2006515
1.2007764
1.2009011
1.2010744
1.2012487
1.2014099
1.2015546
1.2016774
1.201777
1.2018478
1.2018816
1.1960023
1.1960625
1.1961453
1.1962355
1.1963347
1.1964551
1.1965998
1.196767
1.1969533
1.1971546
1.1973675
1.1975911
1.1978276
1.1980817
1.19836
1.1986695
1.1990163
1.1994029
1.199827
1.2002801
1.2006695
1.2007985
1.2009097
1.2010817
1.2012448
1.2013959
1.2015364
1.2016575
1.2017563
1.2018272
1.201861
1.19634
1.1963655
1.1964109
1.1964832
1.1965837
1.1967051
1.1968414
1.1969932
1.1971658
1.1973566
1.1975612
1.1977769
1.1980038
1.1982451
1.1985063
1.1987945
1.1991161
1.1994751
1.1998716
1.2002997
1.2006858
1.2008355
1.200938
1.2010854
1.2012319
1.2013784
1.2015194
1.2016384
1.2017358
1.2018062
1.20184
1.1966111
1.1966412
1.1966807
1.1967306
1.1967964
1.1968846
1.1970037
1.1971534
1.1973239
1.1975108
1.1977131
1.1979273
1.1981514
1.1983869
1.198638
1.1989111
1.1992128
1.1995484
1.1999197
1.2003232
1.2007108
1.200879
1.200952
1.2010824
1.2012327
1.2013698
1.2015053
1.20162
1.2017153
1.201785
1.2018187
1.1967734
1.1968038
1.1968451
1.196898
1.196965
1.1970495
1.1971561
1.1972882
1.1974468
1.197631
1.1978345
1.1980506
1.1982759
1.1985101
1.1987562
1.1990193
1.1993058
1.1996219
1.1999706
1.2003526
1.2007316
1.2009123
1.200969
1.2010939
1.2012389
1.2013658
1.201491
1.2016018
1.2016949
1.2017637
1.2017971
1.1969065
1.196936
1.196974
1.1970226
1.1970862
1.1971691
1.1972752
1.197407
1.1975651
1.1977464
1.1979466
1.1981618
1.1983876
1.1986217
1.1988648
1.1991207
1.1993954
1.1996949
1.2000236
1.2003829
1.20075
1.2009532
1.2010063
1.2011127
1.2012326
1.2013586
1.2014789
1.2015863
1.2016758
1.2017426
1.2017756
1.1970621
1.1970917
1.1971289
1.1971759
1.1972371
1.1973165
1.1974175
1.1975426
1.1976889
1.1978596
1.1980569
1.1982708
1.1984957
1.1987285
1.1989687
1.1992184
1.1994827
1.1997674
1.2000779
1.200417
1.2007741
1.2009984
1.2010441
1.2011233
1.2012386
1.2013619
1.2014673
1.2015695
1.2016565
1.2017217
1.2017539
1.1972581
1.1972857
1.1973201
1.1973634
1.1974197
1.1974928
1.1975851
1.1976964
1.1978354
1.1980042
1.1981916
1.1983956
1.1986128
1.1988393
1.1990732
1.1993151
1.1995688
1.1998395
1.200133
1.2004534
1.2007969
1.201038
1.2010775
1.2011434
1.2012516
1.2013556
1.2014577
1.2015565
1.2016392
1.2017019
1.2017331
1.1975182
1.1975413
1.1975705
1.1976072
1.197655
1.1977168
1.197795
1.1978977
1.1980272
1.1981767
1.1983463
1.1985354
1.19874
1.1989556
1.1991795
1.1994113
1.1996533
1.19991
1.200187
1.2004894
1.2008167
1.2010759
1.2011158
1.2011695
1.2012589
1.2013559
1.2014566
1.2015467
1.2016229
1.2016824
1.2017125
1.1978351
1.1978525
1.1978758
1.1979052
1.1979429
1.1979935
1.1980609
1.1981455
1.1982481
1.198372
1.1985186
1.1986868
1.1988731
1.1990735
1.1992844
1.1995042
1.1997339
1.1999769
1.2002381
1.2005231
1.2008336
1.2011049
1.201157
1.2011963
1.2012725
1.2013668
1.2014535
1.2015319
1.2016073
1.2016646
1.2016934
1.1981697
1.1981837
1.1982025
1.1982263
1.1982569
1.1982989
1.1983516
1.1984144
1.1984928
1.1985906
1.1987098
1.1988508
1.1990123
1.1991916
1.1993853
1.1995907
1.1998073
1.2000369
1.2002838
1.2005528
1.2008474
1.2011272
1.2011985
1.2012269
1.2012944
1.2013723
1.2014488
1.2015259
1.2015957
1.2016481
1.201675
1.1984661
1.1984766
1.1984919
1.1985112
1.1985354
1.1985664
1.1986105
1.19867
1.1987364
1.1988107
1.1989027
1.1990158
1.1991503
1.1993053
1.1994786
1.1996676
1.1998704
1.2000877
1.200322
1.2005774
1.200858
1.2011415
1.2012396
1.2012603
1.2013136
1.2013776
1.2014546
1.2015238
1.2015838
1.2016326
1.2016585
1.19871
1.1987209
1.1987358
1.1987537
1.1987732
1.1987924
1.1988141
1.1988465
1.1988985
1.1989705
1.1990532
1.1991477
1.1992619
1.1993976
1.1995539
1.1997287
1.19992
1.2001273
1.2003519
1.2005966
1.2008665
1.2011552
1.2012797
1.2012952
1.2013375
1.2013965
1.2014604
1.2015185
1.2015751
1.2016208
1.2016437
1.1988477
1.1988623
1.1988796
1.1988992
1.1989209
1.1989444
1.1989697
1.1989967
1.1990292
1.1990743
1.1991408
1.1992281
1.1993323
1.1994571
1.1996027
1.1997687
1.1999533
1.2001549
1.2003735
1.2006114
1.2008734
1.2011612
1.2013159
1.2013304
1.2013636
1.201412
1.2014637
1.2015217
1.2015719
1.2016096
1.2016308