/*--------------------------------*- C++ -*----------------------------------*\
| =========                 |                                                 |
| \\      /  F ield         | OpenFOAM: The Open Source CFD Toolbox           |
|  \\    /   O peration     | Version:  2406                                  |
|   \\  /    A nd           | Website:  www.openfoam.com                      |
|    \\/     M anipulation  |                                                 |
\*---------------------------------------------------------------------------*/
FoamFile
{
    version     2.0;
    format      ascii;
    arch        "LSB;label=32;scalar=64";
    class       volVectorField;
    location    "0.09";
    object      U;
}
// * * * * * * * * * * * * * * * * * * * * * * * * * * * * * * * * * * * * * //

dimensions      [0 1 -1 0 0 0 0];

internalField   nonuniform List<vector> 
8260
(
(40.188157 29.062272 0)
(41.5673 27.771189 -2.4746029e-20)
(42.882979 26.480714 2.1383294e-20)
(44.156765 25.187368 -3.6578739e-20)
(45.386074 23.852178 1.5512122e-20)
(46.553186 22.49312 -2.6182688e-20)
(47.646869 21.146408 -1.0920078e-20)
(48.658941 19.845227 -1.4587469e-23)
(49.624775 18.613928 4.8862549e-21)
(50.584183 17.452858 0)
(51.480562 16.378179 4.6240249e-20)
(52.334548 15.382807 0)
(53.137427 14.447607 0)
(53.851554 13.536826 -7.0963688e-20)
(54.315272 12.589688 1.8650528e-23)
(54.364196 11.516149 0)
(53.755226 10.015906 0)
(52.862098 8.3788069 6.7983488e-19)
(52.407021 7.2255564 5.7039225e-21)
(52.134923 6.3121911 -6.934423e-19)
(51.911962 5.4613307 -1.2606083e-18)
(51.722195 4.7129183 -1.1367177e-18)
(51.53603 4.0333803 -2.0622339e-18)
(51.364638 3.4037818 1.8472478e-18)
(51.208112 2.8490756 1.6435797e-18)
(51.092706 2.3399955 0)
(50.995463 1.8840628 2.5887757e-18)
(50.914361 1.4503407 2.2845142e-18)
(50.847045 1.0405291 4.0333609e-18)
(50.803825 0.62707667 0)
(50.767556 0.21567855 5.5788203e-18)
(39.189525 28.289625 2.4239384e-20)
(40.628694 27.121792 -1.7449114e-23)
(41.996369 26.014338 -1.8852452e-20)
(43.32735 24.8726 4.9610505e-20)
(44.622874 23.673167 0)
(45.867392 22.433103 2.4706005e-20)
(47.047143 21.182592 4.2374237e-20)
(48.155958 19.9528 2.7151202e-20)
(49.210276 18.769011 -3.1030255e-20)
(50.229532 17.637489 1.3362302e-20)
(51.189399 16.569952 -5.2409771e-20)
(52.094792 15.56805 0)
(52.934337 14.616265 0)
(53.665975 13.683633 1.4609534e-19)
(54.129869 12.683331 -1.5243899e-19)
(54.14693 11.569409 1.8860942e-19)
(53.519416 9.9817103 2.6226168e-24)
(52.676223 8.350242 -2.1364032e-20)
(52.289543 7.2197791 2.2224821e-20)
(52.048458 6.3101344 -6.6453004e-19)
(51.843281 5.4596131 -9.4822498e-21)
(51.66824 4.7107823 1.1010379e-18)
(51.492385 4.0318777 1.9802764e-18)
(51.329741 3.4018362 -3.4639822e-21)
(51.180636 2.8485546 6.2048276e-21)
(51.070791 2.3397644 -2.7430819e-21)
(50.977705 1.8839933 -2.4895117e-18)
(50.899479 1.4504796 -2.2011956e-18)
(50.834281 1.0404597 -3.8938495e-18)
(50.792492 0.6267617 3.4378056e-18)
(50.758651 0.21535028 -6.066794e-18)
(38.148799 27.242634 -2.0343463e-20)
(39.568268 26.300977 1.8260706e-20)
(40.980979 25.398285 0)
(42.376234 24.430722 -3.0185172e-20)
(43.744563 23.386886 2.6958376e-20)
(45.071109 22.284162 0)
(46.341409 21.148257 -4.1712445e-20)
(47.54669 20.00734 -9.1035413e-21)
(48.692945 18.88692 3.9680649e-20)
(49.789168 17.797033 0)
(50.82132 16.748199 4.9101636e-20)
(51.786795 15.747482 0)
(52.6715 14.782984 0)
(53.427635 13.828414 -7.4702486e-20)
(53.899922 12.777914 -5.2443237e-21)
(53.894796 11.615239 -2.0843471e-19)
(53.256347 9.9305288 2.7969668e-19)
(52.483094 8.3393952 -1.3596426e-18)
(52.162693 7.237133 0)
(51.951196 6.3294072 6.2911494e-19)
(51.765125 5.477344 0)
(51.606723 4.7249244 -8.0478563e-21)
(51.442832 4.0440115 1.4420392e-20)
(51.290207 3.4106628 -1.2876527e-20)
(51.149419 2.856418 -1.4607932e-18)
(51.045686 2.3458252 0)
(50.957372 1.8885266 0)
(50.882457 1.4540218 1.9885257e-21)
(50.819713 1.0427901 -1.7567221e-21)
(50.779589 0.62827406 -3.1764971e-18)
(50.746479 0.21599068 -4.2309776e-23)
(37.279349 26.056424 6.7735004e-20)
(38.652923 25.335546 -4.676206e-20)
(40.061241 24.635598 2.9372102e-20)
(41.479866 23.8549 2.7243118e-20)
(42.890551 22.982709 -7.4877472e-20)
(44.275563 22.033821 -2.259531e-20)
(45.617983 21.030056 2.0272827e-20)
(46.90486 19.995656 -1.8057877e-20)
(48.133735 18.954443 1.6046514e-20)
(49.30644 17.919708 0)
(50.409742 16.902571 5.1253876e-20)
(51.436091 15.912235 0)
(52.367384 14.940321 -8.7696054e-20)
(53.14742 13.96457 0)
(53.625543 12.865627 -1.8345751e-19)
(53.593246 11.642769 6.9167544e-21)
(52.950621 9.8587703 4.3691157e-23)
(52.266769 8.3320836 6.5849906e-19)
(52.016986 7.2509824 -6.4355463e-19)
(51.839027 6.3434935 0)
(51.675008 5.4902599 -1.0608585e-18)
(51.5357 4.7341165 -7.4441354e-21)
(51.385598 4.0519142 6.648194e-21)
(51.244552 3.4157919 -1.5160533e-18)
(51.113525 2.8614839 0)
(51.016883 2.3498222 0)
(50.934095 1.8915087 0)
(50.862992 1.456487 -1.8648301e-18)
(50.803091 1.0443099 0)
(50.764866 0.62914157 2.9075943e-18)
(50.733153 0.21627188 5.1303565e-18)
(36.594563 24.773572 -1.3979683e-20)
(37.901514 24.251396 0)
(39.268954 23.740377 -2.549434e-20)
(40.673274 23.145598 2.4323509e-20)
(42.093432 22.452305 2.2847756e-20)
(43.508924 21.6691 4.2335189e-20)
(44.900031 20.812346 1.9418489e-20)
(46.249729 19.901172 -1.7678886e-20)
(47.547928 18.955954 -1.6011273e-20)
(48.788923 17.991553 8.7049935e-20)
(49.958236 17.019979 -1.3196413e-20)
(51.043069 16.050657 0)
(52.019774 15.078201 1.7448017e-19)
(52.821125 14.082737 -4.5360596e-24)
(53.298995 12.935457 2.111689e-19)
(53.233495 11.634903 1.4946563e-20)
(52.597773 9.7668342 -3.1992008e-19)
(52.03219 8.324013 6.1966348e-19)
(51.853421 7.2615163 6.3673974e-19)
(51.711938 6.3558628 2.3705699e-24)
(51.572723 5.5036179 9.6035787e-19)
(51.454954 4.7441384 8.7293538e-19)
(51.320604 4.0613665 6.0755162e-21)
(51.192748 3.4224325 1.3769696e-18)
(51.072862 2.8680635 1.2259311e-18)
(50.984131 2.3551656 0)
(50.907637 1.8955119 -3.7466492e-21)
(50.840848 1.4598034 1.6976287e-18)
(50.784203 1.0464073 -2.9919073e-18)
(50.748125 0.63044934 -2.6412176e-18)
(50.717639 0.21677249 5.6872276e-22)
(36.10936 23.417742 2.3019391e-20)
(37.331576 23.072778 -2.2157203e-20)
(38.630411 22.732775 -2.1947792e-20)
(39.987822 22.31341 4.2887198e-20)
(41.384228 21.796628 -4.1255923e-20)
(42.798689 21.183451 0)
(44.210016 20.483155 0)
(45.598106 19.70853 0)
(46.946639 18.874988 3.1584663e-20)
(48.242537 17.996378 3.5043367e-23)
(49.468418 17.084468 -5.4004402e-20)
(50.605627 16.147676 1.142276e-19)
(51.623404 15.182736 -2.080296e-19)
(52.440889 14.168871 -1.1111791e-19)
(52.908661 12.971403 2.6676016e-20)
(52.80613 11.571165 -1.5882383e-20)
(52.197084 9.6538288 1.8702925e-20)
(51.777941 8.3127032 -6.1934735e-19)
(51.669134 7.2662958 -1.7248799e-20)
(51.567764 6.3636974 -4.9712616e-19)
(51.45653 5.5145246 -8.756298e-19)
(51.362966 4.7517923 -1.5866603e-18)
(51.246549 4.0694368 -1.4214734e-18)
(51.13363 3.4279628 -8.2213875e-25)
(51.026593 2.8738901 8.6920508e-21)
(50.946813 2.3601336 1.9603903e-18)
(50.877529 1.899207 0)
(50.81562 1.4629955 1.5324067e-18)
(50.762728 1.0483663 2.6973759e-18)
(50.729068 0.631646 0)
(50.700172 0.21720227 0)
(35.838837 22.011667 8.7353993e-21)
(36.962887 21.827338 -3.7084851e-20)
(38.171923 21.638877 3.7599516e-20)
(39.45436 21.37775 -1.8761672e-20)
(40.795042 21.026123 -1.8481622e-20)
(42.175392 20.5784 0)
(43.574799 20.036355 0)
(44.97173 19.405674 0)
(46.345599 18.695535 -3.0792676e-20)
(47.677161 17.916168 -5.7903482e-20)
(48.944709 17.077049 0)
(50.123156 16.18414 -1.0434147e-19)
(51.172946 15.235052 1.2767007e-19)
(51.997128 14.201838 -3.5828232e-23)
(52.439963 12.950395 1.7016019e-19)
(52.299378 11.424263 3.3032127e-20)
(51.757303 9.526596 -3.6148052e-20)
(51.502835 8.2932121 5.9023242e-19)
(51.462553 7.2624384 0)
(51.404758 6.3653455 4.513461e-19)
(51.325098 5.522376 8.0511574e-19)
(51.258563 4.7570312 1.4325312e-18)
(51.162575 4.0767353 -9.9974561e-21)
(51.066363 3.4333039 8.7992899e-21)
(50.974095 2.8797424 3.3375636e-23)
(50.904378 2.3655125 -1.7614464e-18)
(50.843346 1.9032131 0)
(50.786919 1.4665553 2.5441918e-23)
(50.738336 1.0505446 0)
(50.70738 0.63302494 0)
(50.680232 0.21771665 1.8867071e-18)
(35.794452 20.621873 -2.3903942e-23)
(36.807966 20.560359 -2.3336283e-20)
(37.91007 20.493905 8.0363595e-21)
(39.094726 20.366144 1.6381442e-20)
(40.351878 20.159312 1.6458724e-20)
(41.6669 19.862824 0)
(43.021594 19.471664 0)
(44.394967 18.984291 0)
(45.76444 18.402763 0)
(47.106438 17.731536 -2.8564169e-20)
(48.394544 16.975406 2.7437787e-20)
(49.596731 16.135927 0)
(50.662678 15.209741 -2.6477496e-20)
(51.478762 14.149079 2.7337473e-20)
(51.875452 12.84057 -4.7678241e-19)
(51.699317 11.169133 3.3391384e-20)
(51.291321 9.3889527 -3.4120986e-20)
(51.204457 8.2598828 -5.0732698e-19)
(51.231325 7.2460029 0)
(51.221085 6.3580487 0)
(51.176982 5.5248756 0)
(51.140207 4.7578304 2.0149691e-20)
(51.067542 4.081782 1.1310404e-18)
(50.989786 3.4374412 5.1626172e-25)
(50.914509 2.8845277 -1.7910544e-18)
(50.856109 2.3706112 1.5697008e-18)
(50.80453 1.9069944 1.3966877e-18)
(50.754288 1.4700911 -2.4556572e-18)
(50.710615 1.0526565 0)
(50.68266 0.63437643 0)
(50.657634 0.21820822 -1.6864556e-18)
(35.962906 19.270067 -6.1793553e-21)
(36.861138 19.297218 2.6228789e-20)
(37.845806 19.324323 -3.4521131e-20)
(38.917051 19.302158 -1.4323524e-20)
(40.069549 19.214577 1.4682091e-20)
(41.292879 19.047899 -2.9686041e-20)
(42.572495 18.791762 2.9673825e-20)
(43.88982 18.438198 0)
(45.22257 17.982144 0)
(46.544956 17.420961 0)
(47.826417 16.752658 0)
(49.027431 15.972152 1.0845997e-19)
(50.084249 15.072014 -1.3676264e-19)
(50.873803 13.957007 2.8290473e-20)
(51.192463 12.603975 2.4478582e-19)
(51.007565 10.793081 0)
(50.819418 9.2466345 0)
(50.880789 8.2064851 4.5920226e-19)
(50.973514 7.2116654 2.5650108e-20)
(51.015015 6.3385256 -2.2839088e-20)
(51.010568 5.5195861 0)
(51.006389 4.7526855 -5.5720576e-19)
(50.96038 4.0838103 8.7194603e-25)
(50.903021 3.4404209 -9.0044485e-19)
(50.847125 2.8880359 -3.3674481e-23)
(50.80129 2.3755481 -1.4158169e-18)
(50.760421 1.9106765 -1.2399365e-18)
(50.717247 1.4737045 1.0941163e-18)
(50.679095 1.0547959 -1.8854784e-21)
(50.654438 0.63579187 8.3169894e-22)
(50.631893 0.21872617 7.3364719e-22)
(36.316584 17.974127 0)
(37.104232 18.054147 -4.4633309e-20)
(37.969777 18.146722 4.796399e-20)
(38.919181 18.202904 0)
(39.951887 18.205897 -7.9180532e-20)
(41.062277 18.142054 2.2315569e-23)
(42.240435 17.997421 5.5314599e-20)
(43.471455 17.759123 2.78522e-20)
(44.735006 17.415819 0)
(46.00488 16.957395 -2.3591591e-23)
(47.24725 16.373702 -6.2931861e-24)
(48.414169 15.651052 -1.6575877e-19)
(49.424825 14.771764 5.6466362e-20)
(50.149585 13.587519 5.8859677e-20)
(50.369174 12.137126 6.2120687e-20)
(50.276735 10.332426 2.4825715e-19)
(50.352354 9.0903988 -5.7135856e-20)
(50.52855 8.1250034 9.0935989e-23)
(50.688085 7.1530592 0)
(50.784339 6.3024308 -3.4540947e-19)
(50.823517 5.5028849 -5.6053042e-19)
(50.855886 4.739401 0)
(50.839741 4.080977 0)
(50.805205 3.4414394 7.8863988e-19)
(50.771073 2.8892553 7.1858124e-19)
(50.739169 2.3797537 1.2490552e-18)
(50.710119 1.9138616 -8.6108655e-21)
(50.675188 1.4770641 3.7983441e-21)
(50.643204 1.0567653 1.719162e-18)
(50.622163 0.63713119 0)
(50.602595 0.21919844 1.335191e-18)
(36.816283 16.726813 -3.0164424e-20)
(37.492886 16.845113 3.4277773e-20)
(38.242384 16.976225 -4.2828055e-20)
(39.070644 17.076766 -4.5834037e-20)
(39.977841 17.137765 1.2128238e-20)
(40.963178 17.143139 5.0677291e-20)
(42.021484 17.078129 0)
(43.141888 16.927084 -2.6823823e-20)
(44.306738 16.673368 0)
(45.490427 16.299238 -4.238608e-23)
(46.656297 15.785537 0)
(47.746363 15.10709 -5.6920606e-20)
(48.658745 14.222471 5.8740573e-20)
(49.256849 12.925577 6.0433375e-20)
(49.425592 11.394544 -2.4217645e-19)
(49.592936 9.9202779 -5.1187996e-19)
(49.871908 8.95974 5.1394584e-20)
(50.15743 7.9580974 -4.1534558e-19)
(50.373381 7.093144 -2.8705663e-19)
(50.529356 6.2237562 -3.6294367e-20)
(50.614102 5.4643882 4.8156015e-19)
(50.68808 4.7163293 4.8327273e-19)
(50.703995 4.0714736 2.512634e-20)
(50.695425 3.4397703 6.8903469e-19)
(50.685186 2.8877339 0)
(50.669064 2.3828912 -2.2162287e-18)
(50.652565 1.9164398 -7.6380974e-21)
(50.627294 1.480014 6.738037e-21)
(50.602303 1.0585382 4.0014581e-23)
(50.58527 0.63838951 1.3109408e-21)
(50.569125 0.21962408 -1.1852233e-18)
(37.469139 15.478418 0)
(38.026057 15.599899 0)
(38.651867 15.738837 0)
(39.349666 15.861648 0)
(40.123126 15.952322 0)
(40.973474 15.996508 -1.1039221e-19)
(41.897916 15.979696 1.0293512e-19)
(42.887665 15.884557 0)
(43.926112 15.689908 -1.1027502e-19)
(44.986809 15.370444 1.131618e-19)
(46.028097 14.896735 5.8089633e-20)
(46.977511 14.224208 0)
(47.727945 13.266776 1.8327251e-19)
(48.186402 11.934524 -6.0628149e-20)
(48.551826 10.519536 1.7037634e-19)
(48.966034 9.6123804 5.1503551e-20)
(49.416239 8.6332922 -1.8521745e-19)
(49.756407 7.8077079 -3.7029479e-19)
(50.039728 6.949554 6.2020072e-19)
(50.241892 6.1774356 5.1699427e-19)
(50.384406 5.3902607 0)
(50.500952 4.6939156 -2.516228e-20)
(50.551363 4.0425477 2.2257116e-20)
(50.5724 3.4333182 -6.298717e-19)
(50.587866 2.8830792 0)
(50.590061 2.3839218 1.9629467e-18)
(50.586728 1.9179665 0)
(50.572492 1.4820963 -5.9668787e-21)
(50.555705 1.0598891 -2.6896078e-18)
(50.543242 0.63941216 0)
(50.530922 0.21992851 0)
(38.123324 14.136737 0)
(38.574006 14.233605 0)
(39.088402 14.35057 0)
(39.664559 14.463382 8.8735281e-20)
(40.308322 14.549038 -1.7952476e-19)
(41.023151 14.594728 2.1751886e-19)
(41.807107 14.58682 -1.355377e-19)
(42.650184 14.506716 2.8450353e-20)
(43.53308 14.328965 1.4794279e-19)
(44.426992 14.021368 -7.3964752e-23)
(45.296112 13.537355 -6.2428151e-20)
(46.072679 12.81704 -2.5019966e-19)
(46.670874 11.815976 1.216974e-19)
(47.200158 10.751531 0)
(47.819361 9.9283976 0)
(48.436119 9.1076792 9.2783901e-20)
(48.927123 8.3688452 3.2991579e-19)
(49.347629 7.5637296 7.3143445e-19)
(49.68455 6.7937432 -3.2383501e-19)
(49.944949 6.0266074 -5.7262276e-20)
(50.13254 5.324873 5.0657099e-20)
(50.291461 4.6528475 -3.8025576e-19)
(50.380856 4.0101372 1.9749274e-20)
(50.434753 3.4147668 0)
(50.477843 2.8758047 0)
(50.500637 2.3815274 -8.6743385e-19)
(50.511904 1.9180748 0)
(50.509716 1.4829605 0)
(50.502728 1.0606423 1.1916672e-18)
(50.495664 0.64010597 -1.0512294e-18)
(50.487378 0.22008327 -9.2723883e-19)
(38.749226 12.305425 -2.5639697e-23)
(39.112344 12.373352 -1.7837115e-19)
(39.523973 12.462164 9.1432446e-20)
(39.994067 12.540999 0)
(40.523196 12.608758 9.8587344e-24)
(41.106769 12.651652 1.3607483e-19)
(41.74171 12.642961 -4.5563027e-23)
(42.420004 12.562427 -3.2674451e-20)
(43.123711 12.385149 -3.3143881e-20)
(43.825841 12.088593 -6.6161673e-20)
(44.504228 11.631347 -6.4763864e-20)
(45.155037 11.029737 0)
(45.824356 10.372138 0)
(46.55347 9.7965821 0)
(47.262967 9.2225446 0)
(47.890958 8.6378813 -1.652853e-19)
(48.462053 7.9491952 -1.4652154e-19)
(48.929553 7.2771576 -2.5951285e-19)
(49.323175 6.5678947 0)
(49.632085 5.8929848 -2.0293965e-19)
(49.867524 5.2176759 0)
(50.067388 4.570534 3.1658994e-19)
(50.190733 3.9664639 0)
(50.280827 3.3898499 0)
(50.354069 2.8707692 0)
(50.399466 2.3699467 0)
(50.427674 1.9153314 0)
(50.438361 1.4821094 -9.3228905e-21)
(50.44271 1.0604299 8.226288e-21)
(50.442174 0.64024316 1.8594723e-18)
(50.438006 0.22001538 8.1765956e-19)
(39.225978 10.266754 2.5991234e-23)
(39.453904 10.329969 0)
(39.740285 10.412885 1.835967e-21)
(40.096473 10.485553 1.1425116e-19)
(40.540418 10.500543 -2.5421858e-19)
(41.026466 10.507617 -3.6002995e-20)
(41.542446 10.459209 -2.1654808e-19)
(42.096053 10.3603 5.6674867e-19)
(42.684915 10.203835 -2.7469706e-19)
(43.287122 10.037273 -6.601622e-20)
(43.925185 9.7969429 -2.2954126e-23)
(44.632561 9.5600565 5.7843563e-20)
(45.385318 9.2955517 0)
(46.09393 8.9575138 0)
(46.761188 8.5353881 0)
(47.411611 8.0278098 2.9347228e-19)
(48.000451 7.503341 0)
(48.514563 6.9142547 -2.2992714e-19)
(48.954373 6.309471 0)
(49.317775 5.6889447 0)
(49.594711 5.0766594 0)
(49.830168 4.4890401 -2.4474948e-19)
(49.987002 3.9061931 -3.0854119e-20)
(50.110329 3.3470748 -4.6270566e-19)
(50.216591 2.8451783 2.4006913e-20)
(50.286062 2.362962 0)
(50.333675 1.9119958 0)
(50.358504 1.4765603 5.2706512e-19)
(50.375058 1.0588865 9.3702929e-19)
(50.382391 0.63960225 -3.1723635e-21)
(50.382347 0.21968795 -2.8255248e-21)
(40.139052 8.0029442 0)
(40.29927 8.1031476 -1.0731151e-20)
(40.468244 8.2397485 1.0931015e-20)
(40.654982 8.3809436 -1.0955588e-20)
(40.869816 8.5801057 -2.0973482e-20)
(41.166199 8.7102784 2.0298008e-20)
(41.52629 8.8407581 -3.8875413e-20)
(41.953582 8.9333887 -3.6456442e-20)
(42.469357 8.8156898 0)
(43.007554 8.7366674 -2.4224063e-19)
(43.622853 8.5799593 4.9800466e-19)
(44.318291 8.4730738 -5.1320192e-20)
(45.035224 8.3383159 -9.229393e-20)
(45.72326 8.1314007 1.6539723e-19)
(46.382007 7.8109359 -2.9354105e-19)
(47.001569 7.4278944 8.7726596e-24)
(47.586512 6.9824248 -1.1503617e-19)
(48.108143 6.5077052 4.0665806e-19)
(48.581369 5.9916406 0)
(48.996167 5.4586329 0)
(49.316925 4.9222052 6.9982537e-20)
(49.588037 4.3592926 -6.8430275e-24)
(49.775783 3.8292622 -2.724205e-20)
(49.925993 3.3036719 -2.4069993e-20)
(50.065066 2.8104695 -3.3904432e-19)
(50.161527 2.3427143 0)
(50.230478 1.8980085 0)
(50.270088 1.4729202 -4.5785814e-19)
(50.299324 1.0552648 -1.6410242e-18)
(50.31583 0.63838958 -7.2939873e-19)
(50.319979 0.21852035 0)
(40.899552 6.4363731 0)
(41.069334 6.5101147 1.2204147e-20)
(41.259437 6.6093933 -4.1097292e-19)
(41.470314 6.7144453 4.3483925e-23)
(41.68803 6.8355604 3.8253819e-19)
(41.921511 6.9581076 -2.1016657e-20)
(42.180589 7.0565542 3.9043004e-20)
(42.426434 7.1717922 3.570273e-20)
(42.670962 7.5148946 0)
(43.055596 7.6334734 5.5745599e-20)
(43.539413 7.7271041 -5.0284989e-20)
(44.080461 7.5395905 1.7622665e-19)
(44.681012 7.3627899 -3.1676375e-19)
(45.350742 7.2502397 1.4453398e-19)
(46.059132 7.1199199 0)
(46.679103 6.8391126 1.1495178e-19)
(47.236418 6.4932135 2.2468458e-23)
(47.743848 6.0795228 -1.7959182e-19)
(48.218432 5.6439137 2.3797843e-19)
(48.669696 5.1902246 7.0001141e-20)
(49.033159 4.7114668 -3.0890634e-19)
(49.337024 4.2303399 -2.180137e-19)
(49.561877 3.7272123 0)
(49.73555 3.2305814 3.3914839e-19)
(49.903285 2.7676327 2.6171184e-19)
(50.025732 2.3164967 3.2974471e-20)
(50.117303 1.8834094 0)
(50.173166 1.4611565 0)
(50.215257 1.0481287 -5.6932228e-21)
(50.241719 0.63454987 4.9880996e-21)
(50.250401 0.21793713 0)
(41.511705 5.5264812 -8.8980723e-19)
(41.616057 5.6040415 8.4347554e-19)
(41.737952 5.6926831 7.8798362e-19)
(41.882419 5.7849716 -7.2712218e-19)
(42.054986 5.8813665 -6.8464712e-19)
(42.264028 5.9829586 6.4813276e-19)
(42.525097 6.0879273 -6.0764514e-19)
(42.852089 6.182133 5.1685353e-19)
(43.185412 6.2778368 -4.6083593e-19)
(43.504577 6.3219894 -5.1428044e-20)
(43.75986 6.5046353 4.1696176e-19)
(44.074472 6.797501 3.5881933e-19)
(44.56347 6.6173824 -4.1207995e-19)
(45.091034 6.5049535 0)
(45.675218 6.3201089 2.2537168e-19)
(46.325309 6.2136425 -4.0338098e-19)
(46.927866 5.9972227 8.980912e-20)
(47.436777 5.6668056 0)
(47.896191 5.2926508 -2.0998621e-19)
(48.349273 4.889634 1.3112898e-23)
(48.74163 4.4909187 4.3603581e-19)
(49.076976 4.0497242 2.4037662e-19)
(49.341057 3.6105059 4.2400587e-20)
(49.542932 3.1496833 -3.7397059e-19)
(49.734998 2.7059182 2.968135e-19)
(49.879256 2.2787996 2.035822e-19)
(49.992843 1.8555426 1.2824076e-20)
(50.066978 1.4464379 3.7321036e-19)
(50.122063 1.0392103 6.4831604e-19)
(50.159055 0.62985583 5.5429402e-19)
(50.172972 0.21584641 0)
(42.257341 4.6055043 -6.5438518e-21)
(42.356539 4.6744679 -2.4101817e-20)
(42.470041 4.7540638 -7.247526e-19)
(42.598564 4.838052 1.3460406e-18)
(42.742177 4.9276341 -1.2374191e-18)
(42.899779 5.0226629 5.8166563e-19)
(43.067335 5.1206182 0)
(43.243378 5.2187744 0)
(43.449572 5.311777 -2.5770613e-20)
(43.724014 5.4171102 4.6051232e-20)
(44.088355 5.4566327 2.8713002e-19)
(44.412813 5.4685069 -6.1988523e-19)
(44.667577 5.7971641 3.0938765e-19)
(45.041352 5.9038709 0)
(45.490519 5.690867 0)
(45.994035 5.5159302 0)
(46.554365 5.3932864 -1.5713457e-19)
(47.126077 5.2222847 2.0939425e-19)
(47.615264 4.9536588 0)
(48.058794 4.5986286 -1.0899022e-19)
(48.458345 4.2276419 9.616791e-20)
(48.804545 3.8561573 -3.392219e-19)
(49.106863 3.4533761 1.4957712e-19)
(49.346466 3.0484419 -9.8966198e-20)
(49.559331 2.6343907 -2.0354293e-19)
(49.722089 2.2290427 -2.0513769e-19)
(49.855033 1.8208224 3.3922493e-19)
(49.94996 1.4245891 -2.9914002e-19)
(50.019177 1.0235607 0)
(50.066832 0.62151851 -4.9647245e-19)
(50.086909 0.21394184 0)
(42.843669 3.8844298 7.6425925e-19)
(42.909357 3.9417335 2.9633185e-24)
(42.985233 4.0063178 1.0154266e-20)
(43.073555 4.0734904 0)
(43.17752 4.1449088 -1.7224213e-20)
(43.301427 4.2213022 5.0146395e-19)
(43.451738 4.3029572 -4.5351003e-19)
(43.634168 4.3900546 0)
(43.84391 4.4824339 2.2848174e-20)
(44.062394 4.5699253 3.4671145e-19)
(44.2877 4.6714567 3.6270355e-20)
(44.60519 4.7115546 -5.1591677e-19)
(44.935108 4.7675973 5.6436291e-20)
(45.222666 4.7468114 2.0249575e-19)
(45.482276 5.1074547 0)
(45.872408 4.9121808 0)
(46.318848 4.7660094 -6.8075441e-20)
(46.804166 4.6458592 9.9198782e-24)
(47.323137 4.5488189 1.0892455e-19)
(47.789903 4.2916493 -2.0218411e-23)
(48.196252 3.9821277 -2.5433113e-19)
(48.542062 3.6317076 7.4767764e-20)
(48.850953 3.2715499 6.5948218e-20)
(49.135812 2.9223791 2.9072973e-19)
(49.375066 2.5414004 -5.6205359e-24)
(49.554712 2.163807 -2.2611883e-20)
(49.70415 1.7743819 -6.379966e-19)
(49.820261 1.3905743 -1.7583383e-20)
(49.906111 1.0044147 0)
(49.964342 0.61112433 0)
(49.991345 0.2099967 0)
(43.481434 3.1921373 1.3645781e-18)
(43.540897 3.2415926 1.2569911e-18)
(43.609124 3.2973768 -1.1726902e-18)
(43.686994 3.3560484 1.0744593e-18)
(43.7753 3.4194622 -9.6820435e-19)
(43.874536 3.4886377 8.794962e-19)
(43.984087 3.5630679 -8.0646271e-19)
(44.103335 3.6412829 0)
(44.236581 3.7212551 0)
(44.396039 3.803751 5.5946903e-19)
(44.58799 3.8780018 -4.8157871e-19)
(44.790226 3.9694551 0)
(45.048829 4.0202953 -5.0502547e-20)
(45.353443 4.1173924 0)
(45.663167 4.0079064 0)
(45.890166 4.3446666 -6.773028e-20)
(46.243396 4.2095383 2.9578356e-19)
(46.6553 4.0806132 -4.2907486e-19)
(47.075564 4.0422427 -9.6028565e-20)
(47.51947 3.8968726 2.5425829e-19)
(47.94901 3.6911329 -2.5459087e-23)
(48.307398 3.4033891 -6.593158e-20)
(48.596994 3.0681522 0)
(48.90674 2.7595174 0)
(49.178378 2.4308785 0)
(49.378386 2.0813389 0)
(49.54426 1.7139266 3.1635374e-19)
(49.678855 1.3488151 -1.5501826e-20)
(49.781631 0.97427541 -1.3671017e-20)
(49.851414 0.59553137 -6.0290636e-21)
(49.885477 0.20554537 3.45673e-19)
(44.018352 2.6342491 1.2166622e-18)
(44.057939 2.675607 -1.1175309e-18)
(44.103691 2.7215701 8.1186805e-21)
(44.156888 2.7696361 9.6451756e-19)
(44.219332 2.8216104 -8.7386717e-19)
(44.293356 2.8784166 7.9216838e-19)
(44.381881 2.940165 -1.4279942e-18)
(44.488294 3.0069066 -1.9978379e-20)
(44.614209 3.0788268 5.5465947e-19)
(44.756796 3.1545651 0)
(44.913344 3.2356664 -4.8193308e-19)
(45.085151 3.3061241 2.5193872e-20)
(45.253724 3.3915475 3.7886488e-19)
(45.459025 3.4315141 -3.1548028e-19)
(45.735674 3.495494 2.4406322e-19)
(46.040593 3.3979338 1.2141392e-24)
(46.266786 3.661418 2.1165792e-19)
(46.597265 3.5496774 -2.3247637e-19)
(46.953216 3.4655918 3.3603564e-19)
(47.316022 3.3939547 -7.473855e-20)
(47.709169 3.3287969 6.5899917e-20)
(48.089981 3.1293841 1.5752174e-23)
(48.380463 2.8481624 1.0251229e-19)
(48.683344 2.5817042 0)
(48.973638 2.2810758 -1.5941072e-19)
(49.196687 1.9767131 1.4056699e-19)
(49.378835 1.6337036 3.0986163e-20)
(49.528384 1.2921066 -2.7328522e-20)
(49.645531 0.93794866 1.2050526e-20)
(49.727762 0.5759021 3.2420933e-19)
(49.768791 0.19827308 -2.953162e-19)
(44.575489 2.095485 2.185603e-18)
(44.611036 2.1303199 -1.9879994e-18)
(44.651856 2.1687852 -1.44215e-20)
(44.698499 2.2091862 -6.6319381e-21)
(44.751478 2.2531801 -6.0476727e-21)
(44.811188 2.3015747 1.4136282e-18)
(44.877962 2.3544035 -4.9123605e-23)
(44.951905 2.41116 -1.1239768e-18)
(45.033666 2.4710005 2.9653224e-24)
(45.126574 2.5332596 0)
(45.235974 2.596016 -2.5021522e-20)
(45.367198 2.6642019 -4.4389234e-20)
(45.523506 2.7269293 -1.9658975e-20)
(45.683634 2.8100301 2.7825441e-19)
(45.86302 2.8817935 -2.4598757e-19)
(46.099738 2.9812273 2.7161418e-20)
(46.37731 2.9088588 0)
(46.59574 3.1293808 -4.1511709e-20)
(46.868206 3.0060668 -7.271725e-20)
(47.189067 2.8583906 -6.5087467e-20)
(47.52157 2.8771625 0)
(47.865276 2.7622986 -1.0235955e-19)
(48.199996 2.5972659 0)
(48.500895 2.3830598 0)
(48.776874 2.1072635 1.4050816e-19)
(49.011231 1.8440727 -2.4781032e-19)
(49.207671 1.5375069 1.0926798e-19)
(49.370143 1.2199221 0)
(49.499209 0.88914714 -1.8059375e-19)
(49.593128 0.54867067 -2.9045033e-19)
(49.641001 0.18986372 0)
(45.046142 1.7060067 -1.9467501e-18)
(45.067711 1.7350054 3.4507124e-21)
(45.092676 1.7667887 1.2798421e-20)
(45.121686 1.8002817 1.5044621e-18)
(45.15565 1.8369789 -1.3652919e-18)
(45.195786 1.8776973 -2.0619714e-24)
(45.243643 1.9226342 0)
(45.301129 1.9718577 1.529235e-24)
(45.370142 2.0257532 8.9302416e-19)
(45.451812 2.0847463 -7.8272789e-19)
(45.546382 2.1491482 2.207614e-20)
(45.654265 2.2159087 1.9577122e-20)
(45.779351 2.285678 0)
(45.926647 2.3474741 0)
(46.074162 2.4117085 4.8798059e-19)
(46.22669 2.4404645 2.3909429e-20)
(46.425384 2.5067529 -3.3829583e-19)
(46.662171 2.4350933 3.731471e-19)
(46.847478 2.6645626 -2.2653892e-19)
(47.10941 2.4889035 -5.6489238e-20)
(47.391895 2.4206968 0)
(47.663219 2.3199802 -8.9921083e-20)
(48.017351 2.2657156 7.9656276e-20)
(48.347931 2.1653208 -8.0313068e-24)
(48.593803 1.9142158 -6.1939655e-20)
(48.822003 1.6794541 1.0921984e-19)
(49.027044 1.4154939 -9.6312067e-20)
(49.204995 1.1327366 -1.6988752e-19)
(49.343982 0.83026391 1.8713863e-20)
(49.447641 0.51535093 -2.4779034e-20)
(49.502344 0.17805663 7.2852777e-21)
(45.536007 1.2700424 -1.7231997e-18)
(45.556989 1.2928208 -6.094701e-21)
(45.58105 1.3175911 1.4437249e-18)
(45.608461 1.3436778 0)
(45.639451 1.372284 -1.2111655e-18)
(45.674135 1.403985 -8.5394581e-21)
(45.712538 1.4389028 2.1720716e-23)
(45.754901 1.4770958 1.7728982e-18)
(45.802561 1.5182355 -2.1208716e-23)
(45.85771 1.5617286 -7.1258009e-19)
(45.922111 1.6068061 0)
(45.995619 1.6543115 0)
(46.078419 1.7036325 0)
(46.176196 1.7564617 0)
(46.297491 1.809326 -2.3906259e-20)
(46.429814 1.8771657 3.3781733e-19)
(46.559135 1.9354156 -2.6098121e-19)
(46.709526 2.0358131 -2.9608954e-19)
(46.919544 1.8815605 2.0319415e-19)
(47.105369 2.1200384 7.3398862e-25)
(47.325497 2.0503541 0)
(47.558634 1.9388672 1.5664633e-19)
(47.855056 1.9289671 -1.4045009e-19)
(48.171181 1.8839415 6.1901344e-20)
(48.403347 1.692521 0)
(48.631813 1.4999074 -1.4443577e-19)
(48.839826 1.26631 4.2457209e-20)
(49.033029 1.0232675 1.8718714e-19)
(49.181468 0.75746864 9.9050341e-20)
(49.293071 0.47188752 0)
(49.354206 0.16466515 -2.0551822e-19)
(45.892239 1.004916 0)
(45.901896 1.0226805 2.7046575e-21)
(45.913187 1.0418036 0)
(45.926397 1.0619198 0)
(45.942078 1.083975 -4.1770117e-21)
(45.961089 1.1084509 -1.9335187e-18)
(45.984598 1.1355384 1.7387516e-18)
(46.013959 1.1654262 6.0812139e-21)
(46.05037 1.198391 1.0855295e-20)
(46.094968 1.2346782 -1.2268007e-18)
(46.149454 1.2746487 2.1962973e-18)
(46.216707 1.3183194 -9.7381121e-19)
(46.298245 1.3665965 0)
(46.391723 1.4181856 0)
(46.496371 1.4676225 0)
(46.613141 1.5099925 0)
(46.733816 1.5553849 -1.6436558e-20)
(46.855197 1.5650491 2.6104836e-19)
(46.990993 1.6557242 -2.5565839e-20)
(47.161876 1.6582264 -1.5686978e-19)
(47.310843 1.7728947 1.5709721e-19)
(47.514838 1.6384277 -2.7383375e-19)
(47.765874 1.6324203 2.4765961e-19)
(47.989173 1.5238001 -1.0916515e-19)
(48.212838 1.4265365 1.4440492e-19)
(48.455539 1.2722227 8.4882893e-20)
(48.663513 1.0961233 0)
(48.857836 0.89291183 3.3005119e-20)
(49.016359 0.6689371 -2.2223317e-24)
(49.132592 0.41991772 -1.2838568e-19)
(49.198683 0.14651446 1.8116685e-19)
(46.28369 0.67286017 -2.710319e-18)
(46.292838 0.68593121 2.4457643e-18)
(46.303153 0.7000616 0)
(46.314976 0.71515633 0)
(46.328677 0.73199733 7.3729523e-21)
(46.344632 0.75099349 0)
(46.363236 0.7722924 0)
(46.38494 0.79594687 -1.3788019e-18)
(46.410303 0.82197618 1.2255741e-18)
(46.440067 0.85035187 -1.1799627e-24)
(46.475081 0.88082917 7.5667176e-21)
(46.516077 0.91268889 0)
(46.564151 0.94412974 0)
(46.620506 0.9747474 0)
(46.685061 1.007014 0)
(46.75745 1.0460808 0)
(46.851089 1.0769715 -1.4491417e-20)
(46.963833 1.1361949 -1.2788538e-20)
(47.086545 1.1327233 -3.1540494e-19)
(47.185354 1.2145175 6.3684527e-19)
(47.340836 1.0774438 -3.1593603e-19)
(47.522525 1.2433827 -3.0223975e-20)
(47.719997 1.2287063 -1.0917195e-19)
(47.891344 1.1467594 9.6271927e-20)
(48.090735 1.1097648 -4.2438974e-20)
(48.310405 1.0184063 -7.4841307e-20)
(48.512139 0.90165902 5.7486296e-24)
(48.693358 0.74071308 5.8204362e-20)
(48.853871 0.56631381 2.5668049e-20)
(48.969604 0.35949837 1.1318393e-19)
(49.038182 0.12585086 7.9870994e-20)
(46.502829 0.49742889 -2.394087e-18)
(46.509138 0.50646956 2.15756e-18)
(46.516691 0.51612232 -1.9503267e-21)
(46.525768 0.52641412 1.8308523e-18)
(46.536446 0.53791211 -1.6687038e-18)
(46.548824 0.55088004 -1.5082793e-18)
(46.563047 0.56543943 1.1424709e-23)
(46.579344 0.58171809 2.4239124e-18)
(46.598031 0.5998984 -1.0815311e-18)
(46.619608 0.62020247 -3.7609512e-21)
(46.645131 0.64242952 -7.4643114e-25)
(46.674822 0.66688937 5.920367e-21)
(46.709693 0.6938302 0)
(46.752482 0.72315908 9.271932e-21)
(46.807243 0.75337806 -5.2442711e-19)
(46.873591 0.77754119 4.5594887e-19)
(46.94315 0.80973762 0)
(47.026136 0.82747023 -3.7208713e-19)
(47.132316 0.84549499 2.984334e-19)
(47.237589 0.85827932 1.7548436e-20)
(47.374404 0.88845716 1.5467536e-20)
(47.537806 0.90236905 2.6723528e-20)
(47.681533 0.83293407 0)
(47.835623 0.83735299 1.6950931e-19)
(48.016026 0.8340707 -1.8711838e-19)
(48.19177 0.76415461 -3.2998022e-20)
(48.378374 0.69810669 -5.819085e-20)
(48.544418 0.58934167 0)
(48.69386 0.45129286 4.1356635e-24)
(48.808436 0.29041521 -7.9845138e-20)
(48.877131 0.10184078 6.4475903e-24)
(46.766761 0.33540385 -4.2337422e-18)