/*--------------------------------*- C++ -*----------------------------------*\
| =========                 |                                                 |
| \\      /  F ield         | OpenFOAM: The Open Source CFD Toolbox           |
|  \\    /   O peration     | Version:  2406                                  |
|   \\  /    A nd           | Website:  www.openfoam.com                      |
|    \\/     M anipulation  |                                                 |
\*---------------------------------------------------------------------------*/
FoamFile
{
    version     2.0;
    format      ascii;
    arch        "LSB;label=32;scalar=64";
    class       volScalarField;
    location    "0.014";
    object      nut;
}
// * * * * * * * * * * * * * * * * * * * * * * * * * * * * * * * * * * * * * //

dimensions      [0 2 -1 0 0 0 0];

internalField   nonuniform List<scalar> 
8260
(
0.033862761
0.038434789
0.043799057
0.049867857
0.056499365
0.063542079
0.070807723
0.078044865
0.084913943
0.09092947
0.095405703
0.097399262
0.095634739
0.088520546
0.074343804
0.052316418
0.027983529
0.013090268
0.0083931507
0.0068878251
0.0059956501
0.0054021068
0.0050428427
0.0047312917
0.0045017702
0.0043794841
0.0042775144
0.0042104863
0.004159841
0.0041300081
0.0041135158
0.040033506
0.04473572
0.049901238
0.055593724
0.061772437
0.068323352
0.075069071
0.081757793
0.088044123
0.093435356
0.097220825
0.098437574
0.095793798
0.087705618
0.072510387
0.049869558
0.025646997
0.012295425
0.0081479418
0.0067945377
0.0059491928
0.0053738578
0.0050235746
0.0047192624
0.0044941828
0.0043749933
0.0042747579
0.004208814
0.0041588057
0.0041293138
0.0041130765
0.047120013
0.051644277
0.056556078
0.061887761
0.067612871
0.073640296
0.079808409
0.085872199
0.091482331
0.096136125
0.099109317
0.099417834
0.095754271
0.086549898
0.070223032
0.046901429
0.023297161
0.011485052
0.0079783769
0.0067453782
0.0059254862
0.0053589388
0.0050131525
0.0047129852
0.0044899518
0.0043723062
0.0042730717
0.0042076357
0.0041579897
0.0041286613
0.0041125427
0.05520612
0.059365851
0.063904483
0.068802562
0.07402
0.07946628
0.084985147
0.090335074
0.095162854
0.098955785
0.1009786
0.10022839
0.095384984
0.084905196
0.067329825
0.043340798
0.020848989
0.0107684
0.0078242301
0.0066678791
0.0058855309
0.0053326019
0.0049942463
0.0047015849
0.0044822092
0.0043674181
0.0042700816
0.0042057409
0.0041567894
0.0041278084
0.0041118334
0.064287455
0.067943832
0.072003139
0.076369026
0.080989603
0.08576732
0.090542507
0.095070615
0.098991615
0.10178236
0.10269624
0.10071438
0.094509319
0.082578098
0.063642234
0.039108049
0.018311092
0.010074551
0.0076561974
0.0065946875
0.0058493303
0.0053095048
0.0049777179
0.0046918845
0.0044757991
0.0043632403
0.0042675239
0.00420401
0.0041556407
0.0041269172
0.0041109269
0.074194715
0.077289403
0.080772252
0.084505146
0.088426425
0.092429816
0.096347786
0.099927641
0.10279887
0.10442623
0.10405138
0.10064235
0.092873971
0.079305277
0.058925166
0.03415963
0.016059301
0.0094308014
0.0074894532
0.0065047823
0.0058023803
0.0052784441
0.004955111
0.0046784949
0.0044668104
0.0043573383
0.0042639652
0.0042016932
0.0041541686
0.0041258302
0.0041099306
0.084623191
0.087121675
0.089953516
0.092964997
0.096086589
0.099203625
0.10213916
0.10462965
0.10629165
0.10657625
0.10471332
0.099661799
0.090115754
0.074728824
0.052897115
0.028559149
0.013949781
0.0088429576
0.007313502
0.006410895
0.0057544914
0.0052473295
0.0049325293
0.0046654699
0.0044582914
0.0043515596
0.004260512
0.0041993542
0.0041526512
0.0041246484
0.0041090027
0.095072033
0.096947718
0.099069088
0.10128334
0.10351254
0.1056329
0.10745699
0.10870898
0.10899131
0.1077409
0.10417692
0.097255568
0.085721467
0.068372985
0.045265699
0.022596393
0.012013176
0.0083647654
0.0071327209
0.0063027383
0.0056968274
0.005208875
0.004904596
0.004649156
0.0044474913
0.0043441749
0.0042561371
0.0041964451
0.0041508182
0.0041232549
0.0041081846
0.10474277
0.10597319
0.10733441
0.10868615
0.10994002
0.11096101
0.11154942
0.1114156
0.11014714
0.10716784
0.10168963
0.0926759
0.07898201
0.059638297
0.035877722
0.017532908
0.010387421
0.0080020098
0.0069382786
0.0061870111
0.0056354488
0.0051683581
0.0048757009
0.004632365
0.004436682
0.0043365238
0.0042516625
0.0041933797
0.0041488708
0.0041217238
0.0041073391
0.11238141
0.11295637
0.11351869
0.11395591
0.11416665
0.11400208
0.11324727
0.11159643
0.10862243
0.10373983
0.096161836
0.084872323
0.068952403
0.047883613
0.025216411
0.013633037
0.0091235223
0.0076319587
0.0067300576
0.0060573925
0.0055635713
0.0051202062
0.0048418003
0.0046121247
0.0044236443
0.0043272017
0.0042462428
0.0041896909
0.004146568
0.0041199499
0.0041062661
0.11610563
0.11602585
0.11577422
0.11526965
0.1143957
0.11298783
0.11081332
0.1075491
0.10275691
0.095853936
0.086077131
0.072437594
0.054518542
0.032792952
0.017163781
0.010793209
0.0083580999
0.0073248605
0.0065105788
0.0059188644
0.0054863476
0.0050690605
0.0048061847
0.0045907762
0.0044103473
0.0043172382
0.0042405786
0.0041857203
0.0041440392
0.0041179831
0.0041046883
0.11316035
0.11241636
0.11137163
0.1099451
0.10799947
0.10534913
0.10174141
0.096839113
0.090208096
0.081304099
0.069462846
0.053631821
0.034820307
0.019945554
0.012296873
0.0090377876
0.0079104202
0.0069564635
0.006288667
0.0057683539
0.0053937839
0.0050107155
0.0047651586
0.0045659217
0.0043948606
0.0043053201
0.0042338768
0.0041810376
0.0041410232
0.0041157076
0.0041025546
0.09966322
0.098356951
0.096612716
0.094339701
0.091382035
0.08754536
0.082563719
0.076101834
0.067791927
0.057255849
0.044348076
0.031463887
0.020230872
0.012882739
0.009455278
0.0082863365
0.0073259449
0.0066603131
0.0060520846
0.0056149507
0.0052987479
0.004948057
0.0047205498
0.0045400521
0.0043791187
0.0042924605
0.0042267323
0.0041759742
0.0041376252
0.0041131546
0.0041001734
0.070847174
0.069005077
0.066725492
0.064049537
0.060872219
0.05702849
0.052354363
0.046741811
0.040181105
0.032742354
0.024796242
0.017533961
0.012231126
0.0093968278
0.008197185
0.0075546555
0.0069673952
0.0062942998
0.0058375722
0.0054544802
0.0051885961
0.0048800171
0.0046691569
0.0045105838
0.0043612925
0.0042779517
0.0042182503
0.0041701175
0.004133651
0.0041101949
0.004097585
0.040358866
0.039162699
0.037682477
0.035913547
0.033732114
0.031068601
0.0280294
0.024734779
0.021148388
0.017343019
0.013601562
0.010559508
0.0087186765
0.0078884158
0.0076361982
0.0070345913
0.0064101735
0.0060347611
0.0056211216
0.0052979044
0.0050781605
0.0048068729
0.0046203762
0.0044779235
0.0043436415
0.0042629012
0.0042091717
0.0041638355
0.0041293213
0.0041068512
0.0040948917
0.019947648
0.019515209
0.018876541
0.018062285
0.017042097
0.01581689
0.01443322
0.012961626
0.011447104
0.0099535482
0.0086437634
0.0077363847
0.0072595405
0.0073160169
0.0066759854
0.0063606531
0.0061307708
0.0057120518
0.005422693
0.0051396856
0.0049536976
0.0047354875
0.0045626122
0.004442493
0.0043247672
0.0042468035
0.0041988723
0.0041566544
0.0041245654
0.0041030237
0.0040915387
0.010414861
0.010312796
0.010100932
0.0098008835
0.0094236525
0.0089868199
0.0085264928
0.0080450719
0.0075426107
0.0070907278
0.0068815969
0.0067716469
0.0067845798
0.0062990516
0.0061854347
0.0060339302
0.005675532
0.0054795126
0.0052275625
0.0050123109
0.0048298975
0.0046494839
0.0045135062
0.0044078823
0.0043039707
0.0042304497
0.0041885835
0.0041494313
0.004119548
0.0040988332
0.0040880558
0.0069012284
0.0068798236
0.0068186992
0.0067282709
0.0066164324
0.0064720126
0.0063725044
0.0062838417
0.006235308
0.0062229728
0.0062560688
0.0061591005
0.0058397729
0.0057697538
0.0055551442
0.0054725828
0.0054660106
0.0052448098
0.0050293807
0.0048488233
0.0047032453
0.004581445
0.0044536901
0.0043653853
0.0042844259
0.0042141181
0.0041776828
0.00414097
0.0041143074
0.0040943673
0.0040840428
0.0057502755
0.0057240228
0.0057019448
0.0056838141
0.0056794893
0.0057077111
0.005730218
0.005709058
0.0056902381
0.0056638321
0.0055799579
0.0055109114
0.0055268052
0.0053493659
0.0052386549
0.0052295249
0.0051103012
0.0050297065
0.0048349898
0.0047180742
0.0045910894
0.0045062285
0.0043972465
0.0043259847
0.0042630228
0.0041990713
0.0041674016
0.0041327674
0.0041090252
0.0040896424
0.0040796397
0.0052897381
0.0052916029
0.005295264
0.0053044752
0.0053237465
0.0053460681
0.0053271493
0.0053159745
0.005282681
0.0052153475
0.0051714867
0.0051401648
0.0050400241
0.0050585371
0.0050329787
0.0048928769
0.0048129851
0.0047681368
0.0046467556
0.0045495923
0.0045014026
0.0044445611
0.0043401817
0.0042828825
0.0042422896
0.0041859253
0.0041568992
0.0041240497
0.0041030069
0.0040847712
0.0040754136
0.0049412829
0.0049404438
0.0049345805
0.0049204171
0.0048954706
0.0048634124
0.0048668565
0.004860472
0.0048522511
0.0048462391
0.0048468735
0.0048286219
0.0048297485
0.0047631503
0.0047305163
0.0047181511
0.0045944461
0.0045460555
0.0045168704
0.0044803073
0.0044322244
0.0043752986
0.0042958117
0.0042464818
0.0042249631
0.004172346
0.0041467254
0.0041169416
0.0040967622
0.0040795987
0.004070024
0.004615095
0.0046173595
0.0046170746
0.0046151751
0.0046135655
0.0046178057
0.0046287413
0.0046286997
0.004623229
0.0046037209
0.0045778276
0.0045562437
0.0045267171
0.0045250901
0.0044986634
0.004470933
0.004473126
0.0044436978
0.0044236283
0.0043941102
0.0043388883
0.0042930931
0.0042646
0.0042207496
0.004201591
0.0041608833
0.0041353074
0.004109085
0.0040896438
0.0040741908
0.0040653433
0.004443341
0.0044458626
0.0044460977
0.0044442653
0.0044402437
0.0044326885
0.0044183094
0.0044157442
0.0044135187
0.0044108836
0.004406083
0.0044017042
0.0043922271
0.0043844871
0.0043818474
0.0043372047
0.0043538069
0.004311035
0.0042865639
0.0042902298
0.0042871402
0.0042447946
0.0042212255
0.0041974407
0.0041814511
0.004149427
0.004121107
0.0041020865
0.0040823827
0.0040682868
0.0040602853
0.0042808765
0.0042833468
0.004284325
0.0042843149
0.00428442
0.0042852482
0.0042902703
0.0042976486
0.0043006886
0.00430237
0.0043035965
0.0043007748
0.004295099
0.0042663153
0.0042591381
0.0042557437
0.0042470262
0.0042238386
0.0042426151
0.0042368047
0.0042334952
0.0042141809
0.0041805406
0.0041672484
0.0041524931
0.0041341486
0.0041051192
0.0040914293
0.004074284
0.0040623539
0.004055283
0.0041986974
0.004201129
0.0042022023
0.0042022002
0.0042015907
0.0041999783
0.0041967141
0.0041929619
0.004191689
0.004191559
0.0041907139
0.004188778
0.0041849713
0.0041918686
0.0041862411
0.0041855067
0.004174567
0.0041771374
0.0041992338
0.0041883659
0.0041883281
0.0041781478
0.0041530998
0.0041340154
0.0041146904
0.0041138413
0.0040926346
0.0040799812
0.0040665955
0.0040562389
0.0040508761
0.0041240083
0.0041253328
0.0041259842
0.0041263434
0.0041268511
0.0041275684
0.0041283937
0.0041293652
0.0041322444
0.0041336069
0.0041338714
0.0041328944
0.0041306786
0.0041231923
0.0041220856
0.0041227209
0.0041220518
0.004129436
0.0041249378
0.0041202345
0.0041147776
0.0041188207
0.0041135024
0.0041010113
0.0040907953
0.0040882479
0.0040800398
0.0040678218
0.0040578191
0.0040505681
0.0040459272
0.0040912414
0.0040922895
0.00409272
0.0040927145
0.00409255
0.0040923884
0.0040923194
0.0040921181
0.0040913046
0.0040911306
0.0040910418
0.0040908749
0.0040912851
0.0040922915
0.0040939544
0.0040954646
0.0041000124
0.0040987496
0.0040889179
0.004089873
0.0040881338
0.0040881798
0.0040882347
0.0040852189
0.0040775844
0.0040703537
0.0040667134
0.0040589819
0.0040520156
0.0040456034
0.0040423594
0.0040610877
0.0040616104
0.0040619693
0.0040623126
0.0040627873
0.0040634339
0.0040642347
0.0040651769
0.0040663058
0.0040680673
0.0040702985
0.0040730578
0.0040762214
0.0040790406
0.0040791444
0.0040795
0.0040777436
0.0040754812
0.0040715337
0.0040730694
0.0040770664
0.0040721792
0.0040684355
0.0040672857
0.0040663358
0.0040610356
0.0040571153
0.0040518638
0.0040469766
0.0040426704
0.0040406385
0.004048299
0.0040485566
0.0040487084
0.0040488636
0.0040491087
0.0040494674
0.0040499459
0.004050567
0.0040513702
0.0040523748
0.0040535398
0.00405466
0.0040555423
0.0040559858
0.0040560864
0.004055956
0.0040569958
0.00405686
0.0040615476
0.0040588739
0.0040588898
0.004060252
0.0040573537
0.0040573177
0.0040556896
0.0040545235
0.0040509513
0.0040475333
0.0040439515
0.0040403116
0.0040370297
0.0040416544
0.0040415828
0.0040415003
0.0040414825
0.0040415402
0.0040416744
0.0040418893
0.004042205
0.0040426486
0.0040432686
0.0040440281
0.0040448913
0.004045895
0.0040465869
0.0040464232
0.0040462456
0.0040460251
0.0040471596
0.0040478553
0.0040489802
0.0040487713
0.004049509
0.0040501028
0.0040499031
0.0040493414
0.0040484313
0.0040470405
0.0040450869
0.0040403882
0.0040376053
0.004037678
0.0040377312
0.0040378889
0.0040380578
0.0040382306
0.0040384223
0.004038644
0.0040389069
0.0040392211
0.0040395898
0.0040400827
0.0040406704
0.004041376
0.0040419192
0.0040418671
0.0040416161
0.0040413976
0.004041405
0.0040419007
0.0040432865
0.0040435563
0.0040449976
0.0040446508
0.0040454689
0.0040452279
0.0040454294
0.0040446818
0.0040440281
0.0040415361
0.0040399098
0.0040394347
0.0040378926
0.00071253379
0.0015474859
0.0031231109
0.0055163124
0.00870023
0.012750113
0.017744488
0.023729562
0.03082476
0.038515803
0.04695855
0.055776657
0.064305966
0.071505073
0.075804495
0.074971803
0.066203987
0.048500857
0.027625036
0.013386419
0.0077360691
0.006090881
0.0054279268
0.0049738224
0.0046807481
0.0044783376
0.0043429224
0.0042521777
0.0041900877
0.0041519043
0.0041291144
0.001739869
0.0035441129
0.0059787202
0.0088860422
0.012433421
0.016735444
0.021852094
0.028052865
0.034938919
0.042576326
0.050850554
0.059329807
0.06730635
0.073686467
0.076851551
0.074545984
0.064058072
0.045091161
0.024381783
0.011853419
0.0073293261
0.0059609907
0.0053752826
0.0049432623
0.0046625046
0.0044683905
0.0043372897
0.0042490648
0.0041882223
0.0041508269
0.0041284838
0.0032750269
0.0052740641
0.0077341513
0.010808511
0.014626281
0.019270777
0.024834316
0.031232486
0.038304415
0.046055517
0.05426081
0.062463488
0.069924858
0.075510053
0.077562937
0.07382462
0.061725765
0.04181169
0.021845281
0.010836192
0.0069890569
0.0059025564
0.0053509847
0.0049286837
0.0046534975
0.0044634411
0.0043342077
0.0042471732
0.0041868258
0.0041499164
0.0041278876
0.0048217557
0.0070033572
0.0097601351
0.013173286
0.017284024
0.022188926
0.027996271
0.034430623
0.041598308
0.049368149
0.05744849
0.065343326
0.072271007
0.077052131
0.077996374
0.072856538
0.059245704
0.038667984
0.019628568
0.0098819555
0.0068035033
0.0058311908
0.0053139889
0.004905429
0.0046387442
0.0044554184
0.0043294558
0.0042444734
0.0041851263
0.0041488925
0.0041273602
0.0063099647
0.0087979566
0.011858351
0.015535093
0.019906634
0.025083476
0.030956449
0.037542882
0.044800048
0.052549159
0.060466256
0.068021064
0.074390376
0.078352868
0.078189454
0.071677784
0.056655688
0.035645173
0.017666724
0.0092549651
0.0066321564
0.0057805139
0.0052897666
0.0048900661
0.0046289187
0.0044501842
0.0043261669
0.0042424823
0.0041836958
0.0041479581
0.0041268624
0.0079013943
0.010651315
0.013948612
0.017857775
0.022516992
0.027881795
0.033901501
0.040616765
0.047923189
0.055613189
0.063333665
0.070519655
0.076308152
0.07943955
0.078171795
0.070315528
0.053996712
0.032751389
0.015944417
0.0086293991
0.0065098811
0.0057281633
0.0052605492
0.0048709429
0.0046164381
0.0044434706
0.0043220295
0.0042400733
0.0041821064
0.0041469623
0.0041262151
0.0094453121
0.012440669
0.015993963
0.020186354
0.025078831
0.030605785
0.036801938
0.04362654
0.050955076
0.058558715
0.066056771
0.072851
0.078041405
0.080334108
0.077969523
0.068804244
0.051306408
0.030028949
0.014470955
0.0082169224
0.0064048394
0.0056853826
0.005238078
0.0048561699
0.004606685
0.0044383627
0.0043187397
0.0042380822
0.0041806799
0.0041460166
0.004125597
0.010942382
0.014209986
0.018031116
0.022520132
0.027591634
0.033304721
0.039650053
0.04655895
0.053887116
0.061382814
0.068638217
0.075023513
0.079604546
0.081056887
0.07760812
0.06717381
0.048616817
0.027512638
0.013251122
0.0078501813
0.0063245463
0.0056440507
0.0052141175
0.0048400604
0.0045958539
0.0044326246
0.0043150585
0.0042358953
0.0041791802
0.0041450377
0.0041250723
0.01243913
0.01596198
0.020054345
0.024772507
0.030048842
0.035945195
0.042425281
0.049401901
0.056712195
0.064082788
0.071080274
0.077045196
0.081011962
0.081629045
0.077118476
0.065456238
0.045972193
0.025231471
0.012248196
0.0075899916
0.0062547449
0.005608185
0.0051940083
0.0048265713
0.0045866401
0.0044278528
0.0043118903
0.0042339651
0.0041777849
0.0041440894
0.0041245797
0.013885835
0.017668427
0.022038055
0.026954291
0.032446216
0.038517541
0.045118359
0.052147484
0.059424946
0.066656991
0.073386093
0.078924958
0.082279146
0.082073121
0.076535222
0.06369907
0.043410471
0.023202954
0.011455358
0.0074025088
0.0061981791
0.0055747668
0.0051739307
0.0048129371
0.0045771435
0.0044228856
0.0043085795
0.0042319612
0.0041763655
0.0041431269
0.0041238359
0.015318405
0.019353119
0.023962344
0.02908465
0.03478307
0.041013771
0.047720677
0.0547886
0.062021051
0.069104939
0.075560064
0.080673
0.083422924
0.082413799
0.075887488
0.061938545
0.040958746
0.021434796
0.010797026
0.0072494282
0.0061481419
0.0055452306
0.0051563108
0.0048010836
0.0045687072
0.0044185389
0.0043056042
0.0042301254
0.0041750188
0.0041421825
0.004123026
0.016710348
0.020999148
0.025818314
0.031158424
0.037048282
0.043423009
0.050223781
0.057318857
0.064497146
0.071427235
0.077607757
0.082300625
0.084460886
0.082679477
0.075204045
0.060206264
0.038655933
0.01992658
0.010291481
0.0071360932
0.0061064969
0.0055184024
0.0051393914
0.0047896694
0.0045603886
0.0044142125
0.0043026216
0.004228281
0.0041736761
0.0041412317
0.0041224023
0.018076773
0.022597305
0.027622446
0.033167158
0.039222313
0.04573639
0.052620003
0.059732588
0.066850655
0.073625327
0.079535631
0.083820202
0.085413315
0.082890402
0.074511188
0.058534702
0.036528292
0.018666269
0.0098993617
0.0070471004
0.0060699587
0.0054947326
0.0051242877
0.0047796211
0.0045528543
0.004410317
0.0042998821
0.0042265558
0.0041723898
0.0041402958
0.0041218707
0.019417017
0.024144759
0.029371161
0.035102279
0.041301045
0.047948172
0.054901487
0.062024292
0.069079854
0.075702606
0.08135232
0.085249137
0.086298828
0.08306772
0.073834994
0.056950045
0.034596971
0.017637222
0.009620751
0.0069805509
0.006039382
0.0054737177
0.0051102173
0.0047702895
0.0045456462
0.004406544
0.0042972088
0.004224856
0.0041711228
0.0041393625
0.0041213301
0.020735898
0.025646058
0.031058425
0.036959393
0.043306252
0.050029875
0.057063307
0.064192453
0.071185875
0.077666826
0.083069769
0.086598937
0.087135901
0.083242608
0.073212876
0.055471661
0.032876137
0.016823013
0.0094270766
0.0069306238
0.0060134046
0.0054554476
0.0050977037
0.004762108
0.0045390992
0.0044030947
0.0042947312
0.0042232476
0.0041699034
0.0041384435
0.0041205096
0.022015833
0.027097896
0.032677345
0.038728471
0.045203209
0.052025476
0.059081197
0.066230925
0.073168982
0.079513756
0.084689438
0.087877969
0.087945229
0.083442079
0.072678574
0.054121787
0.031374301
0.016214194
0.0092871539
0.0068926329
0.0059921093
0.005439674
0.0050864091
0.0047547563
0.0045330059
0.0043998102
0.0042923588
0.0042216814
0.0041687123
0.0041375315
0.0041197083
0.023202691
0.028458847
0.034197747
0.040388347
0.046976952
0.053884045
0.060983595
0.068105519
0.074993279
0.081235399
0.086210759
0.089100089
0.088744877
0.083691083
0.072263217
0.052950965
0.030133797
0.015706924
0.0091443688
0.006861937
0.0059750474
0.0054263831
0.0050765665
0.0047484176
0.0045275465
0.0043967853
0.0042901565
0.004220191
0.0041675642
0.0041366337
0.0041191649
0.024260633
0.029660633
0.035542461
0.041864048
0.048566855
0.055561131
0.062718549
0.069852766
0.076688019
0.082809923
0.087631343
0.090275052
0.089551427
0.084012218
0.071994004
0.052005614
0.029138862
0.015285965
0.0090257674
0.0068407413
0.005962444
0.0054154571
0.005068013
0.0047429228
0.0045226425
0.0043939383
0.0042880788
0.0042187513
0.0041664507
0.0041357461
0.0041186964
0.025384658
0.03084299
0.036798035
0.043202761
0.049986565
0.05705257
0.064263641
0.071423449
0.078243718
0.084299234
0.088978736
0.091388432
0.090377545
0.084425274
0.071894133
0.051317606
0.028373707
0.014934737
0.0089188108
0.0068275931
0.0059541429
0.0054069064
0.0050608336
0.004738344
0.0045183928
0.0043913153
0.004286159
0.0042173808
0.0041653798
0.0041348723
0.0041180651
0.026491068
0.031990964
0.037984213
0.044431488
0.051262204
0.058376285
0.065629056
0.072815614
0.079636124
0.08565405
0.090241876
0.092500669
0.091238407
0.084922061
0.071981749
0.050911272
0.027828414
0.014639214
0.0088249447
0.0068230326
0.0059503516
0.0054007525
0.0050549589
0.0047347269
0.0045146612
0.0043888832
0.0042843768
0.0042160684
0.0041643471
0.0041340099
0.0041171808
0.027567832
0.033076105
0.039076483
0.045535452
0.052384514
0.059526681
0.06680947
0.074024981
0.080861185
0.086871754
0.091414029
0.093576703
0.09214268
0.085574572
0.072264235
0.050809693
0.027503102
0.014380612
0.0087381004
0.0068239102
0.0059512771
0.0053971341
0.0050504547
0.0047322736
0.0045113531
0.0043866713
0.0042827493
0.0042148233
0.0041633548
0.0041331593
0.0041162505
0.028601122
0.034085132
0.040059085
0.046499657
0.053339458
0.060494638
0.067821345
0.075089873
0.081975775
0.088000913
0.092519051
0.094626262
0.093090248
0.086353512
0.072780359
0.051035
0.027413451
0.01413389
0.0086559327
0.0068346798
0.005957494
0.005396203
0.0050473157
0.0047309963
0.0045084185
0.0043846596
0.0042812607
0.0042136366
0.0041623967
0.0041323182
0.0041156344
0.029599346
0.034999478
0.040897399
0.047286992
0.054126502
0.061309296
0.068675575
0.075981731
0.082894064
0.088955373
0.093508031
0.09563098
0.094078234
0.087264001
0.073516986
0.051605747
0.027560636
0.013862783
0.0085745948
0.0068517347
0.0059685183
0.0053971847
0.0050454662
0.0047307408
0.0045059338
0.0043828263
0.0042798964
0.0042124999
0.0041614668
0.0041314813
0.0041151082
0.03056254
0.035786791
0.041516523
0.047775037
0.054541254
0.061699389
0.069078231
0.076434803
0.083429124
0.089583661
0.094231605
0.096438982
0.094941359
0.088132564
0.07429491
0.052301892
0.027940646
0.013501937
0.0084886862
0.0068714407
0.0059837752
0.0053997677
0.0050446115
0.0047310453
0.0045038559
0.0043811221
0.004278629
0.004211405
0.0041605622
0.0041306543
0.0041143916
0.00072857269
0.0014938633
0.0029760942
0.0052379382
0.0082592125
0.012064423
0.016778302
0.02249419
0.029359686
0.036888716
0.045235305
0.054044811
0.062685866
0.070171128
0.07497638
0.074899627
0.06709226
0.050110254
0.029076954
0.013852359
0.0078550514
0.0061293516
0.0054441195
0.0049832826
0.0046873719
0.0044820022
0.004345282
0.0042536339
0.0041911906
0.0041526135
0.0041293847
0.0007728074
0.0015306612
0.0029891206
0.0051852804
0.0081244954
0.011866366
0.016508213
0.022133142
0.028877484
0.036332651
0.044552669
0.053258911
0.061878653
0.069427937
0.074411453
0.074657209
0.067350058
0.050846477
0.029842115
0.014177643
0.0079362923
0.0061532557
0.0054541495
0.0049890505
0.0046917042
0.0044844244
0.0043468518
0.00425462
0.0041919336
0.0041531547
0.0041296124
0.00082747308
0.0015725824
0.0030086521
0.0051617638
0.0080424357
0.011708682
0.016253862
0.021765243
0.028358512
0.035708346
0.04382403
0.052452698
0.061043084
0.068650403
0.073809722
0.07438241
0.067587589
0.05159356
0.030655799
0.014544627
0.0080216633
0.0061781857
0.0054648362
0.0049953387
0.0046961795
0.0044869489
0.0043485449
0.0042556797
0.0041927948
0.0041536834
0.0041298708
0.00089175087
0.001617398
0.0030259352
0.0051358052
0.0079571344
0.011547301
0.015996216
0.021395627
0.027836344
0.035074054
0.043080108
0.051622931
0.060179389
0.067838209
0.073169819
0.074072717
0.067800206
0.052349356
0.031517083
0.014952282
0.0081257791
0.0062068277
0.0054759991
0.0050014703
0.0047009673
0.0044896313
0.0043502765
0.0042567793
0.0041935948
0.0041543027
0.004130163
0.00097214641
0.0016718399
0.0030468755
0.00511086
0.0078717963
0.011384765
0.015736628
0.021016498
0.027311417
0.034432111
0.04232326
0.050774249
0.059289353
0.066992307
0.07249139
0.073726181
0.06798288
0.053113394
0.032421319
0.015403875
0.0082302188
0.0062352397
0.005488495
0.0050089647
0.0047059181
0.0044925778
0.0043522506
0.0042580133
0.004194601
0.0041549378
0.0041304529
0.0010682172
0.0017315671
0.0030686416
0.0050849182
0.007785197
0.011221125
0.015476147
0.020635433
0.02678661
0.033786544
0.04155772
0.049910661
0.058376279
0.066115017
0.071775092
0.073341318
0.068132956
0.053881007
0.033358773
0.015897528
0.0083654281
0.0062698266
0.0055013054
0.0050158431
0.0047113572
0.0044956407
0.0043542936
0.0042592964
0.0041956013
0.0041556185
0.0041307572
0.0011902219
0.0018117097
0.0031002531
0.0050663014
0.0077057944
0.011064911
0.0152233
0.020265078
0.026268221
0.033143074
0.040787201
0.04903436
0.057440548
0.065206027
0.071019504
0.072915532
0.068250094
0.054649484
0.034348681
0.016443416
0.0084907181
0.0063054545
0.0055149331
0.0050234566
0.0047168781
0.0044988935
0.0043564596
0.004260664
0.0041966694
0.0041563312
0.0041311098
0.0013375617
0.0019042307
0.003141029
0.0050529375
0.0076304181
0.010912286
0.014973657
0.019897151
0.025755889
0.032495729
0.040007195
0.048141036
0.056475998
0.064261723
0.070221189
0.072445062
0.068330297
0.055410106
0.035408735
0.017044604
0.0086612231
0.006344087
0.0055293016
0.0050313029
0.0047225127
0.0045022436
0.0043587353
0.0042620923
0.0041977874
0.0041570914
0.004131491
0.001514514
0.002017793
0.0031955547
0.0050502533
0.0075648799
0.010769767
0.014734622
0.019540132
0.025255951
0.031855123
0.039227887
0.047241279
0.055502687
0.06329055
0.069385002
0.071929867
0.068368639
0.05615821
0.036517342
0.017705745
0.0088286888
0.0063862566
0.0055442091
0.0050395174
0.0047284555
0.004505827
0.004361138
0.0042636126
0.0041989797
0.0041578921
0.0041319465
0.0017294414
0.0021653015
0.0032704246
0.005063072
0.0075134614
0.010641724
0.014510641
0.019197305
0.0247601
0.031223771
0.038454051
0.046339935
0.05451977
0.062295823
0.068512617
0.071369096
0.068361414
0.056892935
0.037670819
0.018432101
0.009036037
0.0064318597
0.0055600677
0.0050479021
0.0047343768
0.0045094432
0.0043636736
0.0042652072
0.0042002292
0.0041587445
0.0041324063
0.0019825053
0.0023455235
0.0033701652
0.0050970636
0.0074819278
0.01053378
0.014307262
0.018874867
0.02429214
0.030609279
0.037691915
0.045442133
0.053523978
0.061280902
0.06760635
0.070762656
0.068304644
0.057600674
0.038866403
0.019230076
0.0092564583
0.0064822195
0.0055760517
0.0050566216
0.0047407155
0.0045133991
0.0043663425
0.0042669022
0.0042015646
0.0041596387
0.0041329324
0.0022709476
0.0025668229
0.0035097925
0.0051605501
0.007477204
0.010452708
0.014131397
0.018580795
0.023859743
0.030029695
0.036949853
0.044554559
0.052527224
0.060250493
0.066669286
0.070111182
0.068195195
0.058268086
0.040069924
0.02009832
0.0095125084
0.0065362682
0.0055935182
0.0050655965
0.0047468671
0.0045172279
0.0043691514
0.0042686769
0.0042029484
0.0041605909
0.0041334618
0.0025849098
0.0028259227
0.0036914416
0.0052617724
0.0075068981
0.010406216
0.013991167
0.018323164
0.023462145
0.029458279
0.036230464
0.043683916
0.051535984
0.05920896
0.065705189
0.069416084
0.068030838
0.058889023
0.041269406
0.021041909
0.0097962801
0.0065966731
0.0056103049
0.005074501
0.0047534112
0.0045215789
0.0043721004
0.0042705527
0.0042044364
0.0041615859
0.0041340652
0.0029183423
0.0031281595
0.0039239185
0.0054240705
0.0075940792
0.01041209
0.013900073
0.018112895
0.023109396
0.028930474
0.035550182
0.042839711
0.050557496
0.058157167
0.064718546
0.06867966
0.067810209
0.059456607
0.042475696
0.022061982
0.010118387
0.006661414
0.0056292325
0.0050842378
0.0047597841
0.004525583
0.0043751945
0.0042725274
0.0042059544
0.0041626469
0.0041346961
0.003255809
0.0034618907
0.0042147902
0.0056444099
0.0077419058
0.010479167
0.013870556
0.017960842
0.022812644
0.028467778
0.034918935
0.0420315
0.049602178
0.057128915
0.063717643
0.067905418
0.067532749
0.059963719
0.043677262
0.023161601
0.010480391
0.0067332546
0.0056473032
0.0050928503
0.0047660737
0.0045303153
0.0043784441
0.0042745819
0.0042076027
0.0041637511
0.0041353153
0.0035850826
0.0038199151
0.0045541519
0.005931831
0.007964325
0.010622479
0.013916498
0.017881995
0.022581886
0.028065707
0.034316578
0.041262741
0.048677613
0.05611
0.062708423
0.067097761
0.067198906
0.060403745
0.044871644
0.024325561
0.010887145
0.0068128551
0.0056663146
0.0051032773
0.0047727556
0.0045345938
0.0043818444
0.00427679
0.0042092524
0.0041649412
0.0041361038
0.0039370857
0.0042368416
0.0049922036
0.0063451732
0.0083059817
0.010875435
0.014062408
0.017895627
0.022432691
0.02773904
0.033794739
0.040557953
0.047794801
0.055106359
0.06169737
0.066262004
0.066810731
0.060772445
0.046051917
0.025592129
0.011347177
0.0068971459
0.0056877797
0.0051115344
0.0047781559
0.0045395793
0.004385431
0.0042790121
0.0042110623
0.0041661672
0.0041368923
0.0043420494
0.0047310882
0.0055365995
0.0068742541
0.0087732428
0.011252542
0.014324295
0.018016829
0.022379623
0.027501297
0.033359045
0.03991711
0.046962619
0.054134037
0.060692593
0.065404288
0.06637175
0.061071311
0.047217553
0.026930547
0.011858165
0.006996947
0.0057037451
0.0051211395
0.0047850606
0.0045445044
0.0043891593
0.0042815014
0.0042128371
0.0041674846
0.0041374844
0.0048742995
0.0053592562
0.0062158324
0.0075412315
0.0093939885
0.011770265
0.014714165
0.018255467
0.022433283
0.027360291
0.033005027
0.039325233
0.046183344
0.05320004
0.059701751
0.064530731
0.065884075
0.06130209
0.048347962
0.028288033
0.012437726
0.0070995096
0.0057297193
0.0051303168
0.0047896271
0.0045494235
0.0043931316
0.0042838853
0.0042147884
0.0041688372
0.0041381655
0.0056201001
0.0061795386
0.0070704322
0.0083787711
0.010158599
0.012426329
0.015233138
0.018613096
0.022598097
0.02732035
0.03274285
0.03883574
0.045470649
0.052311516
0.058728303
0.063646561
0.065349336
0.061453671
0.049414387
0.029714765
0.013070689
0.0072219389
0.0057429093
0.005136521
0.0047958807
0.0045555537
0.0043971712
0.0042867022
0.0042166696
0.0041702825
0.004139013
0.006624736
0.0072101147
0.0080992035
0.0093616556
0.01104615
0.013207921
0.015869655
0.019079956
0.022868897
0.027378051
0.032570489
0.038425252
0.04482787
0.051472435