/*--------------------------------*- C++ -*----------------------------------*\
| =========                 |                                                 |
| \\      /  F ield         | OpenFOAM: The Open Source CFD Toolbox           |
|  \\    /   O peration     | Version:  2406                                  |
|   \\  /    A nd           | Website:  www.openfoam.com                      |
|    \\/     M anipulation  |                                                 |
\*---------------------------------------------------------------------------*/
FoamFile
{
    version     2.0;
    format      ascii;
    arch        "LSB;label=32;scalar=64";
    class       surfaceScalarField;
    location    "0.014";
    object      phi;
}
// * * * * * * * * * * * * * * * * * * * * * * * * * * * * * * * * * * * * * //

dimensions      [1 0 -1 0 0 0 0];

oriented        oriented;

internalField   nonuniform List<scalar> 
16284
(
0.010625341
-0.0148176
0.015268841
-0.011076574
0.01017826
-0.017397741
0.017844824
0.0097096323
-0.020358318
0.020826932
0.0092226822
-0.023779277
0.024266195
0.0087246402
-0.027730628
0.028228616
0.008225956
-0.032279324
0.032777918
0.0077388788
-0.037501408
0.037988359
0.0072731127
-0.043488722
0.043954333
0.0068343938
-0.05036669
0.050805238
0.0064249542
-0.058279061
0.058688331
0.0060453367
-0.067355188
0.067734656
0.005691034
-0.077763921
0.078118097
0.0053517466
-0.089674076
0.090013243
0.0050099552
-0.10321814
0.10355981
0.0046367461
-0.11823478
0.11860784
0.0041657285
-0.13438115
0.13485201
0.0035768886
-0.15082412
0.15141279
0.0030394034
-0.16832595
0.16886327
0.002640777
-0.18945368
0.18985211
0.0023055037
-0.21405662
0.21439162
0.0020108109
-0.24208353
0.24237785
0.0017424645
-0.27371932
0.27398723
0.0014933922
-0.30964797
0.30989655
0.0012710437
-0.3503669
0.35058864
0.0010679588
-0.39647482
0.39667722
0.00087818111
-0.44908872
0.44927778
0.00069882449
-0.5086692
0.50884772
0.00052585017
-0.57647361
0.57664566
0.00035526136
-0.65339137
0.65356112
0.00018115086
-0.74096086
0.74113424
-0.84015782
0.84033799
0.011777598
-0.014422389
-0.012172809
0.011333699
-0.01695385
0.010862703
-0.019887345
0.010368501
-0.02328512
0.0098559026
-0.027218105
0.0093343643
-0.031757893
0.0088159175
-0.036983104
0.0083124654
-0.042985443
0.007830116
-0.049884524
0.0073720307
-0.057821147
0.0069409429
-0.06692425
0.0065337294
-0.077356837
0.0061401932
-0.089280667
0.0057370374
-0.10281511
0.0052930271
-0.11779094
0.0047325258
-0.13382083
0.0040442384
-0.15013602
0.0034410396
-0.16772294
0.0029949631
-0.18900781
0.00261576
-0.21367771
0.0022813027
-0.24174949
0.001976853
-0.27341536
0.0016942477
-0.30936592
0.0014420681
-0.3501154
0.0012119704
-0.3962455
0.00099655939
-0.44887411
0.00079319188
-0.50846679
0.00059673819
-0.5762782
0.00040322891
-0.65319881
0.00020517133
-0.74076363
-0.83995345
0.012928607
-0.014076957
-0.013274055
0.012525662
-0.016550929
0.012078665
-0.019440388
0.011595775
-0.022802293
0.011083596
-0.026706017
0.010551401
-0.031225821
0.01001103
-0.036442885
0.0094755032
-0.042450093
0.0089531801
-0.049362383
0.0084471131
-0.057315249
0.007962551
-0.066439836
0.0074976054
-0.076892023
0.0070424125
-0.088825609
0.0065685095
-0.10234136
0.0060401592
-0.11726278
0.0053711124
-0.13315198
0.0045710248
-0.14933615
0.0039057322
-0.16705784
0.003407404
-0.18850972
0.0029776159
-0.21324826
0.0025967426
-0.24136909
0.0022500172
-0.2730692
0.0019279591
-0.30904449
0.0016406189
-0.34982883
0.0013788712
-0.39598463
0.0011334909
-0.44862966
0.00090222576
-0.50823661
0.00067858072
-0.57605575
0.00045871701
-0.65298003
0.0002330165
-0.74053886
-0.83972108
0.014094912
-0.013790249
-0.014381654
0.013748639
-0.0162047
0.013346958
-0.019038764
0.012896023
-0.022351436
0.012402641
-0.026212737
0.011875729
-0.03069904
0.01132676
-0.035894073
0.010768828
-0.041892335
0.010212057
-0.048805789
0.0096612193
-0.056764575
0.009122621
-0.065901385
0.0085957929
-0.076365332
0.008071159
-0.088301119
0.0075155601
-0.10178592
0.0068860358
-0.11663346
0.0060852834
-0.13235145
0.0051601063
-0.1484112
0.0044338234
-0.16633178
0.0038745748
-0.18795073
0.0033869052
-0.21276096
0.0029530586
-0.24093579
0.0025583931
-0.27267518
0.0021917684
-0.30867857
0.0018647162
-0.34950266
0.0015674122
-0.39568834
0.0012881807
-0.44835147
0.0010255146
-0.50797517
0.00077108813
-0.57580268
0.0005215179
-0.65273169
0.00026420552
-0.74028261
-0.83945745
0.015272919
-0.013570989
-0.015492228
0.014994197
-0.015926035
0.01465441
-0.018699049
0.014255388
-0.021952502
0.013801361
-0.025758819
0.013299283
-0.030197092
0.012759099
-0.035354041
0.012192917
-0.041326319
0.011611632
-0.04822467
0.011022168
-0.056175269
0.010431314
-0.065310677
0.0098397302
-0.07577389
0.0092377881
-0.087699331
0.0085875901
-0.1011359
0.0078347467
-0.11588085
0.0068762707
-0.13139322
0.0058181174
-0.14735331
0.0050324178
-0.16554632
0.0044046916
-0.18732328
0.0038522959
-0.21220898
0.0033587991
-0.24044291
0.0029099675
-0.27222708
0.0024927486
-0.30826215
0.0021203715
-0.34913127
0.0017826539
-0.39535178
0.0014646754
-0.4480347
0.0011662636
-0.50767815
0.00087662695
-0.57551458
0.00059333044
-0.65244979
0.0002996149
-0.73999009
-0.83915875
0.016452473
-0.013426557
-0.016596961
0.016251495
-0.015725122
0.015987937
-0.018435565
0.015659153
-0.021623808
0.015265197
-0.025364969
0.014809339
-0.029741358
0.014298418
-0.034843261
0.01374221
-0.040770263
0.013150966
-0.04763358
0.012532704
-0.055557157
0.011894306
-0.064672424
0.011236821
-0.075116552
0.010549676
-0.087012351
0.0097892879
-0.1003757
0.0088844823
-0.11497628
0.0077400488
-0.13024905
0.0065536092
-0.14616715
0.0057084571
-0.16470143
0.0050045687
-0.18661971
0.0043794841
-0.21158436
0.003818657
-0.23988278
0.0033087155
-0.27171796
0.0028342772
-0.30778862
0.0024103686
-0.34870848
0.0020270564
-0.39496979
0.0016650118
-0.44767402
0.0013261699
-0.50734089
0.00099646548
-0.57518664
0.00067496967
-0.65212988
0.00033978433
-0.73965626
-0.83882041
0.017630008
-0.013361873
-0.017694748
0.017514052
-0.01560923
0.017338228
-0.018259811
0.017095026
-0.021380688
0.016779635
-0.025049676
0.016390673
-0.02935251
0.01593051
-0.034383225
0.015404996
-0.040244886
0.014821859
-0.047050583
0.014188281
-0.054923721
0.01351007
-0.063994357
0.012787238
-0.074393873
0.012006289
-0.086231576
0.011116014
-0.099485634
0.010022548
-0.11388308
0.0086669791
-0.12889378
0.0073774292
-0.1448779
0.006467858
-0.16379214
0.0056814153
-0.1858336
0.0049756132
-0.21087907
0.0043395295
-0.23924749
0.0037612456
-0.27114061
0.0032223733
-0.30725077
0.0027399122
-0.34822728
0.0023051879
-0.39453657
0.0018929472
-0.44726333
0.0015082784
-0.506958
0.0011328755
-0.57481323
0.0007679606
-0.65176676
0.00038589559
-0.73927574
-0.83843622
0.018819755
-0.013377216
-0.018804463
0.018790875
-0.015580407
0.018706518
-0.018175519
0.01855662
-0.021230867
0.018332233
-0.024825378
0.018026738
-0.029047115
0.017636761
-0.033993362
0.017162506
-0.039770754
0.016606952
-0.046495159
0.015973871
-0.054290775
0.015265746
-0.063286375
0.014478799
-0.073607085
0.013592486
-0.085345444
0.012546016
-0.098439375
0.011218541
-0.11255587
0.0096446369
-0.1273202
0.0082996553
-0.14353324
0.0073163172
-0.1628091
0.0064415794
-0.18495924
0.0056470228
-0.21008507
0.0049274545
-0.23852881
0.0042732187
-0.27048742
0.0036620646
-0.30664076
0.0031133495
-0.34768
0.0026208702
-0.39404579
0.0021517174
-0.44679595
0.001715221
-0.50652351
0.0012878653
-0.57438815
0.00087356908
-0.65135451
0.00043906283
-0.73884299
-0.83799894
0.020029391
-0.013465771
-0.019940883
0.020083585
-0.015634653
0.020089867
-0.01818186
0.020035712
-0.021176781
0.019908787
-0.024698533
0.01969744
-0.028835859
0.019392112
-0.033688135
0.018986199
-0.039364952
0.018475888
-0.045984968
0.01785865
-0.053673665
0.017130355
-0.06255822
0.016278528
-0.072755415
0.015265792
-0.084332887
0.014026424
-0.097200215
0.012423917
-0.11095363
0.010668538
-0.12556515
0.0093215595
-0.14218659
0.0082590855
-0.16174695
0.0072899089
-0.18399048
0.0063993829
-0.20919517
0.0055891019
-0.23771952
0.0048511515
-0.26975065
0.0041592908
-0.3059502
0.0035363035
-0.3470586
0.0029790217
-0.39349044
0.0024455633
-0.44626451
0.0019504096
-0.50603063
0.001464089
-0.57390443
0.00099355819
-0.6508863
0.00050044109
-0.73835187
-0.83750018
0.021269999
-0.013615726
-0.02112009
0.021395519
-0.015760227
0.02148405
-0.018270447
0.021521086
-0.021213878
0.021490038
-0.024667557
0.02137463
-0.028720532
0.021159573
-0.033473169
0.020831124
-0.039036603
0.020377126
-0.045531076
0.019785814
-0.053082469
0.019042359
-0.061814893
0.018119321
-0.071832522
0.016955332
-0.083169062
0.015452586
-0.095697656
0.01355753
-0.10905883
0.011745546
-0.12375349
0.010433472
-0.14087486
0.0092997049
-0.16061355
0.0082278814
-0.18291912
0.0072370973
-0.20820508
0.0063309515
-0.23681446
0.005500636
-0.26892167
0.0047189528
-0.30516998
0.0040140765
-0.34635548
0.0033841868
-0.39286274
0.0027785668
-0.44566118
0.0022170551
-0.50547167
0.0016641877
-0.57335452
0.0011296467
-0.65035441
0.00056977359
-0.73779427
-0.83693193
0.022542124
-0.01382165
-0.022336232
0.022728127
-0.015946272
0.022883424
-0.0184258
0.022993351
-0.02132387
0.023041141
-0.024715416
0.023008081
-0.028687545
0.022874125
-0.033339291
0.022618295
-0.038780854
0.022218445
-0.045131312
0.021650033
-0.052514148
0.020882364
-0.061047324
0.019862479
-0.070812749
0.018484163
-0.081790873
0.016647012
-0.093860649
0.014619669
-0.10703171
0.012957676
-0.12209181
0.011648028
-0.13956556
0.010399246
-0.15936517
0.0092654877
-0.18178588
0.0081741337
-0.20711447
0.0071449046
-0.23578642
0.0062174955
-0.26799579
0.0053459291
-0.3043
0.0045526766
-0.34556414
0.003841504
-0.39215406
0.0031554543
-0.44497772
0.0025187707
-0.50483786
0.0018912663
-0.57273039
0.0012838308
-0.64975001
0.00064815762
-0.7371612
-0.83628521
0.023737653
-0.014060231
-0.023499111
0.023963009
-0.016171685
0.024164885
-0.018627733
0.024327582
-0.021486622
0.024433284
-0.024821172
0.024461464
-0.028715777
0.024388248
-0.033266125
0.024185459
-0.038578112
0.023819024
-0.044764922
0.023246251
-0.051941419
0.022411269
-0.060212385
0.021226429
-0.069627959
0.019581357
-0.080145864
0.017530023
-0.091809396
0.015690006
-0.10519185
0.014242062
-0.12064415
0.012876004
-0.13819986
0.011612332
-0.15810192
0.010369637
-0.18054377
0.0091900647
-0.20593573
0.0080662163
-0.23466384
0.007016562
-0.26694782
0.0060438393
-0.30332901
0.0051578921
-0.34468034
0.0043552334
-0.39135418
0.0035807132
-0.4442061
0.002858731
-0.50411914
0.0021482402
-0.57202374
0.0014580658
-0.64906332
0.00073731888
-0.73644346
-0.83554921
0.024664469
-0.014299091
-0.024425616
0.024894753
-0.016401966
0.0251036
-0.018836575
0.025277061
-0.021660079
0.025397463
-0.024941569
0.025442642
-0.028760949
0.025384491
-0.033207966
0.025186058
-0.038379668
0.024798287
-0.044377134
0.024154361
-0.051297466
0.023168728
-0.059226715
0.021770532
-0.068229731
0.020047863
-0.078423184
0.01837568
-0.090137222
0.016899606
-0.10371587
0.015528525
-0.11927332
0.01420615
-0.13687784
0.01285945
-0.15675569
0.011559942
-0.17924493
0.010283784
-0.20466046
0.0090586951
-0.23344012
0.0079107625
-0.26580167
0.0068151465
-0.30223534
0.0058279694
-0.34369547
0.0049237447
-0.39045295
0.004059469
-0.44334513
0.0032399997
-0.50330334
0.0024380006
-0.57122611
0.0016547105
-0.64828402
0.00083834977
-0.73563059
-0.83471221
0.024606375
-0.014500836
-0.02440459
0.024794507
-0.016590069
0.024961318
-0.019003358
0.025103037
-0.021801769
0.025208934
-0.02504743
0.025248126
-0.028800094
0.025178266
-0.033138056
0.02495202
-0.038153371
0.024517463
-0.043942524
0.023818133
-0.050598078
0.022832272
-0.058240778
0.021629465
-0.067026849
0.020417391
-0.077211045
0.019277993
-0.088997762
0.018108849
-0.10254675
0.016840421
-0.11800509
0.01550235
-0.13554014
0.01415443
-0.15540834
0.012792931
-0.17788419
0.011453618
-0.20332205
0.010127723
-0.23211561
0.0088672719
-0.26454321
0.0076785503
-0.30104869
0.0065748954
-0.34259405
0.0055638467
-0.38944522
0.0045898
-0.44237481
0.0036663119
-0.50238397
0.0027632018
-0.57032795
0.0018759415
-0.64740136
0.00095237423
-0.73471113
-0.83376134
0.023452033
-0.014746187
-0.023206626
0.023681617
-0.016819588
0.023872808
-0.019194469
0.02399471
-0.021923572
0.024021453
-0.025074069
0.023951839
-0.028730384
0.023785394
-0.032971526
0.023530988
-0.037898899
0.023201809
-0.043613305
0.02277591
-0.050172168
0.022267749
-0.057732596
0.021698043
-0.066457114
0.021055418
-0.076568395
0.020243198
-0.088185498
0.019215393
-0.10151892
0.018043569
-0.11683341
0.016787425
-0.13428439
0.015439854
-0.1540614
0.01406553
-0.17651078
0.012669288
-0.20192677
0.01126597
-0.23071363
0.0099175882
-0.26319694
0.0086020868
-0.29973526
0.0073868842
-0.34138118
0.0062703598
-0.38833223
0.0051886898
-0.44129727
0.0041455644
-0.50134548
0.0031232219
-0.56931119
0.0021231345
-0.64640657
0.0010803437
-0.73367319
-0.83268301
0.021014908
-0.015050687
-0.02071035
0.021348393
-0.017153011
0.021711593
-0.0195576
0.022099966
-0.022311874
0.02248662
-0.025460645
0.022830518
-0.029074194
0.02307224
-0.033213137
0.023104235
-0.037930749
0.022911746
-0.04342067
0.022602039
-0.049862373
0.022308243
-0.057438781
0.022001281
-0.066150174
0.021573726
-0.076140872
0.020947971
-0.087559803
0.02013637
-0.1007074
0.019129557
-0.11582681
0.017971439
-0.13312667
0.016692598
-0.15278312
0.015325082
-0.17514428
0.013926527
-0.20052928
0.012463122
-0.22925146
0.011008615
-0.26174455
0.0096178196
-0.29834664
0.0082958792
-0.34006157
0.0070460608
-0.38708603
0.0058379497
-0.44009365
0.0046742078
-0.50018686
0.0035314325
-0.56817472
0.0023963245
-0.64527752
0.0012214126
-0.73250402
-0.83146454
0.019365699
-0.015292765
-0.019123573
0.019627655
-0.017414904
0.019909852
-0.019839727
0.020209513
-0.022611456
0.020530056
-0.025781097
0.020872598
-0.029416628
0.021265496
-0.033605915
0.021773983
-0.03843911
0.022268243
-0.043914785
0.022550067
-0.050143971
0.022467516
-0.057355982
0.022160508
-0.065843016
0.021797269
-0.075777521
0.021394836
-0.087157316
0.020837769
-0.10015064
0.020032562
-0.11502219
0.019033782
-0.13212846
0.017865616
-0.15161531
0.016555716
-0.17383521
0.015152194
-0.19912689
0.013672393
-0.22777281
0.012178756
-0.2602531
0.010685698
-0.29685574
0.009250362
-0.3386284
0.0078976583
-0.38573707
0.0065650879
-0.43876586
0.0052701414
-0.49889751
0.003974315
-0.56688589
0.0026993103
-0.64400943
0.0013807232
-0.73119222
-0.83008819
0.019139581
-0.015537503
-0.018894793
0.019402514
-0.01767778
0.019683124
-0.020120275
0.019981755
-0.022910017
0.02030096
-0.026100224
0.02063749
-0.029753074
0.020971337
-0.033939674
0.021274766
-0.038742449
0.021603934
-0.044243845
0.022064334
-0.050604239
0.022504837
-0.057796325
0.022572622
-0.065910604
0.022229881
-0.075434492
0.021775779
-0.086702754
0.021277984
-0.099652736
0.020690621
-0.1144353
0.019894855
-0.13133382
0.018903845
-0.15062484
0.017706196
-0.17263793
0.016365064
-0.19778679
0.014885629
-0.22629447
0.013341928
-0.25871134
0.011814175
-0.29532988
0.01029638
-0.33711258
0.0088145993
-0.38425887
0.0073390721
-0.43729531
0.0059122126
-0.49747659
0.0044702052
-0.56545148
0.0030364482
-0.64258351
0.00155239
-0.72971607
-0.82854215
0.018262811
-0.015770299
-0.018029951
0.018518726
-0.017933622
0.018797584
-0.020399051
0.019098196
-0.023210537
0.019416555
-0.026418482
0.019744101
-0.030080508
0.020067221
-0.034262673
0.020367132
-0.039042232
0.020640457
-0.044517052
0.020829579
-0.050793296
0.021069534
-0.058036335
0.021620767
-0.066462004
0.022101365
-0.075915303
0.022078246
-0.086679819
0.021697684
-0.099271967
0.021163369
-0.11390072
0.020522261
-0.1306933
0.019738742
-0.14984283
0.018720612
-0.1716201
0.017466099
-0.19653275
0.016037383
-0.22486667
0.01450936
-0.25718472
0.012965445
-0.29378714
0.011373269
-0.33552183
0.0097933253
-0.38268205
0.0081842655
-0.43569119
0.0066149235
-0.49591338
0.0050109163
-0.56385544
0.0033976555
-0.64097892
0.0017382843
-0.72806582
-0.82681272
0.017954605
-0.015988839
-0.017736021
0.018194842
-0.018173811
0.018458017
-0.020662178
0.018744942
-0.023497413
0.019056498
-0.026729992
0.019394573
-0.030418546
0.019763237
-0.034631315
0.020167766
-0.039446766
0.020603786
-0.044953122
0.021062254
-0.051251862
0.021477646
-0.058451853
0.021696625
-0.0666811
0.021955308
-0.07617431
0.022311181
-0.087036962
0.022237197
-0.099199656
0.021686933
-0.11335016
0.020972428
-0.12997792
0.020243719
-0.14911487
0.019475379
-0.17085281
0.018433827
-0.19549126
0.017110625
-0.22354356
0.015632262
-0.2557068
0.014134976
-0.29229007
0.012491326
-0.33387861
0.010812714
-0.38100567
0.0090667236
-0.43394966
0.0073348919
-0.49418755
0.0055898228
-0.56211826
0.0037924764
-0.63919087
0.0019352305
-0.72621898
-0.82488927
0.016916629
-0.016191483
-0.016713969
0.017141002
-0.018398169
0.017387747
-0.020908909
0.017657094
-0.023766751
0.017948119
-0.027021016
0.018257926
-0.030728364
0.018580193
-0.034953612
0.018904888
-0.039771518
0.019221979
-0.045270308
0.019524201
-0.05155424
0.01981862
-0.058746534
0.020121131
-0.066984099
0.020329089
-0.076382987
0.020488218
-0.087196483
0.021018222
-0.099730515
0.021423785
-0.11375656
0.021152804
-0.12970531
0.020549933
-0.14851141
0.019876039
-0.17018002
0.01908574
-0.1947019
0.017997007
-0.22245383
0.01666408
-0.25437302
0.015266531
-0.29089239
0.013621341
-0.33223295
0.011823404
-0.37920845
0.009993753
-0.43212337
0.0080927529
-0.49229209
0.006192793
-0.56022565
0.0042048703
-0.63721238
0.0021430954
-0.7241691
-0.82276152
0.016492508
-0.016382293
-0.016301693
0.01670416
-0.018609818
0.016938414
-0.021143162
0.017196758
-0.024025098
0.017480606
-0.027304872
0.01779134
-0.031039113
0.018130757
-0.035293048
0.018500752
-0.040141533
0.018900203
-0.045669769
0.019320201
-0.051974218
0.019738225
-0.059164477
0.020124101
-0.067369777
0.020502176
-0.076760748
0.020769362
-0.087463268
0.020753246
-0.099713413
0.020971973
-0.11397688
0.021200763
-0.12993829
0.020811631
-0.14812188
0.0201261
-0.16949275
0.019359758
-0.19393551
0.018617212
-0.22171194
0.017602602
-0.25335781
0.016309909
-0.28959987
0.014692052
-0.33061421
0.012800111
-0.37731547
0.01089314
-0.43021787
0.0088293641
-0.49023266
0.0067947767
-0.55819753
0.0046367889
-0.63506348
0.0023603305
-0.72190623
-0.82042101
0.015334376
-0.016559112
-0.015157589
0.015531384
-0.018806866
0.015749899
-0.021361733
0.015991119
-0.024266393
0.016255766
-0.02756962
0.016543853
-0.031327335
0.016854239
-0.035603611
0.017183406
-0.04047093
0.017526399
-0.046013058
0.017879607
-0.0523278
0.018243415
-0.059528746
0.018618563
-0.067745481
0.018980843
-0.077123655
0.019387574
-0.087870841
0.01979704
-0.10012364
0.0198966
-0.11407575
0.020228151
-0.13026948
0.020562967
-0.14845526
0.020278757
-0.16920499
0.019695306
-0.19334886
0.019032275
-0.22104744
0.01828716
-0.25261265
0.017120273
-0.28843297
0.015571247
-0.32906382
0.013653958
-0.37539505
0.011711119
-0.42827394
0.0095434288
-0.48806712
0.0073504653
-0.55600984
0.0050466447
-0.63276836
0.0025806755
-0.71945556
-0.81786488
0.014905319
-0.016722037
-0.014742361
0.015087202
-0.018988713
0.015289857
-0.021564348
0.015514968
-0.024491463
0.015764095
-0.027818705
0.016038495
-0.031601692
0.016339107
-0.035904182
0.016667701
-0.040799484
0.017026595
-0.046371915
0.017416732
-0.052717908
0.017835002
-0.059947002
0.018273348
-0.068183835
0.018720705
-0.077571013
0.019104782
-0.088254748
0.019437434
-0.1004562
0.019728002
-0.11436594
0.019679013
-0.13021798
0.019798653
-0.14857392
0.020094865
-0.16950387
0.019931759
-0.19318599
0.019393001
-0.22050646
0.018543997
-0.25176082
0.017386937
-0.28727457
0.015968447
-0.32764231
0.014213863
-0.37363538
0.012271054
-0.42632736
0.010122143
-0.48591757
0.0078246045
-0.5537163
0.0054178927
-0.63037045
0.0027928726
-0.71684721
-0.81509995
0.013576787
-0.016866532
-0.013432238
0.013738708
-0.019150574
0.013919528
-0.021745101
0.014120876
-0.024692738
0.014344328
-0.028042076
0.014591138
-0.031848413
0.014861418
-0.03617436
0.015154409
-0.041092356
0.015467795
-0.046685156
0.015797492
-0.053047415
0.016138614
-0.060287863
0.016487167
-0.068532021
0.016840984
-0.077924358
0.0172225
-0.088635724
0.017614808
-0.10084789
0.018038912
-0.11478965
0.018574618
-0.1307545
0.018848703
-0.14884918
0.018793921
-0.16944743
0.018849624
-0.19324008
0.018621446
-0.22027867
0.017882554
-0.25101802
0.01685372
-0.28624127
0.015700481
-0.32648457
0.014300767
-0.37223087
0.012498595
-0.42452004
0.010497822
-0.4839137
0.0081702491
-0.55139141
0.0056852682
-0.62789499
0.0029725414
-0.71415228
-0.81215695
0.01314303
-0.016988716
-0.013020613
0.013280054
-0.019287334
0.013433173
-0.02189792
0.013603771
-0.024862992
0.013793181
-0.028231087
0.014002834
-0.032057601
0.014234841
-0.036405817
0.014491079
-0.041347933
0.014773063
-0.046966332
0.015081667
-0.053355015
0.015415921
-0.060620852
0.015769903
-0.068884403
0.016129185
-0.078281678
0.016461597
-0.088965845
0.016739044
-0.1011228
0.016921458
-0.11496949
0.016888183
-0.13071894
0.016787223
-0.1487459
0.016791636
-0.16944997
0.01665314
-0.19310056
0.016542655
-0.22016703
0.016485978
-0.25095809
0.016009718
-0.28576031
0.015163792
-0.32563483
0.01402817
-0.37109285
0.012379675
-0.42286818
0.010535136
-0.48206474
0.0083211643
-0.54917793
0.0058396252
-0.62542275
0.003092736
-0.7114234
-0.8090939
0.012017256
-0.017094556
-0.011910931
0.012137038
-0.019406566
0.01227167
-0.022031929
0.012422668
-0.025013286
0.012591408
-0.02839903
0.012778853
-0.032244146
0.012985695
-0.036611643
0.013212121
-0.041573217
0.013457536
-0.047210467
0.013720298
-0.053616351
0.013997913
-0.060896889
0.014287405
-0.069172152
0.014585068
-0.078577353
0.014898363
-0.089276792
0.015240824
-0.10146242
0.015620779
-0.11534598
0.016095585
-0.13118956
0.016587372
-0.14923319
0.016941424
-0.16979889
0.016949188
-0.19310117
0.016355311
-0.21956447
0.015652191
-0.25024936
0.015175909
-0.28527782
0.014451586
-0.32490333
0.01341249
-0.37004957
0.01201568
-0.42147076
0.010303373
-0.48034933
0.0082515934
-0.54712366
0.0058278491
-0.62300452
0.0031246569
-0.70873613
-0.80599641
0.01196113
-0.017176647
-0.011878251
0.01205353
-0.01949806
0.012156511
-0.022133866
0.012271174
-0.025126745
0.012398915
-0.02852538
0.012541563
-0.032385188
0.012701032
-0.036769259
0.012879362
-0.041749417
0.013078834
-0.047407505
0.013302138
-0.053836902
0.013552573
-0.061144257
0.013835347
-0.069451579
0.014159372
-0.078897831
0.01452307
-0.089636802
0.014906796
-0.10184228
0.015278815
-0.11571382
0.015569383
-0.13147521
0.015760889
-0.1494184
0.015750625
-0.16978023
0.015707644
-0.19304712
0.015789969
-0.21963314
0.01523333
-0.24967776
0.014321782
-0.2843528
0.013475094
-0.32404728
0.012539321
-0.3691091
0.011391154
-0.42031953
0.0097751876
-0.47873089
0.0079021316
-0.54524722
0.0056186698
-0.62072279
0.0030485836
-0.70617824
-0.80296915
0.010800497
-0.017238221
-0.010737816
0.010871116
-0.019567433
0.010950429
-0.022211777
0.011039234
-0.025213976
0.01113825
-0.028622632
0.011248018
-0.032492982
0.011368796
-0.036887833
0.011500407
-0.04187857
0.01164199
-0.047546347
0.011791619
-0.05398348
0.01194579
-0.061295025
0.012098777
-0.069600762
0.01224261
-0.079037384
0.012368673
-0.089758014
0.012469357
-0.10193743
0.012544704
-0.11578274
0.012608286
-0.1315313
0.012639228
-0.14944059
0.012731408
-0.16986273
0.012807613
-0.19311386
0.012820304
-0.2196375
0.013060868
-0.24990976
0.012961207
-0.28424061
0.012261857
-0.32333661
0.011307284
-0.36814987
0.010228932
-0.41923276
0.008845132
-0.4773426
0.0071288421
-0.54352938
0.0051003012
-0.61869906
0.0027716703
-0.70385963
-0.80021383
0.010080407
-0.017265817
-0.010051479
0.010112811
-0.019598348
0.010148559
-0.022245861
0.010187707
-0.025251271
0.010230159
-0.028663028
0.010275609
-0.032536164
0.01032351
-0.036933246
0.010373076
-0.041925425
0.010423352
-0.047593693
0.010473398
-0.054030371
0.010522517
-0.061340738
0.010570392
-0.069644955
0.010618254
-0.079081267
0.010671093
-0.08980657
0.010737835
-0.10199966
0.010820561
-0.11586085
0.010916382
-0.1316226
0.011032422
-0.14955238
0.011125238
-0.16995191
0.011189984
-0.19317486
0.011175878
-0.21961801
0.010990374
-0.24971778
0.010742508
-0.2839891
0.010380793
-0.32297243
0.009677539
-0.36743845
0.0087063167
-0.41825633
0.0075536193
-0.47619073
0.0061259771
-0.54210558
0.0043989766
-0.61698378
0.0023703054
-0.70183978
-0.79785676
0.0095613477
-0.0095559506
0.0095677225
0.0095757249
0.0095858056
0.0095985052
0.0096144692
0.0096344389
0.0096592123
0.0096895592
0.0097260687
0.0097689843
0.0098178557
0.009870519
0.0099249524
0.0099732199
0.010010547
0.010030511
0.010023224
0.0099781192
0.0098768414
0.0096988869
0.0094312623
0.0090630342
0.0086379566
0.0081445962
0.00745253
0.0065087151
0.0053024445
0.0038256745
0.0020713406
0.011549005
-0.011279422
0.0087687256
-0.0090383673
0.013432528
-0.014628549
0.012744956
0.014824036
-0.017969267
0.016577689
0.015926125
-0.021640857
0.020538657
0.016881949
-0.025834718
0.024878758
0.017759125
-0.03067566
0.029798338
0.018568386
-0.036240631
0.0354312
0.019327605
-0.042603482
0.041844064
0.020037483
-0.0499124
0.049202307
0.020675146
-0.058282806
0.057644919
0.021222384
-0.067845597
0.067298128
0.021668606
-0.078760169
0.078313717
0.022005317
-0.091207215
0.090870287
0.022221187
-0.10536624
0.10515018
0.022299116
-0.12141704
0.12133895
0.022179866
-0.1394016
0.13952071
0.021802017
-0.15912016
0.15949787
0.021061004
-0.18010959
0.18085044
0.019872134
-0.20114821
0.20233684
0.018594044
-0.22314242
0.22442018
0.01744464
-0.24943036
0.25057942
0.016296762
-0.28030147
0.28144896
0.015079562
-0.31572901
0.31694572
0.013767328
-0.35576317
0.35707478
0.01234639
-0.40135577
0.4027761
0.010800192
-0.45343299
0.45497851
0.0090943082
-0.51262867
0.51433373
0.0072012347
-0.58012069
0.58201279
0.0050830402
-0.65685912
0.65897619
0.0026985452
-0.74444841
0.74683192
-0.84380355
0.84650149
0.0128957
-0.012854224
-0.011320959
0.013954227
-0.015687142
0.014812869
-0.018828003
0.015604867
-0.022432977
0.016384514
-0.026614505
0.01715399
-0.031445299
0.017895137
-0.036981963
0.0185989
-0.043307445
0.01924714
-0.050560851
0.019818341
-0.058854228
0.020301693
-0.068329175
0.02069024
-0.079148946
0.020976521
-0.091493713
0.021149363
-0.10553927
0.021190517
-0.12145837
0.021034726
-0.13924598
0.020627716
-0.15871329
0.01985682
-0.17933887
0.01866791
-0.19995956
0.017461817
-0.22193672
0.016385097
-0.248354
0.015299885
-0.27921666
0.014147554
-0.3145772
0.01290792
-0.35452418
0.011568434
-0.40001692
0.010114111
-0.45197937
0.0085119137
-0.51102733
0.0067369061
-0.57834669
0.004753119
-0.65487649
0.0025224932
-0.74221879
-0.84128245
0.012536594
-0.013704677
-0.011686215
0.013277572
-0.016428206
0.014024803
-0.019575336
0.014800469
-0.023208771
0.015580824
-0.027395016
0.016334724
-0.032199379
0.01704474
-0.037692176
0.017705707
-0.04396862
0.018299688
-0.051155045
0.018815726
-0.059370484
0.019246793
-0.068760469
0.019587875
-0.079490256
0.019832317
-0.091738369
0.019969503
-0.10567665
0.019981108
-0.12147014
0.019796563
-0.1390616
0.019368555
-0.15828543
0.01857398
-0.17854449
0.017404611
-0.19879047
0.016281342
-0.22081383
0.015274352
-0.24734739
0.014252015
-0.27819475
0.01316719
-0.31349293
0.012003643
-0.35336131
0.010749555
-0.39876349
0.009391621
-0.45062217
0.0078986041
-0.50953521
0.0062477619
-0.57669691
0.004405654
-0.65303556
0.0023367257
-0.74015089
-0.83894613
0.011645572
-0.01445508
-0.01089526
0.012420957
-0.017203697
0.013206456
-0.020360958
0.013983684
-0.023986141
0.014735583
-0.028147082
0.015447215
-0.0329112
0.016109442
-0.038354604
0.016716269
-0.044575656
0.017254179
-0.051693164
0.017715682
-0.059832203
0.018096102
-0.069141112
0.018391785
-0.079786165
0.018596581
-0.091943379
0.018699863
-0.10578012
0.018677131
-0.12144759
0.018466913
-0.13885156
0.01802877
-0.15784744
0.017218689
-0.17773463
0.016083016
-0.19765508
0.015042286
-0.21977348
0.014103768
-0.24640928
0.013147177
-0.27723861
0.012133737
-0.31248006
0.011050818
-0.35227908
0.0098872371
-0.39760059
0.0086313135
-0.44936701
0.007253674
-0.50815852
0.0057338205
-0.57517814
0.0040409213
-0.65134387
0.0021421169
-0.73825313
-0.83680338
0.010732892
-0.01525621
-0.0099318674
0.011529612
-0.018000538
0.012310718
-0.0211422
0.013067467
-0.024743047
0.013788031
-0.028867824
0.014460444
-0.033583809
0.015077135
-0.038971501
0.015631733
-0.04513046
0.016115752
-0.05217739
0.016525043
-0.060241705
0.016857179
-0.069473468
0.01710973
-0.08003894
0.017276981
-0.092110845
0.017347939
-0.10585127
0.017292263
-0.12139208
0.017062276
-0.13862174
0.016617302
-0.15740264
0.015797532
-0.17691509
0.014707985
-0.19656585
0.013751747
-0.21881765
0.012882425
-0.24554038
0.011994196
-0.27635086
0.011055473
-0.31154193
0.010056992
-0.35128132
0.00898805
-0.39653236
0.0078386771
-0.44821843
0.0065815378
-0.50690236
0.0051983734
-0.57379611
0.0036610442
-0.64980778
0.0019395642
-0.73653271
-0.83486358
0.0097833644
-0.016072314
-0.0089673703
0.010579039
-0.018796338
0.011347725
-0.021911034
0.012080201
-0.025475691
0.012765017
-0.029552831
0.013393475
-0.034212472
0.013960502
-0.039538737
0.014461586
-0.045631749
0.014892307
-0.052608311
0.01525102
-0.060600623
0.015536894
-0.069759559
0.01574841
-0.080250677
0.015880273
-0.092242921
0.015921265
-0.10589246
0.015836364
-0.12130736
0.015592491
-0.13837803
0.015141072
-0.1569514
0.014318003
-0.17609225
0.013286911
-0.19553509
0.012414564
-0.21794573
0.011614377
-0.24474064
0.010796634
-0.27553362
0.0099355844
-0.31068149
0.0090250137
-0.35037149
0.0080546061
-0.39556268
0.007016103
-0.44718074
0.0058843111
-0.50577159
0.0046432009
-0.57255617
0.0032674196
-0.64843325
0.001729745
-0.73499611
-0.83313379
0.0087978813
-0.016896739
-0.0079735733
0.0095879638
-0.019586558
0.010336066
-0.022659296
0.01103416
-0.026173969
0.011675025
-0.030193901
0.012253785
-0.034791447
0.012767513
-0.040052678
0.013214085
-0.046078524
0.013592026
-0.052986447
0.013901483
-0.060910281
0.014142794
-0.070001082
0.01431514
-0.080423242
0.014413826
-0.092341821
0.014427969
-0.1059068
0.01432037
-0.12119995
0.014073145
-0.13813098
0.013615321
-0.15649376
0.012788698
-0.17526589
0.011825865
-0.19457263
0.011036049
-0.21715637