/*--------------------------------*- C++ -*----------------------------------*\
| =========                 |                                                 |
| \\      /  F ield         | OpenFOAM: The Open Source CFD Toolbox           |
|  \\    /   O peration     | Version:  2406                                  |
|   \\  /    A nd           | Website:  www.openfoam.com                      |
|    \\/     M anipulation  |                                                 |
\*---------------------------------------------------------------------------*/
FoamFile
{
    version     2.0;
    format      ascii;
    arch        "LSB;label=32;scalar=64";
    class       volScalarField;
    location    "0.05";
    object      k;
}
// * * * * * * * * * * * * * * * * * * * * * * * * * * * * * * * * * * * * * //

dimensions      [0 2 -2 0 0 0 0];

internalField   nonuniform List<scalar> 
2065
(
211.70109
216.34478
220.10064
223.22496
225.90202
228.27877
230.29626
232.21739
234.19955
236.19281
238.4267
240.79667
243.09717
245.3752
248.02062
251.43546
254.33814
255.0565
253.79953
248.27963
234.62594
215.35927
194.67869
176.00383
160.48575
146.73891
134.03724
125.0056
120.0235
115.93037
110.68844
103.09962
91.476862
76.65308
63.828207
56.718953
54.560397
53.591751
50.671139
44.588016
40.749858
39.7788
40.035838
40.555929
40.86839
41.120171
41.692111
42.301153
42.829056
42.94342
42.906697
42.297841
41.658902
40.272059
39.310114
37.103199
35.859155
32.250767
147.55635
157.55057
166.75199
175.46578
183.44324
190.74861
197.50684
203.48849
209.41123
215.46905
221.62055
228.07338
234.81102
241.93112
249.29896
256.67275
262.54161
263.87767
261.88419
253.63669
236.49548
215.47885
194.5654
176.31048
161.37403
148.10118
136.12179
127.97595
122.78855
117.62877
111.14882
102.40571
90.095392
75.605288
63.790793
57.661532
56.039113
55.326502
52.779209
47.089099
43.516684
42.799389
43.255037
44.023535
44.394333
44.594243
45.051915
45.503849
45.861013
45.794631
45.606442
44.786079
44.042053
42.47214
41.434135
39.062547
37.76436
33.983734
84.923275
99.185784
114.02355
129.29311
143.80558
156.67773
168.35834
178.47218
187.15521
195.03694
203.19399
212.48238
222.80536
233.64318
244.34684
255.63119
266.4235
272.28276
272.29955
267.86369
255.10674
235.22565
213.6243
193.33935
176.00038
161.80702
149.24248
138.05552
130.49771
124.75534
118.43294
110.88414
101.27972
88.613724
74.626487
63.860262
58.710299
57.63857
57.300837
55.305615
50.15815
46.756226
46.191679
46.778304
47.717739
48.095479
48.196378
48.494821
48.755191
48.918301
48.650596
48.30033
47.245154
46.385898
44.628421
43.502444
40.960458
39.600623
35.648455
56.342816
67.251581
80.422444
95.115834
110.67532
126.19033
140.80916
154.7501
167.39973
178.83173
189.48099
199.67972
211.71697
224.68525
237.69092
251.96505
266.33917
276.87705
279.88851
277.39994
268.58616
251.36063
230.29569
209.42082
190.69878
174.90832
161.66662
149.95006
139.63431
132.33517
125.79929
118.38625
110.08289
100.01878
87.300451
73.902152
64.162481
59.951482
59.462612
59.640857
58.279329
53.823119
50.474119
49.944643
50.590722
51.613393
51.9456
51.901939
52.005107
52.04038
51.99549
51.495863
50.978819
49.673983
48.688754
46.74001
45.516368
42.799875
41.373069
37.250288
51.938798
60.330513
70.144544
81.723673
95.07916
109.84314
125.21075
140.85619
156.26694
171.32314
185.60106
199.41376
214.04899
230.20248
245.87043
262.09274
275.76235
282.57625
281.92055
276.12532
261.99693
242.26927
221.75479
202.88115
186.56938
172.82009
160.90649
150.08177
140.59601
133.28679
125.86914
117.64809
109.03174
99.0146
86.531435
73.691262
64.879255
61.553256
61.607862
62.471634
61.710762
58.06026
54.653958
54.033483
54.665856
55.680863
55.917891
55.686773
55.563845
55.345611
55.081943
54.318477
53.631551
52.070147
50.948223
48.805407
47.475977
44.583125
43.085347
38.793573
47.102215
52.807843
59.543322
67.433958
76.608861
87.179438
99.478971
113.65546
129.40398
146.08621
163.76967
181.53217
198.92578
216.53294
234.72582
251.85679
267.42427
277.83376
280.56367
277.04461
266.02547
248.23601
228.51822
210.16131
194.34909
181.08065
169.68419
159.34821
149.5733
140.73424
133.24156
125.1215
116.4397
108.11764
98.717798
86.671287
74.294
66.221348
63.660758
64.161502
65.849572
65.63587
62.811322
59.260555
58.422136
58.969379
59.887706
59.989099
59.526035
59.146995
58.653685
58.158905
57.115532
56.248629
54.430429
53.161317
50.822649
49.380401
46.312013
44.740009
40.281783
46.147136
50.708815
55.796182
61.534179
68.060901
75.6089
84.392279
94.761229
107.17605
121.71624
138.24362
156.80187
176.5115
196.25047
215.70038
234.53528
251.50587
265.17335
271.98397
270.87175
262.59696
247.58038
229.32231
211.62103
196.5632
184.42595
174.46512
165.56785
156.89678
148.30703
140.0678
132.32492
123.62998
115.18292
107.78442
99.550941
88.140517
76.028466
68.38958
66.388633
67.252752
69.759241
70.070054
67.983394
64.246976
63.06723
63.461054
64.199794
64.135064
63.388541
62.734593
61.949373
61.207633
59.882455
58.82096
56.750605
55.324611
52.789426
51.228714
47.987455
46.338744
41.717678
50.126767
54.328147
58.906855
63.963453
69.634502
76.105747
83.643331
92.573537
103.39332
116.37902
131.73694
149.45762
168.99802
189.55369
209.80643
228.5182
243.84149
253.99192
256.00743
251.31476
240.04428
224.49726
208.01874
193.63563
182.39803
173.94281
167.12564
160.63431
153.63097
146.14546
138.47719
130.46993
121.82998
114.3471
108.46491
101.8296
91.260257
79.164866
71.565379
69.839517
70.95773
74.166232
74.987732
73.46424
69.565846
67.922808
68.096281
68.584984
68.321985
67.248034
66.30701
65.217447
64.216272
62.608685
61.341723
59.024264
57.434375
54.703194
53.020327
49.609223
47.882617
43.103425
53.834702
57.492046
61.459216
65.841217
70.766221
76.418673
83.040575
90.924535
100.46236
111.96996
125.69901
141.56963
159.09458
178.08186
196.72007
213.50582
226.47914
233.33565
232.6669
226.13378
214.41092
200.69162
187.53566
177.02246
169.38051
163.96742
159.6845
155.2311
149.73675
143.26451
136.07444
128.14871
120.22794
114.40801
110.49024
105.66261
96.194465
83.86287
75.871726
74.078495
75.309738
79.023107
80.293435
79.166136
75.160365
72.9443
72.824569
73.015512
72.507111
71.083788
69.845211
68.442822
67.17309
65.283983
63.804005
61.245198
59.486738
56.561282
54.754275
51.176906
49.372249
44.440696
53.983832
56.952286
60.05229
63.429629
67.192662
71.458081
76.379139
82.163347
89.071726
97.413102
107.47075
119.46819
133.25037
148.38639
164.38059
180.13487
193.77506
203.69586
208.12151
206.56738
200.20984
190.48664
180.29508
171.2392
164.41022
159.4324
155.82597
153.04568
149.95187
145.61119
139.98908
133.31278
125.90541
119.38166
115.71981
113.99623
110.93909
102.9105
90.131475
81.343829
79.116398
80.30004
84.257967
85.886902
85.031628
80.935014
78.085757
77.588099
77.470018
76.648067
74.876275
73.330863
71.610775
70.066651
67.898549
66.200976
63.407439
61.477815
58.360989
56.429353
52.689951
50.807947
45.730747
56.796034
59.293894
61.904669
64.777245
68.012117
71.707711
75.982309
80.99448
86.949286
94.084999
102.6265
112.73224
124.26561
136.90836
150.11071
162.94046
173.69767
180.73897
183.72602
182.52185
178.42526
172.63535
167.00959
162.39567
158.52079
154.85549
151.38729
148.46727
145.68251
141.90826
136.88116
130.79036
124.37505
119.7634
118.53972
118.9363
117.50819
111.05817
97.839948
87.92923
84.90581
85.87846
89.787132
91.668354
90.991152
86.8036
83.290331
82.354247
81.906658
80.708491
78.610106
76.74647
74.707181
72.885993
70.443125
68.526044
65.505304
63.403817
60.099662
58.044215
54.147709
52.189801
46.974461
58.528321
60.709206
62.987762
65.505859
68.352726
71.607585
75.350172
79.694761
84.786005
90.793455
97.882174
106.15303
115.51675
125.72911
136.40977
146.70339
155.38533
161.36195
164.43626
164.99466
164.49291
163.53235
162.64061
161.46333
159.50186
156.18626
151.63713
147.33313
143.56872
139.53657
134.71696
129.24395
124.1908
121.63966
122.76819
125.30467
125.04455
120.07513
106.78769
95.504708
91.355581
91.954995
95.525682
97.543522
96.972002
92.686524
88.50278
87.082511
86.277457
84.679445
82.261685
80.075454
77.718738
75.620796
72.909109
70.772995
67.53346
65.261137
61.774768
59.59747
55.549481
53.517748
48.172381
59.04314
61.139991
63.298136
65.666687
68.32329
71.322705
74.72008
78.584153
83.007211
88.100677
93.98236
100.72927
108.35165
116.62147
125.34592
133.8617
141.47468
147.59156
152.3062
155.99649
159.70478
163.38971
166.55625
168.24388
167.63502
164.27748
157.83659
150.87367
144.84098
139.55144
134.38877
129.39784
125.69017
125.25671
128.33334
132.67702
133.35468
129.5351
116.63766
103.89136
98.353189
98.401087
101.39748
103.42685
102.9032
98.510606
93.670598
91.735121
90.540544
88.548908
85.810626
83.302489
80.633158
78.261535
75.288642
72.936105
69.487
67.046431
63.383948
61.08774
56.894555
54.791643
49.324727
58.371992
60.608791
62.876947
65.315049
67.996832
70.968483
74.263907
77.91555
81.97318
86.504871
91.578419
97.251552
103.5616
110.65777
118.32088
125.97986
133.52635
140.74783
147.8419
154.98812
162.64777
170.28672
176.7871
180.87272
181.35505
178.08625
169.91381
159.7963
150.49396
142.8016
136.52709
131.63458
129.37992
130.25373
135.05643
140.67113
142.12927
139.15551
126.97691
112.87271
105.79117
105.03657
107.35115
109.24321
108.71865
104.20936
98.745098
96.277109
94.669592
92.295366
89.238918
86.413698
83.439329
80.799611
77.574691
75.010232
71.361494
68.756681
64.925075
62.513828
58.182247
56.011299
50.431413
56.50606
59.080295
61.664253
64.394565
67.336922
70.529194
73.992609
77.74472
81.812168
86.22498
91.020036
96.246825
102.03743
108.5504
115.66884
123.21833
131.34897
140.05806
149.34598
159.51071
170.60968
181.18502
190.41519
196.68074
198.48646
195.65862
186.72096
173.79207
160.88543
150.08897
141.92005
136.60747
135.11927
136.62489
142.51252
148.93965
151.01428
148.69185
137.44803
122.21838
113.5399
111.72415
113.31769
114.92745
114.3589
109.72359
103.68221
100.67687
98.641989
95.899161
92.530763
89.396797
86.127444
83.227455
79.761108
76.990893
73.153057
70.389249
66.39629
63.874641
59.411949
57.176509
51.491167
56.580658
59.639177
62.835869
66.23292
69.864215
73.745077
77.88387
82.288895
86.968985
91.941394
97.241799
103.01566
109.46483
116.55738
124.33523
133.11196
143.10141
154.42559
167.00822
180.27564
193.04119
204.53512
212.99129
216.60792
214.76024
206.32775
191.65732
175.5471
161.36273
150.70645
144.2032
142.5684
144.18538
150.34417
157.17934
159.71978
157.91595
147.74106
131.70188
121.45733
118.38129
119.20966
120.42321
119.77181
115.00212
108.44305
104.90665
102.4387
99.343031
95.672566
92.241205
88.689088
85.538605
81.842672
78.874306
74.85839
71.941934
67.79605
65.16924
60.583143
58.287082
52.503273
53.222816
56.805073
60.554014
64.52648
68.753071
73.245404
78.003772
83.027077
88.315008
93.850921
99.631331
105.76935
112.48991
119.82583
128.00637
137.44528
148.37646
160.80472
174.63645
189.07719
203.38234
216.78163
227.52659
233.52742
233.3026
226.51274
211.63981
193.31479
175.97316
162.45339
154.04196
151.36594
152.62606
158.27956
165.1478
168.01816
166.63638
157.59342
141.11396
129.40484
124.94591
124.94763
125.68193
124.91275
120.00245
112.99427
108.94288
106.04409
102.61247
98.652987
94.938133
91.117299
87.727752
83.815107
80.657425
76.474828
73.413
69.123158
66.39689
61.695437
59.34287
53.466508
49.148873
53.210166
57.508422
62.098526
67.008143
72.245686
77.804587
83.672724
89.832065
96.242797
102.87348
109.75886
117.08403
124.86363
133.35572
143.01918
154.14399
166.85815
180.83978
195.48397
210.54815
225.57359
238.63193
247.46595
249.71302
245.13583
231.8589
212.63772
192.84763
176.44844
165.62445
161.12611
161.57847
166.12882
172.66579
175.74032
174.70493
166.78785
150.27353
137.25382
131.37816
130.43358
130.6848
129.74468
124.6913
117.30834
112.76636
109.4458
105.69593
101.463
97.480626
93.406599
89.790755
85.675084
82.337947
78.000361
74.801209
70.376796
67.557091
62.74858
60.343788
54.378952
48.968865
53.747596
58.931136
64.551744
70.614348
77.098846
83.973571
91.189914
98.687578
106.38632
114.23522
122.28272
130.62583
139.40679
149.10535
160.07004
172.24392
185.2285
198.84089
213.67318
229.70787
244.97651
257.16258
262.81424
260.7769
250.44535
231.89517
210.71987
191.7899
178.34778
171.50165
170.61683
173.79432
179.61246
182.77097
182.01801
175.14519
159.03971
144.89162
137.61245
135.63613
135.40326
134.23594
129.04586
121.36378
116.36238
112.63471
108.58496
104.09606
99.863722
95.553146
91.724802
87.420349
83.914389
79.433647
76.105811
71.556483
68.649564
63.742446
61.289818
55.23882
140.53988
139.80021
138.37476
133.05507
125.14516
119.72058
115.60498
111.27422
106.54805
102.08444
97.554719
93.528393
89.049703
85.38608
80.774004
77.326538
72.662083
69.674264
64.677045
62.181007
56.04732
444.23823
412.70535
352.59874
415.11999
457.69018
476.17153
475.8186
459.40881
433.05786
402.07701
281.80697
345.69304
404.26656
444.87154
462.84697
462.71398
446.88962
421.19359
390.79445
279.56249
338.4632
393.0423
431.56715
448.93004
448.95659
433.69941
408.65861
378.87166
277.05683
330.9261
381.52124
417.85508
434.48528
434.59015
419.86462
395.47653
366.33316
274.36992
323.27544
369.85133
403.83368
419.57387
419.65351
405.41628
381.67984
353.21798
271.60404
315.65698
358.14464
389.60909
404.28435
404.22809
390.41123
367.30844
339.55154
268.9041
308.14249
346.49348
375.29961
388.731
388.40755
374.91376
352.41621
325.38412
266.29511
300.78003
335.05226
361.01201
373.01515
372.26411
358.97992
337.05418
310.77192
263.78399
293.76388
323.92107
346.84535
357.24196
355.88683
342.70983
321.31098
295.7876
261.60768
287.16439
313.15221
332.8723
341.50484
339.367
326.18847
305.27511
280.52246
259.71303
280.91367
302.73235
319.11925
325.8665
322.77831
309.49619
289.032
265.06106
257.9508
274.90268
292.57753
305.55627
310.3535
306.19015
292.73348
272.70507
249.54256
256.13269
268.95462
282.5401
292.11583
294.95407
289.64332
275.97977
256.39456
234.07275
254.1674
262.94734
272.52165
278.75089
279.68523
273.22127
259.36485
240.26126
218.83065
252.21686
256.86669
262.41431
265.5462
264.52301
256.9937
243.01368
224.45601
203.97034
251.05902
251.40671
252.62515
252.85287
249.69
241.16711
227.14496
209.2044
189.71291
250.21731
246.64555
243.84195
240.82244
235.51537
226.05838
212.08285
194.84704
176.41617
248.64193
242.14749
235.84001
229.67761
222.25853
211.88983
197.98374
181.45684
164.06158
246.18369
237.72407
228.62058
219.60893
210.14972
198.88988
185.082
169.29465
152.95194
240.86053
231.61507
220.95278
209.98113
198.90747
186.88221
173.17441
158.08449
142.73095
229.1796
221.03914
210.79363
199.46831
187.75251
175.39048
161.89767
147.48143
133.04552
211.87364
205.35144
196.61301
186.32984
175.18078
163.25166
150.36992
136.81115
123.37539
192.2462
187.17207
180.14649
171.42639
161.45004
150.3878
138.29761
125.59158
113.06468
173.98139
169.69899
163.78174
156.30153
147.39988
137.21066
125.93462
114.08971
102.4663
158.42076
154.46855
149.11585
142.23801
133.86954
124.1501
113.40085
102.22325
91.388097
144.67618
140.93279
135.86419
129.30632
121.23657
111.81411
101.44622
90.788093
80.586264
131.55721
127.62369
122.40301
115.7837
107.80826
98.700145
88.884566
78.971194
69.616527
121.77073
117.36068
111.50405
104.16236
95.568971
86.158382
76.487509
67.133578
58.60286
116.73313
112.41237
106.45301
98.796476
89.752636
79.949861
70.106399
60.866019
52.692852
113.42852
109.92424
104.76645
97.749345
89.094556
79.457062
69.627003
60.377161
52.230832
109.28796
106.91329
103.02579
97.16651
89.438981
80.45015
70.934439
61.768339
53.596745
102.82277
101.62018
99.203156
94.957168
88.613747
80.533638
71.768415
63.162535
55.353484
91.997046
91.693323
90.665159
88.430195
84.198195
77.923646
70.315893
62.409161
55.012935
77.064903
76.757868
75.913707
74.214251
71.533166
67.632275
62.551417
56.753
50.824432
63.553678
62.753771
61.444972
59.386117
56.413359
52.553327
48.042376
43.300024
38.813123
55.749932
54.478572
52.664262
50.155108
46.889676
42.968755
38.663334
34.335416
30.318394
53.197307
51.672022
49.629019
46.955728
43.615322
39.719712
35.538531
31.414762
27.643976
52.074408
50.458675
48.392695
45.792908
42.614392
38.927312
34.95676
31.017125
27.395427
48.969077
47.281277
45.346621
43.125908
40.495818
37.403226
33.96325
30.43229
27.090891
42.645766
40.81589
38.852521
36.842333
34.79388
32.603705
30.193784
27.623235
25.05921
38.584599
36.583642
34.412409
32.190072
29.965951
27.711495
25.398846
23.072162
20.847026
37.367731
35.141879
32.67068
30.103884
27.557237
25.075413
22.673212
20.391502
18.304
37.413797
34.950296
32.128462
29.12877
26.160799
23.373198
20.828299
18.551294
16.562869
37.671911
34.947495
31.765694
28.340224
24.955045
21.859864
19.173616
16.896459
14.995019
37.905738
35.093138
31.776565
28.118144
24.407605
20.959301
17.999535
15.583396
13.660313
38.181595
35.389931
32.048366
28.333988
24.520727
20.902893
17.689367
15.017152
12.911646
38.832357
36.114492
32.817068
29.072703
25.133814
21.323505
17.934143
15.098343
12.828321
39.566987
36.974349
33.799082
30.142224
26.217792
22.31078
18.703444
15.611507
13.13611
40.237499
37.789215
34.768879
31.25509
27.432504
23.560997
19.908194
16.681014
13.988994
40.509894
38.224221
35.38956
32.067551
28.418046
24.674999
21.088264
17.861404
15.11672
40.61456
38.482776
35.833731
32.712939
29.25464
25.668812
22.187656
19.008981
16.261233
40.174586
38.205953
35.739298
32.816619
29.565211
26.166833
22.834895
19.758186
17.066292
39.637165
37.783986
35.459204
32.693144
29.596966
26.357819
23.169008
20.202399
17.585276
38.417963
36.738693
34.624702
32.093875
29.230634
26.182238
23.140052
20.295062
17.774292
37.526762
35.930499
33.915735
31.498166
28.76005
25.845759
22.934534
20.189637
17.741879
35.468875
34.02682
32.202653
30.007238
27.511561
24.843178
22.160414
19.61611
17.330825
34.280583
32.908619
31.170714
29.075411
26.688441
24.130337
21.553207
19.10675
16.909048
30.829248
29.620024
28.09217
26.251754
24.15279
21.897306
19.617487
17.445678
15.487095
379.10481
340.70162
293.76651
234.26416
153.36248
49.927793
368.95371
331.04481
284.75299
226.25219
147.29772
47.664264
358.19941
320.85759
275.31973
217.99965
141.20866
45.362174
346.85791
310.17177
265.5054
209.52532
135.09163
43.044718
334.96148
299.01011
255.33926
200.86775
128.96337
40.723966
322.54279
287.40674
244.85242
192.04291
122.8173
38.412453
309.62594
275.39634
234.0809
183.07509
116.65858
36.114138
296.26308
263.02421
223.05733
173.9799
110.4777
33.832161
282.51021
250.34114
211.82453
164.78538
104.2831
31.565961
268.42804
237.39702
200.41784
155.50729
98.071344
29.31575
254.10708
224.27779
188.9139
146.20695
91.883887
27.085956
239.62548
211.04859
177.35898
136.90882
85.734325
24.884721
225.13259
197.86353
165.90719
127.76466
79.777932
22.744957
210.72929
184.81083
154.63022
118.83192
74.055893
20.6997
196.60396
172.08064
143.70967
110.25871
68.611607
18.767117
182.89728
159.78397
133.20462
102.02283
63.320779
16.917005
169.81729
148.10966
123.28491
94.293317
58.423565
15.207752
157.74003
137.45448
114.36489
87.493156
54.312983
13.811236
146.55418
127.61167
106.14183
81.235731
50.550712
12.692339
136.61472
118.99569
99.086343
76.023183
47.590043
11.804917
127.49386
111.11631
92.654236
71.279574
44.876475
11.006706
118.81973
103.58285
86.439527
66.588832
42.000615
10.212626
110.21285
96.159043
80.360709
62.034682
39.200782
9.4126178
100.84214
87.838376
73.250593
56.345514
35.283407
8.4476356
91.173483
79.213724
65.841172
50.381629
31.151311
7.4948152
80.967957
70.046583
57.945656
44.072314
26.938492
6.5159753
70.876389
60.803946
49.757755
37.23423
22.017468
5.6186803
60.808791
51.762228
41.939041
30.920894
17.73019
4.9827119
50.753698
42.852304
34.445361
25.199017
14.396105
4.5376469
45.334631
38.080833
30.558805
22.485855
13.30339
4.4221034
44.920579
37.738411
30.348556
22.45552
13.489489
4.5306009
46.216161
38.930757
31.435093
23.447012
14.397486
4.7817517
48.193857
41.005387
33.47465
25.286703
15.765846
5.0218851
48.118777
41.113875
33.711381
25.574213
15.961849
5.0464359
45.006378
38.850891
32.109309
24.503637
15.341552
4.8001603
34.521835
29.992926
24.954892
19.130238
11.915985
4.1248568
26.565991
22.735241
18.643917
14.116034
8.8097709
3.6534453
24.150486
20.619256
16.918248
12.934554
8.4639821
3.6361794
24.021597
20.588186
16.973899
13.103361
8.8631071
3.8724283
23.906708
20.601533
17.099108
13.31123
9.1671715
4.1256625
22.476976
19.647749
16.500574
12.978848
9.0078877
4.2134795
18.703103
16.437169
13.941608
11.13331
7.9442056
4.0389032
16.331948
14.281477
12.091058
9.7180673
7.1294659
3.9079948
14.739389
12.88714
10.96054
8.9546916
6.9050636
3.8852811
13.305016
11.629739
9.9263031
8.1990848
6.5368415
3.8640366
12.017378
10.451201
8.9273405
7.4599307
6.1367778
3.8079822
11.168165
9.5808493
8.1259635
6.8338693
5.8000267
3.7329454
10.912111
9.172505
7.6501339
6.4076973
5.5516351
3.6569902
11.058853
9.1713773
7.4959232
6.1825319
5.4015305
3.5903964
11.654167
9.4918648
7.6030912
6.1296165
5.3149239
3.535004
12.66266
10.277436
8.0533967
6.2395184
5.1968354
3.4748238
13.754094
11.250443
8.815191
6.6288887
5.1787872
3.4245448
14.570142
12.020182
9.453379
6.9649336
4.8793237
3.3240723
15.129633
12.582435
9.9708312
7.3360787
4.8614319
3.241363
15.386287
12.874874
10.255264
7.5083513
4.7024866
3.1100639
15.406984
12.934733
10.341818
7.5874296
4.6801651
2.9608904
15.121296
12.74252
10.214591
7.4804629
4.5965117
2.763522
14.774769
12.465822
10.010036
7.347062
4.4303049
2.5783722
13.565462
11.458826
9.1984059
6.7425953
4.2057811
2.3045635
)
;

boundaryField
{
    Side1
    {
        type            empty;
    }
    Inlet
    {
        type            inletOutlet;
        inletValue      nonuniform List<scalar> 0();
        value           nonuniform List<scalar> 0();
    }
    Side2
    {
        type            empty;
    }
    Outlet
    {
        type            zeroGradient;
    }
    Botwall
    {
        type            kqRWallFunction;
        value           nonuniform List<scalar> 
59
(
49.927793
47.664264
45.362174
43.044718
40.723966
38.412453
36.114138
33.832161
31.565961
29.31575
27.085956
24.884721
22.744957
20.6997
18.767117
16.917005
15.207752
13.811236
12.692339
11.804917
11.006706
10.212626
9.4126178
8.4476356
7.4948152
6.5159753
5.6186803
4.9827119
4.5376469
4.4221034
4.5306009
4.7817517
5.0218851
5.0464359
4.8001603
4.1248568
3.6534453
3.6361794
3.8724283
4.1256625
4.2134795
4.0389032
3.9079948
3.8852811
3.8640366
3.8079822
3.7329454
3.6569902
3.5903964
3.535004
3.4748238
3.4245448
3.3240723
3.241363
3.1100639
2.9608904
2.763522
2.5783722
2.3045635
)
;
    }
    Cyli
    {
        type            kqRWallFunction;
        value           nonuniform List<scalar> 0();
    }
    procBoundary1to0
    {
        type            processor;
        value           nonuniform List<scalar> 
44
(
205.80868
283.72748
136.37108
136.37108
71.928872
71.928872
47.860816
45.096208
45.096208
42.337021
42.337021
42.011154
46.242754
50.376659
50.376659
51.255191
54.357133
56.28303
56.83204
56.060954
53.539425
53.986112
53.539425
49.699346
45.227745
44.528916
44.528916
454.75616
422.69836
359.06013
425.53689
469.99102
488.89568
488.27573
471.27427
471.27427
283.72748
283.72748
388.66875
349.8392
302.37496
242.0352
159.39592
52.145281
)
;
    }
    procBoundary1to3
    {
        type            processor;
        value           nonuniform List<scalar> 
62
(
44.297964
49.451156
55.173315
61.507678
68.458092
75.985698
84.037363
92.503801
101.28868
110.2959
119.38123
128.50631
137.68907
146.91013
156.44775
166.59471
177.2689
188.08048
199.6739
213.56954
229.8319
246.45093
261.25981
271.29522
272.72101
266.13633
250.21366
228.99661
208.05916
191.86678
182.2035
179.20717
180.91699
185.56506
188.78135
188.34693
182.61917
167.56016
152.40365
143.63124
143.63124
145.08095
143.75075
142.10975
136.744
128.6752
122.83902
118.3472
113.75917
108.81812
104.14248
99.410249
95.200896
90.562095
86.752609
82.021857
78.463496
73.693544
70.63157
65.553107
63.017821
56.805621
)
;
    }
}


// ************************************************************************* //
