/*--------------------------------*- C++ -*----------------------------------*\
| =========                 |                                                 |
| \\      /  F ield         | OpenFOAM: The Open Source CFD Toolbox           |
|  \\    /   O peration     | Version:  2406                                  |
|   \\  /    A nd           | Website:  www.openfoam.com                      |
|    \\/     M anipulation  |                                                 |
\*---------------------------------------------------------------------------*/
FoamFile
{
    version     2.0;
    format      ascii;
    arch        "LSB;label=32;scalar=64";
    class       surfaceScalarField;
    location    "0.05";
    object      phi;
}
// * * * * * * * * * * * * * * * * * * * * * * * * * * * * * * * * * * * * * //

dimensions      [1 0 -1 0 0 0 0];

oriented        oriented;

internalField   nonuniform List<scalar> 
4030
(
0.015293741
0.0012735711
0.015541381
0.0013430077
-0.0015904425
0.015742141
0.0014644245
-0.0016649296
0.015883898
0.0016571943
-0.001798611
0.015958474
0.0019472414
-0.0020213484
0.015951096
0.0023528654
-0.0023447994
0.015848514
0.0028936995
-0.0027901741
0.015646924
0.0035596839
-0.0033567476
0.01534641
0.0043395891
-0.004037224
0.014963192
0.0051822966
-0.0047967621
0.014536156
0.0059778773
-0.0055481654
0.014104185
0.0066359561
-0.0062010074
0.013700526
0.0070656703
-0.0066588759
0.013347683
0.0072005912
-0.0068446895
0.013061249
0.0069888293
-0.0066995941
0.012861209
0.0063874118
-0.006185072
0.0127666
0.005392721
-0.0052965437
0.01278154
0.004068609
-0.004082756
0.012886564
0.0025936427
-0.0026988762
0.013021068
0.0013521321
-0.0014874458
0.013132332
0.00072951152
-0.00084151273
0.013145242
0.0010592676
-0.0010727598
0.013026219
0.0026796574
-0.0025592398
0.012776959
0.0050265429
-0.0047732644
0.012433015
0.0076365145
-0.0072856869
0.012026701
0.010027948
-0.0096132014
0.011604513
0.011681656
-0.011250099
0.011286225
0.01203212
-0.011704911
0.011205346
0.010153328
-0.010064964
0.011332426
0.0064441069
-0.0065654714
0.011559459
0.0024360942
-0.0026579028
0.011848525
-0.00043853393
0.00015387016
0.012156193
-0.0021196021
0.0018154679
0.012319763
-0.0012635939
0.0011051534
0.012315971
0.0019277127
-0.0019169985
0.012326627
0.0051048333
-0.0051060704
0.012486389
0.0054616695
-0.0056124561
0.012735077
0.003134376
-0.0033752805
0.013035076
0.00074042602
-0.0010353651
0.013352497
-0.00048482627
0.00017084358
0.013669439
-0.00027895056
-3.5118654e-05
0.014022817
0.0002105988
-0.00056206434
0.014426293
-0.00018024056
-0.00022284654
0.014861596
-0.0010456883
0.00060951659
0.015316613
-0.0016753005
0.001218747
0.015790302
-0.0020811925
0.0016056623
0.016284057
-0.0024397675
0.0019439125
0.016792507
-0.0027701397
0.0022588771
0.017327246
-0.0032163596
0.0026767816
0.017876219
-0.0035059603
0.00294651
0.018453768
-0.0038958911
0.0032956587
0.019037069
-0.003929059
0.0033123365
0.019639976
-0.0039096692
0.0032669322
0.020274395
-0.0039914095
0.0033085339
0.020971573
-0.0042881953
0.003546878
0.021677395
-0.0036926216
0.0029516988
0.022445877
-0.0036078486
0.0028202306
-0.0020788762
0.001358996
0.013243873
0.00074697242
0.013702575
0.0008845032
0.014095007
0.0010722434
0.014414453
0.0013380946
0.014656047
0.0017061597
0.014809688
0.0022000132
0.014853921
0.0028505794
0.014772779
0.0036423743
0.014566284
0.00454814
0.014276772
0.0054744939
0.013919531
0.0063382112
0.013530044
0.0070287598
0.013150452
0.0074486949
0.012801177
0.0075531465
0.012507733
0.0072852287
0.012307916
0.0065895847
0.012229417
0.0054727315
0.012276541
0.0040220984
0.012429341
0.0024403471
0.01261043
0.0011701263
0.012790236
0.0005488131
0.012878107
0.00097066626
0.012841642
0.0027177218
0.012675853
0.005196665
0.012405472
0.0079140046
0.012072857
0.010369511
0.011711965
0.012052351
0.011454372
0.012299063
0.011423203
0.010192272
0.011571287
0.0063019082
0.0118008
0.0022106296
0.012099789
-0.00073111971
0.012420789
-0.0024367402
0.012602288
-0.0014395587
0.01264672
0.0018904536
0.012723902
0.0050372177
0.012932643
0.0052619044
0.01321258
0.0028625555
0.013536041
0.00042240256
0.013873797
-0.00081879005
0.014214506
-0.00061667412
0.014591665
-0.00016473205
0.015010671
-0.0005989442
0.015452372
-0.0014882612
0.015906801
-0.0021312558
0.016374077
-0.0025503555
0.016855478
-0.0029233958
0.0173461
-0.0032637702
0.017857549
-0.0037329502
0.018378071
-0.0040373541
0.01892181
-0.0044628439
0.019466465
-0.0045075178
0.020026948
-0.0045105088
0.020612739
-0.0046260077
0.021255591
-0.0049753154
0.021902617
-0.0043744456
0.022606592
-0.0043301345
-0.0027295244
0.0085166675
-0.00013079915
0.0093003944
-3.6626238e-05
0.01005163
0.00013342738
0.010757149
0.00036695813
0.011401787
0.00069381048
0.011971894
0.0011366065
0.012444183
0.0017285782
0.012781114
0.0025149029
0.012960782
0.0034644458
0.012981162
0.0045300669
0.012851162
0.0056074094
0.012637971
0.0065548712
0.012359952
0.0073104577
0.012043491
0.0077688237
0.011735066
0.0078650297
0.011480033
0.007543329
0.011334375
0.006737605
0.011325466
0.0054830306
0.011455755
0.0038921648
0.011680432
0.0022150524
0.011944085
0.000905507
0.012224975
0.00026687644
0.012412303
0.00078282806
0.012481557
0.0026503051
0.012422751
0.0052601847
0.012250852
0.0080932304
0.012002638
0.010626833
0.011728198
0.012337123
0.011544876
0.012491817
0.011568797
0.010176334
0.011740824
0.0061359775
0.01197687
0.0019795433
0.012293112
-0.001040811
0.012631723
-0.002771208
0.012840524
-0.0016424677
0.012945329
0.0017930025
0.013096479
0.0048957153
0.01335756
0.005009774
0.013671923
0.0025565301
0.01402197
7.8155568e-05
0.014381961
-0.0011746277
0.014746828
-0.00097843797
0.015146121
-0.00056228006
0.01557842
-0.0010310294
0.01602469
-0.0019354069
0.01647725
-0.0025853266
0.016937165
-0.0030121968
0.017405686
-0.0033942757
0.017878374
-0.0037396722
0.018366875
-0.004226911
0.018859622
-0.0045413692
0.019370596
-0.0049975231
0.019878207
-0.0050492682
0.020398233
-0.0050714592
0.020937811
-0.0052146734
0.02152913
-0.0056109567
0.022120589
-0.0050003332
0.022763923
-0.0049908247
-0.0033157602
0.0045055836
-0.00076943752
0.0051326268
-0.00075772142
0.0058047872
-0.00070864498
0.0065282678
-0.00058985621
0.0072761881
-0.00038067697
0.0080273076
-5.6904056e-05
0.0087498383
0.00041470512
0.0094170182
0.0010623473
0.0099758258
0.0019574649
0.010395635
0.0030465476
0.010653481
0.0042747616
0.010747484
0.0055165564
0.010699006
0.0066070128
0.01057641
0.0074370615
0.010395815
0.0079533104
0.010191196
0.0080732073
0.010045349
0.0076923253
0.010019925
0.006765357
0.010132586
0.0053715816
0.01037696
0.0036479169
0.010691142
0.0019003852
0.011075716
0.0005199556
0.011470592
-0.00012919296
0.011769571
0.00048369972
0.011963086
0.0024589093
0.012033154
0.0051951113
0.011978627
0.0081553943
0.011832944
0.010781437
0.011663497
0.012517444
0.011570864
0.012593829
0.011654134
0.010101217
0.011854595
0.0059419166
0.012103165
0.0017368055
0.012442222
-0.0013734116
0.01280174
-0.0031262016
0.013045686
-0.0018801792
0.013220731
0.0016254244
0.013450324
0.0046757644
0.013766168
0.0047028422
0.014117215
0.0022139862
0.014495093
-0.00029357769
0.014877559
-0.001552569
0.015265368
-0.0013630094
0.01568417
-0.00097940722
0.016127043
-0.0014737719
0.016575796
-0.0023850386
0.017025107
-0.0030361318
0.017476751
-0.0034658035
0.017931959
-0.0038519763
0.018386754
-0.0041978983
0.018852767
-0.004698716
0.019318608
-0.0050188722
0.019798072
-0.0055011496
0.020270478
-0.0055560928
0.020752273
-0.005594791
0.021248255
-0.005759974
0.021791106
-0.0061981254
0.022330623
-0.0055738676
0.022917399
-0.0055938695
-0.003842813
0.0029703407
-0.0011415209
0.0033663146
-0.001153525
0.0037929624
-0.0011350842
0.0042656812
-0.0010623015
0.0047883891
-0.00090301842
0.0053571185
-0.00062512777
0.0059454547
-0.0001728919
0.006521403
0.00048744864
0.0070634769
0.0014169097
0.0075462291
0.0025658799
0.0079289433
0.0038947795
0.0081912219
0.0052576255
0.0083299369
0.0064721182
0.0083672798
0.0074038164
0.0083477083
0.0079769685
0.0083189923
0.0081055156
0.0083398095
0.0076746715
0.0084800484
0.006627305
0.0087467056
0.0051059279
0.0091019346
0.0032927913
0.0095341142
0.00146793
0.010052521
4.1566899e-07
0.010557832
-0.00063559945
0.010980707
6.1006204e-05
0.011314091
0.0021279617
0.011527914
0.0049865608
0.011610938
0.0080802107
0.011589689
0.010812164
0.011532799
0.012584644
0.011546575
0.012589334
0.011693319
0.0099627437
0.01192719
0.0057147153
0.012196602
0.0014739119
0.012563904
-0.0017340702
0.012945805
-0.0035030908
0.013231089
-0.0021588908
0.013482494
0.0013815349
0.013791669
0.0043761374
0.014162664
0.0043406639
0.014550793
0.0018344747
0.014955883
-0.00069219478
0.015359761
-0.001951539
0.015768134
-0.0017679931
0.01620317
-0.0014128236
0.016653637
-0.0019241845
0.017102712
-0.0028349952
0.017547404
-0.0034822989
0.017989952
-0.0039103454
0.018431544
-0.0042962002
0.018868636
-0.0046386466
0.019312798
-0.0051490136
0.019752807
-0.0054709357
0.020202234
-0.0059751606
0.020641515
-0.0060300148
0.021087529
-0.006082995
0.021542792
-0.006264732
0.022040524
-0.0067401165
0.022532008
-0.0060989139
0.023066597
-0.0061435416
-0.0043162332
0.0016988649
-0.0013104368
0.0018998183
-0.0013422782
0.0021109127
-0.0013643847
0.0023391237
-0.0013630182
0.0025945242
-0.001317354
0.0028856152
-0.0011936629
0.0032148638
-0.00095378386
0.0035791595
-0.00053638465
0.0039656036
0.00010212939
0.0043746669
0.0010094926
0.004782633
0.00216013
0.0051648152
0.0035154482
0.0055018428
0.0049240373
0.0057773457
0.0062004983
0.0059791581
0.0072060482
0.0061317454
0.0078284023
0.0062976662
0.0079431547
0.0065140078
0.0074613576
0.0068400742
0.0063032246
0.0072415446
0.0047053663
0.0077159636
0.0028187294
0.0082895727
0.00089405086
0.0089194208
-0.0006305656
0.0095330568
-0.001250069
0.010087499
-0.00049295971
0.010569969
0.0016482543
0.010938586
0.0046234575
0.011172383
0.007854254
0.01129209
0.010702595
0.011359052
0.012527127
0.011485611
0.012472154
0.011704665
0.009751712
0.011972076
0.0054542651
0.0122741
0.0011789824
0.012676608
-0.0021296415
0.013079624
-0.0039004857
0.013410222
-0.0024825664
0.0137394
0.0010598698
0.014125633
0.0039992836
0.014549794
0.0039251323
0.014973305
0.0014196292
0.015403303
-0.0011154203
0.015826398
-0.0023693445
0.016252259
-0.0021902963
0.016699942
-0.0018589255
0.017154984
-0.0023792396
0.017602281
-0.0032831756
0.018041074
-0.0039225462
0.018473843
-0.004345136
0.018901689
-0.0047268192
0.019321441
-0.0050622895
0.019744585
-0.0055786468
0.020160054
-0.0058988509
0.02058114
-0.0064212141
0.020989595
-0.0064732824
0.021402508
-0.0065387741
0.021820186
-0.0067320284
0.022276441
-0.0072405153
0.022724063
-0.0065795916
0.023211123
-0.0066444103
-0.0047418622
0.00075280656
-0.0013917755
0.00085152065
-0.0014089308
0.00094103063
-0.0014315323
0.0010265481
-0.0014496092
0.0011090263
-0.0014451599
0.0011963231
-0.0014042258
0.0013027611
-0.0012995612
0.0014312997
-0.0010816449
0.0015860197
-0.00069023899
0.0017672957
-7.8150927e-05
0.0019980021
0.00078047529
0.0022784502
0.0018819546
0.0026099236
0.0031868272
0.0029648178
0.0045725345
0.0033149624
0.005854133
0.0036414856
0.0068834525
0.0039625049
0.0075111666
0.004308715
0.0076003477
0.0047151656
0.0070576996
0.0051901521
0.0058301333
0.0057129179
0.0041836358
0.0063232916
0.0022088827
0.0070092613
0.00020777962
0.0077336402
-0.0013558193
0.0084535871
-0.0019704864
0.0091392062
-0.0011777418
0.0097712377
0.0010192831
0.010298476
0.0041018882
0.010690984
0.0074694774
0.01096008
0.010443339
0.011163536
0.012333124
0.011407266
0.01223784
0.011700444
0.0094662408
0.012008369
0.0051536258
0.012359505
0.00083534797
0.012796235
-0.0025590479
0.013217876
-0.0043157825
0.013595028
-0.0028524156
0.013998354
0.00066402573
0.014455375
0.0035514166
0.014928584
0.0034603485
0.015384034
0.00097281435
0.015835012
-0.0015593557
0.016274262
-0.0028029351
0.016714227
-0.0026265189
0.017170925
-0.0023140626
0.017627648
-0.0028360319
0.018071218
-0.0037276299
0.018502982
-0.0043557438
0.018925484
-0.0047696815
0.019339641
-0.0051438943
0.019742614
-0.0054693939
0.020145773
-0.0059886579
0.02053822
-0.0063041333
0.020932906
-0.006841211
0.021313062
-0.0068883792
0.021695783
-0.0069650441
0.022079269
-0.0071652017
0.022497966
-0.0077031826
0.022906148
-0.0070202871
0.023350613
-0.0071013669
-0.0051257824
-5.6531594e-05
-0.0013798499
-7.0584268e-05
-0.0013946108
-8.6914141e-05
-0.0014148985
-0.00010347546
-0.0014326964
-0.00011416204
-0.0014340488
-0.00012215783
-0.0013957303
-0.00013519988
-0.0012859144
-0.00015090362
-0.0010651721
-0.00015857838
-0.00068155925
-0.00013459075
-0.00010066223
-5.6382757e-05
0.00070400934
9.7666736e-05
0.0017301366
0.00037792723
0.0029093103
0.00073896574
0.0042147131
0.0011237632
0.0054728598
0.0015399493
0.0064709513
0.001991066
0.0070635905
0.0024824657
0.0071121137
0.0030379266
0.0065048499
0.0036245217
0.0052454771
0.0042674305
0.0035419264
0.0049833154
0.0014935274
0.0057572737
-0.00056628858
0.0065659497
-0.0021649406
0.0073824668
-0.0027870246
0.0081889348
-0.0019829737
0.0089614434
0.00025008766
0.0096430904
0.0034259611
0.010195628
0.0069244998
0.010619555
0.010028873
0.010966305
0.011995809
0.011326684
0.011886523
0.011696241
0.0091043353
0.012059951
0.0047974327
0.012467573
0.0004354897
0.012934982
-0.003018576
0.013374367
-0.0047480479
0.013794323
-0.0032646443
0.01426325
0.00020255042
0.014782325
0.0030412366
0.015298491
0.0029524776
0.015780446
0.00049936239
0.016247604
-0.0020192253
0.016699423
-0.003248748
0.01715006
-0.0030732141
0.0176123
-0.0027747397
0.018068048
-0.003291893
0.018506169
-0.004166635
0.018929984
-0.0047809692
0.019341951
-0.0051837105
0.019742682
-0.0055476891
0.020129649
-0.0058607394
0.020514069
-0.0063802985
0.020885237
-0.0066885255
0.021255716
-0.0072373027
0.021610328
-0.0072780251
0.021965996
-0.0073649283
0.022318937
-0.0075678435
0.022704251
-0.0081322392
0.023077665
-0.0074256734
0.023484737
-0.0075196138
-0.0054742573
-0.0008299243
-0.0012839544
-0.00092632364
-0.0012979012
-0.0010248008
-0.0013160736
-0.0011264087
-0.001330692
-0.0012321314
-0.0013278595
-0.0013413994
-0.0012859093
-0.0014513883
-0.0011752571
-0.0015554811
-0.00096025326
-0.0016367482
-0.00059927097
-0.0016774311
-5.8839541e-05
-0.0016589244
0.00068716194
-0.0015655725
0.0016389157
-0.0013886087
0.0027349221
-0.0011261465
0.0039552127
-0.0007455784
0.0050954789
-0.00026325629
0.0059919781
0.00029360975
0.0065100062
0.00088612155
0.0065225155
0.0015450615
0.0058483652
0.0022268716
0.0045657152
0.0029674011
0.0028026826
0.0037664356
0.00069517886
0.004613961
-0.001413513
0.0054907136
-0.0030416034
0.0063850234
-0.0036808242
0.0072910925
-0.0028873861
0.0081850599
-0.00064035978
0.0090084777
0.0026082212
0.009715062
0.006225259
0.010293578
0.0094594151
0.010784919
0.011513669
0.011261588
0.011418511
0.011713517
0.0086600139
0.012143546
0.0043750267
0.012603728
-1.6803607e-05
0.013098184
-0.0035045152
0.013553969
-0.0051959155
0.014011066
-0.0037135477
0.014534872
-0.00031380148
0.015105568
0.0024791576
0.015656877
0.0024093155
0.016158799
5.6809796e-06
0.016636901
-0.0024898233
0.01709748
-0.0037030008
0.017555461
-0.0035270415
0.018020087
-0.0032377758
0.018472522
-0.0037444722
0.018903764
-0.0045987584
0.019318959
-0.0051975504
0.019720357
-0.0055871853
0.020108147
-0.0059386887
0.020480109
-0.0062373292
0.020847256
-0.00675504
0.021199122
-0.0070540007
0.021547844
-0.0076118964
0.021879892
-0.0076451756
0.022211863
-0.0077417469
0.022538152
-0.0079437909
0.022894512
-0.00853206
0.023238071
-0.0078006674
0.023613194
-0.0079046379
-0.0057936582
-0.0013460362
-0.0011174625
-0.0015069685
-0.0011227106
-0.0016678038
-0.0011367192
-0.0018304846
-0.0011530058
-0.0019974156
-0.001163324
-0.0021699805
-0.0011547906
-0.0023469612
-0.0011083374
-0.0025232741
-0.00099823954
-0.0026893414
-0.00079332832
-0.0028289192
-0.00045860358
-0.0029242012
3.8015354e-05
-0.0029618138
0.00072642352
-0.0028891946
0.0015682725
-0.0026912012
0.002539253
-0.0024205065
0.0036871776
-0.0020589099
0.0047367237
-0.0016309124
0.0055670286
-0.0011009637
0.0059830447
-0.00044062969
0.0058648469
0.00030137267
0.0051086822
0.0010623063
0.0038068749
0.0018858798
0.0019805784
0.0027544984
-0.00017247549
0.0036595066
-0.0023177295
0.0045815026
-0.0039628899
0.0055248096
-0.0046230158
0.0064988039
-0.0038592723
0.007485691
-0.0016235646
0.0084297195
0.0016697567
0.0092770864
0.0053849703
0.010003953
0.0087411522
0.010636967
0.010889493
0.011228952
0.010834726
0.011766722
0.0081297942
0.012265601
0.0038837658
0.012772703
-0.00051589497
0.013288043
-0.004010697
0.013757802
-0.0056569659
0.014244372
-0.0041914199
0.014810992
-0.00087291122
0.015421899
0.0018765884
0.01599941
0.0018396912
0.01651439
-0.00050142832
0.016998215
-0.002965958
0.017463744
-0.0041619131
0.017925949
-0.0039848733
0.018390229
-0.0037004153
0.018837387
-0.0041917909
0.019260652
-0.0050229001
0.019666848
-0.0056051059
0.020057878
-0.0059803039
0.020433451
-0.0063176157
0.020791642
-0.0066003998
0.021143214
-0.0071145811
0.021477988
-0.0074027646
0.021807658
-0.0079676524
0.022120343
-0.0079930153
0.022432185
-0.008099011
0.022735952
-0.0082971159
0.023068021
-0.0089072582
0.023386866
-0.0081503979
0.023735709
-0.0082622332
-0.0060904115
-0.0018330447
-0.00089860446
-0.0020448504
-0.00091056634
-0.0022539992
-0.00092719648
-0.0024639907
-0.0009425983
-0.0026779439
-0.0009489045
-0.0028970707
-0.00093513485
-0.0031196653
-0.00088513396
-0.0033400047
-0.00077718925
-0.0035479736
-0.00058451315
-0.0037289748
-0.00027656861
-0.0038670322
0.00017737386
-0.0039444972
0.00080538797
-0.0039213091
0.0015468511
-0.0037640366
0.0023840508
-0.0035013139
0.0034268108
-0.0031198863
0.0043579578
-0.0026287415
0.0050785734
-0.0020502354
0.005406992
-0.0013914111
0.0052084116
-0.00064132455
0.0043608037
0.00019119398
0.0029764738
0.0010912427
0.0010822
0.0020239744
-0.0011038783
0.0029699688
-0.0032623886
0.00391129
-0.0049028134
0.004864207
-0.0055741601
0.0058620846
-0.0048545493
0.0069042396
-0.0026618838
0.0079397911
0.000639616
0.008907705
0.004423822
0.009770921
0.0078860395
0.010538274
0.010130505
0.01124184
0.010138831
0.01186403
0.0075150497
0.012426666
0.0033287097
0.012971291
-0.0010524299
0.013500107
-0.0045297477
0.013980232
-0.0061276536
0.014488529
-0.0046904904
0.015085904
-0.0014626585
0.015725796
0.0012447795
0.016320668
0.0012522964
0.016841904
-0.0010153176
0.017326544
-0.003442755
0.017793392
-0.0046218855
0.018256997
-0.0044438833
0.018718668
-0.0041603709
0.019158994
-0.0046322789
0.019573551
-0.005438326
0.01997068
-0.0060035654
0.02035178
-0.0063635
0.020716114
-0.0066854468
0.021062012
-0.0069514276
0.021399941
-0.0074608533
0.021720063
-0.0077372522
0.022033636
-0.0083074789
0.022330371
-0.0083249504
0.022625856
-0.0084404141
0.022911452
-0.0086321135
0.023224115
-0.0092626672
0.023523595
-0.0084802058
0.023852042
-0.0085985343
-0.0063709368
-0.0021631885
-0.00064228941
-0.002407946
-0.00066544927
-0.0026497164
-0.00068503515
-0.0028921873
-0.00069969727
-0.0031375668
-0.00070304741
-0.0033865816
-0.00068558431
-0.0036371801
-0.0006339289
-0.0038836463
-0.00053002836
-0.00411626
-0.00035109258
-0.0043216022
-7.0277383e-05
-0.004483151
0.00034006827
-0.0045818421
0.00090541314
-0.0045801943
0.0015467341
-0.0044585775
0.002264229
-0.0042161424
0.0031863807
-0.003850598
0.0039946123
-0.0033576854
0.0045878633
-0.0027494818
0.0048009519
-0.0020261427
0.0044872071
-0.0012168856
0.0035535882
-0.00033537711
0.0020970939
0.00062543224
0.00012325459
0.0016093944
-0.00208603
0.002576427
-0.0042274834
0.0035147547
-0.0058390278
0.0044486463
-0.0065055919
0.0054267597
-0.0058295618
0.0064776758
-0.0037088111
0.0075678485
-0.00044528299
0.0086297535
0.0033683359
0.0096116121
0.0069117482
0.010500174
0.0092497244
0.011306326
0.0093400515
0.01200538
0.0068232815
0.012621161
0.0027204514
0.013191758
-0.001614855
0.013725867
-0.0050536179
0.014211903
-0.0066036263
0.014734782
-0.0052036174
0.015352011
-0.0020720759
0.016010551
0.00059412482
0.016614514
0.00065529849
0.017135728
-0.0015297747
0.017616751
-0.0039158103
0.018081594
-0.005079625
0.018544133
-0.0049016091
0.019001409
-0.0046158353
0.019433789
-0.0050648059
0.019839291
-0.0058446842
0.020227588
-0.0063931638
0.02059945
-0.006737464
0.02095379
-0.0070434196
0.021289116
-0.0072921316
0.02161557
-0.0077960204
0.021923709
-0.008060124
0.022224377
-0.0086345201
0.02250878
-0.00864459
0.022791872
-0.0087698273
0.023063856
-0.0089532854
0.0233622
-0.0096033281
0.023647859
-0.0087956217
0.023961983
-0.0089200808
-0.0066415909
-0.0023185859
-0.00036769155
-0.0025825986
-0.0004010643
-0.0028399841
-0.00042724545
-0.0030966458
-0.00044259491
-0.0033555368
-0.00044367243
-0.0036172893
-0.00042329627
-0.0038798289
-0.00037079211
-0.0041376458
-0.00027153942
-0.0043811847
-0.00010678872
-0.0045962169
0.00014564155
-0.0047655559
0.00051042333
-0.0048616177
0.0010026438
-0.0048718862
0.001558325
-0.0047771529
0.0021709919
-0.0045533849
0.0029642437
-0.0041956292
0.0036386489
-0.0037013434
0.0040954005
-0.0030719918
0.0041734519
-0.0023133123
0.0037303971
-0.0014537949
0.0026959747
-0.00051427029
0.001159742
0.00049156512
-0.00088040364
0.001497798
-0.0030899506
0.0024601572
-0.0051872933
0.0033710477
-0.0067471045
0.004266399
-0.0073978012
0.0052051945
-0.0067647735
0.0062308323
-0.0047303011
0.0073359804
-0.0015452485
0.0084604473
0.0022499164
0.0095377601
0.0058414351
0.010529588
0.0082650476
0.011420907
0.0084559488
0.012184219
0.0060670116
0.012840393
0.0020717213
0.013423568
-0.0021897743
0.013954698
-0.0055741744
0.014441613
-0.00707996
0.014972654
-0.0057244088
0.015600478
-0.0026918468
0.016268537
-6.6184638e-05
0.016874335
5.6050911e-05
0.017390178
-0.0020394445
0.017863693
-0.0043812216
0.018323605
-0.0055322411
0.018783016
-0.0053559949
0.019234592
-0.0050654846
0.019658374
-0.0054887043
0.020054843
-0.0062419925
0.02043484
-0.0067744321
0.020798442
-0.0071031687
0.021144292
-0.007393033
0.021471014
-0.007624473
0.021788394
-0.0081224769
0.022087437
-0.0083742562
0.022378613
-0.0089521397
0.022654492
-0.0089557298
0.022929338
-0.0090912916
0.023192467
-0.0092653301
0.02348176
-0.0099344744
0.023759313
-0.0091023492
0.024065356
-0.0092337923
-0.0069086256
-0.0022961592
-9.2945643e-05
-0.0025614982
-0.00013534891
-0.0028220231
-0.00016631203
-0.0030802332
-0.00018394087
-0.0033385306
-0.00018489086
-0.0035976003
-0.00016369613
-0.0038555521
-0.00011225678
-0.0041072047
-1.9239598e-05
-0.0043435202
0.00013024552
-0.0045513914
0.00035431667
-0.0047126449
0.0006725677
-0.0047988625
0.0010898557
-0.0048118257
0.0015723964
-0.004725758
0.0020861296
-0.0045093947
0.0027491681
-0.0041544007
0.0032850504
-0.0036574314
0.0035998848
-0.0030154749
0.0035330267
-0.002232038
0.0029485934
-0.0013421692
0.0018078468
-0.00036078788
0.00018054539
0.00066983737
-0.0019086731
0.0016749729
-0.0040923496
0.0026128857
-0.0061220864
0.003479407
-0.0076101739
0.0043163557
-0.0082309633
0.0051929141
-0.007637236
0.006166752
-0.0056998302
0.0072544772
-0.0026278926
0.0084079534
0.0011021136
0.0095524908
0.0047032916
0.010622621
0.0072014288
0.011580392
0.0075048796
0.012391955
0.0052621442
0.013071106
0.001399923
0.013654622
-0.002764951
0.014175128
-0.0060838633
0.014657673
-0.0075515123
0.015191095
-0.0062471393
0.015822015
-0.0033144351
0.016491904
-0.00072840756
0.017093414
-0.00053916709
0.01759958
-0.0025399304
0.018062332
-0.0048357422
0.018514858
-0.0059773193
0.018969507
-0.0058054192
0.019414551
-0.0055084692
0.019829547
-0.0059037714
0.020217368
-0.0066306298
0.020589889
-0.0071481928
0.020946499
-0.0074618798
0.021285626
-0.0077360445
0.02160595
-0.0079506507
0.021916885
-0.0084428406
0.022209928
-0.0086827298
0.022495224
-0.0092639005
0.022766563
-0.0092623333
0.023037481
-0.009409012
0.023296688
-0.0095731204
0.023582348
-0.010261499
0.023857672
-0.0094062657
0.024162025
-0.0095466843
-0.0071781716
-0.002099161
-0.0023537058
0.00011957217
-0.0026024619
8.285022e-05
-0.0028476377
6.1674243e-05
-0.0030908793
5.8826614e-05
-0.0033326223
7.8563489e-05
-0.0035712842
0.00012696706
-0.0038024683
0.00021255545
-0.0040182414
0.00034668419
-0.0042065234
0.00054331913
-0.0043497688
0.00081658806
-0.0044296321
0.0011705456
-0.0044344978
0.0015781408
-0.0043515054
0.0020040796
-0.0041337035
0.0025323333
-0.0037807266
0.0029330666
-0.0032798095
0.0031000468
-0.0026248431
0.0028792511
-0.001825955
0.0021510734
-0.00091800326
0.00090146611
8.6608121e-05
-0.00082190756
0.0011139215
-0.0029334195
0.0020972412
-0.0050726218
0.0029921171
-0.0070133463
0.0038012902
-0.008415335
0.0045705688
-0.0089958926
0.0053736932
-0.0084357609
0.006276645
-0.0065983005
0.0073180782
-0.0036642603
0.0084668322
-4.1274837e-05
0.0096459591
0.003529966
0.01076999
0.0060832547
0.011774885
0.0065059833
0.012613699
0.0044296544
0.013299427
0.00072142865
0.013872291
-0.0033294029
0.014375472
-0.0065760755
0.014848608
-0.0080133503
0.015379255
-0.006766723
0.016007379
-0.0039339318
0.016673026
-0.0013864286
0.017265271
-0.0011252843
0.01775838
-0.003027682
0.01820782
-0.0052769031
0.018651037
-0.0064129797
0.019099737
-0.0062487119
0.019537871
-0.0059443993
0.019944343
-0.0063102517
0.020324257
-0.0070113306
0.020690418
-0.0075155616
0.02104159
-0.0078151477
0.021376016
-0.0080744632
0.021692381
-0.0082730923
0.021999717
-0.0087599433
0.022290046
-0.0089888149
0.022573255
-0.0095735435
0.022844194
-0.0095685157
0.023115655
-0.0097273417
0.023376021
-0.0098816778
0.023663595
-0.010589918
0.023942699
-0.0097134404
0.024251876
-0.0098658466
-0.0074562754
-0.0019851125
0.0003480383
-0.0022084657
0.00030660613
-0.0024275658
0.00028120805
-0.0026427669
0.00027449443
-0.0028537407
0.00029003909
-0.0030588003
0.00033256539
-0.0032540029
0.000408334
-0.0034325005
0.0005257943
-0.003583919
0.00069538251
-0.0036941782
0.00092751703
-0.0037474312
0.0012244849
-0.0037288517
0.0015602362
-0.0036372658
0.0019131901
-0.0034138356
0.0023095724
-0.0030612858
0.0025811873
-0.0025655967
0.0026050753
-0.0019156034
0.0022301268
-0.0011298785
0.0013664516
-0.00022263274
-4.3241244e-06
0.00077440038
-0.0018168821
0.0017735265
-0.0039297769
0.0027163165
-0.0060120885
0.0035514014
-0.0078444359
0.0042918851
-0.0091513439
0.0049864432
-0.009685632
0.0057109846
-0.0091552263
0.0065335657
-0.0074162896
0.0075088071
-0.0046343447
0.0086249481
-0.0011522548
0.0098107064
0.0023494824
0.010961661
0.0049375064
0.011987442
0.0054855801
0.012833772
0.0035892492
0.01351137
5.089709e-05
0.014064146
-0.0038737263
0.014544353
-0.0070452409
0.01500352
-0.0084610109
0.015526886
-0.007278736
0.016147761
-0.0045458889
0.01680461
-0.0020356638
0.017383742
-0.0016983348
0.017861277
-0.0034999599
0.018295603
-0.005702978
0.018728152
-0.0068379066
0.019170171
-0.0066851598
0.019601452
-0.0063733216
0.020000081
-0.0067088122
0.020373173
-0.0073851726
0.02073438
-0.0078779434
0.021081943
-0.008164797
0.02141393
-0.0084105385
0.021728994
-0.0085944425
0.022035779
-0.0090768156
0.02232686
-0.0092959531
0.022611925
-0.0098849623
0.022886739
-0.009878522
0.023163351
-0.010050768
0.023430079
-0.010196146
0.023725217
-0.010925351
0.024014224
-0.010030052
0.024334831
-0.010198263
-0.0077484508
-0.0014876544
0.00053920926
-0.0016754169
0.00049476869
-0.0018587635
0.00046498359
-0.0020362774
0.00045246627
-0.0022063178
0.00046056775
-0.0023667947
0.00049356002
-0.0025140771
0.00055616125
-0.0026423468
0.00065463142
-0.0027429917
0.00079660807
-0.0028050188
0.00099012365
-0.0028135628
0.0012335888
-0.0027613941
0.001508578
-0.0026418633
0.001794137
-0.0024082693
0.0020763806
-0.0020561394
0.0022294149
-0.0015709239
0.0021202453
-0.00094740087
0.0016071886
-0.00019005271
0.00060994874
0.00069399052
-0.00088702264
0.0016546387
-0.0027755464
0.0026075161
-0.0048798114
0.0034841039
-0.0068851134
0.0042448776
-0.0086009388
0.0049060157
-0.0098076606
0.0055191802
-0.010293636
0.006162188
-0.0097926945
0.0069006692
-0.0081501946
0.0077972555
-0.0055256169
0.008859258
-0.0022092232
0.010025493
0.0011880487
0.011175857
0.0037917152
0.01219956
0.00446663
0.013036455
0.0027578582
0.013693386
-0.00059915115
0.014218315
-0.0043902173
0.014670972
-0.0074868589
0.015112285
-0.0088907091
0.015624582
-0.007779478
0.016235046
-0.0051471699
0.016879894
-0.0026728576
0.017443076
-0.0022553759
0.01790337
-0.0039548643
0.018321516
-0.006112943
0.018742609
-0.0072513565
0.019177661
-0.007114501
0.01960255
-0.0067956917
0.019994411
-0.0071005133
0.020362093
-0.0077535602
0.020720031
-0.0082370213
0.02106607
-0.0085129078
0.021398107
-0.0087467439
0.021714733
-0.0089175462
0.022024199
-0.009396669
0.02231965
-0.0096077367
0.022610642
-0.010202177
0.022893719
-0.010196705
0.0231802
-0.010383892
0.023458588
-0.010521763
0.023767018
-0.011273501
0.024072124
-0.010362293
0.024410832
-0.010550721
-0.0080603583
-0.00089750375
-0.0010427166
0.00064038103
-0.0011839127
0.00060660536
-0.0013175756
0.00058658164
-0.0014401348
0.00058360455
-0.001548673
0.00060259973
-0.0016394133
0.00064742178
-0.0017073091
0.00072305812
-0.0017452498
0.00083507682
-0.0017440368
0.00098941617
-0.0016924939
0.0011825
-0.0015881104
0.0014045705
-0.0014224116
0.0016287306
-0.0011672768
0.0018214263
-0.0008125212
0.0018747432
-0.00034367024
0.0016514644
0.00024690422
0.0010168813
0.00095927186
-0.00010177645
0.0017924067
-0.0017189849
0.002692946
-0.003674122
0.0035693514
-0.0057533258
0.0043585246
-0.0076705742
0.0050286843
-0.0092666562
0.0056000606
-0.010373994
0.0061255208
-0.010813715
0.0066846599
-0.010345806
0.0073382833
-0.008799466
0.0081492017
-0.0063309602
0.009139819
-0.0031948579
0.010263883
6.8360025e-05
0.011391335
0.0026682595
0.012393461
0.0034686175
0.01320637
0.0019500303
0.013832728
-0.0012188379
0.014323754
-0.0048728859
0.014745466
-0.0078975991
0.01516591
-0.0092995278
0.015664066
-0.008265962
0.016262008
-0.0057357068
0.016892673
-0.0032956542
0.017438006
-0.0027944446
0.017880267
-0.0043914189
0.01828185
-0.0065064535
0.018691272
-0.0076531583
0.019119505
-0.0075369096
0.019538839
-0.0072123445
0.019925362
-0.0074867712
0.020289349
-0.0081182004
0.020645968
-0.0085947413