/*--------------------------------*- C++ -*----------------------------------*\
| =========                 |                                                 |
| \\      /  F ield         | OpenFOAM: The Open Source CFD Toolbox           |
|  \\    /   O peration     | Version:  2406                                  |
|   \\  /    A nd           | Website:  www.openfoam.com                      |
|    \\/     M anipulation  |                                                 |
\*---------------------------------------------------------------------------*/
FoamFile
{
    version     2.0;
    format      ascii;
    arch        "LSB;label=32;scalar=64";
    class       volScalarField;
    location    "0.05";
    object      rho;
}
// * * * * * * * * * * * * * * * * * * * * * * * * * * * * * * * * * * * * * //

dimensions      [1 -3 0 0 0 0 0];

internalField   nonuniform List<scalar> 
2065
(
1.1894213
1.1895079
1.1895701
1.1896109
1.1896427
1.1896763
1.18974
1.1898306
1.1900106
1.1903399
1.1907749
1.191305
1.191908
1.1925379
1.1931414
1.1936732
1.1940952
1.1943794
1.1945154
1.1944965
1.1944133
1.1943262
1.1943475
1.1945007
1.1948619
1.1954003
1.1959677
1.1964544
1.1968115
1.1970037
1.1970535
1.1970304
1.1969501
1.1968658
1.1969361
1.1972151
1.1975978
1.1978136
1.1979765
1.1980852
1.1982338
1.1984684
1.1987224
1.1989588
1.1991975
1.1994534
1.1997201
1.2000195
1.2003254
1.2006927
1.2009887
1.2012192
1.2012812
1.2012882
1.2012441
1.2012934
1.20114
1.2012604
1.1888983
1.1889927
1.1890569
1.1891003
1.189139
1.189192
1.1892788
1.1894294
1.1896576
1.1900207
1.1905412
1.19115
1.1918127
1.1924859
1.1931165
1.1936632
1.1940883
1.1943618
1.1944804
1.1944444
1.1943751
1.1942889
1.194332
1.1945295
1.1949079
1.1954544
1.1960384
1.1965172
1.1968658
1.1970482
1.1971005
1.1970973
1.1970387
1.1969724
1.1970542
1.197332
1.1976929
1.1979076
1.1980821
1.1982075
1.1983611
1.1985839
1.1988229
1.1990507
1.1992836
1.1995313
1.199788
1.2000779
1.2003759
1.2007351
1.2010237
1.2012449
1.201305
1.2013059
1.2012573
1.2013021
1.2011463
1.2012627
1.1884054
1.188487
1.1885494
1.1885971
1.188636
1.1886787
1.1887451
1.1888565
1.1890462
1.1893473
1.189766
1.1903295
1.1910127
1.191734
1.1924438
1.1930947
1.1936518
1.1940744
1.1943318
1.1944258
1.1944035
1.1943495
1.1942719
1.1943442
1.1945788
1.1949927
1.1955253
1.1961181
1.1965875
1.1969222
1.1970945
1.1971482
1.1971799
1.1971392
1.1970925
1.1971826
1.1974537
1.1977932
1.1980036
1.198188
1.1983294
1.1984862
1.1986964
1.1989199
1.1991384
1.1993651
1.199605
1.1998522
1.2001331
1.2004237
1.2007754
1.2010569
1.2012692
1.2013275
1.2013225
1.2012696
1.2013101
1.2011522
1.2012656
1.1883009
1.1883006
1.188298
1.1883036
1.1883161
1.1883345
1.1883643
1.1884332
1.1885584
1.1887721
1.1891082
1.1895828
1.1901843
1.1908954
1.1916591
1.1923956
1.1930583
1.1936229
1.1940404
1.1942812
1.1943578
1.194385
1.1943344
1.1942812
1.1943842
1.1946487
1.1950873
1.1956181
1.1961972
1.196657
1.1969774
1.1971436
1.1972005
1.1972731
1.1972501
1.1972246
1.1973199
1.1975787
1.1978951
1.1980993
1.1982927
1.1984477
1.1986069
1.1988043
1.1990125
1.1992214
1.1994417
1.1996741
1.1999125
1.2001851
1.2004687
1.2008132
1.2010881
1.2012922
1.2013489
1.2013383
1.2012814
1.2013176
1.2011577
1.2012691
1.1882388
1.1882037
1.1881738
1.1881544
1.188146
1.188149
1.1881741
1.1882503
1.1883911
1.1886249
1.1889795
1.1894767
1.1901072
1.1908321
1.1916017
1.1923521
1.193013
1.1935789
1.1939843
1.194207
1.1943158
1.1943734
1.1943337
1.1943178
1.1944507
1.1947394
1.1951906
1.1957261
1.1962789
1.1967291
1.1970321
1.1971958
1.1972583
1.197374
1.1973695
1.1973666
1.197464
1.1977058
1.1979973
1.1981939
1.1983942
1.1985606
1.1987216
1.1989068
1.1991002
1.1992994
1.1995134
1.1997388
1.1999691
1.2002339
1.2005109
1.2008489
1.2011174
1.201314
1.2013693
1.2013533
1.2012925
1.2013247
1.2011627
1.2012733
1.1882253
1.188186
1.1881475
1.188115
1.1880889
1.1880703
1.1880665
1.1880914
1.1881703
1.1883298
1.1885791
1.1889431
1.189446
1.1900783
1.190799
1.1915559
1.1923031
1.1929558
1.193511
1.193896
1.1941344
1.194294
1.1943616
1.194353
1.1943799
1.1945427
1.1948518
1.195308
1.1958389
1.1963653
1.1968034
1.1970862
1.1972419
1.1973307
1.197478
1.1974944
1.1975155
1.1976124
1.1978335
1.1980984
1.1982858
1.1984909
1.1986664
1.1988294
1.1990035
1.1991828
1.1993726
1.1995802
1.1997992
1.200022
1.2002796
1.2005505
1.2008823
1.201145
1.2013348
1.2013887
1.2013677
1.2013032
1.2013314
1.2011674
1.2012782
1.1882222
1.1881947
1.1881654
1.188136
1.188111
1.1880873
1.1880694
1.1880712
1.1881045
1.1881905
1.1883516
1.1885995
1.1889629
1.1894586
1.1900782
1.1907731
1.1915032
1.1922264
1.1928751
1.1934086
1.1937965
1.1940771
1.1942635
1.194356
1.1943931
1.1944653
1.194658
1.1949835
1.1954384
1.1959566
1.1964557
1.1968746
1.1971377
1.1972824
1.1974156
1.197578
1.1976208
1.1976672
1.1977624
1.1979599
1.1981972
1.1983736
1.1985816
1.1987643
1.1989296
1.199094
1.1992601
1.1994408
1.1996423
1.1998553
1.2000714
1.2003223
1.2005875
1.2009136
1.2011709
1.2013546
1.2014072
1.2013814
1.2013135
1.2013379
1.2011718
1.2012838
1.1882271
1.1882062
1.1881828
1.1881588
1.1881344
1.1881176
1.1881151
1.1881285
1.1881708
1.1882585
1.1884149
1.1886579
1.1890115
1.1894879
1.1900832
1.1907394
1.1914349
1.1921265
1.1927616
1.1932801
1.1937035
1.1940108
1.194224
1.1943613
1.1944516
1.1945713
1.1947929
1.1951306
1.1955786
1.1960777
1.1965494
1.1969413
1.1971856
1.1973317
1.1974933
1.19767
1.197745
1.1978176
1.1979108
1.1980837
1.1982926
1.1984563
1.1986653
1.1988539
1.1990219
1.1991781
1.1993323
1.1995041
1.1996997
1.1999073
1.2001174
1.2003622
1.2006221
1.2009429
1.2011952
1.2013736
1.2014247
1.2013946
1.2013234
1.201344
1.201176
1.2012903
1.1882536
1.1882366
1.1882197
1.1882038
1.1881897
1.1881817
1.1881847
1.1882038
1.1882498
1.1883357
1.188485
1.1887267
1.1890814
1.1895302
1.1900774
1.1906888
1.1913504
1.1920107
1.1926244
1.1931408
1.1935977
1.1939306
1.1941835
1.1943755
1.1945239
1.194693
1.1949426
1.1952889
1.1957251
1.1962003
1.196642
1.1970047
1.1972307
1.1973858
1.197558
1.1977539
1.1978628
1.1979619
1.1980545
1.1982033
1.1983832
1.1985331
1.1987415
1.1989349
1.199106
1.1992559
1.1993993
1.1995628
1.1997526
1.1999553
1.20016
1.2003992
1.2006544
1.2009703
1.201218
1.2013917
1.2014415
1.2014073
1.2013329
1.20135
1.20118
1.2012975
1.1883126
1.1882983
1.1882841
1.1882723
1.1882632
1.1882573
1.1882567
1.1882658
1.1882908
1.1883416
1.1884284
1.1885661
1.1887972
1.1891369
1.1895513
1.1900588
1.1906393
1.1912593
1.1918751
1.1924749
1.1929913
1.1934706
1.1938422
1.1941399
1.1943917
1.1946026
1.1948238
1.1951012
1.1954536
1.1958748
1.1963226
1.1967315
1.1970649
1.1972723
1.1974328
1.1976134
1.1978288
1.1979701
1.1980963
1.1981907
1.1983174
1.1984684
1.1986038
1.1988102
1.1990076
1.1991822
1.1993274
1.1994612
1.1996169
1.1998012
1.1999995
1.2001994
1.2004336
1.2006843
1.2009957
1.2012392
1.2014092
1.2014574
1.2014194
1.2013421
1.2013557
1.2011841
1.2013054
1.1883682
1.1883549
1.1883413
1.1883325
1.1883283
1.1883284
1.1883343
1.1883498
1.1883806
1.1884352
1.1885232
1.1886587
1.1888774
1.1891895
1.1895651
1.1900224
1.1905615
1.1911444
1.1917375
1.1923172
1.1928334
1.1933243
1.1937412
1.1940892
1.194404
1.1946803
1.1949551
1.1952621
1.1956201
1.1960244
1.1964426
1.196817
1.1971208
1.1973089
1.1974702
1.1976592
1.1978929
1.1980643
1.1982179
1.1983172
1.1984249
1.1985481
1.1986686
1.1988717
1.1990723
1.1992507
1.1993927
1.1995184
1.1996666
1.1998458
1.2000401
1.2002357
1.2004654
1.2007121
1.2010193
1.2012591
1.2014259
1.2014725
1.2014312
1.201351
1.2013612
1.2011882
1.201314
1.1884198
1.1884065
1.188399
1.1883944
1.1883941
1.1883988
1.1884099
1.1884306
1.1884661
1.1885237
1.1886125
1.1887453
1.1889502
1.1892234
1.1895638
1.1899821
1.1904761
1.1910164
1.191576
1.192138
1.1926645
1.193166
1.193626
1.1940332
1.194413
1.1947549
1.1950809
1.1954185
1.1957831
1.1961705
1.1965584
1.1968971
1.1971692
1.1973383
1.1974992
1.197695
1.1979461
1.1981448
1.1983252
1.1984327
1.1985252
1.1986226
1.1987278
1.1989262
1.1991294
1.1993119
1.1994522
1.199571
1.1997123
1.1998866
1.2000773
1.2002691
1.2004947
1.2007377
1.2010411
1.2012776
1.2014418
1.2014869
1.2014425
1.2013598
1.2013665
1.2011926
1.201323
1.1884651
1.1884493
1.1884431
1.1884428
1.1884475
1.1884576
1.1884744
1.1885008
1.1885413
1.1886024
1.1886938
1.1888261
1.1890052
1.1892394
1.1895448
1.1899264
1.190369
1.1908644
1.1913915
1.1919416
1.1924741
1.192996
1.1934993
1.1939673
1.1944121
1.1948181
1.195197
1.1955656
1.1959372
1.1963095
1.1966677
1.1969706
1.1972076
1.1973621
1.1975199
1.1977212
1.1979885
1.1982121
1.1984178
1.1985363
1.1986183
1.1986921
1.1987819
1.1989744
1.1991794
1.1993662
1.1995061
1.1996192
1.1997541
1.1999237
1.2001112
1.2002998
1.2005216
1.2007614
1.2010613
1.2012948
1.2014571
1.2015006
1.2014535
1.2013684
1.2013717
1.2011975
1.2013322
1.1884967
1.1884833
1.1884776
1.1884793
1.1884876
1.1885022
1.1885243
1.1885561
1.1886013
1.1886658
1.1887577
1.1888845
1.1890396
1.1892444
1.1895174
1.1898553
1.1902495
1.1907024
1.1911982
1.1917309
1.1922723
1.1928142
1.1933615
1.1938853
1.1943925
1.1948601
1.1952951
1.1956965
1.1960781
1.1964381
1.1967677
1.1970359
1.1972413
1.1973814
1.1975333
1.197739
1.1980206
1.1982669
1.1984962
1.1986279
1.198704
1.1987568
1.1988315
1.1990169
1.199223
1.199414
1.1995546
1.1996634
1.1997923
1.1999575
1.200142
1.2003279
1.2005464
1.2007832
1.2010799
1.2013109
1.2014717
1.2015136
1.2014641
1.2013768
1.2013768
1.2012032
1.2013414
1.1885177
1.1885069
1.1885032
1.188507
1.1885181
1.1885363
1.1885624
1.1885983
1.188647
1.1887124
1.1888
1.1889145
1.1890615
1.189243
1.1894866
1.1897796
1.1901305
1.1905408
1.1910044
1.1915152
1.1920644
1.1926248
1.1932163
1.193792
1.1943571
1.1948823
1.1953678
1.1958039
1.1962017
1.1965545
1.1968604
1.1970971
1.1972731
1.1973955
1.1975412
1.1977497
1.1980435
1.1983104
1.1985611
1.1987077
1.1987824
1.198817
1.1988772
1.1990543
1.1992607
1.1994558
1.1995982
1.1997037
1.1998273
1.1999883
1.2001701
1.2003535
1.2005691
1.2008033
1.201097
1.2013258
1.2014857
1.2015259
1.2014744
1.2013851
1.2013817
1.2012097
1.2013504
1.1885175
1.1885166
1.1885227
1.1885364
1.1885577
1.1885872
1.1886265
1.1886776
1.1887434
1.1888279
1.1889356
1.1890725
1.1892303
1.1894454
1.1897006
1.1900082
1.190377
1.190807
1.1913002
1.1918504
1.1924367
1.1930661
1.1936914
1.1943087
1.1948866
1.1954177
1.1958879
1.1963043
1.1966566
1.1969461
1.1971556
1.1973007
1.1974062
1.1975453
1.1977549
1.1980585
1.1983437
1.1986138
1.1987763
1.198854
1.1988731
1.1989196
1.1990871
1.199293
1.1994922
1.1996372
1.1997404
1.1998592
1.2000161
1.2001955
1.2003769
1.2005899
1.2008217
1.2011127
1.2013397
1.201499
1.2015377
1.2014844
1.2013931
1.2013866
1.2012172
1.2013585
1.1885194
1.1885212
1.188529
1.1885445
1.1885681
1.1886003
1.1886423
1.1886958
1.1887626
1.1888453
1.1889482
1.1890707
1.1892124
1.1893987
1.1896184
1.1898845
1.1902136
1.1906128
1.1910889
1.1916413
1.1922536
1.192916
1.193586
1.1942493
1.1948747
1.1954474
1.1959493
1.1963857
1.1967423
1.1970211
1.1972084
1.1973263
1.1974154
1.1975469
1.1977563
1.1980668
1.1983681
1.1986555
1.1988344
1.1989188
1.1989254
1.1989589
1.1991161
1.1993207
1.1995236
1.199672
1.1997738
1.1998883
1.2000414
1.2002185
1.2003982
1.2006089
1.2008385
1.2011272
1.2013525
1.2015117
1.201549
1.2014941
1.2014009
1.2013913
1.2012255
1.2013657
1.1885177
1.1885212
1.1885292
1.1885452
1.18857
1.188604
1.1886484
1.1887041
1.1887725
1.188855
1.1889525
1.1890632
1.1891936
1.1893546
1.1895423
1.1897703
1.1900599
1.1904281
1.1908895
1.1914446
1.1920781
1.1927713
1.1934796
1.1941822
1.1948487
1.195459
1.1959898
1.1964466
1.1968121
1.1970859
1.1972573
1.1973522
1.1974248
1.1975474
1.1977552
1.1980698
1.1983847
1.1986875
1.1988828
1.198977
1.1989742
1.1989957
1.1991417
1.1993443
1.1995506
1.1997028
1.1998042
1.1999149
1.2000643
1.2002393
1.2004175
1.2006262
1.200854
1.2011404
1.2013644
1.2015239
1.2015597
1.2015035
1.2014086
1.201396
1.2012344
1.2013718
1.188519
1.1885262
1.1885419
1.1885669
1.188602
1.1886483
1.1887065
1.1887772
1.1888605
1.1889552
1.1890598
1.1891774
1.1893177
1.1894779
1.1896719
1.1899259
1.1902638
1.1907076
1.1912638
1.1919158
1.1926363
1.1933768
1.1941117
1.1948118
1.1954548
1.1960122
1.1964885
1.196867
1.1971416
1.197304
1.1973795
1.1974357
1.197548
1.1977531
1.1980687
1.1983949
1.1987112
1.1989226
1.199028
1.1990195
1.1990302
1.1991645
1.1993644
1.1995736
1.19973
1.1998317
1.1999392
1.2000851
1.2002581
1.200435
1.200642
1.2008681
1.2011525
1.2013755
1.2015356
1.20157
1.2015127
1.2014161
1.2014006
1.2012439
1.2013767
1.1990627
1.1991853
1.1993815
1.199593
1.1997539
1.1998566
1.1999613
1.200104
1.200275
1.2004509
1.2006564
1.200881
1.2011636
1.2013858
1.2015468
1.2015799
1.2015216
1.2014235
1.2014051
1.2012539
1.201381
1.190753
1.1907169
1.1902408
1.1905264
1.1907176
1.1908378
1.190902
1.1909195
1.1909047
1.1908731
1.1899494
1.1903192
1.1906155
1.1908231
1.1909573
1.1910316
1.1910575
1.1910502
1.1910252
1.1900026
1.1903732
1.1906826
1.1909096
1.1910626
1.1911522
1.1911903
1.191193
1.1911764
1.1900343
1.1904093
1.1907327
1.1909818
1.1911599
1.1912691
1.1913222
1.1913367
1.191329
1.1900591
1.1904355
1.1907662
1.1910494
1.1912569
1.1913884
1.1914583
1.1914854
1.1914866
1.1900763
1.1904582
1.1908203
1.1911336
1.1913651
1.1915179
1.1916048
1.1916439
1.1916535
1.1901074
1.1904979
1.1909026
1.1912392
1.1914927
1.1916656
1.1917679
1.1918179
1.191835
1.1901812
1.1906123
1.1910288
1.191379
1.191651
1.1918403
1.1919548
1.1920137
1.1920365
1.1903697
1.190795
1.191209
1.1915683
1.1918518
1.1920508
1.1921727
1.1922369
1.1922634
1.1906556
1.1910547
1.1914618
1.1918203
1.192104
1.1923037
1.1924267
1.1924922
1.1925196
1.1910411
1.1914112
1.1917989
1.1921408
1.1924112
1.1926016
1.1927189
1.1927812
1.1928071
1.1915291
1.1918607
1.1922134
1.1925238
1.1927687
1.192941
1.1930464
1.1931018
1.193124
1.1920942
1.1923775
1.1926837
1.1929524
1.1931637
1.1933114
1.1934008
1.1934471
1.1934649
1.1926916
1.1929229
1.1931774
1.1934005
1.1935748
1.1936956
1.1937679
1.1938052
1.1938195
1.1932696
1.1934514
1.1936559
1.1938355
1.1939751
1.1940708
1.194128
1.194158
1.1941705
1.1937816
1.1939189
1.1940791
1.1942224
1.1943341
1.1944109
1.1944573
1.1944828
1.1944948
1.1941882
1.1942881
1.1944118
1.194528
1.1946222
1.1946895
1.1947328
1.1947594
1.1947748
1.1944636
1.1945366
1.1946336
1.1947332
1.1948212
1.1948904
1.1949406
1.1949758
1.1949997
1.1945931
1.1946493
1.1947303
1.1948243
1.1949179
1.1950001
1.1950658
1.1951158
1.1951522
1.1945689
1.1946214
1.1947002
1.1948008
1.1949113
1.195017
1.1951077
1.19518
1.1952345
1.1944661
1.194518
1.1946003
1.1947122
1.1948435
1.1949763
1.1950943
1.1951897
1.1952612
1.1943621
1.1944181
1.1945062
1.1946263
1.1947709
1.1949194
1.1950517
1.1951589
1.1952405
1.1943542
1.1943921
1.1944732
1.194601
1.1947538
1.1949118
1.1950571
1.195177
1.1952682
1.1944914
1.1945584
1.1946581
1.1947768
1.1949159
1.1950621
1.1951967
1.1953087
1.1953948
1.1948606
1.1949187
1.1949928
1.1950871
1.1952025
1.1953252
1.1954394
1.1955354
1.1956101
1.1953743
1.1954012
1.1954493
1.1955167
1.1956009
1.1956921
1.195779
1.1958539
1.1959134
1.1959338
1.1959443
1.1959703
1.1960094
1.1960613
1.1961205
1.1961792
1.1962315
1.1962739
1.19643
1.1964288
1.1964351
1.1964489
1.1964723
1.1965035
1.196538
1.1965715
1.1966006
1.1967911
1.1967735
1.1967611
1.1967547
1.1967569
1.1967689
1.1967888
1.1968133
1.1968385
1.1969873
1.1969584
1.1969299
1.1969042
1.1968864
1.1968805
1.1968876
1.1969052
1.1969287
1.1970275
1.1969898
1.196952
1.1969175
1.1968927
1.1968833
1.1968901
1.1969099
1.196937
1.1969886
1.1969379
1.1968838
1.1968338
1.1967957
1.1967746
1.1967723
1.1967853
1.1968079
1.1968765
1.1968008
1.196718
1.1966368
1.1965676
1.1965183
1.1964919
1.1964855
1.1964934
1.1967735
1.1966874
1.1965907
1.1964907
1.1963939
1.1963099
1.1962477
1.1962081
1.1961876
1.1968312
1.1967355
1.1966257
1.1965125
1.196412
1.196334
1.1962799
1.1962461
1.1962273
1.1971197
1.1970429
1.1969569
1.1968652
1.1967761
1.1966973
1.1966343
1.1965896
1.1965611
1.197522
1.1974521
1.1973679
1.1972749
1.1971806
1.197093
1.1970186
1.196961
1.1969199
1.1977388
1.1976682
1.1975844
1.1974888
1.1973889
1.1972957
1.1972164
1.1971541
1.1971085
1.1978847
1.1977921
1.197681
1.1975593
1.1974376
1.1973253
1.1972305
1.1971564
1.1971018
1.1979769
1.1978686
1.1977354
1.1975843
1.1974289
1.1972843
1.1971615
1.1970643
1.1969916
1.19812
1.1980084
1.1978703
1.1977114
1.197544
1.1973831
1.1972415
1.1971264
1.1970383
1.1983651
1.1982645
1.1981384
1.1979904
1.1978304
1.1976729
1.1975304
1.1974097
1.1973129
1.1986323
1.1985441
1.1984316
1.1982961
1.1981448
1.1979898
1.1978442
1.1977171
1.1976126
1.1988756
1.1987933
1.1986864
1.1985541
1.1984015
1.1982393
1.1980823
1.1979427
1.1978267
1.1991192
1.1990419
1.1989404
1.1988129
1.1986624
1.1984974
1.1983315
1.1981784
1.1980474
1.1993826
1.1993134
1.1992222
1.1991069
1.1989691
1.1988154
1.1986561
1.198503
1.1983656
1.1996588
1.1995999
1.1995223
1.1994239
1.1993053
1.1991708
1.1990281
1.1988866
1.198755
1.1999672
1.1999178
1.1998527
1.1997701
1.1996702
1.1995557
1.199432
1.1993059
1.1991843
1.2002805
1.200239
1.2001845
1.2001152
1.2000314
1.1999352
1.1998304
1.1997224
1.1996162
1.2006551
1.2006208
1.200576
1.2005191
1.2004503
1.2003712
1.2002849
1.2001951
1.2001058
1.2009576
1.2009294
1.2008925
1.2008458
1.2007895
1.200725
1.2006546
1.2005813
1.2005083
1.2011971
1.201177
1.2011496
1.2011143
1.2010713
1.2010216
1.2009671
1.20091
1.2008529
1.2012604
1.201241
1.2012158
1.2011844
1.2011469
1.2011043
1.2010581
1.2010103
1.2009629
1.2012727
1.2012583
1.2012395
1.201216
1.2011879
1.2011557
1.2011205
1.2010839
1.2010476
1.2012327
1.2012222
1.2012085
1.2011914
1.2011708
1.2011471
1.2011211
1.201094
1.2010669
1.2012859
1.2012789
1.2012696
1.201258
1.2012437
1.201227
1.2012085
1.201189
1.2011694
1.2011346
1.2011297
1.2011232
1.2011149
1.2011048
1.2010931
1.20108
1.2010661
1.2010523
1.2012584
1.2012567
1.2012545
1.2012519
1.2012488
1.2012451
1.201241
1.2012364
1.2012315
1.1906625
1.1906031
1.1905502
1.1905185
1.1905365
1.1906668
1.1908256
1.1907732
1.1907268
1.1906997
1.1907177
1.1908408
1.1909856
1.1909406
1.1909005
1.1908775
1.1908953
1.1910109
1.191145
1.191107
1.1910726
1.191053
1.1910697
1.191177
1.1913056
1.1912741
1.1912447
1.1912278
1.1912429
1.1913415
1.1914706
1.1914448
1.1914198
1.1914047
1.1914177
1.1915071
1.1916442
1.1916232
1.1916015
1.1915875
1.1915977
1.1916777
1.1918311
1.1918139
1.1917943
1.1917805
1.1917875
1.1918583
1.1920366
1.1920219
1.1920036
1.1919893
1.1919929
1.1920546
1.1922657
1.1922522
1.1922342
1.1922188
1.1922188
1.1922721
1.1925225
1.1925091
1.1924906
1.192474
1.1924708
1.1925164
1.1928089
1.1927946
1.1927751
1.1927567
1.1927498
1.1927865
1.1931235
1.193108
1.1930875
1.1930682
1.1930596
1.1930941
1.1934625
1.1934466
1.1934269
1.1934094
1.1934053
1.1934567
1.193817
1.1938036
1.1937882
1.1937771
1.193782
1.1938419
1.1941693
1.19416
1.1941498
1.1941437
1.1941487
1.1941822
1.1944956
1.1944901
1.1944839
1.1944806
1.194485
1.1945106
1.1947806
1.1947814
1.1947814
1.1947836
1.194792
1.1948202
1.1950144
1.1950243
1.1950329
1.1950426
1.1950575
1.1950896
1.1951784
1.1951992
1.1952177
1.195236
1.1952578
1.1952953
1.1952763
1.1953113
1.1953425
1.1953721
1.195404
1.1954492
1.1953167
1.1953633
1.1954046
1.1954432
1.1954835
1.1955359
1.1953051
1.1953602
1.1954096
1.1954558
1.1955037
1.1955662
1.1953394
1.195399
1.1954521
1.1955014
1.195553
1.1956144
1.1954619
1.1955178
1.1955675
1.1956146
1.1956671
1.1957531
1.1956688
1.1957189
1.1957667
1.1958168
1.1958799
1.1959632
1.1959605
1.1960013
1.1960414
1.1960857
1.1961471
1.1962503
1.1963074
1.1963364
1.1963656
1.1963992
1.1964496
1.196551
1.196625
1.1966479
1.1966737
1.1967077
1.1967654
1.1968904
1.1968631
1.1968897
1.1969218
1.1969648
1.1970323
1.1971558
1.1969551
1.1969864
1.1970247
1.1970743
1.197148
1.1972734
1.1969686
1.1970067
1.197053
1.1971112
1.19719
1.1973013
1.1968371
1.1968745
1.1969201
1.1969783
1.1970622
1.1972021
1.1965117
1.1965408
1.1965811
1.196638
1.196727
1.1968955
1.1961815
1.1961877
1.1962082
1.1962473
1.1963259
1.196501
1.1962176
1.1962148
1.1962205
1.1962397
1.1962893
1.1964341
1.1965424
1.1965308
1.1965292
1.1965414
1.1965795
1.196691
1.1968899
1.1968675
1.1968544
1.1968543
1.1968772
1.1969636
1.1970741
1.1970468
1.1970272
1.1970177
1.1970261
1.1970579
1.1970604
1.1970278
1.1970033
1.1969892
1.1969912
1.1970332
1.1969347
1.1968871
1.1968473
1.1968156
1.196797
1.1968134
1.196968
1.1969065
1.1968524
1.1968065
1.1967715
1.1967586
1.1972315
1.1971562
1.1970858
1.1970185
1.1969545
1.1969105
1.197523
1.1974384
1.197357
1.1972771
1.1971971
1.1971251
1.1977261
1.1976303
1.1975377
1.1974457
1.1973536
1.1972709
1.1979314
1.1978191
1.1977093
1.1975997
1.1974894
1.197387
1.1982384
1.1981094
1.1979774
1.19784
1.1976972
1.1975634
1.198628
1.1984924
1.1983466
1.1981875
1.1980139
1.1978383
1.1990621
1.1989252
1.198769
1.1985872
1.1983823
1.1981815
1.1995066
1.199379
1.1992259
1.1990369
1.1988046
1.1985555
1.2000118
1.1998985
1.1997562
1.1995652
1.1993105
1.1990257
1.200431
1.200337
1.2002162
1.2000487
1.1998014
1.1994847
1.2007917
1.2007156
1.2006166
1.2004734
1.200247
1.1999236
1.2009126
1.2008509
1.2007714
1.2006578
1.2004726
1.2001807
1.2010089
1.2009614
1.2009007
1.2008132
1.2006646
1.2004034
1.2010379
1.2010017
1.2009554
1.2008889
1.2007786
1.2005839
1.2011483
1.2011223
1.2010884
1.2010402
1.2009557
1.2007916
1.2010372
1.2010178
1.2009934
1.2009572
1.2008986
1.2007945
1.2012258
1.2012183
1.2012075
1.2011926
1.2011619
1.201092
)
;

boundaryField
{
    Side1
    {
        type            empty;
    }
    Inlet
    {
        type            calculated;
        value           nonuniform List<scalar> 0();
    }
    Side2
    {
        type            empty;
    }
    Outlet
    {
        type            calculated;
        value           nonuniform List<scalar> 
35
(
1.2014304
1.2014307
1.2014305
1.2014298
1.2014286
1.201427
1.2014249
1.2014224
1.2014195
1.2014162
1.2014125
1.2014087
1.2014046
1.2014005
1.2013964
1.2013924
1.2013887
1.2013853
1.2013824
1.2013799
1.2014299
1.2014293
1.2014281
1.201426
1.2014228
1.2014186
1.2014133
1.2014074
1.2014012
1.2013944
1.2013861
1.2013747
1.201359
1.2013278
1.2012573
)
;
    }
    Botwall
    {
        type            calculated;
        value           nonuniform List<scalar> 
59
(
1.1906668
1.1908408
1.1910109
1.191177
1.1913415
1.1915071
1.1916777
1.1918583
1.1920546
1.1922721
1.1925164
1.1927865
1.1930941
1.1934567
1.1938419
1.1941822
1.1945106
1.1948202
1.1950896
1.1952953
1.1954492
1.1955359
1.1955662
1.1956144
1.1957531
1.1959632
1.1962503
1.196551
1.1968904
1.1971558
1.1972734
1.1973013
1.1972021
1.1968955
1.196501
1.1964341
1.196691
1.1969636
1.1970579
1.1970332
1.1968134
1.1967586
1.1969105
1.1971251
1.1972709
1.197387
1.1975634
1.1978383
1.1981815
1.1985555
1.1990257
1.1994847
1.1999236
1.2001807
1.2004034
1.2005839
1.2007916
1.2007945
1.201092
)
;
    }
    Cyli
    {
        type            calculated;
        value           nonuniform List<scalar> 0();
    }
    procBoundary1to0
    {
        type            processor;
        value           nonuniform List<scalar> 
44
(
1.1893077
1.1898717
1.1887637
1.1887637
1.1883054
1.1883054
1.1882938
1.1882717
1.1882717
1.1882547
1.1882547
1.1882415
1.1882425
1.1882704
1.1882704
1.1883414
1.1883956
1.1884494
1.1884948
1.1885247
1.1885231
1.1885475
1.1885231
1.1885203
1.1885158
1.1885166
1.1885166
1.190594
1.1905557
1.1901314
1.1904054
1.1905851
1.1906983
1.1907588
1.1907725
1.1907725
1.1898717
1.1898717
1.1904959
1.1904307
1.1903726
1.1903376
1.1903564
1.1904943
)
;
    }
    procBoundary1to3
    {
        type            processor;
        value           nonuniform List<scalar> 
62
(
1.1885143
1.1885211
1.1885367
1.1885615
1.1885975
1.1886459
1.1887073
1.1887812
1.188867
1.1889635
1.1890691
1.1891785
1.1892987
1.1894348
1.1895965
1.1898158
1.1901275
1.1905502
1.1911028
1.1917712
1.192515
1.1932826
1.1940442
1.1947711
1.1954398
1.1960238
1.1965132
1.1969076
1.197189
1.1973485
1.197408
1.1974486
1.1975502
1.197751
1.1980651
1.1984005
1.1987283
1.1989546
1.1990722
1.1990617
1.1990617
1.1990936
1.1992044
1.1993961
1.1996093
1.1997748
1.1998791
1.1999815
1.200121
1.2002902
1.200465
1.2006691
1.2008925
1.2011733
1.2013952
1.2015575
1.2015895
1.2015305
1.2014309
1.2014097
1.201264
1.2013848
)
;
    }
}


// ************************************************************************* //
