/*--------------------------------*- C++ -*----------------------------------*\
| =========                 |                                                 |
| \\      /  F ield         | OpenFOAM: The Open Source CFD Toolbox           |
|  \\    /   O peration     | Version:  2406                                  |
|   \\  /    A nd           | Website:  www.openfoam.com                      |
|    \\/     M anipulation  |                                                 |
\*---------------------------------------------------------------------------*/
FoamFile
{
    version     2.0;
    format      ascii;
    arch        "LSB;label=32;scalar=64";
    class       volScalarField;
    location    "0.046";
    object      omega;
}
// * * * * * * * * * * * * * * * * * * * * * * * * * * * * * * * * * * * * * //

dimensions      [0 0 -1 0 0 0 0];

internalField   nonuniform List<scalar> 
35803
(
21856.778
19406.111
16983.221
14674.378
12522.882
10553.684
8781.0987
7210.9967
5842.6157
4671.3462
3686.5208
2872.805
2212.0177
1684.4736
1269.8836
948.35083
699.28511
494.07641
322.21042
221.34224
176.27722
150.88952
135.95597
126.47802
115.21913
108.83199
105.55849
102.47168
101.02607
98.072549
97.177545
19106.491
17074.379
15086.433
13171.294
11356.109
9664.3117
8114.4549
6719.4514
5486.7215
4418.1797
3509.4896
2750.8501
2129.2003
1629.0002
1233.2092
924.30771
683.12801
481.95315
313.00993
216.87605
174.35585
149.79469
135.32892
126.12018
114.99776
108.67261
105.47629
102.42839
101.00392
98.072896
97.179303
16488.125
14870.649
13266.846
11699.151
10189.002
8757.2312
7422.9788
6202.3474
5107.4491
4145.2246
3316.5754
2616.8383
2037.5946
1567.3196
1192.2629
897.35041
664.92495
468.26823
303.60129
213.6434
173.21507
149.12182
134.94365
125.91936
114.87386
108.54743
105.41077
102.39142
100.99227
98.080525
97.181204
14025.258
12776.754
11515.291
10259.484
9027.7991
7838.9815
6711.4549
5662.2778
4705.8916
3852.6326
3107.4902
2470.2311
1936.6068
1498.8905
1146.5944
867.10567
644.326
452.43728
293.42184
209.71936
171.50945
148.06352
134.35485
125.5816
114.6283
108.35612
105.29908
102.3319
100.96668
98.08581
97.183443
11756.649
10817.469
9850.1375
8868.3646
7886.8383
6921.4343
5988.7176
5105.0778
4285.5298
3542.2142
2882.9942
2311.1535
1826.0437
1423.4035
1095.8827
833.2524
620.924
433.99323
282.1972
205.60244
169.791
147.00363
133.81972
125.2772
114.35165
108.15133
105.17357
102.26395
100.95031
98.093788
97.186121
9706.9924
9018.4004
8294.8274
7546.5
6783.8423
6019.0658
5265.8389
4538.5925
3851.4763
3217.0024
2644.658
2140.2444
1706.0096
1340.6999
1039.871
795.47356
594.22673
412.62262
269.98676
201.1495
167.75591
145.69852
133.18854
124.91964
113.95708
107.91231
105.02401
102.17822
100.92954
98.101678
97.18934
7889.0765
7398.0418
6870.1461
6314.5257
5737.6508
5147.9399
4555.6416
3972.3777
3410.3507
2881.2372
2394.9445
1958.743
1576.9718
1250.8105
978.38156
753.45169
563.61622
388.02325
257.00521
196.44266
165.54246
144.2699
132.43092
124.58763
113.62937
107.67981
104.90272
102.08667
100.9138
98.111794
97.193167
6307.4193
5965.9054
5591.1498
5190.0546
4766.0912
4324.4341
3872.0315
3417.417
2970.2309
2540.4377
2137.3264
1768.6121
1439.8634
1154.0251
911.34756
706.86995
528.28204
359.91764
243.67835
191.44931
163.01435
142.59845
131.44488
124.14547
113.3788
107.43282
104.78946
101.98447
100.89444
98.122826
97.197341
4957.286
4726.0429
4467.5957
4186.5729
3884.4019
3563.7938
3228.9223
2885.4444
2540.3063
2201.2865
1876.296
1572.6027
1296.1576
1050.9505
838.82363
655.3778
487.19234
328.54891
230.61164
186.17442
160.20606
140.74077
130.43837
123.47899
113.14146
107.20755
104.68954
101.87754
100.87919
98.136213
97.202668
3828.2476
3676.1126
3503.1986
3312.3629
3103.8134
2878.6062
2638.8548
2387.8687
2130.1524
1871.2163
1617.1759
1374.1947
1147.8678
942.52161
760.99567
598.34501
438.96525
295.37077
218.27918
180.57076
157.01485
138.62475
129.22849
122.77967
112.84038
106.97994
104.58221
101.75854
100.86154
98.151332
97.20902
2903.6041
2806.604
2694.5551
2569.1393
2429.9696
2277.1449
2111.4313
1934.4347
1748.6996
1557.6996
1365.6823
1177.3524
997.41071
829.89975
677.98266
534.28996
382.33704
263.17034
206.86449
174.61169
153.44527
136.29226
127.93891
121.8408
112.47717
106.67847
104.44849
101.62173
100.8317
98.169428
97.216435
2161.437
2101.7796
2031.7187
1952.1871
1862.6004
1762.6213
1652.2674
1532.0503
1403.1094
1267.3009
1127.2035
986.00305
847.22291
714.13742
589.15444
459.56192
320.74064
236.32625
196.1542
168.22357
149.43708
133.70349
126.43382
120.8417
112.01409
106.27959
104.24653
101.46664
100.77037
98.190068
97.224687
1576.9763
1541.4343
1499.2871
1450.8663
1395.5293
1332.7391
1262.1463
1183.6514
1097.5086
1004.4322
905.67177
803.0438
698.87663
595.26991
490.93252
370.31347
266.64113
216.17913
185.43978
161.43793
145.05342
130.89325
124.79206
119.75528
111.44945
105.90084
104.03147
101.31334
100.6847
98.213964
97.234953
1122.3279
1101.982
1077.6539
1049.3909
1016.6809
978.98984
935.79851
886.65616
831.26371
769.53589
701.64464
628.19113
550.73575
469.60974
378.78036
283.65418
231.30199
199.5807
174.53642
154.48136
140.14568
127.8773
122.95974
118.55234
110.83
105.49087
103.78955
101.1519
100.57966
98.241382
97.245358
768.73787
757.51126
744.03454
728.2114
709.59392
687.70393
662.07557
632.15135
597.31263
556.85331
510.03836
457.13316
400.66942
339.55359
280.20749
234.54753
206.25118
183.91023
164.83259
147.2549
135.15724
124.48175
120.99795
117.22894
110.13285
105.04384
103.49485
100.97861
100.47962
98.274849
97.255748
494.47987
488.13059
480.77847
472.32275
462.22412
449.79706
434.67998
416.37427
394.43269
368.54979
340.17464
310.8797
282.37702
251.70406
227.09289
206.66331
187.1804
170.13573
153.73782
140.32505
129.51439
121.22199
118.81915
115.70597
109.38281
104.58344
103.18069
100.77668
100.32046
98.314921
97.267485
318.8281
315.60486
311.79634
307.39506
302.20025
295.75122
289.07973
280.91691
270.47778
258.43182
245.41772
232.98219
219.8593
204.71038
198.34448
184.94035
168.64481
155.7619
145.4665
133.25962
124.72801
117.74753
116.2896
114.04576
108.64458
104.08588
102.86307
100.55277
100.1558
98.364866
97.281162
223.74857
222.71382
221.52469
220.01778
218.05424
215.37806
211.81013
208.20808
204.03536
199.54057
196.03993
193.79754
186.30133
176.31603
168.83885
164.03347
155.75298
146.115
135.81256
127.25158
119.2704
114.44028
114.04682
112.20066
107.78002
103.57645
102.49402
100.30371
99.947988
98.401264
97.297268
176.05264
175.52527
174.93756
174.26398
173.51251
172.86982
172.02537
170.06423
167.94838
165.71142
163.94199
163.13825
160.90639
157.29685
148.85235
144.47279
140.46439
133.86436
129.4132
121.5963
115.81522
111.63411
111.27919
110.13071
106.86861
103.04509
102.09925
100.02942
99.705592
98.417093
97.314962
152.28735
151.82652
151.22271
150.25767
148.8851
147.20032
146.03228
145.16688
144.67352
144.93581
145.66032
143.81023
141.26814
139.4123
137.11245
129.8632
126.69617
125.45035
121.19794
117.08663
111.48787
108.87237
109.28635
108.20773
105.59488
102.46789
101.67524
99.731643
99.425942
98.421565
97.34443
132.09266
131.92157
131.80904
131.88876
132.21314
132.58154
132.83984
132.77984
132.22687
130.69972
127.9016
126.4128
125.7009
123.51667
122.93059
121.12023
117.4558
115.95536
114.78404
112.1828
108.96378
106.57137
106.34085
106.26876
104.59904
101.88012
101.22063
99.421377
99.162121
98.403227
97.378848
121.13918
120.9432
120.639
120.14643
119.50631
119.07032
118.76493
118.49997
118.23529
117.96094
118.25067
118.23537
117.1806
115.48204
113.67187
112.24661
112.01273
111.1568
109.17174
107.47644
104.89887
103.75354
104.46865
104.75859
103.25047
101.24353
100.66315
99.118058
98.902129
98.314348
97.422309
111.60504
111.59117
111.6472
111.80127
112.0496
112.24474
112.37437
112.39638
112.25461
111.7702
110.5641
109.24057
108.6137
108.14547
108.12419
107.68665
106.47855
106.90118
106.03346
104.3559
102.72282
101.80544
101.86223
103.22014
101.97502
100.70408
100.10887
98.849554
98.725614
98.253826
97.443319
106.29749
106.22175
106.09451
105.89801
105.66829
105.48595
105.33408
105.18544
105.01803
104.81135
104.56876
104.50368
104.45882
104.39812
103.81805
104.05608
103.82052
103.28903
103.06558
102.3502
100.76757
100.10932
100.49004
102.06642
100.66123
100.16477
99.629268
98.633886
98.575254
98.22292
97.498318
102.21429
102.1991
102.17348
102.13933
102.11388
102.12189
102.14274
102.14029
102.08687
101.9212
101.60461
101.27886
101.07816
100.90993
100.96163
101.053
101.79439
101.18459
100.92983
100.46167
99.635579
99.248856
99.464732
100.65089
99.852461
99.495775
99.334076
98.47444
98.453879
98.138989
97.657626
100.17361
100.16376
100.14053
100.1059
100.0652
100.01634
99.959758
99.904118
99.859666
99.809729
99.732679
99.65545
99.567126
99.510772
99.509521
99.68855
99.937616
99.730712
99.600912
99.274057
98.887001
98.732109
98.728093
99.346727
99.343355
98.967744
98.969203
98.346922
98.340986
98.069072
97.7568
99.005656
99.005712
99.001446
98.995375
98.993973
99.003447
99.026865
99.055754
99.076447
99.073688
99.034669
98.936526
98.82915
98.771065
98.818739
98.936255
99.140288
99.044513
98.891337
98.777451
98.654173
98.488951
98.479253
98.721309
98.93037
98.668857
98.673913
98.244031
98.279427
98.056261
97.823945
98.434645
98.429664
98.421188
98.41029
98.39952
98.390481
98.387117
98.389681
98.393491
98.39433
98.389467
98.376914
98.367832
98.376531
98.424742
98.53764
98.618801
98.600411
98.50107
98.523442
98.615143
98.35673
98.403793
98.4458
98.551971
98.459356
98.446141
98.177325
98.156588
98.045632
97.944946
98.194818
98.190405
98.18533
98.179777
98.175018
98.172501
98.173351
98.178052
98.186204
98.196511
98.206469
98.216171
98.22858
98.244089
98.270733
98.321627
98.364113
98.361706
98.359778
98.384946
98.436812
98.310162
98.370928
98.366201
98.352787
98.37097
98.329286
98.177405
98.121524
98.143263
98.072508
98.210659
98.209178
98.207382
98.205266
98.203006
98.200826
98.199025
98.197829
98.197278
98.197318
98.198158
98.198696
98.19984
98.205024
98.221119
98.255811
98.277129
98.284986
98.313951
98.365719
98.372739
98.338877
98.341786
98.426848
98.29451
98.365558
98.312984
98.311214
98.208078
98.210094
98.203846
98.354385
98.353498
98.352439
98.35132
98.350285
98.349449
98.348853
98.348486
98.348304
98.348237
98.348215
98.348146
98.348285
98.349215
98.352219
98.358307
98.350344
98.355222
98.37278
98.384896
98.355327
98.333254
98.3857
98.466656
98.362036
98.349956
98.371329
98.366144
98.341477
98.345333
98.342125
58316.416
84651.68
103798.46
100499.04
84922.689
60184.969
42897.682
31369.814
23168.884
17059.39
12449.551
8977.8758
6391.6648
4495.1768
3125.8791
2151.8125
1468.1206
990.48597
657.73652
426.96026
272.47764
191.74268
157.7309
137.22732
122.60924
114.13577
108.381
104.30131
102.36936
98.071013
97.076609
78020.361
106834.43
110040.61
99348.905
71663.018
50769.186
37546.941
28272.323
21245.71
15814.612
11631.441
8440.1376
6042.3604
4271.5897
2984.9691
2064.4187
1414.7036
958.06945
638.27146
414.99496
265.61551
188.63217
156.39222
136.53787
122.19819
113.91554
108.27497
104.23603
102.31606
98.061797
97.076225
103200.63
118511.75
111695.44
88142.693
62228.236
45555.736
34360.842
26114.826
19742.936
14775.143
10920.92
7962.0535
5726.8993
4067.2935
2855.0337
1983.2295
1364.7784
927.60463
619.93359
403.73333
259.53701
186.30674
155.4647
136.08046
121.91261
113.75259
108.19983
104.18337
102.26634
98.051377
97.075796
125453.4
122615.87
106313.33
75532.779
54816.349
41340.85
31682.594
24268.12
18440.384
13861.218
10287.282
7530.8616
5439.6224
3879.674
2734.8314
1907.6448
1318.0447
898.92643
602.62089
393.08214
253.89112
184.04166
154.46857
135.5592
121.58629
113.56473
108.11237
104.12789
102.21828
98.041092
97.075362
135173.26
122893.74
90580.264
65348.316
49180.3
37918.292
29379.059
22640.484
17281.735
13041.757
9714.7429
7138.6183
5176.5111
3706.702
2623.3365
1837.1457
1274.2355
871.89677
586.26007
382.95728
248.5391
181.90886
153.54139
135.08261
121.28719
113.38833
108.03244
104.07616
102.17168
98.031282
97.074998
138116.51
107126.46
77312.828
57934.717
44802.283
35038.184
27354.677
21186.544
16239.247
12299.752
9193.6746
6779.9011
4934.5874
3546.7829
2519.7084
1771.2938
1233.1204
846.39396
570.78427
373.30035
243.45082
179.90016
152.6428
134.61157
120.98786
113.20777
107.95072
104.02473
102.12634
98.022025
97.074738
125359.02
90635.246
67573.986
52306.143
41206.551
32542.41
25554.774
19879.571
15295.67
11624.282
8717.4272
6450.6853
4711.5218
3398.6175
2423.2401
1709.711
1194.4974
822.31217
556.12564
364.07333
238.61769
178.01043
151.78263
134.16004
120.69948
113.03045
107.87123
103.97482
102.08207
98.013351
97.0746
104123.81
77812.734
60372.226
47851.339
38164.546
30349.635
23945.021
18700.347
14438.385
11007.394
8280.9485
6147.7963
4505.4192
3261.1188
2333.3262
1652.0676
1158.1877
799.54975
542.2224
355.25041
234.0339
176.23368
150.95558
133.72211
120.41703
112.85354
107.7917
103.92542
102.03881
98.005274
97.074591
89269.029
69188.775
54987.209
44189.717
35531.365
28403.828
22499.222
17633.087
13657.283
10442.859
7880.1483
5868.6221
4314.693
3133.3598
2249.4412
1598.073
1124.0323
778.01353
529.00965
346.81325
229.69374
174.56375
150.16127
133.29939
120.1423
112.67889
107.71283
103.87656
101.99658
97.997786
97.074712
78240.946
62401.177
50529.545
41050.255
33216.851
26666.35
21196.431
16664.535
12944.19
9925.5066
7511.5764
5610.9492
4137.9853
3014.5363
2171.1234
1547.4693
1091.8893
757.63889
516.42762
338.74583
225.59206
172.99458
149.39792
132.89056
119.8741
112.50614
107.63391
103.82775
101.95547
97.990855
97.074965
70101.607
57177.516
46880.365
38350.563
31170.018
25108.402
20019.227
15783.541
12292.255
9450.8534
7172.2469
5372.8645
3974.115
2903.9421
2097.9634
1500.0253
1061.6314
738.36862
504.42835
331.03025
221.72382
171.52019
148.66443
132.49553
119.61256
112.33589
107.55494
103.77879
101.91557
97.984457
97.075351
64072.071
52976.861
43768.682
35976.696
29342.581
23705.906
18952.839
14980.604
11695.544
9014.9481
6859.5418
5152.6908
3822.0415
2800.9506
2029.5947
1455.5333
1033.147
720.1412
492.95916
323.64848
218.08314
170.13486
147.95963
132.11377
119.35731
112.1682
107.47557
103.72936
101.87692
97.97857
97.075874
59280.967
49435.447
41057.051
33870.872
27704.411
22440.31
17984.648
14247.663
11148.904
8614.2898
6571.145
4948.9438
3680.8397
2705.0012
1965.6876
1413.8051
1006.3403
702.9109
481.98507
316.5858
214.66302
168.83291
147.28256
131.74508
119.10829
112.00327
107.39561
103.67931
101.83955
97.973187
97.076544
55328.106
46390.465
38671.217
31993.141
26231.539
21295.581
17103.843
13577.923
10647.746
8245.7551
6304.9959
4760.3003
3549.6818
2615.5896
1905.9437
1374.6695
981.10967
686.6312
471.4979
309.83088
211.45576
167.60878
146.63232
131.38932
118.8655
111.84116
107.31487
103.62851
101.80347
97.968311
97.077377
51960.027
43729.395
36555.175
30311.58
24903.916
20257.983
16301.276
12965.423
10187.948
7906.5529
6059.2533
4585.5745
3427.8225
2532.2598
1850.0919
1337.97
957.36954
671.25747
461.48099
303.37491
208.45311
166.45743
146.00815
131.04658
118.6291
111.68197
107.23322
103.57694
101.76861
97.963949
97.078388
49040.209
41384.035
34669.491
28801.159
23704.72
19315.738
15569.098
12404.844
9765.8254
7594.1884
5832.2673
4423.7
3314.589
2454.5981
1797.8849
1303.5632
935.05407
656.75018
451.91716
297.21137
205.64634
165.37408
145.40934
130.71712
118.39941
111.52582
107.15059
103.52461
101.73484
97.960104
97.079596
46483.402
39305.113
32982.821
27441.267
22619.383
18458.65
14900.552
11891.442
9378.0871
7306.4286
5622.5555
4273.7144
3209.3714
2382.2279
1749.0966
1271.3175
914.09076
643.07423
442.78816
291.33582
203.02639
164.35422
144.83527
130.40138
118.17689
111.37297
107.06692
103.47152
101.70199
97.956792
97.081019
44230.61
37454.582
31469.616
26214.341
21635.332
17678.022
14289.694
11421
9021.7955
7041.2719
5428.7835
4134.748
3111.6162
2314.8061
1703.52
1241.1163
894.41255
630.19839
434.07499
285.74564
200.58416
163.39363
144.28537
130.09995
117.96209
111.22374
106.98223
103.41768
101.66982
97.954042
97.082671
42236.383
35801.349
30108.54
25105.323
20741.721
16966.374
13731.256
10989.761
8694.3239
6796.9214
5249.7478
4006.0129
3020.8199
2252.0188
1660.9642
1212.8458
875.95818
618.09257
425.75827
280.43867
198.31069
162.48837
143.75909
129.81347
117.75563
111.07864
106.89664
103.36306
101.63805
97.951881
97.084561
40462.071
34319.334
28881.691
24101.157
19929.169
16317.242
13220.542
10594.369
8393.3201
6571.7611
5084.3619
3886.7948
2936.524
2193.5793
1621.2533
1186.3942
858.65655
606.72863
417.81907
275.41182
196.19714
161.63476
143.2559
129.54256
117.55809
110.93825
106.81031
103.30742
101.60644
97.950299
97.086695
38877.435
32987.104
27773.724
23190.59
19189.644
15724.888
12753.368
10231.827
8116.6757
6364.3367
4931.6436
3776.4456
2858.3107
2139.2253
1584.226
1161.6661
842.43796
596.07648
410.23937
270.66076
194.23484
160.82936
142.7752
129.2877
117.36999
110.80317
106.72339
103.25027
101.57485
97.949228
97.089069
37456.512
31786.433
26771.376
22363.858
18516.167
15184.211
12326.006
9899.454
7862.4982
6173.3377
4790.7046
3674.3766
2785.7994
2088.7167
1549.7427
1138.5739
827.24808
586.10475
403.00137
266.18042
192.41537
160.06902
142.31634
129.04913
117.19164
110.67394
106.63641
103.19128
101.54335
97.948661
97.091679
36178.156
30701.997
25863.12
21612.454
17902.633
14690.666
11935.126
9594.8519
7629.0879
5997.5826
4660.7408
3580.0535
2718.6426
2041.8331
1517.6661
1117.0387
813.03281
576.78806
396.0879
261.96525
190.73062
159.35086
141.8786
128.82677
117.02314
110.55095
106.55106
103.13097
101.51215
97.94862
97.09451
35024.331
29720.502
25038.938
20928.991
17343.598
14240.211
11577.759
9315.8701
7414.9166
5836.0054
4541.0242
3492.9911
2656.5237
1998.3783
1487.8617
1096.9858
799.75635
568.08261
389.48625
258.00993
189.17283
158.67228
141.46115
128.62013
116.86436
110.43446
106.46984
103.07138
101.48154
97.949447
97.097546
33979.763
28830.365
24290.066
20306.971
16834.206
13829.248
11251.247
9060.58
7218.6096
5687.644
4430.8958
3412.7493
2599.1537
1958.1676
1460.2196
1078.3465
787.3856
559.95695
383.19015
254.30885
187.73455
158.03096
141.06309
128.42837
116.71488
110.32457
106.39352
103.01527
101.45187
97.95069
97.100762
33030.497
28021.056
23608.801
19740.708
16370.16
13454.533
10953.204
8827.2536
7038.9304
5551.6301
4329.7592
3338.9283
2546.2895
1921.0268
1434.6365
1061.0577
775.88691
552.38452
377.19746
250.85566
186.40878
157.42483
140.68349
128.2503
116.57404
110.22123
106.32086
102.96427
101.42344
97.952225
97.104135
32165.251
27283.971
22988.514
19225.214
15947.651
13113.166
10681.493
8614.343
6874.7675
5427.1813
4237.073
3271.1771
2497.6897
1886.8101
1411.0173
1045.0615
765.2263
545.33775
371.50694
247.64401
185.1889
156.85211
140.32141
128.08445
116.44109
110.12421
106.25139
102.91805
101.39636
97.954152
97.107644
31374.113
26611.423
22423.3
18755.978
15563.245
12802.606
10434.211
8420.4518
6725.1217
5313.5924
4152.3598
3209.1603
2453.1161
1855.3779
1389.2752
1030.3049
755.37067
538.78998
366.11683
244.66717
184.06876
156.31127
139.97598
127.92923
116.31522
110.03306
106.18537
102.8759
101.37096
97.95643
97.111245
30648.371
25996.645
21907.938
18328.978
15213.892
12520.562
10209.7
8244.3171
6589.0942
5210.249
4075.2259
3152.5692
2412.379
1826.6021
1369.331
1016.7392
746.28865
532.71659
361.02529
241.9178
183.04247
155.80101
139.64648
127.783
116.19584
109.94721
106.12281
102.83773
101.34783
97.958985
97.1149
29980.448
25433.699
21437.827
17940.639
14896.868
12264.986
10006.391
8084.788
6465.8992
5116.6554
4005.2614
3101.1545
2375.3024
1800.3677
1351.1132
1004.3202
737.95108
527.0952
356.23131
239.38812
182.10463
155.32019
139.33241
127.6446
116.08222
109.86627
106.06393
102.80325
101.32726
97.961792
97.118568
29363.842
24917.4
21008.93
17587.805
14609.735
12034.036
9823.0058
7941.084
6354.9109
5032.2665
3942.0743
3054.672
2341.7266
1776.5711
1334.5569
993.00792
730.33136
521.90567
351.73477
237.07317
181.24754
154.86776
139.03346
127.51276
115.97416
109.79005
106.0091
102.77224
101.30912
97.964837
97.122212
28793.066
24443.272
20617.726
17267.804
14350.5
11826.269
9658.5037
7812.4785
6255.5892
4956.5808
3885.3618
3012.8989
2311.5074
1755.1192
1319.604
982.76624
723.40564
517.13009
347.54655
234.95972
180.45939
154.44288
138.74951
127.38661
115.87175
109.71858
105.95829
102.7444
101.29086
97.968121
97.125824
28267.783
24010.267
20262.92
16979.349
14118.098
11640.818
9512.079
7698.0986
6167.2591
4889.2288
3834.8359
2975.6391
2284.516
1735.9286
1306.2024
973.56641
717.15286
512.75366
343.67587
233.02999
179.73971
154.04476
138.48059
127.26567
115.77542
109.65217
105.91203
102.71905
101.26788
97.971664
97.129422
27793.992
23621.589
19945.84
16722.514
13911.785
11476.821
9382.6979
7597.105
6089.2756
4829.8232
3790.2416
2942.7198
2260.6376
1718.925
1294.3052
965.38101
711.55748
508.76565
340.12394
231.27492
179.08555
153.67272
138.22684
127.1499
115.68583
109.59156
105.87057
102.69597
101.23873
97.975484
97.133
27369.902
23276.03
19665.309
16496.056
13730.235
11332.563
9269.1466
7508.6924
6021.1952
4778.0227
3751.3512
2913.9888
2239.7713
1704.043
1283.8714
958.18198
706.60718
505.15809
336.88942
229.68694
178.495
153.32612
137.98841
127.03971
115.60369
109.53769
105.83367
102.67511
101.2093
97.979578
97.136539
26974.878
22959.79
19412.42
16294.5
13570.379
11206.386
9170.5961
7432.3228
5962.5977
4733.5317
3717.9677
2889.3131
2221.829
1691.2252
1274.8653
951.94817
702.29035
501.92637
333.96999
228.25922
177.96614
153.00441
137.76536
126.93587
115.52966
109.4899
105.80075
102.65655
101.18403
97.98394
97.140015
26589.691
22659.179
19178.009
16112.082
13428.822
11096.859
9086.0905
7367.4373
5913.114
4696.0997
3689.9221
2868.5798
2206.7348
1680.4226
1267.2566
946.66246
698.59808
499.06837
331.3629
226.98534
177.49741
152.70715
137.55766
126.83946
115.46442
109.44606
105.77133
102.63993
101.16275
97.988543
97.143413
26223.577
22378.105
18963.174
15948.533
13304.694
11002.835
9014.8766
7313.5456
5872.427
4665.5133
3667.0717
2851.6949
2194.4259
1671.5936
1261.0194
942.31051
695.52426
496.58423
329.06523
225.85941
177.08748
152.43398
137.36506
126.7517
115.40832
109.40509
105.74483
102.62484
101.14671
97.99338
97.146729
25880.369
22118.617
18768.537
15803.661
13197.447
10923.669
8956.3967
7270.2446
5840.2682
4641.5938
3649.2995
2838.5811
2184.8521
1664.7044
1256.1329
938.88111
693.06537
494.47631
327.07418
224.87592
176.73528
152.18463
137.18711
126.67377
115.36114
109.36633
105.72088
102.61085
101.13371
97.998438
97.149934
25560.45
21881.261
18594.318
15677.333
13106.741
10858.948
8910.2456
7237.2145
5816.4191
4624.1964
3636.5134
2829.1788
2177.9737
1659.7293
1252.5805
936.36595
691.22044
492.74925
325.38721
224.02981
176.43997
151.95895
137.02319
126.60671
115.32201
109.32836
105.69939
102.59754
101.12092
98.003722
97.153012
25262.876
21665.496
18440.19
15569.253
13032.267
10808.362
8876.1256
7214.2103
5800.7095
4613.2089
3628.6451
2823.4456
2173.7628
1656.6492
1250.3502
934.75919
689.99094
491.41
324.00217
223.31641
176.20093
151.75689
136.87256
126.55123
115.2896
109.28944
105.68038
102.58489
101.10789
98.009284
97.155962
24986.321
21470.23
18305.425
15478.929
12973.672
10771.648
8853.819
7201.0511
5793.0143
4608.5524
3625.65
2821.356
2172.2035
1655.4529
1249.4341
934.05793
689.38066
490.46799
322.91739
222.73155
176.01779
151.57847
136.73442
126.50767
115.26228
109.24788
105.66393
102.57287
101.09536
98.015163
97.158774
24728.986
21293.963
18189.004
15405.708
12930.554
10748.573
8843.1784
7197.6079
5793.2342
4610.0294
3627.3299
2822.7572
2173.1912
1656.0732
1249.7909
934.23989
689.3928
489.93509
322.13172
222.27141
175.89028
151.42375
136.60796
126.47596
115.23859
109.20246
105.64999
102.56134
101.08345
98.021329
97.161468
24488.216
21134.734
18089.659
15348.812
12902.461
10738.941
8844.0628
7203.203
5800.5238
4617.6014
3633.9995
2827.968
2176.95
1658.6506
1251.5041
935.35373
690.03768
489.82579
321.64442
221.93213
175.8181
151.2927
136.4924
126.45558
115.21807
109.15299
105.63819
102.55001
101.07128
98.027772
97.164088
24260.358
20990.138
18005.95
15307.412
12888.947
10742.286
8855.4069
7218.1505
5816.4091
4631.8237
3645.5992
2836.8407
2183.3817
1663.1238
1254.5347
937.37731
691.32293
490.15877
321.45491
221.70956
175.80094
151.18533
136.38723
126.44569
115.20139
109.1005
105.62777
102.53853
101.05937
98.034456
97.166627
24040.812
20857.501
17936.447
15280.731
12889.753
10757.81
8878.2234
7243.7459
5840.3292
4652.3828
3662.1311
2849.4236
2192.52
1669.5148
1258.8943
940.31617
693.26031
490.95655
321.53509
221.60017
175.8347
151.10231
136.29272
126.44533
115.19078
109.04658
105.61782
102.52665
101.04996
98.041381
97.169063
23823.647
20733.905
17879.914
15268.255
12903.611
10785.58
8913.5049
7279.0998
5872.2809
4679.3778
3683.6676
2865.7764
2204.41
1677.8535
1264.5991
944.17692
695.86091
492.24757
321.96701
221.60441
175.93872
151.04598
136.21044
126.45104
115.18907
108.99307
105.60759
102.51396
101.04248
98.048544
97.171376
23599.535
20615.367
17834.986
15269.825
12930.872
10826.955
8959.9945
7324.2672
5912.3641
4712.9095
3710.2955
2885.9692
2219.1049
1688.1764
1271.6685
948.96664
699.13537
494.06783
322.69359
221.69267
176.08337
151.01918
136.14189
126.46373
115.1943
108.94143
105.59625
102.50009
101.03369
98.055967
97.173557
23351.269
20494.244
17797.553
15282.212
12969.891
10877.461
9012.3846
7373.6902
5955.8862
4749.3556
3739.3226
2908.0517
2235.2191
1699.5049
1279.3972
954.14867
702.63568
496.05313
323.50639
221.89186
176.23631
151.01807
136.08357
126.47825
115.2076
108.89118
105.58217
102.48544
101.0276
98.06365
97.175615
50704.242
74707.078
99026.8
98388.343
84574.724
61274.313
43987.246
32139.302
23734.378
17487.595
12773.406
9216.628
6561.5594
4612.0747
3203.8545
2202.3283
1499.9451
1010.1315
669.46677
434.03781
276.10869
193.14686
158.33512
137.51111
122.80521
114.25094
108.43188
104.34556
102.41506
98.077248
97.076458
48907.142
70068.964
93640.585
96250.055
83324.905
61055.474
44012.804
32244.415
23848.284
17597.763
12873.112
9300.8489
6627.7379
4661.1906
3238.656
2226.007
1515.4388
1020.0059
675.52237
437.96787
278.38599
194.11386
158.7707
137.71117
122.95113
114.33505
108.4679
104.38038
102.45078
98.080703
97.076128
47364.786
66373.202
88596.39
93411.99
81745.241
60655.104
44006.57
32334.671
23954.827
17703.604
12970.139
9383.5832
6693.3349
4710.1982
3273.5498
2249.8351
1531.0752
1029.9829
681.66192
441.93184
280.71531
195.11304
159.21393
137.91495
123.10007
114.4181
108.50417
104.4174
102.48825
98.084183
97.075529
45951.088
63253.543
84030.466
90547.616
80180.289
60215.438
43979.103
32409.654
24053.297
17804.687
13064.242
9464.6922
6758.2489
4759.0376
3308.5052
2273.7987
1546.8485
1040.0625
687.88329
445.91769
283.08075
196.1427
159.66684
138.12429
123.25329
114.50091
108.54103
104.45675
102.52743
98.087791
97.074738
44682.056
60561.157
79893.69
87650.47
78610.331
59739.578
43918.763
32468.298
24143.004
17900.632
13155.218
9544.0498
6822.3937
4807.6579
3343.4954
2297.885
1562.7533
1050.2426
694.18552
449.91772
285.47569
197.19701
160.12634
138.33759
123.40953
114.58306
108.57799
104.49803
102.56785
98.091557
97.073874
43552.745
58199.678
76145.366
84747.775
77028.967
59224.418
43826.418
32509.948
24223.418
17991.119
13242.902
9621.5519
6885.696
4856.0143
3378.4966
2322.0827
1578.7847
1060.5235
700.56793
453.92155
287.89908
198.2734
160.59038
138.55367
123.56772
114.66431
108.61468
104.54102
102.60909
98.095491
97.072754
42551.969
56106.532
72748.863
81871.973
75395.422
58692.955
43706.274
32534.086
24294.103
18075.906
13327.145
9697.1017
6948.0867
4904.0642
3413.4854
2346.3805
1594.938
1070.9033
707.02991
457.91101
290.3516
199.37183
161.05864
138.77248
123.72751
114.74492
108.65103
104.58559
102.65079
98.099608
97.071322
41670.534
54240.341
69668.752
79052.599
73727.975
58134.36
43558.804
32537.174
24354.58
18154.8
13407.798
9770.6008
7009.4964
4951.7641
3448.4382
2370.7668
1611.2083
1081.381
713.57094
461.88086
292.83361
200.49269
161.53135
138.99439
123.88888
114.82532
108.68713
104.63165
102.69257
98.103919
97.069601
40899.776
52571.701
66871.649
76311.85
72012.097
57560.62
43385.946
32527.964
24404.752
18227.503
13484.703
9841.9482
7069.8541
4999.0698
3483.3302
2395.2294
1627.5902
1091.955
720.19074
465.82939
295.34494
201.63608
162.00872
139.2198
124.05179
114.90595
108.72311
104.67909
102.73403
98.108442
97.067736
40228.549
51077.238
64333.169
73659.57
70245.282
56979.65
43189.744
32502.539
24444.331
18293.733
13557.7
9911.0412
7129.0883
5045.9354
3518.1361
2419.7556
1644.0782
1102.6238
726.88941
469.75489
297.88511
202.8019
162.49085
139.44903
124.21611
114.98714
108.75913
104.72772
102.77475
98.113192
97.065833
39645.209
49736.048
62024.102
71105.006
68461.105
56362.996
42969.934
32456.617
24472.866
18353.253
13626.629
9977.7759
7187.1281
5092.3144
3552.8293
2444.3322
1660.6663
1113.3858
733.66759
473.65978
300.45329
203.99001
162.97782
139.68239
124.38168
115.06915
108.79539
104.77728
102.81432
98.11818
97.063558
39138.709
48529.228
59916.31
68643.557
66595.188
55670.744
42723.832
32393.231
24489.973
18405.833
13691.331
10042.047
7243.9019
5138.1604
3587.383
2468.9453
1677.3483
1124.2389
740.52696
477.55312
303.0484
205.20025
163.46977
139.92019
124.54833
115.15214
108.83213
104.82744
102.85242
98.123417
97.061489
38698.868
47440.746
57987.879
66296.478
64873.139
54922.282
42450.407
32312.18
24494.236
18451.251
13751.659
10103.749
7299.3375
5183.4262
3621.7696
2493.5807
1694.1176
1135.1806
747.46984
481.44539
305.66897
206.43247
163.9669
140.1627
124.71586
115.23621
108.86964
104.87782
102.88875
98.12891
97.059539
38317.16
46458.412
56225.192
64096.865
63301.859
54135.838
42150.028
32213.661
24489.272
18489.461
13807.476
10162.779
7353.3616
5228.0642
3655.9609
2518.2237
1710.9673
1146.2082
754.48243
485.35156
308.31391
207.68649
164.46946
140.4102
124.88407
115.32135
108.90828
104.92813
102.92308
98.134666
97.057154
37985.413
45570.718
54615.051
62047.249
61808.828
53322.615
41823.839
32097.9
24474.174
18520.345
13858.655
10219.037
7405.9007
5272.0262
3689.9285
2542.8592
1727.8904
1157.3195
761.55535
489.32106
310.98236
208.96211
164.97771
140.66287
125.05273
115.40751
108.94844
104.97837