/*--------------------------------*- C++ -*----------------------------------*\
| =========                 |                                                 |
| \\      /  F ield         | OpenFOAM: The Open Source CFD Toolbox           |
|  \\    /   O peration     | Version:  2406                                  |
|   \\  /    A nd           | Website:  www.openfoam.com                      |
|    \\/     M anipulation  |                                                 |
\*---------------------------------------------------------------------------*/
FoamFile
{
    version     2.0;
    format      ascii;
    arch        "LSB;label=32;scalar=64";
    class       volScalarField;
    location    "0.072";
    object      nut;
}
// * * * * * * * * * * * * * * * * * * * * * * * * * * * * * * * * * * * * * //

dimensions      [0 2 -1 0 0 0 0];

internalField   nonuniform List<scalar> 
8260
(
0.033347451
0.037846811
0.043124549
0.049093589
0.055613091
0.062532394
0.069663143
0.076753567
0.083464152
0.089310494
0.093609346
0.095421786
0.093480929
0.086213187
0.071960463
0.05009167
0.026609884
0.01259348
0.0081964047
0.0067613813
0.0059101927
0.0053222701
0.0049690967
0.00473283
0.0045477736
0.0043933108
0.0042869985
0.0042112851
0.0041617629
0.0041288393
0.0041120819
0.039421424
0.044048123
0.049128986
0.054725729
0.060797187
0.06722955
0.073845335
0.080392391
0.086525433
0.091752912
0.095367156
0.096409914
0.093598385
0.085368713
0.07011335
0.047668837
0.024335703
0.011840155
0.0079560381
0.006669393
0.0058613084
0.0052959511
0.0049528241
0.0047227639
0.0045407239
0.004388715
0.0042841823
0.0042096149
0.0041607275
0.0041281666
0.0041116147
0.046393346
0.050843552
0.0556732
0.060912994
0.066535713
0.072449911
0.078493658
0.084421641
0.089884752
0.094381662
0.09719131
0.097334712
0.09351421
0.08418343
0.06781819
0.044740701
0.022094531
0.011074363
0.0077949748
0.0066194388
0.0058349444
0.0052821037
0.0049442787
0.0047173843
0.0045368428
0.0043861567
0.0042825716
0.0042085132
0.0041599233
0.0041275534
0.0041111023
0.054344935
0.058434932
0.062895203
0.067705927
0.072826273
0.078165173
0.083565931
0.088786785
0.093474921
0.097119232
0.098987835
0.098083372
0.093096496
0.082509005
0.064924936
0.041243013
0.019777565
0.010402472
0.0076406374
0.0065392759
0.0057896059
0.005257725
0.0049289096
0.004707551
0.0045296012
0.004381389
0.0042795533
0.0042066609
0.0041587245
0.0041267388
0.0041105195
0.063270533
0.066862727
0.070848941
0.075133152
0.079662817
0.084339821
0.089004079
0.093410963
0.097201074
0.099853137
0.1006242
0.098501469
0.092169804
0.080154462
0.061249555
0.037108528
0.017430116
0.0097521492
0.0074762966
0.0064646905
0.0057489978
0.0052364595
0.0049157682
0.0046992353
0.0045233492
0.0043773362
0.0042770171
0.0042050085
0.0041575751
0.0041258994
0.0041098563
0.072999867
0.076036685
0.079452907
0.083110933
0.086948525
0.090858923
0.094674325
0.098142215
0.10089305
0.10239379
0.10189012
0.098356856
0.090483239
0.076860563
0.056564382
0.032311109
0.015333841
0.0091492649
0.0073095366
0.0063728056
0.005696425
0.0052079697
0.0048977668
0.0046876725
0.0045146153
0.0043716332
0.0042734244
0.0042027614
0.0041560924
0.0041248714
0.004109101
0.083228693
0.085675857
0.088448112
0.091392369
0.094438524
0.097471503
0.10031431
0.1027039
0.10425821
0.10443101
0.10245665
0.097301789
0.08767798
0.072276087
0.050600836
0.026933896
0.013355454
0.0086064385
0.0071354073
0.0062781175
0.0056436058
0.0051797897
0.0048801191
0.0046763653
0.0045059281
0.0043660349
0.0042699294
0.0042005102
0.0041545504
0.0041237595
0.004108242
0.093455367
0.09528673
0.097356243
0.099511825
0.10167503
0.10372181
0.10546493
0.10662948
0.10681978
0.10547603
0.10182245
0.094824348
0.083248656
0.06593665
0.043089622
0.021280866
0.011546404
0.0082013543
0.0069538142
0.0061695048
0.0055810865
0.0051453759
0.0048580965
0.0046619694
0.0044949715
0.0043589197
0.0042654599
0.0041976851
0.0041526686
0.0041224398
0.0041072661
0.10288279
0.10407638
0.10539438
0.10669711
0.10789586
0.10885561
0.10937724
0.10917252
0.10783165
0.10478241
0.099242403
0.090186281
0.076499943
0.057263042
0.033923685
0.016635264
0.010028951
0.0078142197
0.0067587214
0.0060552193
0.0055163109
0.0051102105
0.0048354149
0.0046468073
0.0044834894
0.0043515208
0.0042608334
0.0041947122
0.0041506393
0.0041209797
0.0041061589
0.110264
0.11080974
0.11133805
0.11173689
0.1119048
0.1116934
0.11088893
0.10918786
0.10616661
0.10124447
0.093640471
0.082353811
0.066510849
0.045654697
0.023664819
0.012985134
0.0088578753
0.0074894373
0.0065546634
0.0059287108
0.0054425972
0.0050696462
0.0048083767
0.0046280601
0.0044697161
0.0043425466
0.004255192
0.0041911228
0.0041482223
0.0041192678
0.0041049025
0.11372556
0.11362487
0.11334933
0.11281818
0.11191558
0.11047822
0.10827554
0.10498808
0.10018247
0.093280968
0.083524053
0.069948685
0.052211518
0.030880261
0.016318929
0.010381457
0.0081802513
0.0071618256
0.0063384012
0.0057965982
0.005365604
0.0050287515
0.0047800765
0.0046076293
0.0044551131
0.0043329498
0.0042491726
0.0041872681
0.004145571
0.0041173498
0.0041034738
0.11052834
0.10977299
0.10871491
0.10727477
0.10531768
0.10266048
0.099053641
0.094166042
0.087570381
0.078726957
0.066959511
0.051281784
0.032851814
0.018918405
0.011789261
0.0087797522
0.0077123839
0.0068321638
0.0061316768
0.0056554087
0.0052774667
0.0049840804
0.0047471123
0.0045833881
0.0044380933
0.0043215563
0.0042420038
0.0041827173
0.0041424657
0.0041151186
0.0041014102
0.096841146
0.09554358
0.093793672
0.091515809
0.088567819
0.084753553
0.079806112
0.073412585
0.065215728
0.054849679
0.042263024
0.030005096
0.01933555
0.012360248
0.0091535819
0.008100035
0.0071919408
0.0065303645
0.0059065836
0.005520065
0.0051907645
0.0049336745
0.0047126636
0.0045579517
0.0044196217
0.0043092398
0.0042342503
0.0041777772
0.0041390583
0.0041126181
0.0040991012
0.068144713
0.066336497
0.064134863
0.06156214
0.05849244
0.054769565
0.050227613
0.044818898
0.038501785
0.031336244
0.023716763
0.016809955
0.011853343
0.0091520444
0.0079949149
0.0073682598
0.006832714
0.0062103758
0.0057176522
0.0053822021
0.0050957503
0.0048812859
0.0046713913
0.0045289193
0.0043977985
0.0042950953
0.0042252632
0.0041719963
0.0041351456
0.0041097569
0.0040965552
0.0383774
0.037224887
0.035804278
0.034114872
0.032040426
0.029527999
0.026762855
0.023666576
0.020264477
0.016649996
0.013132354
0.010323638
0.0086176361
0.0077628956
0.0074269691
0.0069822871
0.0063974861
0.0059664283
0.0055173897
0.0052562015
0.0050104428
0.0048189963
0.0046318577
0.0044973502
0.0043731921
0.0042803841
0.0042156853
0.0041656954
0.004130891
0.0041066045
0.0040938389
0.019012749
0.018604299
0.017999337
0.017231679
0.016276675
0.015136236
0.013873287
0.012509471
0.011093026
0.0097113777
0.0085210493
0.0077264952
0.0072511405
0.0072399751
0.0066670217
0.0063086264
0.0061398523
0.0057142164
0.0053632866
0.0051297384
0.0049175386
0.0047614395
0.0045815326
0.0044596604
0.0043473048
0.0042638721
0.0042048087
0.0041584812
0.0041261111
0.0041030859
0.0040910636
0.010105645
0.010008167
0.0098057812
0.0095233262
0.0091742463
0.0087788007
0.0083589373
0.0079133444
0.007436559
0.0070536789
0.0068692219
0.006786507
0.00679732
0.0063662119
0.0061861545
0.0060364158
0.0057511666
0.0055348592
0.0052072139
0.0050248922
0.0048389811
0.0046832281
0.0045328473
0.0044227545
0.0043194005
0.0042470685
0.0041933123
0.0041510826
0.0041209247
0.0040992641
0.0040876706
0.0068449123
0.0068221202
0.0067616276
0.0066764431
0.0065690079
0.0064559426
0.0063566054
0.0062695167
0.006221667
0.006225162
0.006299235
0.0062393024
0.0059171169
0.005907208
0.0056931452
0.0055183362
0.0054300291
0.0052875673
0.0050541343
0.0048896176
0.0047485066
0.0046079513
0.0044753923
0.004378943
0.0042925172
0.0042291146
0.0041803968
0.0041429346
0.0041152876
0.0040950209
0.0040841997
0.0057786058
0.0057415402
0.0057191843
0.0057063742
0.0057041697
0.0057069466
0.0057298197
0.0057077297
0.0056878886
0.0056834027
0.0056160937
0.0054910053
0.0055634864
0.0054588681
0.0054175977
0.0052579586
0.0050511695
0.0049847229
0.0049154657
0.0047534502
0.0046179258
0.0045278767
0.0044222117
0.0043358694
0.0042648176
0.0042111638
0.0041675421
0.0041348854
0.0041091963
0.0040904064
0.0040801026
0.0052897052
0.0052885338
0.0052854042
0.0052883608
0.0053041056
0.0053281324
0.0053072581
0.0052920235
0.0052521989
0.0051630903
0.0051030837
0.0050919428
0.0050424916
0.0049834299
0.0049684076
0.004958744
0.0048559876
0.0047211401
0.0046977913
0.0045822417
0.004497885
0.0044331866
0.0043629972
0.0042882556
0.004238923
0.0041921004
0.0041536166
0.0041258892
0.0041026448
0.0040853424
0.0040761131
0.0049345731
0.0049310434
0.0049237944
0.0049057444
0.0048764338
0.0048371336
0.0048403551
0.0048303049
0.0048171423
0.004799755
0.0047826382
0.0047322623
0.0046981104
0.004678157
0.0046334444
0.004609246
0.0046424839
0.0045943557
0.0045631878
0.0044969398
0.0043766334
0.0043274827
0.0043061441
0.0042460859
0.0042124211
0.0041708823
0.0041410433
0.0041176056
0.0040954437
0.0040799985
0.0040713045
0.0046088602
0.0046098867
0.004608388
0.0046043014
0.0045998128
0.0046023908
0.0046053524
0.0046038904
0.0045957965
0.0045770585
0.0045513463
0.0045329313
0.0044839744
0.0044623259
0.004460118
0.0044328876
0.0044139395
0.0043942658
0.0043762375
0.0043638752
0.0043102247
0.0042634876
0.00424114
0.0042042481
0.0041830946
0.0041528086
0.0041268745
0.0041084205
0.0040881335
0.0040742943
0.0040666753
0.0044349536
0.0044359228
0.0044346468
0.0044313698
0.0044255452
0.0044161638
0.0044031787
0.0043906812
0.0043846207
0.0043807485
0.0043761201
0.0043758216
0.004384105
0.0043717262
0.0043543644
0.0043360845
0.0043111732
0.0042959158
0.0042653178
0.0042571916
0.0042667482
0.0042275481
0.0041940008
0.0041710925
0.0041569716
0.0041369098
0.0041160179
0.004098844
0.0040809365
0.0040682938
0.00406139
0.0042705554
0.0042716837
0.0042713265
0.0042697916
0.004267623
0.0042651519
0.0042630515
0.0042659344
0.0042681628
0.0042690388
0.0042694227
0.0042655848
0.0042565007
0.0042470921
0.0042419231
0.0042450066
0.0042520169
0.0042456584
0.0042082124
0.0041930423
0.0041972672
0.0042049855
0.0041663555
0.0041453223
0.004138255
0.0041234627
0.0041031669
0.0040886802
0.0040736431
0.0040620518
0.0040563592
0.004189365
0.0041908108
0.0041907657
0.0041896084
0.0041874353
0.004184371
0.0041802421
0.0041749203
0.0041722481
0.0041724659
0.0041732916
0.0041749366
0.0041764636
0.0041772616
0.0041857619
0.0041842559
0.0041702885
0.0041819111
0.0041575136
0.004155566
0.0041452263
0.0041580144
0.0041487331
0.0041313427
0.0041179071
0.0041103517
0.0040943702
0.0040781806
0.0040660769
0.0040560823
0.0040513116
0.0041166473
0.0041172526
0.0041170755
0.0041165187
0.0041160825
0.0041160192
0.0041163629
0.0041173164
0.0041203615
0.0041243574
0.0041285466
0.0041335799
0.0041376815
0.0041382742
0.0041289249
0.0041260781
0.0041238383
0.0041220434
0.0041136169
0.0041260755
0.0041217157
0.0041175262
0.0041211744
0.0041165435
0.0041025662
0.0040943494
0.0040813222
0.0040674085
0.0040579918
0.0040507646
0.0040457154
0.0040811993
0.0040815837
0.0040815801
0.0040815538
0.0040817803
0.0040823035
0.0040829791
0.0040835927
0.0040837383
0.0040835072
0.0040841848
0.0040857099
0.0040878477
0.004089958
0.0040966806
0.0040962324
0.0040956134
0.0040961898
0.0040985713
0.0040986196
0.0041093173
0.0040953508
0.0040909007
0.0040902247
0.0040799438
0.0040744733
0.0040680199
0.0040597436
0.0040514866
0.0040453527
0.0040420744
0.0040552943
0.0040557208
0.0040560575
0.0040563919
0.0040567911
0.0040572704
0.0040578196
0.0040584546
0.0040591894
0.0040599692
0.0040608113
0.0040618595
0.004063291
0.0040644795
0.0040643599
0.0040651285
0.0040663347
0.0040679629
0.0040721011
0.0040717532
0.0040700281
0.0040705631
0.0040654178
0.0040654644
0.0040656882
0.0040603672
0.004056281
0.0040513064
0.0040462624
0.0040422473
0.0040402405
0.00404599
0.0040461922
0.0040462989
0.0040463917
0.0040465351
0.0040467566
0.0040470684
0.0040474798
0.0040479216
0.0040483275
0.004048747
0.004049305
0.0040503492
0.0040513327
0.0040522264
0.0040531847
0.0040538123
0.0040548515
0.0040548597
0.0040556448
0.0040554947
0.0040550024
0.0040546509
0.0040535078
0.0040545126
0.0040523877
0.0040499189
0.0040467231
0.0040433764
0.0040402223
0.0040368817
0.004040882
0.0040410294
0.0040411576
0.0040413148
0.0040415209
0.004041778
0.0040420826
0.0040423832
0.004042637
0.0040429113
0.0040432301
0.004043805
0.0040450853
0.0040457817
0.0040456759
0.0040456851
0.0040459024
0.0040464003
0.0040474572
0.0040484371
0.0040490651
0.004049134
0.0040491025
0.0040486814
0.0040483551
0.0040474051
0.0040462301
0.0040443806
0.0040399734
0.0040368743
0.0040369574
0.0040355611
0.0040356708
0.0040358243
0.0040360234
0.0040362747
0.0040365855
0.0040369627
0.004037418
0.0040379654
0.0040386292
0.004039446
0.0040406359
0.0040417049
0.0040419024
0.0040417392
0.0040415501
0.0040419772
0.0040426538
0.0040436908
0.004044395
0.0040446403
0.004045325
0.0040445239
0.0040453416
0.004044682
0.004044166
0.0040433239
0.0040412453
0.0040398795
0.0040392327
0.0040379941
0.00072204372
0.001562349
0.0031404658
0.0055133175
0.0086602773
0.012658152
0.017588783
0.023495456
0.030463796
0.038024108
0.046308631
0.054938504
0.063253646
0.07022304
0.074299499
0.073279991
0.064429469
0.046870835
0.026501068
0.012871334
0.0076032725
0.0059928495
0.0053453066
0.0049520214
0.0046810746
0.0044842697
0.0043462411
0.0042524882
0.0041896647
0.0041492734
0.0041290422
0.0017646994
0.0035701491
0.0059657795
0.008833773
0.012336019
0.016580421
0.021622986
0.027739451
0.034506257
0.042008053
0.050119853
0.058409326
0.066173322
0.072329544
0.075282551
0.072805987
0.062262991
0.043489189
0.023353634
0.011616917
0.0071888427
0.0058656172
0.0052922777
0.0049243731
0.0046659404
0.004475014
0.004340821
0.0042493449
0.0041879134
0.0041482602
0.0041284482
0.0032867415
0.0052551746
0.0076826563
0.010721729
0.014493126
0.019076894
0.02456366
0.030855656
0.037807107
0.045416624
0.053454941
0.061465981
0.06871622
0.0740831
0.075934547
0.072040995
0.059917867
0.040252676
0.020932817
0.010418965
0.0068895087
0.0058089094
0.005267213
0.0049112085
0.0046587456
0.0044704944
0.0043380768
0.0042474598
0.0041866967
0.0041474099
0.0041279046
0.0047934587
0.0069522419
0.009680808
0.013054022
0.017109862
0.021951152
0.027661694
0.033992388
0.041036561
0.04866007
0.056569981
0.06427195
0.070990253
0.075558789
0.076312373
0.071032502
0.057432434
0.03716707
0.018815854
0.0097168001
0.0067265789
0.0057380587
0.0052291236
0.004890402
0.0046470618
0.0044631056
0.004333599
0.004244733
0.0041851194
0.0041464476
0.0041273031
0.0062663833
0.0087273954
0.011749264
0.015376318
0.019687224
0.024789275
0.030567638
0.037045757
0.044174535
0.051773096
0.059517067
0.06687837
0.073040459
0.076796302
0.076453041
0.069814388
0.054844377
0.034210104
0.016944172
0.008978882
0.0065540071
0.0056874383
0.0052041889
0.0048769446
0.0046394464
0.0044582163
0.0043306118
0.004242722
0.004183847
0.004145574
0.0041266481
0.0078284634
0.010543952
0.013798269
0.017655548
0.022252233
0.027530846
0.033457151
0.040060345
0.047234218
0.05477027
0.062315591
0.069307947
0.074891723
0.077822557
0.076385613
0.068413775
0.05219198
0.031387006
0.015309349
0.0084997465
0.0064437343
0.0056357025
0.0051741579
0.0048601322
0.0046297872
0.0044519728
0.004326783
0.0042402825
0.0041823868
0.0041446394
0.0041259757
0.0093457437
0.012303228
0.015809306
0.019946835
0.024765845
0.030207433
0.036304068
0.043011486
0.050203505
0.057650314
0.064971673
0.071572527
0.076560962
0.078659248
0.076135918
0.066864917
0.049511149
0.028742252
0.01391825
0.0080509052
0.0063386756
0.0055928001
0.0051512202
0.0048474252
0.0046223873
0.004447128
0.0043237988
0.0042382565
0.0041811042
0.004143755
0.0041252913
0.010816096
0.014040742
0.017810164
0.022236843
0.027231846
0.032856479
0.039097972
0.045885752
0.053074091
0.060410542
0.067488085
0.073680551
0.07806254
0.079326654
0.075729679
0.065204733
0.046837362
0.026309879
0.012761466
0.0077387682
0.006261888
0.0055520421
0.0051269069
0.0048334967
0.0046141796
0.0044417156
0.0043204474
0.0042360332
0.0041797322
0.0041428396
0.0041245993
0.012285136
0.015761045
0.019798459
0.024447313
0.029644318
0.035447893
0.041819978
0.048671797
0.055839253
0.063048501
0.069867255
0.075640096
0.079410848
0.079845977
0.075199801
0.063465846
0.044229404
0.024116087
0.011842346
0.007497607
0.0061916565
0.0055163961
0.0051067791
0.0048220222
0.0046073028
0.0044371332
0.0043175989
0.0042340617
0.0041784684
0.0041419541
0.0041239018
0.013707965
0.017438699
0.021747006
0.02658975
0.031998
0.037972196
0.04446108
0.051361979
0.058493876
0.065562765
0.072112495
0.077460151
0.08062131
0.080239407
0.074577902
0.061684946
0.041700261
0.022172975
0.011070164
0.0073169312
0.0061351205
0.0054836415
0.0050869014
0.0048103641
0.0046002274
0.0044323841
0.0043146275
0.0042320203
0.0041771699
0.004141055
0.0041231987
0.015116589
0.019094961
0.02363642
0.02868219
0.034292353
0.040421669
0.047012927
0.053949457
0.061033889
0.067953061
0.074228352
0.079150997
0.081710587
0.080530635
0.073890919
0.059896625
0.039290368
0.020486325
0.010473343
0.0071731778
0.0060841037
0.005454698
0.0050697798
0.0048003198
0.0045940135
0.0044281742
0.0043119776
0.0042301469
0.0041759423
0.0041401753
0.004122491
0.016485329
0.020712773
0.025460116
0.030719087
0.036516202
0.042785701
0.049467286
0.056428081
0.063456165
0.070220193
0.076220538
0.080724092
0.082696302
0.080748296
0.073167567
0.058139263
0.037034129
0.019053315
0.009989905
0.0070637226
0.0060413758
0.0054287246
0.0050535614
0.0047905859
0.004587907
0.0044240018
0.0043093272
0.0042282741
0.00417471
0.0041392919
0.0041217785
0.017829114
0.022283571
0.027232672
0.032691742
0.038650374
0.04505552
0.051816703
0.058792426
0.06575837
0.072365815
0.078095635
0.082191737
0.08359846
0.080913229
0.072433479
0.056445258
0.034957216
0.01785964
0.0096291962
0.0069767953
0.0060034184
0.0054059597
0.0050393562
0.004782024
0.0045824358
0.0044202212
0.0043069007
0.0042265269
0.004173529
0.0041384229
0.0041210617
0.019143597
0.02380239
0.028949898
0.034592015
0.040690668
0.047225572
0.054053544
0.061037229
0.067938966
0.074393511
0.07986232
0.083571006
0.084436058
0.081046292
0.071718904
0.054836338
0.033078413
0.016888229
0.0093718708
0.0069103422
0.0059714896
0.0053859837
0.005026285
0.0047739891
0.0045772369
0.0044165825
0.0043045338
0.0042248189
0.0041723596
0.0041375561
0.0041203408
0.020437337
0.02527578
0.030606583
0.036415619
0.042659389
0.049267904
0.056173354
0.063161365
0.0699994
0.076311319
0.081533402
0.084874463
0.085228427
0.081179363
0.071061719
0.053330845
0.03140893
0.016122349
0.0091858501
0.0068585953
0.0059441491
0.0053687906
0.0050148332
0.00476688
0.0045725728
0.0044132616
0.0043023386
0.0042232148
0.0041712325
0.0041367018
0.004119615
0.021693216
0.026701176
0.032196691
0.038153186
0.044522097
0.051226732
0.058152581
0.065158617
0.071940618
0.078115541
0.083110741
0.086111438
0.08599642
0.081339915
0.070495708
0.051962162
0.029957582
0.015552233
0.0090529674
0.0068179699
0.0059220528
0.0053540505
0.0050045851
0.0047603779
0.0045682691
0.0044101366
0.0043002324
0.0042216696
0.0041701282
0.0041358544
0.0041188832
0.022862221
0.028038367
0.033690077
0.039783367
0.046263755
0.053050967
0.060018776
0.066996377
0.073726171
0.079798388
0.084593532
0.087295315
0.086758339
0.081553041
0.07005119
0.050781211
0.028763953
0.015073672
0.0089157362
0.0067837869
0.0059046027
0.0053417407
0.0049957432
0.0047546592
0.0045644489
0.004407294
0.0042982713
0.0042202159
0.0041690613
0.0041350185
0.0041181455
0.023904711
0.029221613
0.035011409
0.041231794
0.047823605
0.054696484
0.061720758
0.068709601
0.075386908
0.081338817
0.085978599
0.08843588
0.087530924
0.081841407
0.069754638
0.049829865
0.027807999
0.014676356
0.0088017157
0.0067585295
0.0058919079
0.0053317786
0.0049881101
0.0047495719
0.0045610214
0.0044046766
0.0042964157
0.0042188303
0.0041680222
0.0041341916
0.0041174022
0.025006189
0.030381944
0.036244318
0.042546315
0.049217179
0.056159717
0.063236265
0.070249782
0.076911584
0.082797023
0.087295817
0.089520159
0.088327099
0.082224932
0.069628971
0.049139859
0.02707208
0.014343844
0.0086979163
0.0067405432
0.0058836845
0.0053241634
0.0049817794
0.004745201
0.004558036
0.0044023288
0.0042946955
0.0042175288
0.0041670188
0.0041333764
0.0041166538
0.026095552
0.031510513
0.037409714
0.043753022
0.050469496
0.057458727
0.064575864
0.071615378
0.078276935
0.084124872
0.088532446
0.090605984
0.089162009
0.082694362
0.069692105
0.048734906
0.026545061
0.014063331
0.0086063348
0.0067303843
0.0058799397
0.0053188828
0.0049766982
0.0047414988
0.0045554489
0.0044002291
0.0042930959
0.0042162999
0.0041660466
0.0041325717
0.0041159007
0.027154212
0.032577409
0.038483159
0.044837519
0.051571637
0.058588023
0.065734432
0.072802403
0.07947914
0.085319932
0.089682257
0.091660068
0.090044474
0.08332469
0.069951984
0.048632471
0.026225705
0.013817282
0.0085213437
0.0067271764
0.0058806674
0.0053160217
0.0049729642
0.0047385354
0.0045532865
0.004398403
0.0042916342
0.0042151502
0.0041651089
0.0041317778
0.004115143
0.028170543
0.033569441
0.039448904
0.045784917
0.052509724
0.05953942
0.066729344
0.073850093
0.080576128
0.086429118
0.090767244
0.092689893
0.090974193
0.084084674
0.070445563
0.048846006
0.026127553
0.01358311
0.0084394785
0.0067290662
0.005885393
0.0053156567
0.0049705988
0.0047363105
0.0045515234
0.0043968361
0.0042903001
0.0042140693
0.0041641998
0.0041309923
0.0041143803
0.029151958
0.034467912
0.040272256
0.046557905
0.053282923
0.060340313
0.067569739
0.074726949
0.081479451
0.087369675
0.091742497
0.093681143
0.091948624
0.084979956
0.071161083
0.049395177
0.026243154
0.013325986
0.0083631212
0.0067374172
0.0058933564
0.0053163807
0.0049695734
0.0047348071
0.0045501264
0.0043955123
0.0042890871
0.0042130509
0.0041633159
0.0041302136
0.0041136129
0.030099203
0.035241999
0.040880488
0.04703695
0.053689507
0.060722678
0.067965036
0.075173083
0.082007171
0.087990552
0.092458465
0.094481269
0.092802932
0.085837493
0.071920904
0.050071418
0.026591371
0.012987105
0.0082836159
0.006751155
0.0059026948
0.0053191304
0.0049695848
0.0047338764
0.0045489978
0.0043943795
0.0042879717
0.0042120829
0.004162453
0.0041294425
0.0041128415
0.00073848784
0.0015102948
0.0029964903
0.0052413099
0.0082317312
0.011990895
0.01664574
0.022286615
0.029029802
0.036433271
0.044623629
0.053248022
0.06167689
0.068932022
0.073510862
0.073240917
0.065334044
0.048466085
0.027898327
0.013359332
0.0077155997
0.0060299572
0.0053634863
0.004961213
0.0046857422
0.0044872252
0.0043482045
0.0042539032
0.0041905962
0.0041499353
0.0041293213
0.00078292942
0.0015497448
0.0030111311
0.0051929889
0.0081031972
0.011800979
0.016385008
0.021937098
0.028564404
0.035894935
0.043960959
0.052483972
0.060891736
0.06821131
0.072967603
0.073018085
0.0656051
0.049196571
0.028636794
0.013677162
0.0077869347
0.0060530927
0.0053758145
0.0049671678
0.0046883892
0.0044893013
0.0043495929
0.004254884
0.0041912582
0.0041504207
0.0041295919
0.000836742
0.0015924258
0.0030333667
0.0051750907
0.0080290569
0.011653857
0.016143416
0.021583996
0.028064163
0.03528883
0.043252456
0.051698921
0.060079055
0.06745708
0.072388282
0.0727634
0.065856669
0.049939109
0.029424349
0.014023527
0.0078655764
0.0060771902
0.0053880971
0.0049734075
0.0046915869
0.0044911029
0.0043508733
0.0042558958
0.0041919487
0.0041509274
0.0041299279
0.00089949273
0.0016384997
0.0030550565
0.0051557039
0.0079528637
0.011504024
0.015899115
0.021224986
0.027560891
0.034673528
0.042529545
0.050891688
0.059238957
0.066668806
0.071771315
0.072474187
0.066083945
0.050693387
0.030259945
0.014405793
0.007955852
0.0061050654
0.0054029019
0.0049801143
0.004694089
0.0044936332
0.004352519
0.004257005
0.0041927003
0.0041514784
0.0041303699
0.00097497194
0.0016927106
0.0030799341
0.0051382708
0.0078777357
0.01135419
0.015653921
0.020860109
0.02705558
0.034051721
0.041794518
0.050066127
0.058372911
0.065847074
0.071115999
0.072148257
0.066282209
0.051457297
0.031141058
0.014829755
0.0080585332
0.0061326545
0.0054161326
0.0049873576
0.0046982487
0.0044956558
0.0043539787
0.0042581739
0.0041934944
0.0041520608
0.0041307134
0.0010667708
0.0017522854
0.0031052986
0.0051198107
0.0078020848
0.011204497
0.015409744
0.020500234
0.0265521
0.033427278
0.041051147
0.049225548
0.057483399
0.064993347
0.070422244
0.071783652
0.066447474
0.052226119
0.032054974
0.015292353
0.0081739572
0.006166322
0.0054337438
0.0049951148
0.0047009161
0.0044980903
0.0043556401
0.0042594134
0.0041943379
0.0041526809
0.0041310375
0.0011811969
0.001830307
0.0031423019
0.005111763
0.0077367308
0.011064878
0.015175245
0.02014909
0.02605573
0.032805871
0.040303143
0.048372489
0.056571585
0.064108396
0.069689812
0.071378835
0.066579627
0.052995085
0.033018154
0.015805534
0.0083033502
0.0062011634
0.0054508883
0.005003263
0.0047044107
0.0045006568
0.0043573912
0.0042607261
0.0041952277
0.0041533362
0.004131409
0.0013175653
0.0019235614
0.0031886854
0.0051099371
0.0076770858
0.010930872
0.014946225
0.019803497
0.025573033
0.032183704
0.039548874
0.047505904
0.055634817
0.063191859
0.068918011
0.07093183
0.066675852
0.053757109
0.034051683
0.016371626
0.00844976
0.006239115
0.0054691425
0.0050119398
0.0047079512
0.0045032972
0.0043591917
0.0042620947
0.0041961632
0.0041540316
0.0041319735
0.0014827793
0.002036788
0.0032543746
0.0051241945
0.007631923
0.010810896
0.014731056
0.019470591
0.025091268
0.031568202
0.038796368
0.046633767
0.054689585
0.062249001
0.068108903
0.070440624
0.066731228
0.054506915
0.035133667
0.016995275
0.0086142193
0.006280495
0.0054886346
0.0050209822
0.0047116386
0.0045060882
0.0043610913
0.0042635496
0.004197149
0.0041547607
0.0041325942
0.0016769374
0.0021766466
0.0033392944
0.0051564762
0.0076052769
0.010709968
0.014534933
0.019155355
0.02462501
0.030964338
0.0380506
0.045760827
0.05373509
0.061282934
0.067263963
0.069904136
0.06674133
0.055244301
0.036261564
0.017681688
0.0088002715
0.0063257701
0.0055091545
0.0050305939
0.0047153545
0.004508906
0.0043630156
0.0042650499
0.0041981816
0.0041555353
0.0041332506
0.0019015407
0.002353783
0.0034577892
0.0052180122
0.0076056226
0.0106353
0.01436457
0.018865309
0.024192678
0.030385427
0.037318509
0.0448921
0.052768304
0.060296784
0.066385245
0.069322053
0.06670211
0.055956262
0.037434777
0.018437753
0.0090104277
0.0063753995
0.0055313135
0.0050405419
0.0047192239
0.0045119033
0.0043650531
0.0042666604
0.0041992718
0.0041563438
0.0041338824
0.0021582898
0.0025696473
0.0036165693
0.0053176314
0.0076421508
0.010595367
0.014227742
0.018607906
0.023793269
0.029828641
0.036605282
0.044033504
0.051800308
0.059294925
0.065475486
0.068694772
0.066610279
0.056628477
0.038617124
0.019262801
0.009247779
0.0064298151
0.005554039
0.0050508841
0.0047231543
0.0045148463
0.0043670811
0.004268289
0.0042004037
0.0041572073
0.0041345509
0.0024442863
0.0028275091
0.0038244557
0.0054649042
0.0077243806
0.010599526
0.01413378
0.01839056
0.023431236
0.02928972
0.0359149
0.043191131
0.050836938
0.058281831
0.064538052
0.068023412
0.066463502
0.057255081
0.039797261
0.020162226
0.0095166441
0.0064900852
0.0055789862
0.0050617161
0.0047271688
0.004517974
0.0043692206
0.0042700613
0.0042016071
0.0041581024
0.0041352607
0.0027516246
0.0031279978
0.0040821818
0.0056714514
0.0078644232
0.010658954
0.014093447
0.018222376
0.023115199
0.028803361
0.035263348
0.042373281
0.049884458
0.05725823
0.06357676
0.067309841
0.066260254
0.057829166
0.040986553
0.021138482
0.0098202005
0.0065556796
0.0056039339
0.0050723157
0.0047313832
0.0045209897
0.0043713396
0.0042718076
0.0042028383
0.004159059
0.0041360088
0.0030907451
0.003480922
0.0044099206
0.0059461427
0.0080741431
0.010785994
0.014117168
0.018114295
0.022852935
0.028371189
0.03465753
0.041588073
0.048950931
0.056245669
0.062597858
0.066556885
0.065999751
0.058343821
0.04217426
0.022195406
0.010164241
0.0066300747
0.005630806
0.0050838936
0.0047354912
0.0045240869
0.0043735112
0.0042737358
0.0042041678
0.0041600407
0.0041367921
0.0034793104
0.0039112545
0.0048352139
0.0063281223
0.008376945
0.010996661
0.014216839
0.018076825
0.022652871
0.027993687
0.034078415
0.040837609
0.048043066
0.055246615
0.061607377
0.065768231
0.065682131
0.05879249
0.043358393
0.023318799
0.010551208
0.0067090607
0.0056588116
0.0050943567
0.0047399666
0.0045272039
0.0043757502
0.0042755965
0.0042054971
0.004161085
0.0041376063
0.0039443824
0.0044289547
0.0053565485
0.0068023711
0.0087784427
0.011299095
0.014399823
0.018116948
0.022521964
0.027679368
0.033566547
0.040131663
0.047166312
0.054253059
0.060609697
0.064948183
0.065309062
0.059170653
0.044532448
0.024547935
0.010991288
0.0068016477
0.0056850143
0.0051058152
0.0047441804
0.0045300085
0.0043778431
0.0042776497
0.0042069681
0.0041621508
0.0041384483
0.0045303071
0.0050547028
0.005976978
0.0073714302
0.0092710446
0.01169074
0.014666876
0.018236511
0.022463914
0.027432745
0.033120161
0.039487907
0.046328842
0.053280661
0.059610847
0.064101563
0.06488363
0.059480147
0.045694946
0.025855926
0.011480747
0.0068985505
0.0057167785
0.0051164342
0.0047485374
0.0045333691
0.0043803103
0.0042796538
0.004208392
0.0041632691
0.0041393173
0.0052711931
0.0058131163
0.0067190838
0.0080592298
0.0098741786
0.012173224
0.01501485
0.018431832
0.022477626
0.027253137
0.03273338
0.038882377
0.04553138
0.05233396
0.058616144
0.063232817
0.064406861
0.059722843
0.046827374
0.027185466
0.01203866
0.007008885
0.0057418523
0.0051258422
0.0047531958
0.0045356218
0.0043822012
0.0042817605
0.0042100081
0.0041644141
0.0041402119
0.0061800206
0.0067094753
0.0075732509
0.0088372981
0.010544455
0.012729402
0.01543264
0.018693038
0.022556269
0.027134701
0.032401827
0.038322987
0.044773794
0.051415504
0.057629875
0.062345634
0.063879169
0.059886744
0.047901454
0.028586006
0.012651687
0.0071451362
0.0057701915
0.0051363167
0.0047566965
0.0045392209
0.004385098
0.0042839984
0.0042115128
0.0041655746
0.0041411296
0.0072304535
0.0077226821
0.00851754
0.0096840314
0.011272419
0.013332726
0.01589687
0.019000974
0.022685481
0.027066424
0.032120465
0.037822763