/*--------------------------------*- C++ -*----------------------------------*\
| =========                 |                                                 |
| \\      /  F ield         | OpenFOAM: The Open Source CFD Toolbox           |
|  \\    /   O peration     | Version:  2406                                  |
|   \\  /    A nd           | Website:  www.openfoam.com                      |
|    \\/     M anipulation  |                                                 |
\*---------------------------------------------------------------------------*/
FoamFile
{
    version     2.0;
    format      ascii;
    arch        "LSB;label=32;scalar=64";
    class       volScalarField;
    location    "0.072";
    object      p;
}
// * * * * * * * * * * * * * * * * * * * * * * * * * * * * * * * * * * * * * //

dimensions      [1 -1 -2 0 0 0 0];

internalField   nonuniform List<scalar> 
8260
(
101074.66
100996.47
100951.46
100896.81
100846.96
100811.02
100791.34
100787.55
100798.39
100821.97
100858.63
100906.15
100961.64
101022.13
101083.23
101147.09
101186.22
101216.75
101241.99
101263.44
101282.11
101298.61
101313.07
101325.45
101336.32
101345.35
101352.95
101359.13
101364.2
101367.31
101369.55
101230.63
101161.9
101094.98
101023.44
100961.06
100913.41
100881.77
100866.69
100866.26
100879.47
100906.57
100945.84
100993.9
101048.69
101102.01
101159.83
101194.42
101224.82
101248.4
101268.48
101286.11
101301.79
101315.61
101327.48
101337.96
101346.69
101354.04
101360.04
101364.98
101368
101370.19
101335.83
101272.99
101199.61
101121.48
101052.78
100997.83
100957.85
100934.29
100925.73
100929.53
100948.84
100981.22
101023.44
101074.27
101122.11
101175.37
101205.01
101234.6
101255.93
101274.35
101290.74
101305.48
101318.55
101329.83
101339.85
101348.22
101355.3
101361.09
101365.88
101368.79
101370.92
101422.26
101363.29
101290.37
101210.57
101138.25
101077.96
101031.19
100999.54
100982.86
100979.49
100991.62
101017.43
101054.22
101101.24
101144.35
101192.49
101218
101245.65
101264.49
101281.04
101296.04
101309.7
101321.9
101332.52
101342.01
101349.98
101356.73
101362.29
101366.9
101369.69
101371.75
101496.93
101441.99
101372.54
101294.39
101221.22
101157.96
101106.33
101068.1
101044.11
101034.09
101039.18
101058.31
101089.46
101131.89
101169.87
101211.2
101233.72
101258.05
101274.21
101288.65
101302.07
101314.5
101325.73
101335.58
101344.47
101351.98
101358.36
101363.65
101368.06
101370.72
101372.69
101558.65
101507.56
101443.47
101370.03
101299.13
101235.69
101181.69
101139.08
101109.38
101093.32
101091.81
101104.38
101129.87
101166.9
101199.04
101231.8
101252.35
101271.94
101285.23
101297.31
101308.92
101319.97
101330.09
101339.06
101347.27
101354.25
101360.21
101365.2
101369.37
101371.89
101373.76
101607.22
101560.09
101502.08
101435.79
101370.03
101309.17
101255.37
101210.76
101177.29
101156.35
101149.07
101155.58
101175.69
101206.48
101231.81
101255.04
101273.61
101287.53
101297.67
101307.15
101316.7
101326.19
101335.05
101343.04
101350.45
101356.85
101362.32
101366.96
101370.87
101373.21
101374.98
101644.08
101601.58
101550.92
101492.9
101433.98
101377.83
101326.54
101282.21
101247
101222.7
101210.79
101212.05
101227.31
101250.55
101267.88
101282.39
101296.94
101304.99
101311.66
101318.27
101325.53
101333.24
101340.69
101347.58
101354.07
101359.79
101364.72
101368.97
101372.57
101374.73
101376.36
101673.65
101634.87
101591.59
101542.53
101491.72
101441.97
101395.11
101353.11
101318.1
101292.09
101276.84
101273.88
101284.79
101298.56
101307.28
101314.78
101321.92
101324.45
101327.32
101330.8
101335.52
101341.22
101347.07
101352.75
101358.19
101363.14
101367.45
101371.26
101374.51
101376.45
101377.92
101697.89
101665.28
101627.9
101587.32
101545.36
101503.1
101462
101423.85
101390.66
101364.44
101347.19
101341.01
101347.17
101351.06
101350.81
101350.58
101348.57
101345.95
101344.68
101344.84
101346.81
101350.21
101354.28
101358.64
101362.89
101366.94
101370.55
101373.87
101376.72
101378.42
101379.7
101717.52
101697.87
101669.89
101637.1
101601.53
101565.32
101529.65
101495.8
101465.35
101440.17
101422.39
101413.88
101414.02
101407.96
101397.54
101387.12
101377.3
101369.39
101363.7
101360.47
101359.48
101360.32
101362.43
101365.27
101368.22
101371.27
101374.08
101376.83
101379.23
101380.66
101381.72
101744.87
101731.7
101712.74
101686.96
101658.32
101628.86
101599.33
101570.56
101543.78
101520.85
101503.93
101492.98
101482.73
101465.32
101443.69
101423.92
101407.57
101394.31
101384.49
101377.68
101373.54
101371.71
101371.61
101372.67
101374.26
101376.19
101378.1
101380.2
101382.09
101383.23
101384.04
101788.08
101787.81
101776.35
101753.91
101728.69
101703.48
101678.57
101653.99
101630.23
101608.37
101588.83
101569.47
101545.23
101515.8
101486.42
101460.36
101438.48
101420.71
101406.78
101396.43
101389.05
101384.39
101381.87
101380.95
101381.06
101381.78
101382.7
101384.02
101385.34
101386.14
101386.7
101863.33
101849.36
101831.28
101809.62
101787.95
101768.62
101750.5
101731
101708.89
101684.25
101656.74
101625.99
101592.45
101557.82
101524.7
101495.03
101469.51
101447.87
101430.18
101416.41
101405.92
101398.33
101393.26
101390.24
101388.68
101388.07
101387.93
101388.36
101389.01
101389.43
101389.76
101893.77
101894.01
101891.13
101885.1
101871.17
101847.82
101821.47
101794.39
101764.93
101732.92
101699
101663.57
101627.73
101592.24
101558.5
101527.19
101499.18
101474.87
101454.05
101437.12
101423.79
101413.46
101405.84
101400.55
101397.15
101395.09
101393.81
101393.27
101393.14
101393.11
101393.24
101895.35
101886.72
101874.52
101859.62
101846.83
101836.95
101826.5
101814.38
101794.85
101765.83
101731.18
101694.06
101657.22
101621.68
101588.39
101556.6
101526.9
101500.58
101477.66
101458.01
101442.12
101429.49
101419.42
101411.89
101406.51
101402.84
101400.34
101398.75
101397.75
101397.2
101397.18
101887.19
101879.59
101870.11
101859.09
101847.26
101834.13
101817.67
101797.48
101778.52
101763.02
101743.14
101715.59
101682.02
101647.38
101615.12
101583.87
101553.28
101524.96
101500.36
101478.76
101460.54
101445.85
101433.77
101424.08
101416.7
101411.29
101407.47
101404.8
101402.88
101401.73
101401.59
101858.94
101852.94
101845.74
101837.48
101828
101817.04
101804.33
101789.76
101773.58
101755.22
101736.4
101718.93
101695.97
101666.37
101636.18
101606.73
101577.79
101548.74
101522.32
101499.23
101478.92
101462.21
101448.38
101436.86
101427.61
101420.42
101415.18
101411.41
101408.56
101406.74
101406.47
101833.26
101828.43
101822.59
101815.93
101808.3
101799.52
101789.43
101777.89
101764.82
101750.13
101733.58
101714.02
101695.3
101675.99
101648.62
101621.25
101595.92
101570.04
101543.46
101519.21
101497.42
101478.47
101462.94
101449.92
101439.07
101430.28
101423.5
101418.59
101414.83
101412.31
101411.83
101803.5
101799.74
101795.21
101790.05
101784.16
101777.4
101769.65
101760.78
101750.69
101739.27
101726.62
101713.24
101698.42
101679.6
101655.72
101630.58
101606.51
101583.51
101560.48
101537.12
101515.26
101494.88
101477.46
101463.1
101450.99
101440.79
101432.51
101426.37
101421.73
101418.49
101417.67
101776.57
101773.63
101770.06
101766.01
101761.38
101756.05
101749.9
101742.81
101734.6
101725.12
101714.14
101701.43
101686.8
101673.57
101661.99
101643.57
101619.01
101594.44
101572.46
101550.77
101530.27
101510.76
101492.24
101476.42
101463.18
101451.8
101442.2
101434.79
101429.26
101425.33
101424.02
101747.49
101745.2
101742.44
101739.31
101735.74
101731.63
101726.89
101721.42
101715.11
101707.84
101699.5
101689.97
101679.13
101666.6
101653.89
101642.64
101628.26
101607.91
101584.83
101562.45
101542.23
101524.31
101506.65
101489.75
101475.31
101462.98
101452.44
101443.79
101437.37
101432.81
101430.9
101721.91
101720.14
101718
101715.58
101712.81
101709.62
101705.93
101701.67
101696.75
101691.06
101684.48
101676.88
101668.19
101658.46
101647.2
101633.08
101619.54
101609.78
101596.29
101575.66
101553.81
101535.07
101518.69
101502.26
101487.07
101474.01
101462.91
101453.32
101446.01
101440.9
101438.38
101695.78
101694.44
101692.82
101691
101688.91
101686.51
101683.73
101680.52
101676.8
101672.51
101667.56
101661.87
101655.32
101647.75
101639.21
101630.2
101619.31
101605.93
101593.95
101582.18
101564.62
101545.09
101528.09
101512.99
101498.29
101484.87
101473.32
101463.23
101455.13
101449.51
101446.46
101673.33
101672.32
101671.11
101669.74
101668.17
101666.36
101664.26
101661.83
101659.01
101655.73
101651.92
101647.5
101642.38
101636.5
101629.8
101622.17
101613.77
101603.85
101590.69
101579.47
101570.72
101554.53
101536.84
101522.3
101508.81
101495.63
101483.61
101473.25
101464.64
101458.56
101455.12
101651.12
101650.37
101649.47
101648.45
101647.28
101645.92
101644.34
101642.5
101640.36
101637.89
101635.02
101631.7
101627.88
101623.5
101618.44
101612.52
101605.49
101597.51
101589.89
101580.36
101570.07
101561.39
101546.17
101530.95
101518.23
101505.76
101493.68
101483.2
101474.4
101467.97
101464.26
101632.4
101631.84
101631.19
101630.45
101629.61
101628.64
101627.52
101626.23
101624.73
101622.99
101620.96
101618.58
101615.77
101612.45
101608.54
101604.05
101599.05
101593.39
101586.5
101578.91
101569.71
101560.93
101552.26
101538.64
101526.01
101514.51
101503.18
101492.91
101484.2
101477.58
101473.68
101616.88
101616.51
101616.07
101615.57
101615
101614.34
101613.56
101612.66
101611.6
101610.37
101608.93
101607.24
101605.26
101602.93
101600.21
101596.95
101593.04
101588.4
101582.73
101576.42
101569.74
101561.28
101553.03
101543.87
101532.55
101522.18
101511.86
101502.19
101493.76
101487.15
101483.11
101604.84
101604.54
101604.19
101603.8
101603.35
101602.82
101602.21
101601.51
101600.68
101599.7
101598.55
101597.2
101595.61
101593.7
101591.38
101588.6
101585.31
101581.46
101577.25
101572.5
101566.84
101560.7
101554.29
101547.81
101538.83
101528.9
101519.62
101510.74
101502.71
101496.24
101492.22
101594.31
101594.04
101593.72
101593.37
101592.95
101592.47
101591.91
101591.26
101590.5
101589.61
101588.58
101587.37
101585.97
101584.36
101582.56
101580.52
101578.19
101575.5
101572.26
101568.3
101563.67
101558.37
101552.47
101547.66
101542.45
101534.3
101525.99
101517.81
101510.41
101504.37
101500.59
101581.91
101581.79
101581.64
101581.47
101581.27
101581.04
101580.77
101580.45
101580.08
101579.64
101579.11
101578.48
101577.71
101576.78
101575.65
101574.3
101572.68
101570.74
101568.43
101565.68
101562.47
101558.8
101554.76
101548.68
101541.65
101535.72
101528.87
101521.78
101515.02
101509.35
101505.85
100492.69
100478.98
100469.83
100460.17
100448.85
100440.82
100442.29
100455.2
100476.53
100510.44
100555.9
100611.33
100675.19
100744.94
100817.92
100897.56
100966.82
101039.51
101084.58
101131.29
101172.86
101207.92
101237.99
101263.26
101284.66
101302.11
101316.48
101327.79
101336.59
101342.28
101345.98
100504.89
100489.46
100469.05
100451.66
100438.15
100432.08
100437.98
100456.35
100485.1
100524.67
100573.97
100631.74
100696.53
100765.57
100836.99
100913.29
100981.39
101047.59
101087.8
101137.09
101177.77
101212.02
101241.35
101266
101286.9
101303.94
101318
101329.07
101337.71
101343.28
101346.9
100468.13
100443.07
100418.71
100403.59
100397.97
100402.04
100417.56
100445.12
100481.38
100527.15
100581.35
100642.64
100709.59
100779.31
100851.08
100925.12
100994.44
101055.09
101093.59
101143.51
101182.89
101216.23
101244.77
101268.79
101289.17
101305.79
101319.53
101330.36
101338.83
101344.29
101347.81
100407.83
100385.67
100367.99
100360.53
100362.83
100375.19
100398.79
100433.3
100476.22
100527.66
100586.34
100650.87
100719.89
100790.57
100863.73
100935.93
101005.94
101062.46
101100.73
101149.9
101187.97
101220.42
101248.19
101271.58
101291.44
101307.65
101321.07
101331.66
101339.96
101345.3
101348.74
100328.73
100314.32
100306.15
100309.24
100322.62
100345.93
100379.35
100421.95
100472.04
100529.18
100592.11
100659.61
100730.46
100801.99
100876.66
100947.83
101016.57
101069.4
101108.19
101156.21
101193.03
101224.59
101251.6
101274.37
101293.72
101309.52
101322.63
101332.97
101341.1
101346.32
101349.7
100234.72
100232.42
100238.04
100255.19
100281.93
100317.32
100361.02
100412.07
100469.25
100531.87
100598.8
100669.04
100741.46
100813.69
100889.7
100960.48
101026.08
101075.57
101115.76
101162.41
101198.04
101228.74
101255
101277.16
101296.01
101311.4
101324.19
101334.3
101342.24
101347.35
101350.66
100126.48
100142.66
100166.67
100200.51
100241.96
100289.96
100344.13
100403.71
100467.74
100535.51
100606.13
100678.85
100752.59
100825.36
100902.26
100972.82
101035.62
101081.52
101123.43
101168.51
101203.02
101232.85
101258.39
101279.94
101298.29
101313.28
101325.76
101335.63
101343.4
101348.38
101351.64
100016.1
100053.73
100097.41
100148.4
100204.63
100265.05
100329.45
100397.23
100467.65
100540.14
100614.08
100688.99
100763.77
100837.15
100914.42
100984.22
101045.57
101087.87
101131.13
101174.5
101207.95
101236.93
101261.75
101282.71
101300.57
101315.17
101327.34
101336.96
101344.56
101349.42
101352.62
99911.882
99970.758
100033.2
100100.9
100171.43
100243.62
100317.62
100392.95
100469.13
100545.82
100622.68
100699.44
100775.11
100850.01
100926.57
100994.52
101055.1
101094.93
101138.77
101180.4
101212.84
101240.98
101265.1
101285.47
101302.84
101317.05
101328.91
101338.3
101345.73
101350.47
101353.6
99818.966
99898.134
99976.975
100060.41
100144.11
100226.63
100309.16
100391.16
100472.34
100552.62
100631.93
100710.24
100786.74
100863.32
100938.5
101004.82
101063.83
101102.54
101146.32
101186.21
101217.68
101244.99
101268.41
101288.21
101305.1
101318.94
101330.49
101339.65
101346.9
101351.52
101354.59
99740.7
99837.022
99932.878
100029.56
100123.97
100214.84
100304.65
100392.1
100477.36
100560.54
100641.84
100721.49
100799.23
100876.79
100949.58
101015.04
101071.95
101110.45
101153.71
101191.93
101222.47
101248.97
101271.71
101290.93
101307.36
101320.81
101332.07
101341
101348.08
101352.58
101355.58
99684.944
99794.993
99902.881
100008.49
100110.6
100209.27
100304.73
100396.11
100484.36
100569.74
100652.63
100733.57
100812.58
100888.2
100959.43
101025.25
101079.8
101118.52
101160.96
101197.58
101227.21
101252.9
101274.97
101293.63
101309.6
101322.69
101333.65
101342.35
101349.26
101353.64
101356.58
99656.375
99774.327
99888.587
99999.538
100106.69
100209.76
100309.07
100403.89
100494.01
100580.86
100664.89
100746.68
100823.89
100897.46
100969.76
101034.74
101087.64
101126.67
101168.07
101203.16
101231.88
101256.78
101278.19
101296.31
101311.82
101324.55
101335.22
101343.69
101350.45
101354.71
101357.58
99655.312
99775.982
99891.311
100003.49
100112.43
100217.43
100318.91
100415.96
100507.56
100594.85
100678.49
100757.7
100833.67
100907.64
100979.65
101043.66
101095.73
101134.84
101175.02
101208.67
101236.5
101260.62
101281.38
101298.96
101314.03
101326.41
101336.78
101345.04
101351.63
101355.77
101358.58
99667.973
99792.815
99908.81
100020.37
100128.74
100233.69
100335.44
100431.62
100522.58
100607.88
100687.95
100766.69
100844.97
100918.02
100989.14
101053.11
101104.1
101143.03
101181.81
101214.1
101241.04
101264.4
101284.53
101301.58
101316.22
101328.25
101338.34
101346.38
101352.81
101356.84
101359.59
99688.339
99814.898
99932.392
100044.26
100151.53
100254.43
100353.66
100445.11
100531.27
100616.17
100699.59
100779.25
100856.76
100928.32
100998.56
101062.83
101112.61
101151.2
101188.44
101219.44
101245.52
101268.13
101287.64
101304.17
101318.38
101330.08
101339.89
101347.72
101353.99
101357.91
101360.6
99755.436
99864.346
99968.281
100071.69
100173.65
100271.86
100364.32
100455.65
100546.71
100631.74
100713.81
100792.59
100868.68
100938.56
101007.92
101072.39
101121.15
101159.28
101194.89
101224.7
101249.92
101271.8
101290.7
101306.72
101320.52
101331.89
101341.43
101349.05
101355.17
101358.99
101361.61
99894.695
99978.453
100056.88
100138.8
100224.39
100310.83
100395.49
100481.81
100568.25
100649.9
100729.15
100806.19
100880.72
100948.82
101017.2
101081.83
101129.66
101167.23
101201.2
101229.87
101254.25
101275.41
101293.71
101309.24
101322.64
101333.68
101342.95
101350.37
101356.35
101360.06
101362.62
100027.57
100096.96
100157.45
100221.16
100290.13
100362.44
100436.05
100513.61
100593.13
100669.74
100745.36
100820.12
100892.88
100959.16
101026.37
101091.22
101138.09
101175.02
101207.39
101234.95
101258.5
101278.96
101296.67
101311.72
101324.72
101335.45
101344.46
101351.68
101357.51
101361.13
101363.64
100178.44
100228.28
100268.08
100312.41
100363.78
100420.37
100481.54
100549.36
100620.51
100691.27
100762.46
100834.36
100905.06
100969.58
101035.45
101100.6
101146.4
101182.64
101213.45
101239.93
101262.66
101282.43
101299.57
101314.14
101326.76
101337.19
101345.94
101352.98
101358.68
101362.19
101364.65
100348.46
100375.32
100391.59
100413.93
100445.26
100484
100532.69
100589.02
100650.18
100714.48
100780.44
100848.8
100917.15
100980.06
101044.46
101109.75
101154.49
101189.97
101219.33
101244.76
101266.68
101285.79
101302.38
101316.5
101328.76
101338.89
101347.41
101354.27
101359.83
101363.26
101365.67
100538.05
100537.93
100528.67
100526.71
100535.36
100556.88
100591.32
100632.92
100683.61
100740.46
100800.23
100864.15
100929.6
100990.83
101053.43
101118.22
101162.08
101196.7
101224.92
101249.38
101270.54
101289.02
101305.09
101318.8
101330.71
101340.57
101348.85
101355.54
101360.98
101364.33
101366.69
100754.43
100727.13
100693.46
100664.82
100649.66
100650.06
100663.9
100689.5
100726.41
100773.25
100825.05
100882.97
100944.25
101003.04
101062.92
101125.93
101168.81
101202.59
101230.21
101253.85
101274.29
101292.18
101307.75
101321.05
101332.63
101342.23
101350.29
101356.81
101362.12
101365.4
101367.72
100980.6
100940.98
100898.43
100848.79
100805.34
100776.47
100764.04
100767.95
100786.7
100817.46
100858.09
100907.65
100962.91
101018.24
101074.28
101134.33
101175.34
101208.44
101235.72
101258.51
101278.18
101295.42
101310.48
101323.34
101334.58
101343.9
101351.73
101358.08
101363.27
101366.46
101368.74
100531.9
100526.78
100516.97
100506.3
100496.28
100489.27
100488.45
100496.7
100513.01
100541.42
100581.22
100631.23
100689.92
100755.01
100823.03
100897.1
100961.38
101028.82
101078.84
101125.39
101168.44
101204.34
101235.08
101260.88
101282.73
101300.53
101315.17
101326.7
101335.66
101341.45
101345.18
100540.73
100539.38
100530.37
100519.33
100509.34
100503
100502.26
100506.98
100521.27
100547.36
100584.73
100632.49
100689.27
100753.02
100820.36
100893.72
100959.96
101025.3
101077.55
101122.92
101166.12
101202.23
101233.25
101259.32
101281.41
101299.42
101314.23
101325.89
101334.95
101340.82
101344.57
100537.43
100535.55
100528.91
100522.26
100515.85
100511.59
100511.85
100516.89
100530.9
100555.54
100590.97
100636.63
100691.39
100753.45
100819.73
100891.7
100958.67
101023.65
101076.08
101120.81
101164.16
101200.41
101231.61
101257.87
101280.15
101298.34
101313.29
101325.07
101334.22
101340.16
101343.7
100534.41
100533.04
100529.42
100525.78
100522.44
100520.58
100522.26
100528.58
100542.63
100566.07
100599.62
100643.11
100695.64
100755.67
100820.43
100890.32
100957.17
101021.63
101074.04
101118.35
101161.99
101198.43
101229.84
101256.32
101278.79
101297.17
101312.27
101324.19
101333.43
101339.45
101342.72
100533.32
100533.83
100532.56
100530.82
100529.4
100529.44
100532.56
100540.08
100554.3
100576.87
100608.84
100650.32
100700.67
100758.59
100821.65
100889.11
100955.58
101019.42
101071.68
101115.66
101159.57
101196.23
101227.89
101254.61
101277.3
101295.9
101311.17
101323.23
101332.57
101338.68
101341.91
100532.19
100534.32
100534.87
100534.93
100535.31
100537.12
100541.75
100550.47
100565.11
100587.2
100617.94
100657.67
100706.01
100761.87
100823.15
100888.06
100953.86
101017.4
101069.24
101112.88
101157.04
101193.9
101225.81
101252.78
101275.7
101294.52
101309.98
101322.19
101331.66
101337.86
101341.22
100530.11
100533.4
100535.51
100537.4
100539.71
100543.43
100549.74
100559.8
100575.11
100597.1
100626.96
100665.21
100711.69
100765.55
100825
100887.38
100952.53
101015.64
101067.16
101110.04
101154.46
101191.5
101223.65
101250.86
101274.02
101293.07
101308.72
101321.1
101330.68
101336.99
101340.43
100527.28
100531.34
100534.92
100538.6
100542.91
100548.63
100556.76
100568.31
100584.53
100606.71
100635.99
100673.02
100717.81
100769.74
100827.32
100887.52
100951.84
101013.78
101065.54
101107.28
101151.88
101189.06
101221.42
101248.87
101272.26
101291.55
101307.39
101319.94
101329.65
101336.06
101339.35
100524.1
100529.1
100533.82
100539.06
100545.27
100553.02
100563.04
100576.2
100593.54
100616.16
100645.14
100681.16
100724.44
100774.5
100830.21
100888.67
100951.21
101011.56
101064.02
101104.69
101149.29
101186.57
101219.13
101246.81
101270.42
101289.95
101305.99
101318.71
101328.55
101335.07
101338.3
100520.05
100526.28
100532.28
100539.08
100547.18
100556.93
100568.88
100583.73
100602.32
100625.59
100654.49
100689.73
100731.63
100779.92
100833.72
100890.54
100950.7
101009.71
101062.42
101102.26
101146.71
101184.05
101216.79
101244.67
101268.51
101288.27
101304.51
101317.41
101327.39
101334.02
101337.18
100515.98
100522.78
100529.44
100538.41
100548.77
100560.66
100574.61
100591.23
100611.18
100635.23
100664.21
100698.82
100739.47
100786.05
100837.93
100893.05
100951.16
101008.58
101060.74
101100.04
101144.16
101181.51
101214.39
101242.47
101266.51
101286.5
101302.95
101316.03
101326.15
101332.9
101336.12
100511.24
100519.53
100528.45
100538.97
100551.05
100564.91
100580.83
100599.19
100620.5
100645.37
100674.51
100708.6
100748.07
100792.98
100842.9
100896.19
100952.38
101008.06
101059.28
101098.16
101141.68
101178.97
101211.95
101240.2
101264.43
101284.66
101301.3
101314.57
101324.83
101331.71
101335.04
100507.8
100517.65
100528.8
100540.9
100554.71
100570.46
100588.24
100608.23
100630.8
100656.43
100685.71
100719.27
100757.58
100800.81
100848.72
100900.06
100954.21
101007.57
101057.9
101096.86
101139.3
101176.46
101209.49
101237.88
101262.29
101282.73
101299.57
101313.03
101323.44
101330.45
101333.88
100507.49
100518.15
100530.77
100544.74
100560.52
100578.18
100597.67
100619.08
100642.69
100668.89
100698.17
100731.1
100768.18
100809.68
100855.5
100904.74
100956.68
101007.69
101056.62
101095.91
101137.04
101174.01
101207.03
101235.53
101260.08
101280.72
101297.77
101311.41
101321.97
101329.11
101332.64
100512.04
100523.55
100537.47
100553.05
100570.44
100589.57
100610.31
100632.7
100656.93
100683.33
100712.32
100744.41
100780.1
100819.73
100863.35
100910.32
100959.87
101008.69
101055.85
101095.25
101134.94
101171.65
101204.59
101233.14
101257.81
101278.64
101295.88
101309.71
101320.42
101327.7
101331.3
100525.3
100537.27
100551.86
100568.1
100586.35
100606.18
100627.43
100650.1
100674.34
100700.38
100728.62
100759.52
100793.56
100831.13
100872.36
100916.88
100963.84
101010.45
101055.67
101095
101133.03
101169.43
101202.2
101230.75
101255.5
101276.49
101293.9
101307.92
101318.78
101326.2
101329.88
100550.97
100561.95
100575.16
100591.88
100610.1
100629.58
100650.31
100672.32
100695.68
100720.64
100747.54
100776.77
100808.81
100844.04
100882.68
100924.5
100968.56
101012.66
101056.43
101095.26
101131.39
101167.39
101199.88
101228.37
101253.17
101274.29
101291.86
101306.04
101317.06
101324.61
101328.38
100585.02
100596.6
100611.56
100626.74
100643.02
100660.71
100679.71
100699.94
100721.48
100744.53
100769.39
100796.41
100826.01
100858.59
100894.38
100933.25
100974.13
101015.64
101059.14
101096.15
101130.14
101165.6
101197.67
101226.01
101250.82
101272.03
101289.74
101304.09
101315.25
101322.94
101326.79
100632.22
100643.91
100656.74
100669.7
100683.68
100698.9
100715.3
100732.88
100751.76
100772.15
100794.31
100818.55
100845.28
100874.87
100907.57
100943.28
100981.08
101020.11
101061.45
101097.1
101129.59
101164.1
101195.6
101223.72
101248.47
101269.73
101287.56
101302.05
101313.35
101321.18
101325.12
100687.8
100697.39
100707.94
100718.72
100730.19
100742.57
100755.92
100770.35
100786.02
100803.18
100822.11
100843.13
100866.6
100892.89
100922.25
100954.67
100989.46
101025.66
101063.66
101098.31
101129.48
101162.93
101193.73
101221.5
101246.16
101267.4
101285.32
101299.93
101311.37
101319.33
101323.36
100746.29
100753.84
100762.54
100771.24
100780.21
100789.73
100799.96
100811.05
100823.27
100836.92
100852.32
100869.8
100889.74
100912.51
100938.37
100967.37
100999
101032.32
101067.24
101100.41
101129.71
101162.09
101192.09
101219.42
101243.9
101265.06
101283.03
101297.75
101309.3
101317.39
101321.51
100804.12
100810.18
100817.27
100824.13
100830.94
100837.93
100845.28
100853.24
100862.13
100872.3
100884.13
100898
100914.33
100933.48
100955.76
100981.25
101009.6
101039.99
101072.2
101102.84
101130.56
101161.73
101190.76
101217.5
101241.7
101262.72
101280.71
101295.5
101307.16
101315.36
101319.57
100859.52
100864.19
100869.79
100875.09
100880.09
100884.95
100889.87
100895.12
100901.04
100908.04
100916.54
100926.97
100939.79
100955.41
100974.14
100996.14
101021.17
101048.51
101077.72
101106.04
101132.37
101161.79
101189.72
101215.8
101239.63
101260.42
101278.37
101293.21
101304.94
101313.24
101317.53
100911.3
100914.48
100918.56
100922.39
100925.84
100928.99
100931.97
100935.03
100938.51
100942.84
100948.45
100955.83
100965.47
100977.8
100993.19
101011.82
101033.57
101057.79
101083.52
101109
101135.11
101162.66
101189.07
101214.45
101237.68
101258.18
101276.03
101290.87
101302.65
101311.03
101315.41
100957.5
100959.33
100961.97
100964.45
100966.59
100968.4
100969.95
100971.43
100973.13
100975.44
100978.8
100983.7
100990.65
101000.12
101012.5
101028.03
101046.66
101067.8
101090.42
101114.23
101138.52
101164.37
101189.11
101213.17
101235.91
101256.03
101273.71
101288.5
101300.31
101308.75
101313.19
100996.81
100998.43
100999.92
101001.22
101002.26
101003
101003.46
101003.78
101004.21
101005.09
101006.81
101009.86
101014.72
101021.86
101031.69
101044.48
101060.26
101078.62
101098.82
101120.97
101142.83
101165.58
101189.01
101212.51
101234.39
101254.02
101271.44
101286.14
101297.93
101306.4
101310.9
101027.25
101027.72
101029.64
101031.5
101032.39
101032.35
101032.04
101031.61
101031.25
101031.25
101031.97
101033.81
101037.21
101042.62
101050.42
101060.92
101074.2
101090.03
101107.81
101127.5
101146.54
101167.52
101190.4
101212.19
101232.88
101252.18
101269.24
101283.78
101295.51
101303.99
101308.53
101056.5
101055.6
101054.95
101054.43
101054.49
101054.95
101054.87
101054.31
101053.81
101053.62
101054.02
101055.32
101057.91
101062.17
101068.47
101077.12
101088.27
101101.79
101117.21
101134.34
101151.56
101170.48
101191.26
101211.95
101231.95
101250.53
101267.16
101281.47
101293.09
101301.54
101306.1
101076.69
101076.36
101076.11
101075.58
101074.77
101073.91
101073.3
101072.98
101072.81
101072.9
101073.44
101074.7
101076.95
101080.53
101085.77
101092.98
101102.34
101113.81
101127.1
101142.08
101157.06
101173.28
101192.62
101212.65
101231.43
101248.99
101265.18
101279.21
101290.68
101299.05
101303.61
101090.9
101090.66
101090.48
101090.26
101090.09
101090.02
101090.02
101089.8
101089.69
101090.2
101091.14
101092.59
101094.77
101097.96
101102.45
101108.52
101116.35
101126
101137.22
101149.85
101162.22
101177.29
101195.5
101213.66
101230.93
101247.59
101263.37
101277.04
101288.3
101296.56
101301.08
101103.45
101103.59
101103.74
101103.82
101103.95
101104.22
101104.66
101105.13
101105.72
101106.71
101108.01
101109.69
101111.89
101114.82
101118.71
101123.8
101130.31
101138.31
101147.64
101158.1
101169.05
101182.35
101198.26
101214.56
101231.04
101246.83
101261.74
101274.98
101285.96
101294.07
101298.54
101116.53
101116.99
101117.47
101117.93
101118.49
101119.11
101119.85
101120.84
101122.08
101123.46
101124.97
101126.74
101128.85
101131.46
101134.75
101138.92
101144.21
101150.73
101158.41
101167.14
101176.74
101187.57
101201.31
101216.21
101231.43
101246.23
101260.34
101273.06
101283.69
101291.62
101296
101131.07
101131.68
101132.38
101133.09
101133.91
101134.9
101135.87
101137.27
101139.15
101140.73
101142.3
101143.98
101145.85
101148
101150.62
101153.89
101158.01
101163.13
101169.27
101176.34
101184.28
101193.01
101204.93
101218.28
101232.22
101246.08
101259.19
101271.31
101281.53
101289.21
101293.48
101148.11
101148.7
101149.42
101150.12
101150.86
101151.76
101153.24
101155.09
101156.68
101158.15
101159.64
101161.12
101162.63
101164.26
101166.15
101168.5
101171.49
101175.3
101179.98
101185.49
101191.84
101198.83
101209.04
101220.72
101233.33
101246.09
101258.37
101269.77
101279.49
101286.89
101291.02
101167.25
101167.64
101168.19
101168.69
101169.47
101170.57
101171.73
101172.92
101174.13
101175.34
101176.52
101177.63
101178.7
101179.76
101180.95
101182.42
101184.38
101187.01
101190.4
101194.53
101199.48
101205.01
101213.53
101223.67
101234.83
101246.47
101257.91
101268.49
101277.62
101284.67
101288.63
101187.08
101187.06
101187.34
101187.86
101188.71
101189.57
101190.2
101190.83
101191.48
101192.12
101192.7
101193.21
101193.66
101194.09
101194.59
101195.29
101196.37
101198
101200.31
101203.31
101207.05
101211.42
101218.3
101227.03
101236.8
101247.4
101257.64
101267.33
101275.91
101282.6
101286.37
101204.33
101204.04
101204.05
101204.18
101204.33
101204.99
101206.25
101206.99
101207.05
101207.04
101207.02
101206.94
101206.8
101206.67
101206.6
101206.71
101207.12
101208.02
101209.51
101211.64
101214.41
101217.85
101223.23
101230.66
101239.12
101248.3
101257.65
101266.59
101274.45
101280.7
101284.26
101219.61
101219.21
101219.03
101218.79
101218.25
101217.42
101216.68
101216.74
101217.55
101218.34
101218.51
101218.06
101217.52
101217.02
101216.62
101216.38
101216.42
101216.88
101217.87
101219.39
101221.45
101224.12
101228.27
101234.47
101241.62
101249.7
101258.37
101266.08
101273.18
101279.03
101282.33
101230.87
101230.58
101230.38
101230.18
101229.88
101229.4
101228.67
101227.66
101226.55
101225.62
101225.31
101225.22
101224.86
101224.52
101224.25
101224.12
101224.2
101224.58
101225.34
101226.52
101228.1
101230.18
101233.4
101238.47
101244.53
101251.6
101258.89
101265.82
101272.31
101277.6
101280.63
101234.87
101234.77
101234.65
101234.5
101234.31
101234.09
101233.85
101233.57
101233.19
101232.61
101231.87
101231.34
101231.08
101230.86
101230.73
101230.76
101231
101231.47
101232.18
101233.16
101234.41
101236.04
101238.5
101242.56
101247.6
101253.39
101259.55
101266
101271.9
101276.46
101279.2
101237.41
101237.5
101237.55