/*--------------------------------*- C++ -*----------------------------------*\
| =========                 |                                                 |
| \\      /  F ield         | OpenFOAM: The Open Source CFD Toolbox           |
|  \\    /   O peration     | Version:  2406                                  |
|   \\  /    A nd           | Website:  www.openfoam.com                      |
|    \\/     M anipulation  |                                                 |
\*---------------------------------------------------------------------------*/
FoamFile
{
    version     2.0;
    format      ascii;
    arch        "LSB;label=32;scalar=64";
    class       volScalarField;
    location    "0.024";
    object      Ma;
}
// * * * * * * * * * * * * * * * * * * * * * * * * * * * * * * * * * * * * * //

dimensions      [0 0 0 0 0 0 0];

internalField   nonuniform List<scalar> 
35803
(
0.15732806
0.15841291
0.1594457
0.160518
0.16157772
0.16261132
0.16361047
0.16455304
0.16561243
0.16690255
0.16845601
0.17004171
0.17175078
0.17355486
0.17539951
0.17692045
0.17746507
0.17594511
0.17214021
0.16920215
0.16766627
0.16627902
0.16447279
0.16337879
0.16196651
0.16105266
0.15949952
0.15904014
0.15801618
0.15755918
0.1501899
0.15440327
0.15560993
0.15688034
0.15817412
0.15947099
0.16075771
0.16202475
0.16327345
0.1646004
0.16609549
0.16776728
0.16948768
0.17130286
0.17318084
0.17506617
0.17658483
0.17706359
0.1754246
0.17161865
0.16886049
0.16743432
0.16609643
0.16430418
0.1632546
0.16187702
0.16097026
0.15942995
0.15898655
0.15798919
0.15753209
0.15018437
0.15070415
0.15210663
0.15368254
0.15528431
0.1568869
0.15848282
0.16006451
0.16163578
0.16325463
0.16499298
0.16685003
0.16873952
0.17068844
0.1726633
0.174608
0.17614043
0.17657162
0.17482255
0.17104748
0.16849954
0.16718444
0.16590312
0.16412979
0.16312321
0.16179897
0.16088998
0.15935942
0.15893331
0.15795984
0.15750375
0.15017773
0.14693014
0.14852053
0.15034186
0.15222073
0.1541166
0.15601788
0.15791487
0.15980566
0.16172437
0.1637192
0.1657899
0.16786734
0.16996587
0.17205024
0.17406044
0.17560334
0.17597686
0.17410688
0.17039126
0.16808721
0.1668932
0.16567342
0.16394613
0.16297202
0.16169501
0.16079902
0.15928273
0.15887562
0.15791477
0.15747154
0.15016331
0.14315277
0.1449151
0.14693342
0.14904773
0.15121004
0.15340041
0.15560364
0.1578091
0.16002921
0.16228863
0.16458455
0.16686298
0.16912417
0.17132888
0.17340945
0.17495711
0.17525594
0.17325214
0.16964142
0.16762398
0.16655932
0.1654094
0.16375962
0.16280479
0.16155208
0.16070594
0.15920842
0.15881189
0.15786003
0.15743436
0.15015832
0.13947136
0.14136914
0.14353689
0.14583858
0.14822673
0.15067417
0.15315856
0.15565975
0.15817084
0.160695
0.16322218
0.16570946
0.16814267
0.17047608
0.1726303
0.17417511
0.17437716
0.17223206
0.16879308
0.16710212
0.16617598
0.16510375
0.16354287
0.16260975
0.16140777
0.160601
0.15913597
0.15873989
0.15779488
0.15739143
0.15014917
0.13602255
0.13800568
0.14026953
0.142703
0.14526275
0.14791711
0.15063775
0.15339627
0.15617055
0.1589453
0.16170007
0.16439544
0.16700323
0.16946822
0.1716945
0.1732241
0.17329982
0.1710115
0.16784946
0.16651469
0.1657365
0.16475146
0.16327095
0.16237625
0.16125803
0.16047291
0.15906598
0.15865742
0.15771953
0.15734175
0.15013988
0.13291414
0.13496795
0.13728303
0.13978602
0.14244783
0.14523888
0.14812896
0.15108477
0.15407357
0.15706524
0.16002737
0.16291682
0.16569094
0.16828118
0.17056858
0.17206334
0.17197136
0.16954186
0.16682379
0.16585124
0.16523249
0.1643459
0.16295972
0.16210556
0.16106927
0.1603209
0.15898108
0.15856175
0.15763276
0.15728408
0.15012984
0.13043087
0.13247113
0.13476084
0.1372514
0.13992693
0.14276485
0.14573725
0.14880947
0.15194247
0.15509521
0.15822351
0.16127545
0.16419252
0.16688824
0.16921247
0.17063789
0.17032006
0.16780855
0.16573465
0.16510175
0.16465398
0.16388027
0.1626025
0.16179154
0.16085884
0.16015103
0.15887192
0.15844963
0.15752881
0.15721695
0.15011835
0.12866022
0.13061134
0.13280317
0.13520448
0.13780932
0.14060341
0.14356398
0.14665897
0.14984829
0.15308514
0.15631597
0.15947785
0.16249491
0.16525734
0.16757355
0.16886327
0.16824945
0.1658677
0.16458496
0.16425853
0.16399014
0.16334578
0.16219354
0.16143086
0.16061437
0.15994799
0.15872507
0.15831763
0.15740415
0.15713857
0.15010451
0.1276063
0.12942291
0.13146622
0.13371614
0.1361752
0.13883876
0.14169242
0.14471052
0.14785681
0.15108409
0.15433313
0.1575302
0.16058065
0.16334424
0.16557119
0.16661185
0.16564817
0.1638332
0.16335453
0.1633141
0.16323141
0.1627315
0.16172349
0.16101941
0.16032728
0.15969434
0.15854911
0.15816424
0.15727378
0.1570468
0.1500868
0.12722639
0.12886624
0.13072472
0.13278134
0.13503767
0.13749627
0.14015564
0.14300088
0.14600361
0.14912003
0.1522885
0.15542546
0.15841516
0.16107597
0.16307268
0.16367975
0.16262504
0.16188781
0.1620264
0.16226328
0.16237561
0.16202177
0.16118159
0.16055383
0.15999856
0.15940586
0.15834831
0.15798422
0.15713697
0.15693934
0.1500625
0.12750863
0.12890082
0.13049468
0.1322865
0.13428124
0.13648035
0.13888326
0.14148312
0.14425848
0.1471692
0.15015231
0.1531142
0.15591287
0.15830646
0.15983227
0.15993675
0.15966227
0.16000717
0.16059984
0.16110584
0.16140675
0.16121647
0.16055901
0.16002972
0.15961437
0.15907205
0.15811385
0.15776984
0.15698482
0.15681395
0.15002756
0.12814557
0.12930477
0.13063336
0.13212642
0.13380224
0.13568
0.13776744
0.14005797
0.14252733
0.1451317
0.14780057
0.15042261
0.15282529
0.15472839
0.15571641
0.1560688
0.15706754
0.1582078
0.15909651
0.15983914
0.16032343
0.16031461
0.15984814
0.15944728
0.15917663
0.15869657
0.15784199
0.15752119
0.15680613
0.15666874
0.14997777
0.12872966
0.1296524
0.13074048
0.13198604
0.13338489
0.13494362
0.13667246
0.13857039
0.14062215
0.14278801
0.14500184
0.1471417
0.14903165
0.15043124
0.15158009
0.15320174
0.15496203
0.15637405
0.15753976
0.15848362
0.1591301
0.1593265
0.15904687
0.15880762
0.15867761
0.1582736
0.15752297
0.15722998
0.1565965
0.15650109
0.14991112
0.12865777
0.12925473
0.12999334
0.13091071
0.13203325
0.13335351
0.13485235
0.13650892
0.13823378
0.14000021
0.14176536
0.14353277
0.14530643
0.14706905
0.14899218
0.15106382
0.15292668
0.15456859
0.15594063
0.15706587
0.15786142
0.15824474
0.15816515
0.15810835
0.1581225
0.157793
0.15715134
0.15689755
0.15635345
0.15630489
0.14982945
0.12964577
0.13008817
0.13059715
0.13117658
0.13185431
0.13269244
0.13371751
0.13492812
0.1363365
0.13783088
0.13943056
0.14119385
0.14309384
0.145197
0.14717032
0.14903931
0.15100736
0.15274749
0.15430793
0.15560889
0.15653718
0.1571031
0.1572146
0.1573416
0.1575025
0.15724226
0.15672263
0.15651229
0.15606902
0.15606658
0.14973855
0.13156621
0.13196853
0.13243019
0.1329491
0.13351901
0.13412548
0.13474874
0.13538271
0.13613945
0.13721968
0.13859871
0.14019537
0.14180447
0.1437024
0.14572042
0.1475041
0.14927581
0.15097226
0.1526194
0.15410232
0.15517455
0.15591542
0.15622094
0.15650227
0.15679185
0.15662668
0.1562338
0.15606454
0.15573397
0.15576881
0.14964179
0.13283882
0.1331373
0.13348927
0.13390798
0.13441208
0.13502721
0.13577864
0.13664936
0.13748624
0.13829358
0.13920739
0.14019193
0.14134192
0.14278784
0.1445496
0.14652471
0.1480746
0.14957396
0.1511231
0.15261158
0.15381286
0.15470995
0.15518336
0.15559579
0.15600212
0.15594752
0.15568729
0.15557726
0.15533007
0.15542231
0.14948418
0.13531055
0.13552898
0.1357783
0.13605947
0.13637344
0.13671929
0.13709849
0.13752695
0.1380459
0.13868825
0.13947506
0.14052506
0.14164213
0.14253079
0.14377942
0.14535608
0.14717491
0.14876198
0.15014414
0.15137919
0.15253151
0.15353852
0.15413726
0.1546472
0.15515969
0.15522178
0.15509006
0.1550279
0.15484783
0.1549941
0.14938906
0.13684578
0.13701522
0.13721518
0.13745092
0.13773112
0.13806638
0.13846668
0.1389368
0.13947155
0.14005853
0.14068169
0.14128105
0.14196832
0.14283972
0.14361396
0.14474301
0.14606845
0.14776006
0.14941424
0.15058955
0.15151262
0.15249781
0.15319252
0.15370382
0.15428352
0.1544724
0.15444775
0.15443464
0.15428361
0.15447467
0.14926906
0.13926133
0.1393792
0.13951386
0.13966595
0.13983607
0.14002446
0.14023235
0.14046379
0.14072971
0.14105231
0.14146838
0.14203342
0.1427208
0.14347751
0.14423036
0.14471303
0.14563122
0.1467737
0.14818273
0.14976331
0.15080579
0.15167572
0.15236961
0.15283909
0.15341285
0.15368756
0.15377158
0.15381415
0.15366104
0.15378586
0.14913967
0.14072944
0.14082088
0.14092881
0.14105626
0.14120793
0.14138961
0.14160745
0.14186703
0.14217082
0.14251448
0.14288341
0.14325394
0.14363695
0.14409017
0.14468953
0.14536252
0.14578555
0.14648568
0.14744903
0.14858103
0.14986009
0.15100906
0.15163406
0.15199865
0.15257116
0.15287509
0.15304196
0.1531687
0.15302165
0.15312204
0.14900861
0.14282561
0.14288203
0.14294601
0.14301791
0.14309817
0.14318694
0.14328451
0.143392
0.14351247
0.14365417
0.14383482
0.14408612
0.14440923
0.14475891
0.14512939
0.1457177
0.14639749
0.14687079
0.14730291
0.14807996
0.14902375
0.15004854
0.1508673
0.15118065
0.15173124
0.15205788
0.15230774
0.15251395
0.15239421
0.15238621
0.14885787
0.14414085
0.14418215
0.14423153
0.14429051
0.14436138
0.14444729
0.14455312
0.14468774
0.14485432
0.14505
0.14526346
0.14546751
0.14565855
0.14587195
0.14611595
0.14630504
0.14667001
0.14723864
0.14769992
0.1480612
0.14874892
0.14947004
0.15005859
0.15042933
0.15093273
0.15130021
0.15158985
0.15185172
0.15174597
0.15166037
0.14865431
0.14592598
0.14594733
0.14597116
0.14599747
0.14602642
0.14605782
0.14609031
0.14611916
0.14614523
0.14617316
0.14621071
0.14627119
0.1463655
0.14649626
0.14667859
0.14693014
0.14715424
0.14744981
0.14800925
0.14847806
0.14884957
0.14929201
0.14961829
0.14974676
0.15021227
0.15062142
0.15087007
0.15120135
0.15105759
0.15108991
0.14856268
0.14690068
0.14691065
0.14692234
0.14693549
0.14695009
0.14696609
0.14698354
0.14700282
0.14702472
0.14705147
0.14708872
0.14714159
0.14720047
0.14725662
0.14731874
0.14743433
0.14766031
0.14792742
0.1482153
0.14859833
0.14892965
0.14924626
0.14939794
0.14925606
0.1495305
0.14999006
0.15014899
0.15056735
0.15039856
0.1506979
0.14851755
0.14802944
0.14803546
0.14804231
0.14804991
0.14805839
0.14806793
0.14807873
0.148091
0.14810474
0.14811918
0.14813083
0.14813625
0.14814941
0.1481809
0.14823342
0.14829418
0.14837376
0.14848181
0.14860181
0.1487421
0.1488335
0.14892298
0.1492469
0.14897988
0.14896582
0.14939602
0.14950821
0.14999543
0.14984704
0.1501724
0.14850499
0.148644
0.14864375
0.14864373
0.14864408
0.1486451
0.14864726
0.14865118
0.14865762
0.14866744
0.14868173
0.14870073
0.14871533
0.14872163
0.14872372
0.14872532
0.14872848
0.14875033
0.14878003
0.14882494
0.14889693
0.14890614
0.14883163
0.14900049
0.14876048
0.14861139
0.14898065
0.14902578
0.14944596
0.14941534
0.14977079
0.14850296
0.14899943
0.14899162
0.14898278
0.14897313
0.14896308
0.14895315
0.14894391
0.14893586
0.1489295
0.14892576
0.14892638
0.14893005
0.14892679
0.14891904
0.14891414
0.14891489
0.14891516
0.14891918
0.14896323
0.14903101
0.14917723
0.14891318
0.14893893
0.14866873
0.14844292
0.14874371
0.14868
0.1490448
0.14917098
0.14923166
0.14851564
0.14916971
0.1491588
0.14914665
0.14913363
0.14912022
0.14910693
0.14909416
0.14908208
0.14907058
0.1490592
0.14904738
0.14903529
0.1490245
0.14901557
0.14901154
0.14902097
0.14904845
0.14909863
0.14918463
0.14922898
0.1494171
0.14925525
0.14901781
0.14884247
0.14855748
0.14872126
0.14859653
0.1489891
0.14909858
0.14907326
0.14869444
0.016766126
0.031683956
0.057989371
0.091669694
0.1177
0.13358237
0.1431512
0.14977721
0.15508772
0.15970739
0.16386558
0.16767304
0.17118896
0.17444512
0.17745391
0.18015813
0.18251279
0.18403835
0.18425578
0.1820072
0.17709348
0.17293637
0.16990412
0.16781108
0.16572714
0.16403597
0.16193092
0.16111839
0.15996438
0.15881311
0.15040454
0.025535598
0.047352972
0.079919972
0.11021481
0.1288435
0.13947521
0.14646878
0.15195614
0.15671138
0.16099249
0.16490568
0.16851902
0.17187292
0.17499184
0.17788037
0.18047754
0.18271974
0.18410915
0.1841715
0.18172818
0.17677016
0.17272234
0.16975719
0.16769868
0.16563304
0.16396097
0.16185942
0.16106606
0.15992542
0.15878716
0.15039131
0.037398631
0.064876094
0.097146508
0.12041408
0.13403136
0.14241456
0.14848806
0.1535268
0.15799223
0.1620493
0.16577795
0.16923463
0.17245324
0.17545538
0.17824013
0.18074349
0.18288321
0.18415156
0.18407519
0.18145718
0.17647324
0.17253318
0.16962444
0.16759544
0.16554636
0.16389178
0.16179555
0.16101713
0.15988685
0.15875773
0.15037531
0.053262739
0.084446812
0.11168628
0.12857143
0.13847497
0.14513039
0.15041249
0.15503023
0.15921693
0.16305892
0.16661086
0.16991706
0.17300572
0.17589575
0.17858053
0.18099253
0.18302926
0.18417833
0.18396984
0.18117573
0.1761779
0.17234491
0.16948958
0.16749013
0.16545777
0.16382093
0.1617346
0.16097045
0.15984767
0.15872853
0.15035883
0.073086468
0.10227579
0.12247023
0.13430746
0.14179148
0.14738708
0.15214777
0.15644164
0.16038505
0.1640276
0.16741123
0.17057215
0.17353497
0.17631639
0.17890395
0.18122621
0.18315969
0.18419551
0.18385507
0.1808832
0.17588514
0.17216088
0.16935611
0.1673855
0.16536963
0.1637505
0.16167504
0.16092657
0.15980781
0.15869973
0.15034249
0.093453842
0.11610533
0.12999837
0.1385017
0.14449262
0.14939415
0.1537626
0.15777988
0.16150034
0.16495488
0.16817701
0.17119745
0.17403858
0.17671497
0.17920824
0.18144274
0.18327407
0.18420161
0.18372698
0.18058083
0.17559618
0.17198086
0.16922356
0.16728115
0.16528148
0.16367999
0.16161605
0.16088302
0.15976714
0.15867112
0.15032607
0.10976027
0.12569867
0.13527942
0.14173543
0.14680046
0.15122328
0.1552794
0.15905229
0.16256526
0.16584103
0.16890751
0.17179205
0.17451571
0.1770908
0.17949287
0.18164182
0.18337306
0.18419701
0.18358416
0.18026961
0.17531203
0.17180481
0.16909206
0.16717725
0.16519346
0.16360924
0.16155769
0.16083916
0.1597256
0.15864268
0.15031092
0.1215714
0.13224075
0.1391586
0.14439313
0.14886229
0.15292814
0.15671856
0.16026718
0.16358385
0.16668797
0.16960366
0.17235655
0.17496682
0.1774442
0.17975811
0.18182389
0.18345816
0.18418419
0.1834257
0.17995049
0.17503346
0.1716325
0.16896153
0.16707378
0.16510541
0.16353787
0.16149996
0.16079485
0.15968295
0.15861449
0.15029708
0.12930821
0.13677867
0.14219969
0.14670689
0.15076361
0.15454036
0.15809281
0.16143039
0.16455932
0.16749719
0.17026624
0.17289151
0.1753923
0.17777547
0.18000422
0.18198935
0.18352971
0.18416058
0.18325238
0.17962286
0.17476121
0.17146369
0.16883196
0.16697078
0.16501732
0.16346624
0.16144287
0.16074996
0.1596387
0.15858633
0.15028387
0.13460556
0.14025443
0.14479313
0.14881761
0.15255499
0.15607989
0.15941078
0.16254642
0.16549379
0.16826962
0.17089576
0.17339728
0.17579239
0.17808476
0.18023134
0.18213853
0.18358718
0.18412271
0.18306354
0.17928903
0.1744959
0.17129816
0.16870334
0.16686827
0.1649294
0.16339455
0.16138639
0.16070438
0.15959245
0.15855768
0.1502712
0.13852966
0.14313417
0.14712017
0.15079437
0.15426494
0.15755958
0.16067851
0.16361845
0.16638871
0.1690059
0.17149262
0.17387415
0.17616729
0.17837221
0.18043967
0.18227164
0.18362989
0.18407149
0.18286048
0.17895135
0.17423784
0.17113565
0.16857565
0.16676629
0.16484151
0.16332291
0.16133049
0.16065808
0.15954428
0.15852796
0.15025903
0.14171455
0.14568884
0.14929051
0.15268198
0.15591305
0.15898846
0.16190043
0.16464888
0.16724505
0.16970647
0.17205714
0.17432238
0.17651718
0.17863797
0.18062935
0.1823885
0.18365732
0.18400726
0.18264396
0.17861304
0.17398699
0.17097593
0.16844889
0.16666485
0.16475387
0.16325144
0.16127513
0.16061105
0.15949381
0.15849655
0.15024766
0.14451436
0.14806404
0.15136513
0.15450767
0.15751218
0.16037255
0.16307996
0.1656393
0.16806336
0.17037162
0.17258956
0.17474215
0.17684222
0.17888217
0.18080054
0.18248871
0.1836707
0.1839309
0.18241557
0.17827398
0.17374326
0.17081882
0.16832307
0.16656398
0.1646665
0.16318024
0.16122032
0.16056342
0.15944067
0.15846365
0.15023711
0.14711577
0.1503416
0.15338171
0.15628938
0.15907082
0.16171589
0.16421942
0.16659045
0.16884389
0.17100153
0.17309007
0.17513365
0.17714256
0.17910496
0.18095341
0.1825726
0.18367031
0.18384262
0.18217585
0.17793538
0.17350654
0.17066414
0.16819819
0.16646369
0.16457937
0.16310934
0.16116601
0.16051547
0.15938465
0.15842961
0.15022747
0.14962363
0.15257004
0.1553635
0.15803828
0.16059414
0.16302101
0.16531984
0.16750253
0.16958667
0.1715963
0.17355879
0.17549701
0.17741833
0.17930645
0.18108807
0.18263976
0.1836551
0.18374307
0.1819254
0.17759827
0.17327664
0.17051172
0.16807426
0.166364
0.16449264
0.16303878
0.16111217
0.1604675
0.15932604
0.15839537
0.15021815
0.15209648
0.1547778
0.15732447
0.15976085
0.16208464
0.16428919
0.16638136
0.16837535
0.17029158
0.1721559
0.17399579
0.17583231
0.17766961
0.17948678
0.1812046
0.18268915
0.18362544
0.18363352
0.18166438
0.17726403
0.1730533
0.17036142
0.16795128
0.16626493
0.16440624
0.16296864
0.16105879
0.16041975
0.15927096
0.15836234
0.15021033
0.15456823
0.15698149
0.15927214
0.16145984
0.16354288
0.16552045
0.16740339
0.16920835
0.17095831
0.17268023
0.17440108
0.17613962
0.17789652
0.17964607
0.18130293
0.18272018
0.18358085
0.18351432
0.18139366
0.176933
0.17283625
0.17021313
0.16782927
0.16616649
0.16432029
0.16289891
0.16100588
0.16037238
0.15922214
0.15833122
0.15020349
0.15705792
0.1591892
0.1612088
0.16313479
0.16496785
0.16671347
0.16838469
0.17000071
0.17158642
0.17316911
0.17477461
0.17641899
0.17809914
0.17978444
0.18138257
0.18273305
0.18352488
0.18338536
0.18111404
0.17660585
0.17262523
0.17006674
0.16770824
0.1660687
0.16423479
0.16282966
0.16095341
0.16032543
0.1591776
0.15830309
0.15019731
0.159573
0.16140155
0.16313204
0.16478235
0.16635693
0.16786588
0.16932355
0.17075136
0.17217533
0.17362228
0.17511631
0.17667043
0.17827754
0.17990208
0.18144391
0.18273139
0.18346244
0.18324668
0.18082628
0.17628324
0.17241998
0.16992215
0.1675882
0.16597157
0.16414979
0.16276088
0.1609013
0.16027891
0.15913344
0.15827759
0.15019171
0.16210893
0.16361166
0.16503488
0.16639672
0.16770585
0.16897445
0.17021782
0.17145902
0.17272436
0.1740394
0.17542605
0.17689393
0.17843182
0.17999913
0.1814876
0.18271602
0.18338952
0.18309855
0.18053123
0.17596574
0.17222023
0.1697793
0.16746917
0.16587511
0.16406531
0.16269262
0.16084959
0.16023277
0.15908973
0.15825306
0.15018695
0.16464925
0.16580561
0.16690628
0.16797004
0.1690089
0.17003528
0.17106503
0.17212225
0.17323271
0.1744201
0.17570367
0.17708947
0.17856207
0.18007541
0.1815125
0.1826877
0.18330864
0.18293987
0.18022968
0.17565382
0.17202567
0.16963813
0.16735117
0.16577933
0.16398136
0.16262488
0.16079825
0.16018703
0.15904641
0.1582292
0.15018288
0.16716744
0.16796359
0.16873192
0.16949273
0.17025937
0.17104393
0.17186246
0.17273945
0.1736995
0.17476395
0.175949
0.17725705
0.17866828
0.18012963
0.18151905
0.18264805
0.18322021
0.1827699
0.17992228
0.17534789
0.17183601
0.1694986
0.16723421
0.16568425
0.163898
0.16255772
0.16074731
0.1601417
0.15900348
0.15820636
0.15017979
0.16963022
0.17006096
0.17049582
0.17095411
0.17144986
0.17199545
0.17260716
0.17330889
0.17412379
0.17507048
0.17616186
0.17739663
0.17875014
0.18016108
0.18151129
0.18259693
0.18312317
0.1825886
0.17960982
0.17504825
0.17165095
0.16936068
0.16711831
0.16558988
0.16381525
0.16249114
0.16069672
0.16009679
0.15896089
0.15818402
0.15017771
0.17200042
0.17207019
0.17218216
0.17234302
0.17257257
0.17288441
0.17329604
0.17382881
0.17450457
0.17533923
0.1763421
0.1775079
0.17880552
0.18017119
0.18148971
0.18253305
0.18301542
0.18239495
0.17929334
0.17475513
0.17147019
0.16922436
0.1670035
0.16549625
0.16373313
0.16242518
0.1606465
0.16005229
0.15891855
0.15816204
0.15017651
0.17424703
0.1739737
0.17377255
0.17364725
0.17361925
0.1737054
0.17392592
0.17429731
0.17484083
0.17556981
0.17648938
0.17758948
0.17883289
0.18016471
0.18145248
0.18245642
0.18289759
0.18219072
0.17897407
0.17446877
0.17129342
0.16908963
0.16688981
0.16540338
0.16365162
0.16235988
0.16059671
0.16000819
0.15887633
0.15814019
0.15017613
0.17634262
0.17574898
0.17524905
0.17485339
0.17458161
0.17445523
0.17449359
0.17471229
0.17513152
0.17576174
0.17660254
0.17763707
0.17883634
0.18014194
0.18139854
0.18236709
0.1827693
0.1819764
0.17865313
0.17418931
0.17112038
0.1689565
0.16677725
0.16531128
0.16357076
0.16229527
0.16054741
0.15996455
0.15883401
0.15811416
0.15017651
0.17825652
0.17737109
0.17659732
0.17595073
0.17545375
0.17512851
0.17499557
0.17507275
0.17537516
0.17591381
0.17667696
0.17765226
0.17882173
0.18010024
0.18132836
0.18226517
0.1826305
0.18175298
0.178332
0.17391683
0.1709508
0.16882498
0.16666585
0.16522
0.16349059
0.16223141
0.16049868
0.15992139
0.15879155
0.15808616
0.15017755
0.17996653
0.17882289
0.17780415
0.1769304
0.17622807
0.17572082
0.17543118
0.17537627
0.17556962
0.17602134
0.17670989
0.17764552
0.17878669
0.1800379
0.18124215
0.18215083
0.18248138
0.18152152
0.178012
0.1736513
0.17078445
0.1686951
0.16655563
0.16512957
0.16341135
0.16216836
0.1604506
0.15987868
0.15874935
0.15805527
0.15017881
0.18145548
0.18009021
0.17885808
0.1777841
0.17689871
0.1762283
0.17579682
0.17561897
0.17570888
0.17607577
0.17671207
0.17761692
0.17872647
0.17995525
0.18114001
0.18202429
0.18232224
0.18128301
0.17769417
0.17339258
0.1706211
0.16856689
0.16644663
0.16503999
0.16333322
0.16210624
0.1604032
0.15983633
0.15870739
0.15802158
0.15018007
0.18270921
0.18116109
0.17974954
0.17850472
0.1774598
0.17664461
0.17608509
0.1757905
0.17578231
0.17608861
0.17669118
0.17756114
0.1786417
0.17985246
0.18102202
0.18188582
0.18215345
0.18103839
0.17737943
0.17314049
0.17046056
0.16844036
0.16633889
0.16495131
0.16325627
0.16204523
0.16035633
0.15979447
0.15866582
0.15798889
0.15018121
0.18371372
0.18202285
0.1804682
0.17908373
0.17790264
0.1769568
0.17627375
0.1758744
0.1758074
0.1760766
0.1766415
0.1774752
0.17853253
0.17972951
0.18088823
0.18173562
0.18197546
0.18078861
0.17706848
0.17289491
0.17030271
0.16831556
0.16623243
0.16486355
0.16318074
0.16198546
0.16031003
0.1597531
0.158625
0.15795662
0.15018215
0.18444799
0.18265386
0.18099051
0.17949309
0.17819896
0.17714222
0.17636006
0.17590475
0.17580606
0.17603169
0.17655507
0.17735954
0.17839882
0.17958632
0.1807387
0.18157349
0.18178873
0.18053464
0.17676194
0.17265572
0.17014735
0.16819251
0.16612729
0.16477674
0.16310718
0.16192716
0.16026433
0.15971226
0.15858531
0.15792615
0.15018287
0.18487041
0.1830177
0.18128607
0.1797122
0.17834223
0.17721636
0.17638742
0.1759037
0.17576166
0.17594223
0.17643257
0.17721426
0.17824044
0.17942283
0.18057345
0.18140105
0.18159383
0.18027743
0.17646008
0.17242271
0.16999436
0.16807126
0.1660235
0.16469088
0.16303542
0.16187066
0.16021926
0.15967196
0.15854696
0.15789888
0.15018336
0.18506995
0.18318709
0.18141679
0.17979827
0.17838722
0.17723383
0.17638173
0.17585157
0.17566127
0.1758082
0.17627419
0.17703922
0.17805732
0.17923898
0.18039251
0.18121801
0.18139097
0.18001764
0.17616328
0.17219573
0.16984362
0.16795184
0.16592108
0.16460601
0.16296562
0.16181584
0.16017489
0.15963223
0.15850993
0.15787531
0.15018363
0.1851502
0.18325668
0.18146744
0.17982669
0.17838937
0.17720685
0.17631108
0.17573005
0.17550562
0.17562938
0.17607957
0.17683428
0.17784939
0.17903473
0.1801961
0.18102448
0.18118121
0.17975605
0.17587183
0.17197465
0.16969504
0.16783428
0.16582008
0.16452212
0.16289798
0.16176272
0.16013125
0.15959306
0.15847409
0.15785521
0.15018362
0.18504316
0.18317817
0.18139783
0.17975571
0.17830191
0.17708542
0.17614856
0.17553804
0.175294
0.17540494
0.17584826
0.17659929
0.17761661
0.17881004
0.17998429
0.18082104
0.18096482
0.17949339
0.17558595
0.17175938
0.16954852
0.16771861
0.16572054
0.16443924
0.16283257
0.1617113
0.16008835
0.15955445
0.15843927
0.15783734
0.15018356
0.18460263
0.18282256
0.1810992
0.17949272
0.17805475
0.17683737
0.1758919
0.17527367
0.17502495
0.17513394
0.17557983
0.17633411
0.17735894
0.17856488
0.17975705
0.18060754
0.18074261
0.17923034
0.1753059
0.17154967
0.16940401
0.16760486
0.16562251
0.16435738
0.16276946
0.16166147
0.16004612
0.15951635
0.15840534
0.15781725
0.15018347
0.1838525
0.18219217
0.18056412
0.17903204
0.17764767
0.17646479
0.17553973
0.17493502
0.17469688
0.17481553
0.17527385
0.17603865
0.17707638
0.17829925
0.17951439
0.18038428
0.18051528
0.17896757
0.17503184
0.17134539
0.16926145
0.16749305
0.16552603
0.16427656
0.16270905
0.16161313
0.16000447
0.15947874
0.15837217
0.15779638
0.15018328
0.1828622
0.18133333
0.17982212
0.17839153
0.17709025
0.17597103
0.17509112
0.17452064
0.17430832
0.17444891
0.17492987
0.17571277
0.17676897
0.17801315
0.17925629
0.18015144
0.1802834
0.17870571
0.17476391
0.17114634
0.16912082
0.1673832
0.16543115
0.16419679
0.16265028
0.1615665
0.15996329
0.1594416
0.15833968
0.15777474
0.15018308
0.18164366
0.18026073
0.17888579
0.17758034
0.17638784
0.17535749
0.1745459
0.17402979
0.17385789
0.17403333
0.17454746
0.17535636
0.17643673
0.17770663
0.17898273
0.17990914
0.1800476
0.17844537
0.17450221
0.17095239
0.1689821
0.16727534
0.16533794
0.16411809
0.16259274
0.16152096
0.15992261
0.15940492
0.15830782
0.15775358
0.15018077
0.18019223
0.17897561
0.17775929
0.17660274
0.17554339
0.17462569
0.17390475
0.17346224
0.17334409
0.17356812
0.17412618
0.17496926
0.17607973
0.17737978
0.17869367
0.17965741
0.17980847
0.17818719
0.1742468
0.17076337
0.16884529
0.16716948
0.16524641
0.16404048
0.1625362
0.16147634
0.15988255
0.15936886
0.15827657
0.1577322
0.15018063
0.17850139
0.17747653
0.17644459
0.1754617
0.17455946
0.17377726
0.17316915
0.17281795
0.17276541
0.1730527
0.17366558
0.17455134
0.17569803
0.17703272
0.17838912
0.17939621
0.17956641
0.1779318
0.17399777
0.17057917
0.1687104
0.16706564
0.16515659
0.16396397
0.16248049
0.16143249
0.15984345
0.15933355
0.15824586
0.15771116
0.15018142
0.17657217
0.17576557
0.1749448
0.17416039
0.17343854
0.17281394
0.17234149
0.17209527
0.17212134
0.17248671
0.17316533
0.17410245
0.17529176
0.17666565
0.1780691
0.17912545
0.17932112
0.1776797
0.17375516
0.17039965
0.16857743
0.1669638
0.16506852
0.16388856
0.16242504
0.16138902
0.15980561
0.15929918
0.15821567
0.15769062
0.15018248
0.17441839
0.17385152
0.17326584
0.1727028
0.17218336
0.17173815
0.17142279
0.17129187
0.17141359
0.17186975
0.17262507
0.17362246
0.17486106
0.17627885
0.17773375
0.17884494
0.17907326
0.17743143
0.17351896
0.1702246
0.16844632
0.16686389
0.16498227
0.16381431
0.16236849
0.16134538
0.1597691
0.15926572
0.15818596
0.15767054
0.15018387
0.17206496
0.17174927
0.17141654
0.17109429
0.17079686
0.17055415
0.17041048
0.17040877
0.17064446
0.17120178
0.17204445
0.17311119
0.17440602
0.17587263
0.17738326
0.17855441
0.17882272
0.17718758
0.17328905
0.17005377
0.168317
0.16676587
0.16489804
0.16374132
0.1623092
0.16130103
0.1597333
0.15923282
0.15815676
0.15765088
0.15018547
0.16953713
0.1694747
0.16940698
0.1693412
0.16928487
0.16926205
0.16929974
0.16944959
0.16981419
0.17048321
0.17142286
0.17256803
0.17392635
0.175447
0.17701765
0.17825348
0.17856962
0.17694897
0.17306543
0.1698872
0.16818974
0.16666996
0.1648163
0.1636699
0.1622465
0.16125561
0.1596968
0.15919957
0.15812824
0.15763164
0.15018718
0.16683634
0.16702692
0.16723739
0.16744324
0.16764188
0.16784918
0.16808832
0.16841016
0.1689161
0.16971059
0.17075726
0.17199014
0.17341986
0.17500042
0.17663555
0.17794129
0.17831396
0.17671743
0.17284932
0.16972617
0.16806557
0.16657702
0.16473761
0.16360038
0.16218112
0.16120859
0.15965689
0.15916464
0.1581005
0.15761291
0.15018887
0.16392108
0.16436242
0.16486715
0.16536565
0.16583688
0.1662944
0.16676002
0.16727102
0.16792628
0.16886954
0.17004033
0.17137175
0.172882
0.17452948
0.17623391
0.17761604
0.17805534
0.17649564
0.17264408
0.16957299
0.1679456
0.16648774
0.1646612
0.16353256
0.16211254
0.16115907
0.15961134
0.1591262
0.15807297
0.15759485
0.15019035
0.16080671
0.16138252
0.16213338
0.16293655
0.16372196
0.1644792
0.16521578
0.16594993
0.1667648
0.16789364
0.16922879
0.17067963
0.17228543
0.17401139
0.17579397
0.17726475
0.17778931
0.17628356
0.17245654
0.16942707
0.16782805
0.16640014
0.16458242
0.1634643
0.162042
0.16110725
0.15955922
0.15908412
0.15804388
0.15757724
0.15019144
0.014639158
0.027344762
0.051670783
0.085487372
0.1132812
0.13077438
0.14144433
0.14861131
0.15418773
0.15896517
0.16324218
0.16715118
0.17075781
0.17409581
0.17717978
0.17995301
0.182379
0.18398926
0.18432234
0.18219591
0.17732216
0.1730917
0.17001707
0.16790028
0.16580157
0.16409475
0.16199538
0.16116912
0.15999991
0.15884238
0.15041009
0.016848607
0.029665716
0.052681131
0.084615009
0.1122771
0.13016984
0.14106304
0.14834269
0.15395717
0.15874443
0.16302885
0.16695237
0.17058222
0.17394867
0.17706314
0.17986691
0.18232065
0.18396426
0.18435355
0.18229292
0.17745344
0.17318108
0.17008945
0.16796273
0.16585717
0.16413843
0.16205373
0.16121322
0.16002683
0.15885921
0.15041425
0.01851172
0.031158072
0.053116621
0.083614212
0.11120136
0.12943304
0.14054974
0.14796137
0.15363625
0.15845107
0.16275628
0.16670474
0.17036589
0.17376758
0.1769185
0.17975847
0.18224529
0.18393568
0.18437729
0.18239886
0.17759593
0.17327535
0.17016275
0.16802573
0.16591317
0.1641826
0.1621114
0.16125504
0.16005399
0.15887469
0.15041859
0.019930978
0.032240665
0.053178529
0.082457493
0.10996135
0.1285601
0.13996261
0.14753974
0.15329288
0.15814404
0.16247371
0.16644805
0.17014054
0.17357751
0.1767652
0.17964226
0.1821628
0.18390188
0.18439921
0.18250411
0.17774194
0.17337483
0.17023935
0.16809115
0.16597079
0.16422817
0.16216385
0.16129332
0.16008183
0.15889184
0.15042304
0.021293728
0.033343694
0.053315961
0.081357521
0.10866134
0.1276329
0.13935403
0.14711185
0.15295039
0.15784015
0.16219366
0.16619181
0.16991333
0.17338381
0.17660719
0.17952104
0.18207517
0.18386286
0.18441846
0.18260584
0.17788739
0.17347636
0.17031743
0.16815781
0.16602934
0.16427455
0.16221173
0.16132905
0.16011006
0.15891025
0.15042766
0.022638694
0.034452778
0.053579669
0.080400881
0.10739135
0.12670152
0.13874403
0.1466864
0.15261329
0.15754246
0.16191862
0.16593827
0.1696863
0.17318828
0.17644595
0.17939596
0.18198337
0.18381921
0.18443387
0.18270281
0.17803088
0.17357813
0.17039549
0.16822465
0.1660881
0.16432118
0.1622567
0.1613635
0.16013848
0.15892896
0.15043353
0.023920706
0.035524725
0.05389986
0.079564946