/*--------------------------------*- C++ -*----------------------------------*\
| =========                 |                                                 |
| \\      /  F ield         | OpenFOAM: The Open Source CFD Toolbox           |
|  \\    /   O peration     | Version:  2406                                  |
|   \\  /    A nd           | Website:  www.openfoam.com                      |
|    \\/     M anipulation  |                                                 |
\*---------------------------------------------------------------------------*/
FoamFile
{
    version     2.0;
    format      ascii;
    arch        "LSB;label=32;scalar=64";
    class       volScalarField;
    location    "0.024";
    object      nut;
}
// * * * * * * * * * * * * * * * * * * * * * * * * * * * * * * * * * * * * * //

dimensions      [0 2 -1 0 0 0 0];

internalField   nonuniform List<scalar> 
35803
(
0.037729385
0.041492342
0.045892262
0.05090408
0.056520324
0.062713559
0.069426335
0.076566541
0.083994645
0.091481661
0.098629335
0.10484216
0.10923213
0.11048903
0.10674191
0.095565298
0.07438834
0.044012195
0.019573017
0.0096240269
0.0070953073
0.006001097
0.0053501399
0.005053926
0.0047612692
0.0044937928
0.0043684131
0.0042436781
0.004184826
0.0040848481
0.0040339174
0.042487044
0.046282947
0.050566361
0.055394844
0.060786795
0.066725853
0.073159034
0.079991617
0.08708116
0.094193304
0.10092945
0.10667078
0.11051528
0.11113587
0.10664872
0.09464008
0.072693375
0.042186395
0.018261794
0.0093563824
0.0070008365
0.0059590722
0.0053250926
0.0050393624
0.0047512414
0.0044873289
0.0043650418
0.0042419309
0.0041838298
0.0040844922
0.0040340256
0.048089334
0.051782614
0.055917576
0.060544677
0.065687422
0.071336834
0.077445359
0.083919632
0.090612019
0.097280985
0.10352221
0.10870279
0.11190207
0.11177358
0.10642037
0.093446311
0.070604275
0.039943742
0.017066112
0.0090599063
0.0069494558
0.0059351334
0.0053076372
0.0050292513
0.0047455724
0.0044827775
0.0043629625
0.0042409199
0.0041833134
0.0040843197
0.0040341407
0.054638641
0.058137179
0.062057033
0.066433848
0.071283916
0.076597113
0.082327265
0.088381444
0.094606225
0.1007513
0.10640355
0.11091818
0.1133543
0.11234376
0.10597695
0.091883309
0.068016741
0.037246341
0.015888339
0.0087844886
0.0068729537
0.0058965005
0.0052843208
0.0050145498
0.0047361903
0.0044766537
0.0043598031
0.004239608
0.0041823042
0.0040840147
0.0040342694
0.062208557
0.065450399
0.069089504
0.073153201
0.077650217
0.08256542
0.087849944
0.09340824
0.099079901
0.10460399
0.10955671
0.11328046
0.1148132
0.11276332
0.10521019
0.08981945
0.064799634
0.034084399
0.014691981
0.0085006649
0.0067990942
0.0058590476
0.0052631531
0.0049999577
0.0047257307
0.0044711474
0.0043572092
0.0042385358
0.0041811206
0.0040836929
0.0040344084
0.070836005
0.073763033
0.077064356
0.080751365
0.084827002
0.089270838
0.09402936
0.099001677
0.10401851
0.10880644
0.11292892
0.11571403
0.11617747
0.11290304
0.10396316
0.087075121
0.060789082
0.030471273
0.013474013
0.0082206529
0.0067130844
0.0058128502
0.0052366626
0.00498131
0.0047146834
0.0044644311
0.0043540688
0.0042371337
0.0041796455
0.0040832548
0.0040345563
0.080489301
0.083041432
0.085955138
0.089204524
0.092787747
0.096679489
0.10082072
0.10510329
0.10934724
0.11326493
0.11640472
0.1180783
0.11727798
0.11256296
0.10200709
0.083404128
0.055787234
0.026467665
0.012256729
0.0079703963
0.0066234162
0.0057638285
0.0052069415
0.004960258
0.0047053712
0.0044568244
0.0043510201
0.0042357289
0.0041781477
0.0040827249
0.0040347169
0.0910015
0.093155422
0.095627911
0.098377265
0.10139513
0.10464969
0.10807449
0.11155207
0.11489003
0.1177849
0.11976753
0.12013058
0.11784212
0.11143844
0.099010384
0.078472655
0.049576563
0.022214822
0.011075076
0.0077089535
0.006523303
0.0057070594
0.0051718773
0.0049359086
0.0046895402
0.0044482138
0.0043470617
0.0042339445
0.0041763599
0.0040820319
0.0040348906
0.10205359
0.10378044
0.10576448
0.10795507
0.11033593
0.11286665
0.11547098
0.11801989
0.12030668
0.12201014
0.12264107
0.12147017
0.11744092
0.10907155
0.09449556
0.071838341
0.041985126
0.018636646
0.010001709
0.0074647789
0.0064179595
0.0056459306
0.005133614
0.0049096376
0.0046718629
0.0044395463
0.0043424581
0.0042319525
0.0041742892
0.0040811513
0.0040350773
0.11305778
0.11432744
0.115777
0.11735134
0.11902403
0.12074357
0.12242128
0.12391393
0.12499777
0.12533124
0.12440191
0.12145556
0.11541209
0.10478317
0.08778977
0.062933377
0.033045106
0.015321734
0.009039678
0.0072182548
0.0063030219
0.0055771366
0.0050898676
0.0048794064
0.0046541181
0.0044290618
0.0043367427
0.0042292609
0.0041721928
0.004080006
0.0040352766
0.12297907
0.12376465
0.12463812
0.1255433
0.12644168
0.12726843
0.12791948
0.12823388
0.12796721
0.12675387
0.12405457
0.1190872
0.11075291
0.097583704
0.077964864
0.051114405
0.02385949
0.012378887
0.0082468673
0.0069829272
0.0061827958
0.0055030938
0.0050418706
0.0048457308
0.004633404
0.0044158769
0.0043304763
0.0042260204
0.0041704762
0.0040785276
0.0040354875
0.130112
0.13039765
0.13066696
0.13086385
0.13093613
0.13080392
0.13034562
0.12937896
0.1276345
0.12471868
0.1200614
0.11284874
0.10197935
0.086074694
0.063798914
0.035995717
0.017500174
0.010162142
0.0077936072
0.0067475725
0.006054773
0.0054209379
0.0049874492
0.0048079069
0.0046084813
0.004400865
0.0043234091
0.0042221238
0.0041685108
0.0040766013
0.0040357059
0.13176791
0.13154257
0.13119242
0.13066947
0.12990119
0.12878565
0.12717918
0.12487459
0.12157512
0.11685856
0.11011951
0.10049924
0.086956597
0.068405104
0.043909589
0.022114344
0.012489299
0.0085196993
0.0072868122
0.0065053726
0.0059206581
0.0053324317
0.004928788
0.0047663643
0.004581441
0.0043853345
0.0043152893
0.0042175095
0.0041661668
0.0040741433
0.004035919
0.12373162
0.12300595
0.12206063
0.1208479
0.11927994
0.11723283
0.11453274
0.11094106
0.10613326
0.099666929
0.090880099
0.078775109
0.062710735
0.042683434
0.025224905
0.01418069
0.0094089255
0.0077889237
0.0070062149
0.0063031848
0.005778637
0.0052364684
0.0048642791
0.0047193533
0.0045510302
0.0043670456
0.004303259
0.0042111526
0.0041635796
0.0040711441
0.0040360935
0.09971306
0.098601129
0.097192101
0.095437235
0.093226697
0.090413368
0.086801226
0.082131745
0.076097941
0.068371203
0.058880247
0.048065717
0.035953515
0.023961658
0.014569847
0.0097206938
0.0079795548
0.0072495432
0.0065945161
0.0060587106
0.005623945
0.0051331539
0.004796546
0.0046685833
0.0045187781
0.004348125
0.0042918573
0.0042036235
0.0041585487
0.0040693112
0.0040361508
0.06341892
0.062389827
0.061141252
0.059647994
0.057804949
0.055485142
0.052548278
0.048846977
0.044260027
0.038716809
0.032211963
0.025274207
0.018774634
0.013264263
0.0095659214
0.0079950542
0.0074136793
0.0069554671
0.0064088967
0.0059049176
0.0054671311
0.005019833
0.0047208628
0.0046122655
0.0044821547
0.0043285368
0.0042783666
0.0041942176
0.0041523299
0.0040687395
0.0040360735
0.032330538
0.031863514
0.031239508
0.03044422
0.029431525
0.028153349
0.026548269
0.024553916
0.02212087
0.019288404
0.016179123
0.01303271
0.010418296
0.0085595868
0.0076510426
0.0073032758
0.0067580521
0.0063684925
0.0060350158
0.0056281468
0.0052921575
0.0049012919
0.0046352135
0.0045497373
0.0044458456
0.0043064904
0.0042625546
0.0041817942
0.0041446058
0.0040686347
0.0040358011
0.015381837
0.015276469
0.015061325
0.014734282
0.014294705
0.013742099
0.013075391
0.012271769
0.011310252
0.010185413
0.0089974592
0.0078236902
0.0071211719
0.0067876419
0.0069329471
0.0064492671
0.006276909
0.0060408979
0.005665238
0.0054210894
0.0051047948
0.00476026
0.0045448422
0.004480174
0.0044060056
0.0042817148
0.0042464714
0.0041638064
0.0041344069
0.0040688002
0.0040352699
0.0083531822
0.0083330951
0.0082758618
0.0081785068
0.0080424822
0.0078538937
0.0076216064
0.0073684354
0.0070933112
0.006788611
0.0065180401
0.0063059466
0.0062061499
0.0061787754
0.005934251
0.0059141066
0.0057056669
0.005505621
0.0053561064
0.0050938149
0.0048486138
0.0046288071
0.0044459843
0.0044120362
0.0043670787
0.0042569223
0.0042286481
0.0041478794
0.0041233876
0.0040695682
0.0040344568
0.0059261324
0.0059134916
0.0059004836
0.0058897855
0.0058857381
0.0058862698
0.0058552814
0.0057930025
0.005740488
0.0056740338
0.0055751603
0.0054597236
0.0054249648
0.0053080022
0.0052713894
0.0052427434
0.0052694199
0.0052254155
0.0049565294
0.0047735506
0.0045983053
0.0044637941
0.0043590582
0.0043546794
0.0043189327
0.0042292756
0.0042107926
0.0041359776
0.0041146482
0.0040701741
0.0040339196
0.0053294183
0.0053205706
0.005315024
0.0053064474
0.0052870351
0.0052684917
0.0052576841
0.0052454401
0.0052173324
0.0051714998
0.0050924049
0.0050462038
0.0049863506
0.0049622512
0.0048657512
0.0047933871
0.0047841616
0.0047747954
0.0047476829
0.0046070152
0.0044721116
0.0043597134
0.0042701999
0.0042934865
0.0042798291
0.0042046064
0.0041877575
0.0041248385
0.0041088183
0.0040701987
0.0040334595
0.0048601345
0.0048485241
0.0048353676
0.0048249019
0.0048250579
0.0048204189
0.0048097397
0.004796209
0.0047813247
0.0047647433
0.0047491661
0.0047481029
0.0047372067
0.0046371959
0.0046118256
0.004570689
0.0045445208
0.0045359887
0.0045515895
0.0044988973
0.0043904953
0.0042922807
0.0042229918
0.0042353611
0.0042286422
0.0041782939
0.0041647442
0.0041129576
0.0041034042
0.0040696297
0.0040329716
0.0045621608
0.0045647574
0.004568884
0.004571864
0.0045686607
0.0045668756
0.0045663833
0.0045653194
0.0045595152
0.004542957
0.0045102263
0.0044697478
0.0044403804
0.0044490728
0.0044113992
0.0044302335
0.0044207071
0.0043854293
0.0043497855
0.004319067
0.0043291427
0.0042546969
0.0041791546
0.0041843303
0.0041851387
0.0041498652
0.0041412983
0.0040987437
0.0040947772
0.0040676549
0.0040328302
0.0043540339
0.0043506915
0.0043451073
0.004338992
0.0043377677
0.0043357893
0.0043333996
0.0043305854
0.0043268086
0.0043219322
0.0043148941
0.0043094715
0.0042972068
0.0042722013
0.0042848623
0.0042727365
0.0042800228
0.0042937473
0.0042625651
0.0042383207
0.0042270033
0.0042016813
0.0041528551
0.0041434264
0.0041558614
0.0041212431
0.0041157061
0.0040836076
0.0040829843
0.0040675759
0.0040345822
0.0042102304
0.0042106744
0.0042117267
0.0042131589
0.0042146831
0.0042167958
0.0042196674
0.0042221601
0.0042224467
0.0042194464
0.0042095404
0.0041919704
0.0041770186
0.0041693486
0.0041660389
0.0041794781
0.0041901253
0.004187837
0.0042104872
0.0041884815
0.0041631322
0.0041302669
0.0041044665
0.0040991117
0.0041201375
0.0040959381
0.0040904017
0.0040673509
0.0040718099
0.0040607754
0.0040379269
0.0041242965
0.0041236224
0.0041223651
0.0041205986
0.0041185225
0.0041161597
0.0041135968
0.0041116077
0.0041104624
0.0041094471
0.0041077497
0.0041046422
0.0041035477
0.0041044313
0.0041072411
0.0041110905
0.0041233724
0.004130048
0.0041240516
0.004121122
0.0041066438
0.0040905803
0.0040711943
0.0040752059
0.0040856354
0.0040754269
0.0040756702
0.0040566478
0.004056448
0.0040485347
0.0040372167
0.0040765759
0.0040763718
0.0040759658
0.0040753373
0.0040746236
0.0040738986
0.0040732139
0.0040726585
0.0040723666
0.0040725588
0.0040730759
0.0040732374
0.0040729072
0.0040730398
0.004074164
0.0040777835
0.0040795847
0.0040810752
0.0040795005
0.0040755404
0.0040693118
0.004068071
0.0040570087
0.0040574116
0.004066684
0.0040653934
0.0040622535
0.0040515769
0.0040488857
0.0040447164
0.0040366485
0.0040555294
0.0040554778
0.0040553003
0.004055013
0.004054722
0.0040544675
0.0040542542
0.0040540776
0.0040538474
0.0040536668
0.0040537161
0.0040544575
0.0040555227
0.0040570097
0.0040587422
0.004059235
0.0040595667
0.0040586815
0.0040589379
0.0040581152
0.0040557859
0.0040547337
0.0040510517
0.0040495827
0.0040535899
0.0040549118
0.0040506367
0.0040477551
0.0040449213
0.0040418768
0.0040360246
0.0040461157
0.0040460741
0.0040459934
0.0040459012
0.0040458314
0.004045818
0.0040458684
0.0040459614
0.0040460144
0.0040457057
0.0040454814
0.0040458602
0.0040465213
0.0040471916
0.0040481832
0.0040488692
0.0040491546
0.0040486118
0.0040503342
0.0040503731
0.0040503597
0.0040494685
0.0040469075
0.0040466832
0.0040472364
0.0040484717
0.0040459112
0.0040456754
0.0040427434
0.0040383813
0.0040413631
0.0040412414
0.0040411521
0.0040410611
0.0040409846
0.0040409515
0.0040409972
0.0040411585
0.00404146
0.004041888
0.0040423119
0.0040426272
0.0040428296
0.0040430339
0.0040433617
0.0040438744
0.0040445345
0.0040450084
0.0040442385
0.0040447496
0.0040460848
0.0040463163
0.0040483853
0.0040432698
0.0040433815
0.0040446571
0.0040452843
0.004043337
0.0040422961
0.0040389959
0.0040416576
0.0040403989
0.0040428003
0.0040427533
0.0040426834
0.0040425887
0.0040424727
0.0040423466
0.0040422291
0.0040421397
0.0040420878
0.0040420573
0.0040420176
0.0040419702
0.0040419165
0.0040418542
0.0040417828
0.0040416093
0.0040409202
0.0040409431
0.0040417084
0.0040419473
0.0040418958
0.0040424058
0.0040422416
0.0040420848
0.0040427096
0.0040411085
0.0040416446
0.0040423316
0.0040402274
0.0040406599
0.0040396816
0.0021537987
0.0019429567
0.0020047162
0.0024394012
0.0034897153
0.0060236719
0.0098511929
0.014737538
0.020604038
0.027720446
0.03610778
0.045182731
0.055166638
0.065543372
0.075355229
0.08305125
0.086177758
0.081056124
0.064268302
0.039123522
0.018342509
0.0090148925
0.0063691005
0.0056045641
0.0051068045
0.004695371
0.0044770847
0.0043300937
0.0042609381
0.0040915655
0.0040274425
0.0019027606
0.0018201271
0.0021265849
0.0027514634
0.0046565382
0.0078173728
0.011900826
0.016830513
0.022729319
0.029966632
0.038247433
0.047279005
0.057169626
0.067353767
0.076844637
0.084049032
0.086474995
0.080436423
0.062762158
0.037382972
0.017274878
0.0087145134
0.006283888
0.0055758969
0.0050908022
0.0046862219
0.0044718617
0.0043272414
0.0042588759
0.0040910214
0.0040274415
0.0017157549
0.0018417936
0.0022226514
0.0033732355
0.0058117215
0.009247905
0.013506554
0.018585595
0.024657511
0.032042649
0.040250616
0.049287911
0.059100259
0.069095539
0.078262943
0.084971378
0.086694763
0.079744578
0.061219997
0.035694608
0.016335891
0.0084255293
0.0062268898
0.0055564915
0.0050797974
0.0046799197
0.0044677756
0.0043248629
0.0042569011
0.004090498
0.0040274433
0.0016319617
0.0019079242
0.0025419671
0.0043556546
0.0071495455
0.010749894
0.01511527
0.020306633
0.026546804
0.034015735
0.04218908
0.051240802
0.060973385
0.07077633
0.079614675
0.08582149
0.086839747
0.078983114
0.05964757
0.034058321
0.015483776
0.0081724188
0.0061713643
0.0055347515
0.0050671719
0.0046726794
0.0044634376
0.0043223363
0.0042548426
0.0040900004
0.0040274578
0.0016543356
0.0020238494
0.0032949036
0.0055220243
0.0085299884
0.012250046
0.016718193
0.022026469
0.0284586
0.035906363
0.044093557
0.053151873
0.062796924
0.072400953
0.080903313
0.086602501
0.086913251
0.078156146
0.05805307
0.032473985
0.014699664
0.0079457273
0.0061218814
0.0055148295
0.0050555671
0.0046661469
0.0044594449
0.0043199647
0.0042527734
0.0040895343
0.004027484
0.0016965922
0.0025399749
0.0042830783
0.0067738888
0.0099265097
0.013753948
0.01832529
0.023763876
0.030336345
0.037748122
0.04597497
0.055027605
0.064575359
0.073972639
0.082131595
0.087317207
0.08691844
0.077267685
0.056442866
0.030942564
0.013974321
0.0077425231
0.0060764845
0.0054951555
0.0050438912
0.0046595929
0.0044555203
0.0043175953
0.0042506672
0.0040890993
0.0040275228
0.0020062785
0.0033612599
0.0054091842
0.0080691369
0.011335068
0.015264227
0.019937354
0.025519863
0.032180099
0.039571965
0.047837793
0.056870786
0.066311207
0.075493568
0.083301694
0.087968106
0.086858337
0.076321881
0.054822582
0.029465989
0.01330326
0.0075604398
0.0060350529
0.0054762292
0.0050325567
0.0046533335
0.0044518008
0.0043152931
0.004248547
0.0040886952
0.0040275706
0.0027012879
0.0043700222
0.0066011893
0.0093803638
0.012748951
0.016778408
0.021557132
0.027299195
0.033965792
0.041385847
0.049681712
0.058682256
0.06800584
0.076965246
0.084415405
0.088557507
0.086735889
0.07532219
0.053197757
0.028046725
0.01268385
0.0073974658
0.0059967444
0.0054578036
0.0050213509
0.004647197
0.0044482127
0.0043130251
0.0042464117
0.0040883231
0.0040276208
0.0035562285
0.0054342835
0.0078075325
0.010697285
0.014166753
0.018295274
0.023190575
0.029053661
0.035714523
0.043189663
0.051505074
0.060461997
0.069659976
0.07838877
0.085474304
0.089087634
0.086554056
0.07427211
0.051572715
0.026687398
0.012114015
0.0072518035
0.0059612522
0.005439934
0.0050103229
0.0046412215
0.0044447757
0.004310809
0.0042442547
0.0040879844
0.0040276798
0.0045405567
0.0065688155
0.0090435299
0.012023676
0.015586889
0.01981214
0.024840158
0.03077408
0.037455422
0.044982297
0.053305937
0.062209596
0.071273967
0.079765004
0.086479857
0.089560694
0.08631586
0.07317699
0.04995189
0.025390327
0.011591711
0.0071218472
0.0059281928
0.0054225709
0.0049994169
0.0046353514
0.0044414525
0.0043086316
0.0042420582
0.0040876802
0.0040277487
0.0055881872
0.0077095779
0.010270813
0.013344017
0.017004277
0.021331066
0.026494342
0.032466887
0.039189922
0.046759925
0.055082337
0.063924476
0.072847967
0.081094693
0.087433495
0.089978933
0.086024417
0.072041817
0.048339976
0.024163573
0.01111479
0.0070063138
0.0058972751
0.0054057184
0.0049886245
0.0046295766
0.0044382261
0.0043064883
0.0042398403
0.0040874113
0.0040278276
0.0066370029
0.0088434264
0.011495077
0.014663204
0.018419591
0.022855555
0.02813274
0.034124708
0.040912554
0.048519294
0.056832612
0.065606024
0.074382045
0.082378545
0.08833667
0.090344679
0.08568326
0.070871586
0.046740892
0.023008131
0.010680657
0.0069046062
0.0058682267
0.0053893694
0.0049779249
0.0046238656
0.0044350709
0.0043043617
0.0042376228
0.0040871789
0.004027915
0.0076845577
0.0099752172
0.012717107
0.01597888
0.019829121
0.024387862
0.029726928
0.03577084
0.042622218
0.050258017
0.058555344
0.067253647
0.075876258
0.083617286
0.089190896
0.090660365
0.085296475
0.069671806
0.045161046
0.021916778
0.010286739
0.0068178032
0.0058408043
0.0053735296
0.0049673198
0.0046182047
0.0044319748
0.0043022374
0.0042353935
0.0040869834
0.0040280122
0.0087234398
0.01110025
0.013933001
0.017288039
0.021234724
0.025913045
0.031293365
0.037408485
0.04431581
0.051973918
0.060249292
0.068866805
0.077330697
0.084811705
0.089997778
0.090928516
0.08486707
0.068447797
0.043607261
0.020887826
0.0099303673
0.0067398119
0.0058147798
0.0053582051
0.0049568062
0.0046125748
0.0044289252
0.0043001036
0.0042331575
0.0040868072
0.0040281192
0.0097537287
0.012217417
0.015140619
0.018588222
0.022638055
0.027417674
0.032846177
0.039033382
0.045990305
0.053665188
0.061913388
0.070445039
0.078745523
0.085962672
0.090759027
0.091151803
0.084398882
0.067204781
0.042085534
0.019921432
0.0096090569
0.0066699834
0.0057900451
0.005343405
0.0049464012
0.0046069635
0.0044259135
0.0042979494
0.004230922
0.0040866565
0.0040282368
0.010773081
0.013323721
0.016337018
0.019875832
0.024041972
0.028887139
0.034387974
0.040641964
0.047643386
0.055330333
0.063546711
0.071987979
0.080120983
0.087071164
0.091476475
0.091333008
0.083896896
0.065948192
0.040601358
0.019017853
0.0093203517
0.0066072042
0.0057664618
0.0053291356
0.004936127
0.0046013723
0.0044229427
0.0042957617
0.0042287148
0.004086525
0.0040283598
0.011778658
0.01441641
0.01752014
0.021153435
0.025428796
0.030332579
0.035913347
0.042231275
0.049273217
0.056968087
0.06514847
0.073495357
0.081457424
0.088138265
0.092152071
0.091475018
0.083365201
0.064683638
0.039159594
0.018177003
0.0090618104
0.006550617
0.005743932
0.0053154008
0.0049260181
0.0045958062
0.0044200268
0.0042935329
0.0042265772
0.0040864103
0.0040284889
0.01276755
0.015493039
0.018687629
0.022421452
0.026790157
0.031759418
0.037420325
0.043799415
0.050878301
0.058577344
0.066717984
0.074967004
0.082755299
0.089165179
0.092787889
0.091581282
0.082807972
0.063416828
0.037764458
0.017398328
0.0088310171
0.0064994418
0.005722365
0.0053021984
0.004916121
0.0045902816
0.0044171798
0.0042912633
0.0042245075
0.0040863119
0.0040286246
0.013737428
0.01655182
0.019837486
0.02367978
0.028119978
0.033171026
0.038907779
0.045344817
0.052457325
0.060157125
0.06825468
0.076402852
0.084015168
0.090153219
0.093386074
0.091654768
0.082229569
0.062153285
0.036419529
0.016680755
0.0086256142
0.006453002
0.0057016862
0.0052895196
0.004906484
0.0045848258
0.0044144096
0.0042889552
0.0042224804
0.0040862295
0.0040287686
0.014687287
0.017591935
0.020971404
0.02491641
0.029428071
0.034563985
0.040373924
0.046866029
0.054009101
0.061706552
0.069758077
0.077802928
0.085237691
0.091103812
0.093948894
0.091698097
0.081633076
0.060898439
0.035127814
0.016022701
0.0084433317
0.0064107122
0.0056818301
0.0052773477
0.0048971633
0.004579476
0.0044117219
0.0042866094
0.0042204851
0.0040861497
0.0040289206
0.015616316
0.018612199
0.022089973
0.026126776
0.030716912
0.035936637
0.041817309
0.048361741
0.05553254
0.063224835
0.071227777
0.079167349
0.086423632
0.092018497
0.094478753
0.091714778
0.081021468
0.059657231
0.033891789
0.015422158
0.0082820143
0.0063721063
0.0056627409
0.0052656583
0.0048882101
0.0045742787
0.0044091184
0.0042842323
0.0042185263
0.0040860496
0.0040290816
0.016524724
0.019612123
0.023192632
0.027309463
0.031986873
0.037287589
0.043236616
0.04983073
0.057026631
0.064711254
0.072663459
0.080496316
0.087573845
0.092898919
0.094978815
0.091708406
0.080398847
0.058434167
0.032713344
0.014876798
0.0081396435
0.006336731
0.0056443692
0.0052544207
0.004879673
0.0045692857
0.0044065942
0.0042818353
0.0042166071
0.0040859615
0.0040292487
0.017413165
0.020592925
0.024273006
0.028470341
0.033235621
0.038615356
0.044630623
0.051271834
0.058490423
0.066165149
0.074064866
0.081790105
0.088689263
0.093746718
0.095451497
0.091682746
0.079768837
0.057233933
0.031593846
0.014384064
0.00801436
0.0063041685
0.0056266751
0.0052435994
0.0048715912
0.004564548
0.0044041419
0.0042794306
0.0042147311
0.0040858768
0.0040294189
0.018282403
0.021555349
0.0253296
0.029610357
0.03446206
0.039918699
0.045998223
0.052683921
0.059923014
0.067585908
0.075431794
0.083049058
0.089770889
0.09456426
0.095898768
0.091641452
0.079136523
0.056059097
0.030534471
0.013941246
0.0079044949
0.0062741201
0.0056096261
0.0052331568
0.0048639869
0.0045601077
0.0044017561
0.0042770333
0.0042129016
0.0040857896
0.0040295957
0.019133053
0.02250171
0.026360427
0.030729754
0.035665242
0.041196421
0.047336874
0.054065859
0.061323535
0.068972953
0.076764082
0.084273562
0.090819819
0.095353248
0.096323758
0.091588222
0.078506889
0.054912903
0.029536424
0.013545553
0.0078086286
0.0062463413
0.0055931962
0.0052230568
0.0048568582
0.0045559931
0.0043994443
0.004274662
0.0042111202
0.0040857068
0.0040297774
0.019966521
0.023428233
0.027370067
0.031826977
0.036844186
0.042447449
0.048644142
0.055416712
0.062691155
0.070325733
0.078061598
0.085464035
0.091837749
0.096115003
0.096729388
0.091526803
0.07788458
0.053798642
0.028600792
0.013194151
0.0077257459
0.0062206281
0.0055773662
0.0052132669
0.0048501854
0.0045522102
0.0043972263
0.0042723449
0.0042093857
0.0040856039
0.0040299633
0.020783812
0.024334917
0.02835923
0.032901421
0.037997987
0.043671094
0.049922828
0.056735844
0.06402506
0.071643713
0.07932418
0.086621503
0.092825487
0.096851834
0.097118552
0.091460968
0.077273905
0.052719112
0.027728299
0.012884194
0.0076556545
0.0061968157
0.005562123
0.0052037612
0.0048439296
0.0045487437
0.0043951263
0.0042701182
0.004207697
0.0040854891
0.0040301533
0.02158597
0.025221882
0.029328033
0.033952462
0.039125649
0.044866386
0.051173664
0.058022332
0.065324411
0.072926329
0.080551978
0.087746074
0.093783587
0.097565779
0.09749416
0.091394486
0.076678945
0.051676778
0.026919211
0.012612863
0.0075962063
0.0061747693
0.0055474597
0.0051945219
0.0048380442
0.0045455531
0.0043931647
0.0042680158
0.0042060622
0.0040853618
0.0040303447
0.022374304
0.026089317
0.030276192
0.034979383
0.040226155
0.04603181
0.05239165
0.059272361
0.066588238
0.074173311
0.081745571
0.088837567
0.094713486
0.098258805
0.097859126
0.091331114
0.076103613
0.050673887
0.026173401
0.012377406
0.0075448153
0.0061543902
0.0055333745
0.0051855406
0.004832484
0.0045425812
0.0043913522
0.0042660561
0.004204484
0.0040852254
0.0040305363
0.02314953
0.026938405
0.031202851
0.035981394
0.041298515
0.047166221
0.053575861
0.060486254
0.067816016
0.075384835
0.0829041
0.089896863
0.095616371
0.098932888
0.098216343
0.091274582
0.075551697
0.049712498
0.025490441
0.012175187
0.0075012323
0.0061356073
0.0055198692
0.0051768178
0.0048272163
0.0045397369
0.0043896783
0.0042642444
0.0042029563
0.0040850777
0.0040307272
0.023911214
0.027770148
0.03210786
0.0369578
0.042341696
0.048268431
0.054725875
0.061668838
0.069006562
0.076559457
0.084026677
0.090924385
0.096493375
0.09958997
0.098568666
0.091228588
0.07502689
0.048794497
0.024869645
0.012005384
0.0074627038
0.0061180178
0.0055068497
0.0051683631
0.0048221768
0.0045369683
0.0043881191
0.0042625684
0.0042014814
0.0040849284
0.0040309168
0.024659895
0.028584703
0.032991027
0.037908224
0.043355271
0.049337879
0.055840792
0.062814807
0.070157645
0.077695711
0.085113492
0.091920419
0.097345571
0.10023193
0.098918888
0.091196762
0.074532811
0.047921749
0.024318249
0.011851848
0.0074234468
0.0061015324
0.0054943552
0.0051601927
0.0048173511
0.0045342192
0.004386648
0.0042610009
0.0042000621
0.0040847812
0.0040311045
0.025398607
0.029384426
0.033853975
0.038833648
0.044339835
0.050374677
0.056919978
0.063921389
0.071272697
0.078789873
0.086164182
0.092885251
0.098173955
0.10086057
0.099269711
0.091182835
0.074073264
0.047103531
0.023823336
0.011705009
0.0073855043
0.0060861719
0.0054823907
0.0051523285
0.0048127398
0.004531471
0.004385243
0.0042595154
0.0041987028
0.0040846437
0.00403129
0.026126616
0.030168956
0.034696444
0.039733175
0.045293622
0.051377035
0.057960307
0.064986494
0.072346609
0.07984887
0.087178264
0.09381911
0.098979425
0.10147757
0.099623706
0.091190383
0.073652544
0.046346009
0.02337711
0.011564554
0.0073486617
0.006071921
0.0054709855
0.005144795
0.0048083554
0.0045287284
0.0043838912
0.0042580943
0.0041974058
0.0040845236
0.004031473
0.026835728
0.030931866
0.035513396
0.040602776
0.046212473
0.052340051
0.058958833
0.066009561
0.073378319
0.080867889
0.088154074
0.0947221
0.099762773
0.1020845
0.099983305
0.091222607
0.07327525
0.045653392
0.022975125
0.011429752
0.007313291
0.0060587912
0.0054601521
0.0051376169
0.0048042147
0.0045260223
0.0043825849
0.0042567311
0.004196172
0.0040844236
0.0040316532
0.027513129
0.031660445
0.036293553
0.041433682
0.047090906
0.053260574
0.059914557
0.066989073
0.074366813
0.081845728
0.089095699
0.095590925
0.10052455
0.10268278
0.10035081
0.091282677
0.072946033
0.045028569
0.022613113
0.01129995
0.0072795627
0.0060467933
0.005449903
0.0051308136
0.0048003175
0.0045233965
0.0043813174
0.004255423
0.0041950027
0.0040843496
0.0040318306
0.028171523
0.032361332
0.037039479
0.042225813
0.047927886
0.054138213
0.060825777
0.067923651
0.075311
0.08278146
0.089999601
0.09643326
0.10126109
0.10327351
0.10072833
0.091373666
0.072669369
0.04447364
0.022287289
0.011174517
0.0072476844
0.0060359395
0.0054402411
0.0051243901
0.0047966359
0.004520886
0.0043800817
0.0042541642
0.0041939002
0.0040843003
0.0040320049
0.028823531
0.033045461
0.037759397
0.04298423
0.048725318
0.054972394
0.061691341
0.06881198
0.076209706
0.083674152
0.090865056
0.097244502
0.10198252
0.10385381
0.10111766
0.091498386
0.072449585
0.043990261
0.021994316
0.011052822
0.0072178534
0.0060262422
0.0054311469
0.0051183241
0.0047931394
0.004518499
0.0043788721
0.0042529455
0.0041928673
0.0040842726
0.0040321764
0.029468745
0.033714337
0.038455345
0.043710589
0.049483883
0.055762755
0.062510218
0.069652755
0.077061687
0.08452276
0.091691374
0.098024239
0.10268352
0.10443383
0.10151931
0.091659374
0.072290796
0.043579944
0.021731203
0.010934217
0.0071902851
0.0060177134
0.0054225691
0.0051125525
0.0047898043
0.0045162335
0.0043776882
0.0042517584
0.0041919052
0.0040842632
0.004032346
0.030104796
0.034366799
0.039127027
0.044404934
0.050203483
0.056508708
0.063281313
0.070444628
0.077865622
0.085326134
0.09247775
0.098772087
0.10336409
0.10500895
0.10193775
0.091858976
0.072196851
0.043244313
0.021495176
0.01081802
0.0071652229
0.0060103646
0.005414424
0.0051069641
0.0047866427
0.004514092
0.0043765452
0.0042506031
0.0041910116
0.0040842691
0.0040325104
0.030729519
0.035001146
0.039773258
0.045066456
0.05088341
0.057209338
0.064003418
0.071186186
0.078620107
0.086083025
0.093223247
0.09948751
0.10402418
0.10557965
0.10237247
0.092097844
0.072171252
0.042985319
0.021283533
0.010703495
0.0071429567
0.0060042114
0.0054066107
0.0051014115
0.0047837089
0.0045120869
0.004375474
0.0042494984
0.0041901802
0.0040842939
0.0040326686
0.031341429
0.035615905
0.04039271
0.045694018
0.051522638
0.05786351
0.064675244
0.07187593
0.079323629
0.086792086
0.093926803
0.10016981
0.10466355
0.10614622
0.10282439
0.092380717
0.072217183
0.042805459
0.021093494
0.010589826
0.0071238423
0.0059992791
0.005399045
0.005095748
0.0047810388
0.0045102235
0.0043745232
0.0042484777
0.0041894026
0.0040843283
0.0040328234
0.031939652
0.036209997
0.0409842
0.046286449
0.052120052
0.058469987
0.065295497
0.072512221
0.079974756
0.087454791
0.094591804
0.10082329
0.10528665
0.10671283
0.10329725
0.092709426
0.072338359
0.042708003
0.020922011
0.010476088
0.0071086225
0.0059956077
0.0053917012
0.0050898857
0.0047785911
0.0045084576
0.0043737376
0.0042475806
0.0041886708
0.0040843687
0.0040329742
0.032523844
0.036782719
0.041546742
0.046842644
0.052674574
0.059027495
0.065863185
0.073099831
0.080582661
0.088070313
0.095208982
0.10143594
0.10588239
0.10727052
0.10378462
0.093079992
0.072534567
0.042697912
0.020765554
0.010361181
0.0070969089
0.0059932372
0.0053846396
0.0050838519
0.0047762294
0.0045066968
0.0043731275
0.0042468355
0.0041879795
0.0040844127
0.0040331209
0.033094358
0.037333766
0.042079526
0.047361579
0.053185117
0.05953636
0.066384752
0.073634809
0.081124577
0.088626618
0.095778828
0.10201263
0.1064556
0.1078236
0.10429023
0.093495709
0.07280869
0.042779152
0.02061972
0.010243878
0.0070904962
0.0059922073
0.0053780004
0.0050778144
0.0047738126
0.0045048549
0.0043726506
0.0042462446
0.0041873277
0.0040844607
0.0040332634
0.033652779
0.037863442
0.04258191