/*--------------------------------*- C++ -*----------------------------------*\
| =========                 |                                                 |
| \\      /  F ield         | OpenFOAM: The Open Source CFD Toolbox           |
|  \\    /   O peration     | Version:  2406                                  |
|   \\  /    A nd           | Website:  www.openfoam.com                      |
|    \\/     M anipulation  |                                                 |
\*---------------------------------------------------------------------------*/
FoamFile
{
    version     2.0;
    format      ascii;
    arch        "LSB;label=32;scalar=64";
    class       volScalarField;
    location    "0.024";
    object      p;
}
// * * * * * * * * * * * * * * * * * * * * * * * * * * * * * * * * * * * * * //

dimensions      [1 -1 -2 0 0 0 0];

internalField   nonuniform List<scalar> 
35803
(
101179.9
101101.44
101056.57
100999.4
100941.45
100891.95
100854.64
100830.98
100820.49
100820.34
100831.26
100860.16
100901.27
100957.26
101018.41
101093.11
101163.12
101234.07
101262.42
101290.4
101313.13
101331.93
101352.36
101362.97
101377.46
101379.95
101399.46
101401.04
101426.21
101401.2
101386.04
101349.32
101279.42
101210.28
101134.54
101063.38
101002.14
100953.55
100919.44
100900.99
100890.58
100891.61
100911.44
100945.15
100993.93
101048.84
101116.23
101178.12
101243.83
101269.67
101296.87
101318.06
101335.77
101356.2
101365.64
101380.09
101382.5
101401.69
101402.99
101426.67
101401.57
101386.27
101452.81
101392.83
101318.49
101236.09
101158.64
101090.53
101034.28
100993.06
100965.78
100947.9
100939
100951.24
100978.68
101021.74
101073.06
101136.93
101194.74
101255.01
101279.04
101304.55
101323.87
101340.33
101360.63
101368.78
101382.69
101385.16
101403.96
101404.88
101427.09
101401.99
101386.66
101543.33
101487.67
101414.21
101329.64
101248.13
101174.67
101111.56
101061.72
101025.09
100999.82
100985.29
100990.61
101011.97
101049.49
101097.71
101158.65
101213.39
101267.28
101290.34
101313.33
101330.54
101345.59
101365.21
101372.28
101385.64
101387.82
101406.21
101406.69
101427.63
101402.47
101387.28
101629
101576.5
101505.75
101421.6
101338.16
101261.02
101192.48
101135.08
101090.13
101057.5
101037.48
101035.76
101050.72
101082.25
101126.85
101183.83
101234.72
101280.96
101303.59
101323.34
101338.2
101351.67
101369.89
101376.19
101389.13
101390.46
101408.26
101408.45
101428.32
101403.01
101387.57
101705.3
101656.2
101589.42
101507.98
101425.18
101346.75
101274.97
101212.28
101160.73
101121.43
101095.51
101086.82
101095.19
101120.44
101161.05
101213.01
101259.04
101296.64
101318.92
101334.75
101346.99
101358.66
101375.07
101380.67
101392.83
101393.19
101409.95
101410.19
101429.15
101403.62
101387.81
101769.02
101722.74
101660.98
101584.69
101505.42
101428.48
101356.1
101290.65
101234.6
101189.94
101158.5
101143.31
101145.2
101164.14
101200.63
101246.4
101286.54
101315.15
101336.37
101347.78
101357.05
101366.7
101381.13
101385.93
101396.77
101396.23
101411.39
101411.99
101430.13
101404.33
101388.04
101819.4
101773.21
101716.32
101648.34
101576.14
101503.85
101433.77
101368.31
101310.19
101261.95
101226.02
101205.18
101200.99
101213.85
101246.13
101284.27
101317.41
101337.83
101355.89
101362.65
101368.58
101375.91
101388.12
101392.05
101401.29
101399.64
101412.9
101413.9
101431.29
101405.17
101388.31
101856.19
101813.02
101762.21
101702.59
101638.32
101572.44
101506.92
101443.99
101386.28
101336.57
101297.66
101272.39
101262.83
101270.09
101297.77
101327.6
101351.55
101365.66
101377.45
101379.55
101381.76
101386.41
101396.07
101399.11
101406.43
101403.44
101414.82
101416.01
101432.7
101406.17
101388.65
101885.03
101844.7
101799.99
101748.44
101692.57
101634.36
101575.23
101517
101462.03
101413.07
101373
101344.78
101330.92
101333.35
101356.23
101376.81
101389.21
101398.27
101401.28
101398.63
101396.82
101398.38
101405.13
101407.17
101412.27
101407.9
101417.38
101418.41
101434.32
101407.39
101389.08
101906.83
101870.96
101831.37
101786.92
101739.84
101690.6
101639.43
101587.66
101537.41
101491.19
101451.83
101422.3
101405.49
101404.19
101421.97
101431.57
101432.42
101434.2
101427.82
101419.99
101413.92
101411.99
101415.48
101416.26
101418.91
101413.23
101420.58
101421.16
101436.04
101408.88
101389.71
101915.26
101900.24
101871.06
101831.45
101789.87
101747.66
101703.63
101658.46
101613.76
101571.61
101534.49
101505.24
101487.06
101483.29
101494.5
101491.54
101481.4
101472.03
101457.25
101443.67
101433.17
101427.45
101427.31
101426.37
101426.32
101419.36
101424.36
101424.38
101437.89
101410.7
101390.71
101936.4
101924.27
101905.01
101879.34
101846.78
101809.85
101771.25
101732
101693.02
101655.77
101622.26
101595.04
101577.23
101571.25
101571.54
101555.19
101532.74
101511.4
101489.01
101469.55
101454.62
101444.88
101440.74
101437.5
101434.47
101426.23
101428.85
101428.2
101439.81
101412.85
101392.36
101974.98
101964.62
101944.11
101918.55
101893.09
101865.9
101836.9
101806.6
101775.67
101745.49
101718.01
101695.07
101678.16
101664.85
101646.64
101616.92
101583.5
101551.44
101522.07
101497.53
101478.17
101464.27
101455.83
101449.63
101443.34
101433.83
101434.29
101432.75
101441.87
101415.29
101395
102018.62
102015.37
102004.55
101983.13
101955.73
101930.35
101909.24
101889.02
101866.98
101843.49
101820
101797.31
101774.77
101747.47
101712.13
101671.96
101630.52
101591.1
101556.1
101526.96
101503.47
101485.4
101472.57
101462.75
101453.06
101442.35
101441.11
101438.21
101444.46
101417.99
101398.96
102095.4
102099
102099.37
102094
102079.23
102054.57
102025.66
101996.15
101967.21
101938.59
101909.04
101876.95
101842.49
101805.46
101764.5
101719.98
101674.06
101629.67
101590.09
101557.1
101529.87
101507.92
101490.89
101477.03
101463.96
101452.14
101449.75
101444.74
101447.63
101421.07
101404.37
102108.4
102102.25
102092.8
102080.27
102070.42
102064.61
102058.52
102050.49
102033.03
102003.62
101969.56
101933.66
101893.42
101849.94
101806.11
101760.73
101713.2
101666.34
101623.78
101587.29
101556.8
101531.46
101510.5
101492.64
101476.4
101463.35
101460.15
101452.43
101451.62
101425.05
101411.11
102111.7
102105.85
102098.12
102088.6
102077.53
102064.17
102047.73
102028.48
102011.36
101996.84
101979.63
101960.35
101931.12
101886
101837.06
101790.52
101745
101699.49
101656.32
101617.31
101583.82
101555.55
101531.15
101509.71
101490.41
101475.83
101471.67
101461.24
101456.72
101430.44
101419.14
102093.73
102088.85
102082.84
102075.67
102067.24
102057.28
102045.44
102031.48
102016.25
102000.06
101980.66
101954.27
101927.73
101902.19
101860.08
101811.56
101766.71
101725.11
101684.96
101646.1
101610.37
101579.66
101552.73
101528.19
101505.79
101489.51
101483.82
101471.48
101464.21
101438.01
101431.1
102060.61
102056.29
102051.04
102044.9
102037.77
102029.47
102019.79
102008.55
101995.49
101980.18
101962.23
101941.83
101917.09
101891.9
101868.96
101831.1
101785.72
101743.82
101706.57
101670.76
101635.65
101602.78
101573.76
101547.37
101522.61
101504.61
101496.55
101484.1
101476.27
101449.28
101447.79
102018.21
102014.71
102010.43
102005.45
101999.67
101992.93
101985.05
101975.84
101965.06
101952.46
101937.75
101920.47
101900.94
101877.79
101854.36
101834.5
101804.24
101765.59
101725.54
101690.17
101656.86
101623.73
101592.68
101565
101539.69
101520.62
101510.32
101498.86
101493.35
101467.66
101469.28
101971.22
101968.48
101965.14
101961.28
101956.82
101951.62
101945.56
101938.48
101930.21
101920.57
101909.32
101896.31
101881.1
101864.03
101843.58
101821.99
101805.44
101782.2
101746.99
101708.71
101673.46
101640.76
101609.36
101580.35
101555.08
101536.83
101526.28
101514.47
101510.94
101490.86
101490.83
101929.94
101927.95
101925.54
101922.74
101919.5
101915.72
101911.3
101906.12
101900.05
101892.92
101884.57
101874.78
101863.39
101849.96
101834.94
101817.78
101795.46
101775.47
101757.41
101727.1
101690.34
101655.19
101623.95
101595.56
101571.05
101553.57
101543.2
101530.19
101527.55
101511.02
101516.86
101894.1
101892.54
101890.65
101888.46
101885.91
101882.95
101879.48
101875.42
101870.69
101865.15
101858.67
101851.1
101842.22
101831.87
101819.69
101805.65
101790.33
101770.04
101749.46
101732.08
101703.37
101669.63
101636.72
101609.7
101588.71
101571.88
101558.47
101544.78
101541.66
101526.47
101544.95
101854.25
101853.11
101851.72
101850.12
101848.28
101846.13
101843.64
101840.73
101837.3
101833.25
101828.47
101822.81
101816.13
101808.26
101798.94
101787.79
101774.8
101760.43
101742.01
101719.53
101700.65
101678.45
101650.97
101623.76
101603.95
101588.22
101572.5
101557.16
101553.56
101541.75
101576.65
101813.02
101812.26
101811.34
101810.28
101809.06
101807.61
101805.9
101803.86
101801.46
101798.6
101795.21
101791.19
101786.39
101780.69
101773.93
101765.94
101756.22
101744.41
101730.74
101717.01
101698.94
101680.82
101667.44
101644.88
101621.81
101603.96
101585.52
101569.09
101566.31
101552.97
101608.88
101782.7
101782.09
101781.36
101780.53
101779.56
101778.43
101777.1
101775.56
101773.74
101771.62
101769.15
101766.25
101762.83
101758.74
101753.83
101747.91
101741.17
101733.66
101725.66
101717.8
101709.02
101693.25
101673.53
101660.42
101642.94
101622.7
101604.35
101586.75
101582.21
101567.25
101613.96
101767.09
101766.55
101765.91
101765.17
101764.31
101763.3
101762.1
101760.68
101758.98
101756.94
101754.47
101751.45
101747.85
101743.68
101739.01
101734.04
101728.71
101722.83
101716.52
101708.86
101702.39
101696.23
101682.15
101667.25
101651.14
101633.03
101616.21
101599.39
101596.77
101581.33
101608.34
101749.36
101748.94
101748.44
101747.86
101747.18
101746.39
101745.46
101744.38
101743.11
101741.6
101739.76
101737.45
101734.58
101731.33
101727.92
101724.49
101720.6
101715.97
101710.26
101703.41
101695.34
101687.75
101678.16
101662.84
101648.24
101633.4
101618.91
101606.24
101600.93
101583.23
101606.66
101740.88
101740.55
101740.16
101739.71
101739.19
101738.58
101737.87
101737.03
101736.06
101734.92
101733.56
101731.96
101730.06
101727.89
101725.42
101722.43
101718.78
101714.39
101709.02
101702.63
101694.41
101683.89
101673.61
101663.24
101652.16
101639.98
101628.28
101616
101607.2
101595.01
101605.28
101734.23
101733.82
101733.4
101732.96
101732.49
101731.97
101731.38
101730.7
101729.89
101728.92
101727.77
101726.44
101724.9
101723.06
101720.86
101718.25
101715.14
101711.48
101707.54
101701.43
101697.14
101689.4
101676.64
101663.75
101646.91
101628.86
101620.6
101617.31
101610.74
101608.07
101603.28
100156.34
100160.23
100171.91
100181.96
100194.32
100208.36
100225.05
100242.23
100264.2
100294.88
100336.59
100390.24
100455.54
100531.3
100616.47
100706.21
100802.07
100896.25
100991.03
101071.56
101124.93
101182.45
101229.96
101263.15
101289.25
101300.21
101320.32
101324.02
101341.12
101354.02
101380.17
100165.92
100179.85
100200.32
100211.75
100224.07
100234.62
100243.89
100256.57
100277.75
100309.43
100352.88
100408.05
100474.45
100550.68
100635.47
100723.59
100817.38
100905.25
101000.2
101073.32
101128.1
101185.56
101232.44
101265.07
101290.7
101301.21
101322.49
101325.46
101341.89
101354.8
101379.96
100177.99
100196.56
100206.2
100210.28
100218.45
100229.19
100240.46
100256.15
100280.23
100314.45
100360.16
100417
100484.59
100561.45
100646.32
100733.88
100827.65
100913.85
101008.31
101076.27
101132.1
101188.98
101235.06
101267.08
101292.21
101302.25
101324.66
101326.92
101342.7
101355.47
101379.94
100187.56
100203.97
100204.84
100207.84
100215.59
100225.1
100236.6
100254.01
100280.16
100316.55
100364.25
100422.68
100491.5
100569.17
100654.43
100741.96
100836.35
100922.71
101015.6
101079.57
101136.35
101192.38
101237.68
101269.08
101293.72
101303.29
101326.77
101328.36
101343.55
101356.11
101380.25
100190.25
100200.56
100199.84
100202.81
100210.27
100219.49
100232.22
100251.75
100280.12
100318.84
100368.52
100428.63
100498.75
100577.3
100662.97
100750.48
100845.31
100932
101021.91
101082.85
101140.66
101195.76
101240.3
101271.1
101295.23
101304.33
101328.84
101329.77
101344.45
101356.75
101380.93
100186.82
100191.37
100192.1
100196.49
100203.75
100213.38
100227.81
100249.58
100280.33
100321.49
100373.2
100435.01
100506.41
100585.8
100671.81
100759.28
100854.37
100941.14
101027.75
101086.13
101145.02
101199.12
101242.91
101273.11
101296.74
101305.37
101330.86
101331.16
101345.42
101357.39
101381.91
100181.35
100181.64
100183.37
100188.58
100195.91
100206.59
100223.07
100247.24
100280.58
100324.21
100377.96
100441.49
100514.14
100594.32
100680.61
100768.07
100863.21
100950.13
101034.09
101089.44
101149.41
101202.45
101245.52
101275.14
101298.25
101306.42
101332.83
101332.54
101346.47
101358.02
101382.61
100174.06
100172.47
100173.88
100179
100186.9
100199.2
100218
100244.75
100280.84
100326.93
100382.76
100448
100521.86
100602.81
100689.37
100776.8
100871.7
100959.08
101041.16
101092.79
101153.83
101205.77
101248.14
101277.16
101299.76
101307.48
101334.75
101333.92
101347.62
101358.64
101382.89
100162.97
100160.54
100161.98
100167.64
100176.85
100191.26
100212.62
100242.17
100281.11
100329.67
100387.62
100454.57
100529.61
100611.32
100698.1
100785.48
100880.16
100967.63
101048.23
101096.35
101158.26
101209.06
101250.74
101279.19
101301.28
101308.56
101336.63
101335.33
101348.9
101359.27
101383.18
100148.75
100146.24
100148.2
100154.92
100165.96
100182.83
100206.99
100239.55
100281.4
100332.49
100392.59
100461.21
100537.41
100619.83
100706.8
100794.12
100888.72
100975.4
101054.78
101100.32
101162.68
101212.33
101253.35
101281.23
101302.79
101309.66
101338.46
101336.77
101350.34
101359.95
101383.6
100131.4
100129.46
100132.54
100140.9
100154.23
100173.91
100201.14
100236.93
100281.73
100335.4
100397.66
100467.94
100545.25
100628.36
100715.47
100802.77
100897.27
100982.76
101060.8
101104.71
101167.08
101215.59
101255.96
101283.27
101304.31
101310.78
101340.25
101338.25
101351.98
101360.73
101384.13
100111
100110.32
100115.08
100125.62
100141.71
100164.56
100195.17
100234.32
100282.14
100338.44
100402.85
100474.74
100553.13
100636.9
100724.11
100811.51
100905.56
100990.12
101066.38
101109.37
101171.44
101218.84
101258.56
101285.32
101305.83
101311.93
101341.99
101339.77
101353.86
101361.65
101384.73
100087.65
100088.79
100095.83
100109.11
100128.46
100154.85
100189.13
100231.76
100282.67
100341.64
100408.17
100481.64
100561.06
100645.44
100732.73
100820.29
100913.19
100997.58
101071.6
101114.16
101175.77
101222.07
101261.16
101287.37
101307.36
101313.11
101343.69
101341.34
101356
101362.77
101385.41
100061.29
100064.87
100074.83
100091.48
100114.58
100144.88
100183.07
100229.29
100283.38
100345.02
100413.64
100488.64
100569.04
100654
100741.32
100828.99
100920.66
101005.15
101076.58
101119.07
101180.06
101225.29
101263.76
101289.42
101308.9
101314.31
101345.36
101342.95
101358.41
101364.08
101386.17
100031.89
100038.6
100052.2
100072.84
100100.18
100134.76
100177.07
100226.98
100284.31
100348.6
100419.27
100495.73
100577.07
100662.56
100749.9
100837.99
100928.05
101012.5
101081.38
101124.12
101184.3
101228.49
101266.36
101291.48
101310.45
101315.55
101346.99
101344.6
101361.03
101365.55
101387.1
99999.487
100010.12
100028.1
100053.36
100085.41
100124.62
100171.2
100224.92
100285.5
100352.41
100425.07
100502.94
100585.16
100671.12
100758.49
100847.13
100934.97
101019.75
101086.08
101129.24
101188.51
101231.69
101268.96
101293.54
101312.02
101316.83
101348.58
101346.26
101363.72
101367.1
101387.65
99964.198
99979.628
100002.76
100033.26
100070.46
100114.59
100165.58
100223.18
100287.01
100356.48
100431.07
100510.27
100593.3
100679.7
100767.15
100856.39
100942.24
101026.92
101090.73
101134.41
101192.67
101234.88
101271.55
101295.61
101313.61
101318.14
101350.16
101347.93
101366.39
101368.64
101388.09
99926.279
99947.441
99976.491
100012.8
100055.56
100104.8
100160.33
100221.84
100288.87
100360.84
100437.27
100517.73
100601.5
100688.28
100775.94
100865.29
100950.03
101034.02
101095.37
101139.6
101196.79
101238.06
101274.14
101297.69
101315.22
101319.5
101351.71
101349.61
101369.02
101370.09
101388.56
99886.188
99914.027
99949.706
99992.306
100040.94
100095.45
100155.58
100220.98
100291.14
100365.51
100443.69
100525.32
100609.76
100696.86
100784.57
100873.74
100957.78
101041.03
101100
101144.82
101200.87
101241.23
101276.72
101299.77
101316.86
101320.9
101353.24
101351.28
101371.63
101371.41
101389.1
99844.645
99880.024
99922.91
99972.167
100026.87
100086.74
100151.47
100220.68
100293.86
100370.53
100450.34
100533.04
100618.07
100705.46
100793.3
100881.95
100965.62
101047.79
101104.66
101150.06
101204.91
101244.4
101279.3
101301.85
101318.53
101322.34
101354.76
101352.95
101374.22
101372.57
101389.73
99802.647
99846.237
99896.693
99952.812
100013.65
100078.88
100148.12
100221.02
100297.1
100375.91
100457.25
100540.91
100626.44
100714.23
100802.25
100889.85
100973.92
101054.15
101109.36
101155.32
101208.91
101247.55
101281.88
101303.94
101320.24
101323.84
101356.28
101354.61
101376.79
101373.59
101390.43
99761.396
99813.617
99871.695
99934.681
100001.6
100072.1
100145.68
100222.1
100300.9
100381.7
100464.42
100548.92
100634.91
100723.38
100810.64
100897.38
100981.82
101060.49
101114.14
101160.58
101212.87
101250.69
101284.45
101306.03
101321.98
101325.39
101357.79
101356.27
101379.32
101374.46
101390.79
99722.247
99783.226
99848.548
99918.223
99991.079
100066.65
100144.29
100223.99
100305.32
100387.92
100471.86
100557.09
100643.66
100732.43
100818.53
100905.12
100988.96
101067.13
101119
101165.84
101216.79
101253.83
101287.02
101308.13
101323.76
101326.99
101359.31
101357.91
101381.83
101375.21
101391.03
99686.52
99755.928
99827.911
99903.933
99982.427
100062.75
100144.08
100226.79
100310.4
100394.58
100479.57
100565.56
100653.03
100740.87
100826.52
100912.83
100995.76
101074.17
101123.96
101171.09
101220.68
101256.95
101289.58
101310.23
101325.58
101328.65
101360.83
101359.56
101384.3
101375.89
101391.17
99654.706
99731.762
99810.934
99892.446
99975.979
100060.56
100145.23
100230.59
100316.18
100401.7
100487.67
100574.69
100662.26
100748.71
100834.91
100920.46
101002.64
101081.43
101129.01
101176.33
101224.54
101260.07
101292.13
101312.33
101327.45
101330.37
101362.36
101361.19
101386.74
101376.56
101391.19
99628.538
99712.665
99797.758
99884.203
99971.881
100060.08
100147.92
100235.5
100322.72
100409.36
100496.51
100584.7
100670.49
100756.75
100843.25
100928
101009.58
101088.61
101134.17
101181.54
101228.36
101263.17
101294.68
101314.44
101329.37
101332.14
101363.9
101362.82
101389.15
101377.3
101391.1
99608.923
99699.127
99788.915
99879.416
99970.593
100061.76
100152
100241.52
100330.19
100417.92
100506.66
100593.35
100677.91
100765.43
100851.51
100935.47
101016.53
101095.62
101139.46
101186.72
101232.16
101266.26
101297.22
101316.54
101331.34
101333.98
101365.46
101364.45
101391.53
101378.22
101390.98
99596.504
99691.649
99784.914
99878.448
99972.301
100065.68
100157.69
100248.76
100338.99
100428.2
100516.48
100600.96
100686.82
100774.15
100859.73
100942.86
101023.47
101102.47
101144.87
101191.87
101235.93
101269.33
101299.75
101318.65
101333.36
101335.87
101367.01
101366.09
101393.86
101379.35
101390.81
99591.826
99690.675
99786.117
99881.563
99977.178
100072.04
100165.36
100257.97
100349.9
100439.54
100524.52
100609.24
100695.91
100782.84
100867.92
100950.17
101030.4
101109.19
101150.37
101196.98
101239.67
101272.39
101302.27
101320.76
101335.43
101337.81
101368.57
101367.72
101396.15
101380.72
101390.6
99595.391
99696.618
99792.845
99889.038
99985.588
100081.55
100176.26
100270.4
100361.95
100448.18
100532.06
100618.84
100704.99
100791.53
100876.09
100957.39
101037.28
101115.8
101155.93
101202.06
101243.39
101275.43
101304.78
101322.86
101337.53
101339.81
101370.12
101369.35
101398.39
101382.31
101390.36
99607.91
99710.223
99805.843
99901.752
99998.588
100095.66
100191.96
100284.02
100369.78
100455.9
100542.31
100628.7
100714.15
100800.27
100884.25
100964.58
101044.09
101122.33
101161.53
101207.09
101247.08
101278.46
101307.28
101324.96
101339.67
101341.84
101371.68
101370.98
101400.56
101384.06
101390.1
99630.144
99732.521
99826.648
99921.687
100017.76
100113.69
100207.16
100293.05
100378.24
100467.22
100553.16
100638.69
100723.43
100809.04
100892.4
100971.8
101050.85
101128.79
101167.14
101212.06
101250.75
101281.46
101309.77
101327.06
101341.82
101343.91
101373.23
101372.61
101402.66
101385.88
101389.83
99659.144
99761.008
99852.728
99945.677
100039.13
100130.72
100216.97
100302.49
100391.37
100479.6
100564.28
100648.89
100732.81
100817.85
100900.52
100978.81
101057.58
101135.18
101172.75
101216.96
101254.38
101284.45
101312.24
101329.15
101343.98
101345.98
101374.78
101374.23
101404.67
101387.62
101389.54
99689.037
99790.478
99878.78
99967.567
100057.25
100143.02
100228.79
100317.94
100405.84
100492.56
100575.83
100659.36
100742.31
100826.7
100908.55
100985.55
101064.38
101141.51
101178.34
101221.8
101258
101287.42
101314.7
101331.23
101346.11
101348.05
101376.31
101375.84
101406.6
101389.19
101389.26
99724.069
99821.534
99904.55
99988.602
100073.73
100160.17
100248.97
100335.54
100421.19
100506.29
100587.9
100670.09
100751.91
100835.57
100916.48
100992.34
101071.19
101147.77
101183.9
101226.56
101261.58
101290.36
101317.15
101333.31
101348.22
101350.11
101377.83
101377.44
101408.42
101390.55
101388.99
99781.971
99871.815
99946.737
100023.99
100104.73
100188.36
100272.41
100354.68
100437.68
100520.88
100600.51
100681.09
100761.64
100844.47
100924.36
100999.24
101077.86
101153.96
101189.43
101231.26
101265.15
101293.28
101319.58
101335.37
101350.27
101352.14
101379.33
101379.04
101410.16
101391.72
101388.74
99852.371
99933.827
99999.626
100068.92
100143.02
100220.13
100298.15
100375.58
100455.47
100536.35
100613.69
100692.38
100771.48
100853.39
100932.18
101006.1
101084.38
101160.07
101194.93
101235.87
101268.69
101296.17
101321.99
101337.42
101352.24
101354.13
101380.8
101380.62
101411.8
101392.71
101388.52
99924.821
99999.548
100056.7
100117.96
100184.6
100254.65
100326.37
100398.36
100474.6
100552.69
100627.45
100703.96
100781.44
100862.32
100939.93
101012.94
101090.75
101166.1
101200.39
101240.41
101272.21
101299.04
101324.38
101339.45
101354.13
101356.09
101382.25
101382.19
101413.36
101393.57
101388.34
100001.67
100070.07
100118.47
100171.26
100229.87
100292.4
100357.17
100423.02
100495.13
100569.9
100641.82
100715.85
100791.52
100871.26
100947.61
101019.76
101096.98
101172.04
101205.81
101244.87
101275.7
101301.89
101326.75
101341.47
101355.93
101357.99
101383.68
101383.75
101414.83
101394.36
101388.27
100084.8
100146.71
100185.84
100229.44
100279.25
100333.53
100390.52
100449.57
100517.12
100587.97
100656.83
100728.08
100801.73
100880.19
100955.21
101026.58
101103.04
101177.87
101211.17
101249.25
101279.17
101304.7
101329.1
101343.48
101357.65
101359.86
101385.09
101385.3
101416.22
101395.1
101388.02
100175.91
100230.45
100259.33
100292.74
100332.85
100378.03
100426.33
100478.04
100540.66
100606.89
100672.48
100740.65
100812.07
100889.1
100962.72
101033.41
101108.91
101183.59
101216.48
101253.55
101282.61
101307.49
101331.43
101345.47
101359.29
101361.68
101386.47
101386.83
101417.54
101395.8
101387.73
100276.21
100321.85
100339.15
100361.17
100390.59
100425.8
100464.5
100508.67
100565.7
100626.65
100688.79
100753.58
100822.54
100897.98
100970.12
101040.27
101114.65
101189.18
101221.72
101257.77
101286.03
101310.25
101333.74
101347.44
101360.86
101363.48
101387.8
101388.34
101418.78
101396.48
101387.41
100385.33
100420.51
100424.95
100434.43
100452.26
100476.58
100505.02
100541.99
100591.8
100647.23
100705.77
100766.9
100833.15
100906.81
100977.37
101047.16
101120.41
101194.63
101226.89
101261.92
101289.41
101312.98
101336.03
101349.4
101362.39
101365.25
101389.08
101389.81
101419.95
101397.13
101387.07
100500.81
100524.68
100515.64
100511.83
100517.38
100529.95
100548.46
100577.77
100618.43
100668.71
100723.41
100780.6
100843.88
100915.55
100984.44
101054.11
101126.26
101199.93
101231.98
101265.99
101292.78
101315.69
101338.3
101351.34
101363.95
101367.04
101390.3
101391.25
101421.05
101397.75
101386.74
100618.95
100631.46
100609.44
100592.24
100585.14
100585.53
100595.56
100615
100645.75
100690.87
100741.72
100794.74
100854.77
100924.21
100991.3
101061.13
101132.07
101205.07
101237
101269.99
101296.11
101318.37
101340.54
101353.26
101365.62
101368.86
101391.48
101392.68
101422.08
101398.36
101386.44
100737.22
100738.17
100704.65
100674.6
100654.71
100645.22
100645.96
100653.38
100674.66
100713.91
100760.99
100809.63
100866.12
100933.01
100998.11
101068.26
101137.81
101209.96
101241.9
101273.89
101299.4
101321
101342.71
101355.15
101367.46
101370.76
101392.66
101394.11
101423.04
101398.96
101386.17
100858.7
100846.22
100802.93
100761.36
100730.64
100711.04
100700.05
100696.69
100708.51
100739.94
100782.5
100826.44
100878.93
100942.77
101005.56
101075.72
101143.51
101214.35
101246.52
101277.63
101302.61
101323.57
101344.83
101356.99
101369.56
101372.8
101393.96
101395.61
101423.92
101399.53
101385.94
100992.8
100965.21
100915.88
100863.78
100820.7
100788.39
100765.54
100751.55
100755.3
100774.54
100808.88
100847.22
100894.89
100954.9
101014.92
101084.06
101149.33
101218.1
101250.61
101281.14
101305.71
101326.06
101346.93
101358.8
101371.96
101375.03
101395.5
101397.26
101424.76
101400.07
101385.77
101127.99
101094.24
101049.76
100989.59
100931.23
100882.6
100845.78
100821.79
100815.17
100822.07
100840.98
100872.11
100914.03
100969.47
101026.5
101093.64
101155.84
101222.49
101254.54
101284.79
101308.92
101328.64
101349.26
101360.7
101374.64
101377.44
101397.35
101399.1
101425.55
101400.61
101385.74
100190.73
100204.41
100218.69
100229.69
100235.92
100243.25
100254
100267.93
100288.24
100317.68
100357.84
100409.48
100472.56
100545.87
100628.15
100714.87
100805.75
100898.36
100980.87
101064.64
101119.48
101178.87
101227.38
101261.19
101287.74
101299.17
101318.14
101322.64
101340.38
101353.28
101379.68
100182.04
100193.03
100208.04
100226.19
100236.37
100244.1
100254.02
100267.8
100288.01
100317.08
100356.59
100407.5
100469.85
100542.49
100624.16
100710.77
100801.32
100896.72
100976.46
101063.27
101117.6
101176.95
101225.7
101259.78
101286.57
101298.37
101316.22
101321.5
101339.83
101352.94
101379.15
100177.94
100186.76
100200.68
100219.7
100231.5
100240.66
100252.56
100267.79
100288.76
100317.96
100357.11
100407.33
100468.83
100540.6
100621.44
100707.7
100797.76
100894.22
100974.03
101061.65
101115.76
101175.24
101224.17
101258.47
101285.45
101297.61
101314.56
101320.55
101339.31
101352.67
101378.36
100178.83
100187.44
100200.39
100217.4
100229.43
100240.21
100253.78
100270.23
100291.87
100321.19
100359.96
100409.4
100469.9
100540.59
100620.34
100705.92
100795.17
100891.69
100971.63
101059.46
101113.57
101173.34
101222.56
101257.09
101284.29
101296.8
101313.2
101319.79
101338.77
101352.32
101377.32
100180
100188.69
100201.07
100216.91
100229.41
100241.34
100255.88
100273.2
100295.44
100324.9
100363.38
100412.12
100471.67
100541.29
100619.93
100704.73
100793.08
100889.29
100969.04
101057.08
101111.27
101171.33
101220.87
101255.67
101283.1
101295.96
101312.12
101319.17
101338.23
101351.9
101376.07
100180.32
100188.99
100200.84
100216.23
100229.52
100242.36
100257.6
100275.75
100298.62
100328.32
100366.61
100414.79
100473.49
100542.13
100619.69
100703.71
100791.2
100887.01
100966.39
101054.66
101109.03
101169.32
101219.18
101254.23
101281.9
101295.11
101311.23
101318.63
101337.69
101351.46
101374.69
100180.25
100188.77
100200.14
100215.13
100229.2
100242.91
100258.85
100277.87
100301.41
100331.44
100369.63
100417.34
100475.27
100542.99
100619.52
100702.78
100789.45
100884.82
100963.8
101052.17
101106.85
101167.33
101217.5
101252.8
101280.7
101294.25
101310.44
101318.13
101337.14
101351.03
101373.5
100179.99
100188.36
100199.33
100213.89
100228.62
100243.16
100259.81
100279.71
100303.95
100334.35
100372.52
100419.84
100477.07
100543.91
100619.45
100701.94
100787.82
100882.71
100961.3
101049.62
101104.7
101165.35
101215.83
101251.38
101279.49
101293.38
101309.71
101317.63
101336.59
101350.6
101372.38
100179.6
100187.87
100198.5
100212.6
100227.92
100243.29
100260.61
100281.39
100306.32
100337.13
100375.34
100422.32
100478.91
100544.92
100619.49
100701.21
100786.31
100880.68
100958.89
101047.08
101102.59
101163.39
101214.16
101249.95
101278.29
101292.51
101309
101317.14
101336.04
101350.18
101371.29
100179.16
100187.33
100197.66
100211.28
100227.15
100243.32
100261.31
100282.93
100308.56
100339.8
100378.09
100424.8
100480.8
100546.01
100619.64
100700.6
100784.93
100878.73
100956.58
101044.55
101100.48
101161.43
101212.5
101248.52
101277.09
101291.63
101308.3
101316.65
101335.49
101349.74
101370.22
100178.74
100186.75
100196.81
100210.01
100226.39
100243.32
100261.97
100284.39
100310.7
100342.39
100380.8
100427.29
100482.74
100547.19
100619.92
100700.1
100783.68
100876.86
100954.4
101041.99
101098.4
101159.49
101210.85
101247.09
101275.88
101290.74
101307.61
101316.15
101334.93
101349.31
101369.17
100178.38
100186.22
100196.03
100208.96
100225.73
100243.32
100262.64
100285.8
100312.78
100344.92
100383.48
100429.79
100484.74
100548.47
100620.32
100699.72
100782.57
100875.06
100952.4
101039.41
101096.34
101157.57
101209.21
101245.67
101274.67
101289.84
101306.92
101315.65
101334.38
101348.88
101368.12
100178.18
100185.86
100195.45
100208.3
100225.24
100243.33
100263.35
100287.21
100314.83
100347.42
100386.16
100432.32
100486.81
100549.84
100620.83
100699.47
100781.58
100873.36
100950.49
101036.79
101094.29
101155.66
101207.57
101244.24
101273.47
101288.94
101306.23
101315.15
101333.81
101348.44
101367.09
100178.21
100185.78
100195.21
100208.02
100224.96
100243.45
100264.15
100288.65
100316.89
100349.93
100388.85
100434.89
100488.95
100551.32
100621.48
100699.34
100780.73
100871.95
100948.73
101034.24
101092.25
101153.77
101205.95
101242.81
101272.25
101288.02
101305.54
101314.65
101333.25
101348
101366.06
100178.52
100186
100195.31
100208.04
100224.92
100243.79
100265.09
100290.18
100319.01
100352.47
100391.58
100437.51
100491.17
100552.9
100622.26
100699.33
100780.02
100870.66
100947.23
101032.1
101090.24
101151.9
101204.33
101241.39
101271.04
101287.1
101304.85
101314.14
101332.68
101347.56
101365.04
100179.14
100186.55
100195.74