/*--------------------------------*- C++ -*----------------------------------*\
| =========                 |                                                 |
| \\      /  F ield         | OpenFOAM: The Open Source CFD Toolbox           |
|  \\    /   O peration     | Version:  2406                                  |
|   \\  /    A nd           | Website:  www.openfoam.com                      |
|    \\/     M anipulation  |                                                 |
\*---------------------------------------------------------------------------*/
FoamFile
{
    version     2.0;
    format      ascii;
    arch        "LSB;label=32;scalar=64";
    class       volScalarField;
    location    "0.024";
    object      T;
}
// * * * * * * * * * * * * * * * * * * * * * * * * * * * * * * * * * * * * * //

dimensions      [0 0 0 1 0 0 0];

internalField   nonuniform List<scalar> 
35803
(
292.47174
292.47528
292.48034
292.48957
292.50237
292.51753
292.53394
292.55044
292.5657
292.5781
292.58635
292.58915
292.58568
292.57505
292.55768
292.53256
292.50313
292.4886
292.55037
292.63101
292.67178
292.70061
292.72973
292.74585
292.76496
292.78385
292.80897
292.82277
292.84649
292.85205
292.99718
292.52943
292.52762
292.5289
292.53389
292.5417
292.55165
292.56298
292.57475
292.58556
292.5942
292.59919
292.59941
292.59383
292.58157
292.56284
292.53687
292.50766
292.49549
292.56111
292.63834
292.67628
292.70393
292.73259
292.74792
292.76671
292.78507
292.81002
292.82377
292.84684
292.85243
292.99674
292.59405
292.58864
292.5855
292.58545
292.58776
292.59204
292.59777
292.60409
292.60999
292.61421
292.61555
292.61261
292.60444
292.59013
292.56962
292.54248
292.51309
292.50399
292.57361
292.64633
292.68118
292.7075
292.73598
292.7503
292.7682
292.78632
292.81117
292.8248
292.84711
292.85272
292.99601
292.66158
292.65326
292.6462
292.64146
292.63857
292.63731
292.63739
292.63819
292.63886
292.63822
292.63518
292.62857
292.61736
292.6006
292.57798
292.5493
292.5196
292.51467
292.5881
292.65527
292.68678
292.71166
292.73972
292.75313
292.76995
292.78776
292.81243
292.82581
292.84753
292.85298
292.99521
292.73207
292.72081
292.7102
292.70114
292.69339
292.68683
292.68132
292.67649
292.67164
292.66579
292.65798
292.64726
292.63257
292.61296
292.5879
292.55753
292.52785
292.52826
292.60488
292.66522
292.69319
292.71647
292.74333
292.75627
292.7728
292.78926
292.81369
292.82681
292.84809
292.85325
292.99483
292.80542
292.79145
292.7776
292.7646
292.75229
292.74065
292.72966
292.71911
292.70852
292.69718
292.68428
292.66903
292.65042
292.62754
292.59968
292.56748
292.53812
292.54576
292.62412
292.67626
292.70048
292.722
292.74712
292.75981
292.77629
292.79088
292.81488
292.82782
292.84882
292.85351
292.99399
292.88015
292.86416
292.84766
292.83125
292.81484
292.79848
292.78223
292.76605
292.74968
292.73267
292.71442
292.69426
292.67131
292.64474
292.61369
292.57961
292.55116
292.56837
292.64577
292.68844
292.70877
292.72837
292.75193
292.76401
292.77981
292.79298
292.81584
292.82888
292.84968
292.85375
292.99304
292.95452
292.9373
292.91895
292.89979
292.87988
292.85934
292.8383
292.81684
292.79488
292.77222
292.74849
292.72317
292.69556
292.66492
292.63034
292.59444
292.56812
292.59673
292.66943
292.70192
292.71819
292.73566
292.75753
292.76893
292.78373
292.79575
292.81687
292.83004
292.85064
292.85398
292.992
293.02652
293.00855
292.98896
292.9679
292.94541
292.92157
292.89654
292.87046
292.84343
292.81543
292.78632
292.7558
292.72336
292.6884
292.6501
292.6126
292.591
292.63206
292.69443
292.71685
292.72888
292.74399
292.76392
292.77466
292.78809
292.79889
292.81823
292.83139
292.85175
292.85421
292.99087
293.09408
293.07591
293.05574
293.0336
293.00944
292.98328
292.95524
292.92547
292.89416
292.86146
292.82742
292.79194
292.75475
292.71543
292.67345
292.63518
292.62308
292.67434
292.7201
292.73335
292.74104
292.75346
292.7712
292.78124
292.79308
292.80244
292.82035
292.83301
292.85319
292.85443
292.98962
293.15554
293.13757
293.11742
293.09492
293.0699
293.04234
293.01231
292.97994
292.94543
292.909
292.87084
292.83104
292.78954
292.74616
292.70107
292.66458
292.66918
292.72141
292.74632
292.75154
292.75482
292.76426
292.77948
292.7887
292.79872
292.80678
292.82303
292.83502
292.85462
292.85469
292.98822
293.20937
293.19138
293.1713
293.14892
293.12386
293.09594
293.06514
293.0315
292.99515
292.95631
292.91524
292.87216
292.82725
292.78071
292.73458
292.70676
292.73151
292.76739
292.77328
292.77152
292.77025
292.7767
292.78897
292.79707
292.80489
292.81171
292.82617
292.83754
292.85594
292.85499
292.98666
293.25324
293.23597
293.21638
293.19429
293.16964
293.14221
293.11175
293.07813
293.04137
293.00159
292.95905
292.91411
292.86727
292.81998
292.77969
292.77316
292.80075
292.80958
292.80142
292.79327
292.78759
292.7908
292.79985
292.80642
292.81175
292.81736
292.82988
292.84063
292.85723
292.85541
292.98497
293.28549
293.26978
293.25196
293.23164
293.20838
293.182
293.15238
293.11945
293.08318
293.0437
293.00131
292.95671
292.91159
292.8708
292.84981
292.86084
292.86273
292.84706
292.8306
292.81679
292.80691
292.8067
292.81232
292.81673
292.8192
292.82358
292.83435
292.84426
292.85832
292.85599
292.9833
293.30467
293.29033
293.27395
293.25549
293.23465
293.21088
293.18381
293.15343
293.11997
293.08375
293.04537
293.00666
292.97193
292.9498
292.94444
292.93398
292.90894
292.8828
292.86007
292.84184
292.82827
292.8243
292.8265
292.82804
292.82755
292.83052
292.84003
292.84869
292.85987
292.85673
292.98182
293.31699
293.30382
293.28858
293.27131
293.25233
293.23197
293.21006
293.18623
293.16043
293.13318
293.10582
293.08022
293.05824
293.04019
293.01634
292.9813
292.94801
292.91652
292.88979
292.86783
292.85108
292.84394
292.84239
292.8404
292.83683
292.83843
292.84702
292.85393
292.86165
292.85776
292.98055
293.34037
293.33297
293.32463
293.31493
293.30278
293.28712
293.26775
293.24497
293.2207
293.19758
293.17523
293.15123
293.1243
293.09363
293.05931
293.02247
292.9845
292.94971
292.91921
292.89425
292.87494
292.86503
292.86007
292.85399
292.84714
292.84752
292.8553
292.86007
292.86395
292.85956
292.97898
293.32072
293.31484
293.30843
293.30165
293.29475
293.2881
293.28196
293.27579
293.26545
293.24667
293.22109
293.18983
293.15733
293.12381
293.09008
293.05683
293.01879
292.98264
292.95022
292.92137
292.89958
292.88725
292.87896
292.86881
292.85884
292.85759
292.86439
292.86723
292.86708
292.86286
292.97544
293.31859
293.31346
293.30728
293.29978
293.29065
293.27955
293.26624
293.25115
293.2361
293.22153
293.20642
293.19337
293.17438
293.14053
293.10671
293.07368
293.04264
293.01077
292.97954
292.94889
292.92448
292.90989
292.89858
292.88472
292.87198
292.86869
292.87397
292.87523
292.87211
292.86812
292.9711
293.2822
293.27863
293.27461
293.27005
293.26491
293.25911
293.25251
293.24473
293.23529
293.22368
293.20859
293.18695
293.16464
293.14636
293.11592
293.08405
293.05242
293.02518
292.99968
292.97303
292.94815
292.93164
292.91821
292.90115
292.8863
292.88083
292.88403
292.88504
292.8805
292.87588
292.97418
293.25587
293.25273
293.24902
293.2446
293.23932
293.23298
293.22541
293.2165
293.20625
293.19477
293.18248
293.17064
293.15706
293.1416
293.12559
293.09301
293.06204
293.03408
293.00799
292.98684
292.96684
292.94968
292.93472
292.91678
292.90067
292.89329
292.89479
292.89593
292.89262
292.88645
292.982
293.20857
293.20652
293.20418
293.20151
293.1985
293.19512
293.19132
293.18698
293.18189
293.1756
293.16736
293.15597
293.14183
293.12518
293.11038
293.10204
293.07648
293.04539
293.01851
292.99377
292.97587
292.96196
292.94687
292.92932
292.91341
292.90528
292.90652
292.90679
292.90519
292.90069
292.99017
293.17742
293.17573
293.17373
293.17133
293.16845
293.16496
293.16075
293.1557
293.14976
293.14295
293.13552
293.12784
293.11958
293.10986
293.09675
293.08415
293.07899
293.06008
293.03093
293.00566
292.98376
292.96704
292.95479
292.94042
292.9248
292.91722
292.91852
292.91695
292.91674
292.91495
292.99919
293.13609
293.13506
293.13388
293.13252
293.13096
293.1292
293.12723
293.12504
293.12255
293.11959
293.11575
293.11043
293.10353
293.09552
293.08613
293.07139
293.05568
293.05131
293.0422
293.01615
292.99139
292.97288
292.9587
292.94959
292.93623
292.92964
292.92804
292.92516
292.92574
292.92363
293.00339
293.10543
293.10459
293.10356
293.10229
293.10072
293.09878
293.09638
293.09339
293.08976
293.08553
293.08091
293.07618
293.07139
293.06611
293.06041
293.05566
293.0468
293.03191
293.0251
293.02023
292.9983
292.97707
292.96548
292.95639
292.94557
292.94037
292.93597
292.93098
292.9326
292.92812
293.01343
293.05671
293.05632
293.05587
293.05536
293.05477
293.0541
293.05339
293.05267
293.05196
293.05119
293.05024
293.04887
293.04676
293.04366
293.03924
293.03342
293.02866
293.02195
293.00825
293.00294
293.00075
292.98745
292.97844
292.9693
292.95727
292.95024
292.9435
292.93662
292.9423
292.93579
293.03256
293.03459
293.03446
293.0343
293.03411
293.03389
293.03361
293.03326
293.03282
293.03224
293.03149
293.0305
293.02923
293.02778
293.02623
293.02434
293.02137
293.01639
293.01137
293.00673
292.99835
292.99007
292.98421
292.982
292.98155
292.97455
292.96368
292.95846
292.94847
292.95657
292.94743
293.02762
293.01341
293.01335
293.01329
293.0132
293.01309
293.01295
293.01277
293.01254
293.01226
293.01192
293.0115
293.01096
293.01016
293.00896
293.00729
293.00543
293.00299
292.99938
292.99481
292.99072
292.98699
292.98636
292.98473
292.98738
292.98526
292.97525
292.97243
292.95997
292.97171
292.96753
293.01649
293.00796
293.00801
293.00805
293.00808
293.00808
293.00805
293.00797
293.00783
293.00758
293.0072
293.00665
293.00594
293.00502
293.00392
293.00267
293.00126
292.99935
292.99736
292.99556
292.99418
292.99314
292.99003
292.98335
292.98547
292.98865
292.98042
292.9795
292.97029
292.97798
292.97538
293.01259
293.00318
293.00314
293.0031
293.00306
293.00301
293.00295
293.00288
293.00279
293.00266
293.00247
293.00221
293.00192
293.00176
293.00179
293.00207
293.00254
293.00304
293.00327
293.00276
293.00131
293.00042
293.00264
292.99901
292.99851
293.00111
292.99176
292.9921
292.98624
292.98344
292.98704
293.0074
293.02159
293.02178
293.022
293.02224
293.0225
293.02278
293.02306
293.02332
293.02356
293.02376
293.02391
293.02403
293.02411
293.02413
293.02399
293.02349
293.02249
293.02091
293.01854
293.01552
293.01135
293.01191
293.01433
293.01566
293.01639
293.00856
293.00921
293.00838
292.99993
293.00385
293.00356
293.07111
293.15112
293.26075
293.3181
293.27958
293.1855
293.07232
292.9676
292.87888
292.80405
292.73994
292.68419
292.63523
292.59147
292.55043
292.51022
292.46696
292.42195
292.37482
292.37634
292.45316
292.55287
292.61691
292.6539
292.6867
292.71657
292.75598
292.76781
292.78755
292.81124
293.0247
293.11722
293.20602
293.27772
293.27041
293.2128
293.12189
293.02205
292.93047
292.85105
292.78247
292.72274
292.67032
292.62406
292.58245
292.54309
292.50416
292.46174
292.41776
292.3733
292.37807
292.45981
292.55802
292.61995
292.65604
292.68847
292.7179
292.75804
292.76914
292.78836
292.81181
293.02696
293.1782
293.26521
293.29285
293.25793
293.17911
293.0807
292.98532
292.90102
292.82768
292.76369
292.70746
292.65794
292.61409
292.57443
292.53658
292.49878
292.45708
292.41391
292.37205
292.38017
292.46653
292.56293
292.62279
292.65806
292.69016
292.71914
292.75993
292.77036
292.78918
292.81255
293.02825
293.25243
293.30552
293.29188
293.22847
293.13597
293.03956
292.95178
292.87449
292.80641
292.74637
292.69329
292.64643
292.60483
292.567
292.53056
292.49379
292.45277
292.41032
292.37105
292.38269
292.47336
292.56773
292.62559
292.6601
292.69186
292.72039
292.76172
292.77149
292.79003
292.81335
293.02954
293.3168
293.31732
293.26927
293.18575
293.09116
293.00148
292.92132
292.84997
292.78639
292.72987
292.67972
292.63541
292.59598
292.55989
292.52481
292.48903
292.44871
292.40697
292.3703
292.38569
292.48031
292.57241
292.62836
292.66214
292.69358
292.72163
292.76345
292.77256
292.79091
292.81418
293.03099
293.34075
293.30157
293.22818
293.1384
293.04879
292.96697
292.89339
292.827
292.76733
292.71402
292.66668
292.62484
292.5875
292.55311
292.51934
292.4845
292.44491
292.4039
292.36977
292.38919
292.48732
292.57694
292.63108
292.66417
292.6953
292.72286
292.76512
292.77359
292.79183
292.81505
293.03183
293.3318
293.26368
293.1804
293.09274
293.0105
292.9357
292.86749
292.80529
292.74911
292.69882
292.65419
292.61473
292.57943
292.54667
292.51417
292.48024
292.44139
292.40107
292.36939
292.39319
292.49433
292.58132
292.63376
292.66619
292.69704
292.7241
292.76675
292.77462
292.79282
292.81596
293.0324
293.29831
293.21612
293.13221
293.05107
292.97603
292.90693
292.8431
292.78458
292.73161
292.68421
292.64222
292.60509
292.57176
292.54057
292.5093
292.47623
292.43814
292.39846
292.36917
292.3977
292.50128
292.58556
292.6364
292.66822
292.69879
292.72536
292.76833
292.77568
292.79388
292.8169
293.0329
293.25012
293.16661
293.08791
293.01371
292.94453
292.87995
292.81984
292.76466
292.71474
292.67016
292.63075
292.59589
292.56447
292.53481
292.50472
292.47248
292.43513
292.39611
292.36917
292.40271
292.50812
292.58966
292.63901
292.67023
292.70056
292.72665
292.76987
292.77676
292.79503
292.81786
293.03304
293.19808
293.12013
293.04799
292.97964
292.91504
292.8542
292.79744
292.74542
292.69845
292.65665
292.61978
292.58713
292.55757
292.52938
292.50043
292.46899
292.43235
292.39404
292.36949
292.40803
292.51483
292.59362
292.64159
292.67225
292.70234
292.72797
292.77137
292.7779
292.7963
292.81886
293.03327
293.14926
293.0782
293.01164
292.94779
292.88689
292.82932
292.77572
292.72674
292.6827
292.64366
292.60928
292.57881
292.55106
292.52429
292.49643
292.46574
292.42982
292.39224
292.37013
292.41363
292.5214
292.59745
292.64414
292.67426
292.70415
292.72931
292.77285
292.77911
292.79775
292.81993
293.03354
293.10522
293.03988
292.9776
292.91732
292.85959
292.80508
292.75455
292.70859
292.66748
292.63118
292.59927
292.57092
292.54492
292.51952
292.49272
292.46273
292.42754
292.39068
292.37111
292.41954
292.52785
292.60117
292.64667
292.67628
292.70597
292.73069
292.7743
292.78039
292.79939
292.82115
293.0335
293.0649
293.00382
292.94487
292.8876
292.83281
292.7813
292.73385
292.69093
292.65275
292.61919
292.58972
292.56345
292.53915
292.51508
292.4893
292.45997
292.42554
292.38936
292.37242
292.42576
292.53414
292.60477
292.64918
292.67829
292.70781
292.73208
292.77573
292.78174
292.80124
292.82251
293.03327
293.02668
292.96883
292.91268
292.85821
292.80632
292.75787
292.71355
292.67373
292.63853
292.6077
292.58064
292.55641
292.53376
292.51097
292.48616
292.45747
292.42379
292.38831
292.37405
292.43225
292.54027
292.60827
292.65167
292.68031
292.70967
292.73351
292.77713
292.78315
292.80331
292.824
293.03291
292.98914
292.93401
292.8805
292.82884
292.77997
292.73472
292.69364
292.657
292.6248
292.5967
292.57202
292.54978
292.52873
292.50718
292.4833
292.45519
292.4223
292.38756
292.37599
292.43898
292.54622
292.61168
292.65414
292.68232
292.71153
292.73495
292.77852
292.78462
292.80543
292.82556
293.03217
292.95123
292.89873
292.84797
292.79931
292.75369
292.71181
292.6741
292.64072
292.61157
292.5862
292.56387
292.54358
292.52408
292.50372
292.48073
292.45317
292.42107
292.38715
292.37821
292.44591
292.55199
292.615
292.6566
292.68433
292.7134
292.7364
292.77989
292.78614
292.80747
292.82713
293.03189
292.91224
292.86258
292.81486
292.76952
292.72742
292.68913
292.65494
292.62491
292.59884
292.5762
292.55619
292.53779
292.51979
292.50057
292.47843
292.45141
292.42007
292.38707
292.38071
292.45302
292.55756
292.61824
292.65904
292.68635
292.71527
292.73786
292.78124
292.78769
292.80938
292.82863
293.03128
292.87169
292.82529
292.78104
292.73941
292.70115
292.66668
292.63617
292.60958
292.58662
292.5667
292.54897
292.53242
292.51588
292.49776
292.47641
292.44995
292.41927
292.38727
292.38346
292.46024
292.56293
292.62141
292.66147
292.68836
292.71712
292.73933
292.78256
292.78927
292.81123
292.83001
293.03066
292.82929
292.78673
292.74647
292.709
292.67492
292.6445
292.61782
292.59476
292.57493
292.5577
292.54222
292.52747
292.51232
292.49526
292.47468
292.4488
292.41869
292.3877
292.38647
292.46756
292.56811
292.62451
292.66388
292.69037
292.71896
292.74079
292.78387
292.79087
292.81304
292.83126
293.0301
292.7849
292.74686
292.7112
292.67835
292.64877
292.62263
292.59993
292.58046
292.56378
292.54923
292.53593
292.52294
292.50914
292.49308
292.47322
292.44792
292.41831
292.38832
292.38974
292.47491
292.57309
292.62755
292.66628
292.69237
292.72077
292.74225
292.78514
292.79247
292.81482
292.83239
293.02947
292.73862
292.70583
292.67535
292.64757
292.62281
292.60116
292.58254
292.56671
292.55317
292.54127
292.53013
292.51883
292.50632
292.49121
292.47205
292.44732
292.41807
292.38913
292.39332
292.48227
292.57788
292.63053
292.66866
292.69437
292.72255
292.74371
292.78639
292.79404
292.81657
292.83338
293.02844
292.69076
292.6639
292.63915
292.61683
292.59714
292.58014
292.56571
292.55354
292.54314
292.53384
292.5248
292.51514
292.50386
292.48964
292.4712
292.44699
292.41809
292.39008
292.39726
292.48958
292.58248
292.63346
292.67102
292.69636
292.72431
292.74517
292.78759
292.79557
292.81828
292.83426
293.02793
292.64184
292.62144
292.6029
292.58632
292.57191
292.55967
292.54948
292.54098
292.53369
292.52696
292.51995
292.51187
292.50176
292.48841
292.47066
292.44688
292.41837
292.39118
292.40157
292.4968
292.58691
292.63634
292.67337
292.69834
292.72604
292.74664
292.78874
292.79704
292.81995
292.83503
293.02698
292.59253
292.57899
292.56692
292.55628
292.54725
292.53985
292.53393
292.52908
292.52485
292.52062
292.51559
292.50901
292.49999
292.48755
292.47038
292.44701
292.41887
292.39245
292.40623
292.50389
292.59116
292.63918
292.6757
292.70031
292.72776
292.74813
292.78984
292.79845
292.82158
292.83572
293.02589
292.54368
292.53718
292.53153
292.52691
292.52334
292.5208
292.5191
292.51786
292.51664
292.51484
292.51172
292.50654
292.49862
292.48704
292.47036
292.44738
292.41957
292.39393
292.41122
292.51082
292.59526
292.64196
292.67801
292.70227
292.72947
292.74964
292.79089
292.79978
292.82318
292.8364
293.02469
292.49584
292.4963
292.49714
292.4985
292.50037
292.50263
292.50507
292.50736
292.50906
292.50963
292.50831
292.50448
292.4977
292.48683
292.47061
292.448
292.42048
292.39572
292.4165
292.51758
292.59921
292.6447
292.6803
292.70421
292.73118
292.7512
292.79187
292.80103
292.82476
292.83712
293.02341
292.44973
292.45695
292.46413
292.47133
292.47848
292.48542
292.49192
292.49763
292.50215
292.50497
292.50535
292.50298
292.4972
292.48689
292.47114
292.44887
292.42159
292.39773
292.42203
292.52415
292.60303
292.6474
292.68256
292.70615
292.7329
292.75282
292.79281
292.8022
292.82632
292.83789
293.02207
292.406
292.41962
292.43285
292.44563
292.45785
292.4693
292.47971
292.48869
292.49588
292.50083
292.50298
292.502
292.49696
292.48726
292.47195
292.44997
292.42291
292.39997
292.42778
292.53051
292.60672
292.65006
292.68481
292.70806
292.73463
292.75449
292.7937
292.8033
292.82786
292.83872
293.02071
292.36515
292.38473
292.40362
292.42166
292.43865
292.45435
292.46845
292.48053
292.49025
292.49732
292.50129
292.50139
292.49709
292.48795
292.47304
292.45134
292.42446
292.40241
292.43371
292.53668
292.6103
292.65268
292.68703
292.70996
292.73639
292.75623
292.79456
292.80434
292.82938
292.83957
293.01934
292.32763
292.35264
292.37672
292.3996
292.42101
292.44062
292.45813
292.47313
292.48542
292.49471
292.50018
292.50113
292.49758
292.48895
292.4744
292.45296
292.42625
292.40504
292.43974
292.54265
292.61377
292.65525
292.68922
292.71185
292.73817
292.75802
292.79541
292.80534
292.83086
292.84041
293.01798
292.29382
292.32363
292.35233
292.37957
292.40497
292.42811
292.44879
292.46677
292.48178
292.4928
292.49942
292.50132
292.49845
292.49026
292.47603
292.45484
292.42827
292.40783
292.44586
292.54841
292.61716
292.65779
292.6914
292.71373
292.73996
292.75985
292.79626
292.80631
292.8323
292.84127
293.01666
292.26418
292.298
292.33065
292.3617
292.3907
292.4172
292.44109
292.46195
292.47889
292.49129
292.49913
292.50195
292.49968
292.49189
292.47794
292.45697
292.43052
292.4108
292.45201
292.55397
292.62047
292.6603
292.69357
292.7156
292.74176
292.76171
292.79713
292.80728
292.83367
292.84214
293.01537
292.23975
292.27681
292.31265
292.34686
292.37894
292.40847
292.43533
292.45815
292.4765
292.49036
292.49936
292.50303
292.50127
292.49383
292.48012
292.45936
292.43299
292.41395
292.45817
292.55937
292.62373
292.66278
292.69574
292.71748
292.74354
292.76358
292.79802
292.80825
292.83496
292.843
293.01412
292.22098
292.26048
292.29882
292.33558
292.36993
292.40199
292.43073
292.45494
292.47485
292.49006
292.50011
292.50453
292.50325
292.49608
292.48257
292.46199
292.43566
292.4173
292.46429
292.56461
292.62694
292.66524
292.6979
292.71935
292.74529
292.76544
292.79892
292.80923
292.83616
292.8438
293.01292
292.2066
292.24781
292.28799
292.32656
292.36306
292.39691
292.42679
292.45262
292.47398
292.49038
292.50137
292.50647
292.50561
292.49864
292.48528
292.46483
292.43855
292.42085
292.47037
292.5697
292.63009
292.66768
292.70008
292.72124
292.74698
292.76725
292.79984
292.81023
292.83727
292.84451
293.01179
292.19288
292.23552
292.27752
292.3181
292.35678
292.39238
292.42389
292.45124
292.47387
292.49131
292.50315
292.50884
292.50834
292.50152
292.48826
292.46788
292.44166
292.42458
292.47638
292.57464
292.6332
292.67009
292.70227
292.72314
292.7486
292.76898
292.80077
292.81124
292.83829
292.84519
293.01072
292.1822
292.2257
292.26918
292.31158
292.35199
292.38912
292.42218
292.45083
292.47454
292.49288
292.50545
292.51166
292.51145
292.50472
292.49151
292.47115
292.44498
292.42849
292.4823
292.57944
292.63626
292.67249
292.70449
292.72506
292.75012
292.77063
292.80167
292.81226
292.83923
292.84585
293.00971
292.17685
292.22032
292.26446
292.30788
292.34934
292.38758
292.42178
292.45145
292.47602
292.49509
292.50827
292.51491
292.51493
292.50824
292.49503
292.47463
292.44851
292.43257
292.48813
292.5841
292.63928
292.67486
292.70673
292.72698
292.75154
292.77217
292.80252
292.81326
292.84009
292.84649
293.00873
292.17638
292.21949
292.26364
292.30731
292.34914
292.38792
292.42278
292.45314
292.47832
292.49796
292.51163
292.51861
292.51878
292.51208
292.49881
292.47834
292.45224
292.4368
292.49385
292.58862
292.64225
292.67722
292.709
292.72891
292.75285
292.77359
292.8033
292.81425
292.84088
292.8471
293.00752
292.18108
292.2234
292.26688
292.31
292.35148
292.39019
292.42523
292.45592
292.48146
292.5015
292.5155
292.52274
292.523
292.51623
292.50287
292.48225
292.45616
292.44117
292.49944
292.59301
292.64518
292.67955
292.71129
292.73083
292.75405
292.7749
292.80399
292.81519
292.8416
292.8476
293.00725
292.19165
292.23233
292.27423
292.31595
292.35635
292.39438
292.42915
292.45982
292.48545
292.5057
292.51991
292.5273
292.52759
292.52071
292.5072
292.48639
292.46026
292.44566
292.50492
292.59727
292.64806
292.68185
292.71356
292.73272
292.75516
292.77609
292.80458
292.81607
292.84226
292.84816
293.00648
292.20828
292.24614
292.28546
292.32495
292.36359
292.40042
292.43451
292.46482
292.4903
292.51059
292.52485
292.53229
292.53255
292.5255
292.5118
292.49073
292.46452
292.45026
292.51028
292.6014
292.65088
292.68412
292.71578
292.73455
292.7562
292.77717
292.80506
292.8169
292.84287
292.84871
293.00564
292.23007
292.26403
292.29992
292.33654
292.37294
292.40816
292.44125
292.47088
292.49604
292.51615
292.53031
292.53771
292.53786
292.5306
292.51666
292.49529
292.46894
292.45495
292.5155
292.60541
292.65366
292.68634
292.71793
292.73629
292.75718
292.77817
292.80546
292.81767
292.84344
292.84923
293.00477
292.25516
292.28465
292.31672
292.35018
292.3841
292.41749
292.44927
292.478
292.50269
292.5224
292.53629
292.54354
292.54352
292.536
292.52179
292.50006
292.47349
292.4597
292.5206
292.6093
292.65638
292.68851
292.71997
292.73791
292.75812
292.77909
292.80582
292.81841
292.84398
292.84973
293.00388
292.28158
292.30677
292.33511
292.36547
292.39686
292.42829
292.4585
292.48622
292.51025
292.52935
292.5428
292.54978
292.54952
292.5417
292.52717
292.50504
292.47818
292.4645
292.52557
292.61306
292.65905
292.69064
292.72188
292.73942
292.75908
292.77996
292.80616
292.81911
292.84447
292.85019
293.00297
292.30836
292.3299
292.35488
292.38233
292.41123
292.44048
292.46897
292.49554
292.51864
292.53699
292.54982
292.5564
292.55583
292.54767
292.53279
292.51023
292.483
292.46935
292.53044
292.61673
292.66167
292.69272
292.72365
292.74081
292.76011
292.78078
292.80655
292.81981
292.84492
292.85063
293.00204
292.33595
292.35448
292.37636
292.40092
292.42715
292.45405
292.48067
292.50575
292.52773
292.54521
292.55729
292.56335
292.5624
292.55387
292.5386
292.51558
292.48794
292.47423
292.53522
292.6203
292.66424
292.69475
292.72527
292.7421
292.76121
292.78156
292.807
292.82052
292.84534
292.85103
293.00109
292.36649
292.38182
292.40004
292.42128
292.44457
292.46891
292.49331
292.51662
292.53718
292.55376
292.5651
292.57055
292.56917
292.56024
292.54455
292.52107
292.49299
292.47911
292.53992
292.62371
292.6667
292.69669
292.72672
292.74331
292.76238
292.78232
292.80753
292.82125
292.84572
292.85141
293.00013
292.40481
292.41586
292.42873
292.44526
292.46473
292.48587
292.50755
292.52855
292.54746
292.5628
292.57344
292.57819
292.57628
292.5669
292.55072
292.52673
292.49812
292.48374
292.54428
292.62679
292.66898
292.69847
292.72805
292.74447
292.76358
292.78309
292.80816
292.822
292.8461
292.85174
292.99912
293.0427
293.10872
293.21118
293.29327
293.28208
293.19925
293.08738
292.9812
292.8903
292.81357
292.74801
292.69106
292.641
292.59623
292.55435
292.51343
292.46988
292.42438
292.37645
292.37565
292.44901
292.54977
292.61491
292.65237
292.68542
292.71563
292.75419
292.76661
292.78692
292.81084
293.0236
293.03517
293.09165
293.17809
293.26227
293.26583
293.19248
293.0881
292.9851
292.89515
292.8186
292.75295
292.69574
292.64521
292.59982
292.55731
292.51574
292.47185
292.42578
292.37788
292.37474
292.44596
292.54768
292.61351
292.65118
292.6844
292.71489
292.75252
292.76553
292.78642
292.81059
293.02253
293.03029
293.08236
293.16205
293.24624
293.25876
293.19306
293.09273
292.99117
292.90131
292.82444
292.75841
292.70077
292.64969
292.60363
292.56045
292.5182
292.47391
292.4273
292.37925
292.37377
292.44267
292.54531
292.61193
292.64986
292.6833
292.71408
292.75093
292.76452
292.78592
292.81032
293.02141
293.02564
293.07381
293.14872
293.23433
293.25458
293.19478
293.09735
292.99683
292.90704
292.8299
292.76355
292.70554
292.65399
292.60734
292.56353
292.52066
292.476
292.42891
292.38069
292.37296
292.43945
292.54286
292.61028
292.64848
292.68217
292.71324
292.74945
292.76356
292.78544
292.81004
293.02028
293.02139
293.06584
293.136
293.22185
293.25011
293.19579
293.10134
293.00202
292.91243
292.83511
292.7685
292.71019
292.65821
292.61101
292.56662
292.52315
292.47813
292.43061
292.38221
292.3723
292.43634
292.54041
292.60862
292.64709
292.68102
292.71238
292.74811
292.76263
292.785
292.80977
293.01916
293.01775
293.05889
293.12442
293.20846
293.24402
293.19599
293.1049
293.00694
292.91765
292.84022
292.77338
292.71477
292.6624
292.6147
292.56975
292.52571
292.48032
292.43238
292.38382
292.37177
292.4333
292.53796
292.60696
292.64569
292.67988
292.71152
292.74684
292.76172
292.78459
292.80949
293.01818
293.01473
293.05296
293.11418
293.19539
293.23689
293.19564
293.10819
293.01172
292.92278
292.84527
292.77821
292.71934
292.66659
292.6184
292.57292
292.52832
292.48257
292.43423
292.38551
292.37138
292.43033
292.5355
292.60529
292.64429
292.67874
292.71065
292.74563
292.76083
292.78421
292.80917
293.01759
293.01232
293.04795
293.10521
293.18311
293.22928
293.19485
293.11127
293.01637
292.92785
292.85028
292.78301
292.72388
292.67079
292.62213
292.57613
292.53101
292.48489
292.43616
292.38729
292.37111
292.42742
292.53303
292.60362
292.64288
292.67759
292.70977
292.74445
292.75996
292.78385
292.80881
293.01715
293.01051
293.04381
293.09742
293.17178
293.2214
293.19364
293.11411
293.0209
292.93285
292.85525
292.78779
292.7284
292.67498
292.62588
292.57939
292.53376
292.48728
292.43817
292.38916
292.37097
292.4246
292.53053
292.60193
292.64146
292.67643
292.70888
292.74332
292.75912
292.78351
292.80839
293.01688
293.0093
293.0405
293.09074
293.16142
293.21328
293.19197
293.11674
293.02532
292.9378
292.8602
292.79255
292.73292
292.67918
292.62966
292.5827
292.53658
292.48973
292.44028
292.39111
292.37096
292.42185
292.52802
292.60023
292.64005
292.67527
292.70797
292.74224
292.7583
292.78317
292.80792
293.01678
293.00868
293.038
293.08513
293.15206
293.20517
293.18988
293.11917
293.02965
292.94271
292.86514
292.79732
292.73744
292.68339
292.63348
292.58606
292.53947
292.49226
292.44246
292.39316
292.3711
292.41918
292.52549
292.59852
292.63863
292.6741
292.70705
292.74119
292.75751
292.78284
292.8074
293.01682
293.00863
293.03626
293.08054
293.14379
293.1974
293.18754
293.12143
293.0339
292.94761
292.87008
292.80209
292.74197
292.68762
292.63732
292.58946
292.54243
292.49486
292.44474
292.39528
292.37137
292.41661
292.52294
292.59681
292.63721
292.67291
292.70612
292.74019
292.75675
292.78251
292.80684
293.01698
293.00914
293.03525
293.0769
293.13663
293.19014
293.18512
293.12354
293.03811
292.95252
292.87506
292.80689
292.74652
292.69187
292.64121
292.59293
292.54546
292.49754
292.4471
292.39749
292.37178
292.41414
292.52039
292.59509
292.6358
292.67172
292.70516
292.73922
292.75603
292.78218
292.80624
293.01725
293.01019
293.03492
293.07416
293.13057
293.1835
293.18282
293.12555
293.04228
292.95744
292.88007
292.81173
292.75111
292.69616
292.64513
292.59645
292.54855
292.50028
292.44952
292.39975
292.37234
292.41177
292.51782
292.59336
292.63439
292.67052
292.70419
292.73828
292.75533
292.78185
292.80563
293.01762
293.01174
293.03523
293.07228
293.1256
293.17756
293.18072
293.12748
293.04644
292.9624
292.88513
292.81662
292.75574
292.7005
292.64911
292.60003
292.55173
292.50311
292.45203
292.40206
292.37301
292.40952
292.51524
292.59164
292.63299
292.66931
292.70319
292.73737
292.75466
292.78151
292.80502