/*--------------------------------*- C++ -*----------------------------------*\
| =========                 |                                                 |
| \\      /  F ield         | OpenFOAM: The Open Source CFD Toolbox           |
|  \\    /   O peration     | Version:  2406                                  |
|   \\  /    A nd           | Website:  www.openfoam.com                      |
|    \\/     M anipulation  |                                                 |
\*---------------------------------------------------------------------------*/
FoamFile
{
    version     2.0;
    format      ascii;
    arch        "LSB;label=32;scalar=64";
    class       volScalarField;
    location    "0.001";
    object      omega;
}
// * * * * * * * * * * * * * * * * * * * * * * * * * * * * * * * * * * * * * //

dimensions      [0 0 -1 0 0 0 0];

internalField   nonuniform List<scalar> 
92813
(
22218.704
20148.771
18260.891
16565.431
15047.911
13688.812
12469.464
11373.326
10385.935
9494.6827
8688.6694
7958.4741
7295.9426
6693.9513
6146.1213
5646.7035
5191.1444
4775.2197
4395.1838
4047.4102
3728.9901
3437.4539
3170.3687
2925.5386
2700.9887
2494.9424
2305.7996
2132.1162
1972.5869
1826.0281
1691.3643
1567.6144
1453.8797
1349.3312
1253.2008
1164.7683
1083.3361
1008.2223
938.80477
874.40301
814.29928
757.71392
703.77949
651.5175
599.86622
547.75951
494.27238
439.69258
386.50226
339.78201
303.67807
278.02912
259.58012
245.33875
233.43529
222.97055
213.54587
204.97012
197.13373
189.95881
183.38163
177.34612
171.80033
166.69881
161.99814
157.65851
153.64552
149.92892
146.48032
143.27328
140.28567
137.49925
134.89987
132.48248
130.24728
128.18799
126.28989
124.53047
122.88493
121.33687
119.88083
118.51619
117.23984
116.04776
114.93688
113.90072
112.9314
112.02488
111.17885
110.38474
109.63707
108.934
108.27375
107.65884
107.08553
106.53319
106.00591
105.52284
105.072
104.63561
104.21852
103.83024
103.45978
103.10963
102.79222
102.50399
102.23996
101.98798
101.7453
101.52555
101.3321
101.15863
100.99212
100.82543
100.67172
100.52342
100.38274
100.23182
100.10369
99.949118
99.826793
99.738321
99.641338
99.534391
99.471934
99.466553
99.411048
19505.982
17774.854
16217.445
14813.399
13544.86
12396.565
11355.4
10410.086
9550.734
8768.5982
8055.9536
7405.9592
6812.5343
6270.2433
5774.1748
5319.9111
4903.6109
4521.8351
4171.5269
3849.7662
3554.0564
3282.4016
3032.7524
2803.2446
2592.1843
2398.0338
2219.3968
2055.0043
1903.7012
1764.4336
1636.238
1518.2299
1409.5937
1309.5726
1217.4592
1132.5853
1054.3012
981.93712
914.88795
852.52066
794.09967
738.82791
685.8114
634.03416
582.40522
529.88675
475.87257
421.17649
369.21673
325.49066
293.23508
270.76084
254.35992
241.24628
229.98995
219.95765
210.86665
202.57086
194.97805
188.01796
181.6312
175.7686
170.38035
165.41933
160.84428
156.61714
152.70539
149.08079
145.71672
142.58773
139.67187
136.95047
134.40833
132.03951
129.8451
127.82157
125.95768
124.23282
122.62081
121.10275
119.6725
118.33038
117.07419
115.90066
114.80726
113.78715
112.83291
111.94029
111.10512
110.32032
109.58105
108.8854
108.2317
107.62316
107.05519
106.50765
105.98712
105.50821
105.0595
104.62503
104.20971
103.82271
103.45318
103.10456
102.7889
102.50204
102.23838
101.98651
101.74437
101.52578
101.33396
101.16176
100.99603
100.8303
100.67766
100.52981
100.38934
100.2385
100.11074
99.95515
99.833462
99.745464
99.64759
99.54125
99.477378
99.471668
99.413606
17177.763
15757.828
14467.992
13294.869
12225.346
11248.445
10354.918
9536.8404
8787.2601
8099.991
7469.4913
6890.7683
6359.298
5870.959
5421.979
5008.9218
4628.7007
4278.5449
3955.9772
3658.6156
3384.3659
3131.5964
2898.5876
2683.7626
2485.676
2303.0041
2134.535
1979.1593
1835.8599
1703.7027
1581.8281
1469.4415
1365.8054
1270.2303
1182.0658
1100.6909
1025.4973
955.8364
891.12114
830.74226
773.95021
719.93648
667.78191
616.44838
564.85456
512.07771
457.89763
403.90174
354.4557
314.80154
286.37829
266.35463
251.23523
238.79348
227.94309
218.20047
209.34066
201.23889
193.8117
186.99373
180.72919
174.96692
169.66311
164.77651
160.26737
156.09868
152.23902
148.66133
145.33998
142.25023
139.37035
136.68159
134.16832
131.82401
129.65
127.64394
125.79643
124.08814
122.49239
120.98903
119.57141
118.24033
116.99399
115.82954
114.74466
113.73235
112.78548
111.89966
111.07028
110.29075
109.55626
108.86473
108.21452
107.60942
107.04429
106.49915
105.98212
105.50498
105.057
104.62333
104.2087
103.82203
103.45272
103.10507
102.79258
102.50803
102.24396
101.99131
101.7497
101.53277
101.34155
101.16986
101.00445
100.8393
100.68737
100.53959
100.39906
100.24799
100.12036
99.963368
99.841848
99.754159
99.655071
99.549278
99.483314
99.476884
99.41615
15166.043
14003.898
12935.376
11953.186
11049.095
10215.977
9447.6723
8738.7889
8084.5177
7480.5187
6922.8426
6407.8707
5932.2668
5492.94
5087.0201
4711.8539
4365.0139
4044.2959
3747.7112
3473.3246
3219.4017
2984.6069
2767.5052
2566.7711
2381.1791
2209.5972
2050.9809
1904.3662
1768.8629
1643.6477
1527.9572
1421.081
1322.3545
1231.1508
1146.8725
1068.9421
996.78877
929.78721
867.36781
808.93123
753.71244
700.89266
649.52874
598.57183
546.9804
494.01225
439.93492
387.22332
340.89886
305.28029
280.10534
262.02175
247.93663
236.07028
225.58874
216.12069
207.48642
199.57837
192.32028
185.6509
179.5178
173.87407
168.67648
163.88481
159.46074
155.36835
151.57733
148.06201
144.79804
141.7616
138.93142
136.28868
133.81703
131.50874
129.36463
127.38356
125.55886
123.8737
122.30124
120.81935
119.42034
118.10546
116.87362
115.72252
114.65008
113.64918
112.7131
111.8373
111.01667
110.24521
109.51809
108.83286
108.188
107.58824
107.02754
106.4862
105.97472
105.50011
105.05312
104.62097
104.2077
103.82157
103.45252
103.10654
102.79529
102.51155
102.24717
101.99415
101.75302
101.53662
101.34648
101.17559
101.01066
100.84629
100.69529
100.54774
100.40726
100.25616
100.12877
99.970621
99.849545
99.762299
99.662153
99.556859
99.489144
99.482191
99.418677
13424.198
12470.792
11583.965
10760.281
9994.9434
9283.6252
8622.4471
8007.8976
7436.7615
6906.0706
6413.0669
5955.1729
5529.9674
5135.1677
4768.6212
4428.3082
4112.3511
3819.0221
3546.7431
3293.9602
3059.2515
2841.5274
2639.5984
2452.3577
2278.7733
2117.8842
1968.7962
1830.6774
1702.7534
1584.3026
1474.6508
1373.1654
1279.2493
1192.3337
1111.8698
1037.3202
968.14633
903.74641
843.56622
787.00542
733.2781
681.55345
630.86446
580.16274
528.48116
475.34214
421.65075
370.84562
328.19654
296.60584
274.35476
257.94488
244.75788
233.41381
223.28678
214.09404
205.69091
197.98306
190.89995
184.38387
178.38529
172.85935
167.76566
163.06616
158.7242
154.70491
150.97913
147.52252
144.31191
141.32449
138.53975
135.93911
133.5059
131.23132
129.1153
127.15717
125.3525
123.68711
122.13477
120.67179
119.28927
117.98873
116.76966
115.63029
114.56865
113.57765
112.65096
111.78383
110.97071
110.20615
109.48535
108.80552
108.16537
107.57029
107.01331
106.47512
105.96811
105.49547
105.04912
104.61831
104.20638
103.8208
103.45218
103.10743
102.79825
102.51596
102.25121
101.99773
101.75727
101.54209
101.35278
101.18252
101.01798
100.85439
100.70428
100.55687
100.41635
100.26513
100.1379
99.978446
99.857704
99.770918
99.669613
99.564856
99.49494
99.487518
99.42118
11910.779
11126.676
10388.396
9696.2202
9047.4723
8439.6485
7870.4225
7337.6142
6839.163
6373.1118
5937.5945
5530.8244
5151.0857
4796.729
4466.1715
4157.9038
3870.5001
3602.6286
3353.0561
3120.5562
2903.9765
2702.432
2514.9451
2340.5986
2178.5302
2027.9303
1888.0389
1758.1432
1637.574
1525.7026
1421.9365
1325.7148
1236.5026
1153.7843
1077.0553
1005.8143
939.54796
877.67963
819.66756
764.89619
712.55524
661.79933
611.64008
561.04853
509.18738
455.96975
403.12292
355.00022
316.51119
288.79921
269.09083
254.07772
241.65115
230.77171
220.97613
212.04848
203.87082
196.35928
189.44806
183.08278
177.21704
171.80856
166.81895
162.21207
157.95292
154.00764
150.34812
146.9513
143.79515
140.85788
138.11982
135.56282
133.17
130.93145
128.84581
126.91244
125.12888
123.48402
121.95278
120.51002
119.14535
117.86034
116.65513
115.5285
114.47855
113.49833
112.58189
111.72422
110.91935
110.16241
109.44857
108.77473
108.13996
107.55024
106.99735
106.46252
105.96038
105.49014
105.04465
104.61531
104.20496
103.81992
103.45179
103.10881
102.80123
102.51982
102.25459
102.00075
101.76108
101.54694
101.35851
101.18888
101.02475
100.862
100.71289
100.56568
100.42513
100.27387
100.14683
99.986121
99.865789
99.779564
99.677099
99.572869
99.500761
99.492868
99.42366
10591.332
9944.7296
9328.1256
8745.1931
8194.5049
7674.6994
7184.4683
6722.5392
6287.6651
5878.6192
5494.1932
5133.1949
4794.4487
4476.7973
4179.1068
3900.2753
3639.2438
3395.0063
3166.617
2953.1299
2753.6239
2567.3839
2393.6149
2231.5639
2080.5169
1939.7974
1808.7646
1686.8123
1573.3663
1467.8821
1369.8416
1278.7493
1194.1271
1115.5077
1042.4265
974.41477
910.97148
851.55297
795.62549
742.53643
691.45505
641.51884
591.72577
541.09953
489.01906
435.96023
384.63551
340.02469
305.95942
281.80003
264.23603
250.38
238.60617
228.14984
218.67118
210.00397
202.05068
194.73575
187.99729
181.78394
176.05219
170.76203
165.87717
161.36339
157.18747
153.31652
149.72345
146.38643
143.28444
140.39674
137.70466
135.19073
132.83816
130.63611
128.58171
126.67372
124.91102
123.28565
121.77455
120.35154
119.00453
117.73489
116.54335
115.42924
114.39068
113.42098
112.51459
111.66614
110.86928
110.11973
109.41264
108.74465
108.11539
107.53103
106.98192
106.4501
105.95239
105.48451
105.03983
104.61192
104.20329
103.81886
103.45133
103.11003
102.8041
102.52358
102.25801
102.00388
101.76516
101.55226
101.36464
101.19556
101.03182
100.86996
100.72185
100.57482
100.43419
100.28287
100.156
99.993972
99.874027
99.788432
99.684779
99.58112
99.506645
99.498266
99.426115
9437.6397
8902.2306
8385.8656
7893.941
7425.8389
6980.9283
6558.5635
6158.0797
5778.7892
5419.9811
5080.9229
4760.8625
4459.0313
4174.6496
3906.9333
3655.1024
3418.3918
3196.0606
2987.3998
2791.7025
2608.2443
2436.4506
2275.6831
2125.3306
1984.8078
1853.5549
1731.0364
1616.7408
1510.179
1410.8821
1318.3995
1232.2946
1152.1406
1077.5135
1007.9844
943.11369
882.39868
825.33336
771.39134
719.85445
669.88452
620.5984
570.99776
520.21378
467.96921
415.51125
366.58764
326.22301
296.56241
275.51003
259.71334
246.81442
235.60813
225.54231
216.36835
207.95656
200.22505
193.10517
186.53839
180.4762
174.87806
169.70612
164.92594
160.50521
156.41254
152.61602
149.08956
145.81248
142.7647
139.92646
137.28016
134.80923
132.49716
130.3324
128.31055
126.42926
124.68807
123.08204
121.59083
120.1878
118.85894
117.60514
116.42768
115.32642
114.29953
113.34069
112.44468
111.60569
110.81708
110.07513
109.37497
108.7131
108.08991
107.51124
106.96581
106.43689
105.94352
105.47836
105.03468
104.60824
104.20146
103.81767
103.45086
103.11149
102.807
102.52705
102.2611
102.00677
101.76915
101.55752
101.37068
101.20211
101.03876
100.87784
100.73077
100.58394
100.44321
100.29189
100.16519
100.00184
99.882305
99.797428
99.692579
99.589515
99.512647
99.503758
99.428544
8425.6697
7980.5603
7547.0032
7131.0598
6732.6027
6351.4558
5987.396
5640.1562
5309.4246
4994.8465
4696.0263
4412.5307
4143.8932
3889.619
3649.1922
3422.084
3207.7616
3005.697
2815.3748
2636.2896
2467.8831
2309.6957
2161.2228
2021.9751
1891.4786
1769.2749
1654.9209
1547.9889
1448.0651
1354.7483
1267.648
1186.3806
1110.5645
1039.8138
973.73036
911.89866
853.81427
798.99268
746.90463
696.76916
647.74131
598.91707
549.33581
498.32284
446.12249
394.96122
349.43371
313.80099
288.25498
269.81309
255.45183
243.35048
232.64692
222.94748
214.06912
205.90897
198.39721
191.47125
185.0755
179.16428
173.69983
168.64644
163.97127
159.64379
155.63462
151.91281
148.45322
145.23628
142.24278
139.45385
136.85303
134.42478
132.1531
130.02599
128.03767
126.18432
124.46525
122.87819
121.40623
120.02298
118.71247
117.47471
116.31145
115.22312
114.20789
113.25997
112.37443
111.54488
110.76453
110.03014
109.33688
108.68127
108.0646
107.49171
106.94953
106.4233
105.93396
105.47166
105.02916
104.6042
104.19939
103.81632
103.45039
103.11293
102.80978
102.53026
102.26401
102.00965
101.77328
101.56303
101.3769
101.20878
101.0458
100.88586
100.73986
100.59322
100.45236
100.30103
100.17452
100.00981
99.890673
99.806597
99.700549
99.598126
99.518845
99.509409
99.430947
7535.2302
7163.8472
6798.9174
6446.5609
6106.929
5780.1157
5466.1592
5165.0452
4876.708
4601.0328
4337.857
4086.9741
3848.1364
3621.0605
3405.433
3200.9178
3007.1632
2823.8103
2650.4992
2486.8934
2332.5738
2187.1727
2050.2994
1921.5683
1800.6011
1687.0271
1580.4837
1480.6164
1387.0779
1299.5268
1217.6257
1141.0376
1069.4206
1002.421
939.66598
880.75735
825.18895
772.48638
722.0986
673.18974
624.91003
576.34517
526.63042
475.41669
423.69666
374.79278
333.60814
302.83487
280.91142
264.59274
251.39128
239.96445
229.71508
220.36414
211.77421
203.86237
196.56808
189.83444
183.60855
177.84756
172.51643
167.58154
163.01135
158.77705
154.85135
151.20431
147.81169
144.65501
141.71583
138.97614
136.42058
134.03475
131.80325
129.71395
127.75998
125.93587
124.23988
122.67175
121.21855
119.855
118.56313
117.34176
116.19299
115.11775
114.11433
113.17756
112.30269
111.4827
110.71069
109.98394
109.29765
108.64863
108.03905
107.472
106.93267
106.40908
105.92354
105.46436
105.02328
104.59987
104.1971
103.81485
103.44994
103.11447
102.8125
102.53318
102.26664
102.01241
101.77744
101.56861
101.38316
101.21547
101.05284
100.89392
100.74899
100.60256
100.46155
100.31024
100.18394
100.01783
99.899103
99.815907
99.70867
99.606932
99.525366
99.515316
99.433326
6749.373
6438.5167
6130.6635
5831.6607
5541.8057
5261.3433
4990.4642
4729.3087
4477.9669
4236.4807
4004.8449
3783.0094
3570.8823
3368.3336
3175.1998
2991.2902
2816.3922
2650.2785
2492.713
2343.4998
2202.3343
2068.9221
1942.9672
1824.1722
1712.2403
1606.8761
1507.7865
1414.6805
1327.2687
1245.2621
1168.3696
1096.2944
1028.7285
965.34456
905.78885
849.66971
796.48144
745.75387
696.89094
649.00726
601.25694
552.74728
502.80205
451.58803
401.08805
355.59128
319.43359
293.26879
274.37297
259.74223
247.48273
236.63843
226.80739
217.7919
209.48474
201.81838
194.73932
188.19631
182.13897
176.52739
171.32906
166.51255
162.04733
157.90611
154.06386
150.49167
147.16616
144.06986
141.18512
138.49475
135.98438
133.64078
131.44922
129.39765
127.47854
125.68483
124.01302
122.46394
121.02897
119.68489
118.41192
117.20722
116.07316
115.01114
114.0196
113.09415
112.23009
111.41966
110.65602
109.93692
109.25771
108.61562
108.01364
107.45225
106.91524
106.39436
105.91236
105.45636
105.01698
104.5952
104.19455
103.81324
103.44952
103.11601
102.81509
102.53582
102.26906
102.01515
101.78172
101.57436
101.38955
101.22225
101.05994
100.90208
100.75821
100.612
100.47081
100.31954
100.19347
100.02595
99.90761
99.82537
99.716964
99.615968
99.533329
99.521898
99.435684
6053.9067
5792.99
5532.7675
5278.6463
5030.9893
4790.115
4556.2964
4329.7615
4110.6942
3899.2343
3695.4787
3499.4826
3311.2614
3130.7938
2958.0248
2792.871
2635.2247
2484.9599
2341.9367
2206.0756
2077.1661
1954.9689
1839.2674
1729.8379
1626.4522
1528.8792
1436.8851
1350.2335
1268.685
1191.9952
1119.9129
1052.1755
988.50253
928.58713
872.08879
818.6027
767.63638
718.72077
671.17571
624.08692
576.63
527.99529
477.83938
427.09608
378.89226
337.94149
307.05047
284.94312
268.47411
255.17091
243.68822
233.35959
223.92032
215.23066
207.20156
199.77823
192.91216
186.55798
180.66767
175.20446
170.13809
165.43957
161.07905
157.03066
153.27167
149.77432
146.51597
143.4801
140.6499
138.00902
135.54393
133.2425
131.09066
129.07658
127.19254
125.43019
123.78373
122.2541
120.83696
119.51212
118.2583
117.07063
115.95154
114.90286
113.92336
113.00943
112.15632
111.35547
110.60024
109.88887
109.2169
108.58223
107.98826
107.4322
106.89705
106.37909
105.90042
105.44762
105.01021
104.59023
104.19174
103.8115
103.44915
103.11756
102.81757
102.53818
102.27122
102.01784
101.78609
101.58022
101.39602
101.22911
101.06709
100.91032
100.76749
100.62149
100.48013
100.32891
100.2031
100.03414
99.916179
99.834972
99.725423
99.625233
99.544803
99.530069
99.438024
5436.9039
5217.3746
4997.0216
4780.7438
4568.9209
4361.8983
4159.9849
3963.4527
3772.5363
3587.4327
3408.3014
3235.265
3068.4102
2907.7898
2753.4257
2605.3114
2463.4167
2327.6915
2198.07
2074.5683
1957.052
1845.3221
1739.2271
1638.604
1543.2824
1453.0849
1367.8279
1287.3213
1211.3679
1139.7613
1072.2832
1008.6986
948.74848
892.14032
838.5423
787.50982
738.5836
691.28902
644.81395
598.26511
550.86655
501.99873
451.86433
402.43645
357.856
322.28548
296.40132
277.64023
263.06231
250.80687
239.97964
230.11922
221.05155
212.68026
204.9252
197.74276
191.08759
184.92051
179.19566
173.87973
168.94425
164.36306
160.1068
156.15087
152.47483
149.05229
145.86113
142.88574
140.11021
137.51914
135.09961
132.84047
130.72825
128.75135
126.90229
125.1719
123.55196
122.04241
120.64284
119.33697
118.10253
116.93222
115.82838
114.79316
113.82584
112.92361
112.08154
111.29027
110.54349
109.83993
109.17548
108.54872
107.96295
107.41169
106.87805
106.36339
105.88779
105.43808
105.00294
104.58491
104.18863
103.80962
103.44884
103.11908
102.8199
102.54026
102.27318
102.02056
101.79057
101.58621
101.40259
101.23607
101.07432
100.91863
100.77683
100.63106
100.48951
100.33837
100.21284
100.04242
99.924809
99.844714
99.734053
99.634733
99.559728
99.539936
99.440351
4888.275
4703.1791
4516.291
4331.9905
4150.6464
3972.6026
3798.1751
3627.6509
3461.2867
3299.3084
3141.9101
2989.2542
2841.472
2698.6652
2560.9068
2428.2447
2300.7038
2178.2896
2060.9919
1948.9055
1841.9568
1739.974
1642.8581
1550.496
1462.7646
1379.5312
1300.6539
1225.9813
1155.351
1088.5877
1025.4995
965.87211
909.46082
855.98047
805.09869
756.33384
709.24386
663.31482
617.62911
571.3548
523.81655
474.76334
425.22527
378.37353
338.72808
308.8069
287.27378
271.13053
258.00936
246.59672
236.33717
226.91176
218.19976
210.14023
202.65564
195.71212
189.26608
183.28452
177.72368
172.55395
167.74813
163.28335
159.13065
155.26667
151.67305
148.32524
145.20129
142.2864
139.56566
137.02483
134.65134
132.43475
130.36221
128.4222
126.60777
124.90956
123.31713
121.82855
120.44645
119.15929
117.94442
116.79184
115.70355
114.68195
113.72698
112.83664
112.00565
111.22393
110.48566
109.79009
109.13353
108.51517
107.93751
107.39044
106.8582
106.34726
105.87454
105.42775
104.99513
104.57925
104.18522
103.8076
103.44858
103.12056
102.82208
102.54207
102.27495
102.02332
101.79518
101.5923
101.40923
101.24314
101.08164
100.92702
100.78622
100.64067
100.49895
100.34791
100.22267
100.05077
99.933489
99.854587
99.742848
99.644444
99.573197
99.549976
99.44267
4399.4269
4243.0783
4084.3505
3927.1247
3771.7444
3618.5354
3467.8033
3319.8319
3174.8814
3033.187
2894.958
2760.3773
2629.6014
2502.761
2379.9623
2261.2887
2146.8031
2036.5508
1930.5617
1828.9956
1731.8268
1638.8996
1550.1566
1465.5248
1384.9194
1308.2441
1235.3912
1166.2405
1100.6576
1038.4914
979.56947
923.6917
870.6201
820.06856
771.68964
724.9728
679.48299
634.62368
589.42264
543.1644
495.39288
446.48929
398.59426
355.86185
322.04515
297.4059
279.37607
265.20695
253.2149
242.50326
232.74751
223.73374
215.36448
207.60962
200.39234
193.68575
187.44746
181.65012
176.2521
171.2277
166.55031
162.20081
158.15078
154.37817
150.86618
147.593
144.53629
141.68187
139.01608
136.52603
134.19921
132.02557
129.99294
128.08963
126.30934
124.64311
123.07892
121.61234
120.24789
118.97918
117.78401
116.64952
115.57712
114.56934
113.62692
112.74861
111.92868
111.15648
110.42684
109.73952
109.0913
108.4817
107.91174
107.36822
106.83752
106.33078
105.86073
105.41664
104.98675
104.57321
104.18147
103.80544
103.44836
103.122
102.82407
102.5436
102.27657
102.02621
101.79991
101.59849
101.41596
101.25031
101.08906
100.93546
100.79564
100.65033
100.50845
100.35756
100.23259
100.0592
99.942216
99.864592
99.751808
99.654352
99.585348
99.559527
99.444987
3963.004
3830.7311
3695.7557
3561.4974
3428.2673
3296.3645
3166.0746
3037.6671
2911.3939
2787.4871
2666.1578
2547.5956
2431.968
2319.4209
2210.0793
2104.0484
2001.416
1902.2538
1806.6201
1714.7284
1626.5907
1542.0571
1461.1029
1383.6866
1309.7537
1239.237
1172.0555
1108.1136
1047.2982
989.47549
934.48562
882.13512
832.18545
784.341
738.21078
693.28206
649.12409
604.99809
559.97173
513.53389
465.66332
417.70609
372.99182
335.80906
307.96779
287.77248
272.41021
259.70443
248.60473
238.50167
229.20236
220.58272
212.54626
205.08705
198.13438
191.66242
185.6309
180.01672
174.78072
169.90106
165.35113
161.11575
157.16739
153.4856
150.05415
146.85543
143.86601
141.07202
138.46132
136.02264
133.74325
131.61303
129.62067
127.75403
126.00734
124.37252
122.83693
121.39347
120.04707
118.79662
117.62122
116.50515
115.44903
114.45531
113.52569
112.65953
111.85057
111.08787
110.36706
109.68835
109.04895
108.44825
107.8853
107.34485
106.81608
106.31394
105.8464
105.40482
104.9778
104.56678
104.17736
103.80313
103.44818
103.1234
102.82584
102.54484
102.27811
102.02925
101.80477
101.60475
101.42275
101.25756
101.09659
100.94396
100.80507
100.66003
100.51803
100.36734
100.24262
100.06769
99.950989
99.874722
99.760928
99.664447
99.597082
99.568552
99.447311
3572.6881
3460.636
3345.7388
3230.998
3116.6903
3003.0849
2890.4424
2779.0125
2669.0315
2560.7204
2454.2835
2349.9075
2247.761
2147.9948
2050.7422
1956.1202
1864.2306
1775.1619
1688.9911
1605.9765
1526.1597
1449.388
1375.6612
1304.9621
1237.2595
1172.5083
1110.6478
1051.6005
995.26764
941.52571
890.21972
841.15487
794.08447
748.69692
704.51389
661.07969
617.94274
574.17245
529.05556
482.421
435.00356
389.39097
349.62016
318.76184
296.27386
279.50837
266.1196
254.50546
244.12698
234.57479
225.69741
217.4564
209.74679
202.57113
195.88081
189.64057
183.81507
178.38301
173.30865
168.57345
164.1506
160.02835
156.18075
152.58942
149.23713
146.11267
143.1906
140.45699
137.90152
135.51476
133.28362
131.19724
129.24561
127.41576
125.70219
124.09795
122.59089
121.17171
119.844
118.61165
117.45599
116.35865
115.31925
114.33992
113.42335
112.56943
111.77132
111.01814
110.30647
109.63683
109.00662
108.41465
107.85784
107.32021
106.79398
106.2967
105.8316
105.39236
104.96828
104.55995
104.17287
103.80068
103.44802
103.12476
102.82736
102.5458
102.27963
102.03252
101.80976
101.61105
101.4296
101.26486
101.10422
100.95249
100.8145
100.66975
100.52768
100.37727
100.25275
100.07626
99.959815
99.884982
99.770205
99.674719
99.608334
99.576963
99.449655
3223.0337
3128.0082
3030.1164
2931.9867
2833.8632
2735.9851
2638.587
2541.8959
2446.1286
2351.4902
2258.1723
2166.3523
2076.1931
1987.8431
1901.4365
1817.0941
1734.9243
1655.0247
1577.4832
1502.5964
1430.4284
1360.8167
1293.779
1229.3155
1167.4121
1108.0396
1051.1517
996.68224
944.54024
894.60461
846.71659
800.67081
756.20297
712.96923
670.42224
628.15554
585.6253
541.8642
496.53939
450.0648
404.2868
362.92177
329.46981
304.72383
286.50235
272.2371
260.30236
249.53347
239.7501
230.70934
222.23172
214.35235
206.96829
200.06145
193.63113
187.61896
181.99846
176.74712
171.83432
167.24347
162.94806
158.93847
155.19105
151.69028
148.41558
145.36515
142.51053
139.83722
137.3371
135.00267
132.82054
130.77832
128.86786
127.07504
125.39426
123.81968
122.34068
120.9468
119.63865
118.42432
117.28824
116.20989
115.18769
114.22316
113.31996
112.47834
111.69092
110.94738
110.24527
109.58517
108.96431
108.38059
107.82909
107.29431
106.7713
106.27901
105.81634
105.37933
104.95822
104.55271
104.16799
103.79809
103.44787
103.12607
102.8286
102.54651
102.28121
102.03605
101.81486
101.61738
101.43651
101.2722
101.11196
100.96103
100.82389
100.67948
100.53741
100.38737
100.263
100.08491
99.968699
99.895373
99.779634
99.685161
99.619071
99.584897
99.452023
2909.3145
2828.662
2745.1999
2661.2278
2576.9621
2492.6148
2408.3945
2324.5045
2241.1406
2158.4888
2076.7243
1996.0114
1916.5028
1838.3393
1761.651
1686.5569
1613.1664
1541.5801
1471.8911
1404.4288
1339.2749
1276.2506
1215.3859
1156.6926
1100.168
1045.793
993.52963
943.3167
895.06387
848.6441
803.88513
760.56126
718.38041
676.93397
635.66337
594.20487
551.85042
507.87212
462.54249
417.2283
374.96849
339.69611
312.91382
293.24334
278.14718
265.66515
254.79673
244.73511
235.46435
226.89596
218.80585
211.26974
204.2115
197.56006
191.3859
185.59735
180.17992
175.10707
170.35584
165.90906
161.74211
157.84547
154.19816
150.78876
147.59029
144.6137
141.82672
139.2136
136.76894
134.48696
132.35437
130.35644
128.48747
126.732
125.08384
123.53807
122.0863
120.71857
119.43101
118.23469
117.11792
116.05873
115.05426
114.10504
113.21555
112.38626
111.60944
110.87575
110.1837
109.53351
108.92186
108.3457
107.79888
107.26722
106.74809
106.26079
105.80063
105.3658
104.94764
104.54503
104.16271
103.79533
103.44769
103.12731
102.82958
102.54703
102.28295
102.03984
101.82008
101.62369
101.44347
101.27956
101.11979
100.96958
100.83321
100.68919
100.54722
100.39764
100.27338
100.09364
99.977648
99.905903
99.789218
99.695766
99.62933
99.592447
99.454419
2627.4321
2558.925
2487.7265
2415.8381
2343.4526
2270.7585
2197.9393
2125.1745
2052.6376
1980.4944
1908.9022
1838.0095
1767.9559
1698.8721
1630.8802
1564.0938
1498.6189
1434.555
1371.9956
1311.2988
1252.5601
1195.579
1140.3925
1087.019
1035.4618
985.70638
937.71695
891.43085
846.75055
803.53364
761.58317
720.64302
680.38378
640.28078
599.90582
558.87093
516.32798
472.22247
427.72077
385.40384
348.7995
320.52645
299.61567
283.68755
270.79881
259.57757
249.46713
240.05897
231.28013
223.13249
215.41685
208.21381
201.47303
195.07352
189.14792
183.57704
178.35912
173.46152
168.87163
164.56807
160.53073
156.74811
153.20139
149.88504
146.76227
143.85953
141.14046
138.58746
136.19836
133.96854
131.88567
129.93186
128.1045
126.38662
124.77109
123.2535
121.82796
120.48693
119.22106
118.04286
116.94497
115.90502
114.91885
113.98552
113.11013
112.29324
111.52698
110.80351
110.12199
109.48189
108.87899
108.30963
107.76717
107.23903
106.72436
106.24198
105.78447
105.35181
104.93656
104.53689
104.15703
103.79241
103.44746
103.12846
102.83032
102.54747
102.2849
102.04388
101.82538
101.62996
101.45047
101.28694
101.12769
100.9781
100.84242
100.69886
100.55714
100.40808
100.2839
100.10246
99.986664
99.916572
99.79896
99.706531
99.639211
99.599557
99.45684
2373.8188
2315.6007
2254.8291
2193.2659
2131.0737
2068.4232
2005.4743
1942.3827
1879.2991
1816.3684
1753.729
1691.5129
1629.8454
1568.8453
1508.6244
1449.2885
1390.9372
1333.6654
1277.5638
1223.0154
1170.1266
1118.6708
1068.6872
1020.1961
973.20132
927.68722
883.61402
840.91043
799.46334
759.10439
719.59952
680.65068
641.85677
602.66265
562.80668
521.7493
478.99346
435.48684
393.57703
356.63988
327.08995
305.30719
288.80375
275.50562
264.15395
253.78293
244.25028
235.45169
227.20096
219.42817
212.05771
205.19936
198.74537
192.61373
186.92347
181.56086
176.53702
171.81063
167.38146
163.21923
159.31177
155.64468
152.19938
148.97843
145.93251
143.10395
140.45329
137.96043
135.62714
133.44873
131.41519
129.505
127.71906
126.0389
124.45605
122.9663
121.566
120.25189
119.00881
117.84894
116.7694
115.74867
114.78133
113.86456
113.00369
112.19932
111.44375
110.73097
110.06032
109.43013
108.83526
108.27214
107.73407
107.20983
106.70011
106.22253
105.76786
105.33739
104.92498
104.52829
104.15095
103.78932
103.44714
103.12949
102.83088
102.54795
102.28713
102.04814
101.83075
101.63617
101.45751
101.29434
101.13565
100.98659
100.85149
100.70846
100.56716
100.41868
100.29456
100.11137
99.995751
99.927383
99.808862
99.717459
99.648876
99.606365
99.459283
2145.3244
2095.7949
2043.9264
1991.2055
1937.7826
1883.8029
1829.4079
1774.7317
1719.9032
1665.0468
1610.2827
1555.7265
1501.4889
1447.676
1394.3884
1341.7222
1289.7688
1238.6156
1188.3474
1139.369
1091.7958
1045.371
1000.1317
956.09496
913.25969
871.60294
831.07378
791.58444
752.99713
715.10709
677.63223
640.224
602.34618
563.64494
523.97294
482.69806
440.39724
399.2101
362.42682
332.68517
310.06539
293.24349
279.80718
268.21005
257.73975
248.17335
239.28112
230.95667
223.11416
215.72761
208.7841
202.24182
196.02717
190.19131
184.7198
179.55308
174.71708
170.15714
165.88704
161.86339
158.08401
154.53356
151.19047
148.06721
145.10173
142.34803
139.76654
137.3341
135.0572
132.92918
130.94389
129.0765
127.33143
125.68885
124.13868
122.67677
121.3009
120.01356
118.79424
117.65301
116.59127
115.58966
114.64164
113.74208
112.89621
112.10459
111.36001
110.65842
109.99868
109.37785
108.7903
108.23317
107.69974
107.17968
106.67532
106.20244
105.75078
105.32256
104.91291
104.51918
104.1445
103.78605
103.4467
103.13037
102.83135
102.5486
102.28968
102.05257
101.83618
101.64229
101.46457
101.30179
101.14366
100.99504
100.86039
100.71796
100.5773
100.42943
100.30535
100.12036
100.00491
99.938333
99.818923
99.728555
99.658489
99.612983
99.461743
1939.1506
1896.9881
1852.7389
1807.6099
1761.7448
1715.2629
1668.2878
1620.9348
1573.3136
1525.5302
1477.6879
1429.8868
1382.2235
1334.7911
1287.6788
1240.9715
1194.7506
1149.0944
1104.0792
1060.1278
1017.3631
975.49473
934.5532
894.54704
855.46402
817.26646
779.88391
743.20283
707.0516
671.18139
635.2576
598.8413
561.37528
522.88045
483.1534
442.2275
402.20016
366.01106
336.49995
313.97602
296.95386
283.45518
271.70726
261.26274
251.69615
242.79022
234.43447
226.5703
219.14614
212.12719
205.49706
199.23133
193.35453
187.81896
182.53812
177.56041
172.90665
168.50761
164.39207
160.50429
156.84829
153.41402
150.17377
147.14918
144.27021
141.59212
139.0808
136.70955
134.4901
132.41163
130.47295
128.6473
126.94211
125.33663
123.81895
122.38512
121.03328
119.77218
118.57733
117.4552
116.41072
115.42808
114.49974
113.61806
112.78769
112.00917
111.27606
110.58602
109.93686
109.32459
108.74384
108.19283
107.66431
107.14864
106.64997
106.18168
105.73324
105.30731
104.90031
104.50955
104.13768
103.78258
103.44611
103.13112
102.83182
102.54955
102.29257
102.05714
101.84167
101.64835
101.47165
101.30928
101.1517
101.00346
100.86911
100.72734
100.58757
100.44031
100.31625
100.12943
100.01415
99.949418
99.829144
99.739818
99.668158
99.619515
99.464219
1752.8913
1716.9902
1679.2483
1640.6476
1601.296
1561.3037
1520.7701
1479.7917
1438.4615
1396.87
1355.1055
1313.2542
1271.3995
1229.622
1187.9987
1146.6031
1105.505
1064.7714
1024.4678
985.03086