/*--------------------------------*- C++ -*----------------------------------*\
| =========                 |                                                 |
| \\      /  F ield         | OpenFOAM: The Open Source CFD Toolbox           |
|  \\    /   O peration     | Version:  2406                                  |
|   \\  /    A nd           | Website:  www.openfoam.com                      |
|    \\/     M anipulation  |                                                 |
\*---------------------------------------------------------------------------*/
FoamFile
{
    version     2.0;
    format      ascii;
    arch        "LSB;label=32;scalar=64";
    class       volScalarField;
    location    "0.001";
    object      T;
}
// * * * * * * * * * * * * * * * * * * * * * * * * * * * * * * * * * * * * * //

dimensions      [0 0 0 1 0 0 0];

internalField   nonuniform List<scalar> 
92813
(
292.19395
292.19643
292.19837
292.20188
292.20666
292.2123
292.21856
292.22527
292.23226
292.23943
292.24669
292.25394
292.26112
292.26812
292.27485
292.28122
292.28717
292.29269
292.29777
292.30244
292.30667
292.31047
292.31383
292.31677
292.31929
292.32141
292.32314
292.32451
292.32553
292.32623
292.32664
292.3268
292.32676
292.32658
292.32633
292.32613
292.3261
292.3264
292.32719
292.32867
292.33135
292.33568
292.34221
292.35173
292.36522
292.38386
292.40894
292.44143
292.48078
292.52329
292.56277
292.59497
292.61988
292.63975
292.65679
292.67233
292.68706
292.70125
292.71501
292.72835
292.7413
292.75384
292.76596
292.77766
292.78892
292.79973
292.81007
292.81993
292.82931
292.83819
292.84658
292.85446
292.86185
292.86876
292.87518
292.88114
292.88666
292.89178
292.89655
292.901
292.90517
292.90912
292.91287
292.91647
292.91998
292.92343
292.92688
292.9304
292.93405
292.93791
292.94206
292.94656
292.9515
292.95691
292.96282
292.96921
292.97607
292.9833
292.99075
292.99829
293.00574
293.01287
293.01941
293.02511
293.02973
293.03303
293.03482
293.03504
293.03373
293.03107
293.02737
293.02304
293.01849
293.0141
293.01001
293.00623
293.00263
292.99903
292.99515
292.99068
292.98562
292.97968
292.97343
292.967
292.96135
292.95711
292.95162
292.24515
292.24296
292.24248
292.24391
292.2464
292.24961
292.25342
292.25772
292.26241
292.26738
292.27254
292.27781
292.28312
292.2884
292.29354
292.29847
292.30313
292.30746
292.31147
292.31513
292.31841
292.32132
292.32386
292.32604
292.32786
292.32934
292.33049
292.33132
292.33186
292.33212
292.33215
292.33197
292.33165
292.33123
292.33081
292.33048
292.33037
292.33072
292.33163
292.33335
292.33642
292.3413
292.34861
292.35918
292.37406
292.39446
292.42161
292.45614
292.49667
292.53846
292.57542
292.60471
292.6274
292.64589
292.66212
292.67718
292.69156
292.70547
292.71897
292.73208
292.74481
292.75714
292.76907
292.78058
292.79165
292.80229
292.81246
292.82216
292.83138
292.84011
292.84835
292.8561
292.86336
292.87014
292.87644
292.88229
292.88772
292.89274
292.89742
292.90179
292.90589
292.90977
292.91346
292.91701
292.92046
292.92387
292.92729
292.93079
292.93443
292.93828
292.94244
292.94696
292.95192
292.95737
292.96331
292.96974
292.97664
292.9839
292.99138
292.99895
293.00642
293.01355
293.02009
293.02579
293.03039
293.03367
293.03545
293.03564
293.03432
293.03164
293.02794
293.02361
293.01907
293.01468
293.01058
293.00677
293.00314
292.99949
292.99554
292.99101
292.98587
292.97985
292.97352
292.96703
292.9613
292.95704
292.95147
292.29841
292.29436
292.29184
292.29101
292.2911
292.29187
292.29325
292.29517
292.29756
292.30031
292.30337
292.30663
292.31002
292.31346
292.31685
292.32013
292.32325
292.32617
292.32885
292.33125
292.33337
292.33521
292.33676
292.33802
292.33899
292.33967
292.34009
292.34024
292.34015
292.33984
292.33934
292.33869
292.33794
292.33716
292.33643
292.33585
292.33557
292.33584
292.33679
292.33867
292.34208
292.34749
292.35558
292.36726
292.38362
292.40589
292.43519
292.47164
292.5128
292.5531
292.5872
292.61375
292.63453
292.65189
292.66744
292.68205
292.69609
292.70971
292.72294
292.73581
292.74831
292.76042
292.77214
292.78345
292.79434
292.80479
292.81478
292.82431
292.83337
292.84195
292.85004
292.85765
292.86477
292.87143
292.87762
292.88336
292.88869
292.89362
292.89821
292.9025
292.90654
292.91035
292.91398
292.91748
292.92089
292.92426
292.92766
292.93114
292.93477
292.93863
292.9428
292.94735
292.95234
292.95783
292.96382
292.97029
292.97723
292.98453
292.99204
292.99963
293.00711
293.01425
293.02079
293.02648
293.03106
293.03432
293.03607
293.03624
293.03489
293.0322
293.02849
293.02417
293.01963
293.01524
293.01113
293.00731
293.00365
292.99995
292.99594
292.99133
292.98611
292.98002
292.97361
292.96705
292.96124
292.95696
292.95132
292.34929
292.34368
292.33934
292.33646
292.33445
292.33312
292.33241
292.33227
292.33263
292.33342
292.33455
292.33596
292.33755
292.33924
292.34096
292.34264
292.34425
292.34573
292.34707
292.34822
292.34918
292.34994
292.35048
292.3508
292.3509
292.35078
292.35044
292.34989
292.34915
292.34825
292.34721
292.34607
292.34489
292.34373
292.34268
292.34185
292.3414
292.3416
292.34259
292.34466
292.34845
292.35446
292.36343
292.37634
292.39432
292.41861
292.45008
292.48813
292.52918
292.56731
292.5984
292.62242
292.64157
292.65795
292.6729
292.68709
292.7008
292.71412
292.72708
292.7397
292.75195
292.76384
292.77534
292.78644
292.79713
292.80738
292.8172
292.82655
292.83544
292.84386
292.85179
292.85926
292.86625
292.87278
292.87885
292.88448
292.8897
292.89454
292.89904
292.90326
292.90721
292.91096
292.91453
292.91798
292.92135
292.92469
292.92806
292.93153
292.93516
292.93902
292.94321
292.94778
292.95281
292.95834
292.96436
292.97088
292.97786
292.9852
292.99274
293.00035
293.00785
293.01499
293.02152
293.0272
293.03176
293.03499
293.03671
293.03685
293.03548
293.03278
293.02906
293.02474
293.0202
293.01582
293.01171
293.00787
293.00417
293.00041
292.99634
292.99166
292.98636
292.98019
292.97369
292.96707
292.96118
292.95688
292.95118
292.39761
292.39059
292.38469
292.38003
292.37618
292.37299
292.37043
292.36844
292.36696
292.36594
292.3653
292.36497
292.36487
292.36492
292.36507
292.36526
292.36543
292.36556
292.36561
292.36556
292.36539
292.36508
292.36462
292.36401
292.36323
292.36229
292.36119
292.35994
292.35856
292.35706
292.35547
292.35385
292.35223
292.3507
292.34935
292.3483
292.34771
292.34789
292.34896
292.3513
292.35555
292.36228
292.37229
292.3866
292.4064
292.43283
292.46639
292.50555
292.54566
292.58104
292.60907
292.6308
292.64851
292.66404
292.67845
292.69224
292.7056
292.71862
292.73131
292.74366
292.75567
292.76732
292.7786
292.78948
292.79996
292.81003
292.81965
292.82883
292.83754
292.84579
292.85357
292.86088
292.86774
292.87414
292.88009
292.88561
292.89073
292.89547
292.89989
292.90402
292.9079
292.91158
292.9151
292.9185
292.92182
292.92513
292.92848
292.93193
292.93555
292.93943
292.94363
292.94824
292.9533
292.95887
292.96494
292.9715
292.97852
292.98589
292.99346
293.0011
293.00861
293.01575
293.02228
293.02794
293.03248
293.03567
293.03736
293.03748
293.03608
293.03336
293.02964
293.02532
293.02079
293.01641
293.01229
293.00843
293.00469
293.00089
292.99675
292.992
292.98661
292.98036
292.97378
292.96709
292.96112
292.9568
292.95104
292.44369
292.43546
292.42823
292.42202
292.41654
292.41171
292.40749
292.40383
292.4007
292.39802
292.39574
292.3938
292.39212
292.39065
292.38932
292.38808
292.3869
292.38573
292.38456
292.38333
292.38205
292.38069
292.37924
292.37769
292.37604
292.37428
292.37242
292.37046
292.36842
292.36632
292.36419
292.36207
292.36002
292.35813
292.35649
292.35523
292.35454
292.35473
292.35594
292.35863
292.36345
292.37102
292.38223
292.39813
292.41993
292.44859
292.48402
292.52359
292.56189
292.59413
292.61922
292.6389
292.65537
292.67014
292.68405
292.69744
292.71047
292.72319
292.73559
292.74767
292.75943
292.77084
292.78189
292.79256
292.80283
292.81269
292.82212
292.83112
292.83965
292.84774
292.85536
292.86252
292.86923
292.8755
292.88134
292.88675
292.89176
292.89641
292.90073
292.90478
292.9086
292.91221
292.91567
292.91902
292.9223
292.92558
292.9289
292.93234
292.93597
292.93985
292.94408
292.94871
292.95381
292.95942
292.96553
292.97214
292.97921
292.98661
292.99421
293.00187
293.00939
293.01653
293.02305
293.02869
293.03321
293.03637
293.03803
293.03812
293.0367
293.03396
293.03023
293.02591
293.02139
293.01702
293.01289
293.00901
293.00523
293.00138
292.99716
292.99234
292.98687
292.98054
292.97387
292.96711
292.96107
292.95671
292.9509
292.48748
292.47826
292.4699
292.46237
292.45549
292.44922
292.44353
292.43838
292.43374
292.42956
292.42579
292.42236
292.41923
292.41633
292.41362
292.41104
292.40857
292.40617
292.40381
292.40146
292.39909
292.3967
292.39428
292.39181
292.38929
292.38672
292.38409
292.38142
292.37873
292.37602
292.37334
292.37074
292.36827
292.36602
292.3641
292.36266
292.36192
292.36217
292.36357
292.36669
292.3722
292.38078
292.39335
292.41105
292.43501
292.46589
292.50278
292.54187
292.57759
292.60649
292.62885
292.64676
292.66215
292.67626
292.6897
292.70271
292.71541
292.72781
292.73992
292.75173
292.76323
292.7744
292.78521
292.79566
292.80572
292.81537
292.82461
292.83342
292.84178
292.84969
292.85715
292.86416
292.87073
292.87687
292.88258
292.88788
292.89279
292.89735
292.90158
292.90556
292.9093
292.91285
292.91625
292.91955
292.92279
292.92603
292.92934
292.93277
292.93639
292.94029
292.94454
292.9492
292.95435
292.96
292.96616
292.97281
292.97992
292.98736
292.99499
293.00267
293.01019
293.01734
293.02384
293.02947
293.03396
293.03709
293.03872
293.03877
293.03732
293.03457
293.03084
293.02652
293.02201
293.01764
293.01351
293.0096
293.00579
293.00188
292.99759
292.99269
292.98713
292.98073
292.97397
292.96713
292.96101
292.95662
292.95076
292.5289
292.51888
292.50958
292.50095
292.49289
292.48539
292.47842
292.47195
292.46597
292.46044
292.4553
292.45052
292.44605
292.44183
292.43783
292.43401
292.43033
292.42675
292.42326
292.41983
292.41642
292.41303
292.40966
292.40629
292.40292
292.39954
292.39616
292.39279
292.38944
292.38614
292.38292
292.37984
292.37696
292.37438
292.37221
292.37061
292.36988
292.37024
292.3719
292.37557
292.38191
292.39165
292.4058
292.42549
292.45173
292.48467
292.52235
292.55998
292.59252
292.61812
292.63804
292.65442
292.6689
292.68241
292.6954
292.70804
292.72039
292.73248
292.7443
292.75583
292.76707
292.77799
292.78856
292.79878
292.80862
292.81807
292.82711
292.83573
292.84391
292.85165
292.85895
292.86581
292.87224
292.87824
292.88383
292.88902
292.89383
292.89829
292.90244
292.90633
292.91
292.91349
292.91684
292.92008
292.92329
292.9265
292.92978
292.9332
292.93683
292.94074
292.94502
292.94972
292.9549
292.9606
292.9668
292.9735
292.98066
292.98813
292.99579
293.00348
293.01102
293.01816
293.02466
293.03026
293.03473
293.03783
293.03941
293.03944
293.03797
293.0352
293.03146
293.02715
293.02265
293.01828
293.01414
293.01021
293.00636
293.00239
292.99803
292.99305
292.9874
292.98092
292.97406
292.96716
292.96096
292.95652
292.95063
292.56794
292.55731
292.54723
292.5377
292.52867
292.52012
292.51204
292.50443
292.49727
292.49053
292.48417
292.47816
292.47247
292.46705
292.46186
292.45687
292.45205
292.44737
292.44282
292.43834
292.43394
292.4296
292.42531
292.42106
292.41686
292.41269
292.40858
292.40451
292.40053
292.39664
292.3929
292.38936
292.38609
292.38319
292.38081
292.37911
292.37843
292.37895
292.38101
292.38536
292.39268
292.40378
292.41972
292.4416
292.47015
292.50478
292.54232
292.57753
292.60655
292.62905
292.64686
292.66195
292.67563
292.68859
292.70115
292.71341
292.72543
292.7372
292.74872
292.75997
292.77094
292.78161
292.79194
292.80193
292.81155
292.82078
292.82962
292.83804
292.84604
292.85361
292.86075
292.86745
292.87374
292.87962
292.88509
292.89016
292.89487
292.89923
292.9033
292.90711
292.91071
292.91414
292.91743
292.92063
292.92379
292.92697
292.93024
292.93365
292.93729
292.94121
292.94551
292.95025
292.95548
292.96122
292.96747
292.97422
292.98142
292.98892
292.99661
293.00433
293.01187
293.01901
293.02549
293.03108
293.03551
293.03857
293.04013
293.04012
293.03862
293.03584
293.0321
293.02779
293.0233
293.01893
293.01478
293.01083
293.00693
293.00291
292.99848
292.99342
292.98768
292.98111
292.97416
292.96718
292.9609
292.95642
292.9505
292.60468
292.59356
292.58286
292.5726
292.56277
292.55334
292.54433
292.53573
292.52754
292.51973
292.51229
292.50518
292.49839
292.49186
292.48558
292.47952
292.47365
292.46794
292.46238
292.45693
292.45157
292.44631
292.44114
292.43606
292.43105
292.42613
292.42129
292.41656
292.41196
292.40751
292.40326
292.39928
292.39565
292.39248
292.38992
292.38817
292.3876
292.3884
292.39097
292.39616
292.40464
292.41733
292.43529
292.4595
292.49024
292.52589
292.5622
292.5942
292.61963
292.63935
292.65537
292.66937
292.68235
292.69481
292.70694
292.71884
292.73051
292.74196
292.75318
292.76415
292.77485
292.78525
292.79534
292.80509
292.81449
292.82351
292.83214
292.84037
292.84818
292.85557
292.86255
292.8691
292.87525
292.88099
292.88634
292.8913
292.89591
292.90018
292.90416
292.90789
292.91142
292.91479
292.91802
292.92117
292.9243
292.92745
292.9307
292.93411
292.93776
292.9417
292.94603
292.95081
292.95608
292.96187
292.96817
292.97497
292.98221
292.98975
292.99746
293.00519
293.01275
293.01988
293.02635
293.03191
293.03631
293.03934
293.04086
293.04082
293.03929
293.0365
293.03275
293.02845
293.02396
293.0196
293.01545
293.01147
293.00753
293.00344
292.99894
292.9938
292.98796
292.98131
292.97427
292.96721
292.96085
292.95632
292.95038
292.63919
292.6277
292.61651
292.60567
292.59517
292.58502
292.57522
292.56578
292.5567
292.54797
292.53957
292.53149
292.52371
292.51619
292.50892
292.50187
292.49503
292.48836
292.48186
292.47549
292.46924
292.46312
292.45711
292.45122
292.44545
292.43979
292.43427
292.4289
292.4237
292.41871
292.41398
292.40959
292.40564
292.40224
292.39957
292.39785
292.39748
292.39865
292.40189
292.40808
292.41796
292.43247
292.45267
292.47928
292.51183
292.54752
292.58148
292.60978
292.63179
292.64911
292.66364
292.67672
292.68908
292.70106
292.71278
292.72431
292.73564
292.74676
292.75768
292.76835
292.77878
292.78892
292.79875
292.80827
292.81743
292.82624
292.83466
292.84269
292.85032
292.85754
292.86435
292.87075
292.87675
292.88236
292.88759
292.89245
292.89695
292.90113
292.90503
292.90868
292.91214
292.91544
292.91862
292.92173
292.92482
292.92795
292.93118
292.93459
292.93824
292.94221
292.94657
292.95139
292.95671
292.96255
292.96889
292.97574
292.98302
292.9906
292.99834
293.00609
293.01364
293.02077
293.02722
293.03276
293.03713
293.04012
293.0416
293.04153
293.03998
293.03717
293.03342
293.02912
293.02465
293.02029
293.01612
293.01212
293.00814
293.00399
292.99941
292.99419
292.98825
292.98152
292.97437
292.96724
292.9608
292.95621
292.95025
292.67155
292.65978
292.64821
292.63691
292.62588
292.61513
292.60468
292.59453
292.5847
292.57517
292.56595
292.55701
292.54835
292.53995
292.53178
292.52384
292.5161
292.50855
292.50118
292.49396
292.48688
292.47994
292.47314
292.46649
292.45999
292.45364
292.44746
292.44148
292.43572
292.43023
292.42506
292.4203
292.41607
292.41249
292.40977
292.40819
292.40813
292.40979
292.41389
292.4213
292.43282
292.44942
292.47203
292.50091
292.53456
292.56906
292.5997
292.62417
292.64314
292.65845
292.67174
292.68403
292.69582
292.70734
292.71866
292.72982
292.7408
292.7516
292.7622
292.77258
292.78273
292.7926
292.80218
292.81145
292.82039
292.82897
292.83719
292.84502
292.85246
292.8595
292.86615
292.8724
292.87826
292.88374
292.88884
292.89359
292.89799
292.90208
292.90589
292.90947
292.91286
292.9161
292.91923
292.92229
292.92534
292.92845
292.93167
292.93508
292.93874
292.94274
292.94713
292.95199
292.95736
292.96325
292.96964
292.97654
292.98387
292.99147
292.99924
293.00701
293.01457
293.02169
293.02812
293.03364
293.03797
293.04093
293.04237
293.04225
293.04068
293.03785
293.0341
293.02982
293.02535
293.021
293.01682
293.01279
293.00876
293.00455
292.99989
292.99458
292.98855
292.98173
292.97449
292.96727
292.96074
292.9561
292.95014
292.70185
292.68986
292.67802
292.66637
292.65492
292.6437
292.63271
292.62197
292.6115
292.6013
292.59136
292.58168
292.57225
292.56306
292.5541
292.54535
292.5368
292.52845
292.52027
292.51226
292.5044
292.49671
292.48917
292.48181
292.47462
292.46762
292.46083
292.45428
292.448
292.44204
292.43648
292.43141
292.42695
292.42327
292.42058
292.41927
292.41963
292.42194
292.42712
292.43602
292.44945
292.46838
292.49346
292.52417
292.55783
292.58985
292.6166
292.63742
292.65378
292.66745
292.67972
292.69131
292.70258
292.71365
292.72458
292.73536
292.74599
292.75646
292.76675
292.77683
292.78669
292.7963
292.80562
292.81465
292.82335
292.83171
292.83971
292.84735
292.8546
292.86147
292.86795
292.87404
292.87976
292.88511
292.89009
292.89473
292.89903
292.90303
292.90676
292.91026
292.91358
292.91676
292.91984
292.92285
292.92588
292.92896
292.93217
292.93558
292.93926
292.94328
292.94772
292.95263
292.95804
292.96398
292.97042
292.97737
292.98474
292.99238
293.00017
293.00795
293.01552
293.02263
293.02904
293.03453
293.03883
293.04174
293.04314
293.043
293.04139
293.03856
293.03481
293.03052
293.02607
293.02172
293.01753
293.01347
293.00939
293.00512
293.00038
292.99498
292.98886
292.98194
292.9746
292.9673
292.96069
292.95599
292.95002
292.73015
292.71804
292.706
292.69408
292.68232
292.67072
292.6593
292.64809
292.63709
292.62632
292.61577
292.60545
292.59535
292.58547
292.57579
292.56632
292.55705
292.54797
292.53907
292.53033
292.52176
292.51337
292.50515
292.49713
292.48931
292.4817
292.47435
292.46727
292.46051
292.45415
292.44824
292.44292
292.43832
292.43463
292.43209
292.43116
292.43206
292.43528
292.44181
292.45245
292.46808
292.48952
292.51689
292.5486
292.58085
292.60934
292.63205
292.64965
292.66385
292.67619
292.6876
292.69858
292.70936
292.71999
292.73051
292.74092
292.7512
292.76134
292.77131
292.7811
292.79067
292.8
292.80906
292.81784
292.8263
292.83444
292.84223
292.84967
292.85673
292.86342
292.86974
292.87568
292.88126
292.88648
292.89134
292.89586
292.90007
292.90398
292.90762
292.91105
292.91431
292.91742
292.92045
292.92343
292.92642
292.92948
292.93269
292.9361
292.9398
292.94385
292.94833
292.95328
292.95875
292.96474
292.97124
292.97824
292.98564
292.99332
293.00113
293.00893
293.01649
293.02359
293.02999
293.03545
293.03971
293.04258
293.04394
293.04376
293.04213
293.03928
293.03552
293.03125
293.02681
293.02246
293.01826
293.01417
293.01004
293.0057
293.00088
292.9954
292.98917
292.98216
292.97472
292.96733
292.96064
292.95587
292.94992
292.75655
292.74437
292.73221
292.72011
292.70811
292.69622
292.68446
292.67287
292.66144
292.65019
292.63914
292.62827
292.6176
292.60711
292.59682
292.58671
292.57679
292.56706
292.5575
292.54811
292.5389
292.52986
292.52102
292.5124
292.50399
292.49584
292.48797
292.48042
292.47325
292.46653
292.46036
292.45486
292.45021
292.44661
292.44437
292.44395
292.44563
292.45002
292.45817
292.47087
292.48896
292.51292
292.54201
292.57342
292.60285
292.6272
292.64613
292.66102
292.67349
292.68475
292.69543
292.70584
292.71614
292.72634
292.73647
292.7465
292.75643
292.76623
292.77588
292.78537
292.79465
292.8037
292.81251
292.82103
292.82926
292.83717
292.84475
292.85198
292.85886
292.86537
292.87153
292.87732
292.88275
292.88784
292.89258
292.897
292.90111
292.90493
292.90849
292.91184
292.91503
292.91809
292.92107
292.924
292.92696
292.93001
292.93321
292.93664
292.94036
292.94444
292.94896
292.95396
292.95948
292.96552
292.97208
292.97913
292.98658
292.99428
293.00212
293.00993
293.01749
293.02458
293.03096
293.03638
293.04061
293.04344
293.04475
293.04453
293.04288
293.04001
293.03626
293.032
293.02756
293.02322
293.019
293.01488
293.0107
293.0063
293.00139
292.99582
292.98949
292.98239
292.97484
292.96736
292.96059
292.95576
292.94982
292.78114
292.76894
292.75671
292.74449
292.73232
292.72022
292.70821
292.69632
292.68455
292.67292
292.66144
292.65012
292.63895
292.62796
292.61713
292.60647
292.59598
292.58566
292.57552
292.56555
292.55575
292.54615
292.53675
292.52758
292.51865
292.51001
292.50169
292.49373
292.48621
292.47921
292.47285
292.46727
292.46267
292.4593
292.45754
292.45785
292.46051
292.46638
292.47648
292.49156
292.51225
292.53841
292.56814
292.59764
292.62317
292.64335
292.65899
292.6717
292.68281
292.69317
292.7032
292.71309
292.72293
292.7327
292.74243
292.75209
292.76166
292.77112
292.78046
292.78964
292.79863
292.80741
292.81594
292.82422
292.8322
292.83989
292.84725
292.85428
292.86097
292.86731
292.8733
292.87895
292.88424
292.8892
292.89382
292.89813
292.90214
292.90587
292.90935
292.91263
292.91575
292.91876
292.92169
292.92459
292.92752
292.93055
292.93375
292.93719
292.94094
292.94506
292.94962
292.95467
292.96025
292.96634
292.97295
292.98006
292.98754
292.99528
293.00314
293.01096
293.01852
293.02559
293.03195
293.03734
293.04153
293.04431
293.04558
293.04532
293.04364
293.04076
293.03702
293.03276
293.02834
293.02399
293.01976
293.01561
293.01138
293.00691
293.00192
292.99625
292.98982
292.98262
292.97497
292.96739
292.96054
292.95564
292.94972
292.80398
292.7918
292.77955
292.76727
292.755
292.74275
292.73056
292.71844
292.70641
292.69448
292.68266
292.67096
292.65939
292.64796
292.63667
292.62554
292.61455
292.60373
292.59308
292.5826
292.57229
292.56218
292.55228
292.54263
292.53326
292.52419
292.51548
292.50718
292.49939
292.4922
292.48575
292.4802
292.47579
292.47282
292.47179
292.47302
292.47695
292.48469
292.49708
292.51477
292.53794
292.56546
292.59425
292.62034
292.6415
292.6579
292.67084
292.68188
292.69189
292.70148
292.71094
292.72032
292.72971
292.73907
292.7484
292.75768
292.7669
292.77602
292.78503
292.7939
292.8026
292.8111
292.81937
292.82739
292.83514
292.84259
292.84974
292.85658
292.86308
292.86924
292.87507
292.88056
292.88572
292.89055
292.89506
292.89926
292.90317
292.90681
292.91022
292.91342
292.91648
292.91943
292.92231
292.92517
292.92809
292.93111
292.93431
292.93776
292.94153
292.9457
292.9503
292.95541
292.96104
292.96719
292.97386
292.98101
292.98853
292.9963
293.00419
293.01201
293.01957
293.02664
293.03297
293.03832
293.04246
293.0452
293.04643
293.04613
293.04442
293.04153
293.03779
293.03355
293.02914
293.02479
293.02054
293.01635
293.01207
293.00753
293.00245
292.99669
292.99016
292.98285
292.9751
292.96743
292.9605
292.95552
292.94963
292.82514
292.813
292.80076
292.78847
292.77616
292.76384
292.75153
292.73925
292.72703
292.71487
292.70278
292.69078
292.67889
292.6671
292.65543
292.64389
292.63249
292.62124
292.61015
292.59922
292.58847
292.57792
292.5676
292.55754
292.54778
292.53836
292.52934
292.5208
292.51282
292.50554
292.49912
292.49375
292.48972
292.48737
292.48726
292.48969
292.49532
292.50529
292.52027
292.5406
292.56565
292.59306
292.61913
292.64088
292.65785
292.6711
292.68191
292.69167
292.70081
292.70971
292.71864
292.72753
292.73648
292.74542
292.75435
292.76326
292.77212
292.7809
292.78959
292.79815
292.80656
292.81478
292.82278
292.83055
292.83805
292.84528
292.85222
292.85885
292.86517
292.87116
292.87683
292.88217
292.88719
292.8919
292.89629
292.90038
292.90419
292.90774
292.91107
292.91421
292.9172
292.92009
292.92293
292.92577
292.92866
292.93167
292.93488
292.93835
292.94215
292.94636
292.95102
292.95617
292.96186
292.96807
292.9748
292.982
292.98956
292.99736
293.00527
293.0131
293.02066
293.0277
293.03401
293.03933
293.04342
293.04611
293.04729
293.04696
293.04522
293.04232
293.03858
293.03435
293.02995
293.0256
293.02134
293.01711
293.01278
293.00816
293.003
292.99715
292.99051
292.9831
292.97524
292.96746
292.96045
292.95539
292.94955
292.84462
292.83257
292.82041
292.80817
292.79586
292.78351
292.77114
292.75877
292.74642
292.73409
292.72181
292.70958
292.69742
292.68535
292.67337
292.6615
292.64976
292.63815
292.62669
292.61539
292.60427
292.59336
292.58269
292.57229
292.56222
292.55253
292.54329
292.53459
292.52655
292.51931
292.51306
292.50805
292.5046
292.50315
292.50426
292.50823
292.516
292.52855
292.54625
292.5688
292.59443
292.61983
292.64182
292.65909
292.67245
292.68321
292.6924
292.70119
292.7096
292.71785
292.72629
292.73472
292.74321
292.75176
292.76029
292.76883
292.77733
292.78577
292.79413
292.80239
292.8105
292.81843
292.82617
292.83368
292.84095
292.84795
292.85468
292.86111
292.86724
292.87306
292.87857
292.88377
292.88865
292.89323
292.89751
292.90149
292.9052
292.90867
292.91193
292.91499
292.91792
292.92076
292.92356
292.92637
292.92924
292.93225
292.93546
292.93896
292.9428
292.94704
292.95175
292.95697
292.96271
292.96898
292.97577
292.98302
292.99062
292.99845
293.00638
293.01422
293.02177
293.0288
293.03507
293.04035
293.0444
293.04704
293.04818
293.0478
293.04604
293.04313
293.03939
293.03518
293.03078
293.02644
293.02216
293.01789
293.0135
293.00881
293.00356
292.99761
292.99086
292.98334
292.97537
292.9675
292.9604
292.95527
292.94947
292.86258
292.85064
292.8386
292.82642
292.81415
292.80182
292.78944
292.77702
292.76459
292.75216
292.73974
292.72735
292.715
292.70271
292.69049
292.67836
292.66634
292.65444
292.64269
292.63109
292.61968
292.60847
292.59753
292.58688
292.57659
292.56672
292.55736
292.54862
292.54064
292.53359
292.52771
292.52327
292.52067
292.52051
292.52313
292.52905
292.53941
292.55475
292.57489
292.59852
292.62281
292.64449
292.66186
292.67512
292.68559
292.69449
292.70253
292.71049
292.71823
292.72592
292.73391
292.74187
292.74991
292.75808
292.76621
292.77437
292.78252
292.79061
292.79865
292.80659
292.81441
292.82206
292.82953
292.83679
292.84382
292.8506
292.85711
292.86335
292.86929
292.87494
292.8803
292.88535
292.8901
292.89455
292.89871
292.90259
292.90621
292.90959
292.91277
292.91577
292.91864
292.92143
292.92419
292.92697
292.92983
292.93284
292.93606
292.93959
292.94346
292.94776
292.95252
292.9578
292.9636
292.96993
292.97677
292.98408
292.99171
292.99957
293.00752
293.01537
293.02291
293.02992
293.03617
293.0414
293.0454
293.048
293.04908
293.04866
293.04688
293.04396
293.04023
293.03602
293.03164
293.02729
293.02299
293.01869
293.01424
293.00947
293.00413
292.99808
292.99122
292.9836
292.97552
292.96754
292.96035
292.95514
292.94939
292.8792
292.86727
292.8553
292.84324
292.83106
292.81879
292.80644
292.79403
292.78158
292.76909
292.7566
292.7441
292.73162
292.71917
292.70678
292.69446
292.68223
292.67012
292.65814
292.64632
292.63468
292.62327
292.61213
292.60132
292.59091
292.58097
292.57162
292.56298
292.55522
292.54855
292.54326
292.53969
292.53832
292.53975
292.54426
292.55269
292.56591
292.58385
292.60543
292.6282
292.64921
292.66624
292.67927
292.68928
292.69759
292.70522
292.71245
292.71962
292.7267
292.73395
292.74147
292.74893
292.75658
292.76435
292.77209
292.77988
292.78767
292.79542
292.80314
292.81077
292.81829
292.82566
292.83286
292.83987
292.84667
292.85322
292.85952
292.86556
292.87133
292.87681
292.882
292.88691
292.89153
292.89586
292.89991
292.90368
292.90721
292.91051
292.91361
292.91654
292.91935
292.9221
292.92482
292.92758
292.93043
292.93344
292.93668
292.94024
292.94416
292.9485
292.95332
292.95865
292.96452
292.97092
292.97782
292.98517
292.99284
293.00073
293.00869
293.01655
293.02408
293.03107
293.03728
293.04248
293.04643
293.04897
293.05
293.04954
293.04773
293.04481
293.04108
293.03689
293.03252
293.02817
293.02384
293.0195
293.01499
293.01015
293.00471
292.99857
292.9916
292.98386
292.97566
292.96758
292.96031
292.95501
292.9493
292.89437
292.88259
292.87068
292.85869
292.84665
292.83449
292.82221
292.80984
292.7974
292.78492
292.77239
292.75984
292.74729
292.73475
292.72225
292.7098
292.69743
292.68517
292.67304
292.66107
292.6493
292.63777
292.62653
292.61567
292.60524
292.59536
292.58616
292.57779
292.57045
292.56442
292.56001
292.55765
292.55798
292.56137
292.56822
292.57955
292.59552
292.61515
292.63624
292.65598
292.67242
292.6849
292.69438
292.70209
292.70903
292.71559
292.72204
292.72855
292.73514
292.74196
292.7489
292.75594
292.76321
292.77053
292.7779
292.78536
292.7928
292.80019
292.80758
292.8149
292.82213
292.82922
292.83615
292.84291
292.84948
292.8558
292.8619
292.86775
292.87333
292.87865
292.88369
292.88846
292.89294
292.89715
292.90109
292.90476
292.90819
292.91141
292.91443
292.91731
292.92006
292.92276
292.92545
292.92819
292.93103
292.93405
292.93732
292.94091
292.94487
292.94927
292.95415
292.95955
292.96548
292.97194
292.97889
292.98629
292.994
293.00192
293.0099
293.01776
293.02528
293.03225
293.03843
293.04357
293.04747
293.04996
293.05094
293.05044
293.04861
293.04568
293.04196
293.03777
293.03341
293.02906
293.02472
293.02033
293.01575
293.01083
293.0053
292.99906
292.99198
292.98413
292.97582
292.96763
292.96026
292.95488
292.94922
292.90819
292.89651
292.88477
292.87298
292.86106
292.84898
292.83678
292.82449
292.81211
292.79966
292.78716
292.77461
292.76204
292.74947
292.73691
292.7244
292.71196
292.69962
292.68742
292.67539
292.66356
292.65201
292.64078
292.62998
292.61968
292.61002
292.60115
292.59326
292.58661
292.58151
292.57836
292.57768
292.58012
292.58585
292.59555
292.60974
292.62751
292.64689
292.66516
292.68038
292.69206
292.70085
292.70797
292.71411
292.71989
292.7256
292.73139
292.73734
292.74346
292.74979
292.7563
292.76297
292.76974
292.77661
292.78364
292.79076
292.79786
292.80491
292.81198
292.819
292.82593
292.83273
292.83941
292.84591
292.85225
292.85835
292.86424
292.8699
292.87531
292.88047
292.88535
292.88998
292.89434
292.89843
292.90226
292.90583
292.90917
292.9123
292.91525
292.91806
292.92077
292.92342
292.92608
292.92881
292.93165
292.93468
292.93798
292.9416
292.94561
292.95007
292.95501
292.96047
292.96647
292.97299
292.98001
292.98745
292.9952
293.00315
293.01114
293.019
293.02651
293.03346
293.0396
293.0447
293.04854
293.05097
293.0519
293.05136
293.0495
293.04656
293.04285
293.03868
293.03433
293.02997
293.02561
293.02117
293.01654
293.01154
293.00591
292.99957
292.99237
292.9844
292.97597
292.96768
292.96021
292.95474
292.94913
292.92078
292.90929
292.89771
292.88597
292.8741
292.86217
292.85014
292.83799
292.82573
292.81337
292.80093
292.78844
292.7759
292.76334
292.7508
292.73828
292.72584
292.7135
292.70131
292.6893
292.67753