/*--------------------------------*- C++ -*----------------------------------*\
| =========                 |                                                 |
| \\      /  F ield         | OpenFOAM: The Open Source CFD Toolbox           |
|  \\    /   O peration     | Version:  2406                                  |
|   \\  /    A nd           | Website:  www.openfoam.com                      |
|    \\/     M anipulation  |                                                 |
\*---------------------------------------------------------------------------*/
FoamFile
{
    version     2.0;
    format      ascii;
    arch        "LSB;label=32;scalar=64";
    class       volVectorField;
    location    "0.002";
    object      U;
}
// * * * * * * * * * * * * * * * * * * * * * * * * * * * * * * * * * * * * * //

dimensions      [0 1 -1 0 0 0 0];

internalField   nonuniform List<vector> 
35803
(
(43.241035 31.859268 -9.6203454e-24)
(44.402418 30.876043 -3.1946922e-20)
(45.551562 29.807868 1.8638668e-20)
(46.708756 28.669298 -2.4064212e-20)
(47.863199 27.435973 0)
(48.994566 26.123602 5.7055931e-21)
(50.084625 24.762883 -2.3653101e-20)
(51.10144 23.382816 0)
(52.081315 22.031074 0)
(53.079908 20.730668 0)
(54.108777 19.47969 -3.9302373e-20)
(55.088714 18.295772 3.0919705e-20)
(56.059144 17.179994 0)
(57.019152 16.126649 -4.2580441e-20)
(57.957564 15.108264 0)
(58.782429 14.096493 0)
(59.279387 13.007767 0)
(59.112042 11.690671 7.9915334e-22)
(58.190024 9.6606734 6.3672311e-19)
(57.316904 7.9792374 -3.2775382e-21)
(56.870652 6.7386274 8.3104253e-19)
(56.507786 5.6873305 -7.627117e-19)
(56.105242 4.7588545 -1.3773596e-18)
(55.701174 3.9474071 2.4516074e-18)
(55.27888 3.2284861 0)
(54.899299 2.5572616 0)
(54.434907 2.0098753 0)
(54.202273 1.3760857 -2.3065576e-18)
(53.910315 0.88078463 -8.6005606e-25)
(53.949137 0.12430499 -1.6261916e-18)
(51.578291 -0.070522509 -1.957675e-20)
(42.41003 31.285515 3.1207432e-20)
(43.609104 30.3198 -1.2633458e-23)
(44.78772 29.352105 -1.7590571e-20)
(45.973785 28.312501 2.3308354e-20)
(47.166501 27.180174 0)
(48.348883 25.9648 -4.6310387e-20)
(49.50121 24.690101 2.4514953e-20)
(50.603503 23.385552 -4.1217407e-21)
(51.669786 22.092685 0)
(52.735473 20.834148 -1.4261469e-23)
(53.807736 19.608778 4.0744815e-20)
(54.842168 18.433207 -3.4243587e-20)
(55.858307 17.317249 0)
(56.853781 16.256502 9.5524511e-20)
(57.816049 15.226384 0)
(58.65095 14.197474 0)
(59.142026 13.063862 -8.9310338e-20)
(58.942385 11.715205 2.3036437e-19)
(58.019909 9.6418025 -2.6182157e-21)
(57.202633 7.9788624 0)
(56.795749 6.7483661 0)
(56.452274 5.696949 1.4344813e-18)
(56.063313 4.7675945 1.2814151e-18)
(55.669576 3.9550954 -2.2735905e-18)
(55.254683 3.2348767 0)
(54.880614 2.5623593 -1.3993057e-18)
(54.420322 2.0145559 -5.8690611e-22)
(54.191336 1.3808522 1.5091836e-18)
(53.898357 0.88556588 1.7749271e-19)
(53.941453 0.12414083 1.5226837e-18)
(51.576678 -0.068283023 4.8306056e-19)
(41.465255 30.421168 -1.7864777e-20)
(42.645179 29.590861 1.7236973e-20)
(43.856779 28.758952 -7.5703659e-24)
(45.089927 27.842893 0)
(46.33647 26.829483 -6.4207252e-21)
(47.581694 25.727433 2.2511161e-20)
(48.806988 24.555595 -1.4611668e-20)
(49.995081 23.341067 4.16635e-21)
(51.149122 22.11988 -3.5399051e-21)
(52.292052 20.914101 2.094872e-20)
(53.428165 19.724458 -4.0497027e-20)
(54.526615 18.566659 3.872173e-20)
(55.597213 17.456329 6.1679172e-25)
(56.636204 16.391256 -5.1940507e-20)
(57.629747 15.349985 -1.4752369e-21)
(58.481142 14.302468 0)
(58.973741 13.123275 -1.5304597e-21)
(58.74714 11.728813 -2.4496626e-19)
(57.833386 9.6174979 -3.4519701e-19)
(57.081582 7.9902605 -3.0661599e-21)
(56.714023 6.7712712 -7.3663083e-19)
(56.391176 5.7189624 -6.6323531e-19)
(56.01739 4.787282 1.1801842e-18)
(55.635628 3.9718749 1.0418751e-18)
(55.229707 3.2487763 0)
(54.862334 2.5731623 1.3655442e-18)
(54.405855 2.0235238 9.20299e-19)
(54.178716 1.3896668 -1.4139141e-18)
(53.884747 0.89122264 2.2149725e-19)
(53.933223 0.12462661 -1.4173863e-18)
(51.565786 -0.077319301 -3.6709447e-19)
(40.602246 29.395465 2.257019e-20)
(41.749676 28.710522 -2.238102e-20)
(42.960119 28.022979 0)
(44.213958 27.24736 0)
(45.496292 26.369925 0)
(46.790999 25.397536 0)
(48.079319 24.345636 9.4799518e-21)
(49.343383 23.236964 -8.2796224e-21)
(50.579387 22.101312 0)
(51.799329 20.96007 0)
(53.004777 19.817838 -5.2713184e-21)
(54.169955 18.689302 -3.6286169e-20)
(55.29873 17.592204 3.1524178e-20)
(56.385056 16.527173 -1.4178959e-24)
(57.412658 15.476199 3.1952857e-21)
(58.280378 14.408751 -3.0981819e-21)
(58.771939 13.183434 3.2846408e-21)
(58.517773 11.726901 4.1311696e-21)
(57.618568 9.5847497 -5.4401176e-21)
(56.942682 8.005083 0)
(56.618583 6.7952151 1.3553439e-18)
(56.319071 5.7413105 -6.0782919e-19)
(55.962861 4.8070036 -1.0699417e-18)
(55.594811 3.9885749 0)
(55.199283 3.2626844 0)
(54.839636 2.5839986 1.4455448e-18)
(54.385597 2.0324733 -4.9998874e-19)
(54.162385 1.3982605 1.2507083e-18)
(53.869082 0.89765075 -2.0785031e-19)
(53.92359 0.12585988 1.3067449e-18)
(51.552204 -0.092854186 3.6774796e-20)
(39.833121 28.231241 0)
(40.940595 27.688327 0)
(42.127622 27.1441 1.2314213e-20)
(43.377801 26.516004 -1.1730732e-20)
(44.67494 25.786662 -8.1542758e-24)
(46.001543 24.958421 -3.0143543e-20)
(47.338249 24.042375 0)
(48.666203 23.055655 2.4200406e-20)
(49.975575 22.021445 1.4215935e-20)
(51.2679 20.959488 1.7054765e-24)
(52.540747 19.878281 -3.7818329e-20)
(53.772568 18.791819 -1.6771666e-23)
(54.961297 17.717507 -6.6204295e-20)
(56.097522 16.658548 0)
(57.161109 15.600613 5.4674943e-20)
(58.044151 14.512194 3.3297335e-21)
(58.529702 13.240403 1.0995333e-19)
(58.248018 11.702696 -4.3351761e-21)
(57.372294 9.5418785 5.2992048e-21)
(56.78722 8.0205914 -3.4567404e-19)
(56.509232 6.8200719 -6.063108e-19)
(56.236129 5.7652969 5.4258384e-19)
(55.900288 4.8288691 -9.6442577e-19)
(55.547989 4.0074864 3.3068272e-21)
(55.164538 3.2787351 -6.4654392e-19)
(54.814135 2.5969342 -1.293564e-18)
(54.35727 2.043074 -1.0237167e-18)
(54.142672 1.4077271 -4.7368461e-22)
(53.851492 0.90499305 1.0072456e-19)
(53.911245 0.12824523 1.1953836e-18)
(51.545964 -0.095493262 -1.8006292e-19)
(39.188021 26.938536 1.5354375e-20)
(40.243214 26.531777 2.1267256e-20)
(41.388604 26.1265 -1.5850239e-20)
(42.613134 25.64627 1.0292397e-20)
(43.90237 25.070914 2.9484031e-20)
(45.239166 24.396974 -2.858922e-23)
(46.604362 23.629688 -1.170105e-23)
(47.978521 22.779745 -1.5454348e-20)
(49.346988 21.863506 -2.7705178e-20)
(50.702513 20.89762 1.2313405e-20)
(52.037505 19.892788 2.1759058e-20)
(53.333071 18.862367 1.9225708e-20)
(54.581245 17.822229 2.5672606e-20)
(55.768332 16.777131 6.1899226e-20)
(56.868742 15.716462 -5.7596031e-20)
(57.765409 14.606087 1.1282529e-19)
(58.237902 13.287667 1.1987312e-19)
(57.92942 11.65051 0)
(57.091931 9.4877407 0)
(56.613233 8.035563 6.1989576e-19)
(56.383731 6.8450971 0)
(56.14029 5.7901236 0)
(55.82782 4.8520666 8.5746277e-19)
(55.493401 4.0278058 2.9449965e-21)
(55.123946 3.2961662 -2.1145108e-21)
(54.783701 2.6116949 2.2456474e-21)
(54.315232 2.0537041 6.4715369e-19)
(54.119307 1.4176905 0)
(53.832714 0.91360234 0)
(53.895558 0.13243439 -1.086285e-18)
(51.539074 -0.10310662 1.1006281e-19)
(38.702303 25.520152 1.938103e-20)
(39.694873 25.251368 -2.2029261e-20)
(40.78288 24.980917 1.3395824e-20)
(41.960594 24.644766 -1.7786539e-20)
(43.217287 24.223229 0)
(44.538427 23.707653 -1.2170202e-23)
(45.906684 23.096941 0)
(47.303072 22.39509 -1.4528795e-20)
(48.709977 21.611511 1.3287567e-20)
(50.113615 20.758306 0)
(51.50102 19.845909 0)
(52.853404 18.886377 -2.1066417e-23)
(54.157089 17.893282 0)
(55.393267 16.871473 -6.3675276e-20)
(56.529073 15.813793 0)
(57.436021 14.679642 -1.1753499e-19)
(57.885643 13.313735 -1.2421185e-19)
(57.551487 11.560796 -8.8850714e-21)
(56.77675 9.4261843 3.0953935e-19)
(56.41865 8.0482856 -2.7035112e-19)
(56.240051 6.8692886 -1.5463082e-20)
(56.029918 5.8152013 -1.1591876e-24)
(55.744236 4.876489 1.1931672e-20)
(55.430186 4.0496841 -2.6077816e-21)
(55.07705 3.3152608 4.4579067e-19)
(54.747701 2.6292724 1.0146521e-18)
(54.276984 2.063509 0)
(54.091831 1.4287686 3.705626e-19)
(53.812914 0.92389161 8.9895008e-20)
(53.878663 0.13967605 -9.7929721e-19)
(51.533082 -0.10899572 -5.5373078e-20)
(38.416948 24.019878 0)
(39.336832 23.882411 3.6173558e-21)
(40.352309 23.736746 -3.7397892e-21)
(41.461984 23.534045 7.5902982e-21)
(42.660342 23.257819 -2.2716652e-20)
(43.937476 22.895907 2.9619908e-20)
(45.279512 22.441726 -9.2113022e-25)
(46.669304 21.892954 0)
(48.088295 21.25207 -2.5071036e-20)
(49.5186 20.525367 -1.1540988e-20)
(50.94256 19.720408 -5.2640588e-20)
(52.339492 18.846529 3.8286141e-20)
(53.690079 17.914049 0)
(54.969495 16.926161 6.454253e-20)
(56.135426 15.878415 -5.342195e-20)
(57.046736 14.715561 -1.5055506e-20)
(57.459871 13.301146 -1.1833572e-19)
(57.103082 11.414971 0)
(56.42974 9.3611453 -2.7437016e-19)
(56.20031 8.0560324 -2.4904544e-19)
(56.075749 6.8910323 4.3896913e-19)
(55.902895 5.8394193 0)
(55.647674 4.9014545 -5.2671079e-21)
(55.356721 4.0726519 4.5995051e-21)
(55.022395 3.3357689 -2.7842375e-21)
(54.704758 2.6496182 3.4929025e-21)
(54.254291 2.0761842 -4.1388335e-19)
(54.060111 1.4412602 -2.0690694e-19)
(53.785156 0.93913064 1.4156102e-19)
(53.859506 0.14966374 6.82808e-20)
(51.526763 -0.11368438 5.2402985e-20)
(38.358501 22.528839 0)
(39.193616 22.486874 0)
(40.121784 22.441281 3.1099226e-21)
(41.144941 22.351274 0)
(42.262369 22.20146 -1.3056977e-20)
(43.469176 21.978023 2.6075504e-20)
(44.755843 21.670532 -1.276492e-20)
(46.108397 21.271201 2.4589295e-20)
(47.509403 20.775803 -1.6024537e-23)
(48.939441 20.183932 2.1823226e-20)
(50.377679 19.497994 6.0728961e-20)
(51.800741 18.722736 3.7360364e-20)
(53.183835 17.863814 -3.452086e-20)
(54.495115 16.920791 -6.4396434e-20)
(55.680034 15.890377 6.1361888e-20)
(56.587319 14.685497 3.0214986e-20)
(56.943749 13.22579 1.0938299e-19)
(56.57333 11.195314 0)
(56.05887 9.2949926 0)
(55.955241 8.0550609 -2.7390052e-23)
(55.888047 6.9078602 -3.8746565e-19)
(55.756947 5.861281 0)
(55.536358 4.926137 2.9644941e-19)
(55.271596 4.0962885 0)
(54.95868 3.3574988 -2.712451e-19)
(54.653764 2.6720227 -7.8584195e-19)
(54.2218 2.0897928 6.8423569e-19)
(54.023363 1.4557824 -1.6416435e-22)
(53.749302 0.95902248 -7.4627886e-19)
(53.836027 0.16359994 -1.6963399e-19)
(51.519449 -0.11772986 2.4832408e-24)
(38.520967 21.063919 1.2647286e-20)
(39.26544 21.092485 -8.2253484e-24)
(40.09722 21.124133 -1.8092253e-20)
(41.021461 21.124079 0)
(42.041544 21.078026 2.4693008e-24)
(43.157109 20.972271 -1.1391194e-20)
(44.362974 20.794408 0)
(45.649145 20.532698 1.1126527e-20)
(47.001096 20.177214 -2.1490971e-20)
(48.400373 19.720889 0)
(49.825087 19.15962 -3.847263e-20)
(51.249635 18.49182 0)
(52.64427 17.716761 0)
(53.969132 16.828363 0)
(55.154193 15.82151 -1.5216391e-20)
(56.03744 14.570845 -1.1978221e-19)
(56.322763 13.02319 -1.0654217e-19)
(55.967628 10.897051 0)
(55.672348 9.2226195 0)
(55.680326 8.0406545 2.0675228e-19)
(55.674012 6.9162366 6.4966117e-25)
(55.589519 5.8786391 -3.0716726e-19)
(55.408295 4.9491673 -2.5996993e-19)
(55.173185 4.1198149 -4.5339796e-19)
(54.885538 3.3795956 -1.2975269e-24)
(54.592882 2.6959407 0)
(54.190282 2.1076519 0)
(53.980354 1.4727817 0)
(53.708025 0.97788752 4.9786571e-19)
(53.807258 0.18113585 6.9911779e-19)
(51.511186 -0.1216362 -4.0782797e-20)
(38.885925 19.648445 2.6201693e-20)
(39.541951 19.721265 -3.3836938e-20)
(40.277106 19.805774 3.4432255e-20)
(41.096918 19.872764 4.5933068e-21)
(42.008544 19.907697 3.375215e-20)
(43.016765 19.895668 -1.9905042e-20)
(44.120677 19.825142 0)
(45.314492 19.682141 5.0212255e-20)
(46.587653 19.452513 -5.9066659e-20)
(47.924537 19.123499 3.8049517e-20)
(49.304255 18.684322 0)
(50.700225 18.125969 3.4415764e-20)
(52.078595 17.439632 -3.2552864e-20)
(53.390343 16.61134 0)
(54.546215 15.628453 0)
(55.373742 14.306216 1.1685199e-19)
(55.559061 12.639179 1.156278e-19)
(55.313036 10.565102 1.3602304e-20)
(55.270111 9.1341711 -1.2180652e-20)
(55.374026 8.0069923 0)
(55.431264 6.9115901 0)
(55.398148 5.8886186 5.2171682e-19)
(55.261464 4.9686203 0)
(55.060174 4.1421912 3.9653438e-19)
(54.804714 3.4007775 1.3703567e-19)
(54.522334 2.7204564 4.6994851e-21)
(54.150655 2.1287088 2.0454333e-21)
(53.930521 1.4924626 -7.6803875e-20)
(53.664344 0.99671494 0)
(53.770958 0.20309154 6.2005786e-19)
(51.501889 -0.12572276 0)
(39.424565 18.289295 -1.1563589e-20)
(39.985325 18.396988 2.8499007e-20)
(40.626925 18.511822 -3.273827e-20)
(41.348062 18.617061 3.1330954e-20)
(42.1513 18.706684 -1.4699298e-23)
(43.045159 18.762207 -1.7538434e-20)
(44.033283 18.771251 -1.5877216e-23)
(45.114724 18.720741 -3.6405274e-20)
(46.283715 18.594098 -3.6171964e-20)
(47.528596 18.374323 0)
(48.830967 18.044581 -3.4248272e-20)
(50.164554 17.588036 1.539308e-23)
(51.491989 16.986429 6.2658872e-20)
(52.752899 16.215115 1.9758951e-25)
(53.833504 15.241872 -5.7927301e-20)
(54.554175 13.791477 2.8049108e-20)
(54.666541 12.017465 -2.6666987e-20)
(54.667921 10.277828 4.8537983e-20)
(54.845498 9.0168906 -2.1363074e-20)
(55.035277 7.9460994 -1.8640409e-20)
(55.158571 6.8878546 -2.6079834e-19)
(55.180908 5.8873356 -2.1362264e-19)
(55.093499 4.9817484 1.9875703e-19)
(54.931191 4.1618026 3.5171273e-19)
(54.709566 3.4227241 -2.6171018e-19)
(54.445373 2.7442159 2.0901149e-26)
(54.100938 2.151007 -3.5708829e-21)
(53.8744 1.5146581 3.9784139e-19)
(53.614321 1.0201501 0)
(53.726474 0.23087587 -4.0691097e-19)
(51.490812 -0.13347051 0)
(40.150661 16.93095 0)
(40.615515 17.05697 0)
(41.145148 17.201878 -4.1165781e-25)
(41.753178 17.335113 -3.4546732e-21)
(42.442452 17.455316 2.9836862e-20)
(43.218153 17.551127 -2.3680875e-20)
(44.083521 17.613232 0)
(45.040769 17.626334 0)
(46.087691 17.573992 3.3674187e-20)
(47.216156 17.437039 0)
(48.410528 17.193657 3.2513231e-20)
(49.645187 16.819507 -6.2890541e-20)
(50.878482 16.285895 0)
(52.034455 15.552289 2.9045184e-20)
(52.968331 14.536966 -5.5776496e-20)
(53.520095 12.934984 2.6307533e-20)
(53.770192 11.250044 0)
(54.069192 10.003208 8.5338982e-20)
(54.388816 8.9045349 0)
(54.66663 7.8413498 1.636877e-20)
(54.860026 6.8179359 2.1378226e-19)
(54.937048 5.8558143 2.1115377e-19)
(54.901775 4.9850762 -1.7335431e-19)
(54.784222 4.176563 -3.1150952e-19)
(54.596739 3.4451228 2.7122388e-19)
(54.352396 2.7692737 -7.1548246e-21)
(54.03808 2.1742953 2.2570244e-19)
(53.811718 1.5393373 0)
(53.558416 1.0470191 1.1795798e-21)
(53.673885 0.26572911 -3.1569905e-19)
(51.477603 -0.13830733 3.2896976e-20)
(40.993586 15.550851 3.7874342e-20)
(41.380488 15.657691 -8.5977393e-20)
(41.819297 15.791854 5.0359856e-20)
(42.316072 15.931039 3.221538e-21)
(42.881056 16.064977 0)
(43.526048 16.179616 -5.9526275e-20)
(44.257816 16.268401 6.2267236e-20)
(45.078771 16.318189 -6.4012294e-20)
(45.986893 16.311772 6.4755566e-20)
(46.974712 16.227421 1.6108757e-20)
(48.026846 16.038501 6.3181934e-20)
(49.115439 15.712598 -6.1340888e-20)
(50.191672 15.208626 2.9468788e-20)
(51.171157 14.456166 -5.6207629e-20)
(51.913499 13.328592 -5.2688788e-20)
(52.391083 11.84612 4.8094687e-20)
(52.958082 10.638164 -1.283541e-19)
(53.511449 9.5957846 -1.1265041e-19)
(53.926947 8.6446977 6.5577833e-20)
(54.262394 7.6946952 -2.8586228e-20)
(54.521529 6.7788269 -2.490968e-20)
(54.666299 5.8081642 -1.5171715e-19)
(54.682998 4.9675964 9.4401115e-21)
(54.615803 4.1834406 -1.6455128e-20)
(54.466162 3.4650854 -5.6059795e-26)
(54.245853 2.7930423 6.2346391e-21)
(53.962038 2.1982822 1.2833934e-24)
(53.741785 1.5665851 -3.0229087e-19)
(53.4977 1.0789089 -2.0556493e-21)
(53.61132 0.30892104 2.8548743e-19)
(51.460194 -0.13992869 -2.9302768e-20)
(41.816088 14.036686 -3.9467395e-20)
(42.121028 14.112553 0)
(42.476094 14.21715 -1.5297408e-21)
(42.888542 14.325074 -3.3296976e-21)
(43.363855 14.423944 -5.7757693e-20)
(43.898558 14.52535 6.1522769e-20)
(44.501786 14.603719 0)
(45.179248 14.649635 5.7608519e-20)
(45.930392 14.647922 -6.6295304e-20)
(46.74876 14.574742 1.4555957e-23)
(47.621713 14.396839 6.3823178e-20)
(48.523893 14.072718 -1.2786704e-23)
(49.403677 13.554793 5.7421672e-20)
(50.176792 12.769643 5.3054351e-20)
(50.826148 11.73627 -2.3921689e-23)
(51.549179 10.798825 -4.2775947e-20)
(52.325007 10.042058 1.1268273e-19)
(52.9518 9.2427947 -3.2822338e-20)
(53.433821 8.4015218 -2.8614323e-20)
(53.833685 7.4957908 0)
(54.162618 6.6151482 -1.7373751e-19)
(54.361804 5.7624404 0)
(54.435453 4.922171 0)
(54.422011 4.1782879 1.4325885e-20)
(54.315839 3.4800148 -2.4952413e-20)
(54.122755 2.8146303 1.0859593e-20)
(53.869808 2.2213863 -2.9773223e-19)
(53.653948 1.597538 2.5914496e-19)
(53.427333 1.1163827 0)
(53.536936 0.36214444 0)
(51.43978 -0.14603441 0)
(42.512794 11.972778 0)
(42.70855 12.045722 0)
(42.952501 12.133045 0)
(43.260133 12.216894 9.036526e-22)
(43.646274 12.278627 -2.2678942e-21)
(44.101574 12.341056 -1.1439326e-19)
(44.616706 12.384512 1.22483e-19)
(45.19778 12.405029 1.7844048e-20)
(45.824005 12.378885 -3.492722e-20)
(46.48277 12.298616 1.343107e-19)
(47.170103 12.125256 -1.2664213e-19)
(47.886639 11.839875 -2.9344473e-20)
(48.623043 11.452763 -2.6845454e-20)
(49.350962 10.951178 -4.8300096e-20)
(50.146282 10.4295 4.2804268e-20)
(50.9948 9.9685411 -2.5343125e-23)
(51.751634 9.4150676 -6.5641916e-20)
(52.425059 8.7091705 5.7231501e-20)
(52.964491 7.9971006 -9.9787629e-20)
(53.398067 7.2250397 0)
(53.76954 6.4666464 1.7023604e-19)
(54.026709 5.6567647 -1.6470358e-20)
(54.160018 4.8645469 0)
(54.201426 4.1456847 1.2465466e-20)
(54.141516 3.4854533 -1.8459506e-19)
(53.982673 2.8317569 3.025195e-19)
(53.761576 2.24169 2.6330573e-19)
(53.551425 1.6294999 0)
(53.345281 1.1599095 0)
(53.452112 0.42684569 -7.3673889e-22)
(51.412475 -0.10624283 -2.7942668e-20)
(43.440154 9.6161956 0)
(43.583461 9.7039559 2.4856381e-21)
(43.743541 9.8231143 1.6902347e-19)
(43.925865 9.949784 -5.3600088e-21)
(44.136881 10.101955 -1.6479254e-19)
(44.410564 10.223328 -1.6754549e-19)
(44.751641 10.330327 1.6186025e-19)
(45.161468 10.412926 1.439193e-19)
(45.653818 10.350617 -1.237226e-19)
(46.1843 10.29078 1.140724e-19)
(46.760532 10.176628 -1.1848552e-19)
(47.401485 10.014959 0)
(48.115096 9.7634051 0)
(48.912103 9.5861354 1.2776105e-19)
(49.76813 9.4317688 -1.126986e-19)
(50.550245 9.1041382 6.5599976e-20)
(51.280786 8.6830368 0)
(51.940478 8.1521624 4.9878044e-20)
(52.508898 7.5868839 -3.6127393e-23)
(52.980653 6.906505 -3.7845712e-20)
(53.375917 6.2110067 0)
(53.665842 5.4860681 0)
(53.857126 4.7918675 -9.9843054e-20)
(53.960491 4.1074777 -1.0854668e-20)
(53.939579 3.4669699 1.6060932e-19)
(53.823482 2.8410326 -2.6326591e-19)
(53.635204 2.2580917 -2.2914388e-19)
(53.433574 1.6611106 0)
(53.2508 1.2069944 0)
(53.362095 0.50228956 0)
(51.377022 0.031555998 2.5306556e-20)
(44.555081 7.3231582 -1.6426259e-21)
(44.681605 7.3833767 -3.198279e-19)
(44.819854 7.4844785 4.1768488e-19)
(44.976547 7.5941335 -6.3859564e-21)
(45.147878 7.7131468 6.0916705e-21)
(45.327934 7.8460819 5.7148183e-21)
(45.516184 7.9912199 1.0564252e-20)
(45.720934 8.1338096 0)
(45.959645 8.4123044 0)
(46.321903 8.554113 0)
(46.766228 8.7005849 -1.3533109e-20)
(47.269975 8.8676048 -2.3970144e-20)
(47.874625 8.6301582 -8.3210512e-20)
(48.5694 8.463601 7.3319611e-20)
(49.336161 8.2841837 3.2471303e-20)
(50.172125 8.1788504 -1.1416534e-19)
(50.881294 7.9271874 5.6677118e-24)
(51.523813 7.4765005 -1.199125e-23)
(52.10796 7.0679624 -1.1899185e-23)
(52.597238 6.519707 -6.5880823e-20)
(52.99749 5.9506591 8.6027413e-20)
(53.299802 5.2811649 0)
(53.547953 4.6447769 8.6871656e-20)
(53.698192 4.0558496 1.8890388e-20)
(53.718344 3.428285 1.1507232e-19)
(53.644677 2.8363956 2.2903678e-19)
(53.493558 2.2673079 6.2305293e-21)
(53.303806 1.6890662 -5.423558e-21)
(53.152724 1.253182 0)
(53.27032 0.58383492 -1.5445835e-19)
(51.332005 0.22972128 -2.3477405e-23)
(45.21738 6.1550475 -9.9123358e-19)
(45.315998 6.214509 3.7647731e-21)
(45.432052 6.2875585 4.523473e-19)
(45.571035 6.3683329 6.5867048e-21)
(45.738967 6.4561236 -1.6254912e-24)
(45.943602 6.5502828 -5.5087058e-21)
(46.191074 6.6475965 -3.2738238e-19)
(46.470407 6.747972 2.8339808e-19)
(46.733598 6.8792775 0)
(47.008161 7.0008444 0)
(47.338484 7.0595062 1.2181278e-20)
(47.633364 7.1903776 2.1438439e-20)
(47.961627 7.5693397 0)
(48.478961 7.6328005 -3.2224089e-20)
(49.093519 7.3906638 5.5777208e-20)
(49.780743 7.1398695 9.8451456e-20)
(50.49888 7.0514193 -4.7514996e-23)
(51.144059 6.8043776 -1.7810856e-23)
(51.720416 6.5142354 -1.6594691e-23)
(52.233016 6.0916722 -5.7356676e-20)
(52.662507 5.5904328 -4.9893942e-20)
(52.963386 5.023372 0)
(53.236644 4.5081056 -5.6700176e-20)
(53.426207 3.9476406 9.8684171e-20)
(53.488504 3.36718 -1.0013071e-19)
(53.449496 2.808848 -1.9920219e-19)
(53.338571 2.2645336 0)
(53.171096 1.7071476 0)
(53.058391 1.2931598 4.1070472e-21)
(53.161191 0.66468599 2.1539842e-19)
(51.27028 0.30102629 2.457817e-23)
(46.185373 5.0665483 4.92012e-19)
(46.25145 5.1217211 0)
(46.327062 5.1880556 0)
(46.41353 5.2608544 0)
(46.512013 5.3401148 3.5430213e-19)
(46.62362 5.4255593 -6.359099e-19)
(46.750988 5.5161691 2.8342706e-19)
(46.901502 5.610844 2.5122613e-19)
(47.088995 5.70588 -3.0062841e-23)
(47.323682 5.8058683 -1.9502535e-19)
(47.62484 5.9334025 0)
(48.042428 5.9858746 1.8707694e-20)
(48.435213 6.0439677 0)
(48.760188 6.1583337 2.8517242e-20)
(49.088531 6.6120559 -2.4539516e-20)
(49.607696 6.332471 0)
(50.182405 6.1453627 3.7254314e-20)
(50.800085 6.0161468 6.5718945e-20)
(51.361581 5.8766385 5.7290591e-20)
(51.849867 5.5696601 -1.4448831e-23)
(52.311167 5.1923382 -4.3407915e-20)
(52.652299 4.7469965 1.5113206e-19)
(52.952927 4.2899351 -1.7379885e-23)
(53.154795 3.8162769 -1.7166277e-19)
(53.247289 3.2814919 4.9776446e-20)
(53.241288 2.7522266 -2.1662007e-20)
(53.16837 2.2425234 -9.4293506e-21)
(53.035879 1.7065583 8.2090106e-21)
(52.967301 1.3227509 -3.572752e-21)
(53.033532 0.72879162 3.0124472e-21)
(51.185435 0.36620561 0)
(46.824802 4.2309393 -8.8125832e-19)
(46.881891 4.2759166 0)
(46.949533 4.3293891 7.6180884e-19)
(47.029928 4.3881381 -1.3874625e-18)
(47.125793 4.4532819 6.2067337e-19)
(47.240202 4.5259775 0)
(47.376061 4.6070097 7.769014e-21)
(47.534675 4.696906 -4.3977877e-19)
(47.714693 4.7961607 7.7491983e-19)
(47.912816 4.9031313 -6.9132619e-19)
(48.120226 5.0043058 2.9830435e-19)
(48.333617 5.1164082 -3.4770733e-24)
(48.633758 5.2097378 0)
(49.012061 5.2995191 -1.738135e-19)
(49.371193 5.173901 3.4676259e-19)
(49.627077 5.6583604 -1.6781601e-19)
(50.072283 5.3917898 0)
(50.588736 5.2628022 -8.5461324e-20)
(51.083502 5.1936656 4.9873232e-20)
(51.465853 5.0222249 4.3387723e-20)
(51.884755 4.6383027 -7.7304828e-24)
(52.345294 4.4071668 -9.8590168e-20)
(52.678214 4.0573203 2.8595547e-20)
(52.874421 3.6364649 2.4889539e-20)
(52.98897 3.1465909 -8.659768e-20)
(53.012698 2.6545254 0)
(52.977304 2.1899308 0)
(52.885368 1.6743475 0)
(52.861345 1.3340596 -1.9889422e-19)
(52.897796 0.76042564 0)
(51.078954 0.40376281 0)
(47.705804 3.4227442 7.8963265e-19)
(47.742365 3.4613042 -1.4710523e-18)
(47.78432 3.5063787 6.7435312e-19)
(47.832371 3.5556774 6.139137e-19)
(47.887349 3.6103256 -5.4968979e-19)
(47.950421 3.6709767 0)
(48.023367 3.737661 -6.8022637e-21)
(48.109196 3.8099626 0)
(48.213234 3.8869383 0)
(48.344142 3.9672358 3.0616267e-19)
(48.514593 4.0526197 -5.1998148e-19)
(48.730657 4.1391697 2.1309879e-19)
(48.95899 4.2115196 -1.240239e-20)
(49.190024 4.316958 -2.1642463e-20)
(49.52924 4.364324 0)
(49.856919 4.2678421 1.6433851e-20)
(50.121084 4.6373038 0)
(50.508202 4.5482226 0)
(50.936507 4.3322641 0)
(51.271555 4.4508399 -1.5100056e-19)
(51.589688 4.1490848 1.3131451e-19)
(52.018764 4.0030569 0)
(52.379513 3.7466606 4.9755188e-20)
(52.576687 3.376021 -2.1643761e-20)
(52.696213 2.9637965 9.4176782e-20)
(52.756558 2.5026898 0)
(52.752596 2.0880375 1.4261856e-20)
(52.699721 1.5952302 -1.2417792e-20)
(52.717357 1.3056557 1.7295348e-19)
(52.768112 0.73952472 0)
(50.959705 0.38931027 5.4153912e-21)
(48.265522 2.7652627 1.3964862e-18)
(48.29815 2.7951428 -1.2909738e-18)
(48.337106 2.8298799 -1.183618e-18)
(48.383698 2.8681976 1.0696342e-18)
(48.439498 2.9110376 9.619348e-19)
(48.50622 2.9590788 -8.5403416e-19)
(48.585477 3.0127943 -5.9360501e-21)
(48.678364 3.0725539 5.2383215e-21)
(48.784731 3.1386756 -2.9486667e-19)
(48.902464 3.2113292 2.5866944e-19)
(49.028199 3.2887828 0)
(49.160248 3.3667734 -1.9788872e-19)
(49.310881 3.4546702 1.7276012e-19)
(49.496516 3.5191972 -9.4158304e-21)
(49.696542 3.5988869 0)
(49.976692 3.7199062 0)
(50.290328 3.5283738 9.9044894e-20)
(50.500267 3.919223 -8.5393855e-20)
(50.816323 3.6102411 5.59439e-20)
(51.155617 3.658656 -2.0058109e-23)
(51.442737 3.6757702 -5.7153057e-20)
(51.772276 3.5259863 -4.9725792e-20)
(52.084181 3.3166069 9.2801562e-24)
(52.265758 3.0378217 3.7649247e-20)
(52.395041 2.6667965 -6.4334989e-24)
(52.479908 2.2992627 -2.8507979e-20)
(52.49428 1.9175577 -1.2402215e-20)
(52.46945 1.4542388 2.1595949e-20)
(52.51311 1.1931024 -9.4019435e-21)
(52.565752 0.59507353 1.3358096e-19)
(50.845227 0.31899235 -8.4274521e-21)
(48.962366 2.2154666 -2.465763e-18)
(48.977298 2.2412351 2.2726142e-18)
(48.994631 2.2713052 -1.0384884e-18)
(49.014735 2.3045265 0)
(49.038129 2.341387 -3.2853832e-21)
(49.065566 2.3823233 -2.9253482e-21)
(49.098234 2.4275159 7.7705974e-21)
(49.138119 2.4769362 -4.5683734e-21)
(49.188538 2.5304047 0)
(49.254597 2.5875028 4.5054904e-19)
(49.342574 2.6478844 -2.3545537e-23)
(49.457656 2.7128039 -6.9433109e-19)
(49.599147 2.7785032 3.100499e-19)
(49.760484 2.8495949 8.1930278e-21)
(49.947434 2.9366655 -1.4274468e-20)
(50.145027 2.9265448 -1.2437886e-20)
(50.337914 3.1247749 0)
(50.545011 3.0256822 -1.8693085e-20)
(50.755632 3.199986 -9.760659e-20)
(51.059695 2.9558969 1.6919087e-19)
(51.364855 3.0701749 -2.4854259e-20)
(51.635718 3.0073273 2.1628338e-20)
(51.84622 2.8085283 -3.7638147e-20)
(52.010821 2.5702846 0)
(52.138167 2.3140907 0)
(52.210089 1.9978123 2.4797255e-20)
(52.228314 1.6741216 -4.3158758e-20)
(52.214086 1.2404237 2.8172904e-20)
(52.26002 0.97857489 -6.3468129e-25)
(52.279443 0.26071007 -1.1964369e-19)
(50.751043 0.19810917 1.5809755e-20)
(49.435507 1.6918687 0)
(49.450652 1.7120557 0)
(49.468909 1.7355442 1.7717469e-21)
(49.490953 1.7614591 0)
(49.517559 1.7904841 7.3641419e-19)
(49.549533 1.8232371 -1.3052668e-18)
(49.587585 1.860094 5.7313117e-19)
(49.632057 1.901308 3.9775531e-21)
(49.682511 1.9470119 4.4393404e-19)
(49.737276 1.9971268 -1.4987384e-23)
(49.793699 2.0513751 5.3458634e-21)
(49.850608 2.1076584 4.6687672e-21)
(49.910678 2.1649514 -2.698049e-19)
(49.986882 2.2232164 7.1279849e-21)
(50.094413 2.2612667 1.2423941e-20)
(50.254678 2.3372973 1.7313021e-19)
(50.444008 2.3504482 -1.5076303e-19)
(50.60719 2.3804377 -1.1482186e-19)
(50.793878 2.5129897 9.9688633e-20)
(51.04041 2.4752572 -4.8944705e-20)
(51.315195 2.489988 8.6481169e-20)
(51.518778 2.3957168 -1.6932003e-19)
(51.675981 2.2491531 6.5482699e-20)
(51.834827 2.0966898 0)
(51.937223 1.8898878 0)
(51.9905 1.6201909 0)
(51.997898 1.3663167 1.876907e-20)
(51.982363 0.97387623 -1.6335911e-20)
(51.988479 0.74027543 -5.6889357e-20)
(52.11018 0.083327799 -1.0088159e-19)
(50.65993 -0.13544045 -4.3095236e-21)
(50.029268 1.2619804 0)
(50.030763 1.2787954 -8.4511684e-22)
(50.032322 1.2982348 1.5839331e-18)
(50.033909 1.3190761 -2.8593671e-18)
(50.035607 1.3423077 1.2795155e-18)
(50.037579 1.3683802 1.1377502e-18)
(50.040177 1.3974034 -2.0111925e-18)
(50.044129 1.429396 -3.4454498e-21)
(50.050816 1.4643441 7.7919318e-19)
(50.062484 1.5022703 0)
(50.082642 1.5432112 -4.6672606e-21)
(50.116752 1.585615 -4.0756001e-21)
(50.16578 1.6313295 7.1140617e-21)
(50.230745 1.6784665 -6.2024934e-21)
(50.316826 1.7301142 0)
(50.424898 1.7646294 -2.9170346e-19)
(50.56657 1.8016309 2.6210056e-19)
(50.758209 1.8290223 -2.2816515e-19)
(50.934276 1.7469138 1.9699595e-19)
(51.100768 1.919122 2.1476555e-20)
(51.262628 1.8713833 0)
(51.375374 1.777592 0)
(51.502855 1.7381434 2.8481599e-20)
(51.647567 1.604711 -2.4783165e-20)
(51.76578 1.4597067 0)
(51.830648 1.2247395 0)
(51.835679 1.0269951 3.2651208e-20)
(51.827405 0.69801336 -2.8423101e-20)
(51.801477 0.53193281 9.8966534e-20)
(51.923831 -0.042331832 8.509701e-20)
(50.629937 0.20045294 0)
(50.442451 0.83946663 1.6422901e-18)
(50.445526 0.85147967 -1.5094616e-18)
(50.44946 0.86525116 -1.3809706e-18)
(50.45426 0.88032455 1.2447873e-18)
(50.460081 0.89758943 1.1137062e-18)
(50.467113 0.91757599 -9.9016513e-19)
(50.475585 0.94070318 0)
(50.485811 0.96753254 7.7196185e-19)
(50.498598 0.99815002 -6.7824601e-19)
(50.51345 1.0324411 0)
(50.527455 1.0707409 -2.0305661e-21)
(50.538039 1.1136391 3.5479092e-21)
(50.550514 1.1582816 -3.9618064e-19)
(50.573593 1.2049392 1.3908895e-23)
(50.617684 1.2528524 2.9624735e-19)
(50.687523 1.3155821 -2.6205316e-19)
(50.78183 1.3629762 2.2809989e-19)
(50.880986 1.4064514 -6.2053313e-21)
(50.983547 1.4989884 0)
(51.107927 1.4960734 9.3965754e-21)
(51.174017 1.4458868 0)
(51.21709 1.3792786 -1.4242827e-20)
(51.298467 1.2830336 1.2392474e-20)
(51.435916 1.1179887 4.3129017e-20)
(51.591075 1.0344036 -1.8764607e-20)
(51.673016 0.85587422 -3.2657465e-20)
(51.69794 0.71503766 3.5612738e-24)
(51.726626 0.45942778 2.4729271e-20)
(51.693081 0.36949065 -6.4574899e-20)
(51.803898 -0.11987329 0)
(50.622287 -0.079026625 0)
(50.845746 0.56298759 2.8904164e-18)
(50.845576 0.57120992 -2.6358122e-18)
(50.845004 0.58028952 2.4006461e-18)
(50.843809 0.5903562 -2.1666556e-18)
(50.841749 0.60161864 -1.9386353e-18)
(50.838513 0.61429932 1.7241683e-18)
(50.833711 0.62840532 -1.5243607e-18)
(50.826787 0.64372904 1.3445462e-18)
(50.81661 0.66034125 3.4571603e-21)
(50.803194 0.67821255 0)
(50.788801 0.69654857 4.5390685e-19)
(50.775626 0.71577906 -3.9495752e-19)
(50.766355 0.73819572 0)
(50.765858 0.76430731 3.0037169e-19)
(50.783577 0.79008777 -2.5770741e-19)
(50.829333 0.80857085 0)
(50.892712 0.82574413 0)
(50.948165 0.89126734 1.6874328e-25)
(50.998107 0.8389521 0)
(51.041996 0.81436232 -8.1726825e-21)
(51.085845 0.82249955 0)
(51.117449 0.82278215 1.2395453e-20)
(51.162986 0.81300033 -2.1570793e-20)
(51.252817 0.76988719 -2.8151766e-20)
(51.370154 0.70669657 1.6324709e-20)
(51.43394 0.6234244 2.838166e-20)
(51.47975 0.53641661 -2.4706159e-20)