/*--------------------------------*- C++ -*----------------------------------*\
| =========                 |                                                 |
| \\      /  F ield         | OpenFOAM: The Open Source CFD Toolbox           |
|  \\    /   O peration     | Version:  2406                                  |
|   \\  /    A nd           | Website:  www.openfoam.com                      |
|    \\/     M anipulation  |                                                 |
\*---------------------------------------------------------------------------*/
FoamFile
{
    version     2.0;
    format      ascii;
    arch        "LSB;label=32;scalar=64";
    class       volScalarField;
    location    "0.081";
    object      nut;
}
// * * * * * * * * * * * * * * * * * * * * * * * * * * * * * * * * * * * * * //

dimensions      [0 2 -1 0 0 0 0];

internalField   nonuniform List<scalar> 
8260
(
0.033342809
0.037839873
0.043114731
0.049079537
0.055593197
0.062504749
0.069625572
0.076703054
0.08339712
0.089225557
0.093509536
0.09531601
0.093384865
0.086148191
0.071914705
0.049915445
0.02630787
0.012388076
0.0080415132
0.006633477
0.00587008
0.0053258707
0.0049803138
0.0047296921
0.0045362381
0.0043906399
0.0042831851
0.0042114977
0.0041617638
0.004129196
0.0041123034
0.039413905
0.044038015
0.049115405
0.054707497
0.060772806
0.067197248
0.073803156
0.08033766
0.086455078
0.091665966
0.095267626
0.096308206
0.09351277
0.085322963
0.070098088
0.047520267
0.024041121
0.011654794
0.0078236852
0.006551232
0.0058248894
0.0053003278
0.0049660358
0.004719311
0.0045288941
0.0043857346
0.004280277
0.0042098005
0.0041607034
0.0041285121
0.0041118344
0.046382084
0.050829324
0.055655099
0.060889893
0.066506221
0.072412401
0.078446319
0.084362197
0.089810856
0.094293143
0.09709314
0.097238914
0.093441711
0.084160582
0.067836824
0.044617034
0.021820661
0.010907679
0.0076728414
0.0065085827
0.0058007641
0.0052868441
0.0049585847
0.0047137671
0.0045248097
0.0043829377
0.0042784884
0.0042086297
0.0041598637
0.004127884
0.0041113211
0.054328755
0.058415479
0.062871577
0.067677037
0.072790812
0.078121639
0.083512675
0.088721956
0.093396961
0.097028922
0.098891174
0.09799399
0.09303779
0.082509848
0.064976536
0.041138054
0.01952945
0.01025808
0.0075376177
0.0064417585
0.0057595565
0.0052629913
0.004945217
0.0047035939
0.0045172283
0.0043777651
0.0042753617
0.0042067432
0.0041586331
0.0041270542
0.0041107264
0.063248261
0.066836946
0.070818766
0.075097538
0.079620538
0.084289503
0.088944274
0.093340265
0.097118732
0.099760916
0.10052919
0.098418853
0.092125221
0.080179111
0.061332115
0.03701632
0.017233097
0.0096324438
0.0073900573
0.0063804993
0.0057231956
0.0052423079
0.0049337544
0.0046948707
0.0045107169
0.0043734212
0.0042726583
0.0042050338
0.0041574436
0.0041261964
0.0041100501
0.072970575
0.076003634
0.079415313
0.08306781
0.086898741
0.090801243
0.094607531
0.09806535
0.10080613
0.10229954
0.10179669
0.098280845
0.090452158
0.076907529
0.056672989
0.032225139
0.015169638
0.0090594239
0.0072462195
0.0063051191
0.0056760001
0.005214615
0.0049179994
0.0046827541
0.0045016267
0.0043673299
0.0042689309
0.0042027556
0.0041559212
0.0041251488
0.0041092777
0.083191865
0.085635005
0.088402636
0.091341351
0.094380924
0.097406224
0.10024035
0.10262072
0.10416649
0.10433428
0.10236395
0.097230851
0.087657534
0.072340422
0.050724403
0.026847758
0.013225797
0.008556003
0.0070944659
0.0062282438
0.0056293066
0.0051874962
0.00490241
0.0046707415
0.0044926306
0.0043614518
0.0042652745
0.0042004677
0.0041543338
0.0041240142
0.0041084
0.093411292
0.09523833
0.097303147
0.099453167
0.10160983
0.10364906
0.10538379
0.10653967
0.10672241
0.10537516
0.10172765
0.094753932
0.083231447
0.06600693
0.043206366
0.021192654
0.011459579
0.0082061299
0.0069397787
0.0061391245
0.0055738445
0.0051546832
0.0048826492
0.0046555276
0.0044812753
0.0043540058
0.0042606645
0.004197633
0.004152407
0.0041226693
0.0041074019
0.10283271
0.10402152
0.10533463
0.10663156
0.10782349
0.10877536
0.10928822
0.10907446
0.10772573
0.1046727
0.09913825
0.090105824
0.076470381
0.057317326
0.033998885
0.01663851
0.009991756
0.0078387941
0.0067693953
0.0060447119
0.005517403
0.0051217994
0.0048616926
0.0046394731
0.0044694446
0.0043463926
0.0042559026
0.0041946569
0.0041503319
0.0041211794
0.0041062686
0.11020957
0.11074945
0.11127226
0.11166443
0.11182435
0.11160356
0.11078842
0.10907598
0.10604404
0.10111449
0.093510993
0.082242123
0.066440797
0.045658115
0.0236655
0.013005451
0.0088700075
0.0075570863
0.0065941062
0.0059377811
0.0054532449
0.0050841387
0.0048360152
0.00461987
0.0044552817
0.0043371755
0.0042501448
0.0041910826
0.0041478754
0.0041194328
0.0041049803
0.11366605
0.11355825
0.11327524
0.11273491
0.11182104
0.11037015
0.10815182
0.10484713
0.10002397
0.093106697
0.083338243
0.06976927
0.052060222
0.030798658
0.016330111
0.010415285
0.0082440069
0.0072507912
0.0063997299
0.0058241098
0.0053874331
0.0050460325
0.0048084042
0.0045985614
0.0044404426
0.0043274555
0.0042440485
0.0041872316
0.0041451924
0.0041174751
0.0041035137
0.11045232
0.10968617
0.10861604
0.10716098
0.10518555
0.10250643
0.098874562
0.09395985
0.087336596
0.07846658
0.06666548
0.050987622
0.032595058
0.018836926
0.011746606
0.0087428917
0.0077776355
0.0069387437
0.0062117623
0.005699113
0.0053106916
0.0050032242
0.0047760202
0.0045734106
0.0044233234
0.0043158948
0.004236817
0.0041826655
0.0041420634
0.0041152023
0.0041013951
0.096694281
0.095377228
0.093602156
0.091298315
0.088321863
0.084475726
0.079495038
0.073069581
0.064846245
0.054466507
0.041935734
0.029731367
0.019127335
0.012316486
0.0091371311
0.0080816452
0.0072998832
0.0066442897
0.0059943542
0.0055757473
0.0052348068
0.004953217
0.0047410919
0.004547162
0.0044052035
0.0043034751
0.0042291052
0.0041776859
0.0041386282
0.0041126618
0.0040990491
0.067932288
0.06611559
0.063906312
0.061317408
0.058226645
0.054480048
0.049920303
0.044500537
0.03818317
0.031028809
0.023463488
0.016645874
0.011765459
0.0091706509
0.0080175675
0.0073948681
0.0068815847
0.0062998261
0.0058027593
0.005443135
0.0051458771
0.0049013337
0.0046978272
0.0045173625
0.0043841277
0.0042890937
0.0042202014
0.0041718872
0.0041346658
0.0041097622
0.0040964782
0.038178632
0.037014849
0.035583308
0.033883117
0.031800402
0.02929451
0.026535655
0.023447586
0.020065093
0.016480151
0.013024283
0.010267073
0.0086080065
0.007813201
0.0075000194
0.0069411884
0.0064095544
0.0060534311
0.0056088984
0.0053142878
0.0050668652
0.0048405482
0.004649222
0.0044866201
0.004361143
0.0042740964
0.0042108775
0.0041656479
0.0041303392
0.0041065652
0.0040937459
0.018896332
0.018483314
0.017874899
0.017105556
0.01615226
0.015017397
0.01376328
0.012409193
0.011004778
0.0096509279
0.0084972233
0.0077297929
0.0073028985
0.0073298968
0.0066945621
0.0063609099
0.0060670642
0.0057439744
0.005454514
0.0051853886
0.0049660397
0.0047761237
0.0045980182
0.0044494925
0.0043353608
0.0042576148
0.0042004216
0.0041585682
0.0041254496
0.004103002
0.004090959
0.010051022
0.0099535216
0.0097522069
0.0094718664
0.009126339
0.0087361294
0.0083200833
0.0078754236
0.0073929987
0.0070424769
0.0068730731
0.0067969655
0.0068956212
0.0064746807
0.006320312
0.0060587926
0.0056662265
0.0055319605
0.0053015688
0.005061181
0.0048746825
0.004705262
0.0045374481
0.0044113401
0.0043110528
0.0042407147
0.0041894992
0.0041511581
0.0041203108
0.004099097
0.004087735
0.0068191308
0.0067981879
0.0067389551
0.006656198
0.0065481873
0.0064418783
0.0063418775
0.0062510033
0.0062028199
0.0062315296
0.00632792
0.0062507636
0.0059069382
0.0059458696
0.0058485969
0.0055600809
0.0053779477
0.0051574086
0.0051148221
0.0049218047
0.0047481042
0.0046281359
0.0044725005
0.0043724919
0.0042848964
0.0042219582
0.0041777076
0.0041428618
0.0041145905
0.0040948341
0.0040841106
0.005767421
0.0057302816
0.0057074734
0.0056977558
0.0057013767
0.0056985029
0.005708671
0.0056833584
0.0056576334
0.0056456263
0.0055501102
0.0054367469
0.0054492678
0.0052854226
0.0052782481
0.0053340842
0.005138636
0.0049702882
0.004894595
0.0047841705
0.0046138005
0.0045197676
0.004415341
0.0043296667
0.0042583057
0.0042038638
0.004166171
0.0041341905
0.0041087311
0.0040901493
0.0040802392
0.0052787281
0.0052761885
0.0052698761
0.0052608874
0.0052655086
0.0052821049
0.0052715187
0.0052595696
0.0052174167
0.0051186856
0.0050737046
0.0050258215
0.0049286421
0.0048880012
0.0048498289
0.004833097
0.0048868585
0.0047712668
0.0046823989
0.004590361
0.0044591175
0.004404423
0.0043519364
0.004281787
0.0042310272
0.0041854054
0.0041538477
0.0041242248
0.0041023189
0.0040851253
0.0040760045
0.004931177
0.0049283794
0.004922526
0.0049079714
0.0048823023
0.0048415411
0.004841055
0.0048281878
0.0048132025
0.00479457
0.0047785647
0.0047414167
0.0046838086
0.0046264469
0.0046262736
0.0045798272
0.0045611822
0.0045360837
0.0045186313
0.0044789593
0.0043761944
0.00430735
0.0042974736
0.0042407465
0.0042009247
0.0041688252
0.00414147
0.0041149144
0.0040955272
0.0040797523
0.004071504
0.0046088724
0.004609776
0.004608231
0.0046041719
0.0046008076
0.0046084193
0.0046140794
0.0046079394
0.0045992838
0.0045802216
0.0045556472
0.0045388126
0.0045426435
0.004489835
0.004490994
0.004448212
0.0044112907
0.0043829799
0.004363091
0.0043387399
0.0043229958
0.0042611028
0.004233126
0.0042028349
0.004176609
0.0041508301
0.004128491
0.0041051642
0.0040884654
0.0040741333
0.0040665912
0.0044358312
0.0044363686
0.0044347835
0.0044305274
0.0044235099
0.0044119279
0.0043985918
0.0043899709
0.0043846875
0.0043806944
0.0043748093
0.0043715769
0.004375047
0.0043903207
0.0043559806
0.0043585428
0.0043360944
0.0043050191
0.0042748624
0.0042705938
0.0042743407
0.0042371666
0.0041984674
0.0041811441
0.0041544614
0.004134599
0.0041182475
0.0040967121
0.0040811993
0.0040683917
0.0040616685
0.0042719581
0.0042729544
0.0042723962
0.004270619
0.0042684372
0.0042663272
0.0042651365
0.0042690016
0.0042711414
0.0042712976
0.0042708893
0.0042669616
0.0042518169
0.0042456905
0.0042515221
0.0042474663
0.004255775
0.0042591861
0.0042245471
0.0041970957
0.004189252
0.0042096547
0.0041791241
0.0041552242
0.0041403542
0.0041227638
0.0041055941
0.00408886
0.0040734823
0.0040624997
0.0040559626
0.0041902328
0.00419155
0.0041914705
0.0041904701
0.0041887586
0.0041864283
0.0041830809
0.0041777358
0.0041757172
0.0041754518
0.0041761656
0.0041781161
0.0041808966
0.0041811345
0.0041813633
0.0041888275
0.0041762188
0.004171141
0.0041621728
0.0041599563
0.0041478108
0.0041507234
0.0041547562
0.0041406911
0.004129346
0.0041090579
0.0040962375
0.0040794306
0.004065991
0.0040565671
0.0040514731
0.0041173603
0.0041182099
0.0041183659
0.0041182283
0.0041182248
0.0041184968
0.0041192541
0.0041213752
0.0041241525
0.0041275435
0.0041323147
0.0041380571
0.0041420011
0.0041416136
0.0041350175
0.0041267566
0.004123701
0.004122389
0.00412265
0.0041296267
0.0041282932
0.0041217348
0.0041157111
0.0041135629
0.0041096063
0.0040977955
0.0040789903
0.0040695979
0.0040592535
0.0040505416
0.0040456882
0.0040812682
0.0040819595
0.0040822432
0.0040823649
0.0040825863
0.0040830117
0.0040837217
0.0040847294
0.0040861698
0.0040878157
0.0040888226
0.0040888627
0.0040892379
0.0040901275
0.0040937166
0.0040947281
0.0040954987
0.0040976128
0.0041045709
0.0040984606
0.0041108569
0.004102235
0.0040917934
0.004089568
0.0040794858
0.0040761875
0.0040681036
0.0040599004
0.0040510304
0.0040452946
0.0040420506
0.0040550164
0.0040553979
0.00405561
0.0040557648
0.0040559593
0.0040562097
0.0040565294
0.0040571051
0.0040579193
0.0040589009
0.0040600048
0.0040612152
0.0040625097
0.0040631948
0.00406351
0.0040646415
0.0040665986
0.0040669876
0.0040689978
0.0040694133
0.004069891
0.0040673789
0.0040665751
0.0040647817
0.0040625625
0.004060369
0.0040561043
0.0040511476
0.0040462519
0.0040421596
0.0040401923
0.0040458689
0.0040461027
0.0040462401
0.0040463557
0.0040464958
0.004046648
0.0040467919
0.0040469757
0.0040471578
0.0040474107
0.0040478995
0.0040487864
0.0040501121
0.0040511754
0.0040523518
0.0040529086
0.0040534189
0.0040540376
0.0040544159
0.0040544078
0.0040546255
0.0040544005
0.0040545627
0.0040527054
0.0040535514
0.0040517598
0.0040496991
0.0040465944
0.0040433378
0.0040401048
0.0040368012
0.0040410021
0.0040411314
0.0040412342
0.0040413673
0.0040415647
0.0040418106
0.0040421029
0.0040422807
0.0040424025
0.004042614
0.0040430853
0.0040439427
0.0040450931
0.0040455698
0.0040455755
0.0040458888
0.0040463733
0.0040467817
0.0040474444
0.0040479522
0.0040483466
0.0040486973
0.004048379
0.0040478664
0.0040482849
0.0040471301
0.0040460893
0.0040443332
0.0040399208
0.0040368251
0.0040370193
0.0040355172
0.0040356349
0.0040357768
0.0040359429
0.004036162
0.0040364573
0.0040368414
0.0040373266
0.0040379302
0.0040386757
0.0040395857
0.0040408534
0.0040416171
0.004041807
0.0040416623
0.0040418444
0.0040423923
0.0040429433
0.0040434559
0.0040441451
0.0040445198
0.0040446096
0.0040449492
0.0040448185
0.0040448572
0.0040442207
0.0040431951
0.0040411127
0.0040398757
0.0040392999
0.004037969
0.00074699638
0.0016107769
0.0032166148
0.0055996586
0.008746372
0.012739711
0.017658368
0.023545518
0.030480802
0.038007812
0.046248118
0.05482655
0.063085177
0.069995615
0.074012043
0.072941618
0.064107951
0.046679753
0.026431617
0.012843973
0.0076344755
0.00599518
0.0053071882
0.004938313
0.0046886762
0.0045001446
0.0043534886
0.0042563193
0.0041909106
0.0041500427
0.0041295144
0.0018324259
0.0036643572
0.0060482591
0.0089087462
0.01240588
0.016639072
0.021667487
0.027765876
0.034506015
0.041974759
0.050044175
0.05828418
0.06599326
0.072090575
0.07498191
0.07245412
0.061935226
0.043302854
0.023284875
0.011580841
0.0072080358
0.0058652086
0.0052558908
0.0049125136
0.0046728729
0.0044900344
0.004347453
0.0042529229
0.0041890791
0.0041490034
0.0041289759
0.0033593954
0.0053189445
0.0077427922
0.010783275
0.014553709
0.019131255
0.024604459
0.030873736
0.037797733
0.045372587
0.053368581
0.061330772
0.068526448
0.07383347
0.07562087
0.071675184
0.05958349
0.040073423
0.02086013
0.010387466
0.0069208171
0.0058075994
0.0052322131
0.0049002251
0.0046651011
0.004484796
0.0043441187
0.0042507753
0.0041877812
0.0041481307
0.0041283182
0.0048455688
0.0070081121
0.0097415521
0.013115166
0.017165728
0.021998565
0.027690117
0.03400027
0.041017174
0.048605987
0.056473986
0.064127516
0.070791163
0.075298551
0.075985643
0.070653325
0.057092578
0.036990948
0.018737822
0.0096804689
0.0067456015
0.0057350406
0.0051967374
0.0048807031
0.0046523582
0.0044763694
0.0043390408
0.0042478147
0.0041861396
0.0041471441
0.0041276411
0.006319969
0.0087835973
0.011804558
0.015427871
0.019732772
0.024824584
0.030587228
0.037044727
0.044146017
0.051709942
0.059412336
0.06672545
0.072832575
0.07652584
0.076113745
0.069423484
0.054499351
0.034034922
0.016860726
0.0089403151
0.0065757123
0.0056843245
0.0051739801
0.0048680386
0.0046438771
0.0044706573
0.0043354869
0.0042455714
0.0041848023
0.0041462488
0.0041270365
0.0078720303
0.01058816
0.013842354
0.017697913
0.022289473
0.027556807
0.033468562
0.040050967
0.047197272
0.054698878
0.062202972
0.069147342
0.074675791
0.077542644
0.076034782
0.068012363
0.051842705
0.031211663
0.015218338
0.0084577731
0.0064590933
0.0056315058
0.0051466163
0.0048521928
0.0046331107
0.0044633993
0.004331066
0.004242917
0.0041832872
0.0041452936
0.0041264027
0.0093832853
0.012342357
0.015848462
0.019984725
0.024795776
0.030226758
0.036308125
0.042994408
0.050158896
0.057571552
0.064852079
0.071405188
0.076338006
0.07837107
0.075775054
0.06645453
0.04915958
0.028564107
0.013819401
0.0080031189
0.0063525812
0.0055886792
0.0051262353
0.004840154
0.0046246827
0.0044576718
0.0043275208
0.0042406904
0.0041819506
0.0041443905
0.0041257298
0.01084857
0.014074295
0.0178434
0.022267259
0.027254643
0.032868902
0.039094996
0.045861637
0.053022648
0.060325336
0.067362527
0.073507607
0.077833871
0.079031773
0.075360521
0.064785277
0.046482052
0.02612584
0.012659855
0.0076865698
0.0062717268
0.0055474634
0.0051046474
0.004826938
0.0046153308
0.0044512915
0.0043235848
0.0042382811
0.0041805297
0.0041434574
0.0041250377
0.012312417
0.015789118
0.019826647
0.024471084
0.029661298
0.035454157
0.041810715
0.048641449
0.055781853
0.062957829
0.069736845
0.075462862
0.079178067
0.079546302
0.074823486
0.06303727
0.043867574
0.023924389
0.011739747
0.0074363621
0.0061993441
0.005511949
0.0050871884
0.0048159744
0.0046073658
0.0044458228
0.0043201749
0.0042361425
0.0041792179
0.0041425555
0.0041243355
0.013731265
0.017462643
0.021770041
0.026608268
0.03200958
0.037972876
0.044446246
0.051326191
0.058431409
0.065467644
0.07197844
0.077280128
0.080386334
0.079937388
0.074197052
0.061250469
0.041333164
0.021973096
0.010960508
0.0072484432
0.0061400402
0.0054790935
0.0050699847
0.0048048
0.0045991699
0.0044401657
0.0043166269
0.004233947
0.0041778728
0.0041416408
0.0041236258
0.015136156
0.019115196
0.023654329
0.028696016
0.034299049
0.040417463
0.046993249
0.053909013
0.060967239
0.067854533
0.074091928
0.078969864
0.081475657
0.080229251
0.073509301
0.059459662
0.038916927
0.020278487
0.010357452
0.0070985592
0.0060870765
0.0054503132
0.0050554415
0.00479509
0.0045919007
0.0044351052
0.004313421
0.0042319368
0.004176599
0.0041407463
0.0041229105
0.016501753
0.020729155
0.025474215
0.03072899
0.036518983
0.042777434
0.049443425
0.056383742
0.063386195
0.070119299
0.076083047
0.080543665
0.082463923
0.080450793
0.072789292
0.057701037
0.036654653
0.018838982
0.0098658313
0.0069820234
0.0060421537
0.0054244392
0.0050417066
0.0047856361
0.0045847614
0.0044300903
0.0043102121
0.0042299367
0.0041753199
0.0041398489
0.0041221895
0.017843848
0.022297298
0.02724399
0.032698532
0.038649845
0.045043717
0.051789337
0.058744899
0.065685915
0.072263567
0.077958323
0.082013786
0.083371123
0.080623068
0.07206345
0.056008249
0.034572374
0.01763928
0.0094964016
0.0068899282
0.0060023599
0.0054019222
0.0050298395
0.0047772515
0.0045783296
0.0044255103
0.0043072518
0.0042280739
0.004174092
0.0041389661
0.0041214636
0.019158208
0.023814763
0.028959374
0.034596422
0.040687152
0.047210724
0.054023241
0.060987127
0.067864709
0.074290802
0.079726222
0.083396901
0.084216131
0.080766857
0.071360455
0.054404909
0.032689835
0.016663493
0.0092249547
0.0068181302
0.0059683382
0.0053822372
0.0050189583
0.0047693517
0.0045722161
0.0044210906
0.0043043636
0.0042262546
0.0041728748
0.0041380856
0.0041207329
0.020451127
0.02528702
0.030614317
0.036417917
0.042653579
0.049250629
0.056140787
0.063109309
0.069923902
0.076208783
0.08139959
0.084705654
0.085018136
0.080913818
0.070718239
0.052906877
0.03101863
0.015895268
0.0090383313
0.0067626318
0.0059389187
0.0053654511
0.0050095353
0.0047623285
0.0045667022
0.004417021
0.0043016788
0.004224544
0.0041716998
0.0041372177
0.004119997
0.021704593
0.02671137
0.032203234
0.038154024
0.044514605
0.0512077
0.058118399
0.065105614
0.071864804
0.078014022
0.082980181
0.085949443
0.085797714
0.081091233
0.07017085
0.051545478
0.029567441
0.015325166
0.008900202
0.0067182319
0.005914433
0.0053511992
0.0050011749
0.0047559026
0.004561595
0.0044131658
0.0042991092
0.0042228918
0.004170547
0.0041363563
0.0041192546
0.022864092
0.02804234
0.033692567
0.039781458
0.046254204
0.053030238
0.059983091
0.066942509
0.073650934
0.07969877
0.084466803
0.087141098
0.086572787
0.081323871
0.069748843
0.050375421
0.028376041
0.014843901
0.0087594445
0.0066807095
0.005894371
0.0053394638
0.0049941047
0.0047502537
0.0045570246
0.0044096165
0.0042967219
0.0042213305
0.0041694319
0.0041355061
0.0041185059
0.023909884
0.0292238
0.035011314
0.041227137
0.047811608
0.054673872
0.061683826
0.068655366
0.075311887
0.081240623
0.085857022
0.088290037
0.087359569
0.081633887
0.06947859
0.049439104
0.027423567
0.014443905
0.0086416832
0.0066519345
0.0058787051
0.0053301247
0.0049881689
0.0047452487
0.0045528928
0.0044063083
0.004294474
0.0042198339
0.0041683444
0.0041346645
0.0041177511
0.025008317
0.030382667
0.036242117
0.042539472
0.049203194
0.05613538
0.063197886
0.070195202
0.076837594
0.082701251
0.087178172
0.089380993
0.088170241
0.0820405
0.069382658
0.048768461
0.026692872
0.014108931
0.0085346484
0.0066302752
0.0058671396
0.0053231766
0.0049834975
0.0047409746
0.004549255
0.0044032874
0.0042923997
0.0042184191
0.0041672931
0.004133834
0.0041169906
0.026097336
0.031509882
0.037405953
0.043744574
0.050454113
0.057433341
0.064536348
0.071560407
0.078204072
0.084031427
0.088419033
0.090475208
0.089019455
0.082535291
0.069478478
0.048386884
0.026173477
0.013826811
0.008440574
0.0066161305
0.0058595799
0.0053186102
0.0049800687
0.0047373911
0.004546067
0.0044005295
0.0042904798
0.004217074
0.0041662735
0.0041330134
0.0041162254
0.027154306
0.032575339
0.038477927
0.044827668
0.051555141
0.058562142
0.065695021
0.072747121
0.079407347
0.085228675
0.089572776
0.09153654
0.089915277
0.083188551
0.069772155
0.048311366
0.025864604
0.013580394
0.0083542927
0.0066090284
0.0058559522
0.0053165113
0.0049779994
0.0047345714
0.00454336
0.0043980626
0.0042887307
0.0042158069
0.0041652889
0.0041322033
0.0041154571
0.0281695
0.033566084
0.039442322
0.045773756
0.052492055
0.05951328
0.066691337
0.073796466
0.080505439
0.086340196
0.090662257
0.092574758
0.090857042
0.083970589
0.070302235
0.048556347
0.025782753
0.013347494
0.0082728607
0.0066092387
0.005856283
0.0053167574
0.0049773156
0.0047325228
0.0045411098
0.004395873
0.0042871371
0.0042146086
0.0041643336
0.0041314009
0.0041146835
0.029149731
0.034463418
0.040264591
0.04654575
0.053264863
0.060314046
0.067532588
0.074674929
0.081410163
0.08728259
0.091640355
0.093571312
0.091841436
0.08488572
0.071054278
0.049148162
0.025913574
0.013101481
0.0081985454
0.0066130954
0.0058587091
0.0053186168
0.0049776828
0.0047312283
0.0045392858
0.004393949
0.0042856888
0.0042134751
0.004163404
0.0041306045
0.0041138965
0.030095842
0.035236432
0.040871723
0.047024013
0.053670747
0.060696058
0.067928103
0.075122464
0.081939599
0.087905088
0.092357942
0.094373855
0.092701954
0.085757377
0.071843362
0.049855094
0.026271366
0.012772782
0.0081253646
0.0066232793
0.0058646135
0.0053224022
0.0049788368
0.0047305334
0.0045377882
0.0043922421
0.004284357
0.0042123955
0.004162496
0.0041298154
0.0041130929
0.00076661783
0.0015602992
0.0030732751
0.0053299479
0.0083240801
0.012078138
0.016720341
0.02234047
0.029049156
0.036417461
0.044564555
0.053137032
0.061509035
0.068706587
0.073228797
0.072913046
0.065022708
0.048280762
0.027838457
0.013348657
0.0077552007
0.0060325648
0.0053230434
0.0049469341
0.0046943739
0.0045039961
0.0043559955
0.0042579678
0.0041919215
0.0041507226
0.0041297643
0.00081333435
0.0016052106
0.003092893
0.0052874658
0.0081991681
0.01189104
0.016461605
0.02199273
0.028584937
0.035877525
0.043898443
0.052368157
0.060721289
0.067984627
0.072687367
0.07269726
0.065304437
0.049022616
0.028586737
0.013678793
0.0078318761
0.0060553279
0.0053332343
0.0049525545
0.0046981089
0.0045065794
0.0043576613
0.0042590737
0.0041926228
0.004151227
0.0041300113
0.00087077069
0.0016536946
0.0031220947
0.0052770507
0.0081320077
0.011749523
0.016223957
0.021641642
0.028085254
0.03527018
0.043187202
0.051580171
0.059905297
0.067228598
0.072109797
0.072450219
0.065568014
0.049777899
0.029384235
0.01403891
0.0079166732
0.0060793756
0.0053438061
0.0049584483
0.004702037
0.0045092212
0.0043594713
0.0042603035
0.0041933965
0.0041517428
0.0041303399
0.00093786406
0.0017072413
0.0031529753
0.0052668775
0.0080638948
0.011605927
0.015983701
0.021283609
0.027581902
0.034652696
0.04246044
0.050769111
0.059060705
0.066437622
0.071494342
0.072169367
0.06580967
0.050545456
0.030231117
0.014437146
0.0080123531
0.0061061404
0.0053556396
0.0049647854
0.0047061784
0.00451204
0.0043612808
0.0042614906
0.0041941759
0.0041523174
0.0041307292
0.0010160944
0.0017676654
0.0031852201
0.0052572206
0.00799615
0.011462046
0.015742354
0.020920205
0.027075587
0.034027171
0.041719564
0.04993656
0.058188129
0.065611698
0.070840068
0.071852785
0.066026538
0.051328323
0.031127456
0.014874113
0.0081169051
0.0061339472
0.0053678728
0.0049717421
0.004710729
0.0045150843
0.0043633965
0.0042629254
0.0041950755
0.004152918
0.00413109
0.0011102448
0.0018383942
0.0032260473
0.0052545081
0.00793406
0.011322262
0.015503655
0.020561351
0.026568662
0.033395341
0.04096596
0.049084539
0.057288316
0.06475111
0.070146516
0.071499149
0.066212465
0.052119294
0.032065756
0.015365822
0.0082383608
0.006165892
0.0053817067
0.004979024
0.004715465
0.0045182072
0.0043655462
0.0042643585
0.0041960037
0.0041535572
0.0041313632
0.0012219186
0.0019262206
0.003273602
0.005255517
0.0078743763
0.011183915
0.015265698
0.02020207
0.026060625
0.032759874
0.040202249
0.048215905
0.056363754
0.063857487
0.069413293
0.071104709
0.066357837
0.052900348
0.033037003
0.015899254
0.008375607
0.0061993954
0.005396279
0.0049869091
0.0047204784
0.0045214717
0.0043678127
0.004265864
0.0041969861
0.0041542336
0.004131682
0.0013584629
0.0020317696
0.0033377354
0.0052702592
0.007827156
0.011057269
0.015038844
0.019853287
0.025566878
0.032127598
0.039436918
0.047338031
0.055419419
0.062934089
0.068640085
0.070663697
0.066466621
0.053674911
0.034075714
0.016486703
0.0085292944
0.006235642
0.0054117227
0.0049951502
0.0047257388
0.0045248249
0.0043701856
0.0042674454
0.0041980253
0.0041549499
0.0041321707
0.0015242551
0.0021572017
0.0034194002
0.0053004167
0.0077938161
0.010943234
0.014823475
0.019514899
0.025082019
0.031499818
0.038669571
0.046450428
0.05445275
0.061981095
0.067827583
0.07017714
0.066533525
0.054437831
0.035172915
0.017133105
0.008702637
0.006275083
0.0054284189
0.00500411
0.0047312566
0.004528326
0.0043726829
0.0042690966
0.0041991198
0.0041557006
0.0041328679
0.0017267168
0.0023161329
0.0035282795
0.0053519264
0.0077786437
0.010845581
0.014623084
0.019189253
0.024600914
0.030878284
0.037903771
0.045557437
0.053481502
0.061001859
0.066976704
0.069643532
0.066554349
0.055187662
0.036316375
0.017843461
0.0088971315
0.0063178199
0.005446165
0.0050133421
0.0047370267
0.0045318914
0.0043752714
0.0042708312
0.0042002745
0.0041564952
0.0041335201
0.0019692571
0.0025091196
0.0036614019
0.0054266975
0.0077849429
0.010767782
0.014441131
0.018880566
0.024142587
0.030267483
0.0371435
0.044662734
0.052496318
0.059998848
0.066088841
0.069062006
0.066524421
0.055911478
0.037503474
0.018624323
0.0091169573
0.0063648292
0.0054651874
0.0050235425
0.0047430347
0.0045356117
0.0043780052
0.0042726307
0.0042014824
0.004157324
0.0041341211
0.0022568209
0.0027477033
0.0038424637
0.0055327569
0.0078167312
0.010713043
0.014280815
0.018592514
0.02370749
0.029674204
0.036393306
0.043770212
0.051498936
0.058974868
0.065165897
0.06843223
0.066439832
0.05659558
0.038701215
0.01947471
0.0093638941
0.0064158043
0.0054859782
0.0050339522
0.0047492923
0.0045393679
0.0043807795
0.0042745186
0.0042027487
0.0041582035
0.0041347388
0.0025934658
0.0030332221
0.004052261
0.0056707741
0.0078764733
0.010683778
0.014144725
0.01832853
0.023297095
0.029103973
0.035658799
0.042884651
0.050498204
0.057933483
0.064210326
0.067754491
0.066297447
0.057233589
0.039898583
0.020399304
0.0096431852
0.0064725328
0.0055072729
0.0050453823
0.004755686
0.0045432445
0.0043837334
0.0042764602
0.004204061
0.0041591114
0.0041354248
0.0029820044
0.0033687271
0.0043043076
0.0058444901
0.0079666435
0.010681984
0.014035517
0.018090018
0.022911052
0.028541391
0.034940757
0.042010242
0.049498518
0.056876428
0.063225003
0.067029794
0.066094856
0.057818096
0.041105773
0.021401698
0.0099572356
0.0065347432
0.0055322812
0.0050573829
0.0047623859
0.0045471717
0.0043866307
0.004278488
0.0042054229
0.0041600776
0.0041361635
0.0034256873
0.0037600439
0.0046098339
0.0060536978
0.0080868887
0.010708057
0.013953811
0.017879246
0.022551879
0.028011073
0.03424375
0.041151436
0.048504719
0.055808901
0.062213911
0.066260042
0.065830202
0.058339943
0.042311458
0.02247903
0.010312174
0.0066035384
0.0055560155
0.005069658
0.0047689707
0.0045510731
0.0043897566
0.0042805599
0.0042068239
0.0041610596
0.0041369417
0.003927325
0.004210652
0.0049706405
0.0063150361
0.0082419506
0.010762804
0.01389973
0.017697848
0.022222078
0.027517339
0.033585499
0.040316287
0.047524546
0.054756218
0.061184087
0.065448422
0.065503257
0.058789701
0.043512551
0.023636244
0.010710726
0.0066827321
0.0055855831
0.0050838431
0.0047760951
0.0045551627
0.0043926956
0.0042826886
0.0042082556
0.0041621071
0.0041377511
0.004482249
0.0047175463
0.005383262
0.0066089225
0.0084305967
0.010847053
0.013873995
0.017547129
0.02192359
0.027056601
0.032945744
0.039506645
0.046562495
0.053701216
0.060139718
0.064599051
0.065116049
0.059162897
0.044696182
0.024853531
0.011159182
0.0067657547
0.0056144296
0.0050965838
0.0047826698
0.0045588774
0.0043958899
0.0042848695
0.0042097304
0.0041631508
0.004138586
0.0050729372
0.0052681533
0.0058450369
0.0069505301
0.0086569968
0.010963506
0.013878747
0.017429044
0.021658464
0.026628606
0.03232931
0.038722706
0.045622357
0.05265142
0.059086106
0.063716757
0.064671883
0.059465464
0.045865664
0.026177339
0.011663174
0.0068709444
0.0056453841
0.0051127018
0.0047900919
0.0045630604
0.0043987885
0.0042870107
0.0042111985
0.004164263
0.0041394429
0.0056737543
0.0058446504
0.0063490661
0.0073443924
0.0089265551
0.011116604
0.013917817
0.017347104
0.021431305
0.026242552
0.031772688
0.037996183
0.044717232
0.051620203
0.058026647
0.062806098
0.064170362
0.059696155
0.047002826
0.027555407
0.012231661
0.0069865805
0.005684708
0.0051272066
0.0047967623
0.0045663924
0.004401866
0.0042892593
0.0042127387
0.0041653528
0.0041403194
0.0062621752
0.0064310281
0.0068877459
0.0077901291
0.0092524176
0.011320892
0.014003498
0.017311206
0.021250662
0.025905509
0.031263426
0.03729936
0.043849185
0.050614076
0.056965408
0.061872544
0.063613359
0.059842789
0.048074181
0.028958376
0.012847721
0.0071183104
0.0057174262
0.005142685
0.0048036764
0.004570296
0.0044046497
0.0042912656
0.0042141986
0.0041665083
0.0041412127
0.0068150524
0.0070001462
0.0074399099
0.0082755498
0.0096380529
0.011590816
0.014153031
0.017335034
0.021131337
0.025626746
0.03080697
0.036637397
0.043019845
0.049643836
0.055946208
0.060929078