/*--------------------------------*- C++ -*----------------------------------*\
| =========                 |                                                 |
| \\      /  F ield         | OpenFOAM: The Open Source CFD Toolbox           |
|  \\    /   O peration     | Version:  2406                                  |
|   \\  /    A nd           | Website:  www.openfoam.com                      |
|    \\/     M anipulation  |                                                 |
\*---------------------------------------------------------------------------*/
FoamFile
{
    version     2.0;
    format      ascii;
    arch        "LSB;label=32;scalar=64";
    class       volScalarField;
    location    "0.01";
    object      p;
}
// * * * * * * * * * * * * * * * * * * * * * * * * * * * * * * * * * * * * * //

dimensions      [1 -1 -2 0 0 0 0];

internalField   nonuniform List<scalar> 
2065
(
101310.35
101326
101198.92
100465.59
100528.07
100596.96
100669.23
100742.64
100815.61
100885.64
100951.02
101012.49
101067.84
101117.67
101164.06
101203.89
101238.83
101269.73
101291.5
101311.43
101307.93
101323.25
101197.06
100323.02
100321.7
100320.08
100318.4
100317.97
100320.27
100327.01
100339.92
100360.77
100390.92
100431.06
100480.93
100539.35
100604.46
100673.59
100744.55
100815.61
100884.4
100949.08
101010
101065.42
101115.39
101161.64
101201.55
101236.67
101267.4
101289.36
101308.91
101305.56
101320.25
101195.17
100332.2
100333.8
100335.24
100336.9
100339.48
100344.16
100352.38
100365.7
100385.73
100413.84
100450.95
100497.14
100551.65
100612.99
100678.86
100747.18
100816.16
100883.5
100947.33
101007.64
101062.91
101112.97
101159.09
101199.08
101234.39
101264.89
101287.09
101306.26
101303.2
101316.99
101193.33
100342.13
100346.13
100350.66
100355.16
100360.35
100367.23
100376.97
100390.88
100410.42
100436.91
100471.38
100514.2
100564.96
100622.56
100685.08
100750.59
100817.28
100882.98
100945.78
101005.4
101060.38
101110.39
101156.38
101196.44
101231.97
101262.17
101284.67
101303.45
101300.83
101313.48
101191.61
100354.12
100360.69
100367.4
100374.02
100381.33
100390.11
100401.23
100415.79
100435.03
100460.21
100492.39
100532.12
100579.32
100633.24
100692.33
100754.85
100819.07
100882.92
100944.48
101003.27
101057.85
101107.74
101153.5
101193.63
101229.4
101259.22
101282.1
101300.53
101298.39
101309.73
101190.06
100368.23
100376.98
100385.56
100393.99
100403.05
100413.38
100425.67
100440.79
100459.82
100483.89
100514.02
100550.93
100594.76
100645.07
100700.68
100760.09
100821.65
100883.45
100943.58
101001.36
101055.25
101105.02
101150.73
101190.71
101226.71
101256.15
101279.37
101297.49
101295.83
101305.76
101188.73
100387.54
100396.82
100406.42
100416.03
100426.29
100437.73
100450.84
100466.34
100485.1
100508.14
100536.41
100570.69
100611.31
100658.1
100710.21
100766.38
100825.13
100884.68
100943.17
100999.77
101052.83
101102.28
101147.9
101187.7
101223.93
101253.19
101276.48
101294.31
101293.12
101301.57
101187.63
100410.01
100419.85
100430.25
100440.65
100451.65
100463.72
100477.27
100492.86
100511.22
100533.21
100559.7
100591.48
100629.03
100672.38
100720.97
100773.81
100829.59
100886.68
100943.32
100998.55
101050.73
101099.68
101144.97
101184.62
101221.02
101250.46
101273.43
101290.98
101290.24
101297.18
101186.74
100437.69
100447.4
100457.98
100468.57
100479.75
100491.94
100505.48
100520.81
100538.51
100559.33
100584.05
100613.42
100647.98
100687.95
100733.02
100782.44
100835.1
100889.55
100944.13
100997.79
101048.93
101097.24
101142.1
101181.49
101217.97
101247.72
101270.23
101287.48
101287.2
101292.58
101186.02
100470.39
100479.65
100489.91
100500.18
100511.01
100522.82
100535.89
100550.55
100567.31
100586.77
100609.63
100636.58
100668.22
100704.85
100746.39
100792.32
100841.73
100893.35
100945.66
100997.55
101047.47
101094.77
101139.23
101178.57
101214.72
101244.61
101266.88
101283.79
101283.99
101287.81
101185.43
100507.98
100516.47
100526.04
100535.57
100545.62
100556.62
100568.77
100582.38
100597.85
100615.73
100636.59
100661.08
100689.8
100723.12
100761.14
100803.52
100849.55
100898.18
100948
100997.9
101046.4
101092.52
101136.37
101175.68
101211.11
101241.14
101263.3
101279.91
101280.62
101282.85
101184.91
100550.44
100557.8
100566.29
100574.72
100583.62
100593.39
100604.24
100616.43
100630.32
100646.35
100665.05
100687
100712.77
100742.8
100777.27
100816.06
100858.62
100904.09
100951.23
100998.93
101045.8
101090.71
101133.69
101172.63
101207.31
101237.47
101259.46
101275.84
101277.07
101277.75
101184.44
100597.14
100603.12
100610.25
100617.3
100624.75
100632.99
100642.23
100652.7
100664.71
100678.68
100695.06
100714.37
100737.16
100763.89
100794.82
100829.96
100868.97
100911.14
100955.41
101000.72
101045.73
101089.29
101131.26
101169.46
101203.76
101233.8
101255.35
101271.55
101273.35
101272.51
101184.01
100647.03
100651.51
100657.13
100662.63
100668.46
100674.98
100682.4
100690.94
100700.9
100712.63
100726.55
100743.15
100762.93
100786.35
100813.75
100845.24
100880.63
100919.38
100960.61
101003.32
101046.27
101088.28
101129.05
101166.3
101200.41
101230.05
101251.04
101267.05
101269.42
101267.19
101183.65
100698.72
100701.7
100705.79
100709.73
100713.91
100718.66
100724.2
100730.74
100738.54
100747.95
100759.35
100773.2
100789.97
100810.11
100834.01
100861.85
100893.59
100928.83
100966.87
101006.79
101047.47
101087.71
101126.85
101163.36
101197.27
101225.99
101246.52
101262.35
101265.29
101261.82
101183.38
100750.64
100752.28
100754.94
100757.43
100760.05
100763.13
100766.86
100771.44
100777.13
100784.25
100793.17
100804.31
100818.11
100835.03
100855.49
100879.73
100907.81
100939.49
100974.21
101011.2
101049.39
101087.67
101125.17
101160.68
101193.9
101221.75
101241.8
101257.47
101260.94
101256.47
101183.23
100801.03
100801.61
100803.07
100804.36
100805.69
100807.32
100809.45
100812.27
100816.02
100821.01
100827.58
100836.12
100847.08
100860.91
100878.03
100898.75
100923.21
100951.31
100982.64
101016.55
101052.09
101088.2
101123.97
101158.27
101190.43
101217.47
101236.88
101252.42
101256.38
101251.19
101183.21
100848.49
100848.33
100848.94
100849.34
100849.68
100850.2
100851.04
100852.4
100854.49
100857.6
100862.05
100868.23
100876.56
100887.48
100901.42
100918.75
100939.68
100964.23
100992.14
101022.86
101055.59
101089.34
101123.2
101156.08
101187.09
101213.3
101231.91
101247.23
101251.64
101246.05
101183.32
100892.41
100891.75
100891.73
100891.52
100891.18
100890.9
100890.81
100891.05
100891.83
100893.39
100896.05
100900.16
100906.12
100914.39
100925.39
100939.51
100957.06
100978.15
101002.63
101030.11
101059.92
101091.14
101122.88
101153.82
101183.91
101209.42
101227.06
101241.97
101246.76
101241.1
101183.55
100931.35
100930.65
100930.45
100930.02
100929.4
100928.71
100928.06
100927.57
100927.41
100927.81
100929.04
100931.43
100935.37
100941.28
100949.62
100960.8
100975.16
100992.92
101014.04
101038.27
101065.06
101093.61
101123.05
101151.9
101180.89
101205.56
101222.29
101236.75
101241.8
101236.39
101183.88
100966.26
100965.56
100965.28
100964.81
100964.12
100963.3
100962.41
100961.52
100960.79
100960.39
100960.56
100961.6
100963.88
100967.79
100973.79
100982.32
100993.75
101008.36
101026.25
101047.26
101070.99
101096.77
101123.78
101150.62
101177.74
101201.55
101217.69
101231.61
101236.82
101231.99
101184.34
100997.44
100996.78
100996.52
100996.1
100995.46
100994.66
100993.72
100992.69
100991.66
100990.78
100990.23
100990.29
100991.27
100993.56
100997.58
101003.78
101012.57
101024.28
101039.1
101056.99
101077.68
101100.62
101125.07
101149.8
101174.57
101197.56
101213.2
101226.56
101231.86
101227.96
101185.01
101025.69
101025.09
101024.86
101024.52
101023.97
101023.23
101022.32
101021.25
101020.07
101018.9
101017.89
101017.24
101017.25
101018.26
101020.67
101024.9
101031.37
101040.47
101052.43
101067.34
101085.05
101105.14
101126.95
101149.42
101171.62
101193.7
101208.79
101221.52
101226.96
101224.38
101185.91
101051.27
101050.66
101050.41
101050.09
101049.6
101048.94
101048.1
101047.07
101045.89
101044.61
101043.35
101042.27
101041.6
101041.65
101042.78
101045.39
101049.89
101056.68
101066.05
101078.18
101093.02
101110.28
101129.42
101149.51
101169.11
101189.91
101204.39
101216.53
101222.09
101221.29
101186.99
101075.23
101074.48
101074.1
101073.72
101073.19
101072.51
101071.66
101070.63
101069.42
101068.09
101066.68
101065.32
101064.2
101063.56
101063.72
101065.03
101067.9
101072.7
101079.78
101089.35
101101.48
101115.99
101132.47
101150.12
101167.19
101186.4
101199.95
101211.68
101217.29
101218.73
101188.12
101096.95
101096.54
101096.03
101095.47
101094.83
101094.07
101093.16
101092.08
101090.84
101089.45
101087.95
101086.43
101085.01
101083.9
101083.34
101083.65
101085.2
101088.34
101093.42
101100.7
101110.32
101122.22
101136.09
101151.31
101166.28
101183.41
101195.28
101206.8
101212.57
101216.64
101189.21
101115.49
101114.72
101114.93
101115.21
101114.9
101113.98
101112.9
101111.71
101110.38
101108.91
101107.32
101105.67
101104.06
101102.62
101101.57
101101.14
101101.65
101103.43
101106.81
101112.07
101119.42
101128.87
101140.25
101153.09
101166.1
101180.84
101190.88
101201.94
101207.82
101214.83
101190.31
101135.21
101133.79
101132.51
101131.45
101130.98
101130.91
101130.34
101129.17
101127.8
101126.32
101124.73
101123.06
101121.36
101119.75
101118.37
101117.42
101117.15
101117.84
101119.81
101123.33
101128.65
101135.87
101144.89
101155.42
101166.41
101178.7
101187.02
101197.32
101202.91
101212.92
101191.3
101150.95
101150.16
101149.39
101148.35
101146.97
101145.58
101144.71
101144.23
101143.34
101141.94
101140.37
101138.73
101137.03
101135.35
101133.79
101132.49
101131.64
101131.49
101132.3
101134.36
101137.91
101143.11
101149.97
101158.27
101167.23
101177.12
101183.9
101193.12
101197.75
101210.22
101191.47
101163.52
101162.91
101162.38
101161.81
101161.13
101160.2
101158.93
101157.54
101156.42
101155.37
101154.05
101152.61
101151.07
101149.46
101147.85
101146.35
101145.1
101144.31
101144.2
101145.04
101147.08
101150.51
101155.41
101161.63
101168.64
101176.28
101181.74
101189.39
101192.42
101206.1
101189.07
101173.56
101173.16
101172.76
101172.29
101171.75
101171.15
101170.49
101169.65
101168.62
101167.58
101166.5
101165.25
101163.85
101162.32
101160.71
101159.08
101157.54
101156.27
101155.45
101155.3
101156.08
101157.99
101161.15
101165.51
101170.69
101176.29
101180.25
101186.34
101187.44
101200.59
101182.24
101182.65
101182.39
101182.13
101181.79
101181.4
101180.97
101180.47
101179.9
101179.2
101178.39
101177.51
101176.48
101175.27
101173.88
101172.33
101170.68
101168.98
101167.37
101166
101165.09
101164.83
101165.47
101167.14
101169.86
101173.4
101177.22
101179.86
101184.36
101183.11
101194.42
101170.91
101191.67
101191.41
101191.16
101190.85
101190.51
101190.14
101189.75
101189.29
101188.73
101188.11
101187.4
101186.53
101185.48
101184.23
101182.78
101181.16
101179.4
101177.58
101175.84
101174.34
101173.29
101172.89
101173.33
101174.66
101176.77
101179.09
101180.59
101183.23
101180.26
101188.87
101157.56
101201.21
101200.91
101200.57
101200.17
101199.73
101199.28
101198.84
101198.41
101197.94
101197.36
101196.67
101195.84
101194.85
101193.67
101192.28
101190.67
101188.87
101186.94
101184.95
101183.06
101181.42
101180.23
101179.68
101179.87
101180.76
101181.86
101182.51
101183.35
101179.26
101185.07
101145.88
101210.54
101210.1
101209.73
101209.33
101208.89
101208.4
101207.83
101207.24
101206.78
101206.4
101205.76
101204.8
101203.69
101202.43
101200.99
101199.36
101197.53
101195.53
101193.41
101191.27
101189.24
101187.48
101186.17
101185.45
101185.34
101185.43
101185.35
101185.13
101179.81
101184.04
101138.86
101219.62
101219.19
101218.8
101218.39
101217.93
101217.43
101216.87
101216.18
101215.27
101214.25
101213.44
101212.76
101211.8
101210.5
101209.01
101207.36
101205.52
101203.51
101201.34
101199.07
101196.81
101194.66
101192.8
101191.37
101190.43
101189.71
101189.09
101188.63
101182.14
101186.71
101136.55
101227.04
101226.71
101226.28
101225.82
101225.35
101224.85
101224.32
101223.72
101223.01
101222.11
101221
101219.83
101218.78
101217.65
101216.28
101214.7
101212.95
101211.01
101208.88
101206.6
101204.23
101201.85
101199.59
101197.61
101195.98
101194.56
101193.51
101192.93
101185.85
101193.38
101137.53
101231.39
101231.17
101230.92
101230.64
101230.31
101229.94
101229.52
101229.04
101228.49
101227.89
101227.18
101226.3
101225.25
101224.14
101222.95
101221.59
101220.02
101218.24
101216.23
101214.03
101211.64
101209.14
101206.61
101204.17
101201.91
101199.82
101198.14
101197.06
101190.65
101200.35
101143.1
101235.77
101235.6
101235.41
101235.18
101234.93
101234.64
101234.32
101233.96
101233.55
101233.09
101232.55
101231.93
101231.19
101230.33
101229.37
101228.24
101226.91
101225.35
101223.54
101221.49
101219.17
101216.63
101213.9
101211.06
101208.17
101205.3
101202.69
101200.59
101194.58
101206.6
101150.08
101240.42
101240.26
101240.11
101239.94
101239.74
101239.53
101239.29
101239.02
101238.72
101238.39
101238
101237.56
101237.03
101236.41
101235.69
101234.8
101233.73
101232.44
101230.88
101229.03
101226.84
101224.31
101221.43
101218.21
101214.68
101210.88
101207.01
101203.38
101197.36
101211.56
101153.56
101245.63
101245.5
101245.38
101245.24
101245.1
101244.93
101244.75
101244.54
101244.32
101244.06
101243.77
101243.43
101243.06
101242.69
101242.21
101241.52
101240.65
101239.57
101238.23
101236.56
101234.5
101231.98
101228.96
101225.38
101221.21
101216.44
101211.23
101205.93
101199.09
101213.8
101152.66
101251.23
101251.14
101251.06
101250.98
101250.88
101250.78
101250.66
101250.53
101250.38
101250.21
101250.02
101249.8
101249.52
101249.12
101248.64
101248.1
101247.42
101246.51
101245.32
101243.76
101241.75
101239.2
101236
101232.04
101227.26
101221.64
101215.34
101208.65
101200.67
101213.26
101148.73
101256.5
101256.44
101256.39
101256.34
101256.27
101256.2
101256.12
101256.03
101255.93
101255.81
101255.68
101255.51
101255.29
101255.01
101254.72
101254.33
101253.7
101252.82
101251.65
101250.08
101247.99
101245.27
101241.78
101237.41
101232.09
101225.82
101218.77
101210.97
101201.26
101211.33
101144.82
101262.9
101262.84
101262.78
101262.72
101262.64
101262.56
101262.46
101262.35
101262.22
101262.08
101261.9
101261.69
101261.42
101261.08
101260.57
101259.92
101259.16
101258.16
101256.82
101255.03
101252.67
101249.61
101245.74
101240.93
101235.16
101228.47
101220.97
101212.23
101200.15
101207.44
101142.63
101267.92
101267.83
101267.73
101267.62
101267.49
101267.35
101267.19
101267.01
101266.81
101266.57
101266.28
101265.95
101265.54
101265.04
101264.43
101263.77
101262.9
101261.64
101260.01
101257.92
101255.27
101251.92
101247.74
101242.66
101236.67
101229.81
101222.16
101212.94
101198.66
101201.57
101141.58
101272.78
101272.61
101272.43
101272.24
101272.03
101271.78
101271.5
101271.18
101270.81
101270.39
101269.91
101269.35
101268.7
101267.95
101267.06
101265.92
101264.55
101263.02
101261.16
101258.85
101256
101252.52
101248.32
101243.3
101237.41
101230.69
101223.14
101213.94
101198.82
101196.44
101140.94
101272.93
101272.72
101272.49
101272.24
101271.95
101271.63
101271.26
101270.85
101270.39
101269.87
101269.27
101268.59
101267.8
101266.88
101265.8
101264.57
101263.28
101261.77
101259.82
101257.5
101254.77
101251.54
101247.71
101243.12
101237.65
101231.22
101223.69
101214.49
101201.39
101197.23
101143.17
101271.14
101270.82
101270.5
101270.16
101269.81
101269.41
101268.98
101268.5
101267.97
101267.38
101266.73
101265.98
101265.14
101264.18
101263.09
101261.81
101260.23
101258.59
101256.88
101254.74
101252.3
101249.46
101246.11
101242.09
101237.22
101231.31
101224.23
101215.67
101204.92
101202.3
101152.94
101265.99
101265.76
101265.51
101265.23
101264.91
101264.55
101264.14
101263.68
101263.15
101262.56
101261.88
101261.11
101260.24
101259.25
101258.14
101256.91
101255.57
101254.08
101252.42
101250.6
101248.48
101246.04
101243.2
101239.8
101235.65
101230.6
101224.6
101217.69
101209.94
101211.27
101166.94
101260.07
101259.86
101259.62
101259.36
101259.06
101258.73
101258.35
101257.92
101257.43
101256.88
101256.26
101255.56
101254.77
101253.89
101252.89
101251.78
101250.52
101249.07
101247.46
101245.76
101243.89
101241.77
101239.3
101236.4
101232.95
101228.9
101224.39
101219.82
101215.72
101220.74
101180.71
101251.36
101251.2
101251.02
101250.82
101250.6
101250.34
101250.05
101249.72
101249.33
101248.89
101248.39
101247.82
101247.16
101246.42
101245.59
101244.65
101243.59
101242.38
101241.05
101239.61
101238
101236.15
101234.03
101231.6
101228.85
101225.97
101223.33
101221.48
101220.92
101226.18
101188.97
101243.19
101243.06
101242.87
101242.65
101242.39
101242.1
101241.76
101241.37
101240.93
101240.41
101239.83
101239.2
101238.5
101237.76
101236.96
101236.12
101235.21
101234.23
101233.21
101232.09
101230.78
101229.35
101227.83
101226.25
101224.79
101223.64
101223.07
101223.39
101224.9
101231.61
101199.34
101234.07
101233.76
101233.44
101233.12
101232.8
101232.48
101232.15
101231.8
101231.41
101230.97
101230.48
101229.92
101229.3
101228.63
101227.93
101227.25
101226.6
101225.99
101225.39
101224.88
101224.6
101224.45
101224.39
101224.41
101224.62
101225.14
101226.12
101228.01
101231.62
101242.82
101212.26
101238.05
101237.89
101237.73
101237.54
101237.33
101237.08
101236.8
101236.47
101236.1
101235.68
101235.2
101234.68
101234.09
101233.44
101232.72
101231.92
101231.08
101230.25
101229.58
101229.17
101229.04
101229.22
101229.74
101230.71
101232.19
101234.26
101237.1
101240.94
101246.12
101260.57
101222.27
101256.69
101256.49
101256.27
101256.01
101255.7
101255.35
101254.94
101254.49
101253.97
101253.39
101252.75
101252.03
101251.23
101250.36
101249.42
101248.4
101247.33
101246.27
101245.27
101244.55
101244.29
101244.51
101245.2
101246.51
101248.6
101251.54
101255.34
101259.86
101265.07
101281.46
101238.79
101283.67
101283.47
101283.21
101282.88
101282.51
101282.07
101281.58
101281.01
101280.38
101279.66
101278.86
101277.97
101277.01
101275.98
101274.9
101273.73
101272.37
101270.76
101269.36
101268.62
101268.56
101269.2
101270.49
101272.57
101275.65
101279.8
101284.85
101290.14
101294.05
101307.83
101260.66
101306.79
101306.59
101306.33
101306.03
101305.72
101305.39
101305.03
101304.63
101304.16
101303.64
101303.06
101302.42
101301.72
101300.94
101300.01
101298.91
101297.67
101296.27
101294.62
101293.39
101293.48
101295.05
101297.69
101300.82
101304.22
101308.27
101313.26
101318.01
101316.69
101331.46
101288.05
101336.2
101335.48
101334.65
101333.75
101332.79
101331.8
101330.78
101329.68
101328.48
101327.19
101325.82
101324.43
101323.13
101321.99
101321.07
101320.32
101319.66
101319.18
101319.13
101319.64
101320.77
101322.23
101323.48
101324.71
101326.65
101329.76
101334.01
101338.68
101339.47
101352.36
101371.64
100304.42
100302.42
100301.01
100300.81
100302.27
100306.34
100313.67
100325.23
100342.23
100365.07
100394.08
100429.23
100470.89
100518.14
100569.77
100625.08
100681.34
100736.98
100790.1
100838.98
100883.15
100922.22
100957.29
100987.72
101015.44
101040.83
101064.29
101086.53
101107.79
101127.27
101144.69
101158.71
101169.9
101178.8
101187.2
101196.03
101205.29
101214.67
101223.15
101229.7
100309.09
100307.4
100307.31
100309.07
100313.16
100320.42
100331.83
100348.33
100370.3
100398.23
100431.86
100471.8
100517.18
100566.87
100620.27
100675.27
100730.22
100783.19
100832.44
100877.24
100917.02
100953.03
100983.98
101012.22
101038.06
101061.77
101084.06
101105.49
101125.2
101142.88
101157.16
101168.64
101177.75
101186.26
101195.1
101204.36
101213.8
101222.42
101229.12
101233.07
101237.24
101241.69
101246.71
101252.07
101257.23
101263.62
101268.69
101273.5
101273.83
101272.5
101266.86
101260.83
101251.86
101243.68
101235.3
101239
101258.11
101285.11
101308.1
101338.47
100315.44
100316.33
100318.67
100323.11
100330.34
100341.13
100356.43
100376.8
100402.96
100434.41
100472.3
100515.35
100563
100614.34
100668.04
100722.19
100774.99
100824.65
100870.21
100911.32
100947.62
100979.64
101008.56
101034.92
101059.08
101081.39
101102.88
101122.92
101140.91
101155.49
101167.29
101176.66
101185.31
101194.16
101203.42
101212.9
101221.66
101228.51
101232.63
101236.85
101241.35
101246.42
101251.85
101257.03
101263.42
101268.49
101273.3
101273.59
101272.13
101266.62
101260.62
101251.72
101243.52
101234.98
101238.75
101257.73
101284.73
101307.75
101337.95
100322.42
100325.83
100330.8
100338.06
100348.32
100362.58
100381.46
100405.5
100435.33
100471.09
100511.68
100557.33
100606.84
100659.18
100712.48
100765.1
100815.22
100861.67
100904.21
100941.02
100974.38
101004.12
101031.15
101055.84
101078.69
101099.64
101120.01
101138.61
101153.56
101165.79
101175.5
101184.34
101193.23
101202.48
101211.93
101220.82
101227.86
101232.18
101236.46
101241
101246.11
101251.6
101256.82
101263.22
101268.28
101273.11
101273.35
101271.78
101266.4
101260.42
101251.59
101243.38
101234.67
101238.5
101257.36
101284.35
101307.41
101337.41
100320.1
100326.01
100332.83
100341.28
100351.97
100365.47
100383.87
100406.59
100435.27
100468.87
100507.46
100551.09
100598.94
100649.84
100702.27
100754.62
100805.08
100852.3
100895.87
100934.09
100968.47
100999.14
101026.91
101052.12
101075.71
101096.51
101116.39
101135.9
101151.41
101164.14
101174.3
101183.4
101192.34
101201.61
101210.91
101219.92
101227.25
101231.72
101236.09
101240.65
101245.79
101251.35
101256.61
101263.02
101268.06
101272.92
101273.11
101271.43
101266.17
101260.23
101251.46
101243.27
101234.37
101238.25
101256.99
101283.98
101307.09
101336.85
)
;

boundaryField
{
    Side1
    {
        type            empty;
    }
    Inlet
    {
        type            totalPressure;
        rho             rho;
        psi             none;
        gamma           1;
        p0              uniform 102920.87;
        value           nonuniform List<scalar> 
59
(
101280.67
101280.47
101280.24
101279.99
101279.69
101279.36
101279
101278.59
101278.16
101277.7
101277.22
101276.7
101276.14
101275.53
101274.86
101274.14
101273.37
101272.55
101271.7
101270.79
101269.73
101268.51
101267.14
101265.69
101264.24
101262.82
101261.43
101260.08
101258.66
101257.1
101255.28
101253.23
101251.08
101248.79
101246.06
101242.99
101240.03
101237.58
101235.66
101233.93
101232.27
101230.89
101230.01
101229.39
101228.87
101228.34
101227.84
101227.9
101228.69
101230.1
101231.54
101232.74
101234.41
101236.63
101239.78
101245.05
101248.33
101250.35
101255.6
)
;
    }
    Side2
    {
        type            empty;
    }
    Outlet
    {
        type            freestreamPressure;
        freestreamValue uniform 101325;
        value           nonuniform List<scalar> 
35
(
101325
101325
101325
101325
101325
101325
101325
101325
101325
101325
101325
101325
101325
101325
101325
101325
101325
101325
101325
101325
101325
101325
101325
101325
101325
101325
101325
101325
101325
101325
101325
101325
101325
101325
101325
)
;
    }
    Botwall
    {
        type            zeroGradient;
    }
    Cyli
    {
        type            zeroGradient;
    }
    procBoundary3to0
    {
        type            processor;
        value           nonuniform List<scalar> 7(100306.37 100311.42 100311.42 100314.99 100314.99 100319.63 100319.63);
    }
    procBoundary3to1
    {
        type            processor;
        value           nonuniform List<scalar> 
62
(
100300.99
100299.32
100298.32
100298.41
100300.12
100304.33
100311.78
100323.37
100340.31
100363.24
100392.47
100428.21
100470.93
100519.53
100572.59
100629.27
100686.59
100742.82
100796.02
100844.58
100888.27
100926.8
100961.05
100991.12
101018.42
101043.43
101066.69
101088.83
101109.92
101129.22
101146.39
101160.17
101171.12
101179.85
101188.15
101196.97
101206.22
101215.52
101223.86
101230.26
101233.5
101233.5
101237.62
101242.02
101246.98
101252.28
101257.41
101263.8
101268.89
101273.69
101274.08
101272.86
101267.11
101261.04
101252
101243.84
101235.63
101239.25
101258.47
101285.48
101308.44
101338.94
)
;
    }
    procBoundary3to2
    {
        type            processor;
        value           nonuniform List<scalar> 
35
(
101312.82
101328.52
101200.67
100451.12
100517.8
100590.47
100665.73
100741.4
100816.09
100887.2
100953.14
101014.88
101070.18
101120.04
101166.42
101206.12
101240.88
101271.9
101293.52
101313.79
101313.79
100314.17
100314.17
100309.2
100303.9
100298.65
100295.06
100294.96
100300.4
100313.27
100335.41
100368.11
100411.73
100411.73
100314.01
)
;
    }
}


// ************************************************************************* //
