/*--------------------------------*- C++ -*----------------------------------*\
| =========                 |                                                 |
| \\      /  F ield         | OpenFOAM: The Open Source CFD Toolbox           |
|  \\    /   O peration     | Version:  2406                                  |
|   \\  /    A nd           | Website:  www.openfoam.com                      |
|    \\/     M anipulation  |                                                 |
\*---------------------------------------------------------------------------*/
FoamFile
{
    version     2.0;
    format      ascii;
    arch        "LSB;label=32;scalar=64";
    class       volScalarField;
    location    "0.04";
    object      alphat;
}
// * * * * * * * * * * * * * * * * * * * * * * * * * * * * * * * * * * * * * //

dimensions      [1 -1 -1 0 0 0 0];

internalField   nonuniform List<scalar> 
2065
(
0.053025796
0.060667604
0.069874125
0.080571133
0.092755856
0.10648068
0.12185034
0.138988
0.15802688
0.17916404
0.20262192
0.22860093
0.25728063
0.28878662
0.32308906
0.35996099
0.39885629
0.4387508
0.47799681
0.51413202
0.54358021
0.56125516
0.56036475
0.53239362
0.46799409
0.36465193
0.22591384
0.1135297
0.077119966
0.060184033
0.051585237
0.063016846
0.070988062
0.08000348
0.090303882
0.10203759
0.1153139
0.13025363
0.14699297
0.16568252
0.18650977
0.20968866
0.23541577
0.26385643
0.29512502
0.32917279
0.36575367
0.40430245
0.44377218
0.48249723
0.51798862
0.54664613
0.56336832
0.56136023
0.53210887
0.46640928
0.36183362
0.22297799
0.11143963
0.076716087
0.059966235
0.051546008
0.07469594
0.082582258
0.091394647
0.1013678
0.1126895
0.12551585
0.1399989
0.15629939
0.1745875
0.1950518
0.21790059
0.24332165
0.2714721
0.30244971
0.33618578
0.37241213
0.41054242
0.44950402
0.48761129
0.52234715
0.5500835
0.56570421
0.56241329
0.53170177
0.46454554
0.35855306
0.21952371
0.10928049
0.076282003
0.059733243
0.051485139
0.088357517
0.095898678
0.10440306
0.11401485
0.1249163
0.13728131
0.15128489
0.16711037
0.18494733
0.20499222
0.22744953
0.25250359
0.28029955
0.31091646
0.34426829
0.38006126
0.41768537
0.45604014
0.49341764
0.5272695
0.55393575
0.56828491
0.56351898
0.53113741
0.46231995
0.3547276
0.21548549
0.10703978
0.075813054
0.059487721
0.05143386
0.10422143
0.11127668
0.11937197
0.12855098
0.13898695
0.15085741
0.16434853
0.17965844
0.1969921
0.21655579
0.23855372
0.26316782
0.29053262
0.32070671
0.35358407
0.38884839
0.42585966
0.46348917
0.50000287
0.53281752
0.5582385
0.57111728
0.56465334
0.5303602
0.45963184
0.35025172
0.21077304
0.10469544
0.075300021
0.059221621
0.051388144
0.12242528
0.12896342
0.13657636
0.14525716
0.15517466
0.16650723
0.17944561
0.1941957
0.21097231
0.22999007
0.25145509
0.27554674
0.30239002
0.33202245
0.36431975
0.39893876
0.43520663
0.47196849
0.5074569
0.53905157
0.56302117
0.5741972
0.56577665
0.52929421
0.45637412
0.34499748
0.2052866
0.1022254
0.074733335
0.058927606
0.051350294
0.14310436
0.14913512
0.15623535
0.16438166
0.1737431
0.1845004
0.19684727
0.21099353
0.22715938
0.24556499
0.26641827
0.28989573
0.31611307
0.34508849
0.37667845
0.41051095
0.44587973
0.48160135
0.51587107
0.54602912
0.5683045
0.5775063
0.5668288
0.52783718
0.4524083
0.33880697
0.19891774
0.099610656
0.074103869
0.058600353
0.051320732
0.16637091
0.17193175
0.17852701
0.18613695
0.19493227
0.20509625
0.21682501
0.23033063
0.24583605
0.26356416
0.28372334
0.30648642
0.33195991
0.36014453
0.39087627
0.42375405
0.45803765
0.49251202
0.52533249
0.5537969
0.57409234
0.58100272
0.56771954
0.52585076
0.44755534
0.33148489
0.19155268
0.096838118
0.073402862
0.058237906
0.05130525
0.19229602
0.19746304
0.20359121
0.2106934
0.21894265
0.22852161
0.23962654
0.2524701
0.26727578
0.28426664
0.30364948
0.32559228
0.35019208
0.37743356
0.40713172
0.43885683
0.47183466
0.50481571
0.53591316
0.5623801
0.58036004
0.58460878
0.56831564
0.5231474
0.44158477
0.3227895
0.18308193
0.093903022
0.072621808
0.057842186
0.051297324
0.22089701
0.225754
0.23148869
0.23814601
0.24590253
0.25493653
0.26544054
0.27762463
0.29170983
0.30791638
0.32644689
0.34746269
0.37105072
0.39718031
0.42564561
0.45598914
0.48740314
0.51860142
0.54765333
0.57176567
0.58703727
0.5881933
0.56842281
0.51947249
0.43419888
0.31242214
0.17341598
0.090810191
0.071752291
0.057417313
0.051293504
0.25202742
0.25669223
0.26216426
0.26848243
0.27583106
0.28439224
0.29435096
0.30590886
0.31927953
0.33467585
0.35229248
0.3722813
0.39471758
0.41955519
0.44656774
0.47527109
0.50482482
0.53390462
0.56053523
0.58187654
0.59398239
0.59154594
0.56776017
0.51447968
0.42501117
0.30001617
0.16249422
0.087546301
0.07078719
0.056969277
0.051296479
0.28550059
0.29005176
0.29537283
0.30149868
0.30857069
0.31676813
0.3262735
0.3372747
0.34997073
0.36456064
0.38122561
0.40010381
0.42125584
0.44461863
0.46994489
0.49672462
0.52408547
0.5506647
0.57444257
0.5925325
0.60094436
0.59433984
0.56592394
0.50769687
0.41351773
0.28512583
0.15030466
0.084030632
0.069722835
0.056500807
0.051301137
0.32090528
0.32547915
0.33076499
0.3368192
0.34376436
0.35173346
0.36090116
0.37144353
0.38353664
0.39735638
0.41306228
0.43077201
0.45052595
0.47224003
0.49564385
0.5202008
0.54500674
0.56866075
0.58909962
0.60339207
0.60750684
0.59607789
0.56233616
0.49847934
0.39905952
0.26722097
0.13695536
0.080378046
0.068560458
0.056019931
0.051304616
0.35763764
0.36234709
0.3677273
0.37382453
0.38076739
0.38865938
0.39761983
0.40781631
0.41940018
0.43251431
0.44728599
0.46380217
0.48207358
0.50198716
0.52324359
0.5452761
0.5671471
0.58741738
0.6039817
0.61386729
0.61300702
0.59601545
0.55617209
0.48594547
0.38077416
0.24570742
0.12277807
0.07663645
0.067303067
0.055546071
0.051308182
0.39473152
0.39967116
0.40525398
0.41151546
0.41855946
0.42648225
0.43537559
0.44534991
0.45653138
0.46902603
0.48291817
0.49825044
0.51499041
0.53298366
0.5518918
0.57111029
0.58966313
0.60607061
0.61818641
0.62300063
0.6164186
0.5930501
0.54625832
0.46888987
0.35753816
0.22001683
0.10925044
0.073007858
0.065949721
0.055087675
0.051315269
0.43081777
0.43604309
0.44189156
0.44838809
0.45562077
0.46368098
0.47263601
0.482515
0.49338411
0.50533275
0.51839967
0.53257064
0.54775326
0.56373455
0.58012159
0.59625868
0.61112098
0.62318177
0.63025223
0.62929025
0.6161855
0.58556564
0.53093063
0.44566927
0.32791071
0.18984561
0.097453624
0.069689174
0.06450274
0.054652634
0.051333465
0.46409629
0.46961219
0.47573675
0.48248701
0.48993079
0.49812578
0.5071235
0.51696621
0.52764045
0.53911666
0.5513962
0.56441871
0.57801658
0.5919043
0.60561616
0.61842639
0.62924429
0.6364833
0.63790665
0.63044465
0.60998731
0.5712134
0.50783941
0.41406164
0.29012734
0.15575163
0.08651701
0.066825442
0.062735439
0.054248712
0.051369494
0.49202926
0.49776425
0.50409249
0.51102521
0.51861455
0.52689343
0.53587853
0.54557779
0.55598419
0.567019
0.57853633
0.59038529
0.60233756
0.61402923
0.62490238
0.6341437
0.64057525
0.64253167
0.63771753
0.6230402
0.59441152
0.54661029
0.47369196
0.37112047
0.24232764
0.12205712
0.076549191
0.06333244
0.061638423
0.053883211
0.051412976
0.51090797
0.51672978
0.52312056
0.53008802
0.53766773
0.54586964
0.55468414
0.5640768
0.5739916
0.58434613
0.59498103
0.605585
0.61577879
0.62511535
0.6329354
0.63832109
0.64000255
0.63622
0.62460194
0.6020389
0.56449607
0.50693248
0.42393846
0.3131217
0.1836191
0.098434796
0.068642909
0.060253729
0.059654565
0.053520443
0.051426546
0.5146187
0.5203532
0.52661644
0.53341183
0.54075854
0.5486482
0.55704904
0.56588585
0.57505405
0.58440314
0.59371998
0.60271948
0.61096505
0.61776112
0.6222813
0.6234959
0.62001697
0.61003688
0.59109509
0.56008669
0.51308557
0.44539621
0.35246963
0.23604611
0.12316274
0.079350784
0.062948565
0.058218659
0.058157541
0.053182738
0.051336023
0.4924243
0.49788745
0.50382506
0.51023554
0.51711904
0.52444582
0.53215306
0.54014036
0.54826599
0.55631722
0.5639991
0.5709456
0.57665975
0.58046626
0.58140165
0.57820459
0.56931613
0.55278002
0.52614294
0.48641257
0.42990276
0.35268948
0.25157438
0.14695288
0.089067612
0.066560964
0.060450934
0.056482369
0.05632261
0.052582656
0.05104288
0.42530082
0.43050904
0.43612805
0.44214459
0.4485331
0.45523657
0.46215987
0.46916221
0.47604538
0.4825384
0.48829548
0.4928312
0.49554209
0.49572051
0.49238929
0.48426026
0.46971343
0.44665589
0.41255869
0.36459662
0.30007744
0.22127645
0.1482892
0.09222679
0.066737371
0.059366743
0.057547066
0.054825677
0.054763053
0.052031168
0.050671473
0.30308878
0.30703925
0.3112677
0.3157418
0.32041523
0.32521577
0.33003627
0.33472222
0.33906152
0.34277636
0.34551299
0.34685345
0.34622507
0.34298693
0.33645712
0.32569634
0.30973508
0.28721383
0.25707278
0.21861277
0.1727682
0.12393983
0.088361308
0.066213599
0.058627183
0.056797681
0.055631319
0.053041577
0.053023357
0.051237949
0.050421633
0.1700201
0.17260656
0.17537661
0.17829126
0.18130484
0.1843569
0.18737226
0.19022289
0.19274328
0.19474239
0.19598666
0.19620089
0.19505798
0.19214747
0.18711999
0.17951199
0.16896044
0.15505018
0.13772382
0.11733815
0.095582437
0.075801166
0.06289409
0.056657948
0.054956621
0.053962378
0.053162025
0.051534473
0.051358544
0.050353447
0.050287283
0.086184203
0.087919326
0.089764414
0.091698318
0.093679726
0.095640233
0.097468689
0.09911681
0.10055889
0.10173824
0.10256264
0.1029065
0.10260231
0.10148129
0.099304769
0.095973469
0.091415175
0.08559798
0.078682967
0.071006495
0.063592327
0.057606169
0.054205411
0.053027954
0.052622936
0.052065639
0.051587367
0.050185435
0.050111559
0.049724921
0.050165114
0.057461497
0.058013165
0.058593739
0.059198185
0.05981956
0.06044627
0.061063508
0.061654523
0.062199638
0.062673036
0.06304793
0.063298284
0.063383313
0.063253397
0.062855673
0.062142602
0.06099905
0.059363476
0.057429527
0.055299159
0.053293839
0.051890959
0.051394719
0.051221833
0.050712026
0.050337601
0.050127605
0.049471539
0.049479534
0.048951296
0.050092976
0.050152845
0.050390368
0.050633094
0.050875128
0.051111516
0.051338989
0.051553795
0.051752204
0.05193072
0.052085866
0.052213923
0.052310474
0.052368583
0.052377829
0.052323746
0.052186996
0.051943871
0.051603806
0.051188837
0.050721474
0.050289866
0.050103876
0.049976612
0.049981779
0.049750671
0.049539882
0.049443201
0.049069601
0.049213072
0.04868166
0.049671399
0.048737945
0.048819982
0.048901133
0.048980423
0.049056811
0.049128447
0.049193865
0.049252167
0.049303141
0.04934731
0.049385786
0.049420063
0.049450686
0.049476355
0.049493416
0.049500032
0.049502415
0.049497776
0.049482865
0.049431368
0.049376281
0.049286441
0.049266057
0.049289694
0.049175967
0.048957551
0.048936163
0.048817094
0.04888099
0.048487413
0.049322793
0.048422732
0.048449812
0.04847462
0.048496462
0.048514975
0.04853002
0.048541848
0.04855121
0.048559512
0.048568895
0.048582146
0.048601843
0.048629158
0.048663805
0.048704936
0.048748376
0.048791869
0.048843975
0.048916041
0.04898671
0.04900305
0.048917404
0.048790792
0.048788657
0.048755371
0.048593378
0.048575974
0.048615636
0.048700983
0.0484156
0.049378357
0.048314603
0.048314412
0.048312315
0.048308494
0.048303013
0.048296155
0.048288548
0.048281315
0.048276151
0.048275346
0.048281023
0.048293644
0.048307182
0.04832351
0.048347613
0.048384062
0.048435608
0.04851099
0.048616777
0.048741823
0.048812046
0.048694873
0.048538111
0.048472358
0.04854351
0.048419068
0.048301101
0.048302974
0.048341306
0.048335733
0.049268794
0.048150704
0.048147346
0.048142407
0.048136174
0.048128438
0.048119096
0.048108228
0.048096077
0.048082964
0.0480692
0.048055255
0.048042549
0.048037144
0.048037398
0.048041853
0.048049479
0.048060467
0.048078673
0.048107733
0.048146271
0.048197181
0.048266115
0.048113052
0.04808626
0.048140293
0.048172529
0.048060578
0.048106175
0.048056229
0.048309649
0.048034205
0.0043925777
0.0068381737
0.010290723
0.014781472
0.020415269
0.027370757
0.035879568
0.046306646
0.058509225
0.07308989
0.090336797
0.11051337
0.13388635
0.16078322
0.19149403
0.22620755
0.26491375
0.30725246
0.35233861
0.39847899
0.44294604
0.48148661
0.50797866
0.51401653
0.48875518
0.42431994
0.31463173
0.18347671
0.096697529
0.067288875
0.052989704
0.0074316937
0.010742345
0.014792664
0.019740791
0.025751592
0.033078654
0.042080112
0.052810906
0.06544769
0.080416331
0.097999996
0.11847873
0.14213921
0.16928896
0.20019255
0.23500881
0.27368726
0.31582191
0.36047662
0.40591408
0.44935647
0.48651244
0.51124631
0.51518769
0.48760088
0.42102361
0.30979388
0.17915327
0.095056071
0.066807707
0.052862919
0.0093724426
0.012891031
0.017308886
0.022770981
0.029418646
0.037492275
0.047181516
0.058446883
0.071685635
0.087194959
0.10524829
0.12613492
0.15015183
0.17759652
0.20871884
0.24365104
0.28230683
0.32423771
0.36845868
0.41319134
0.45561039
0.49138869
0.51437784
0.51624589
0.48636249
0.41768493
0.30492972
0.17486719
0.0934531
0.066336505
0.052739544
0.011625217
0.015611457
0.020482778
0.026385537
0.033512753
0.042089639
0.052164991
0.06396217
0.07774766
0.093770526
0.11229351
0.13359988
0.15798337
0.18573104
0.21707505
0.25212252
0.29075208
0.3324739
0.37626026
0.42028901
0.4616921
0.49610853
0.51737568
0.51720191
0.48505803
0.41432346
0.30006521
0.17065753
0.091923646
0.065888684
0.052627664
0.01382712
0.018199535
0.023494357
0.029860808
0.0375438
0.046572615
0.057117917
0.069429769
0.083722784
0.10022819
0.11920059
0.14091421
0.16565643
0.19369995
0.225259
0.26041448
0.29901085
0.34051767
0.38386803
0.42719694
0.46759585
0.5006708
0.52024387
0.51806442
0.4837016
0.41095469
0.29521676
0.1665471
0.090482321
0.065471583
0.052529889
0.015950292
0.020766481
0.026524036
0.033397564
0.041534153
0.051015109
0.062057984
0.074861268
0.089630476
0.1065881
0.12598496
0.14808698
0.17317158
0.20149785
0.2332611
0.26851375
0.30706718
0.34835576
0.39126937
0.43390547
0.4733157
0.5050739
0.52298622
0.51884235
0.4823079
0.40759511
0.29040124
0.16255571
0.089135666
0.065084543
0.052445743
0.018095355
0.023341925
0.029551182
0.03693889
0.045494425
0.055449284
0.066970843
0.080240012
0.095458996
0.11284407
0.13264117
0.15511005
0.18051836
0.20911215
0.24106638
0.2764037
0.31490475
0.3559714
0.39845129
0.44040516
0.47884647
0.5093175
0.52560792
0.51954592
0.48089241
0.40426114
0.28563535
0.15870065
0.087885649
0.064725912
0.052381925
0.020182986
0.025866021
0.032548363
0.040394132
0.049415469
0.059840272
0.071824874
0.085541423
0.1011878
0.11897758
0.13915234
0.161967
0.18768065
0.2165254
0.24865397
0.28406406
0.32250713
0.36334875
0.40540104
0.44668716
0.48418394
0.51340242
0.52811527
0.52018638
0.4794708
0.40096919
0.28093528
0.15499644
0.086731492
0.064389968
0.052333541
0.022243197
0.028358237
0.03551893
0.043779765
0.053274246
0.064161801
0.076593218
0.090738842
0.10679202
0.12496495
0.1454961
0.16863702
0.1946383
0.22371577
0.25600234
0.29147434
0.32985363
0.37047189
0.41210606
0.45274314
0.48932465
0.51733037
0.53051541
0.52077572
0.47805905
0.39773562
0.27631675
0.15145481
0.085670578
0.064073739
0.052287297
0.024266604
0.030809912
0.038421786
0.047110549
0.057060865
0.068391685
0.081250587
0.095804818
0.11224402
0.13077944
0.15164722
0.1750964
0.20136627
0.23065686
0.26308829
0.29861402
0.33692505
0.37732483
0.41855405
0.45856525
0.49426577
0.52110379
0.53281614
0.52132654
0.47667336
0.39457665
0.27179482
0.14808484
0.084699261
0.063775595
0.05224616
0.0262535
0.033222859
0.041243633
0.050371467
0.060753167
0.072504851
0.085769646
0.1007109
0.11751478
0.13639289
0.15757903
0.18131628
0.20783396
0.23732244
0.26988825
0.3054588
0.34370216
0.38389155
0.42473299
0.46414615
0.49900503
0.52472575
0.53502581
0.52185183
0.47532999
0.39150817
0.26738385
0.14489316
0.08381317
0.063493267
0.052204646
0.028207431
0.035579057
0.043992006
0.053538318
0.06432747
0.07647514
0.090122078
0.10542872
0.1225781
0.1417782
0.16326101
0.18726223
0.21401058
0.24368607
0.27637404
0.31198581
0.35016538
0.39015605
0.43063112
0.46947885
0.50354063
0.52819979
0.53715313
0.52236477
0.47404534
0.38854569
0.26309741
0.14188435
0.083007494
0.063223692
0.052173136
0.03011959
0.037867885
0.046660018
0.056592088
0.067766714
0.080282042
0.094285435
0.10993299
0.12740577
0.14690483
0.16865943
0.19290661
0.219866
0.24971655
0.28251955
0.31817239
0.35629498
0.39610243
0.43623694
0.4745567
0.50787106
0.53152972
0.53920698
0.52287857
0.47283554
0.38570423
0.25894819
0.13906018
0.082277094
0.062962836
0.052137188
0.031989998
0.040088193
0.049243219
0.059520816
0.071045364
0.083904889
0.098236949
0.11419566
0.13196076
0.15173663
0.17373988
0.19821462
0.225375
0.25538541
0.28829932
0.32399551
0.36207121
0.40171494
0.44153918
0.47937327
0.51199498
0.53471948
0.54119625
0.52340624
0.47171625
0.3829982
0.25494791
0.13641725
0.081616486
0.062709841
0.052099655
0.033756112
0.042159443
0.051636002
0.062250833
0.074111873
0.087304656
0.10193838
0.11817885
0.13620351
0.15622654
0.17846937
0.20315465
0.2305012
0.26066406
0.29368736
0.32943195
0.36747434
0.4069779
0.44652669
0.48392227
0.51591105
0.53777294
0.54312965
0.52396046
0.47070246
0.38044137
0.25111082
0.13394725
0.081015189
0.062462582
0.052060116
0.035355155
0.044056748
0.053835441
0.06477131
0.076930634
0.090412026
0.10532878
0.12182793
0.14009688
0.16034506
0.18280323
0.20768853
0.23521246
0.26552386
0.29865742
0.3344585
0.37248472
0.41187574
0.45118842
0.48819746
0.51961782
0.54069363
0.54501554
0.5245533
0.46980828
0.37804673
0.24746188
0.13161918
0.080462458
0.06222249
0.052018752
0.037061148
0.045962235
0.055948476
0.067101918
0.079490878
0.093205223
0.1083608
0.1250969
0.14359122
0.16405256
0.18671065
0.21178445
0.23947884
0.26993623
0.30318334
0.33905202
0.37708277
0.41639292
0.45551325
0.49219244
0.52311366
0.54348461
0.54686166
0.52519614
0.46904683
0.3758264
0.24402428
0.12940573
0.079952459
0.061988473
0.051976403
0.038731847
0.047789178
0.057932542
0.069235019
0.081787224
0.095677563
0.11101883
0.12795294
0.14665281
0.16731842
0.19016252
0.2154129
0.24327083
0.27387289
0.30723916
0.34318951
0.38124898
0.42051392
0.45949001
0.4959006
0.52639654
0.54614831
0.54867499
0.52589941
0.46843004
0.37379142
0.24081931
0.12728233
0.079481443
0.061754919
0.051934177
0.040376459
0.049533888
0.059776209
0.071183243
0.083838571
0.097841298
0.11330953
0.130386
0.14924201
0.1700721
0.19309242
0.21851839
0.24654519
0.2773035
0.31079914
0.34684816
0.38496392
0.42422318
0.46310736
0.49931497
0.52946397
0.54868639
0.55046147
0.52667252
0.46796859
0.37195154
0.2378664
0.12522612
0.079046461
0.0615193
0.051892693
0.041964368
0.05116848
0.061454869
0.072914669
0.085631272
0.099707661
0.1152643
0.13244583
0.15142512
0.17239131
0.1955536
0.22112639
0.24930145
0.28020515
0.31383781
0.35000144
0.38819969
0.42749361
0.46635258
0.50242813
0.53231282
0.55109967
0.55222591
0.52752363
0.46767174
0.37031507
0.23518328
0.12321495
0.078645174
0.061283102
0.051851363
0.043498933
0.052680896
0.06294751
0.074400711
0.087124028
0.10122247
0.11681528
0.13405361
0.15311555
0.17418768
0.19747284
0.2231798
0.25149777
0.28254982
0.31633161
0.35263606
0.3909555
0.43033288
0.46921574
0.50523237
0.53493048
0.55338779
0.55397177
0.52845951
0.46754717
0.36888876
0.23278635
0.12122656
0.078275685
0.06104797
0.051807702
0.044979188
0.054063815
0.064236538
0.075616358
0.088284483
0.10234577
0.11793963
0.13521335
0.15433527
0.17548821
0.19887231
0.22469172
0.25313514
0.28432518
0.31825672
0.35472484
0.39320197
0.4327127
0.47168428
0.50771944
0.53733049
0.55554982
0.55570113
0.52948541
0.46760092
0.36767783
0.23069111
0.11923796
0.077936554
0.06081499
0.051738201
0.046424166
0.055327183
0.065318496
0.076539414
0.089098901
0.10311278
0.11869911
0.13597852
0.15508057
0.17623859
0.19966929
0.22557335
0.25413618
0.28548125
0.31958906
0.35624946
0.39493074
0.43463767
0.47375456
0.50988077
0.53949743
0.55758409
0.55741036
0.53060491
0.4678374
0.36668618
0.22891267
0.11722504
0.077626461
0.060585619
0.051680935
0.047900012
0.056515404
0.066217167
0.077167861
0.08952246
0.10337405
0.11885022
0.13607598
0.15517073
0.17634614
0.1998262
0.22581192
0.25448802
0.28598083
0.32026852
0.35713433
0.39604171
0.43598173
0.47532147
0.51162558
0.54134166
0.55940831
0.55905529
0.53180537
0.46825938
0.36591692
0.22745796
0.11518382
0.077344145
0.060363868
0.051623643
0.0043926612
0.0067796903
0.010080539
0.014390922
0.019824999
0.026439269
0.034584608
0.044548576
0.056303312
0.070374787
0.087083332
0.10671985
0.12962061
0.15607476
0.18639173
0.22078468
0.25927163
0.30152765
0.34670692
0.39318137
0.43824379
0.47765785
0.50531063
0.51280882
0.48925985
0.42651406
0.31820282
0.186875
0.098048241
0.067726498
0.053082162
0.0046698137
0.0071301864
0.010374888
0.014565052
0.019838455
0.026342253
0.034361082
0.044142413
0.055800074
0.069633222
0.086017866
0.10530855
0.12785349
0.15397518
0.18398273
0.21809144
0.25633509
0.29841192
0.34350368
0.39001247
0.43526674
0.47506013
0.50330653
0.51162232
0.48912509
0.42749132
0.32025175
0.18899396
0.098928009
0.06803524
0.053168251
0.004968123
0.0074753977
0.010711142
0.014847674
0.020031677
0.026403559
0.034250205
0.043805091
0.055215087
0.06878299
0.084866228
0.10383008
0.12603332
0.15181224
0.18148768
0.21528793
0.25326436
0.2951399
0.34012615
0.38665819
0.4321012
0.47228513
0.50115116
0.51032852
0.48894964
0.42849663
0.32240593
0.19126515
0.09990284
0.068381638
0.053260944
0.0052825187
0.0078185005
0.011043308
0.015126189
0.020220936
0.026465303
0.034137339
0.043471193
0.054635606
0.067928086
0.083701702
0.10232642
0.12417165
0.14958671
0.17890696
0.21237317
0.25005669
0.291707
0.33656748
0.38311095
0.42873762
0.46932211
0.49883372
0.50891765
0.48872495
0.42952552
0.3246666
0.19369653
0.10098626
0.068761705
0.053358707
0.0056158656
0.0081642039
0.011373134
0.01540244
0.020407608
0.02652759
0.03402434
0.04314108
0.054058143
0.067070708
0.082526998
0.10080066
0.12227203
0.1473016
0.17624351
0.20934888
0.246712
0.2881109
0.33282322
0.37936298
0.4251665
0.46616031
0.49634299
0.50737933
0.48844076
0.43057407
0.32703493
0.19629859
0.0059696458
0.0085172722
0.011705012
0.015679792
0.020595127
0.026592502
0.033914217
0.042816723
0.053485289
0.066214819
0.081345725
0.0020316715
0.0024040587
0.0027723419
0.0031378586
0.0035041153
0.00074393929
0.0015243883
0.028429972
0.039157435
0.00030604665
0.00073068701
0.0016218615
0.0027356964
0.00027027661
0.00060201635
0.0015136249
0.0029600545
0.0047167014
0.00021907582
0.00040619555
0.001142462
0.0025860802
0.0044183374
0.0065520266
0.00025132209
0.00058550604
0.0017370117
0.0035276134
0.0057672136
0.0083848451
0.0002787202
0.00076051466
0.0023515534
0.0045579758
0.0072070316
0.010234988
0.00030175542
0.00095858859
0.0029081751
0.0054531442
0.0084815716
0.011941149
0.00032255068
0.0011575475
0.0034311904
0.0063463318
0.0097845223
0.01367274
0.00033268665
0.0013592347
0.0039378717
0.0072084144
0.011034044
0.015338247
0.00034698814
0.0015681895
0.0044452127
0.0080602384
0.012266936
0.016979315
0.0003594491
0.0017722393
0.0049376526
0.0088944424
0.013474357
0.018587699
0.00037036499
0.0019950213
0.0054486931
0.0097297843
0.014665318
0.020169218
0.00037936951
0.0022446504
0.0059726845
0.010562424
0.015840994
0.021729247
0.00038726219
0.0025234532
0.0064844596
0.011354823
0.016974656
0.023253173
0.00039384299
0.0026626071
0.0068361626
0.012043544
0.018044673
0.024737504
0.00039963185
0.0027198206
0.0070924303
0.012624848
0.01901154
0.026131968
0.00040606279
0.0028565577
0.0073868376
0.01314522
0.019864914
0.027390928
0.00041241382
0.0030267919
0.0078240979
0.013905208
0.020947502
0.028829058
0.00041806252
0.0031200293
0.0081223181
0.014522045
0.021937281
0.030232139
0.00042359227
0.0032528423
0.0084932021
0.015202594
0.022968185
0.031657068
0.00042839681
0.0033619467
0.0088190196
0.015833934
0.02396105
0.033052668
0.00043291935
0.0034819717
0.0091594046
0.016470656
0.024948395
0.034435301
0.0004369805
0.0035924661
0.0094866291
0.017087076
0.025911252
0.03579453
0.0037018333
0.0098074086
0.01768373
0.026841352
0.037125966
0.010108818
0.01824413
0.027696575
0.038389072
0.048979793
0.059126526
0.071293162
0.085598905
0.10214182
0.12100421
0.14227852
0.16603092
0.19230125
0.22108366
0.25222286
0.28550713
0.32338323
0.32051185
0.35829332
0.35665484
0.39318909
0.39299032
0.42682468
0.42820102
0.45754029
0.46054679
0.48294263
0.48755356
0.49939155
0.50556068
0.50067452
0.50843297
0.47581303
0.48534805
0.40547283
0.41711388
0.28358251
0.2952437
0.15639325
0.16442521
0.079754575
0.083395781
0.05553661
0.056625899
0.049387197
0.049820325
0.048472473
0.048625723
0.048326965
0.048384101
0.048305881
0.048312376
0.04815591
0.048153157
)
;

boundaryField
{
    Side1
    {
        type            empty;
    }
    Inlet
    {
        type            calculated;
        value           nonuniform List<scalar> 
92
(
0.052150448
0.052109925
0.0477563
0.047756448
0.047756616
0.047756801
0.047757018
0.047558585
0.047757421
0.047769446
0.047769663
0.047769909
0.047770176
0.047770474
0.047770795
0.047771164
0.047562099
0.04775954
0.051924178
0.047761664
0.047762501
0.051126484
0.050865813
0.05072219
0.047764875
0.050510774
0.050080144
0.049706389
0.049774256
0.049649132
0.047769987
0.047769987
0.047769987
0.047769987
0.047769987
0.047769987
0.047769987
0.047769987
0.047769987
0.047769987
0.047769987
0.047769987
0.047769987
0.047769987
0.047769987
0.047769987
0.047769987
0.047769987
0.047769987
0.047769987
0.047769987
0.047769987
0.047769987
0.047769987
0.047769987
0.047769987
0.047769987
0.047769987
0.047769987
0.047769987
0.047779082
0.047769987
0.0535821
0.053451484
0.053325053
0.053210653
0.053110739
0.053024641
0.047754348
0.052910443
0.052863938
0.052822245
0.047754808
0.052748941
0.052713358
0.05267591
0.05263623
0.052594534
0.052551704
0.05250886
0.052466601
0.052424242
0.052378992
0.047755738
0.047755842
0.047755963
0.053679454
0.053771894
0.053872131
0.053978259
0.047769987
0.047769987
)
;
    }
    Side2
    {
        type            empty;
    }
    Outlet
    {
        type            zeroGradient;
    }
    Botwall
    {
        type            compressible::alphatWallFunction;
        value           nonuniform List<scalar> 0();
    }
    Cyli
    {
        type            compressible::alphatWallFunction;
        value           nonuniform List<scalar> 
20
(
2.598404e-05
3.1220153e-05
3.5655342e-05
3.9325274e-05
4.2641025e-05
4.4249823e-05
4.6510162e-05
4.8473184e-05
5.0188562e-05
5.1599361e-05
5.283289e-05
5.3857042e-05
5.4756076e-05
5.5753912e-05
5.6737256e-05
5.7609856e-05
5.8462378e-05
5.9200941e-05
5.9895033e-05
6.0516958e-05
)
;
    }
    procBoundary2to0
    {
        type            processor;
        value           nonuniform List<scalar> 
55
(
0.0010388664
0.0012242768
0.0014419156
0.0016880612
0.0019601068
0.00032038206
0.00083934048
0.00014113614
0.00032376394
0.00032376394
0.010397678
0.018771269
0.018771269
0.029278298
0.040230629
0.00013735835
0.00013735835
0.00016484395
0.00016484395
0.00044043736
0.00044043736
0.0038019968
0.0038019968
0.050648327
0.061783846
0.074806462
0.089805884
0.10687995
0.12613801
0.14767094
0.17152542
0.19772653
0.22621183
0.2568426
0.28936928
0.28936928
0.32516134
0.35881368
0.39227646
0.42437792
0.45353781
0.47743475
0.49243826
0.49225411
0.46575524
0.39343373
0.27181216
0.14864518
0.076248144
0.054417775
0.048920306
0.048291934
0.048254993
0.048293631
0.048156321
)
;
    }
    procBoundary2to3
    {
        type            processor;
        value           nonuniform List<scalar> 
35
(
0.1021631
0.069182194
0.053450212
0.099259548
0.12034357
0.14497253
0.17351082
0.20623042
0.24324708
0.28436872
0.32890933
0.37542569
0.42139705
0.46280236
0.49367344
0.50570005
0.4880767
0.43162086
0.32949516
0.1021631
0.19905496
0.0063483884
0.0038795632
0.0088862767
0.012046856
0.015964743
0.020789273
0.026664354
0.033811345
0.042501611
0.052921159
0.065369434
0.099259548
0.080164296
0.0038795632
)
;
    }
}


// ************************************************************************* //
