/*--------------------------------*- C++ -*----------------------------------*\
| =========                 |                                                 |
| \\      /  F ield         | OpenFOAM: The Open Source CFD Toolbox           |
|  \\    /   O peration     | Version:  2406                                  |
|   \\  /    A nd           | Website:  www.openfoam.com                      |
|    \\/     M anipulation  |                                                 |
\*---------------------------------------------------------------------------*/
FoamFile
{
    version     2.0;
    format      ascii;
    arch        "LSB;label=32;scalar=64";
    class       volScalarField;
    location    "0.004";
    object      alphat;
}
// * * * * * * * * * * * * * * * * * * * * * * * * * * * * * * * * * * * * * //

dimensions      [1 -1 -1 0 0 0 0];

internalField   nonuniform List<scalar> 
23204
(
0.005015202
0.0050134378
0.0050133514
0.0050118113
0.0050193982
0.0050955599
0.0050861142
0.0050770472
0.0050684007
0.0050602918
0.0050527397
0.0050456864
0.0050392481
0.0050333213
0.0050281784
0.0050235652
0.0050205645
0.0050183336
0.005016186
0.0050144388
0.0050143492
0.0050128275
0.0050203647
0.0054525084
0.0054193695
0.0053887801
0.0053604575
0.0053341783
0.0053097796
0.0052871329
0.0052661284
0.0052466433
0.0052285588
0.0052117459
0.0051959622
0.0051810274
0.0051669034
0.0051535194
0.005140869
0.0051290188
0.0051178703
0.005107284
0.0050972382
0.0050877147
0.0050785696
0.0050698432
0.0050616556
0.0050540338
0.0050469156
0.0050404171
0.0050344352
0.005029254
0.005024608
0.0050215816
0.0050193517
0.0050171812
0.0050154506
0.0050153589
0.0050138568
0.0050213397
0.10067061
0.094741542
0.087822126
0.079876452
0.07089988
0.060940294
0.050131652
0.038758429
0.027388761
0.017158996
0.0099665373
0.0067100674
0.0058103918
0.0056875279
0.0057697691
0.0059029072
0.0060410932
0.0061668343
0.0062610979
0.0062997706
0.0062745811
0.0062046026
0.0061165783
0.0060270689
0.0059434768
0.005866391
0.005797076
0.00573385
0.0056768441
0.0056246282
0.0055771187
0.0055336979
0.0054939449
0.0054574604
0.0054239155
0.0053929755
0.0053643529
0.0053378174
0.0053131971
0.0052903542
0.0052691717
0.0052495215
0.0052312863
0.0052143437
0.0051984482
0.0051834078
0.00516917
0.0051556641
0.0051429052
0.0051309678
0.0051197332
0.0051090576
0.0050989271
0.0050893242
0.0050801006
0.0050712947
0.005063029
0.0050553379
0.0050481554
0.0050415973
0.0050355607
0.0050303415
0.0050256634
0.0050226108
0.0050203822
0.0050181891
0.0050164741
0.0050163815
0.0050149002
0.0050223246
0.067508021
0.069870192
0.072284936
0.074739878
0.077227594
0.079741793
0.082276339
0.084824894
0.087380729
0.089936592
0.092484595
0.095016108
0.097521635
0.099990693
0.10241167
0.10477164
0.10705621
0.10924929
0.11133284
0.11328665
0.11508798
0.11671129
0.11812785
0.11930542
0.12020786
0.12079479
0.12102123
0.12083742
0.12018862
0.11901518
0.11725301
0.11483401
0.11168662
0.10773524
0.10284768
0.097047478
0.090252099
0.08242155
0.073541419
0.063645132
0.052844826
0.041389462
0.029784369
0.019048031
0.011027046
0.0070691534
0.0058932977
0.0056992115
0.0057639115
0.0058929478
0.0060310471
0.0061585558
0.0062571612
0.0063027137
0.0062838101
0.0062171323
0.0061296018
0.0060394829
0.0059549359
0.0058769161
0.0058064499
0.0057426327
0.0056851696
0.0056318561
0.0055836618
0.0055396669
0.0054993885
0.0054624314
0.0054284767
0.0053971839
0.0053682606
0.0053414694
0.0053166292
0.0052935926
0.0052722348
0.0052524216
0.0052340357
0.0052169611
0.0052009517
0.0051858044
0.0051714498
0.0051578194
0.0051449527
0.0051329286
0.005121607
0.0051108419
0.0051006276
0.0050909435
0.0050816409
0.0050727562
0.0050644131
0.0050566531
0.0050494069
0.0050427899
0.0050366992
0.0050314425
0.0050267332
0.0050236537
0.0050214266
0.0050192106
0.0050175094
0.005017417
0.0050159579
0.0050233201
0.068700393
0.071029696
0.073414841
0.07584424
0.078309368
0.080803145
0.083319033
0.085850536
0.088390919
0.09093302
0.093469112
0.095990776
0.098488777
0.10095293
0.10337195
0.10573329
0.10802297
0.11022533
0.1123228
0.11429566
0.1161217
0.11777591
0.11923012
0.12045265
0.1214079
0.12205599
0.12235244
0.12224785
0.12168775
0.12061256
0.11895787
0.1166549
0.11362994
0.10980257
0.10506798
0.099403597
0.092739046
0.085027016
0.076248801
0.066424202
0.055644806
0.044126402
0.0323156
0.021120868
0.012282592
0.0075310428
0.0060033923
0.0057164729
0.0057589974
0.0058826817
0.0060202361
0.006149228
0.0062519469
0.0063043832
0.0062922153
0.0062292942
0.0061425451
0.0060519342
0.0059663987
0.005887552
0.0058160354
0.0057514119
0.0056928711
0.0056389573
0.0055902324
0.0055456635
0.0055048572
0.0054674244
0.0054330556
0.0054014074
0.0053721821
0.0053451355
0.0053200769
0.0052968489
0.0052753185
0.0052553442
0.0052368076
0.0052195982
0.005203472
0.0051882162
0.0051737417
0.0051599852
0.0051470122
0.0051349022
0.0051234926
0.0051126379
0.0051023395
0.0050925724
0.0050831904
0.0050742277
0.0050658079
0.0050579794
0.0050506701
0.0050439949
0.0050378508
0.0050325574
0.0050278177
0.0050247108
0.0050224854
0.0050202455
0.0050185559
0.0050184649
0.0050170289
0.0050243258
0.069967298
0.072267141
0.074624459
0.077028636
0.079470854
0.081943648
0.08444023
0.086954001
0.089478233
0.092005856
0.094529296
0.097040341
0.099530007
0.1019884
0.10440457
0.10676635
0.10906013
0.11127071
0.11338099
0.11537173
0.11722125
0.11890509
0.12039562
0.12166174
0.12266839
0.12337623
0.12374126
0.12371449
0.12324173
0.1222635
0.12071513
0.11852714
0.11562455
0.11192523
0.10733734
0.10181288
0.09528447
0.08769639
0.079025502
0.069280682
0.058534312
0.046971155
0.034983284
0.023376451
0.013755355
0.008122363
0.0061501255
0.0057408142
0.0057550006
0.0058719962
0.0060085926
0.0061388035
0.0062453799
0.0063046925
0.0062997126
0.0062410468
0.0061554247
0.0060644268
0.0059779122
0.005898205
0.0058257481
0.0057601504
0.0057006759
0.005646371
0.0055968154
0.0055516901
0.0055103544
0.0054724428
0.0054376553
0.0054056486
0.0053761197
0.0053488171
0.0053235411
0.0053001237
0.0052784232
0.0052582899
0.0052396024
0.0052222547
0.0052060081
0.0051906415
0.0051760444
0.005162161
0.0051490841
0.0051368882
0.0051253894
0.0051144455
0.005104062
0.0050942101
0.0050847484
0.0050757087
0.0050672128
0.0050593162
0.0050519446
0.0050452121
0.0050390153
0.0050336862
0.0050289173
0.0050257824
0.0050235586
0.0050212941
0.0050196132
0.0050195248
0.0050181123
0.0050253415
0.071314924
0.073584893
0.075916795
0.078297081
0.080716743
0.083168359
0.085645167
0.088140601
0.090648003
0.093160419
0.095670438
0.098170056
0.10065054
0.10310228
0.10551467
0.10787588
0.11017273
0.11239042
0.11451234
0.11651975
0.11839147
0.12010359
0.12162907
0.12293733
0.12399391
0.12476001
0.12519211
0.12524167
0.12485481
0.12397219
0.12252897
0.12045503
0.11767473
0.11410561
0.10966135
0.10427934
0.097890574
0.090434055
0.081875728
0.072218427
0.061516702
0.049926345
0.037789038
0.025815274
0.015459224
0.0088740219
0.0063469979
0.005774799
0.0057520219
0.0058606868
0.0059959578
0.006127183
0.0062373608
0.0063035243
0.0063061918
0.0062523454
0.0061682444
0.0060769797
0.0059895232
0.0059089012
0.0058355379
0.0057690215
0.0057086923
0.0056537976
0.0056035218
0.0055577634
0.0055158857
0.0054774884
0.0054422771
0.0054099086
0.0053800739
0.0053525147
0.0053270217
0.0053034165
0.0052815483
0.0052612582
0.0052424196
0.0052249294
0.0052085583
0.0051930782
0.0051783557
0.0051643462
0.005151168
0.005138886
0.0051272968
0.0051162638
0.0051057945
0.0050958557
0.0050863142
0.0050771984
0.0050686275
0.0050606633
0.00505323
0.0050464411
0.0050401926
0.005034829
0.005030032
0.0050268686
0.0050246465
0.005022357
0.0050206815
0.0050205966
0.0050192076
0.0050263675
0.070492761
0.07271652
0.074981568
0.077295682
0.079654845
0.0820529
0.084483461
0.086940201
0.089416782
0.091906707
0.094403188
0.096898998
0.099386352
0.10185677
0.10430093
0.10670854
0.10906816
0.11136697
0.11359064
0.11572299
0.11774579
0.11963838
0.1213774
0.12293636
0.12428528
0.12539024
0.12621302
0.12671061
0.12683493
0.12653244
0.12574398
0.12440466
0.12244394
0.11978567
0.1163477
0.11204552
0.10680762
0.10056172
0.093242548
0.08480405
0.075241685
0.064595706
0.052994978
0.040734645
0.028437348
0.017402187
0.0098198146
0.0066125277
0.0058225056
0.0057504896
0.0058485286
0.0059820805
0.0061141868
0.0062277356
0.0063007037
0.0063114914
0.00626312
0.0061809902
0.0060896141
0.0060012653
0.0059197005
0.0058454054
0.0057780622
0.0057167359
0.0056613797
0.0056105345
0.0055638722
0.0055214531
0.0054825608
0.0054469205
0.0054141867
0.0053840439
0.0053562269
0.0053305171
0.0053067257
0.0052846919
0.0052642473
0.0052452575
0.0052276205
0.0052111203
0.0051955235
0.0051806736
0.00516654
0.0051532635
0.0051408947
0.0051292139
0.0051180924
0.0051075361
0.0050975088
0.0050878873
0.0050786966
0.0050700517
0.0050620205
0.0050545263
0.0050476821
0.0050413832
0.0050359866
0.0050311628
0.0050279703
0.0050257496
0.0050234352
0.0050217615
0.0050216806
0.0050203143
0.0050274043
0.071999016
0.074216788
0.07647191
0.078769736
0.081109267
0.083486477
0.085896154
0.088332607
0.090789864
0.093261686
0.095741498
0.09822229
0.10069651
0.10315593
0.10559153
0.10799334
0.11035027
0.11264991
0.11487834
0.11701986
0.11905672
0.12096879
0.12273324
0.12432417
0.12571216
0.1268639
0.12774169
0.12830311
0.12850051
0.12828076
0.12758494
0.1263482
0.12449975
0.12196311
0.11865645
0.11449549
0.10940287
0.10330255
0.096124741
0.087815215
0.078355039
0.067775399
0.05618039
0.043822213
0.031242925
0.019589735
0.01099448
0.0069714303
0.0058900877
0.005751337
0.0058353781
0.0059666567
0.0060995571
0.0062162833
0.0062959848
0.0063153809
0.0062732554
0.0061936252
0.0061023423
0.0060131561
0.0059306376
0.0058553769
0.0057872025
0.0057249064
0.0056689706
0.0056171885
0.0055699672
0.0055270421
0.005487657
0.0054515832
0.0054184806
0.0053880275
0.0053599514
0.0053340248
0.0053100482
0.005287851
0.0052672544
0.0052481134
0.0052303253
0.0052136915
0.0051979743
0.0051829957
0.0051687417
0.0051553701
0.0051429131
0.0051311396
0.0051199304
0.0051092863
0.0050991687
0.0050894675
0.0050802031
0.0050714856
0.005063388
0.0050558339
0.0050489356
0.0050425877
0.0050371598
0.0050323108
0.0050290886
0.0050268689
0.0050245298
0.0050228537
0.0050227772
0.0050214321
0.0050284522
0.073629859
0.075829455
0.07806904
0.080349402
0.082669441
0.085026037
0.087414825
0.08983072
0.09226817
0.094721246
0.097183632
0.099648559
0.10210872
0.10455617
0.10698218
0.10937709
0.11173018
0.11402944
0.11626137
0.11841072
0.12046023
0.1223903
0.12417866
0.12579996
0.12722536
0.12842215
0.12935321
0.12997666
0.13024537
0.13010663
0.12950181
0.12836619
0.12662892
0.12421327
0.12103758
0.11701726
0.1120707
0.10611823
0.099085579
0.090912054
0.081563446
0.071060228
0.059486284
0.047054296
0.034232704
0.022025005
0.012431058
0.0074556758
0.0059866242
0.0057561771
0.0058212777
0.005949395
0.0060829912
0.0062027282
0.0062890551
0.0063175512
0.006282574
0.0062060836
0.0061151589
0.0060252012
0.005941718
0.0058654723
0.0057963962
0.0057332407
0.0056762555
0.0056237427
0.0055761602
0.0055326614
0.0054927767
0.0054562626
0.0054227879
0.0053920218
0.0053636853
0.0053375415
0.0053133807
0.0052910222
0.0052702759
0.0052509841
0.0052330411
0.0052162689
0.0052004277
0.0051853201
0.0051709506
0.0051574868
0.00514494
0.0051330729
0.005121777
0.005111044
0.0051008348
0.0050910542
0.0050817176
0.005072929
0.0050647661
0.005057153
0.0050502023
0.0050438069
0.0050383498
0.005033477
0.0050302246
0.0050280053
0.0050256416
0.0050239586
0.0050238865
0.0050225601
0.0050295112
0.075386068
0.077564214
0.079784782
0.082045949
0.084345844
0.086681543
0.089049161
0.091444084
0.093861162
0.096294789
0.098738932
0.10118709
0.10363222
0.10606664
0.10848194
0.11086879
0.11321681
0.1155144
0.11774846
0.11990422
0.1219649
0.12391142
0.12572205
0.12737201
0.12883307
0.13007308
0.13105554
0.13173912
0.13207724
0.13201763
0.13150203
0.13046593
0.12883854
0.12654302
0.12349761
0.11961732
0.11481731
0.10901448
0.10213031
0.094097828
0.084872083
0.074455042
0.062916778
0.050433889
0.037407793
0.024709023
0.014158277
0.0081051307
0.0061253344
0.0057675462
0.0058065429
0.0059300893
0.0060641914
0.0061867741
0.006279558
0.0063176141
0.0062908198
0.0062182602
0.0061280367
0.0060373962
0.0059529354
0.0058756969
0.005805656
0.0057417363
0.0056836665
0.005630849
0.0055826675
0.005538324
0.0054979202
0.0054609558
0.0054271058
0.0053960242
0.0053674256
0.005341064
0.0053167197
0.0052942015
0.0052733082
0.0052538662
0.0052357649
0.0052188501
0.0052028809
0.0051876452
0.0051731663
0.0051596128
0.0051469737
0.0051350126
0.0051236312
0.0051128085
0.0051025066
0.0050926471
0.0050832395
0.0050743817
0.0050661548
0.0050584837
0.0050514827
0.0050450416
0.0050395572
0.0050346627
0.0050313794
0.0050291596
0.0050267711
0.0050250764
0.0050250083
0.005023697
0.0050305808
0.077276532
0.079431889
0.081631255
0.083871557
0.086150266
0.08846438
0.090810244
0.093183582
0.095579579
0.097992946
0.10041794
0.10284832
0.10527734
0.1076976
0.11010099
0.1124785
0.11482013
0.11711465
0.11934939
0.12151003
0.12358028
0.12554158
0.12737274
0.12904955
0.13054437
0.13182565
0.1328575
0.13359918
0.13400466
0.13402216
0.13359383
0.13265545
0.13113641
0.12895988
0.1260438
0.12230275
0.11764949
0.11199765
0.10526481
0.097378135
0.088284136
0.077965141
0.066476457
0.05396445
0.040769737
0.027641626
0.016198436
0.0089673118
0.0063252656
0.0057892928
0.0057918359
0.005908681
0.0060429179
0.0061681498
0.0062671315
0.0063151173
0.0062976461
0.006229998
0.0061409228
0.0060497279
0.0059642835
0.0058860472
0.0058150079
0.0057503416
0.0056913641
0.0056381215
0.0055890478
0.0055439864
0.0055030719
0.0054656586
0.0054314314
0.0054000318
0.0053711693
0.005344589
0.0053200614
0.0052973849
0.0052763469
0.0052567558
0.0052384939
0.0052214326
0.0052053318
0.0051899701
0.0051753884
0.0051617467
0.0051490127
0.0051369575
0.0051254919
0.0051145785
0.0051041831
0.0050942454
0.0050847684
0.0050758435
0.0050675542
0.0050598263
0.005052777
0.0050462924
0.0050407826
0.0050358684
0.0050325535
0.0050303322
0.0050279187
0.0050262072
0.005026142
0.0050248415
0.0050316599
0.079313827
0.081445316
0.083621813
0.08583967
0.088095929
0.090387453
0.092710688
0.095061583
0.097435601
0.099827737
0.10223253
0.10464402
0.10705573
0.10946056
0.1118507
0.11421749
0.11655127
0.11884119
0.12107503
0.1232389
0.125317
0.12729127
0.12914108
0.13084279
0.13236934
0.1336898
0.13476889
0.13556647
0.13603707
0.13612948
0.13578628
0.13494364
0.13353117
0.13147213
0.12868423
0.12508138
0.12057472
0.11507483
0.10849567
0.10075898
0.091803148
0.081596467
0.07017041
0.057649941
0.044320577
0.030822182
0.018566362
0.010095364
0.0066135924
0.0058272139
0.0057782513
0.0058853008
0.0060190312
0.0061466514
0.0062514557
0.0063095739
0.0063026105
0.0062410736
0.0061537364
0.0060621733
0.005975757
0.0058965171
0.0058244573
0.0057589879
0.0056991177
0.0056450122
0.0055951014
0.0055496329
0.0055082191
0.0054703677
0.0054357617
0.0054040415
0.0053749133
0.0053481133
0.0053234023
0.0053005684
0.0052793877
0.005259649
0.0052412255
0.0052240146
0.0052077787
0.005192294
0.0051776163
0.0051638868
0.0051510552
0.0051389062
0.0051273576
0.0051163529
0.0051058637
0.0050958487
0.0050863037
0.0050773138
0.0050689642
0.0050611808
0.0050540858
0.0050475598
0.0050420267
0.0050370948
0.0050337477
0.0050315233
0.0050290847
0.005027351
0.0050272872
0.0050259921
0.0050327467
0.081513181
0.083619537
0.085771581
0.08796538
0.090197725
0.092465369
0.094764798
0.097092121
0.099443022
0.10181275
0.10419609
0.10658739
0.10898043
0.1113684
0.11374381
0.11609832
0.11842264
0.12070631
0.12293751
0.1251028
0.12718686
0.12917215
0.13103858
0.13276306
0.13431916
0.13567653
0.13680052
0.13765161
0.13818494
0.13834985
0.13808944
0.13734029
0.13603233
0.13408898
0.1314278
0.12796189
0.12360124
0.11825389
0.11183024
0.10424714
0.095435534
0.085352675
0.07400421
0.061494906
0.048062913
0.034250111
0.021269788
0.011544042
0.0070282807
0.0058901405
0.0057674608
0.0058602953
0.0059925154
0.0061221707
0.0062322981
0.0063005081
0.0063051827
0.0062511819
0.0061663635
0.0060746976
0.0059873483
0.0059071
0.005834004
0.0057676557
0.0057069118
0.0056517037
0.0056013526
0.0055553048
0.0055133728
0.0054750824
0.0054400937
0.0054080504
0.0053786544
0.0053516333
0.0053267386
0.0053037476
0.0052824261
0.0052625416
0.0052439569
0.0052265941
0.0052102203
0.0051946167
0.0051798494
0.0051660313
0.0051530992
0.005140857
0.0051292269
0.0051181304
0.0051075474
0.0050974562
0.0050878445
0.0050787924
0.0050703848
0.0050625473
0.0050554093
0.0050488445
0.00504329
0.0050383427
0.0050349625
0.0050327332
0.0050302694
0.0050285079
0.0050284431
0.0050271473
0.0050338395
0.083892344
0.085971973
0.088097812
0.090265767
0.09247249
0.094714659
0.096988788
0.099291098
0.10161745
0.10396332
0.10632375
0.10869332
0.11106611
0.11343559
0.11579458
0.11813508
0.12044814
0.12272369
0.12495032
0.12711503
0.12920299
0.13119716
0.13307797
0.13482294
0.13640618
0.13779801
0.13896437
0.13986638
0.14045982
0.1406946
0.14051438
0.13985623
0.13865044
0.13682065
0.13428435
0.13095392
0.12673825
0.12154357
0.11527676
0.10785027
0.099188214
0.089237433
0.077984908
0.065504563
0.052000002
0.037925244
0.024310852
0.01336435
0.0076206023
0.0059916756
0.0057619821
0.0058342498
0.0059634848
0.0060947029
0.006209546
0.0062875083
0.0063047682
0.0062599222
0.0061786469
0.006087252
0.0059990452
0.0059177875
0.0058436493
0.0057763621
0.0057147687
0.0056586216
0.0056077028
0.0055609605
0.0055185329
0.0054798
0.0054444243
0.0054120551
0.0053823893
0.0053551457
0.0053300664
0.0053069184
0.0052854572
0.0052654294
0.0052466856
0.0052291699
0.005212656
0.0051969383
0.0051820866
0.0051681779
0.0051551427
0.0051428085
0.005131098
0.0051199098
0.0051092334
0.0050990673
0.0050893906
0.0050802788
0.0050718163
0.0050639262
0.005056748
0.0050501474
0.0050445731
0.0050396126
0.0050361985
0.005033962
0.0050314731
0.0050296781
0.0050296093
0.0050283057
0.005034936
0.086471758
0.088522645
0.090620205
0.092760231
0.094939301
0.097154049
0.099401013
0.10167651
0.10397655
0.1062968
0.10863252
0.11097856
0.11332925
0.11567835
0.11801899
0.12034348
0.12264325
0.12490858
0.12712848
0.12929041
0.13137997
0.13338064
0.13527341
0.13703633
0.13864412
0.14006771
0.14127368
0.1422238
0.14287447
0.14317624
0.14307336
0.14250342
0.14139713
0.13967843
0.13726479
0.1340681
0.12999606
0.12495354
0.11884445
0.11157698
0.10306909
0.093258162
0.082116577
0.069684704
0.056135873
0.041848101
0.027688107
0.015597909
0.0084563601
0.006152796
0.0057656611
0.005808031
0.0059321851
0.0060643383
0.0061832181
0.0062702802
0.0063007497
0.0062667893
0.0061903705
0.0060997693
0.0060108294
0.0059285679
0.0058533885
0.0057851136
0.0057226725
0.0056657046
0.0056138798
0.0055666199
0.0055236974
0.0054845174
0.0054487499
0.0054160523
0.0053861147
0.0053586471
0.0053333823
0.0053100766
0.0052884766
0.0052683082
0.0052494092
0.0052317408
0.0052150857
0.0051992589
0.0051843265
0.0051703242
0.0051571835
0.0051447588
0.0051329693
0.0051216899
0.0051109211
0.0051006814
0.0050909412
0.0050817729
0.0050732589
0.0050653181
0.0050581025
0.0050514695
0.0050458766
0.0050409053
0.0050374564
0.0050352099
0.0050326962
0.0050308619
0.0050307852
0.0050294661
0.005036034
0.089274821
0.091294446
0.093361209
0.095470807
0.097619775
0.099804732
0.10202224
0.10426869
0.10654024
0.10883271
0.11114159
0.11346193
0.11578833
0.11811485
0.12043489
0.1227411
0.12502524
0.12727798
0.12948874
0.13164538
0.13373399
0.13573856
0.13764057
0.13941866
0.14104815
0.14250055
0.14374312
0.14473825
0.14544302
0.14580862
0.14577992
0.14529508
0.14428531
0.14267484
0.14038127
0.13731613
0.13338611
0.1284947
0.12254361
0.11543694
0.10708713
0.097422924
0.086403508
0.074042951
0.060475493
0.046020102
0.031398435
0.018273019
0.0096147454
0.0064056827
0.0057845142
0.0057828805
0.0058989996
0.0060312462
0.0061534521
0.0062486863
0.0062925437
0.0062711753
0.0062012359
0.0061121551
0.0060226758
0.0059394261
0.0058632097
0.005793905
0.0057306065
0.005672858
0.0056201355
0.0055724871
0.005528878
0.0054892355
0.0054530668
0.0054200384
0.0053898273
0.0053621342
0.0053366825
0.0053132181
0.0052914796
0.0052711739
0.0052521251
0.0052343056
0.0052175095
0.0052015785
0.0051865673
0.0051724676
0.0051592199
0.0051467063
0.0051348388
0.0051234696
0.0051126096
0.0051022978
0.005092496
0.0050832743
0.0050747129
0.0050667234
0.0050594733
0.0050528116
0.0050472013
0.0050422213
0.0050387371
0.0050364771
0.0050339387
0.0050320594
0.0050319704
0.0050306276
0.0050371308
0.092328181
0.094313428
0.096346323
0.098422467
0.10053837
0.10269066
0.10487591
0.1070906
0.10933099
0.11159306
0.11387249
0.11616455
0.11846409
0.12076542
0.12306225
0.12534754
0.12761339
0.12985084
0.13204969
0.13419824
0.13628305
0.13828857
0.14019683
0.14198702
0.14363503
0.14511302
0.14638887
0.14742563
0.14818106
0.14860702
0.14864902
0.14824584
0.14732921
0.14582377
0.14364726
0.14071103
0.13692101
0.13217926
0.12638571
0.11944106
0.11125246
0.10174094
0.090853645
0.078584506
0.065024648
0.050443733
0.035438497
0.021403719
0.011182643
0.0067989555
0.0058282591
0.0057606074
0.005864469
0.0059956619
0.0061204748
0.0062227633
0.0062796661
0.0062723877
0.0062108383
0.006124272
0.0060345486
0.0059503446
0.0058730964
0.0058027329
0.0057385618
0.0056800285
0.0056265956
0.0055784679
0.0055340511
0.0054939454
0.0054573702
0.0054240102
0.005393524
0.005365604
0.0053399641
0.0053163396
0.0052944624
0.0052740229
0.0052548311
0.0052368636
0.0052199276
0.0052038969
0.0051888069
0.0051746056
0.0051612497
0.0051486489
0.0051367049
0.0051252476
0.0051142986
0.0051039161
0.0050940548
0.005084783
0.0050761787
0.0050681432
0.0050608611
0.0050541748
0.0050485479
0.0050435611
0.0050400411
0.0050377637
0.005035201
0.0050332711
0.0050331642
0.0050317892
0.0050382241
0.095662017
0.09760908
0.099604378
0.10164341
0.10372267
0.10583879
0.1079884
0.11016801
0.11237401
0.11460253
0.11684939
0.11911009
0.1213797
0.1236528
0.12592336
0.12818467
0.13042915
0.1326482
0.134832
0.1369693
0.13904707
0.14105027
0.14296143
0.14476029
0.14642335
0.14792335
0.14922882
0.1503035
0.1511058
0.1515883
0.15169717
0.15137182
0.15054459
0.14914054
0.14707767
0.14426725
0.14061468
0.13602079
0.13038371
0.1236015
0.11557652
0.10622274
0.095476518
0.083314752
0.069790682
0.055122723
0.039805685
0.02499211
0.013243776
0.0074034166
0.0059129786
0.0057439677
0.0058293334
0.0059578856
0.0060845644
0.0061927127
0.0062617946
0.0062696917
0.0062186439
0.0061359162
0.0060463935
0.0059613037
0.0058830296
0.0058115953
0.0057465222
0.005687164
0.0056330863
0.0055841148
0.0055392079
0.0054986283
0.0054616554
0.0054279642
0.0053972019
0.0053690538
0.0053432243
0.0053194379
0.0052974213
0.0052768516
0.0052575248
0.0052394136
0.0052223404
0.0052062135
0.0051910428
0.0051767357
0.0051632711
0.0051505849
0.0051385655
0.0051270229
0.0051159873
0.0051055357
0.0050956173
0.005086299
0.0050776567
0.0050695782
0.0050622665
0.0050555601
0.0050499169
0.0050449252
0.0050413691
0.0050390697
0.0050364828
0.0050344971
0.0050343661
0.0050329503
0.0050393118
0.099310264
0.10121456
0.10316777
0.10516529
0.10720362
0.10927939
0.11138926
0.11352983
0.11569756
0.11788871
0.12009928
0.12232495
0.12456101
0.12680228
0.12904301
0.13127678
0.13349632
0.13569341
0.13785859
0.13998101
0.1420481
0.14404529
0.1459556
0.14775934
0.14943355
0.15095161
0.15228269
0.15339119
0.15423622
0.15477105
0.15494256
0.15469084
0.15394882
0.15264211
0.15068899
0.14800081
0.14448259
0.1400342
0.13455212
0.12793198
0.12007219
0.11088028
0.10028291
0.088241467
0.074780778
0.060062037
0.044498703
0.029032588
0.015866136
0.0083161795
0.006065495
0.0057373846
0.0057946119
0.0059183001
0.0060460192
0.0061588638
0.0062388155
0.0062623757
0.0062239814
0.0061467888
0.0060581249
0.0059722789
0.0058929884
0.0058204885
0.0057544748
0.0056942599
0.0056394922
0.005589576
0.0055443243
0.0055032777
0.00546592
0.0054318975
0.0054008585
0.0053724813
0.0053464606
0.0053225105
0.0053003534
0.0052796571
0.0052602038
0.0052419546
0.005224748
0.0052085273
0.0051932723
0.0051788557
0.0051652826
0.0051525123
0.005140419
0.0051287947
0.0051176756
0.0051071563
0.0050971836
0.0050878222
0.0050791476
0.0050710296
0.0050636902
0.0050569685
0.005051309
0.0050463137
0.0050427216
0.0050403951
0.0050377841
0.005035738
0.0050355759
0.0050341106
0.0050403921
0.10331076
0.10516684
0.10707263
0.10902343
0.11101571
0.11304614
0.11511142
0.1172082
0.11933304
0.12148232
0.12365218
0.12583848
0.12803672
0.13024195
0.13244868
0.13465077
0.13684128
0.1390123
0.14115477
0.14325821
0.1453105
0.1472975
0.14920278
0.15100713
0.1526882
0.15421995
0.15557219
0.15671
0.15759319
0.15817573
0.15840523
0.15822248
0.15756107
0.15634716
0.15449944
0.15192941
0.14854189
0.14423604
0.13890691
0.13244787
0.12475394
0.11572711
0.1052852
0.093375837
0.080001056
0.065268196
0.049517962
0.033516209
0.019092433
0.0096594224
0.0063303415
0.0057482965
0.0057617584
0.0058774077
0.0060051428
0.0061216212
0.0062108424
0.0062498357
0.0062260571
0.0061564632
0.0060696073
0.0059832365
0.0059029513
0.0058294034
0.0057624163
0.005701343
0.0056458192
0.0055951834
0.0055494023
0.0055079088
0.0054701631
0.0054358077
0.0054044917
0.0053758846
0.0053496713
0.0053255556
0.0053032566
0.005282437
0.0052628657
0.005244485
0.0052271497
0.0052108367
0.0051954927
0.0051809638
0.0051672827
0.0051544291
0.0051422634
0.0051305619
0.0051193631
0.0051087776
0.0050987538
0.0050893531
0.0050806517
0.0050724986
0.0050651328
0.0050584007
0.0050527247
0.0050477266
0.0050440991
0.0050417397
0.0050391046
0.005036994
0.0050367931
0.00503527
0.0050414637
0.10770523
0.10950673
0.11135889
0.11325683
0.11519708
0.11717632
0.11919129
0.12123871
0.12331522
0.1254173
0.12754126
0.1296831
0.13183853
0.13400281
0.1361707
0.13833634
0.14049308
0.14263334
0.14474841
0.14682821
0.14886102
0.15083317
0.15272869
0.15452891
0.15621204
0.15775263
0.15912112
0.16028328
0.16119959
0.16182477
0.16210715
0.16198826
0.16140236
0.16027623
0.15852906
0.15607258
0.15281155
0.14864464
0.14346576
0.13716623
0.12963802
0.12077846
0.11049749
0.098730403
0.085458863
0.070750095
0.054865837
0.038433983
0.022938061
0.011569389
0.006779877
0.0057898112
0.0057329831
0.0058358846
0.0059622549
0.0060814066
0.0061781979
0.0062316632
0.0062240027
0.0061643584
0.0060806315
0.005994124
0.0059128961
0.005838324
0.0057703451
0.0057084195
0.0056521059
0.0056008875
0.005554598
0.0055125289
0.0054743851
0.0054396929
0.0054080998
0.0053792622
0.005352855
0.0053285718
0.0053061293
0.0052851891
0.005265508
0.005247003
0.0052295447
0.0052131393
0.0051977012
0.0051830584
0.00516927
0.0051563335
0.005144097
0.0051323238
0.0051210499
0.0051103996
0.0051003282
0.005090892
0.0050821696
0.0050739862
0.005066595
0.0050598575
0.0050541646
0.005049164
0.0050455017
0.0050431034
0.0050404438
0.0050382656
0.0050380178
0.0050364289
0.0050425257
0.11253915
0.1142788
0.11607014
0.11790819
0.11978948
0.12171075
0.12366878
0.12566036
0.12768221
0.12973092
0.13180293
0.13389441
0.13600124
0.13811889
0.14024236
0.14236605
0.14448358
0.14658772
0.14867007
0.15072093
0.15272899
0.15468101
0.1565615
0.1583523
0.16003215
0.1615762
0.16295553
0.16413656
0.16508047
0.16574271
0.16607237
0.16601171
0.16549573
0.16445187
0.16279984
0.16045175
0.15731244
0.15328023
0.14824816
0.14210589
0.13474259
0.12605146
0.11593572
0.10431964
0.091167076
0.076513841
0.060546685
0.043778857
0.027396897
0.014173605
0.0075261383
0.0058856572
0.0057119186
0.0057946628
0.0059177301
0.0060386162
0.0061413596
0.0062077148
0.0062169597
0.0061697258
0.0060908819
0.0060048577
0.0059227977
0.0058472276
0.0057782558
0.0057154726
0.0056583675
0.005606553
0.0055597741
0.0055171118
0.0054785793
0.0054435505
0.0054116815
0.005382613
0.0053560109
0.0053315586
0.0053089708
0.005287912
0.0052681282
0.0052495065
0.0052319312
0.0052154325
0.0051998952
0.0051851383
0.0051712438
0.005158224
0.0051459182
0.0051340794
0.0051227359
0.0051120224
0.0051019075
0.0050924396
0.005083702
0.0050754937
0.0050680776
0.0050613393
0.0050556293
0.0050506254
0.0050469297
0.0050444862
0.0050418014
0.0050395533
0.0050392501
0.0050375878
0.0050435774
0.11786133
0.11953094
0.1212534
0.12302359
0.12483808
0.12669366
0.12858719
0.13051551
0.13247545
0.13446371
0.13647683
0.13851116
0.14056275
0.14262726
0.14469993
0.14677538
0.14884753
0.15090944
0.15295304
0.15496898
0.15694636
0.15887234
0.1607319
0.16250737
0.16417803
0.16571961
0.16710379
0.16829766
0.16926311
0.16995631
0.1703271
0.17031853
0.16986634
0.16889866
0.16733584
0.16509041
0.16206742
0.15816505
0.15327567
0.1472876
0.14008767
0.13156523
0.12161776
0.11016005
0.09714015
0.082567184
0.06656833
0.049546756
0.032451149
0.017564266
0.0087282917
0.0060790399
0.0057050112
0.0057550755
0.005872059
0.0059936058
0.006100882
0.0061781432
0.0062041929
0.0061716655
0.0060999018
0.0060153024
0.0059326237
0.0058560897
0.0057861386
0.0057224836
0.0056645962
0.0056121292
0.0055647062
0.0055216528
0.005482736
0.0054473787
0.005415236
0.0053859366
0.0053591387
0.0053345157
0.0053117807
0.0052906045
0.0052707237
0.0052519926
0.0052343065
0.005217713
0.0052020724
0.0051872028
0.0051732033
0.0051600992
0.0051477255
0.005135828
0.0051244213
0.0051136465
0.0051034921
0.0050939966
0.0050852493
0.005077022
0.0050695813
0.0050628464
0.0050571192
0.0050521105
0.0050483829
0.0050458878
0.0050431766
0.0050408577
0.0050404903
0.0050387475
0.0050446184
0.1237233
0.12531394
0.12695863
0.12865212
0.13039107
0.13217235
0.13399289
0.13584962
0.13773948
0.13965926
0.14160566
0.14357516
0.14556398
0.14756798
0.1495826
0.15160272
0.15362251
0.1556353
0.15763336
0.15960769
0.16154773
0.16344107
0.16527313
0.16702672
0.16868164
0.17021418
0.17159664
0.17279674
0.17377708
0.17449456
0.1748998
0.17493659
0.17454149
0.17364336
0.17216322
0.17001414
0.16710147
0.16332342
0.15857191
0.15273422
0.14569522
0.13734093
0.12756368
0.11627015
0.10339468
0.08892301
0.072937434
0.055736724
0.038080208
0.021783059
0.010585321
0.0064474985
0.0057244189
0.0057191657
0.0058259257
0.0059467158
0.0060573146
0.0061433726
0.0061852097
0.0061691846
0.0061070587
0.0060252442