/*--------------------------------*- C++ -*----------------------------------*\
| =========                 |                                                 |
| \\      /  F ield         | OpenFOAM: The Open Source CFD Toolbox           |
|  \\    /   O peration     | Version:  2406                                  |
|   \\  /    A nd           | Website:  www.openfoam.com                      |
|    \\/     M anipulation  |                                                 |
\*---------------------------------------------------------------------------*/
FoamFile
{
    version     2.0;
    format      ascii;
    arch        "LSB;label=32;scalar=64";
    class       volScalarField;
    location    "0.004";
    object      pMean;
}
// * * * * * * * * * * * * * * * * * * * * * * * * * * * * * * * * * * * * * //

dimensions      [1 -1 -2 0 0 0 0];

internalField   nonuniform List<scalar> 
23204
(
101316.3
101316.62
101316.85
101317.01
101317.05
101306.21
101307.22
101308.19
101309.12
101310.01
101310.85
101311.66
101312.41
101313.12
101313.77
101314.36
101314.9
101315.37
101315.76
101316.08
101316.31
101316.47
101316.51
101275.34
101277.67
101279.89
101282.02
101284.05
101285.99
101287.84
101289.61
101291.3
101292.91
101294.46
101295.93
101297.35
101298.7
101299.99
101301.23
101302.42
101303.57
101304.66
101305.71
101306.72
101307.68
101308.61
101309.49
101310.33
101311.13
101311.88
101312.58
101313.23
101313.83
101314.36
101314.82
101315.21
101315.54
101315.76
101315.92
101315.96
101145.75
101160.26
101173.75
101186.12
101197.28
101207.15
101215.68
101222.8
101228.53
101232.91
101235.99
101237.92
101238.88
101239.03
101238.55
101237.6
101236.43
101235.3
101234.48
101234.44
101235.7
101238.18
101241.8
101245.52
101249.09
101252.51
101255.79
101258.94
101261.95
101264.81
101267.55
101270.18
101272.7
101275.11
101277.4
101279.6
101281.7
101283.71
101285.62
101287.46
101289.21
101290.88
101292.49
101294.02
101295.48
101296.89
101298.23
101299.52
101300.75
101301.93
101303.07
101304.16
101305.2
101306.21
101307.17
101308.09
101308.97
101309.8
101310.6
101311.35
101312.05
101312.69
101313.28
101313.81
101314.27
101314.66
101314.98
101315.21
101315.36
101315.4
100504.94
100521.79
100538.93
100556.41
100574.22
100592.33
100610.75
100629.43
100648.38
100667.56
100686.96
100706.56
100726.33
100746.25
100766.31
100786.48
100806.74
100827.06
100847.41
100867.78
100888.14
100908.44
100928.67
100948.79
100968.76
100988.54
101008.08
101027.34
101046.25
101064.75
101082.78
101100.26
101117.11
101133.23
101148.57
101162.99
101176.41
101188.73
101199.86
101209.72
101218.24
101225.38
101231.12
101235.51
101238.6
101240.51
101241.43
101241.52
101240.95
101239.9
101238.58
101237.25
101236.18
101235.8
101236.66
101238.81
101242.16
101245.8
101249.3
101252.66
101255.88
101258.96
101261.92
101264.74
101267.44
101270.03
101272.51
101274.88
101277.14
101279.31
101281.38
101283.37
101285.26
101287.08
101288.81
101290.47
101292.06
101293.57
101295.03
101296.42
101297.76
101299.03
101300.26
101301.44
101302.57
101303.65
101304.69
101305.69
101306.65
101307.56
101308.44
101309.27
101310.06
101310.8
101311.5
101312.14
101312.73
101313.25
101313.71
101314.1
101314.41
101314.64
101314.79
101314.83
100518.59
100535.05
100551.82
100568.95
100586.4
100604.16
100622.21
100640.53
100659.11
100677.93
100696.96
100716.19
100735.59
100755.15
100774.84
100794.65
100814.55
100834.51
100854.51
100874.53
100894.54
100914.52
100934.42
100954.22
100973.89
100993.37
101012.63
101031.62
101050.27
101068.54
101086.35
101103.64
101120.32
101136.3
101151.52
101165.85
101179.18
101191.44
101202.53
101212.37
101220.89
101228.04
101233.8
101238.2
101241.28
101243.17
101244.05
101244.07
101243.42
101242.26
101240.79
101239.26
101237.96
101237.25
101237.71
101239.55
101242.55
101246.09
101249.53
101252.82
101255.98
101259
101261.91
101264.69
101267.34
101269.88
101272.32
101274.65
101276.89
101279.03
101281.07
101283.03
101284.9
101286.69
101288.41
101290.05
101291.62
101293.13
101294.57
101295.95
101297.28
101298.55
101299.77
101300.94
101302.06
101303.14
101304.17
101305.16
101306.12
101307.03
101307.9
101308.73
101309.51
101310.25
101310.94
101311.58
101312.16
101312.68
101313.14
101313.53
101313.84
101314.06
101314.22
101314.26
100532.25
100548.33
100564.74
100581.52
100598.63
100616.04
100633.74
100651.71
100669.93
100688.39
100707.06
100725.93
100744.97
100764.16
100783.5
100802.94
100822.48
100842.09
100861.74
100881.41
100901.08
100920.72
100940.3
100959.79
100979.14
100998.33
101017.3
101036.02
101054.42
101072.45
101090.04
101107.13
101123.64
101139.48
101154.55
101168.75
101182
101194.19
101205.24
101215.06
101223.57
101230.73
101236.5
101240.9
101243.98
101245.85
101246.69
101246.65
101245.91
101244.64
101243.03
101241.33
101239.81
101238.8
101238.85
101240.36
101243.01
101246.42
101249.78
101253.01
101256.1
101259.06
101261.91
101264.64
101267.25
101269.74
101272.14
101274.44
101276.64
101278.74
101280.76
101282.69
101284.54
101286.31
101288.01
101289.63
101291.19
101292.68
101294.11
101295.48
101296.79
101298.06
101299.27
101300.43
101301.54
101302.62
101303.64
101304.63
101305.58
101306.48
101307.35
101308.17
101308.96
101309.69
101310.38
101311.01
101311.59
101312.11
101312.56
101312.95
101313.26
101313.48
101313.63
101313.67
100545.8
100561.51
100577.59
100594.04
100610.82
100627.89
100645.25
100662.88
100680.75
100698.86
100717.18
100735.69
100754.38
100773.22
100792.19
100811.28
100830.47
100849.72
100869.03
100888.36
100907.69
100927
100946.25
100965.42
100984.47
101003.36
101022.05
101040.49
101058.64
101076.43
101093.8
101110.69
101127.02
101142.69
101157.61
101171.69
101184.84
101196.96
101207.96
101217.75
101226.25
101233.41
101239.19
101243.6
101246.68
101248.54
101249.34
101249.24
101248.42
101247.05
101245.31
101243.44
101241.71
101240.43
101240.09
101241.24
101243.54
101246.77
101250.05
101253.21
101256.23
101259.14
101261.92
101264.61
101267.17
101269.61
101271.97
101274.23
101276.39
101278.46
101280.45
101282.36
101284.18
101285.93
101287.61
101289.21
101290.75
101292.23
101293.65
101295
101296.31
101297.56
101298.76
101299.91
101301.02
101302.09
101303.11
101304.09
101305.03
101305.93
101306.8
101307.61
101308.39
101309.12
101309.81
101310.44
101311.01
101311.53
101311.98
101312.36
101312.66
101312.89
101313.03
101313.07
100544.05
100559.2
100574.59
100590.36
100606.49
100622.94
100639.69
100656.72
100674.01
100691.55
100709.31
100727.29
100745.45
100763.79
100782.28
100800.91
100819.65
100838.49
100857.4
100876.36
100895.35
100914.35
100933.32
100952.25
100971.1
100989.84
101008.44
101026.84
101045.01
101062.9
101080.45
101097.6
101114.28
101130.42
101145.92
101160.69
101174.64
101187.69
101199.73
101210.67
101220.43
101228.92
101236.08
101241.86
101246.28
101249.37
101251.22
101251.98
101251.83
101250.94
101249.47
101247.62
101245.6
101243.68
101242.13
101241.42
101242.19
101244.17
101247.14
101250.35
101253.43
101256.39
101259.23
101261.95
101264.58
101267.09
101269.49
101271.8
101274.02
101276.15
101278.19
101280.15
101282.02
101283.82
101285.55
101287.2
101288.79
101290.31
101291.77
101293.18
101294.52
101295.82
101297.06
101298.25
101299.39
101300.5
101301.55
101302.57
101303.55
101304.48
101305.38
101306.23
101307.05
101307.82
101308.55
101309.22
101309.85
101310.42
101310.93
101311.38
101311.76
101312.06
101312.28
101312.43
101312.47
100557.65
100572.48
100587.57
100603.04
100618.86
100635
100651.43
100668.13
100685.1
100702.3
100719.73
100737.37
100755.2
100773.19
100791.34
100809.63
100828.02
100846.52
100865.08
100883.71
100902.36
100921.03
100939.68
100958.28
100976.82
100995.26
101013.55
101031.67
101049.57
101067.2
101084.5
101101.42
101117.89
101133.83
101149.16
101163.78
101177.6
101190.54
101202.5
101213.38
101223.1
101231.57
101238.72
101244.52
101248.95
101252.04
101253.89
101254.62
101254.41
101253.46
101251.9
101249.94
101247.79
101245.68
101243.9
101242.86
101243.21
101244.9
101247.56
101250.66
101253.67
101256.56
101259.33
101262
101264.57
101267.03
101269.38
101271.64
101273.82
101275.91
101277.92
101279.84
101281.69
101283.46
101285.16
101286.8
101288.37
101289.87
101291.32
101292.7
101294.04
101295.32
101296.55
101297.73
101298.87
101299.96
101301.01
101302.02
101302.99
101303.92
101304.81
101305.66
101306.47
101307.24
101307.96
101308.63
101309.26
101309.82
101310.33
101310.78
101311.15
101311.45
101311.67
101311.81
101311.85
100571.07
100585.62
100600.44
100615.62
100631.14
100646.96
100663.08
100679.47
100696.12
100713
100730.1
100747.41
100764.91
100782.57
100800.38
100818.33
100836.39
100854.54
100872.78
100891.06
100909.39
100927.72
100946.05
100964.34
100982.56
101000.69
101018.7
101036.53
101054.16
101071.52
101088.58
101105.27
101121.52
101137.26
101152.41
101166.88
101180.56
101193.39
101205.26
101216.08
101225.75
101234.19
101241.34
101247.14
101251.59
101254.69
101256.53
101257.24
101256.99
101255.97
101254.34
101252.28
101250
101247.73
101245.74
101244.38
101244.3
101245.7
101248.03
101251.01
101253.93
101256.75
101259.46
101262.06
101264.56
101266.97
101269.28
101271.49
101273.63
101275.68
101277.65
101279.54
101281.36
101283.1
101284.78
101286.39
101287.94
101289.43
101290.86
101292.23
101293.55
101294.82
101296.04
101297.21
101298.34
101299.42
101300.47
101301.47
101302.43
101303.35
101304.24
101305.08
101305.89
101306.65
101307.37
101308.03
101308.65
101309.22
101309.72
101310.16
101310.53
101310.83
101311.05
101311.19
101311.23
100584.31
100598.6
100613.16
100628.06
100643.29
100658.82
100674.63
100690.72
100707.05
100723.62
100740.41
100757.39
100774.56
100791.9
100809.38
100827
100844.73
100862.55
100880.45
100898.41
100916.41
100934.42
100952.42
100970.4
100988.31
101006.14
101023.85
101041.4
101058.75
101075.86
101092.67
101109.12
101125.15
101140.69
101155.66
101169.97
101183.51
101196.22
101208
101218.75
101228.37
101236.79
101243.93
101249.73
101254.19
101257.3
101259.15
101259.84
101259.55
101258.48
101256.78
101254.63
101252.23
101249.8
101247.62
101245.99
101245.49
101246.57
101248.58
101251.37
101254.22
101256.96
101259.59
101262.13
101264.57
101266.93
101269.18
101271.35
101273.44
101275.45
101277.38
101279.24
101281.03
101282.74
101284.4
101285.98
101287.51
101288.98
101290.39
101291.75
101293.05
101294.31
101295.52
101296.68
101297.8
101298.88
101299.91
101300.91
101301.86
101302.78
101303.66
101304.5
101305.29
101306.05
101306.76
101307.43
101308.04
101308.6
101309.1
101309.53
101309.9
101310.2
101310.41
101310.56
101310.59
100597.34
100611.39
100625.7
100640.34
100655.29
100670.54
100686.06
100701.85
100717.89
100734.15
100750.63
100767.3
100784.15
100801.17
100818.33
100835.62
100853.02
100870.52
100888.1
100905.73
100923.4
100941.1
100958.79
100976.45
100994.06
101011.59
101029
101046.27
101063.35
101080.19
101096.75
101112.97
101128.78
101144.12
101158.9
101173.04
101186.45
101199.04
101210.71
101221.39
101230.96
101239.34
101246.47
101252.28
101256.75
101259.88
101261.73
101262.41
101262.09
101260.97
101259.21
101256.98
101254.47
101251.9
101249.55
101247.67
101246.78
101247.49
101249.22
101251.76
101254.52
101257.18
101259.75
101262.22
101264.59
101266.89
101269.1
101271.21
101273.26
101275.22
101277.12
101278.94
101280.7
101282.38
101284.01
101285.57
101287.08
101288.53
101289.92
101291.26
101292.56
101293.8
101294.99
101296.15
101297.25
101298.32
101299.35
101300.34
101301.28
101302.2
101303.07
101303.9
101304.69
101305.44
101306.15
101306.81
101307.42
101307.97
101308.47
101308.9
101309.26
101309.56
101309.77
101309.91
101309.94
100610.16
100623.98
100638.05
100652.44
100667.13
100682.1
100697.35
100712.85
100728.59
100744.56
100760.73
100777.1
100793.64
100810.35
100827.19
100844.17
100861.25
100878.43
100895.69
100913
100930.36
100947.74
100965.12
100982.47
100999.78
101017.01
101034.13
101051.12
101067.93
101084.51
101100.82
101116.8
101132.39
101147.52
101162.12
101176.09
101189.36
101201.82
101213.39
101223.99
101233.5
101241.85
101248.96
101254.78
101259.26
101262.4
101264.26
101264.94
101264.6
101263.44
101261.62
101259.32
101256.71
101254.02
101251.51
101249.41
101248.16
101248.46
101249.95
101252.18
101254.84
101257.43
101259.91
101262.31
101264.63
101266.86
101269.02
101271.08
101273.08
101275
101276.86
101278.64
101280.37
101282.03
101283.62
101285.16
101286.65
101288.07
101289.45
101290.78
101292.05
101293.28
101294.47
101295.61
101296.7
101297.76
101298.78
101299.76
101300.7
101301.6
101302.47
101303.3
101304.08
101304.83
101305.53
101306.18
101306.79
101307.34
101307.83
101308.26
101308.62
101308.91
101309.12
101309.26
101309.29
100622.75
100636.35
100650.19
100664.34
100678.78
100693.49
100708.47
100723.69
100739.15
100754.83
100770.71
100786.78
100803.02
100819.42
100835.96
100852.62
100869.4
100886.26
100903.21
100920.21
100937.26
100954.32
100971.39
100988.45
101005.45
101022.39
101039.23
101055.94
101072.48
101088.8
101104.86
101120.61
101135.98
101150.9
101165.3
101179.11
101192.23
101204.56
101216.03
101226.54
101236
101244.31
101251.4
101257.21
101261.71
101264.87
101266.75
101267.43
101267.08
101265.88
101264.01
101261.64
101258.95
101256.15
101253.48
101251.19
101249.63
101249.49
101250.75
101252.66
101255.19
101257.68
101260.1
101262.43
101264.67
101266.85
101268.94
101270.96
101272.91
101274.79
101276.6
101278.35
101280.04
101281.67
101283.24
101284.75
101286.21
101287.62
101288.97
101290.28
101291.54
101292.76
101293.93
101295.06
101296.15
101297.19
101298.2
101299.18
101300.11
101301.01
101301.86
101302.68
101303.46
101304.2
101304.9
101305.55
101306.14
101306.69
101307.18
101307.6
101307.96
101308.25
101308.45
101308.59
101308.62
100635.08
100648.48
100662.1
100676.02
100690.22
100704.68
100719.4
100734.36
100749.54
100764.94
100780.54
100796.32
100812.26
100828.36
100844.6
100860.96
100877.43
100893.99
100910.63
100927.33
100944.07
100960.83
100977.6
100994.36
101011.07
101027.72
101044.28
101060.71
101076.98
101093.04
101108.86
101124.37
101139.52
101154.23
101168.45
101182.08
101195.05
101207.25
101218.61
101229.03
101238.43
101246.7
101253.77
101259.58
101264.09
101267.28
101269.17
101269.87
101269.51
101268.28
101266.37
101263.94
101261.18
101258.28
101255.48
101253.01
101251.18
101250.61
101251.61
101253.23
101255.55
101257.96
101260.3
101262.55
101264.73
101266.84
101268.88
101270.84
101272.74
101274.57
101276.35
101278.06
101279.71
101281.31
101282.85
101284.34
101285.77
101287.16
101288.49
101289.78
101291.03
101292.23
101293.39
101294.51
101295.58
101296.62
101297.62
101298.58
101299.51
101300.4
101301.25
101302.06
101302.84
101303.57
101304.26
101304.9
101305.49
101306.03
101306.52
101306.94
101307.29
101307.58
101307.78
101307.92
101307.94
100647.14
100660.35
100673.76
100687.46
100701.43
100715.65
100730.12
100744.82
100759.74
100774.87
100790.19
100805.68
100821.34
100837.16
100853.1
100869.17
100885.34
100901.6
100917.94
100934.34
100950.78
100967.25
100983.72
101000.18
101016.61
101032.98
101049.25
101065.41
101081.42
101097.23
101112.8
101128.08
101143
101157.51
101171.53
101184.99
101197.8
101209.88
101221.13
101231.46
101240.78
101249.01
101256.07
101261.88
101266.4
101269.61
101271.53
101272.24
101271.88
101270.63
101268.68
101266.21
101263.39
101260.4
101257.48
101254.85
101252.79
101251.81
101252.49
101253.89
101255.93
101258.25
101260.51
101262.69
101264.8
101266.84
101268.82
101270.73
101272.58
101274.36
101276.09
101277.77
101279.38
101280.95
101282.46
101283.92
101285.33
101286.69
101288.01
101289.28
101290.51
101291.7
101292.84
101293.95
101295.01
101296.04
101297.03
101297.98
101298.9
101299.78
101300.63
101301.43
101302.2
101302.93
101303.61
101304.25
101304.83
101305.37
101305.85
101306.26
101306.61
101306.89
101307.1
101307.23
101307.25
100658.92
100671.94
100685.15
100698.64
100712.39
100726.38
100740.61
100755.06
100769.72
100784.59
100799.64
100814.86
100830.24
100845.77
100861.43
100877.21
100893.09
100909.06
100925.11
100941.22
100957.37
100973.54
100989.73
101005.91
101022.05
101038.14
101054.14
101070.03
101085.78
101101.34
101116.66
101131.71
101146.41
101160.72
101174.55
101187.83
101200.49
101212.44
101223.57
101233.81
101243.06
101251.25
101258.28
101264.08
101268.62
101271.85
101273.81
101274.54
101274.19
101272.93
101270.96
101268.44
101265.57
101262.51
101259.47
101256.71
101254.45
101253.11
101253.39
101254.62
101256.35
101258.57
101260.73
101262.84
101264.88
101266.85
101268.77
101270.63
101272.42
101274.16
101275.84
101277.48
101279.06
101280.59
101282.07
101283.5
101284.89
101286.23
101287.52
101288.78
101289.99
101291.16
101292.29
101293.38
101294.43
101295.45
101296.43
101297.38
101298.28
101299.16
101299.99
101300.79
101301.55
101302.27
101302.95
101303.58
101304.16
101304.69
101305.16
101305.58
101305.92
101306.2
101306.4
101306.54
101306.56
100670.39
100683.22
100696.25
100709.53
100723.07
100736.84
100750.83
100765.05
100779.46
100794.07
100808.86
100823.82
100838.93
100854.19
100869.57
100885.07
100900.67
100916.36
100932.12
100947.94
100963.81
100979.7
100995.61
101011.5
101027.37
101043.18
101058.92
101074.55
101090.04
101105.35
101120.44
101135.25
101149.74
101163.84
101177.48
101190.59
101203.09
101214.9
101225.93
101236.07
101245.25
101253.39
101260.39
101266.19
101270.74
101274.01
101276
101276.77
101276.43
101275.17
101273.18
101270.63
101267.71
101264.59
101261.46
101258.57
101256.14
101254.5
101254.32
101255.42
101256.85
101258.9
101260.97
101263
101264.97
101266.87
101268.73
101270.53
101272.27
101273.96
101275.6
101277.19
101278.73
101280.23
101281.67
101283.08
101284.44
101285.76
101287.03
101288.27
101289.46
101290.61
101291.73
101292.81
101293.85
101294.86
101295.83
101296.76
101297.66
101298.52
101299.35
101300.14
101300.9
101301.61
101302.28
101302.91
101303.48
101304.01
101304.47
101304.88
101305.22
101305.5
101305.7
101305.83
101305.85
100681.53
100694.19
100707.03
100720.12
100733.45
100747.01
100760.78
100774.76
100788.94
100803.3
100817.84
100832.54
100847.39
100862.38
100877.49
100892.72
100908.05
100923.46
100938.95
100954.49
100970.08
100985.7
101001.33
101016.95
101032.55
101048.1
101063.57
101078.95
101094.19
101109.25
101124.1
101138.69
101152.97
101166.86
101180.32
101193.26
101205.6
101217.27
101228.18
101238.23
101247.34
101255.43
101262.4
101268.2
101272.76
101276.06
101278.09
101278.9
101278.59
101277.34
101275.34
101272.77
101269.81
101266.64
101263.43
101260.43
101257.84
101255.95
101255.32
101256.25
101257.42
101259.24
101261.23
101263.17
101265.06
101266.9
101268.69
101270.43
101272.12
101273.76
101275.35
101276.9
101278.4
101279.86
101281.28
101282.66
101283.99
101285.28
101286.54
101287.75
101288.92
101290.06
101291.16
101292.23
101293.26
101294.25
101295.21
101296.14
101297.03
101297.88
101298.7
101299.49
101300.23
101300.94
101301.6
101302.22
101302.79
101303.31
101303.77
101304.18
101304.51
101304.79
101304.98
101305.11
101305.13
100692.32
100704.82
100717.48
100730.38
100743.52
100756.87
100770.42
100784.18
100798.12
100812.25
100826.54
100840.99
100855.59
100870.32
100885.18
100900.14
100915.2
100930.35
100945.57
100960.84
100976.17
100991.52
101006.88
101022.24
101037.57
101052.86
101068.08
101083.2
101098.2
101113.02
101127.65
101142.01
101156.08
101169.77
101183.04
101195.81
101208
101219.53
101230.32
101240.28
101249.32
101257.35
101264.3
101270.09
101274.67
101278
101280.08
101280.93
101280.66
101279.43
101277.42
101274.85
101271.86
101268.65
101265.38
101262.27
101259.55
101257.45
101256.42
101257.04
101258.1
101259.61
101261.5
101263.36
101265.17
101266.94
101268.66
101270.34
101271.97
101273.56
101275.11
101276.61
101278.08
101279.5
101280.88
101282.23
101283.54
101284.8
101286.03
101287.23
101288.39
101289.51
101290.59
101291.64
101292.66
101293.64
101294.59
101295.51
101296.39
101297.23
101298.05
101298.82
101299.56
101300.26
101300.91
101301.53
101302.09
101302.6
101303.06
101303.46
101303.79
101304.06
101304.26
101304.38
101304.41
100702.75
100715.08
100727.57
100740.3
100753.24
100766.39
100779.73
100793.27
100807
100820.89
100834.95
100849.16
100863.51
100878
100892.6
100907.31
100922.11
100937
100951.96
100966.97
100982.04
100997.13
101012.23
101027.33
101042.41
101057.45
101072.42
101087.3
101102.06
101116.65
101131.05
101145.2
101159.05
101172.55
101185.64
101198.23
101210.27
101221.67
101232.34
101242.2
101251.17
101259.15
101266.07
101271.86
101276.45
101279.82
101281.94
101282.85
101282.63
101281.43
101279.44
101276.86
101273.85
101270.6
101267.29
101264.1
101261.25
101258.98
101257.61
101257.82
101258.85
101260.03
101261.78
101263.55
101265.29
101266.98
101268.64
101270.25
101271.83
101273.36
101274.86
101276.32
101277.75
101279.13
101280.49
101281.8
101283.08
101284.32
101285.53
101286.7
101287.84
101288.94
101290.01
101291.05
101292.05
101293.02
101293.96
101294.87
101295.74
101296.57
101297.38
101298.15
101298.88
101299.57
101300.22
101300.82
101301.38
101301.89
101302.34
101302.73
101303.06
101303.33
101303.52
101303.64
101303.67
100712.79
100724.96
100737.29
100749.84
100762.6
100775.55
100788.7
100802.03
100815.53
100829.21
100843.04
100857.01
100871.13
100885.37
100899.73
100914.19
100928.75
100943.39
100958.1
100972.86
100987.67
101002.51
101017.37
101032.22
101047.05
101061.85
101076.58
101091.22
101105.74
101120.11
101134.29
101148.23
101161.88
101175.19
101188.09
101200.52
101212.41
101223.67
101234.23
101243.99
101252.89
101260.82
101267.71
101273.49
101278.1
101281.5
101283.68
101284.66
101284.49
101283.33
101281.36
101278.79
101275.78
101272.51
101269.15
101265.89
101262.94
101260.52
101258.87
101258.62
101259.61
101260.51
101262.07
101263.75
101265.41
101267.03
101268.62
101270.17
101271.69
101273.17
101274.62
101276.04
101277.42
101278.77
101280.09
101281.37
101282.62
101283.84
101285.02
101286.17
101287.29
101288.37
101289.43
101290.45
101291.44
101292.4
101293.32
101294.22
101295.08
101295.91
101296.7
101297.46
101298.18
101298.87
101299.51
101300.11
101300.66
101301.16
101301.61
101302
101302.32
101302.58
101302.77
101302.89
101302.92
100722.42
100734.45
100746.61
100758.99
100771.57
100784.34
100797.29
100810.42
100823.71
100837.17
100850.78
100864.54
100878.42
100892.43
100906.56
100920.78
100935.1
100949.5
100963.96
100978.49
100993.05
101007.65
101022.27
101036.88
101051.47
101066.03
101080.53
101094.94
101109.24
101123.39
101137.35
101151.08
101164.54
101177.66
101190.39
101202.65
101214.39
101225.52
101235.96
101245.64
101254.46
101262.34
101269.2
101274.98
101279.61
101283.05
101285.29
101286.33
101286.23
101285.12
101283.19
101280.63
101277.62
101274.34
101270.96
101267.65
101264.61
101262.05
101260.18
101259.49
101260.32
101261.1
101262.39
101263.97
101265.54
101267.09
101268.6
101270.09
101271.55
101272.98
101274.38
101275.75
101277.09
101278.4
101279.68
101280.93
101282.15
101283.34
101284.5
101285.63
101286.73
101287.8
101288.84
101289.84
101290.82
101291.76
101292.68
101293.56
101294.41
101295.23
101296.02
101296.77
101297.48
101298.16
101298.79
101299.38
101299.93
101300.42
101300.86
101301.25
101301.57
101301.83
101302.01
101302.13
101302.16
100731.64
100743.52
100755.53
100767.74
100780.14
100792.73
100805.49
100818.42
100831.52
100844.77
100858.17
100871.7
100885.37
100899.16
100913.05
100927.05
100941.14
100955.3
100969.54
100983.83
100998.16
101012.52
101026.91
101041.29
101055.66
101069.99
101084.26
101098.45
101112.53
101126.47
101140.22
101153.76
101167.02
101179.96
101192.51
101204.62
101216.21
101227.21
101237.55
101247.12
101255.87
101263.7
101270.54
101276.31
101280.96
101284.45
101286.74
101287.86
101287.84
101286.79
101284.91
101282.38
101279.39
101276.11
101272.7
101269.35
101266.24
101263.56
101261.52
101260.45
101260.96
101261.8
101262.74
101264.19
101265.68
101267.15
101268.59
101270.02
101271.41
101272.79
101274.14
101275.46
101276.76
101278.03
101279.28
101280.49
101281.69
101282.85
101283.98
101285.09
101286.17
101287.22
101288.24
101289.23
101290.19
101291.12
101292.03
101292.9
101293.74
101294.54
101295.32
101296.06
101296.77
101297.44
101298.06
101298.65
101299.19
101299.68
101300.11
101300.49
101300.81
101301.06
101301.24
101301.36
101301.38
100740.42
100752.15
100764.01
100776.06
100788.29
100800.7
100813.28
100826.03
100838.93
100851.98
100865.17
100878.5
100891.95
100905.52
100919.2
100932.98
100946.84
100960.79
100974.8
100988.86
101002.97
101017.11
101031.27
101045.43
101059.58
101073.69
101087.75
101101.73
101115.6
101129.33
101142.89
101156.23
101169.3
101182.06
101194.45
101206.41
101217.86
101228.73
101238.95
101248.44
101257.12
101264.9
101271.71
101277.48
101282.16
101285.68
101288.04
101289.24
101289.3
101288.34
101286.52
101284.03
101281.06
101277.79
101274.38
101271
101267.83
101265.05
101262.86
101261.5
101261.58
101262.53
101263.13
101264.42
101265.82
101267.21
101268.59
101269.94
101271.28
101272.6
101273.89
101275.17
101276.42
101277.66
101278.87
101280.05
101281.21
101282.35
101283.46
101284.54
101285.6
101286.63
101287.63
101288.61
101289.55
101290.47
101291.36
101292.22
101293.05
101293.85
101294.62
101295.35
101296.05
101296.71
101297.33
101297.9
101298.43
101298.92
101299.35
101299.72
101300.03
101300.28
101300.46
101300.58
101300.6
100748.76
100760.34
100772.05
100783.94
100796.01
100808.25
100820.65
100833.21
100845.92
100858.78
100871.77
100884.9
100898.15
100911.51
100924.98
100938.55
100952.2
100965.93
100979.73
100993.58
101007.47
101021.4
101035.35
101049.3
101063.23
101077.13
101090.98
101104.76
101118.43
101131.96
101145.33
101158.48
101171.38
101183.97
101196.2
101208
101219.31
101230.07
101240.18
101249.58
101258.19
101265.93
101272.71
101278.48
101283.18
101286.75
101289.18
101290.46
101290.62
101289.74
101288
101285.57
101282.63
101279.38
101275.98
101272.59
101269.37
101266.51
101264.19
101262.6
101262.23
101263.15
101263.62
101264.68
101265.97
101267.28
101268.58
101269.87
101271.15
101272.41
101273.65
101274.88
101276.09
101277.28
101278.45
101279.6
101280.73
101281.84
101282.93
101283.99
101285.02
101286.04
101287.02
101287.98
101288.91
101289.82
101290.69
101291.54
101292.36
101293.15
101293.9
101294.63
101295.31
101295.97
101296.58
101297.15
101297.67
101298.15
101298.57
101298.94
101299.25
101299.5
101299.67
101299.78
101299.81
100756.65
100768.08
100779.64
100791.38
100803.28
100815.36
100827.58
100839.96
100852.49
100865.16
100877.97
100890.9
100903.95
100917.12
100930.39
100943.75
100957.2
100970.72
100984.31
100997.96
101011.65
101025.37
101039.11
101052.86
101066.59
101080.3
101093.95
101107.53
101121
101134.35
101147.53
101160.5
101173.23
101185.65
101197.73
101209.39
101220.57
101231.2
101241.22
101250.53
101259.08
101266.77
101273.53
101279.3
101284.02
101287.65
101290.15
101291.52
101291.78
101291
101289.34
101286.98
101284.1
101280.88
101277.49
101274.1
101270.86
101267.93
101265.5
101263.73
101262.96
101263.64
101264.26
101264.96
101266.13
101267.36
101268.58
101269.8
101271.01
101272.21
101273.4
101274.58
101275.75
101276.9
101278.04
101279.15
101280.25
101281.33
101282.39
101283.43
101284.44
101285.43
101286.4
101287.34
101288.26
101289.15
101290.01
101290.85
101291.66
101292.43
101293.18
101293.89
101294.57
101295.22
101295.82
101296.38
101296.9
101297.37
101297.79
101298.15
101298.45
101298.7
101298.87
101298.98
101299
100764.07
100775.36
100786.77
100798.35
100810.1
100822.01
100834.07
100846.28
100858.63
100871.12
100883.74
100896.49
100909.35
100922.32
100935.4
100948.57
100961.82
100975.15
100988.54
101001.99
101015.49
101029.01
101042.56
101056.11
101069.65
101083.16
101096.63
101110.02
101123.31
101136.48
101149.48
101162.28
101174.84
101187.11
101199.04
101210.56
101221.62
101232.14
101242.05
101251.29
101259.76
101267.41
101274.16
101279.93
101284.68
101288.36
101290.93
101292.39
101292.76
101292.1
101290.54
101288.26
101285.44
101282.27
101278.91
101275.53
101272.27
101269.3
101266.78
101264.85
101263.77
101264.09
101264.94
101265.26
101266.29
101267.43
101268.58
101269.73
101270.88
101272.02
101273.16
101274.29
101275.41
101276.52
101277.61
101278.7
101279.77
101280.82
101281.85
101282.86
101283.85
101284.82
101285.77
101286.7
101287.6
101288.48
101289.33
101290.15
101290.95
101291.71
101292.45
101293.15
101293.82
101294.46
101295.05
101295.61
101296.12
101296.58
101296.99
101297.35
101297.65
101297.89
101298.05
101298.16
101298.18
100771.03
100782.17
100793.44
100804.87
100816.46
100828.21
100840.1
100852.14
100864.32
100876.64
100889.08
100901.65
100914.33
100927.12
100940.01
100952.99
100966.06
100979.2
100992.41
101005.67
101018.98
101032.32
101045.68
101059.04
101072.4
101085.73
101099.01
101112.23
101125.34
101138.34
101151.17
101163.81
101176.22
101188.33
101200.12
101211.5
101222.44
101232.85
101242.67
101251.83
101260.25
101267.86
101274.59
101280.37
101285.15
101288.87
101291.53
101293.09
101293.57
101293.03
101291.59
101289.4
101286.67
101283.55
101280.23
101276.87
101273.61
101270.6
101268.01
101265.96
101264.65
101264.54
101265.48
101265.65
101266.47
101267.51
101268.58
101269.66
101270.74
101271.83
101272.91
101273.99
101275.06
101276.13
101277.19
101278.24
101279.27
101280.29
101281.3
101282.29
101283.26
101284.21
101285.14
101286.05
101286.93
101287.79
101288.63
101289.44
101290.23
101290.98
101291.71
101292.4
101293.06
101293.69
101294.27
101294.82
101295.32
101295.78
101296.18
101296.54
101296.83
101297.06
101297.23
101297.34
101297.36
100777.53
100788.52
100799.64
100810.92
100822.36
100833.95
100845.68
100857.56
100869.57
100881.72
100893.99
100906.38
100918.89
100931.5
100944.21
100957.02
100969.9
100982.87
100995.9
101008.98
101022.11
101035.27
101048.45
101061.64
101074.83
101087.98
101101.09
101114.14
101127.09
101139.92
101152.59
101165.08
101177.33
101189.31
101200.95
101212.21
101223.03
101233.34
101243.07
101252.16
101260.52
101268.1
101274.81
101280.6
101285.41
101289.2
101291.93
101293.59
101294.19
101293.79
101292.47
101290.4
101287.75
101284.71
101281.44
101278.11
101274.86
101271.84
101269.19
101267.04
101265.55
101265.05
101265.82
101266.21
101266.66
101267.58
101268.58
101269.59
101270.61
101271.63
101272.66
101273.68
101274.71
101275.74
101276.76
101277.77
101278.77
101279.77
101280.74
101281.71
101282.66
101283.59
101284.5
101285.39
101286.26
101287.1
101287.93
101288.72