/*--------------------------------*- C++ -*----------------------------------*\
| =========                 |                                                 |
| \\      /  F ield         | OpenFOAM: The Open Source CFD Toolbox           |
|  \\    /   O peration     | Version:  2406                                  |
|   \\  /    A nd           | Website:  www.openfoam.com                      |
|    \\/     M anipulation  |                                                 |
\*---------------------------------------------------------------------------*/
FoamFile
{
    version     2.0;
    format      ascii;
    arch        "LSB;label=32;scalar=64";
    class       volScalarField;
    location    "0.004";
    object      rho;
}
// * * * * * * * * * * * * * * * * * * * * * * * * * * * * * * * * * * * * * //

dimensions      [1 -3 0 0 0 0 0];

internalField   nonuniform List<scalar> 
23204
(
1.2014605
1.2014727
1.2014819
1.2014883
1.2014902
1.2011741
1.2011951
1.2012172
1.2012401
1.2012635
1.2012871
1.2013107
1.2013338
1.2013563
1.2013778
1.2013979
1.2014165
1.2014331
1.2014475
1.2014594
1.2014684
1.2014746
1.2014765
1.2009515
1.2009617
1.2009713
1.2009802
1.2009887
1.200997
1.2010051
1.2010132
1.2010215
1.2010302
1.2010394
1.2010492
1.2010598
1.2010714
1.201084
1.2010979
1.2011132
1.2011298
1.2011478
1.2011671
1.2011876
1.2012091
1.2012315
1.2012543
1.2012774
1.2013004
1.2013231
1.2013451
1.2013661
1.2013858
1.201404
1.2014202
1.2014343
1.201446
1.2014547
1.2014608
1.2014626
1.2000641
1.2001707
1.2002608
1.2003347
1.2003927
1.2004356
1.2004644
1.2004798
1.2004832
1.2004676
1.200433
1.2004049
1.2004097
1.2004401
1.2004802
1.2005222
1.2005631
1.2006019
1.2006385
1.2006727
1.2007045
1.2007341
1.2007616
1.2007871
1.2008109
1.2008325
1.2008528
1.200872
1.2008885
1.2009032
1.2009172
1.2009301
1.2009418
1.2009525
1.2009624
1.2009715
1.2009801
1.2009882
1.2009961
1.2010038
1.2010116
1.2010195
1.2010278
1.2010365
1.2010459
1.2010561
1.2010672
1.2010795
1.2010929
1.2011076
1.2011237
1.2011412
1.20116
1.20118
1.201201
1.2012228
1.2012451
1.2012676
1.2012901
1.2013123
1.2013338
1.2013543
1.2013736
1.2013913
1.2014072
1.201421
1.2014324
1.2014409
1.2014468
1.2014485
1.1919022
1.1921573
1.1924146
1.1926745
1.1929368
1.1932014
1.1934681
1.1937367
1.1940069
1.1942785
1.1945512
1.1948247
1.1950986
1.1953727
1.1956464
1.1959194
1.1961911
1.1964611
1.1967288
1.1969936
1.1972549
1.197512
1.1977641
1.1980105
1.1982503
1.1984827
1.1987068
1.1989215
1.1991259
1.1993198
1.1995012
1.1996682
1.1998211
1.1999596
1.2000827
1.2001896
1.2002802
1.2003546
1.200413
1.2004564
1.2004857
1.2005018
1.2005054
1.2004965
1.200464
1.2004317
1.20043
1.2004559
1.2004937
1.2005343
1.200574
1.200612
1.2006478
1.2006812
1.2007123
1.2007412
1.2007681
1.200793
1.2008161
1.2008373
1.200857
1.2008756
1.2008918
1.2009059
1.2009195
1.200932
1.2009433
1.2009536
1.2009631
1.2009718
1.20098
1.2009878
1.2009953
1.2010026
1.20101
1.2010175
1.2010254
1.2010337
1.2010427
1.2010524
1.2010631
1.2010749
1.2010878
1.2011021
1.2011177
1.2011346
1.2011529
1.2011723
1.2011928
1.201214
1.2012358
1.2012578
1.2012797
1.2013014
1.2013223
1.2013424
1.2013612
1.2013785
1.201394
1.2014075
1.2014186
1.2014269
1.2014327
1.2014343
1.1920304
1.1922802
1.1925326
1.1927877
1.1930453
1.1933052
1.1935673
1.1938312
1.1940969
1.1943641
1.1946324
1.1949015
1.1951712
1.1954411
1.1957107
1.1959797
1.1962475
1.1965137
1.1967778
1.1970391
1.197297
1.1975509
1.1978
1.1980436
1.1982809
1.1985109
1.1987329
1.1989458
1.1991486
1.1993409
1.1995216
1.1996882
1.1998404
1.1999789
1.200102
1.2002091
1.2003
1.2003748
1.2004337
1.2004774
1.2005071
1.2005238
1.2005284
1.2005218
1.2004937
1.2004605
1.2004518
1.2004726
1.2005078
1.2005468
1.2005855
1.2006225
1.2006574
1.20069
1.2007204
1.2007486
1.2007748
1.2007991
1.2008216
1.2008423
1.2008614
1.2008795
1.2008948
1.2009087
1.2009221
1.200934
1.2009449
1.2009548
1.2009639
1.2009723
1.2009801
1.2009874
1.2009945
1.2010015
1.2010085
1.2010156
1.201023
1.2010309
1.2010395
1.2010488
1.201059
1.2010703
1.2010828
1.2010965
1.2011116
1.201128
1.2011457
1.2011646
1.2011845
1.2012052
1.2012264
1.2012478
1.2012692
1.2012903
1.2013108
1.2013303
1.2013487
1.2013656
1.2013807
1.2013938
1.2014046
1.2014127
1.2014184
1.2014199
1.192159
1.1924037
1.1926512
1.1929016
1.1931546
1.1934099
1.1936674
1.1939269
1.1941882
1.1944509
1.1947148
1.1949797
1.1952452
1.1955109
1.1957764
1.1960414
1.1963053
1.1965678
1.1968281
1.1970859
1.1973405
1.1975912
1.1978373
1.198078
1.1983127
1.1985403
1.1987601
1.1989711
1.1991723
1.1993629
1.1995427
1.1997089
1.1998606
1.1999986
1.2001216
1.2002288
1.20032
1.2003951
1.2004544
1.2004985
1.2005285
1.2005456
1.2005511
1.2005452
1.2005228
1.2004902
1.2004749
1.2004902
1.2005225
1.2005598
1.2005973
1.2006333
1.2006673
1.2006992
1.2007288
1.2007563
1.2007818
1.2008054
1.2008273
1.2008474
1.200866
1.200883
1.2008982
1.2009123
1.2009249
1.2009362
1.2009466
1.2009561
1.2009648
1.2009728
1.2009802
1.2009871
1.2009938
1.2010004
1.201007
1.2010137
1.2010207
1.2010282
1.2010363
1.2010451
1.2010549
1.2010657
1.2010777
1.2010909
1.2011055
1.2011214
1.2011385
1.2011569
1.2011762
1.2011963
1.2012169
1.2012377
1.2012586
1.2012791
1.2012991
1.2013182
1.201336
1.2013525
1.2013672
1.20138
1.2013905
1.2013984
1.2014039
1.2014054
1.1922871
1.1925268
1.1927696
1.1930155
1.1932639
1.1935148
1.1937679
1.1940229
1.1942798
1.1945382
1.1947979
1.1950585
1.1953198
1.1955814
1.1958429
1.1961039
1.196364
1.1966226
1.1968794
1.1971336
1.1973848
1.1976323
1.1978753
1.1981132
1.1983452
1.1985704
1.198788
1.1989971
1.1991966
1.1993856
1.199564
1.1997299
1.1998813
1.2000185
1.2001414
1.2002486
1.20034
1.2004155
1.2004751
1.2005195
1.2005498
1.2005673
1.2005735
1.2005688
1.2005513
1.2005198
1.2004993
1.2005089
1.2005379
1.2005734
1.2006096
1.2006446
1.2006777
1.2007087
1.2007375
1.2007643
1.2007891
1.200812
1.2008332
1.2008528
1.2008707
1.2008869
1.2009019
1.2009157
1.2009276
1.2009384
1.2009484
1.2009575
1.2009658
1.2009733
1.2009803
1.2009869
1.2009932
1.2009993
1.2010055
1.2010118
1.2010184
1.2010255
1.2010331
1.2010415
1.2010508
1.2010611
1.2010726
1.2010853
1.2010993
1.2011147
1.2011313
1.201149
1.2011678
1.2011873
1.2012073
1.2012276
1.2012479
1.2012679
1.2012873
1.2013059
1.2013233
1.2013393
1.2013536
1.201366
1.2013763
1.2013839
1.2013892
1.2013906
1.1921812
1.1924142
1.1926493
1.1928877
1.1931291
1.1933731
1.1936196
1.1938683
1.1941191
1.1943717
1.1946258
1.1948813
1.1951377
1.1953949
1.1956524
1.1959099
1.196167
1.1964232
1.1966781
1.1969312
1.197182
1.1974298
1.197674
1.197914
1.198149
1.1983783
1.198601
1.1988164
1.1990234
1.1992212
1.1994088
1.1995856
1.1997508
1.199902
1.2000386
1.2001611
1.2002684
1.2003601
1.2004358
1.2004958
1.2005406
1.2005712
1.2005889
1.2005955
1.2005924
1.2005783
1.2005493
1.2005249
1.2005286
1.2005539
1.2005874
1.2006224
1.2006563
1.2006884
1.2007185
1.2007466
1.2007726
1.2007967
1.2008189
1.2008394
1.2008583
1.2008757
1.2008914
1.2009057
1.200919
1.2009306
1.2009408
1.2009504
1.200959
1.2009669
1.200974
1.2009806
1.2009867
1.2009926
1.2009984
1.2010041
1.20101
1.2010161
1.2010227
1.2010299
1.2010379
1.2010467
1.2010565
1.2010675
1.2010797
1.2010932
1.201108
1.201124
1.2011412
1.2011593
1.2011782
1.2011977
1.2012174
1.2012371
1.2012565
1.2012754
1.2012934
1.2013104
1.2013259
1.2013399
1.2013519
1.2013619
1.2013693
1.2013744
1.2013757
1.1923121
1.1925405
1.1927713
1.1930053
1.1932423
1.193482
1.1937242
1.1939687
1.1942152
1.1944636
1.1947135
1.1949648
1.1952172
1.1954703
1.1957238
1.1959773
1.1962305
1.1964829
1.1967341
1.1969836
1.1972308
1.1974752
1.1977162
1.1979531
1.1981852
1.1984118
1.198632
1.1988451
1.1990501
1.1992461
1.1994322
1.1996074
1.1997716
1.1999227
1.2000589
1.2001808
1.2002882
1.20038
1.200456
1.2005164
1.2005615
1.2005924
1.2006104
1.2006173
1.2006151
1.2006037
1.2005782
1.2005516
1.2005494
1.2005707
1.200602
1.2006355
1.2006683
1.2006995
1.2007287
1.2007559
1.2007812
1.2008045
1.200826
1.2008459
1.2008641
1.2008809
1.200896
1.2009098
1.2009227
1.2009336
1.2009432
1.2009525
1.2009607
1.2009681
1.2009748
1.2009809
1.2009866
1.2009921
1.2009974
1.2010027
1.2010082
1.2010139
1.2010201
1.2010268
1.2010343
1.2010426
1.2010519
1.2010624
1.201074
1.201087
1.2011012
1.2011167
1.2011332
1.2011508
1.2011691
1.2011879
1.2012071
1.2012262
1.201245
1.2012634
1.2012809
1.2012973
1.2013125
1.201326
1.2013377
1.2013473
1.2013545
1.2013595
1.2013607
1.1924417
1.1926658
1.1928924
1.1931222
1.193355
1.1935905
1.1938284
1.1940687
1.1943111
1.1945553
1.1948012
1.1950484
1.1952967
1.1955458
1.1957954
1.196045
1.1962943
1.196543
1.1967905
1.1970363
1.1972801
1.1975211
1.1977588
1.1979927
1.1982218
1.1984457
1.1986634
1.1988741
1.1990771
1.1992712
1.1994557
1.1996296
1.1997924
1.1999431
1.2000792
1.2002005
1.2003077
1.2003997
1.2004761
1.2005368
1.2005823
1.2006135
1.2006317
1.2006388
1.2006371
1.2006277
1.2006062
1.200579
1.2005714
1.2005883
1.2006172
1.2006491
1.2006808
1.2007109
1.2007392
1.2007656
1.20079
1.2008126
1.2008334
1.2008525
1.2008701
1.2008863
1.2009008
1.2009141
1.2009262
1.2009366
1.200946
1.2009547
1.2009624
1.2009693
1.2009756
1.2009813
1.2009866
1.2009916
1.2009965
1.2010014
1.2010064
1.2010117
1.2010174
1.2010237
1.2010306
1.2010385
1.2010473
1.2010572
1.2010684
1.2010808
1.2010944
1.2011093
1.2011253
1.2011422
1.2011599
1.2011781
1.2011967
1.2012152
1.2012335
1.2012512
1.2012682
1.2012842
1.2012988
1.2013119
1.2013232
1.2013326
1.2013395
1.2013443
1.2013455
1.1925698
1.1927899
1.1930125
1.1932382
1.1934668
1.1936982
1.1939321
1.1941683
1.1944067
1.1946469
1.1948887
1.195132
1.1953763
1.1956214
1.1958671
1.1961128
1.1963584
1.1966033
1.1968471
1.1970894
1.1973296
1.1975673
1.1978018
1.1980325
1.1982588
1.1984798
1.198695
1.1989034
1.1991042
1.1992965
1.1994793
1.1996518
1.1998132
1.1999631
1.2000993
1.2002202
1.2003271
1.2004193
1.2004959
1.200557
1.2006029
1.2006343
1.2006527
1.20066
1.2006585
1.2006504
1.2006327
1.2006067
1.2005944
1.2006067
1.2006329
1.2006632
1.2006936
1.2007227
1.2007501
1.2007756
1.2007992
1.200821
1.200841
1.2008595
1.2008764
1.2008918
1.2009058
1.2009184
1.2009297
1.20094
1.2009491
1.200957
1.2009643
1.2009707
1.2009765
1.2009818
1.2009867
1.2009912
1.2009957
1.2010001
1.2010047
1.2010095
1.2010148
1.2010206
1.2010271
1.2010344
1.2010427
1.2010521
1.2010627
1.2010745
1.2010876
1.2011019
1.2011173
1.2011336
1.2011507
1.2011683
1.2011862
1.2012041
1.2012218
1.201239
1.2012555
1.2012709
1.2012851
1.2012977
1.2013087
1.2013177
1.2013244
1.201329
1.2013301
1.1926962
1.1929124
1.1931312
1.193353
1.1935777
1.1938051
1.1940351
1.1942674
1.1945017
1.194738
1.1949759
1.1952152
1.1954557
1.1956969
1.1959387
1.1961807
1.1964224
1.1966636
1.1969038
1.1971425
1.1973793
1.1976136
1.1978449
1.1980725
1.1982958
1.1985141
1.1987267
1.1989327
1.1991313
1.1993217
1.1995029
1.199674
1.1998341
1.1999828
1.2001189
1.2002398
1.2003461
1.2004384
1.2005153
1.2005768
1.2006231
1.2006549
1.2006736
1.2006809
1.2006794
1.2006721
1.2006577
1.2006343
1.2006185
1.2006259
1.2006491
1.2006777
1.2007069
1.2007349
1.2007613
1.2007859
1.2008087
1.2008296
1.2008489
1.2008666
1.2008828
1.2008976
1.2009109
1.2009229
1.2009337
1.2009436
1.200952
1.2009594
1.2009662
1.2009722
1.2009775
1.2009823
1.2009868
1.2009909
1.2009949
1.2009989
1.201003
1.2010074
1.2010121
1.2010175
1.2010235
1.2010303
1.2010381
1.201047
1.201057
1.2010683
1.2010808
1.2010945
1.2011092
1.2011249
1.2011414
1.2011584
1.2011756
1.201193
1.2012101
1.2012267
1.2012426
1.2012575
1.2012712
1.2012834
1.201294
1.2013027
1.2013092
1.2013136
1.2013146
1.1928208
1.1930334
1.1932484
1.1934665
1.1936874
1.193911
1.1941372
1.1943656
1.1945961
1.1948286
1.1950626
1.1952981
1.1955347
1.1957722
1.1960102
1.1962484
1.1964864
1.1967239
1.1969605
1.1971957
1.1974291
1.19766
1.1978881
1.1981126
1.1983329
1.1985485
1.1987584
1.198962
1.1991585
1.1993469
1.1995264
1.199696
1.1998549
1.2000024
1.2001379
1.2002589
1.200365
1.2004572
1.2005344
1.2005962
1.2006429
1.2006752
1.2006941
1.2007015
1.2007
1.2006928
1.2006809
1.2006612
1.2006434
1.200646
1.200666
1.2006927
1.2007205
1.2007474
1.2007728
1.2007965
1.2008184
1.2008385
1.2008571
1.200874
1.2008895
1.2009036
1.2009163
1.2009276
1.200938
1.2009473
1.2009549
1.2009617
1.2009683
1.2009737
1.2009786
1.200983
1.2009869
1.2009906
1.2009941
1.2009977
1.2010013
1.2010052
1.2010095
1.2010144
1.2010199
1.2010262
1.2010335
1.2010418
1.2010513
1.201062
1.2010739
1.201087
1.2011011
1.2011162
1.201132
1.2011484
1.201165
1.2011817
1.2011982
1.2012142
1.2012296
1.201244
1.2012572
1.201269
1.2012792
1.2012875
1.2012937
1.201298
1.2012989
1.1929435
1.1931525
1.193364
1.1935785
1.1937958
1.1940158
1.1942382
1.1944629
1.1946897
1.1949184
1.1951487
1.1953804
1.1956133
1.195847
1.1960812
1.1963157
1.1965501
1.196784
1.1970171
1.1972488
1.1974787
1.1977063
1.1979311
1.1981526
1.19837
1.1985827
1.19879
1.1989912
1.1991854
1.1993718
1.1995496
1.1997178
1.1998754
1.2000217
1.2001563
1.2002774
1.2003836
1.2004754
1.2005528
1.2006151
1.2006623
1.2006949
1.2007142
1.2007217
1.2007201
1.2007128
1.2007024
1.2006867
1.2006687
1.200667
1.2006836
1.2007081
1.2007345
1.2007603
1.2007847
1.2008075
1.2008284
1.2008477
1.2008655
1.2008817
1.2008964
1.2009098
1.2009218
1.2009326
1.2009422
1.2009506
1.2009581
1.2009647
1.2009704
1.2009754
1.2009798
1.2009836
1.2009871
1.2009904
1.2009934
1.2009965
1.2009997
1.2010031
1.201007
1.2010113
1.2010164
1.2010222
1.2010289
1.2010367
1.2010456
1.2010557
1.201067
1.2010795
1.201093
1.2011074
1.2011226
1.2011383
1.2011543
1.2011704
1.2011863
1.2012017
1.2012165
1.2012303
1.201243
1.2012544
1.2012642
1.2012722
1.2012782
1.2012823
1.2012831
1.1930642
1.1932699
1.1934779
1.193689
1.1939028
1.1941192
1.194338
1.1945591
1.1947823
1.1950073
1.1952339
1.195462
1.1956912
1.1959212
1.1961518
1.1963827
1.1966134
1.1968438
1.1970733
1.1973015
1.197528
1.1977524
1.197974
1.1981923
1.1984068
1.1986167
1.1988214
1.1990201
1.1992121
1.1993965
1.1995725
1.1997391
1.1998955
1.2000407
1.2001742
1.2002951
1.2004015
1.2004931
1.2005707
1.2006333
1.200681
1.2007141
1.2007338
1.2007415
1.2007398
1.2007322
1.2007224
1.2007104
1.200694
1.2006888
1.2007017
1.2007241
1.200749
1.2007736
1.2007969
1.2008187
1.2008388
1.2008572
1.2008741
1.2008895
1.2009035
1.2009162
1.2009275
1.2009376
1.2009465
1.2009544
1.2009616
1.2009676
1.2009727
1.2009771
1.200981
1.2009844
1.2009874
1.2009902
1.2009928
1.2009954
1.2009981
1.2010011
1.2010044
1.2010083
1.2010128
1.2010181
1.2010243
1.2010316
1.2010399
1.2010494
1.2010601
1.201072
1.2010848
1.2010986
1.2011131
1.2011282
1.2011435
1.201159
1.2011742
1.2011891
1.2012033
1.2012166
1.2012288
1.2012397
1.201249
1.2012568
1.2012625
1.2012664
1.2012671
1.1931828
1.1933853
1.1935901
1.1937978
1.1940082
1.1942212
1.1944365
1.1946541
1.1948737
1.1950952
1.1953183
1.1955427
1.1957683
1.1959947
1.1962217
1.196449
1.1966762
1.196903
1.197129
1.1973538
1.197577
1.197798
1.1980164
1.1982317
1.1984432
1.1986503
1.1988524
1.1990486
1.1992384
1.1994207
1.1995948
1.1997599
1.199915
1.2000591
1.2001916
1.2003119
1.2004186
1.2005104
1.2005878
1.2006508
1.200699
1.2007327
1.2007528
1.2007607
1.200759
1.200751
1.2007412
1.200732
1.2007188
1.2007113
1.2007205
1.2007405
1.2007638
1.2007872
1.2008095
1.2008303
1.2008494
1.200867
1.200883
1.2008976
1.2009109
1.2009228
1.2009334
1.2009429
1.2009511
1.2009586
1.2009651
1.2009704
1.200975
1.2009789
1.2009823
1.2009852
1.2009878
1.20099
1.2009922
1.2009943
1.2009965
1.200999
1.2010019
1.2010053
1.2010093
1.201014
1.2010197
1.2010264
1.2010342
1.2010431
1.2010532
1.2010644
1.2010766
1.2010898
1.2011036
1.201118
1.2011327
1.2011475
1.2011621
1.2011763
1.2011899
1.2012027
1.2012144
1.2012248
1.2012338
1.2012411
1.2012466
1.2012503
1.2012509
1.1932993
1.1934987
1.1937003
1.1939048
1.1941119
1.1943216
1.1945336
1.1947478
1.1949639
1.1951819
1.1954015
1.1956224
1.1958444
1.1960673
1.1962908
1.1965145
1.1967382
1.1969615
1.1971841
1.1974055
1.1976253
1.1978431
1.1980584
1.1982706
1.1984791
1.1986834
1.1988828
1.1990766
1.1992641
1.1994443
1.1996166
1.1997801
1.1999338
1.2000768
1.2002084
1.2003279
1.2004346
1.2005267
1.2006042
1.2006675
1.2007162
1.2007505
1.2007711
1.2007794
1.2007777
1.2007693
1.200759
1.2007513
1.2007423
1.2007342
1.20074
1.2007575
1.2007791
1.2008012
1.2008223
1.2008421
1.2008603
1.200877
1.2008922
1.200906
1.2009184
1.2009296
1.2009395
1.2009483
1.2009559
1.2009627
1.2009686
1.2009734
1.2009774
1.2009808
1.2009837
1.2009861
1.2009882
1.2009899
1.2009916
1.2009932
1.200995
1.200997
1.2009994
1.2010022
1.2010057
1.20101
1.2010151
1.2010212
1.2010284
1.2010368
1.2010462
1.2010568
1.2010684
1.2010808
1.201094
1.2011077
1.2011218
1.2011359
1.2011499
1.2011635
1.2011765
1.2011887
1.2011999
1.2012098
1.2012184
1.2012254
1.2012306
1.2012341
1.2012346
1.1934137
1.1936101
1.1938086
1.19401
1.194214
1.1944204
1.1946291
1.1948399
1.1950527
1.1952673
1.1954834
1.1957009
1.1959194
1.1961388
1.1963588
1.1965791
1.1967993
1.1970192
1.1972383
1.1974564
1.1976729
1.1978875
1.1980996
1.1983087
1.1985144
1.1987159
1.1989126
1.1991039
1.1992891
1.1994672
1.1996376
1.1997994
1.1999518
1.2000937
1.2002244
1.2003431
1.2004494
1.2005419
1.2006198
1.2006832
1.2007324
1.2007673
1.2007885
1.2007973
1.2007958
1.2007871
1.200776
1.2007686
1.2007638
1.2007571
1.2007601
1.2007749
1.2007948
1.2008155
1.2008355
1.2008543
1.2008715
1.2008873
1.2009016
1.2009146
1.2009262
1.2009365
1.2009458
1.2009539
1.2009608
1.2009669
1.2009723
1.2009765
1.2009799
1.2009828
1.2009852
1.2009871
1.2009886
1.2009899
1.2009911
1.2009922
1.2009935
1.200995
1.2009969
1.2009992
1.2010022
1.2010059
1.2010105
1.2010161
1.2010227
1.2010304
1.2010392
1.2010492
1.2010601
1.2010719
1.2010844
1.2010974
1.2011108
1.2011242
1.2011375
1.2011505
1.2011629
1.2011746
1.2011852
1.2011947
1.2012028
1.2012095
1.2012144
1.2012178
1.2012182
1.1935259
1.1937194
1.1939149
1.1941132
1.1943141
1.1945174
1.1947229
1.1949305
1.19514
1.1953512
1.195564
1.195778
1.1959932
1.1962092
1.1964257
1.1966425
1.1968593
1.1970758
1.1972916
1.1975063
1.1977196
1.1979309
1.1981399
1.198346
1.1985488
1.1987475
1.1989416
1.1991304
1.1993132
1.1994893
1.1996578
1.1998179
1.1999688
1.2001096
1.2002395
1.2003575
1.2004631
1.2005558
1.2006344
1.200698
1.2007475
1.2007832
1.200805
1.2008144
1.2008131
1.2008042
1.2007923
1.2007842
1.2007827
1.2007793
1.2007807
1.2007928
1.2008108
1.2008302
1.2008491
1.2008668
1.200883
1.2008979
1.2009113
1.2009234
1.2009342
1.2009437
1.2009522
1.2009596
1.2009659
1.2009713
1.2009762
1.2009797
1.2009823
1.2009849
1.2009867
1.2009881
1.2009891
1.2009899
1.2009906
1.2009912
1.200992
1.200993
1.2009944
1.2009962
1.2009987
1.2010018
1.2010059
1.2010109
1.2010169
1.201024
1.2010322
1.2010415
1.2010517
1.2010629
1.2010747
1.201087
1.2010997
1.2011125
1.2011251
1.2011375
1.2011493
1.2011603
1.2011705
1.2011794
1.2011872
1.2011935
1.2011981
1.2012012
1.2012016
1.1936358
1.1938265
1.1940191
1.1942145
1.1944123
1.1946125
1.1948149
1.1950193
1.1952256
1.1954335
1.195643
1.1958537
1.1960655
1.1962781
1.1964912
1.1967047
1.1969181
1.1971312
1.1973437
1.1975551
1.1977651
1.1979733
1.1981792
1.1983823
1.1985821
1.1987781
1.1989695
1.1991558
1.1993363
1.1995103
1.1996769
1.1998353
1.1999848
1.2001244
1.2002533
1.2003708
1.2004759
1.2005683
1.2006473
1.2007117
1.2007616
1.2007978
1.2008205
1.2008305
1.2008296
1.2008207
1.200808
1.2007986
1.2007986
1.2008001
1.2008014
1.2008112
1.2008273
1.2008453
1.2008629
1.2008795
1.2008948
1.2009087
1.2009212
1.2009324
1.2009423
1.2009511
1.2009588
1.2009655
1.2009711
1.2009758
1.20098
1.200983
1.2009851
1.200987
1.2009883
1.2009891
1.2009896
1.2009899
1.2009901
1.2009902
1.2009905
1.200991
1.2009919
1.2009932
1.2009951
1.2009978
1.2010012
1.2010057
1.2010111
1.2010176
1.2010251
1.2010338
1.2010434
1.2010538
1.2010649
1.2010766
1.2010885
1.2011006
1.2011126
1.2011243
1.2011355
1.201146
1.2011556
1.201164
1.2011713
1.2011773
1.2011816
1.2011846
1.2011849
1.1937435
1.1939314
1.1941212
1.1943136
1.1945085
1.1947057
1.194905
1.1951062
1.1953093
1.1955141
1.1957202
1.1959277
1.1961362
1.1963454
1.1965553
1.1967654
1.1969755
1.1971853
1.1973944
1.1976026
1.1978094
1.1980144
1.1982172
1.1984174
1.1986143
1.1988074
1.1989963
1.1991801
1.1993583
1.1995301
1.1996947
1.1998515
1.1999995
1.2001379
1.2002659
1.2003827
1.2004874
1.2005795
1.2006587
1.2007238
1.2007745
1.2008112
1.2008346
1.2008455
1.2008451
1.2008364
1.2008231
1.2008119
1.2008118
1.2008185
1.2008219
1.20083
1.2008442
1.2008607
1.2008771
1.2008926
1.2009069
1.2009198
1.2009313
1.2009416
1.2009507
1.2009587
1.2009656
1.2009715
1.2009764
1.2009804
1.2009837
1.2009863
1.2009881
1.2009893
1.2009899
1.2009902
1.2009902
1.20099
1.2009896
1.2009893
1.200989
1.200989
1.2009894
1.2009902
1.2009916
1.2009937
1.2009966
1.2010004
1.2010052
1.2010111
1.201018
1.201026
1.2010349
1.2010446
1.2010551
1.201066
1.2010773
1.2010887
1.2011
1.2011111
1.2011216
1.2011315
1.2011405
1.2011485
1.2011554
1.201161
1.201165
1.2011678
1.201168
1.1938489
1.194034
1.194221
1.1944106
1.1946026
1.1947968
1.194993
1.1951912
1.1953911
1.1955927
1.1957956
1.1959998
1.196205
1.196411
1.1966175
1.1968244
1.1970312
1.1972377
1.1974436
1.1976486
1.1978522
1.1980541
1.1982539
1.198451
1.198645
1.1988355
1.1990216
1.199203
1.1993789
1.1995485
1.1997113
1.1998663
1.2000128
1.20015
1.200277
1.2003931
1.2004975
1.2005894
1.2006685
1.2007342
1.2007859
1.2008233
1.2008474
1.2008591
1.2008595
1.2008511
1.2008374
1.2008246
1.2008227
1.2008336
1.2008415
1.2008491
1.2008615
1.2008764
1.2008916
1.200906
1.2009192
1.2009311
1.2009417
1.2009511
1.2009593
1.2009664
1.2009726
1.2009777
1.2009819
1.2009852
1.2009877
1.2009898
1.2009911
1.2009915
1.2009916
1.2009914
1.2009908
1.2009901
1.2009892
1.2009883
1.2009876
1.2009871
1.2009869
1.2009872
1.200988
1.2009895
1.2009919
1.2009951
1.2009994
1.2010046
1.2010109
1.2010182
1.2010264
1.2010354
1.2010452
1.2010554
1.201066
1.2010767
1.2010873
1.2010977
1.2011076
1.2011169
1.2011254
1.2011329
1.2011393
1.2011445
1.2011483
1.2011508
1.2011509
1.1939518
1.1941343
1.1943185
1.1945053
1.1946943
1.1948856
1.1950788
1.1952739
1.1954707
1.1956692
1.1958689
1.1960699
1.1962719
1.1964746
1.1966779
1.1968815
1.197085
1.1972883
1.197491
1.1976928
1.1978933
1.1980921
1.1982888
1.198483
1.1986742
1.1988619
1.1990455
1.1992243
1.1993979
1.1995654
1.1997262
1.1998795
1.2000245
1.2001605
1.2002866
1.200402
1.2005059
1.2005977
1.2006768
1.2007428
1.2007954
1.2008338
1.2008587
1.2008714
1.2008727
1.2008647
1.2008509
1.2008367
1.200832
1.2008448
1.2008591
1.2008681
1.200879
1.2008925
1.2009064
1.2009196
1.2009318
1.2009427
1.2009523
1.2009608
1.2009681
1.2009744
1.2009797
1.200984
1.2009875
1.2009901
1.200992
1.2009934
1.200994
1.2009938
1.2009934
1.2009926
1.2009915
1.2009902
1.2009888
1.2009874
1.2009861
1.2009851
1.2009844
1.2009841
1.2009844
1.2009854
1.2009872
1.2009898
1.2009935
1.2009981
1.2010037
1.2010103
1.2010178
1.2010262
1.2010352
1.2010447
1.2010546
1.2010646
1.2010745
1.2010842
1.2010935
1.2011022
1.2011101
1.2011171
1.2011231
1.2011279
1.2011314
1.2011337
1.2011337
1.1940522
1.194232
1.1944135
1.1945975
1.1947837
1.194972
1.1951622
1.1953543
1.1955481
1.1957434
1.19594
1.1961378
1.1963366
1.1965361
1.1967362
1.1969365
1.1971369
1.1973369
1.1975364
1.1977351
1.1979324
1.1981282
1.1983219
1.1985132
1.1987016
1.1988865
1.1990675
1.1992439
1.1994152
1.1995806
1.1997394
1.199891
1.2000345
1.2001692
1.2002943
1.200409
1.2005125
1.2006042
1.2006834
1.2007497
1.2008029
1.2008424
1.2008685
1.2008821
1.2008843
1.200877
1.2008633
1.2008481
1.2008403
1.2008523
1.2008737
1.2008865
1.2008969
1.2009089
1.2009215
1.2009336
1.2009446
1.2009545
1.2009631
1.2009706
1.2009771
1.2009825
1.2009869
1.2009905
1.2009932
1.2009952
1.2009963
1.2009972
1.2009969
1.200996
1.2009952
1.2009938
1.2009921
1.2009903
1.2009884
1.2009865
1.2009847
1.2009831
1.2009819
1.2009811
1.2009808
1.2009812
1.2009824
1.2009845
1.2009875
1.2009915
1.2009964
1.2010024
1.2010092
1.2010168
1.2010251
1.2010339
1.201043
1.2010523
1.2010616
1.2010707
1.2010793
1.2010874
1.2010947
1.2011012
1.2011067
1.2011111
1.2011143
1.2011165
1.2011164
1.1941499
1.1943271
1.1945059
1.194687
1.1948704
1.1950558
1.1952431
1.1954321
1.1956229
1.1958151
1.1960086
1.1962033
1.1963989
1.1965952
1.1967921
1.1969892
1.1971864
1.1973833
1.1975797
1.1977752
1.1979695
1.1981622
1.198353
1.1985414
1.198727
1.1989092
1.1990876
1.1992616
1.1994305
1.1995938
1.1997507
1.1999006
1.2000426
1.2001761
1.2003001
1.2004141
1.2005172
1.2006087
1.2006881
1.2007548
1.2008085
1.200849
1.2008764
1.2008911
1.2008943
1.2008879
1.2008745
1.2008587
1.2008482
1.2008567
1.2008839
1.2009034
1.2009147
1.2009256
1.2009369
1.2009478
1.2009577
1.2009665
1.2009742
1.2009807
1.2009862
1.2009907
1.2009944
1.2009971
1.2009991
1.2010003
1.2010007
1.2010008
1.201
1.2009986
1.2009971
1.2009951
1.2009929
1.2009905
1.200988
1.2009855
1.2009832
1.2009811
1.2009793
1.200978
1.2009772
1.200977
1.2009776
1.2009791
1.2009815
1.2009848
1.2009891
1.2009944
1.2010005
1.2010074
1.201015
1.201023
1.2010314
1.20104
1.2010486
1.201057
1.201065
1.2010724
1.2010792
1.2010851
1.2010902
1.2010942
1.2010972
1.2010991
1.2010988
1.1942448
1.1944193
1.1945954
1.1947738
1.1949543
1.1951368
1.1953211
1.1955072
1.1956949
1.1958841
1.1960745
1.1962661
1.1964585
1.1966517
1.1968455
1.1970394
1.1972335
1.1974272
1.1976205
1.1978129
1.1980042
1.1981939
1.1983818
1.1985673
1.1987501
1.1989297
1.1991056
1.1992771
1.1994438
1.1996049
1.1997599
1.1999081
1.2000486
1.2001808
1.2003039
1.2004171
1.2005197
1.2006111
1.2006906
1.2007577
1.2008121
1.2008535
1.200882
1.200898
1.2009026
1.2008972
1.2008844
1.2008684
1.2008556
1.2008593
1.2008888
1.2009176
1.2009322
1.2009424
1.2009525
1.2009622
1.200971
1.2009788
1.2009854
1.200991
1.2009955
1.2009992
1.2010019
1.2010038
1.201005
1.2010055
1.2010052
1.2010044
1.2010031
1.2010013
1.200999
1.2009964
1.2009936
1.2009906
1.2009876
1.2009846
1.2009817
1.2009791
1.2009768
1.2009749
1.2009735
1.2009728
1.2009728
1.2009737
1.2009754
1.2009781
1.2009817
1.2009863
1.2009917
1.2009979
1.2010047
1.2010121
1.2010197
1.2010276
1.2010355
1.2010432
1.2010505
1.2010573
1.2010635
1.2010689
1.2010735
1.2010772
1.2010798
1.2010816
1.2010812
1.1943365
1.1945084
1.1946818
1.1948574
1.1950351
1.1952148
1.1953962
1.1955793
1.195764
1.1959501
1.1961375
1.196326
1.1965153
1.1967054
1.196896
1.1970869
1.1972778
1.1974685
1.1976586
1.197848
1.1980363
1.1982231
1.1984081
1.1985908
1.1987709
1.1989478
1.1991211
1.1992903
1.1994547
1.1996138
1.1997669
1.1999133
1.2000523
1.2001832
1.2003053
1.2004178
1.20052
1.2006112
1.2006908
1.2007584
1.2008134
1.2008558
1.2008855
1.2009029
1.2009088
1.2009047
1.2008928
1.2008768
1.2008624
1.2008611
1.2008886
1.2009274
1.2009487
1.2009594
1.2009684
1.2009769
1.2009846
1.2009912
1.2009968
1.2010014
1.201005
1.2010077
1.2010096
1.2010107
1.2010111
1.2010107
1.2010098
1.2010082
1.2010062
1.2010039
1.2010009
1.2009977
1.2009943
1.2009908
1.2009872
1.2009836
1.2009802
1.200977
1.2009742
1.2009717
1.2009698
1.2009685
1.2009679
1.2009682
1.2009693
1.2009713
1.2009743
1.2009781
1.2009829
1.2009883
1.2009944
1.201001
1.2010079
1.2010151
1.2010222
1.2010292
1.2010359
1.2010421
1.2010477
1.2010526
1.2010567
1.20106
1.2010623
1.2010639
1.2010634
1.1944249
1.1945942
1.1947649
1.1949378
1.1951127
1.1952895
1.195468
1.1956482
1.1958299
1.196013
1.1961973
1.1963828
1.1965691
1.1967561
1.1969436
1.1971313
1.1973192
1.1975068
1.1976939
1.1978803
1.1980656
1.1982495
1.1984316
1.1986116
1.1987889
1.1989633
1.1991341
1.1993009
1.1994631
1.1996201
1.1997713
1.199916
1.2000536
1.2001832
1.2003043
1.2004161
1.2005178
1.2006089
1.2006886
1.2007566
1.2008124
1.2008557
1.2008866
1.2009054
1.2009128
1.2009101
1.2008994
1.2008838
1.2008685
1.2008628
1.2008846
1.2009309
1.2009627
1.2009762
1.2009845
1.2009918
1.2009983
1.2010039
1.2010084
1.201012
1.2010146
1.2010164
1.2010174
1.2010176
1.2010172
1.2010161
1.2010144
1.2010121
1.2010095
1.2010064
1.2010028
1.2009991
1.2009951
1.2009909
1.2009868
1.2009827
1.2009787
1.200975
1.2009716
1.2009685
1.200966
1.2009642
1.200963
1.2009626
1.2009631
1.2009645
1.2009668
1.2009699
1.2009739
1.2009786
1.200984
1.2009898
1.200996
1.2010025
1.2010089
1.2010152
1.2010212
1.2010268
1.2010318
1.2010361
1.2010398
1.2010427
1.2010447
1.201046
1.2010455
1.1945098
1.1946764
1.1948445
1.1950146
1.1951867
1.1953607
1.1955363
1.1957136
1.1958924
1.1960725
1.1962538
1.1964362
1.1966194
1.1968034
1.1969878
1.1971726
1.1973574
1.197542
1.1977261
1.1979096
1.1980919
1.198273
1.1984523
1.1986295
1.1988042
1.198976
1.1991443
1.1993088
1.1994688
1.1996237
1.1997731
1.1999161
1.2000522
1.2001806
1.2003007
1.2004117
1.200513
1.2006039
1.2006838
1.2007522
1.2008087
1.2008531
1.2008852
1.2009055
1.2009145
1.2009134
1.2009039
1.2008891
1.2008734
1.2008645
1.2008788
1.2009272
1.2009724
1.2009922
1.2010007
1.201007
1.2010123
1.2010168
1.2010202
1.2010228
1.2010244
1.2010252
1.2010253
1.2010247
1.2010234
1.2010215
1.2010191
1.2010161
1.2010128
1.201009
1.2010048
1.2010004
1.2009958
1.2009911
1.2009864
1.2009817
1.2009772
1.2009729
1.2009689
1.2009653
1.2009623
1.2009598
1.200958
1.200957
1.2009569
1.2009576
1.2009592
1.2009616
1.2009649
1.2009689
1.2009735
1.2009786
1.200984
1.2009897
1.2009954
1.201001
1.2010064
1.2010113
1.2010157
1.2010196
1.2010228
1.2010253
1.201027
1.2010281
1.2010274
1.1945909
1.1947549
1.1949202
1.1950877
1.195257
1.1954281
1.1956009
1.1957753
1.1959511
1.1961283
1.1963066
1.196486
1.1966663
1.1968472
1.1970287
1.1972104
1.1973922
1.1975738
1.197755
1.1979355
1.198115
1.1982932
1.1984698
1.1986443
1.1988164
1.1989857
1.1991516
1.1993138
1.1994716
1.1996245
1.199772
1.1999134
1.200048
1.2001752
1.2002943
1.2004046
1.2005054
1.2005962
1.2006762
1.2007451
1.2008023
1.2008477
1.2008812
1.200903
1.2009136
1.2009142
1.2009063
1.2008925
1.200877
1.2008659
1.2008729
1.200917
1.2009755
1.2010061
1.2010167
1.2010223
1.2010265
1.2010298
1.2010322
1.2010337
1.2010343
1.2010342
1.2010333
1.2010318
1.2010297
1.201027
1.2010238
1.2010201
1.201016
1.2010116
1.2010068
1.2010018
1.2009966
1.2009913
1.200986
1.2009807
1.2009756
1.2009708
1.2009662
1.2009621
1.2009584
1.2009554
1.200953
1.2009514
1.2009506
1.2009506