/*--------------------------------*- C++ -*----------------------------------*\
| =========                 |                                                 |
| \\      /  F ield         | OpenFOAM: The Open Source CFD Toolbox           |
|  \\    /   O peration     | Version:  2406                                  |
|   \\  /    A nd           | Website:  www.openfoam.com                      |
|    \\/     M anipulation  |                                                 |
\*---------------------------------------------------------------------------*/
FoamFile
{
    version     2.0;
    format      ascii;
    arch        "LSB;label=32;scalar=64";
    class       volScalarField;
    location    "0.052";
    object      Ma;
}
// * * * * * * * * * * * * * * * * * * * * * * * * * * * * * * * * * * * * * //

dimensions      [0 0 0 0 0 0 0];

internalField   nonuniform List<scalar> 
8260
(
0.14433859
0.14549007
0.14668189
0.14794662
0.14921465
0.1504628
0.15169839
0.15291977
0.15422572
0.15570353
0.15719332
0.15872423
0.16024
0.16159835
0.16228687
0.16177039
0.15918904
0.15579689
0.15395322
0.1528275
0.15191973
0.15111852
0.15039696
0.14977905
0.14926185
0.14884139
0.14850439
0.14822569
0.14799813
0.14785619
0.14775956
0.14064788
0.14215218
0.14375781
0.14538231
0.14699471
0.14858068
0.15013867
0.15167712
0.15325068
0.15490015
0.15655234
0.15820407
0.15979572
0.16117645
0.16182044
0.16118068
0.15849336
0.15524639
0.1536101
0.15257681
0.15171998
0.15096031
0.15026939
0.14967755
0.14918208
0.14877709
0.14845204
0.14818194
0.14796048
0.14782295
0.14772907
0.13639207
0.13824186
0.14028501
0.14232655
0.14433339
0.14629805
0.14821662
0.15009347
0.15196139
0.15384087
0.15568923
0.15749081
0.1591834
0.1606046
0.16122802
0.1604879
0.15770988
0.15468371
0.15324982
0.15230212
0.15149892
0.15078517
0.15012776
0.14956423
0.14909244
0.14870435
0.14839259
0.1481322
0.14791766
0.14778517
0.14769438
0.13231578
0.1344536
0.13682492
0.13921425
0.14157301
0.14388766
0.14614852
0.14835064
0.15050878
0.15263283
0.15468725
0.15664861
0.15844967
0.15990934
0.16050513
0.1596426
0.15679262
0.15405614
0.15283409
0.15198276
0.15124165
0.15058108
0.14996302
0.14943266
0.14898873
0.14862058
0.14832431
0.14807518
0.14786873
0.14774204
0.14765492
0.12854137
0.13088667
0.133484
0.13613653
0.13878531
0.14140439
0.14397442
0.14647935
0.14891608
0.1512818
0.1535435
0.15566816
0.15757995
0.15907155
0.15962203
0.15860886
0.15572859
0.15337626
0.15236617
0.15161975
0.15094925
0.15034932
0.14977632
0.14928351
0.14887116
0.14852554
0.14824674
0.14801038
0.14781317
0.14769301
0.14761004
0.1251693
0.12764132
0.13037087
0.13319509
0.13605412
0.13891146
0.14173748
0.14450481
0.14719365
0.14978603
0.15224628
0.15452965
0.15654764
0.15805797
0.15853417
0.15734598
0.15451656
0.152639
0.1518372
0.15120606
0.15061577
0.15008461
0.14956324
0.14911315
0.14873701
0.14841727
0.14815836
0.14793653
0.14774998
0.14763718
0.14755901
0.12230507
0.12483487
0.12760948
0.13050908
0.13348398
0.13649387
0.13950166
0.14247006
0.14536477
0.14815227
0.15078807
0.15321305
0.15532118
0.15682441
0.1571831
0.15580365
0.15318498
0.15183869
0.15124202
0.15073603
0.15023707
0.14978399
0.14932139
0.14891941
0.14858456
0.14829437
0.14805798
0.1478525
0.14767822
0.14757367
0.14750103
0.12011567
0.12259591
0.12531674
0.12819097
0.13117961
0.13424357
0.13734227
0.14043151
0.14346555
0.14639634
0.14916619
0.15169812
0.15386196
0.15531316
0.15549575
0.153927
0.15177401
0.1509662
0.15057274
0.15020272
0.14980815
0.14944344
0.14904716
0.14869873
0.14841103
0.14815477
0.14794389
0.14775682
0.14759664
0.14750135
0.14743526
0.11862298
0.12097233
0.12355643
0.12631487
0.12922058
0.13223862
0.13532906
0.13844522
0.14153419
0.14453581
0.1473771
0.14995868
0.15211614
0.15344794
0.15338033
0.15171812
0.15034497
0.15001272
0.14982133
0.1495987
0.14932427
0.14905907
0.14873762
0.14844818
0.14821375
0.14799637
0.14781425
0.14764793
0.1475038
0.14741894
0.14736068
0.11780154
0.11996358
0.12235118
0.12492095
0.12765555
0.13053023
0.13351048
0.13655162
0.13959771
0.14257931
0.1454074
0.14795451
0.15000606
0.15110839
0.15070663
0.14935332
0.1489264
0.14896612
0.14898102
0.14891671
0.14877982
0.14862506
0.14838882
0.14816491
0.1479895
0.14781632
0.14766652
0.14752393
0.14739799
0.14732489
0.14727604
0.11755149
0.11948878
0.12163714
0.12396241
0.12645756
0.12910611
0.13188328
0.13475002
0.13764992
0.14050589
0.14321176
0.1456036
0.1473937
0.14807539
0.14751435
0.14716046
0.14748762
0.14783096
0.14805691
0.14815214
0.14816902
0.14813402
0.1479954
0.1478468
0.14773552
0.14761111
0.14749789
0.14738264
0.14727736
0.14721745
0.14717963
0.11784281
0.11947703
0.12131682
0.12333437
0.12552367
0.12787507
0.13036942
0.13297011
0.13561738
0.13822296
0.1406558
0.14269574
0.14400905
0.14431538
0.14446113
0.14518927
0.14602101
0.14662051
0.14704906
0.14731792
0.14748725
0.14758049
0.14754929
0.14749042
0.14744958
0.14737684
0.1473053
0.14722155
0.14714007
0.14709484
0.14706924
0.11818957
0.1195183
0.12104176
0.12273056
0.12457843
0.12658375
0.12873066
0.13097769
0.13325336
0.13545646
0.13745577
0.139035
0.13995243
0.14071063
0.14201242
0.14338687
0.14447583
0.1453408
0.14598217
0.14642585
0.14674066
0.14696492
0.1470468
0.14708954
0.14712941
0.14711136
0.14708593
0.14703802
0.1469844
0.14695539
0.14694224
0.11818598
0.11925389
0.12047523
0.12185077
0.12338152
0.12504491
0.12680999
0.1286399
0.13046913
0.13221124
0.1337708
0.13516004
0.13657556
0.13829608
0.14003772
0.14157123
0.14291174
0.14399523
0.1448603
0.14549304
0.14595181
0.14629732
0.14649022
0.14663841
0.14677057
0.14681498
0.14683772
0.14682965
0.14680856
0.14679777
0.14679586
0.1178833
0.11857347
0.11944477
0.12050607
0.12177361
0.12315759
0.12458815
0.12609405
0.12767059
0.12928918
0.13094011
0.1327297
0.13465183
0.13650233
0.13825909
0.13990108
0.14134846
0.1426038
0.14367777
0.14451747
0.14513202
0.14559902
0.14589184
0.14614028
0.14636747
0.14648745
0.14656053
0.14659488
0.14661062
0.14662089
0.14662764
0.11901524
0.11953241
0.12009587
0.12071242
0.121444
0.12236995
0.12348214
0.12476735
0.12618404
0.12770404
0.12938645
0.13124823
0.13311342
0.13494021
0.13675271
0.13842739
0.13992262
0.14123723
0.1424509
0.14348091
0.14427941
0.14487657
0.14526704
0.145606
0.14592209
0.14612332
0.14625565
0.1463332
0.14638844
0.14642359
0.14643571
0.12040063
0.12092738
0.12152296
0.12218326
0.12287041
0.12360293
0.12439262
0.12514773
0.12601309
0.1271811
0.12866867
0.13018317
0.13184411
0.13357581
0.13538902
0.13711819
0.13866835
0.14001688
0.14126936
0.14240721
0.14336139
0.14412031
0.14462241
0.14504525
0.14544059
0.14572103
0.14592181
0.14604503
0.14614027
0.14620399
0.14621888
0.12180847
0.12214098
0.1225295
0.12298597
0.12352714
0.12417754
0.12497874
0.12595729
0.12692948
0.12783504
0.12863934
0.12977018
0.13118738
0.132684
0.13415881
0.13578667
0.13745142
0.13892568
0.14022913
0.14137066
0.14238839
0.14330101
0.14394701
0.14446534
0.1449322
0.14528057
0.14555431
0.1457303
0.14586497
0.14595939
0.1459767
0.12361805
0.12392701
0.12428064
0.12467915
0.12512302
0.12560776
0.12612211
0.12666752
0.12730812
0.1281391
0.1291759
0.13009535
0.13103757
0.13227095
0.13350588
0.13479305
0.13622065
0.1378101
0.13925861
0.14044383
0.14144112
0.14242361
0.14321983
0.14386163
0.14440404
0.14480682
0.1451478
0.14538729
0.14556134
0.1456869
0.14570944
0.12512508
0.12532892
0.1255646
0.12583759
0.1261577
0.12653805
0.1269974
0.12754942
0.12817913
0.12884148
0.12952485
0.13040865
0.13135299
0.13222686
0.13323737
0.13428102
0.1355287
0.13687583
0.13825833
0.1395552
0.14060552
0.14157746
0.14245142
0.14321525
0.14385353
0.14431124
0.14470112
0.14501106
0.14522898
0.14538391
0.14541783
0.1268354
0.12702049
0.12723275
0.12747408
0.1277474
0.12805464
0.12839501
0.12876824
0.12918717
0.12968418
0.13027715
0.13088276
0.13151605
0.13236539
0.13326817
0.13413621
0.13516275
0.1363127
0.13746951
0.13867436
0.13983066
0.14084084
0.14172005
0.14253129
0.14326434
0.14379826
0.1442241
0.14459877
0.14486652
0.14504943
0.14510213
0.12823499
0.12835257
0.12848836
0.1286456
0.12882974
0.12904774
0.12930765
0.12961753
0.12998124
0.13039376
0.13085459
0.13140901
0.13205541
0.13262772
0.13339093
0.13430184
0.13505962
0.13593783
0.13692438
0.13797599
0.13906166
0.14015362
0.14108406
0.14187397
0.14262655
0.14326401
0.14372844
0.14415312
0.1444719
0.14468382
0.14476185
0.1298415
0.12995026
0.13007502
0.13021726
0.13037892
0.13056143
0.13076574
0.13099244
0.13124358
0.1315274
0.13185323
0.1322107
0.13261998
0.13318844
0.1337394
0.13437413
0.13513772
0.13580396
0.13656235
0.13748764
0.13846533
0.13945732
0.14049398
0.14129828
0.14198168
0.14269663
0.14322215
0.14367833
0.14404442
0.14428828
0.14439624
0.131133
0.13119775
0.13127253
0.13135916
0.13146061
0.13158077
0.13172434
0.13189669
0.13210362
0.13235029
0.13264092
0.13298521
0.13337615
0.1337769
0.13424717
0.13469665
0.13521459
0.13587448
0.13646951
0.13723154
0.13807507
0.13891971
0.1398968
0.14077225
0.14139748
0.1421029
0.1426982
0.14318463
0.14358902
0.14386509
0.1440034
0.13251555
0.13257879
0.1326509
0.1327323
0.13282328
0.1329239
0.13303484
0.13315876
0.13329986
0.13346217
0.13364964
0.1338649
0.13411399
0.13440959
0.13474923
0.1351721
0.13559081
0.13603005
0.13666714
0.13718377
0.13785524
0.13857377
0.13938717
0.14024251
0.14087626
0.14152572
0.14215916
0.1426854
0.14311364
0.14341815
0.14358322
0.13346582
0.1334983
0.13353734
0.13358371
0.13363879
0.13370449
0.133783
0.1338765
0.13398731
0.1341184
0.13427334
0.13445632
0.1346709
0.13492994
0.1352559
0.13562445
0.13601996
0.13641476
0.13677629
0.13730476
0.13778897
0.13833517
0.13899067
0.13975267
0.14040272
0.14101757
0.14164465
0.14218539
0.14262676
0.14295424
0.14314063
0.13464001
0.13467047
0.13470377
0.13474082
0.13478272
0.13483074
0.13488632
0.13495112
0.13502703
0.13511608
0.13522029
0.13534167
0.13548333
0.13563422
0.13578524
0.13597463
0.13625893
0.13664851
0.13702644
0.13736372
0.13782988
0.13825058
0.13875343
0.13935275
0.14002377
0.14060138
0.1411794
0.14170092
0.1421449
0.14248125
0.1426816
0.1353016
0.13531792
0.1353383
0.13536302
0.13539248
0.13542724
0.13546813
0.13551625
0.13557296
0.13563973
0.13571792
0.13580885
0.13591873
0.13605611
0.13622441
0.13641192
0.13660288
0.13683309
0.13716681
0.13750669
0.13784389
0.13826634
0.1386694
0.13911171
0.13970699
0.14024423
0.14075556
0.14124673
0.14167791
0.14201082
0.14221685
0.13606182
0.13608001
0.13609931
0.13612021
0.13614348
0.13617004
0.13620096
0.13623734
0.13628038
0.13633134
0.13639164
0.136462
0.13653645
0.13661533
0.136713
0.1368428
0.13700098
0.13717436
0.13738206
0.13764304
0.13792573
0.13827988
0.13864199
0.1389979
0.13942363
0.13990109
0.14037217
0.14082674
0.14123443
0.14156116
0.14176558
0.13650017
0.13650901
0.13651989
0.13653337
0.13655009
0.1365707
0.13659587
0.13662627
0.13666266
0.13670607
0.13675816
0.13682202
0.13690261
0.1369971
0.13710301
0.13721292
0.13733869
0.13748505
0.13765633
0.13785567
0.13808821
0.13834808
0.13862484
0.13894094
0.13929262
0.13969147
0.14010898
0.14051954
0.14089756
0.14120657
0.14139936
0.13685299
0.13686159
0.13687209
0.13688476
0.13689989
0.13691786
0.13693911
0.13696415
0.13699359
0.13702816
0.13706861
0.13711626
0.13717425
0.13724629
0.13732518
0.13741545
0.13752027
0.13764229
0.13778578
0.13795625
0.13815301
0.13838677
0.13864009
0.13891071
0.13923901
0.13959826
0.13998373
0.14037043
0.14073159
0.1410304
0.14121679
0.077133303
0.09429562
0.10565187
0.11404743
0.1210696
0.12738948
0.13318433
0.13812055
0.14292781
0.14739467
0.15147952
0.15518445
0.1585254
0.1614859
0.16403466
0.16598343
0.16692604
0.16646877
0.16371803
0.15976951
0.15716629
0.15542168
0.15400332
0.1527915
0.15175519
0.1509222
0.15025058
0.14972662
0.1493209
0.14905325
0.14887339
0.10009261
0.10873843
0.11530097
0.12101283
0.12649348
0.13184393
0.13682126
0.14139844
0.14572753
0.14971454
0.15336294
0.1566908
0.1597099
0.16239204
0.16469258
0.16636442
0.16700725
0.16622481
0.16313462
0.15926479
0.15687036
0.15521249
0.15383642
0.15265415
0.15164327
0.15083164
0.15017643
0.14966452
0.14926721
0.14900511
0.14883538
0.10690071
0.11311905
0.11901844
0.12470079
0.13013008
0.13519322
0.13981372
0.1440326
0.14794915
0.15154855
0.1548538
0.15788503
0.16064732
0.1631035
0.16519782
0.16662557
0.16701591
0.16593336
0.16256918
0.15885279
0.15662572
0.15502418
0.15368091
0.15252447
0.1515363
0.15074386
0.15010376
0.14960311
0.14921378
0.14895703
0.14879417
0.11304489
0.11891445
0.12443154
0.12956061
0.13433712
0.13875941
0.14281853
0.14655693
0.15003303
0.15324639
0.15621981
0.15896915
0.16148949
0.16373296
0.1656265
0.16680483
0.16696828
0.16557992
0.16200629
0.15845122
0.15637182
0.15482648
0.15351842
0.15238961
0.1514257
0.15065368
0.15002951
0.14954063
0.14915966
0.14890851
0.14875008
0.11957038
0.12480832
0.12961603
0.13407283
0.13822857
0.14207577
0.14561844
0.14889716
0.15195377
0.1548016
0.15746342
0.15994955
0.16224375
0.16428665
0.16597946
0.16692378
0.16688335
0.16518506
0.16143466
0.15807484
0.15612961
0.15463344
0.15335845
0.15225646
0.15131615
0.15056395
0.14995532
0.14947794
0.14910524
0.14885968
0.14870457
0.12655763
0.13082714
0.1348015
0.13852427
0.14200665
0.14524332
0.14825181
0.15106377
0.15371153
0.15621196
0.15858223
0.16082393
0.16290808
0.16476319
0.16625873
0.16698946
0.1667682
0.16474021
0.16086801
0.1577198
0.15589053
0.15443982
0.15319745
0.15212234
0.15120572
0.15047344
0.14988046
0.14941464
0.1490503
0.14881046
0.14865877
0.1334544
0.13676595
0.1398799
0.14282158
0.14559752
0.14821483
0.15068971
0.15304454
0.15530221
0.15747639
0.15957588
0.16159195
0.16348249
0.16516444
0.16647251
0.16702235
0.16659665
0.16424489
0.16031484
0.15738549
0.15565659
0.15424787
0.15303731
0.15198879
0.15109559
0.15038296
0.14980543
0.14935103
0.14899502
0.14876091
0.14861247
0.14037398
0.14262209
0.14479
0.14690454
0.14896529
0.15096838
0.15292153
0.15483681
0.15672649
0.15859682
0.16044645
0.16225558
0.1639694
0.16549429
0.16662917
0.16701624
0.16637246
0.16370763
0.15978374
0.15706862
0.15542574
0.15405668
0.15287741
0.15185532
0.15098539
0.15029226
0.1497301
0.14928705
0.14893937
0.14871104
0.14856603
0.14694373
0.14812993
0.1493735
0.15069008
0.15206396
0.15347758
0.15493473
0.15643633
0.15798385
0.15957431
0.16119556
0.16281655
0.16437037
0.16574858
0.16671509
0.16696038
0.16609213
0.16313879
0.15928085
0.15676652
0.15519796
0.1538667
0.15271824
0.15172239
0.15087549
0.15020162
0.14965466
0.14922283
0.14888343
0.14866089
0.14851927
0.15293586
0.15314532
0.15355601
0.15413091
0.154858
0.15572158
0.15671892
0.15783896
0.15907329
0.16040945
0.16182438
0.16327616
0.16468627
0.16592185
0.16673972
0.16686275
0.16576121
0.16256194
0.15880752
0.15647628
0.15497265
0.15367785
0.1525598
0.15158999
0.15076592
0.15011105
0.14957915
0.14915842
0.14882724
0.1486105
0.14847232
0.1582642
0.15761983
0.1572708
0.15717018
0.15730787
0.15768131
0.158264
0.15904059
0.15999372
0.16110279
0.16233394
0.1636349
0.16491486
0.16600967
0.16670579
0.16672584
0.16538932
0.16198607
0.15836244
0.15619573
0.15474971
0.15349033
0.1524023
0.15145833
0.15065685
0.1500207
0.14950367
0.14909389
0.14877085
0.14855989
0.14842513
0.16281212
0.1614521
0.16044605
0.15976274
0.15939832
0.15934218
0.15955816
0.16003671
0.16074376
0.16165451
0.16272442
0.16389173
0.16505023
0.16602706
0.166639
0.16654982
0.16498515
0.16141762
0.15794383
0.15592288
0.15452895
0.15330426
0.15224587
0.15132753
0.15054843
0.14993065
0.14942831
0.14902931
0.14871431
0.1485091
0.14837775
0.16644748
0.16454191
0.16302821
0.16188686
0.16111118
0.16068737
0.16059915
0.16081919
0.16131875
0.16206151
0.16299264
0.16404109
0.16510149
0.16600077
0.1665357
0.16633441
0.16455471
0.160864
0.15754912
0.15565638
0.15431042
0.15311983
0.15209067
0.15119774
0.15044081
0.14984102
0.14935315
0.14896477
0.14865768
0.14845817
0.14833018
0.16911668
0.16685065
0.16498872
0.16351402
0.16242454
0.16171452
0.16137386
0.16137866
0.16170185
0.16230391
0.16312372
0.16408927
0.16509732
0.1659307
0.16638204
0.16607155
0.16410307
0.16032754
0.1571758
0.15539522
0.15409414
0.15293727
0.15193688
0.15106911
0.15033413
0.14975189
0.14927827
0.14890033
0.14860099
0.14840711
0.14828245
0.17090554
0.16838031
0.16628543
0.16458888
0.16328361
0.16236584
0.16183278
0.16167611
0.16187358
0.16238439
0.16314977
0.16407369
0.16503163
0.16580509
0.16618379
0.16576724
0.16363249
0.15981085
0.15682184
0.15513888
0.15388027
0.15275681
0.15178471
0.15094183
0.1502285
0.14966338
0.14920378
0.14883606
0.14854431
0.14835597
0.14823455
0.17198583
0.169289
0.16701944
0.1651631
0.16371364
0.16266303
0.16200581
0.16176822
0.16191386
0.1623732
0.16309359
0.16397887
0.16489133
0.16562353
0.16594484
0.16543345
0.16315171
0.15931581
0.1564854
0.1548871
0.15366899
0.15257869
0.15163432
0.15081606
0.15012404
0.14957557
0.14912973
0.14877202
0.14848769
0.14830479
0.14818651
0.17246876
0.16974157
0.16738378
0.16542835
0.16388766
0.16275986
0.16204085
0.16175242
0.16184655
0.16225456
0.16292513
0.16378098
0.16467453
0.16538655
0.16566621
0.16506962
0.16266939
0.15884329
0.15616346
0.15463971
0.15346043
0.15240308
0.15148585
0.15069186
0.15002086
0.14948855
0.1490562
0.14870829
0.14843119
0.14825359
0.14813834
0.17172069
0.16930229
0.1671237
0.16525049
0.16373217
0.16260072
0.16187636
0.16155478
0.16159887
0.16197798
0.16263168
0.16348184
0.16438042
0.16509501
0.16535074
0.1646847
0.16219116
0.15839298
0.15585424
0.15439666
0.15325471
0.15223012
0.15133944
0.15056935
0.14991907
0.14940242
0.14898329
0.14864494
0.14837487
0.14820241
0.14809005
0.16984296
0.16779495
0.1659469
0.16433792
0.16300798
0.16199988
0.16135599
0.16107781
0.16114459
0.16154213
0.16221248
0.16308221
0.16400847
0.16474961
0.16500114
0.16428427
0.16172219
0.15796468
0.15555634
0.15415783
0.15305195
0.15206
0.15119529
0.15044871
0.14981882
0.14931734
0.14891112
0.14858209
0.14831881
0.14815131
0.14804168
0.16728083
0.16560122
0.16410618
0.16282035
0.16176365
0.16097192
0.16049609
0.16033213
0.1604835
0.1609473
0.16166804
0.16258252
0.16355843
0.16435082
0.16462006
0.16387428
0.16126615
0.15755769
0.15526825
0.15392368
0.15285279
0.15189332
0.15105395
0.15033035
0.14972042
0.14923356
0.14883986
0.14851984
0.1482631
0.14810032
0.14799323
0.16396037
0.16275128
0.16168932
0.16079321
0.16007473
0.15957308
0.15932519
0.15932903
0.15962181
0.16019524
0.16099971
0.16198414
0.16303068
0.16389905
0.16421011
0.16346059
0.16082609
0.15717268
0.15499073
0.15369587
0.1526588
0.1517313
0.15091638
0.15021492
0.14962431
0.14915136
0.14876966
0.14845828
0.14820777
0.14804942
0.14794471
0.15987336
0.15922977
0.15870291
0.15828232
0.15797945
0.15782853
0.15784824
0.15807904
0.15856234
0.15928538
0.16020638
0.16128651
0.16242412
0.16339314
0.16377297
0.1630481
0.16040741
0.15681506
0.1547274
0.15347712
0.15247191
0.15157519
0.1507834
0.15010284
0.1495306
0.14907077
0.14870046
0.1483973
0.14815271
0.14799854
0.14789604
0.15495317
0.15492775
0.15504284
0.15521366
0.15542022
0.1556846
0.15604646
0.15656091
0.15728528
0.1582023
0.15927571
0.16048037
0.16173107
0.16282666
0.16330644
0.16264282
0.16001957
0.15649388
0.15448071
0.15326738
0.15229137
0.15142395
0.15065389
0.1499931
0.1494385
0.14899121
0.14863181
0.14833663
0.14809772
0.14794759
0.1478472
0.14933763
0.14966407
0.15034424
0.1511684
0.15201236
0.15284088
0.15368954
0.15458534
0.15564721
0.15684345
0.15813019
0.15950553
0.16090343
0.16216192
0.1627882
0.16223986
0.15967434
0.15620226
0.15424046
0.15305755
0.1521099
0.15127201
0.15052378
0.14988285
0.14934605
0.14891152
0.1485631
0.14827602
0.14804275
0.14789669
0.14779823
0.070399822
0.089501409
0.10190762
0.11104106
0.11848914
0.12505884
0.13106885
0.13640025
0.14141974
0.14609823
0.15039587
0.15430023
0.15782075
0.16094225
0.16363488
0.16574542
0.16686237
0.16658475
0.16402745
0.1600856
0.1573744
0.15558249
0.15413602
0.15290217
0.15184667
0.15099721
0.15031233
0.14977826
0.14936528
0.1490926
0.14890897
0.069384597
0.089263409
0.10163694
0.11078248
0.11820328
0.1246988
0.13061353
0.13595649
0.14095464
0.14563694
0.14996902
0.15392661
0.15750724
0.16069042
0.16343693
0.16561215
0.16678136
0.16660355
0.16416355
0.16023983
0.15747872
0.15567035
0.15421418
0.15297157
0.15190707
0.15104882
0.15035628
0.14981603
0.1493986
0.14912258
0.14893655
0.068848595
0.089134046
0.10162791
0.11066056
0.11794006
0.12431294
0.13011978
0.13541809
0.14039214
0.14508248
0.14945398
0.15347208
0.15712227
0.16037797
0.16319169
0.16544501
0.16669057
0.16660448
0.16431415
0.16040774
0.15758367
0.15575513
0.15429009
0.1530401
0.1519677
0.15110139
0.15040166
0.14985548
0.14943377
0.14915441
0.1489748
0.068222767
0.088800576
0.10147506
0.11043403
0.1176241
0.12390122
0.1296177
0.13487124
0.13982312
0.14451624
0.14891964
0.15299244
0.15670935
0.16003748
0.16292206
0.16525651
0.16658895
0.16659995
0.16446517
0.16059158
0.15770113
0.15584842
0.15437297
0.15311469
0.15203362
0.15115855
0.15045095
0.14989826
0.1494718
0.14918868
0.14900819
0.067335586
0.088078337
0.10107493
0.11010784
0.1172856
0.1235011
0.12914271
0.13435336
0.13927747
0.1439619
0.14838411
0.15250076
0.15627736
0.15967443
0.16263049
0.16504557
0.16647094
0.16658687
0.16460882
0.16078573
0.15782907
0.15594999
0.15446317
0.1531959
0.1521054
0.15122064
0.15050438
0.14994452
0.14951278
0.14922549
0.1490468
0.066375258
0.087194478
0.10055737
0.10976032
0.11696355
0.12313624
0.1287116
0.1338746
0.13876177
0.14342524
0.14785244
0.15200073
0.15582843
0.15928943
0.16231586
0.16480844
0.16633362
0.16656136
0.16474302
0.16098349
0.15796318
0.15605653
0.15455825
0.15328198
0.15218182
0.15128691
0.15056146
0.14999396
0.14955656
0.14926481
0.14907474
0.065481518
0.086237196
0.099992301
0.10940582
0.11665947
0.12280357
0.12831986
0.13343034
0.13827236
0.14290444
0.14732417
0.15149222
0.15536201
0.15888116
0.16197566
0.16454038
0.16617773
0.16652215
0.16487034
0.16118453
0.15810143
0.15616589
0.15465648
0.15337169
0.15226205
0.15135691
0.15062194
0.15004647
0.14960311
0.1493067
0.1491145
0.064732784
0.085240361
0.099366111
0.10902332
0.11635851
0.1224928
0.12795916
0.13301488
0.13780537
0.14239727
0.14679834
0.15097474
0.15487734
0.15844825
0.16160741
0.16423831
0.1659927
0.16646672
0.16497989
0.16139298
0.15824336
0.15627728
0.15475717
0.15346465
0.15234596
0.15143044
0.15068575
0.15010206
0.14965253
0.14935126
0.14915332
0.064085875
0.084183269
0.098658476
0.10859805
0.1160502
0.12219613
0.12762283
0.13262354
0.13735757
0.14190161
0.14627399
0.15044793
0.15437397
0.15798975
0.16120946
0.16390396
0.16576935
0.16639037
0.16506804
0.16160237
0.15838932
0.15639082
0.15486034
0.15356081
0.15243355
0.15150776
0.15075312
0.15016096
0.14970501
0.14939864
0.14920703
0.06364853
0.083152375
0.097905229
0.10814214
0.11573548
0.1219099
0.12730521
0.13225077
0.13692414
0.14141366
0.14574848
0.14991008
0.15385053
0.1575042
0.16078017
0.16353939
0.16551435
0.16629299
0.16514274
0.16181049
0.15853893
0.15650603
0.15496576
0.15366023
0.15252502
0.15158902
0.15082423
0.15022335
0.14976073
0.14944899
0.14925872
0.063561515
0.082235849
0.097133661
0.1076607
0.11541236
0.12162894
0.12699924
0.13188937
0.1364982
0.14092763
0.14521764
0.14935834
0.15330499
0.15698989
0.16031795
0.16314331
0.16522143
0.16614621
0.16519527
0.16201656
0.15869185
0.15662233
0.15507294
0.15376262
0.15262034
0.15167433
0.15089922
0.1502894
0.14981985
0.14950246
0.14930822
0.063708769
0.081467833
0.096400709
0.10718679
0.11509285
0.12135172
0.12669657
0.13152893
0.13606964
0.14043462
0.14467434
0.1487876
0.15273368
0.15644412
0.1598206
0.16271335
0.16489358
0.16597315
0.16521471
0.16221042
0.15884712
0.1567388
0.1551813
0.15386769
0.15271932
0.15176363
0.15097814
0.1503592
0.14988249
0.14955923
0.14935891
0.064319763
0.081134625
0.095830851
0.10674332
0.11476853
0.12106244
0.12637985
0.13115275
0.1356234
0.1399221
0.14410879
0.14819061
0.15213155
0.15586335
0.15928549
0.16224661
0.16452969
0.16576548
0.16520318
0.16238339
0.15900394
0.15685441
0.15528984
0.15397478
0.15282178
0.15185694
0.15106104
0.15043288
0.14994876
0.14961945
0.14941349
0.065502193
0.081186037
0.09536811
0.1063264
0.11443562
0.12074554
0.12602725
0.13073815
0.13513881
0.13937234
0.14350712
0.14755734
0.1514916
0.15524274
0.15870927
0.16173992
0.16412636
0.16551181
0.16515709
0.16254089
0.1591613
0.15696776
0.15539791
0.1540835
0.15292721
0.15195399
0.15114793
0.15051048
0.15001877
0.1496833
0.14947293
0.067191033
0.08165402
0.095228508
0.10596938
0.11405059
0.12034892
0.12559351
0.13024783
0.13458596
0.13876183
0.1428514
0.14687464
0.15080474
0.15457621
0.15808779
0.16118977
0.16368006
0.16520824
0.16506448
0.16267835
0.15931913
0.15707789
0.15550396
0.15419288
0.15303549
0.1520548
0.15123873
0.15059208
0.15009265
0.14975087
0.14953682
0.069328201
0.082693639
0.095299262
0.10559294
0.11355485
0.11981719
0.12502629
0.12963601
0.13392716
0.1380609
0.14211929
0.14612644
0.15005982
0.15385644
0.1574161
0.16059227
0.16318762
0.1648555
0.16491766
0.16278658
0.15947277
0.15718257
0.15560753
0.15430236
0.15314569
0.15215878
0.15133343
0.15067768
0.15017042
0.14982231
0.14960447
0.071767177
0.083968017
0.095563262
0.10532059
0.11300599
0.11913842
0.12428304
0.12885456
0.1331195
0.13723517
0.14128446
0.14529385
0.14924401
0.15307484
0.15668849
0.15994285
0.1626447
0.16444687
0.16471917
0.1628521
0.1596256
0.15728157
0.15570646
0.15441089
0.15325755
0.15226595
0.15143179
0.15076722
0.15025221
0.14989771
0.1496759
0.074365615
0.08533869
0.095742936
0.10476474
0.11211371
0.1181266
0.12324505
0.127824
0.13210765
0.13624552
0.14031927
0.14435755
0.14834397
0.15222241
0.15589861
0.15923562
0.16204209
0.16397943
0.16450382
0.16288838
0.15976541
0.15737033
0.15580019
0.15451707
0.15337035
0.1523755
0.15153378
0.15086077
0.15033797
0.14997715
0.14975134
0.076660877
0.086411834
0.095623898
0.10382618
0.11080002
0.11671058
0.12184838
0.12649099
0.13084959
0.13506003
0.13920016
0.14330062
0.14734802
0.15129104
0.15504043
0.15846434
0.16137238
0.16344376
0.16420245
0.1628864
0.15987052
0.1574519
0.15588708
0.15462093
0.15348199
0.1524867
0.15163872
0.15095783
0.15042774
0.15006071
0.1498308
0.078104249
0.086666799
0.094986191
0.1024895
0.10910945
0.1149202
0.12010218
0.12485138
0.12933468
0.13366637
0.13791578
0.14211326
0.14624873
0.15027555
0.15411012
0.15762652
0.16063938
0.16285951
0.1638545
0.1628475
0.1599625
0.15751895
0.15596439
0.15471855
0.15359489
0.15259998
0.15174685
0.15105886
0.15052142
0.15014839
0.14991436
0.07862266
0.086264922
0.093685553
0.10065108
0.10701374
0.1127778
0.11804156
0.12293527
0.12758338
0.13207647
0.13647221
0.14079842
0.14504713
0.1491762
0.153108
0.15672382
0.15984743
0.16221384
0.16342484
0.16273223
0.16005783
0.15757392
0.1560337
0.15481322
0.15370088
0.15271134
0.15185659
0.15116241
0.15061882
0.15024025
0.15000224
0.078266177
0.085103395
0.091884691
0.098445374
0.10462549
0.11038229
0.11575255
0.12081344
0.12564998
0.13032946
0.13489645
0.13937416
0.14375517
0.14800087
0.15203972
0.15576088
0.15899958
0.1615118
0.1629278
0.1625227
0.1601341
0.15763119
0.15609036
0.15489685
0.15380917
0.15282574
0.15196864
0.15126985
0.15071999
0.15033607
0.15009436
0.077157834
0.08337437
0.089711524
0.095985839
0.10205622
0.10784551
0.11334194
0.11857969
0.1236123
0.1284866
0.13323471
0.13787402
0.14239658
0.14676632
0.15091707
0.15474622
0.15810145
0.16076008
0.16238499
0.16227512
0.16013673
0.15763989
0.15613439
0.15497675
0.15390739
0.15293305
0.15208071
0.15137822
0.1508241
0.150436
0.15019083
0.075491108
0.081258201
0.087264773
0.093355778
0.099387332
0.10525251
0.1108977
0.11632131
0.12155184
0.1266191
0.13154581
0.13634442
0.1410063
0.14549805
0.14975838
0.15369262
0.15716132
0.15996206
0.16179071
0.16201582
0.16010982
0.15762742
0.1561521
0.15503759
0.15399619
0.15304227
0.15219252
0.15148994
0.15093182
0.1505394
0.15029118
0.073550431
0.078951273
0.084697926
0.090656874
0.096687499
0.10265884
0.10847805
0.11410503
0.11953955
0.12479621
0.12989244
0.13483859
0.13962745
0.14422926
0.14858816
0.15261735
0.15618943
0.15911854
0.16112566
0.16168435
0.16004245
0.15761483
0.15616703
0.15509053
0.15409385
0.15314524
0.15230453
0.15160106
0.15104106
0.15064664
0.15039575
0.071613529
0.07669939
0.082208886
0.088038943
0.094063511
0.10014
0.10614303
0.11198653
0.1176323
0.12307745
0.12833319
0.13341028
0.13830618
0.14299747
0.14743554
0.15154204
0.15520042
0.1582395
0.16039872
0.16119971
0.15994071
0.15761963
0.1561636
0.15511564
0.15414944
0.15323532
0.15240921
0.15171316
0.15115366
0.15075646
0.15050357
0.07004116
0.074842266
0.080114228
0.085783521
0.091747522
0.097870637
0.10400986
0.11004326
0.11589011
0.12151583
0.12691849
0.1321074
0.13708601
0.14184012
0.14633107
0.15049082
0.15421398
0.15734433
0.1596427
0.16068875
0.1597913
0.15761444
0.15615661
0.15511032
0.15420013
0.15333287
0.15251837
0.15182476
0.15126584
0.15086937
0.15061513
0.069162743
0.073707193
0.078732952
0.084196647
0.090024427
0.096101303
0.10228382
0.10842685
0.11441536
0.12018201
0.12570144
0.13097373
0.13600493
0.1407902
0.14530273
0.1494867
0.15324925
0.1564488
0.15886801
0.16013695
0.1596008
0.15758305
0.15611246
0.15511093
0.15426743
0.15340508
0.15260929
0.15193179
0.15138049
0.15098386
0.15072895
0.069155413
0.073467463
0.078254725
0.083490862
0.089122093
0.09505654
0.10116391
0.10729947
0.11333212
0.11916434
0.12474238
0.13005089
0.1350935
0.13987218
0.14437148
0.14854774
0.1523214
0.15556523
0.15808191
0.15954013
0.15928794
0.15749186
0.15606057
0.15511393
0.15428216
0.15346051
0.15270624
0.15204
0.15149283
0.15109969
0.15084548
0.070128614
0.074127482
0.078634519
0.083627964
0.089045626
0.094780363
0.10072159
0.10674078
0.1127112
0.11851308
0.12407166
0.12935505
0.13436056
0.13909219
0.14354345
0.14768196
0.1514397
0.15470338
0.1572953
0.15892053
0.15900204
0.15741342
0.15601023
0.15508603
0.15428145
0.1535223
0.15278837
0.15213698
0.1516053
0.15121659
0.15096329
0.072505794
0.076092413
0.080144826
0.084680649
0.08969272
0.095123213
0.10084192
0.10668776
0.11250227
0.11818249
0.12364116
0.12884223
0.13377005
0.13842468
0.14280287
0.14688092
0.15060201
0.15386567
0.15651221
0.15827948
0.15865183
0.15728061
0.15587033
0.15501555
0.15428238
0.15354796
0.15284485
0.15223394
0.15171385