/*--------------------------------*- C++ -*----------------------------------*\
| =========                 |                                                 |
| \\      /  F ield         | OpenFOAM: The Open Source CFD Toolbox           |
|  \\    /   O peration     | Version:  2406                                  |
|   \\  /    A nd           | Website:  www.openfoam.com                      |
|    \\/     M anipulation  |                                                 |
\*---------------------------------------------------------------------------*/
FoamFile
{
    version     2.0;
    format      ascii;
    arch        "LSB;label=32;scalar=64";
    class       volScalarField;
    location    "0.052";
    object      nut;
}
// * * * * * * * * * * * * * * * * * * * * * * * * * * * * * * * * * * * * * //

dimensions      [0 2 -1 0 0 0 0];

internalField   nonuniform List<scalar> 
8260
(
0.033338303
0.037834468
0.043108529
0.04907285
0.055586414
0.062498326
0.069620325
0.076701068
0.083401939
0.089240041
0.093535335
0.09535591
0.093449703
0.086268717
0.072172459
0.050431572
0.026793535
0.012588538
0.0082052736
0.0068521217
0.0060636941
0.0054663518
0.005049044
0.0047448137
0.004529336
0.0043830304
0.0042792999
0.0042099903
0.0041619682
0.0041291018
0.0041121712
0.039410931
0.044034471
0.049111548
0.054703632
0.060769291
0.067194475
0.07380173
0.080339283
0.086462625
0.091681604
0.095291537
0.096341027
0.093561983
0.08541633
0.070316758
0.04799561
0.024500091
0.011869498
0.0080067834
0.0067736529
0.0060189987
0.0054373106
0.0050292956
0.0047322664
0.0045217505
0.0043781496
0.0042765093
0.0042083234
0.0041609473
0.0041284169
0.0041117073
0.046382034
0.050828885
0.055654612
0.060889671
0.066506587
0.072413701
0.078449066
0.084367634
0.08982091
0.094308757
0.097112847
0.097260791
0.093469535
0.084218814
0.068007587
0.045047605
0.022239003
0.01112446
0.0078641512
0.0067338811
0.0059948715
0.005421595
0.0050187616
0.0047254717
0.0045175824
0.0043753567
0.0042748163
0.0042071623
0.0041601532
0.0041277886
0.0041111985
0.054332857
0.058419154
0.062875486
0.06768141
0.072795903
0.07812773
0.083520149
0.088731553
0.093409551
0.097043991
0.09890543
0.098002793
0.093041247
0.08252939
0.065096532
0.04152436
0.019907441
0.010473304
0.0077395608
0.0066712643
0.0059528358
0.0053933577
0.0049995567
0.0047130468
0.004509938
0.0043701671
0.0042718169
0.0042053048
0.0041589702
0.0041269588
0.0041106198
0.063257333
0.06684585
0.070828016
0.075107323
0.079631043
0.084300905
0.088956735
0.093353929
0.097133306
0.099774262
0.10053592
0.098411367
0.092099888
0.080154664
0.061397044
0.03735772
0.017548975
0.0098465786
0.0076003665
0.0066095625
0.0059129836
0.0053674202
0.0049823919
0.0047022183
0.004503414
0.0043657767
0.0042692435
0.0042036143
0.0041578359
0.0041261012
0.0041099613
0.072985437
0.07601851
0.079430524
0.083083492
0.086914985
0.090818057
0.094624739
0.09808238
0.1008214
0.10230911
0.10179276
0.098252537
0.090392066
0.076832441
0.056679372
0.032523622
0.015448822
0.0092713962
0.0074656821
0.0065327174
0.0058607733
0.0053326211
0.0049590078
0.004687291
0.0044942934
0.0043596163
0.0042656762
0.0042013687
0.0041563726
0.0041250543
0.0041092112
0.083212644
0.085655945
0.088423837
0.091362832
0.094402615
0.097427875
0.10026132
0.10263958
0.10418026
0.10433699
0.10234509
0.097175917
0.087555595
0.072208222
0.050674312
0.027113929
0.013477586
0.0087572384
0.0073193424
0.0064481613
0.0058046077
0.0052959897
0.0049350394
0.0046723443
0.0044852876
0.0043536326
0.0042621977
0.0041991063
0.0041548504
0.0041239217
0.0041083575
0.09343761
0.095264841
0.097329695
0.099479619
0.1016359
0.10367414
0.10540667
0.10655798
0.10673165
0.10536716
0.10168886
0.094665962
0.083081003
0.065815109
0.043117158
0.021450398
0.011689841
0.0083744338
0.007168414
0.0063475937
0.0057361941
0.0052508381
0.0049053738
0.0046536417
0.0044737983
0.0043460844
0.0042578031
0.0041963099
0.0041529902
0.0041225818
0.0041073867
0.10286327
0.10405226
0.10536503
0.10666132
0.10785209
0.10880181
0.10931071
0.10908961
0.10772746
0.1046505
0.099075388
0.089980026
0.076269272
0.057075517
0.033918369
0.016790755
0.010209174
0.00804467
0.0069956082
0.0062337712
0.0056597937
0.0052011809
0.0048736069
0.0046339153
0.0044616884
0.0043383767
0.0042532785
0.0041933692
0.0041509795
0.0041211023
0.0041062846
0.11024179
0.11078231
0.11130452
0.1116957
0.11185397
0.11163023
0.11080976
0.10908761
0.10603825
0.10107846
0.093425036
0.082080719
0.066200491
0.045405014
0.023686104
0.013161808
0.0090783528
0.0077268735
0.0068051978
0.0061015726
0.0055693604
0.0051420572
0.004836057
0.0046103546
0.0044468572
0.0043291351
0.0042477877
0.0041898552
0.0041485749
0.0041193746
0.0041050332
0.11370016
0.11359353
0.11331078
0.11277035
0.1118557
0.11040262
0.10817921
0.10486401
0.10002091
0.093068766
0.083244497
0.069592266
0.051823664
0.030636952
0.016340003
0.010595355
0.0084633717
0.0074340857
0.0065898897
0.0059526524
0.0054678317
0.0050763055
0.0047952708
0.0045851124
0.0044309123
0.0043194543
0.0042419804
0.0041860875
0.0041459235
0.0041174461
0.0041036097
0.11050059
0.1097381
0.10867129
0.10721983
0.10524791
0.10257099
0.098937658
0.094014293
0.087370449
0.07846297
0.066609808
0.050849289
0.03246131
0.018745418
0.011857565
0.0090001452
0.0079719995
0.0070711899
0.0063563751
0.0057812095
0.0053539907
0.0050006851
0.0047479812
0.0045556846
0.0044123567
0.004307988
0.0042351058
0.0041816649
0.0041428005
0.0041152127
0.0041015535
0.096812172
0.095506896
0.093746903
0.091456258
0.088491301
0.084653857
0.079675091
0.073239732
0.064988352
0.054557481
0.041910679
0.029599779
0.019056177
0.012323038
0.0092880903
0.0083306418
0.0074222
0.0067623399
0.0061054531
0.0056075215
0.0052263499
0.0049182536
0.0046968804
0.0045237344
0.0043931643
0.0042956953
0.0042277991
0.004176885
0.0041393526
0.0041127193
0.00409924
0.068128789
0.066314451
0.064107423
0.061525935
0.058442923
0.054699682
0.050130886
0.044688448
0.038330464
0.031123864
0.02346167
0.016593371
0.011747569
0.0091068557
0.0081467527
0.0075036817
0.0069714094
0.0063573284
0.005846422
0.0054089826
0.0050988587
0.0048337892
0.0046379547
0.0044868761
0.0043720902
0.0042815666
0.0042193107
0.0041713522
0.0041353746
0.004109871
0.004096688
0.038389284
0.037233213
0.035808963
0.034114825
0.03203402
0.029516647
0.026742174
0.023634024
0.020215782
0.016581374
0.013019182
0.010195708
0.0085647825
0.007676266
0.0074310507
0.0069002272
0.0063596347
0.0060303421
0.0055888976
0.0052440614
0.0049668878
0.0047468965
0.0045811185
0.004447571
0.004350077
0.0042669322
0.0042104334
0.0041654017
0.0041310389
0.0041067224
0.0040939647
0.019022431
0.018613735
0.018007096
0.017235702
0.016274361
0.015128095
0.013860655
0.012493578
0.011071327
0.0096718247
0.0084443065
0.0076343792
0.0072198435
0.00715424
0.0065349394
0.0062615918
0.0060849988
0.0056928549
0.0053611817
0.0050576801
0.0048474686
0.0046713299
0.0045182617
0.004407921
0.0043254482
0.0042513642
0.0042002866
0.0041585739
0.004126182
0.0041031785
0.0040911853
0.010100702
0.010002161
0.0097978675
0.0095120907
0.0091591141
0.0087597848
0.0083404551
0.0078950619
0.0074207746
0.0070177256
0.0068298708
0.0067363426
0.006622306
0.0062396887
0.0061342255
0.0059602292
0.0056297331
0.0054472763
0.0051455707
0.0049285733
0.0047488118
0.0045929519
0.0044682077
0.0043700725
0.0043001319
0.0042347002
0.0041904663
0.0041514637
0.0041209572
0.0040992775
0.0040876308
0.0068354039
0.0068099729
0.0067462287
0.0066576286
0.0065520206
0.0064351898
0.0063403048
0.0062535132
0.0062028476
0.0061943005
0.0062185295
0.0061480329
0.0058615813
0.0057494235
0.0055599275
0.0054421692
0.0053966454
0.0051852461
0.0050054754
0.0048193341
0.0046593714
0.0045346813
0.0044129545
0.0043335432
0.0042754487
0.0042176986
0.0041795147
0.0041433487
0.0041152331
0.0040949591
0.0040841149
0.0057636723
0.0057273194
0.0057001792
0.005683105
0.0056782774
0.0056938283
0.0057175563
0.0056923018
0.0056655123
0.0056454025
0.0055718078
0.0054800642
0.0055215864
0.0054427183
0.0052417851
0.0051824906
0.0050417822
0.0049694465
0.0048622507
0.0047295198
0.0045928867
0.0044741804
0.0043818147
0.0042967531
0.0042515889
0.0042023946
0.0041684622
0.0041353614
0.0041090993
0.0040902476
0.004079864
0.0052946297
0.005296596
0.0053003072
0.0053082892
0.0053243834
0.0053405886
0.0053128859
0.0052945528
0.0052508683
0.0051871207
0.0051597731
0.0051249962
0.0050414166
0.0050162433
0.0050289068
0.0048804386
0.0047930975
0.0047084934
0.0046747214
0.0046193035
0.0045150343
0.0044329639
0.0043374841
0.0042669117
0.0042307614
0.0041877297
0.0041559144
0.0041263401
0.004102389
0.0040851984
0.0040758025
0.0049441313
0.0049393646
0.0049308782
0.0049117398
0.0048832244
0.004849764
0.0048405578
0.0048312968
0.0048181021
0.0048008402
0.0047774431
0.0047474614
0.0047433079
0.0046958054
0.0046772536
0.0047082591
0.0046372164
0.0045682363
0.004503647
0.0044797537
0.0044440194
0.0043770001
0.0043118034
0.0042425834
0.0042097986
0.0041751203
0.0041437328
0.0041177385
0.0040953694
0.0040797966
0.0040709683
0.0046160075
0.0046160632
0.0046140911
0.0046095382
0.0046043558
0.0045998678
0.0046035962
0.0046032309
0.0045935049
0.0045694499
0.0045461547
0.0045337698
0.0045087487
0.004506623
0.0044777708
0.0044633258
0.0044537709
0.0044230538
0.0043827405
0.0043530176
0.0043394845
0.0043364629
0.0042774096
0.0042163784
0.0041919442
0.0041604734
0.004131593
0.0041077783
0.0040882141
0.0040741178
0.0040664035
0.0044433291
0.0044448097
0.0044442016
0.0044414795
0.0044369934
0.0044303
0.0044148987
0.0044023503
0.0043981055
0.0043946312
0.0043918447
0.0043895618
0.0043885177
0.0043771181
0.0043686818
0.0043383196
0.0043287143
0.0043224398
0.0043064871
0.0042846753
0.0042548407
0.0042590908
0.0042497199
0.0041995309
0.0041665161
0.0041464204
0.0041205685
0.004098798
0.0040808906
0.0040682277
0.0040613298
0.0042722082
0.004273849
0.0042737239
0.0042725313
0.0042710771
0.0042709402
0.0042766566
0.004282167
0.0042859655
0.0042886186
0.0042915507
0.0042916402
0.0042913138
0.0042826127
0.0042638185
0.0042659606
0.0042495619
0.0042402536
0.0042403396
0.0042305566
0.0042067393
0.0041889257
0.0042000719
0.0041766642
0.0041452443
0.0041302519
0.0041070969
0.0040887062
0.0040735745
0.004062156
0.0040560981
0.004184915
0.0041860694
0.0041858265
0.0041845666
0.0041822207
0.0041787072
0.0041737978
0.0041720749
0.0041715369
0.0041722124
0.0041733122
0.004174271
0.004174734
0.0041807189
0.0041908227
0.00418319
0.0041776195
0.0041647739
0.004151919
0.0041722747
0.0041624152
0.0041467221
0.0041427458
0.0041475122
0.004125819
0.0041102748
0.0040952871
0.0040781752
0.0040658471
0.0040561775
0.0040512844
0.0041137317
0.0041146015
0.0041147619
0.0041145673
0.0041143881
0.0041143839
0.0041145489
0.0041149421
0.0041159732
0.0041182365
0.0041203915
0.0041217746
0.0041224443
0.0041203642
0.0041207496
0.0041222585
0.0041229562
0.004127216
0.0041176814
0.0041190358
0.0041202319
0.0041156613
0.004105893
0.004111288
0.0041006465
0.0040924768
0.0040770342
0.0040683241
0.0040587621
0.0040504361
0.0040458343
0.0040813867
0.0040818464
0.0040818049
0.0040815502
0.0040813282
0.0040812471
0.0040813299
0.0040815677
0.0040818429
0.0040817446
0.0040823358
0.0040831017
0.0040837935
0.0040840907
0.0040847081
0.0040878454
0.0040958737
0.0040935612
0.0040970652
0.004089119
0.00409283
0.0040892631
0.0040845394
0.0040821829
0.0040795892
0.0040711461
0.0040672378
0.0040593568
0.0040508477
0.0040453427
0.0040421382
0.0040561676
0.0040565367
0.0040567361
0.0040568873
0.0040571057
0.0040574334
0.0040578886
0.0040585053
0.0040592395
0.0040600324
0.0040608943
0.0040619114
0.0040633742
0.0040652149
0.0040665097
0.0040660646
0.0040664041
0.0040681967
0.0040687651
0.0040695302
0.0040696501
0.004062484
0.0040662833
0.0040633319
0.0040645304
0.0040605813
0.0040561352
0.0040512307
0.0040463097
0.0040422723
0.0040402631
0.0040461806
0.0040463259
0.0040463717
0.0040464204
0.0040465502
0.0040467817
0.0040471119
0.0040475556
0.0040480546
0.0040485905
0.0040491851
0.0040499272
0.0040511872
0.0040522108
0.0040528222
0.0040533572
0.0040537654
0.0040546034
0.0040557313
0.0040560715
0.0040566008
0.0040537952
0.004055213
0.0040535944
0.0040541217
0.0040525692
0.0040500009
0.0040467653
0.0040434469
0.0040401208
0.0040368576
0.0040407535
0.0040409147
0.0040410609
0.0040412384
0.0040414654
0.0040417338
0.0040420394
0.0040422967
0.0040425234
0.0040427774
0.0040430593
0.004043656
0.0040450196
0.0040457078
0.0040453947
0.004045329
0.0040457846
0.0040464769
0.0040475876
0.0040487105
0.0040486517
0.0040500501
0.0040482183
0.004049166
0.0040481321
0.0040474327
0.0040463413
0.0040444498
0.0040399824
0.0040368221
0.0040369758
0.0040354966
0.0040355913
0.0040357382
0.0040359398
0.0040362013
0.0040365268
0.0040369193
0.0040373855
0.0040379436
0.0040386271
0.0040394829
0.0040406624
0.0040416587
0.0040419124
0.004041708
0.0040415002
0.0040417792
0.0040426644
0.0040433413
0.0040439358
0.004044564
0.0040443197
0.0040450947
0.0040446807
0.0040448217
0.0040441517
0.0040435275
0.0040412314
0.0040398776
0.0040392987
0.0040380296
0.00070869023
0.0015365214
0.0030957128
0.0054540889
0.0085873365
0.01257062
0.017482973
0.023369198
0.030333721
0.037884198
0.046162856
0.054797011
0.063129167
0.070131117
0.074257431
0.07331167
0.064571743
0.047166041
0.026781648
0.01299383
0.007592199
0.0059908749
0.0053533852
0.0049681843
0.0046853047
0.0044903714
0.0043479295
0.004254486
0.0041900641
0.0041498897
0.0041290241
0.0017312572
0.0035164304
0.0059090409
0.0087681178
0.012257805
0.016489054
0.021518711
0.027617089
0.034376929
0.04187098
0.049980471
0.058277173
0.066060795
0.072252083
0.075258338
0.072861747
0.062438718
0.043815123
0.023613511
0.011513617
0.0071883492
0.005874517
0.0053081691
0.0049416601
0.0046685609
0.0044801945
0.0043419436
0.0042512124
0.0041882512
0.0041488608
0.0041285286
0.003245142
0.0052098415
0.0076293936
0.010655377
0.014412414
0.018981429
0.024452864
0.030737139
0.037680039
0.045283576
0.053322186
0.061342903
0.068615243
0.074020067
0.075928997
0.07212265
0.06012698
0.04060128
0.021154002
0.010544034
0.0068830664
0.0058248428
0.0052878768
0.0049291008
0.0046603841
0.0044749318
0.0043385405
0.0042491555
0.0041869636
0.0041479941
0.0041279572
0.0047590594
0.0069073228
0.0096227083
0.012982904
0.017027008
0.021852872
0.027557091
0.033877345
0.040912943
0.048532008
0.056444169
0.06415791
0.070900771
0.075510509
0.076326477
0.071141809
0.05767359
0.037524147
0.019000485
0.0096229531
0.006722026
0.0057662779
0.0052569129
0.0049087695
0.0046471122
0.0044665219
0.0043334711
0.0042463063
0.0041853407
0.0041470156
0.0041273324
0.0062244886
0.0086748961
0.011687311
0.015304877
0.019605035
0.024695362
0.030464905
0.036933284
0.044054708
0.051650369
0.059398297
0.066773348
0.072962565
0.076763291
0.076487982
0.069953748
0.055115258
0.034564519
0.017090417
0.0090331223
0.0065600462
0.0057251845
0.0052365498
0.0048952665
0.0046383484
0.0044608292
0.004329869
0.0042441509
0.0041840194
0.004146125
0.0041266759
0.0077882083
0.010495225
0.013740322
0.017586933
0.022171187
0.027441774
0.033357154
0.03995103
0.047118593
0.054653042
0.062203853
0.069211908
0.074825575
0.077805445
0.076442668
0.068584746
0.052490275
0.031727912
0.015415529
0.0084311978
0.0064564866
0.0056846259
0.0052121275
0.0048784626
0.004627272
0.0044536156
0.0043254427
0.0042415888
0.0041825276
0.004145174
0.0041260049
0.0093057914
0.012254375
0.015751192
0.019877401
0.024687383
0.030119295
0.036206203
0.042905428
0.050092186
0.057538556
0.064866849
0.071485397
0.076506731
0.07865868
0.07621627
0.067069348
0.0498348
0.029060666
0.013983352
0.0080501455
0.0063629448
0.0056515967
0.0051932392
0.0048653422
0.0046186967
0.004447943
0.0043218767
0.0042394316
0.0041812159
0.004144273
0.0041253257
0.01077764
0.01399368
0.017753784
0.022170229
0.027156099
0.032770731
0.039002956
0.045783184
0.052967068
0.060304108
0.067389974
0.073602201
0.078020343
0.079343154
0.075833994
0.065439751
0.047178949
0.026595836
0.012836336
0.007699622
0.0062965128
0.0056208646
0.0051733158
0.0048510739
0.0046092041
0.0044416173
0.0043179523
0.0042370844
0.0041798268
0.0041433418
0.0041246392
0.012248985
0.015715929
0.01974345
0.024383184
0.029570509
0.035364508
0.041727822
0.048572666
0.055736377
0.062947155
0.069775581
0.075570322
0.0793807
0.079879863
0.075327656
0.063727825
0.044573625
0.024363466
0.01185947
0.0074588619
0.0062382807
0.005594293
0.0051566479
0.0048389824
0.0046011856
0.0044362213
0.0043145622
0.0042349847
0.0041785507
0.0041424408
0.0041239467
0.013671868
0.017394252
0.021693648
0.026527604
0.031926329
0.037891298
0.04437179
0.051266185
0.05839494
0.065466202
0.072026904
0.077398657
0.080603105
0.08029089
0.074729682
0.061975335
0.042045115
0.022379273
0.011104497
0.0072766907
0.0061939994
0.0055701257
0.0051402716
0.0048267641
0.0045929336
0.004430633
0.004311064
0.0042328143
0.0041772479
0.0041415268
0.0041232481
0.015081189
0.01905175
0.023585072
0.028621871
0.034222753
0.040343242
0.046926446
0.053856855
0.060938639
0.067860919
0.074148403
0.079097375
0.081704083
0.080599855
0.074067046
0.060215776
0.039626923
0.02065169
0.010466344
0.0071407708
0.0061553541
0.0055488336
0.0051261075
0.0048160044
0.0045856322
0.0044256633
0.0043079255
0.0042308081
0.0041760207
0.0041406327
0.004122544
0.016450498
0.020670609
0.025410089
0.030660532
0.036448959
0.042709757
0.049383567
0.056338511
0.063364317
0.070132057
0.076145689
0.080677787
0.082701023
0.080834867
0.073368107
0.058482522
0.037355584
0.019181273
0.0099855828
0.0070374561
0.0061247132
0.0055297869
0.0051127839
0.0048056062
0.0045784351
0.0044207444
0.0043048102
0.0042287979
0.0041747937
0.0041397356
0.0041218344
0.017794755
0.022242433
0.027184291
0.032635348
0.03858551
0.044982088
0.05173569
0.058705712
0.065669628
0.072281226
0.078025216
0.082151951
0.083613479
0.081016098
0.072658128
0.05680902
0.035257831
0.017953957
0.0096065095
0.0069596993
0.0060985395
0.0055130781
0.0051011434
0.0047963269
0.0045719291
0.0044162856
0.0043019597
0.0042269096
0.0041736213
0.0041388532
0.00412112
0.019113355
0.023764342
0.028904248
0.034538109
0.040628265
0.047154699
0.053975208
0.060953161
0.067852914
0.07431187
0.079795421
0.083536474
0.08445998
0.081163818
0.071964469
0.055218364
0.033354632
0.016954774
0.0093356301
0.0069023741
0.0060776825
0.0054984673
0.0050905271
0.0047876486
0.0045657036
0.0044120006
0.0042991988
0.0042250554
0.0041724628
0.0041379733
0.004120401
0.020410902
0.025240963
0.030563654
0.036364222
0.042599442
0.049199784
0.056097555
0.063079558
0.069915467
0.076231751
0.081468906
0.084843785
0.085259433
0.081309149
0.071324522
0.053726148
0.031659167
0.016167849
0.0091544313
0.0068608966
0.0060605637
0.0054859672
0.0050812907
0.0047799334
0.0045600504
0.0044080898
0.00429665
0.0042233023
0.004171348
0.0041371063
0.0041196768
0.021670899
0.026670059
0.032156675
0.03810436
0.044464586
0.051160937
0.058079129
0.065079649
0.071858487
0.078037536
0.083047654
0.086083237
0.086032288
0.081478973
0.070771851
0.052362319
0.030181328
0.015581994
0.0090274211
0.0068302825
0.0060474881
0.0054754881
0.0050731129
0.0047729363
0.0045547777
0.0044044068
0.0042942227
0.0042216051
0.0041702562
0.0041362465
0.0041189463
0.022837164
0.028008892
0.033652693
0.039737454
0.046209151
0.052988081
0.059948242
0.066919568
0.073646663
0.079721848
0.084530976
0.087267999
0.08679653
0.081697907
0.070336788
0.051181349
0.028963495
0.015091812
0.0088946848
0.0068056644
0.0060377092
0.0054670394
0.0050661427
0.004766819
0.0045500341
0.0044010435
0.0042919775
0.004219999
0.0041692017
0.0041353982
0.0041182098
0.023880777
0.029192353
0.034976356
0.041189639
0.047773277
0.054637223
0.061653243
0.068635263
0.075308852
0.081262824
0.085917341
0.088407867
0.087568659
0.081988206
0.070045699
0.050226591
0.027987506
0.014683526
0.0087850284
0.0067894168
0.0060312485
0.0054605879
0.0050602334
0.0047614595
0.0045457352
0.0043979234
0.0042898681
0.0042184611
0.004168174
0.0041345586
0.0041174678
0.024987371
0.030356888
0.036212659
0.042507413
0.049170302
0.056104264
0.063172273
0.070178329
0.076835408
0.082721783
0.087232866
0.089488197
0.088361342
0.082369441
0.069921315
0.049530781
0.027236707
0.014341518
0.0086852146
0.0067797297
0.0060277966
0.0054561462
0.0050554641
0.0047569262
0.0045419583
0.004395087
0.0042879253
0.00421701
0.0041671812
0.0041337303
0.0041167207
0.026077509
0.031487697
0.037381053
0.043717532
0.050426297
0.057407121
0.064515563
0.071547062
0.078202876
0.084050271
0.088467818
0.090570412
0.089189847
0.082836136
0.069981519
0.049118005
0.026700788
0.014052976
0.0085976949
0.0067772486
0.0060274504
0.0054537256
0.0050518045
0.0047531705
0.0045386762
0.0043924988
0.0042861279
0.0042156348
0.0041662185
0.0041329118
0.0041159692
0.027138458
0.032556986
0.038457352
0.044805323
0.051532072
0.058540272
0.065677915
0.072737394
0.079407388
0.08524599
0.089615688
0.091619399
0.090063009
0.083453954
0.07023058
0.049005448
0.026379224
0.013800136
0.0085171746
0.006780206
0.0060300826
0.0054534585
0.005049348
0.0047502425
0.0045359365
0.00439018
0.0042844911
0.0042143441
0.0041652891
0.0041321036
0.0041152137
0.028156498
0.033551338
0.039425887
0.045755948
0.052473715
0.059495502
0.066676609
0.073788454
0.080506781
0.08635567
0.090698088
0.09264225
0.090981117
0.084198162
0.070712961
0.049210963
0.026292347
0.013559429
0.0084414037
0.006793335
0.0060363707
0.005454694
0.0050481413
0.004748129
0.0045337244
0.0043881095
0.0042829991
0.0042131279
0.0041643874
0.0041313031
0.0041144548
0.029139976
0.034452414
0.040252355
0.046532584
0.05325103
0.060300432
0.067520975
0.074668852
0.081412764
0.087297165
0.091671149
0.093626305
0.091942098
0.085073951
0.071411799
0.049753955
0.026421274
0.013304136
0.0083652165
0.0068109239
0.006045847
0.0054581529
0.0050481369
0.0047467874
0.0045320154
0.0043862721
0.0042816425
0.0042119812
0.00416351
0.0041305088
0.0041136921
0.030088851
0.035228149
0.040862498
0.047014015
0.053660455
0.060686107
0.067919715
0.075118292
0.08194319
0.087919429
0.092385972
0.094420906
0.092783981
0.085912354
0.072154243
0.050425381
0.026781851
0.012964216
0.0082916994
0.00683291
0.0060557397
0.0054625648
0.0050487749
0.0047460508
0.00453071
0.0043846173
0.004280393
0.0042108919
0.0041626526
0.0041297213
0.0041129258
0.00072545168
0.0014839044
0.0029509612
0.0051809186
0.0081556425
0.011898655
0.016534625
0.022154786
0.02889397
0.036285582
0.044471764
0.053099771
0.061544637
0.06883136
0.07345822
0.073258018
0.065456969
0.048741163
0.028189215
0.013432669
0.0077045359
0.0060195933
0.0053650631
0.0049761755
0.0046910044
0.0044942952
0.0043505112
0.0042560704
0.0041910692
0.0041505643
0.0041293039
0.00076930525
0.0015216487
0.0029649421
0.0051306465
0.0080240182
0.011704711
0.016269557
0.021799651
0.028421084
0.035739289
0.043801109
0.052328091
0.060753751
0.068105303
0.072909497
0.073028495
0.065718734
0.049461829
0.028930136
0.013746929
0.0077757093
0.006035824
0.0053715363
0.0049809389
0.0046947145
0.0044968797
0.0043522176
0.0042571335
0.0041917671
0.004151061
0.0041295728
0.00082350906
0.0015641918
0.002985916
0.0051093156
0.00794499
0.011551127
0.016020416
0.021437872
0.027911621
0.035125523
0.043085087
0.051536702
0.059934764
0.067345312
0.072324539
0.072767142
0.065960819
0.050192501
0.029717409
0.014101139
0.0078565319
0.0060540999
0.0053791347
0.0049862755
0.0046986228
0.0044996611
0.0043541054
0.0042583194
0.0041925381
0.004151573
0.0041299369
0.00088773776
0.0016096889
0.0030050486
0.0050858001
0.0078628506
0.011393828
0.015767868
0.021074423
0.027398555
0.034501689
0.042353675
0.050721848
0.059087719
0.066550899
0.071701847
0.072471347
0.066178354
0.050930076
0.030550117
0.014494296
0.0079475421
0.0060727908
0.0053855809
0.0049911478
0.0047027616
0.0045024626
0.0043559223
0.0042594718
0.004193313
0.004152138
0.0041302992
0.00096567701
0.0016636122
0.0030260764
0.0050620576
0.0077799137
0.011234918
0.015513069
0.020701132
0.026882257
0.033869856
0.041608914
0.049887427
0.058214052
0.065722723
0.07104084
0.072139005
0.066366098
0.051674412
0.031424903
0.014929232
0.0080519048
0.0060970921
0.0053960469
0.0049978626
0.0047073462
0.0045057071
0.0043581271
0.004260858
0.0041942101
0.0041527301
0.0041306423
0.0010609003
0.0017231915
0.003050382
0.0050396888
0.0076974276
0.011075885
0.015257711
0.0203261
0.026365176
0.033233298
0.040854175
0.049036839
0.05731632
0.064862482
0.070341722
0.071768336
0.066520591
0.052421054
0.03232596
0.01540496
0.0081664574
0.0061189856
0.0054029002
0.0050031722
0.0047120848
0.004509022
0.0043603161
0.0042622567
0.004195134
0.0041533592
0.0041309196
0.0011777429
0.0018026167
0.0030813713
0.0050212795
0.0076187828
0.010920915
0.015006705
0.019958504
0.025851426
0.032596856
0.040092777
0.048172389
0.056395418
0.063970438
0.069603621
0.071357396
0.066643546
0.053172422
0.033274755
0.015928944
0.0083009324
0.0061459034
0.0054123294
0.0050095533
0.0047171427
0.0045125
0.0043626274
0.0042637406
0.0041961116
0.0041540239
0.0041312865
0.0013217926
0.0018947272
0.0031239614
0.005010489
0.0075461454
0.010771269
0.014760584
0.01959503
0.025344919
0.03195786
0.039323881
0.047293022
0.055448152
0.063045031
0.068824616
0.070903657
0.066730279
0.05391594
0.034289555
0.016504521
0.0084458715
0.006175659
0.0054225672
0.0050162202
0.0047224997
0.004516165
0.0043650321
0.0042652981
0.0041971449
0.0041547263
0.0041317899
0.0014935027
0.0020060267
0.0031791963
0.0050092194
0.0074824035
0.010630803
0.014524065
0.019241549
0.024851808
0.031324864
0.038554676
0.04640628
0.054489552
0.062092361
0.068007812
0.07040557
0.066775945
0.054645495
0.035352909
0.017135831
0.0086148241
0.0062087027
0.0054333936
0.0050232725
0.0047281135
0.004519986
0.0043675798
0.0042669544
0.0041982337
0.0041554622
0.0041324745
0.0017014096
0.0021506388
0.0032553221
0.0050235331
0.0074322616
0.010503785
0.014301268
0.018900847
0.024360456
0.030699738
0.037789556
0.045516819
0.053522353
0.061115674
0.067154675
0.069862042
0.066776291
0.055361856
0.036459689
0.017827334
0.008801001
0.0062454067
0.0054454475
0.0050305289
0.0047340178
0.0045240009
0.0043702087
0.0042686732
0.0041993808
0.0041562381
0.0041331148
0.0019494749
0.0023288669
0.0033548443
0.0050572338
0.0073999611
0.010394724
0.014096888
0.018578179
0.023892653
0.030087677
0.03703383
0.044629285
0.052540595
0.060117989
0.066267269
0.069272742
0.066727344
0.05605541
0.037610639
0.018585371
0.009013769
0.0062863901
0.0054581103
0.0050384963
0.0047402539
0.0045281684
0.004373023
0.0042705159
0.0042005832
0.0041570491
0.0041337284
0.0022319989
0.0025432239
0.0034906521
0.0051168628
0.0073910689
0.010309269
0.013916854
0.018280831
0.023458701
0.029510469
0.036296524
0.043750072
0.051556285
0.059103727
0.065348389
0.06863808
0.066625812
0.05670905
0.038767923
0.019408454
0.0092516142
0.0063320236
0.0054726576
0.0050462989
0.0047466462
0.0045324943
0.0043758859
0.0042723816
0.0042018427
0.0041579049
0.0041343596
0.0025463047
0.0028006585
0.0036659524
0.005214319
0.0074157379
0.010255903
0.013768968
0.018016133
0.023056356
0.028940572
0.035579633
0.042885402
0.050575486
0.058077232
0.064401498
0.067959242
0.066469397
0.057317383
0.039920784
0.0203016
0.0095208181
0.0063834862
0.0054877758
0.0050555489
0.004753616
0.0045369792
0.0043789967
0.0042744115
0.0042031537
0.0041587952
0.0041350494
0.0028812579
0.0030942092
0.0038819406
0.0053522063
0.0074799919
0.010242257
0.013661378
0.01779241
0.022692902
0.028403302
0.034892364
0.042043029
0.049604681
0.057036783
0.063430557
0.067238278
0.066256677
0.057873835
0.041081324
0.021266428
0.0098238193
0.0064406665
0.0055056976
0.0050638369
0.0047603542
0.0045415287
0.0043820975
0.004276383
0.0042045175
0.0041597332
0.0041357885
0.0032297102
0.0034317107
0.0041656665
0.0055621955
0.0076107623
0.010288782
0.013610715
0.017621196
0.022380472
0.027929053
0.034262346
0.041234984
0.04865433
0.056018584
0.062443737
0.066478489
0.065987069
0.058371774
0.042240341
0.022307242
0.010165254
0.0065062609
0.0055242172
0.0050746846
0.0047682266
0.0045462702
0.0043855162
0.0042785812
0.0042059282
0.0041607027
0.0041365643
0.0035768469
0.0037908369
0.0044930344
0.0058253924
0.0078035702
0.01040092
0.013626202
0.017514883
0.022127194
0.027510116
0.033650507
0.040462479
0.047731701
0.055008764
0.061446889
0.065684128
0.065661001
0.058804915
0.043393195
0.023409716
0.010550955
0.0065799136
0.0055465174
0.0050838544
0.0047751853
0.0045509687
0.0043888465
0.0042805946
0.0042073841
0.0041617199
0.0041373683
0.0039340292
0.0041923872
0.0048942892
0.006186416
0.0080922158
0.010603827
0.013726926
0.017489527
0.021946377
0.027157984
0.033104006
0.039742739
0.046845928
0.054009786
0.060446087
0.064860441
0.065280556
0.059168619
0.044536096
0.024611575
0.010982568
0.0066674226
0.0055698661
0.0050959105
0.0047839495
0.0045558542
0.0043925081
0.004282913
0.0042088857
0.0041627638
0.0041381981
0.0043286634
0.004656389
0.0053907129
0.0066600582
0.0084997159
0.010920344
0.013932481
0.01756154
0.021852801
0.026887905
0.032645986
0.03909525
0.04600915
0.053039641
0.059449589
0.064013752
0.064849853
0.059464964
0.045667857
0.02589135
0.011475936
0.0067686932
0.0055975223
0.0051078484
0.0047913012
0.0045607704
0.004396038
0.0042848976
0.004210412
0.0041638499
0.0041390502
0.0048121284
0.005218556
0.0059947909
0.0072494189
0.0090308112
0.011359523
0.01425377
0.017741693
0.021858086
0.026708591
0.032264569
0.038486
0.045222011
0.052105699
0.058465546
0.063150689
0.064371828
0.059698033
0.046781449
0.02719359
0.012012781
0.0068843281
0.0056279199
0.0051193592
0.0048001676
0.0045655594
0.0043997085
0.004287254
0.0042119971
0.00416495
0.0041399207
0.0054607595
0.0059402643
0.0067522982
0.0079898248
0.0097198471
0.011938551
0.01470154
0.018037272
0.021970269
0.026626622
0.03197034
0.037968068
0.044496807
0.051214659
0.057492511
0.062276402
0.063848849
0.05985759
0.047841341
0.028560016
0.012633004
0.0070184195
0.0056617395
0.0051372958
0.0048087396
0.004570958
0.0044034009
0.004289161
0.0042135442
0.0041660848
0.0041408085
0.0063329586
0.0068527987
0.0076746
0.0088794707
0.010521096
0.012636767
0.015266173
0.018443192
0.022189018
0.0266429
0.031766886
0.037538444