/*--------------------------------*- C++ -*----------------------------------*\
| =========                 |                                                 |
| \\      /  F ield         | OpenFOAM: The Open Source CFD Toolbox           |
|  \\    /   O peration     | Version:  2406                                  |
|   \\  /    A nd           | Website:  www.openfoam.com                      |
|    \\/     M anipulation  |                                                 |
\*---------------------------------------------------------------------------*/
FoamFile
{
    version     2.0;
    format      ascii;
    arch        "LSB;label=32;scalar=64";
    class       volScalarField;
    location    "0.052";
    object      rho;
}
// * * * * * * * * * * * * * * * * * * * * * * * * * * * * * * * * * * * * * //

dimensions      [1 -3 0 0 0 0 0];

internalField   nonuniform List<scalar> 
8260
(
1.2000139
1.1990803
1.1985354
1.1978547
1.1972151
1.1967321
1.1964403
1.1963414
1.1964271
1.1966802
1.1971097
1.1976922
1.1983972
1.1991816
1.1999888
1.2008019
1.2011771
1.2012456
1.2013448
1.2015066
1.2016655
1.2017991
1.2019195
1.2020233
1.202113
1.2021892
1.2022539
1.2023063
1.2023502
1.2023769
1.202396
1.2015932
1.2007982
1.2000124
1.1991544
1.1983934
1.1977997
1.1973925
1.1971835
1.1971558
1.1973028
1.1976325
1.1981279
1.1987527
1.1994759
1.2001917
1.2009245
1.2012275
1.2012955
1.2013943
1.2015491
1.2016997
1.2018263
1.2019413
1.2020408
1.2021272
1.2022008
1.2022635
1.2023143
1.202357
1.202383
1.2024015
1.2025503
1.2018443
1.2010034
1.2000926
1.1992841
1.1986318
1.198153
1.1978689
1.1977675
1.1978215
1.1980748
1.1985016
1.1990671
1.1997516
1.2004044
1.2010779
1.2012962
1.2013625
1.2014561
1.2015998
1.2017402
1.2018583
1.2019669
1.2020613
1.2021437
1.2022141
1.2022744
1.2023234
1.2023648
1.2023899
1.2024078
1.2032781
1.2026346
1.2018193
1.2009121
1.200086
1.1993969
1.1988639
1.1985091
1.1983346
1.1983247
1.1985108
1.1988748
1.1993876
1.2000366
1.2006357
1.2012428
1.2013821
1.2014399
1.2015271
1.2016573
1.2017861
1.2018946
1.2019958
1.2020845
1.2021623
1.2022292
1.2022869
1.2023338
1.2023737
1.2023977
1.202415
1.203868
1.2032857
1.2025281
1.2016609
1.2008477
1.2001476
1.1995822
1.1991742
1.1989367
1.1988699
1.1989919
1.1992934
1.1997529
1.200358
1.2008985
1.2014136
1.2014867
1.2015292
1.2016085
1.2017228
1.2018382
1.2019361
1.2020288
1.2021109
1.2021836
1.2022465
1.2023011
1.2023456
1.2023838
1.2024066
1.2024231
1.2043106
1.2037828
1.2031017
1.2023072
1.2015408
1.2008606
1.2002904
1.1998544
1.1995727
1.1994568
1.199521
1.1997628
1.2001704
1.2007226
1.2011953
1.2015888
1.2016115
1.2016327
1.2017014
1.2017972
1.2018974
1.2019832
1.2020663
1.202141
1.2022078
1.2022661
1.2023172
1.2023591
1.2023953
1.2024167
1.2024323
1.2046083
1.2041334
1.2035325
1.2028356
1.2021463
1.2015155
1.2009685
1.2005309
1.2002271
1.2000756
1.2000924
1.2002816
1.2006418
1.2011313
1.2015218
1.201771
1.2017541
1.2017536
1.201807
1.2018816
1.2019645
1.2020367
1.2021089
1.2021754
1.2022354
1.2022885
1.2023356
1.2023745
1.2024083
1.2024283
1.2024428
1.204783
1.2043659
1.2038583
1.2032681
1.2026713
1.2021108
1.2016107
1.2011959
1.2008921
1.2007221
1.2007047
1.2008511
1.2011708
1.2015808
1.2018682
1.2019701
1.201912
1.2018943
1.2019264
1.2019773
1.2020403
1.2020971
1.2021572
1.2022145
1.2022667
1.2023139
1.2023564
1.2023919
1.2024231
1.2024414
1.2024547
1.2048937
1.2045206
1.2041023
1.2036232
1.2031303
1.2026561
1.2022219
1.2018505
1.2015669
1.2013954
1.2013577
1.2014729
1.2017574
1.2020603
1.2022251
1.2021911
1.2020883
1.202056
1.2020609
1.2020855
1.2021257
1.2021654
1.2022118
1.2022589
1.2023024
1.2023428
1.2023801
1.2024118
1.20244
1.2024564
1.2024682
1.2049678
1.2046669
1.2043168
1.2039393
1.2035556
1.203177
1.2028201
1.2025058
1.2022575
1.2020989
1.202054
1.2021472
1.2023877
1.2025685
1.2025811
1.202423
1.2022899
1.2022379
1.2022109
1.2022073
1.202222
1.2022427
1.2022736
1.2023091
1.202343
1.2023757
1.2024072
1.2024345
1.2024592
1.2024735
1.2024835
1.2050149
1.2048676
1.2046317
1.2043469
1.2040382
1.2037323
1.2034433
1.2031861
1.2029789
1.2028433
1.2028042
1.2028807
1.2030509
1.2030817
1.2029037
1.2026659
1.2025224
1.202437
1.2023757
1.2023426
1.2023304
1.2023305
1.2023437
1.2023656
1.202389
1.2024133
1.2024381
1.2024603
1.2024811
1.202493
1.2025009
1.2052028
1.2051265
1.2049912
1.2047852
1.2045563
1.2043292
1.2041131
1.2039176
1.2037573
1.2036532
1.2036286
1.2036725
1.2036883
1.2035117
1.2031898
1.2029395
1.2027764
1.2026479
1.2025533
1.2024901
1.2024518
1.2024297
1.2024232
1.2024293
1.202441
1.2024562
1.2024735
1.2024898
1.202506
1.2025152
1.2025209
1.205621
1.205694
1.2056433
1.2054712
1.2052766
1.2050935
1.2049262
1.2047751
1.2046446
1.2045447
1.2044726
1.2043782
1.2041541
1.2038011
1.2034825
1.2032391
1.203036
1.202872
1.2027422
1.2026483
1.2025837
1.2025399
1.2025131
1.2025014
1.2024997
1.2025046
1.2025137
1.2025234
1.2025342
1.2025404
1.2025439
1.2064665
1.206365
1.2062232
1.2060481
1.2058837
1.2057591
1.2056608
1.2055551
1.2054223
1.2052555
1.2050378
1.20475
1.2044048
1.2040728
1.2037849
1.2035274
1.2033015
1.2031048
1.2029418
1.2028157
1.202725
1.2026593
1.2026125
1.2025826
1.2025658
1.2025587
1.2025591
1.2025613
1.202566
1.2025688
1.2025704
1.2067634
1.2068253
1.2068603
1.2068675
1.2067869
1.2065955
1.2063699
1.2061391
1.2058817
1.2055924
1.2052786
1.2049525
1.2046403
1.2043399
1.2040547
1.2037927
1.2035539
1.2033406
1.2031518
1.2029942
1.2028735
1.2027859
1.2027201
1.2026725
1.2026397
1.202619
1.2026096
1.202604
1.2026018
1.2026006
1.2026008
1.2067605
1.2066878
1.2065746
1.206433
1.2063277
1.2062748
1.2062325
1.206186
1.2060572
1.2058147
1.2055127
1.2051946
1.2048835
1.204578
1.2042889
1.204023
1.2037823
1.2035637
1.2033634
1.2031817
1.2030323
1.202919
1.2028339
1.2027697
1.2027213
1.2026861
1.2026652
1.2026513
1.2026419
1.202636
1.2026353
1.2067513
1.2066946
1.2066198
1.2065301
1.2064336
1.2063221
1.2061674
1.2059622
1.2057873
1.2056944
1.2055773
1.2053685
1.2050895
1.2047896
1.2045076
1.2042345
1.2039837
1.2037605
1.2035597
1.2033714
1.2032006
1.2030611
1.2029536
1.2028725
1.2028097
1.20276
1.2027264
1.2027033
1.2026865
1.2026753
1.2026741
1.2064672
1.2064182
1.2063583
1.2062913
1.2062163
1.2061314
1.2060374
1.205933
1.2058088
1.2056435
1.2054746
1.2053654
1.2052085
1.2049575
1.2046895
1.2044333
1.2041752
1.2039366
1.2037314
1.2035458
1.2033707
1.2032128
1.2030809
1.2029798
1.2029033
1.2028409
1.2027935
1.2027601
1.2027358
1.2027191
1.2027172
1.2062786
1.2062414
1.2061949
1.2061415
1.2060798
1.2060073
1.2059218
1.2058226
1.2057129
1.2056
1.205471
1.2052871
1.2051219
1.2049986
1.2048029
1.2045862
1.2043398
1.2041023
1.2038873
1.2036979
1.2035251
1.2033646
1.2032156
1.2030931
1.2030012
1.202927
1.2028671
1.2028222
1.2027899
1.2027679
1.2027645
1.205999
1.2059674
1.2059286
1.2058851
1.2058363
1.2057812
1.2057192
1.2056495
1.2055692
1.2054733
1.2053629
1.2052515
1.2051196
1.2049718
1.2048485
1.20469
1.2044686
1.2042378
1.2040265
1.2038318
1.2036558
1.2035002
1.2033489
1.2032126
1.2031034
1.2030171
1.2029464
1.2028899
1.202849
1.2028218
1.2028161
1.2057941
1.2057709
1.2057421
1.2057094
1.2056721
1.205629
1.2055787
1.2055199
1.205452
1.2053748
1.2052863
1.2051802
1.2050611
1.2049516
1.2048115
1.2046464
1.2045279
1.2043454
1.2041423
1.2039504
1.2037715
1.2036153
1.2034692
1.2033316
1.2032101
1.2031098
1.2030299
1.2029633
1.2029136
1.202881
1.2028717
1.205532
1.2055122
1.2054879
1.2054608
1.2054303
1.2053958
1.2053567
1.2053125
1.2052624
1.205205
1.20514
1.2050684
1.2049856
1.2048753
1.2047685
1.2046633
1.2045397
1.2044342
1.2042562
1.204059
1.2038797
1.2037205
1.2035726
1.2034406
1.2033177
1.203205
1.2031157
1.2030415
1.2029835
1.2029455
1.2029315
1.2053401
1.2053263
1.2053093
1.2052901
1.2052682
1.2052428
1.2052131
1.2051783
1.2051374
1.2050895
1.2050336
1.2049679
1.204894
1.204817
1.2047223
1.204626
1.2045271
1.2044141
1.2043223
1.2041591
1.2039767
1.2038163
1.2036673
1.203535
1.2034178
1.2033016
1.2032028
1.2031232
1.2030583
1.2030149
1.2029957
1.2051063
1.2050946
1.2050804
1.2050647
1.2050472
1.2050273
1.2050048
1.2049795
1.204951
1.2049187
1.2048824
1.2048413
1.2047932
1.2047358
1.2046708
1.204585
1.2044899
1.204388
1.2042759
1.2042018
1.204054
1.2038951
1.2037531
1.20362
1.2035069
1.2033958
1.2032914
1.2032063
1.2031368
1.2030886
1.2030645
1.204935
1.2049274
1.204918
1.2049074
1.2048953
1.2048811
1.2048645
1.2048449
1.2048218
1.2047947
1.2047627
1.2047249
1.204681
1.2046299
1.2045709
1.2045084
1.2044329
1.2043516
1.2042683
1.2041682
1.204098
1.2039659
1.2038306
1.2037016
1.2035882
1.2034828
1.2033788
1.2032903
1.2032178
1.2031658
1.2031375
1.204728
1.2047213
1.2047133
1.2047045
1.2046945
1.2046832
1.2046702
1.2046554
1.2046384
1.2046189
1.2045965
1.204571
1.2045422
1.2045108
1.204477
1.2044356
1.2043853
1.2043167
1.2042418
1.2041764
1.2040908
1.2040162
1.2039045
1.2037815
1.2036623
1.2035614
1.2034625
1.2033735
1.2032997
1.2032451
1.2032139
1.2045984
1.2045939
1.2045886
1.2045826
1.2045759
1.2045682
1.2045592
1.2045489
1.2045369
1.204523
1.2045067
1.2044874
1.2044644
1.2044354
1.2043991
1.2043587
1.2043172
1.2042765
1.2042182
1.2041404
1.2040801
1.2040142
1.2039492
1.2038484
1.2037306
1.2036331
1.2035411
1.2034544
1.2033811
1.2033255
1.2032924
1.2044501
1.2044467
1.2044427
1.2044383
1.2044334
1.2044278
1.2044213
1.2044139
1.2044052
1.2043952
1.2043836
1.2043702
1.2043551
1.2043385
1.2043191
1.204295
1.2042641
1.2042266
1.2041886
1.2041431
1.2040838
1.2040095
1.2039348
1.2038813
1.2037947
1.2036984
1.2036129
1.2035318
1.2034608
1.2034049
1.2033709
1.2043695
1.2043672
1.2043645
1.2043614
1.204358
1.2043539
1.2043492
1.2043436
1.2043372
1.2043296
1.2043206
1.2043096
1.2042959
1.2042786
1.2042585
1.2042357
1.2042096
1.2041783
1.2041419
1.204103
1.2040532
1.2040133
1.2039622
1.2038879
1.2038307
1.203754
1.2036751
1.2036012
1.203534
1.2034798
1.2034465
1.2042735
1.2042709
1.2042679
1.2042645
1.2042607
1.2042564
1.2042515
1.2042458
1.2042394
1.2042321
1.2042238
1.2042145
1.2042041
1.2041922
1.2041786
1.2041624
1.2041439
1.2041232
1.204099
1.2040694
1.2040385
1.2039931
1.2039449
1.2039029
1.2038449
1.2037895
1.203725
1.2036598
1.2035989
1.2035486
1.2035179
1.2041546
1.2041538
1.2041528
1.2041518
1.2041505
1.2041491
1.2041474
1.2041455
1.2041431
1.2041403
1.2041369
1.2041326
1.2041275
1.2041216
1.2041141
1.2041051
1.2040936
1.204079
1.2040614
1.2040406
1.2040157
1.2039875
1.2039531
1.2039086
1.203858
1.203805
1.2037489
1.2036908
1.2036354
1.2035888
1.2035599
1.1885745
1.1889302
1.1893445
1.189711
1.1899998
1.1902731
1.1906206
1.1910663
1.1915859
1.1922241
1.1929704
1.1938103
1.194732
1.195712
1.1967279
1.1978315
1.1988089
1.1997999
1.2002749
1.2005436
1.2007847
1.2010429
1.2012908
1.2015035
1.2016817
1.2018287
1.2019483
1.202043
1.2021175
1.2021657
1.2021982
1.1894428
1.1897318
1.1898805
1.1900223
1.1901897
1.19043
1.1907895
1.1912697
1.1918494
1.1925291
1.193298
1.194146
1.1950628
1.1960217
1.1970099
1.1980663
1.1990207
1.1999073
1.2002859
1.2005681
1.2008138
1.2010739
1.2013177
1.2015255
1.2016997
1.2018434
1.2019606
1.2020535
1.2021266
1.202174
1.202206
1.1892863
1.1893924
1.1894735
1.1896454
1.189911
1.1902653
1.1907243
1.1912956
1.1919419
1.1926732
1.1934808
1.1943542
1.1952834
1.1962398
1.1972247
1.1982469
1.1992083
1.2000029
1.2003232
1.2006032
1.2008501
1.2011087
1.2013466
1.2015489
1.2017187
1.2018589
1.2019734
1.2020644
1.2021361
1.2021826
1.2022138
1.1888726
1.1889983
1.1891458
1.1893903
1.1897253
1.1901506
1.1906785
1.1913066
1.1920072
1.1927838
1.1936256
1.1945221
1.1954638
1.1964221
1.1974176
1.1984082
1.1993704
1.2000925
1.2003727
1.200639
1.2008867
1.2011429
1.2013751
1.2015721
1.2017375
1.2018744
1.2019863
1.2020753
1.2021457
1.2021912
1.2022217
1.188267
1.1884629
1.1886969
1.1890386
1.1894761
1.1900024
1.1906188
1.1913161
1.1920768
1.1928992
1.1937733
1.1946904
1.1956422
1.1966022
1.1976103
1.1985785
1.1995163
1.2001713
1.2004206
1.2006755
1.2009248
1.2011775
1.2014037
1.2015954
1.2017566
1.20189
1.2019993
1.2020864
1.2021553
1.2021998
1.2022298
1.1875319
1.1878276
1.188188
1.188662
1.1892239
1.1898601
1.1905673
1.1913363
1.1921558
1.1930217
1.1939255
1.1948612
1.1958209
1.1967814
1.1978002
1.198754
1.1996395
1.2002353
1.2004654
1.2007127
1.2009636
1.201212
1.2014322
1.2016186
1.2017756
1.2019056
1.2020124
1.2020975
1.202165
1.2022086
1.2022379
1.1866443
1.1871138
1.1876514
1.188283
1.1889795
1.1897282
1.1905261
1.1913667
1.1922421
1.193148
1.1940788
1.1950307
1.1959959
1.1969554
1.1979779
1.1989175
1.1997594
1.2002923
1.2005081
1.2007512
1.2010032
1.2012464
1.2014605
1.2016419
1.2017947
1.2019214
1.2020255
1.2021087
1.2021748
1.2022173
1.2022461
1.185766
1.1864317
1.1871499
1.1879354
1.1887623
1.1896186
1.190503
1.1914109
1.192337
1.1932786
1.1942328
1.1951982
1.1961664
1.1971256
1.1981421
1.1990693
1.1998879
1.2003456
1.2005499
1.2007912
1.2010431
1.2012806
1.2014888
1.2016651
1.2018137
1.2019371
1.2020388
1.20212
1.2021846
1.2022262
1.2022544
1.1849701
1.1858239
1.1867055
1.1876362
1.188586
1.1895408
1.1905039
1.191472
1.1924422
1.1934142
1.1943878
1.1953638
1.1963334
1.1973029
1.1983052
1.1992094
1.2000065
1.2003989
1.2005919
1.2008326
1.2010832
1.2013146
1.2015169
1.2016881
1.2018328
1.2019529
1.202052
1.2021313
1.2021945
1.2022351
1.2022627
1.1843058
1.1853322
1.1863466
1.18741
1.1884685
1.1895045
1.1905343
1.1915527
1.1925591
1.1935553
1.1945438
1.1955274
1.196499
1.1974825
1.1984628
1.1993431
1.20011
1.2004529
1.200635
1.2008752
1.2011233
1.2013483
1.2015448
1.2017111
1.2018517
1.2019687
1.2020653
1.2021426
1.2022045
1.202244
1.202271
1.1837973
1.1849581
1.1861155
1.187283
1.1884214
1.1895164
1.1905997
1.1916555
1.1926885
1.193702
1.194701
1.195691
1.1966702
1.1976605
1.1986058
1.1994709
1.2002013
1.2005074
1.2006794
1.2009187
1.2011633
1.2013817
1.2015725
1.201734
1.2018707
1.2019844
1.2020786
1.202154
1.2022145
1.202253
1.2022794
1.1835262
1.1847858
1.1860284
1.1872502
1.1884361
1.1895874
1.1907067
1.191784
1.1928323
1.1938558
1.1948618
1.1958585
1.1968465
1.19781
1.1987299
1.1995951
1.2002849
1.2005612
1.2007249
1.2009628
1.201203
1.2014149
1.2016
1.2017567
1.2018895
1.2020001
1.2020919
1.2021654
1.2022245
1.202262
1.2022878
1.1835298
1.184828
1.1860962
1.1873367
1.1885434
1.1897132
1.1908502
1.1919459
1.1929981
1.1940248
1.1950332
1.1960321
1.1969925
1.1979272
1.1988577
1.1997085
1.2003637
1.200614
1.2007714
1.2010073
1.2012423
1.2014476
1.2016272
1.2017792
1.2019082
1.2020158
1.2021052
1.2021768
1.2022345
1.202271
1.2022962
1.1837938
1.1850861
1.1863297
1.1875488
1.1887434
1.1899068
1.1910444
1.1921461
1.1932
1.1942197
1.1952138
1.1961743
1.1971151
1.1980512
1.1989771
1.1998085
1.2004413
1.2006662
1.2008191
1.2010519
1.2012812
1.20148
1.2016541
1.2018016
1.2019268
1.2020314
1.2021184
1.2021882
1.2022446
1.2022801
1.2023046
1.1841983
1.1854957
1.1867066
1.1878847
1.1890444
1.190183
1.1913027
1.1923761
1.193408
1.1943939
1.1953376
1.1962862
1.1972512
1.1981736
1.1990863
1.1999116
1.2005186
1.200719
1.2008676
1.2010964
1.2013197
1.201512
1.2016807
1.2018236
1.2019452
1.2020469
1.2021316
1.2021995
1.2022546
1.2022891
1.2023131
1.1845893
1.1858897
1.1871006
1.1882636
1.1893912
1.1904876
1.1915627
1.192566
1.193528
1.1945012
1.1954801
1.1964359
1.1973887
1.198291
1.1991909
1.2000163
1.2005938
1.200773
1.2009166
1.2011406
1.2013576
1.2015435
1.2017069
1.2018454
1.2019634
1.2020622
1.2021446
1.2022108
1.2022646
1.2022982
1.2023216
1.1855781
1.1866127
1.1876241
1.1886601
1.1897058
1.1907314
1.1917128
1.1927059
1.1937211
1.1946895
1.1956473
1.1965896
1.1975232
1.1984036
1.1992914
1.2001155
1.2006661
1.2008278
1.2009653
1.2011841
1.2013948
1.2015744
1.2017327
1.2018669
1.2019814
1.2020774
1.2021576
1.2022221
1.2022746
1.2023073
1.2023301
1.1873122
1.1880592
1.1887579
1.1895211
1.1903548
1.1912256
1.1921026
1.1930268
1.1939792
1.1949015
1.1958216
1.1967405
1.1976543
1.1985122
1.1993875
1.2002103
1.2007349
1.2008829
1.2010138
1.201227
1.2014313
1.2016049
1.2017581
1.2018881
1.2019992
1.2020924
1.2021704
1.2022332
1.2022846
1.2023163
1.2023386
1.188867
1.1894665
1.1899672
1.1905193
1.1911534
1.1918505
1.1925892
1.193403
1.1942675
1.1951254
1.1959993
1.1968895
1.1977818
1.1986176
1.199479
1.2003017
1.2008013
1.2009381
1.2010622
1.2012692
1.2014672
1.2016347
1.201783
1.2019089
1.2020166
1.2021072
1.2021831
1.2022443
1.2022944
1.2023254
1.2023471
1.1905815
1.1909688
1.1912416
1.1915774
1.1920106
1.1925243
1.1931154
1.1938119
1.1945747
1.1953609
1.1961805
1.197036
1.1979045
1.1987197
1.1995662
1.2003893
1.2008657
1.2009931
1.2011103
1.2013105
1.2015022
1.2016638
1.2018072
1.2019292
1.2020337
1.2021217
1.2021957
1.2022552
1.2023042
1.2023344
1.2023557
1.1924769
1.1926145
1.1926284
1.1927206
1.1929295
1.1932407
1.1936902
1.1942528
1.1948979
1.1956078
1.1963652
1.1971791
1.198021
1.1988183
1.1996488
1.2004702
1.2009275
1.2010463
1.2011572
1.2013504
1.2015358
1.2016918
1.2018306
1.2019488
1.2020504
1.2021359
1.202208
1.202266
1.202314
1.2023434
1.2023642
1.1945561
1.1944047
1.1941418
1.1939672
1.1939248
1.1940463
1.1943367
1.1947305
1.1952554
1.1958794
1.1965648
1.1973274
1.1981372
1.1989166
1.1997277
1.2005416
1.2009842
1.2010943
1.2012019
1.2013884
1.2015679
1.2017188
1.2018532
1.201968
1.2020666
1.2021499
1.2022201
1.2022768
1.2023237
1.2023524
1.2023728
1.1969051
1.1964734
1.1959568
1.1954937
1.1951909
1.1950789
1.1951367
1.1953496
1.1957167
1.1962257
1.1968194
1.1975129
1.1982759
1.1990289
1.1998107
1.2006051
1.201032
1.2011348
1.2012449
1.2014255
1.2015994
1.2017452
1.2018755
1.2019869
1.2020828
1.2021638
1.2022322
1.2022875
1.2023334
1.2023615
1.2023813
1.1993007
1.1987707
1.1981994
1.1975288
1.1969209
1.1964838
1.1962471
1.1962151
1.1963758
1.1966993
1.1971646
1.1977622
1.1984571
1.199173
1.1999139
1.2006796
1.2010814
1.2011792
1.2012922
1.2014655
1.2016328
1.201773
1.2018985
1.2020063
1.2020991
1.2021777
1.2022443
1.2022981
1.2023429
1.2023703
1.2023898
1.1890328
1.1893971
1.1897967
1.1901615
1.1904785
1.1907734
1.1910984
1.1914994
1.1919629
1.1925395
1.1932236
1.1940044
1.1948697
1.1957988
1.1967589
1.1977981
1.19872
1.1996573
1.2002145
1.2004954
1.2007467
1.20101
1.2012635
1.2014814
1.2016638
1.2018141
1.2019362
1.2020329
1.2021087
1.202158
1.2021913
1.1892332
1.1896299
1.1900178
1.1903539
1.1906551
1.1909444
1.1912576
1.1916057
1.1920375
1.1925818
1.1932353
1.1939902
1.1948349
1.1957511
1.1967062
1.1977394
1.1986884
1.1996006
1.200203
1.2004793
1.2007272
1.2009907
1.2012467
1.2014672
1.201652
1.2018043
1.201928
1.2020259
1.2021026
1.2021525
1.2021844
1.1892772
1.1896592
1.1900623
1.1904259
1.1907426
1.191042
1.1913572
1.1917007
1.1921234
1.192647
1.1932762
1.1940071
1.1948302
1.1957296
1.1966757
1.1976953
1.1986612
1.199569
1.2001885
1.20047
1.2007139
1.2009759
1.2012329
1.2014551
1.2016415
1.2017953
1.2019202
1.2020191
1.2020965
1.2021469
1.2021777
1.189327
1.1896832
1.1901
1.1904895
1.190832
1.1911479
1.1914704
1.1918211
1.1922379
1.1927427
1.1933474
1.1940523
1.1948504
1.1957283
1.1966596
1.1976572
1.1986263
1.1995365
1.200167
1.2004575
1.2006994
1.2009602
1.2012184
1.2014423
1.2016304
1.2017856
1.2019118
1.2020118
1.2020899
1.202141
1.2021688
1.1894059
1.1897367
1.1901671
1.1905692
1.190927
1.1912567
1.1915872
1.1919435
1.192355
1.1928438
1.193426
1.1941058
1.1948788
1.1957339
1.1966478
1.1976192
1.1985866
1.1994976
1.2001405
1.2004423
1.2006827
1.2009427
1.2012022
1.2014281
1.2016181
1.2017751
1.2019027
1.2020038
1.2020827
1.2021345
1.2021612
1.1894992
1.1898036
1.1902336
1.1906452
1.1910143
1.1913557
1.1916949
1.1920559
1.1924637
1.1929403
1.1935035
1.1941604
1.1949096
1.1957419
1.1966375
1.1975809
1.1985435
1.1994577
1.2001108
1.2004259
1.200665
1.2009237
1.2011847
1.2014128
1.2016048
1.2017637
1.2018928
1.2019952
1.202075
1.2021276
1.2021541
1.189593
1.1898698
1.1902905
1.1907087
1.1910892
1.1914426
1.1917912
1.1921576
1.1925643
1.1930321
1.1935796
1.1942161
1.1949429
1.1957527
1.1966291
1.1975445
1.1985027
1.1994189
1.2000829
1.2004084
1.2006474
1.2009042
1.2011665
1.2013967
1.2015908
1.2017516
1.2018823
1.201986
1.2020669
1.2021202
1.2021488
1.189687
1.1899359
1.1903406
1.1907617
1.1911529
1.1915184
1.1918772
1.1922503
1.192658
1.1931201
1.1936549
1.1942736
1.1949793
1.1957673
1.1966237
1.1975153
1.1984673
1.1993768
1.200059
1.2003913
1.2006302
1.2008845
1.2011477
1.2013799
1.2015761
1.2017388
1.2018713
1.2019764
1.2020582
1.2021124
1.2021395
1.1897793
1.1900052
1.1903902
1.1908097
1.191209
1.1915856
1.1919548
1.1923354
1.192746
1.1932049
1.1937299
1.1943331
1.1950195
1.1957861
1.1966224
1.1974959
1.1984298
1.1993271
1.2000349
1.2003754
1.2006135
1.2008646
1.2011285
1.2013625
1.2015608
1.2017254
1.2018596
1.2019661
1.202049
1.202104
1.2021287
1.1898662
1.1900753
1.190439
1.1908534
1.1912585
1.1916452
1.1920248
1.1924137
1.1928287
1.1932868
1.1938047
1.1943948
1.1950634
1.1958097
1.1966255
1.1974825
1.1983899
1.1992781
1.2000078
1.2003604
1.2005973
1.2008446
1.2011088
1.2013445
1.2015447
1.2017114
1.2018473
1.2019553
1.2020392
1.2020952
1.2021192
1.189951
1.1901456
1.1904865
1.1908927
1.1913017
1.191698
1.1920882
1.1924862
1.1929073
1.1933667
1.1938799
1.1944591
1.1951118
1.1958386
1.1966337
1.1974737
1.19836
1.1992347
1.1999745
1.2003462
1.200582
1.2008247
1.2010887
1.2013258
1.2015279
1.2016966
1.2018343
1.2019438
1.2020288
1.2020857
1.2021102
1.1900234
1.1902129
1.1905332
1.1909294
1.1913407
1.1917457
1.1921468
1.1925549
1.1929835
1.1934461
1.1939566
1.194527
1.1951652
1.1958734
1.1966478
1.1974697
1.1983366
1.1991958
1.1999405
1.2003334
1.2005678
1.2008049
1.2010683
1.2013066
1.2015104
1.201681
1.2018205
1.2019316
1.2020178
1.2020757
1.2021011
1.1900871
1.1902699
1.1905645
1.190955
1.191372
1.1917881
1.1922019
1.1926219
1.1930595
1.1935269
1.1940365
1.1945998
1.1952249
1.1959151
1.1966687
1.1974711
1.1983175
1.1991543
1.1999039
1.2003242
1.2005551
1.2007856
1.2010478
1.2012869
1.2014923
1.2016648
1.2018061
1.2019188
1.2020061
1.2020651
1.2020916
1.1901285
1.1903146
1.1906053
1.1909891
1.1914075
1.1918329
1.1922592
1.1926914
1.1931389
1.193612
1.194122
1.1946793
1.1952921
1.1959648
1.1966972
1.1974788
1.1983029
1.1991168
1.1998638
1.2003157
1.200544
1.2007671
1.2010273
1.2012668
1.2014736
1.2016478
1.201791
1.2019053
1.2019938
1.2020538
1.2020813
1.1901783
1.1903781
1.1906594
1.1910162
1.1914399
1.19188
1.1923217
1.1927678
1.1932261
1.1937056
1.1942162
1.1947679
1.1953686
1.1960237
1.1967344
1.1974939
1.1982937
1.1990861
1.1998258
1.2003063
1.2005347
1.2007498
1.2010071
1.2012465
1.2014543
1.2016302
1.2017752
1.2018911
1.2019808
1.2020419
1.20207
1.1902222
1.1904217
1.1907146
1.1910888
1.1915115
1.1919542
1.1924048
1.1928616
1.1933287
1.1938133
1.1943237
1.1948688
1.1954569
1.1960937
1.1967817
1.1975171
1.1982906
1.1990616
1.1997899
1.2002975
1.2005269
1.200734
1.2009875
1.2012261
1.2014345
1.2016119
1.2017587
1.2018762
1.2019671
1.2020292
1.202058
1.1903008
1.1905051
1.1908086
1.1911915
1.1916122
1.1920585
1.1925167
1.1929815
1.1934546
1.1939415
1.1944493
1.1949861
1.1955598
1.1961767
1.1968404
1.1975494
1.1982931
1.199039
1.1997595
1.2002907
1.2005214
1.2007201
1.2009687
1.2012058
1.2014145
1.201593
1.2017415
1.2018606
1.2019527
1.2020159
1.2020454
1.1904829
1.1907009
1.1909797
1.1913277
1.1917529
1.1922075
1.1926712
1.1931394
1.1936135
1.194098
1.1945991
1.195124
1.1956803
1.1962748
1.196912
1.1975916
1.1983013
1.1990193
1.1997495
1.2002899
1.200518
1.2007084
1.2009511
1.2011858
1.2013943
1.2015737
1.2017237
1.2018444
1.2019376
1.2020018
1.202032
1.1907451
1.1909622
1.1912587
1.1916194
1.1920219
1.1924526
1.1928995
1.1933556
1.1938191
1.1942921
1.1947793
1.1952869
1.1958217
1.1963904
1.1969982
1.1976457
1.1983222
1.1990142
1.1997305
1.2002836
1.2005198
1.2006999
1.2009348
1.2011664
1.201374
1.2015541
1.2017052
1.2018274
1.2019218
1.201987
1.2020178
1.1911754
1.1913789
1.191661
1.1920082
1.1923827
1.1927838
1.1932043
1.1936367
1.1940782
1.1945298
1.1949948
1.1954783
1.1959864
1.1965255
1.1971006
1.1977139
1.1983582
1.1990211
1.1997037
1.2002727
1.2005263
1.2006942
1.2009201
1.2011477
1.2013543
1.2015344
1.2016864
1.2018098
1.2019053
1.2019714
1.202003
1.1917288
1.1919337
1.1922041
1.1925046
1.1928379
1.1932008
1.1935847
1.1939827
1.1943919
1.1948126
1.1952473
1.1956998
1.1961757
1.1966808
1.1972201
1.1977967
1.1984067
1.199039
1.1996886
1.2002631
1.2005354
1.2006924
1.2009074
1.20113
1.2013347
1.2015145
1.201667
1.2017916
1.2018881
1.2019551
1.2019873
1.1923913
1.1925789
1.1928096
1.1930707
1.1933636
1.1936845
1.1940261
1.1943831
1.1947533
1.1951365
1.1955344
1.1959502
1.1963889
1.196856
1.1973565
1.1978938
1.1984669
1.1990674
1.1996897
1.2002569
1.2005455
1.2006963
1.2008968
1.2011131
1.2013165
1.2014952
1.2016475
1.2017729
1.2018702
1.201938
1.2019709
1.1930916
1.1932478
1.1934438
1.193669
1.1939232
1.194203
1.1945028
1.1948185
1.195148
1.195491
1.1958488
1.1962246
1.1966229
1.1970491
1.1975084
1.1980046
1.1985385
1.1991046
1.199697
1.2002524
1.2005604
1.2007012
1.2008878
1.2010978
1.2012986
1.2014758
1.2016278
1.2017536
1.2018517
1.2019202
1.2019537
1.1937799
1.1939074
1.1940727
1.1942646
1.1944831
1.1947258
1.1949882
1.195266
1.1955571
1.1958612
1.1961794
1.1965147
1.1968718
1.1972561
1.1976731
1.1981273
1.1986206
1.1991489
1.1997019
1.2002303
1.2005769
1.2007159
1.200885
1.2010842
1.2012819
1.2014577
1.2016081
1.201734
1.2018327
1.2019017
1.2019357
1.1944293
1.1945322
1.194669
1.1948303
1.1950167
1.1952269
1.1954567
1.195702
1.1959601
1.1962299
1.1965121
1.1968097
1.1971274
1.1974711
1.1978467
1.1982593
1.1987116
1.199201
1.1997157
1.2002347
1.2006083
1.2007371
1.2008825
1.2010746
1.2012684
1.2014403
1.2015888
1.201714
1.2018131
1.2018825
1.201917
1.1950371
1.195116
1.1952251
1.1953566
1.1955116
1.1956905
1.1958907
1.1961079
1.1963384
1.1965799
1.196832
1.1970972
1.1973802
1.197687
1.1980239
1.1983971
1.1988102
1.1992628
1.1997466
1.2002503
1.2006308
1.2007539
1.2008915
1.2010717
1.2012524
1.2014232
1.2015694
1.2016939
1.2017932
1.2018628
1.2018975
1.1955943
1.1956523
1.1957358
1.195839
1.1959636
1.1961113
1.1962819
1.1964723
1.1966787
1.196897
1.1971255
1.1973652
1.19762
1.1978956
1.1981989
1.1985365
1.1989135
1.1993312
1.1997848
1.2002646
1.2006499
1.2007721
1.2008965
1.2010686
1.2012437
1.2014092
1.2015514
1.2016737
1.2017728
1.2018426
1.2018775
1.1960689
1.1961225
1.1961873
1.1962674
1.1963659
1.1964856
1.196628
1.1967925
1.1969759
1.197174
1.1973837
1.1976043
1.197838
1.1980895
1.1983655
1.198673
1.199018
1.1994032
1.1998262
1.2002785
1.2006679
1.2007932
1.2009067
1.2010766
1.2012395
1.201394
1.2015327
1.2016535
1.2017523
1.2018219
1.2018568
1.1963918
1.1964335
1.1965047
1.1965924
1.1966867
1.1967895
1.1969122
1.1970567
1.1972215
1.1974036
1.1975997
1.1978075
1.1980274
1.1982626
1.1985187
1.1988025
1.1991206
1.1994771
1.1998718
1.2002995
1.2006864
1.2008316
1.2009325
1.201075
1.2012268
1.2013794
1.2015165
1.2016341
1.2017315
1.2018008
1.2018357
1.1967103
1.1967307
1.1967644
1.1968122
1.1968854
1.1969876
1.1971114
1.1972508
1.1974051
1.1975783
1.1977677
1.1979702
1.1981842
1.198411
1.1986548
1.1989219
1.1992189
1.1995511
1.1999202
1.2003235
1.200709
1.2008702
1.2009468
1.201078
1.2012293
1.2013696
1.2014999
1.2016147
1.201711
1.2017797
1.2018143
1.1969167
1.1969453
1.1969829
1.1970288
1.1970853
1.1971578
1.1972523
1.1973763
1.1975293
1.1977027
1.1978922
1.1980955
1.1983098
1.1985348
1.198773
1.1990298
1.1993115
1.1996239
1.1999703
1.2003508
1.2007276
1.2009046
1.2009677
1.2010954
1.2012278
1.201357
1.2014844
1.2015966
1.2016905
1.2017583
1.2017927
1.1970213
1.1970493
1.197086
1.1971329
1.1971932
1.19727
1.1973667
1.1974864
1.1976305
1.1977996
1.1979906
1.1981968
1.1984141
1.1986406
1.1988772
1.1991278
1.1993983
1.1996947
1.2000214
1.2003796
1.2007452
1.2009471
1.2010033
1.2011063
1.2012237
1.201352
1.2014742
1.2015794
1.2016707
1.2017374
1.2017711
1.1971272
1.1971557
1.1971912
1.1972359
1.1972936
1.1973683
1.1974636
1.1975829
1.197728
1.1978935
1.1980794
1.1982869
1.1985072
1.1987359
1.1989723
1.1992189
1.1994806
1.1997635
1.2000727
1.2004109
1.2007672
1.2009883
1.2010329
1.2011153
1.2012368
1.2013534
1.2014595
1.2015629
1.2016514
1.2017164
1.2017495
1.1972679
1.1972958
1.1973299
1.1973725
1.197428
1.1974999
1.1975917
1.197705
1.1978373
1.1979959
1.1981838
1.1983885
1.1986056
1.1988319
1.1990656
1.1993072
1.1995605
1.1998308
1.2001239
1.2004437
1.2007869
1.2010251
1.2010663
1.2011412
1.2012488
1.2013466
1.201451
1.2015496
1.2016334
1.2016966
1.2017286
1.1974708
1.1974953
1.1975256
1.1975635
1.1976129
1.1976771
1.1977585
1.197858
1.1979842
1.1981413
1.1983175
1.1985098
1.1987171
1.1989356
1.1991621
1.199396
1.1996394
1.199897
1.2001743
1.2004764
1.2008036
1.2010616
1.2011062
1.2011656
1.2012518
1.2013499
1.2014515
1.2015372
1.2016163
1.2016769
1.2017078
1.1977481
1.1977671
1.1977919
1.1978226
1.1978619
1.1979126
1.1979788
1.1980689
1.1981844
1.1983191
1.198473
1.1986476
1.1988399
1.1990457
1.199261
1.1994843
1.1997165
1.1999612
1.2002231
1.2005081
1.2008186
1.2010906
1.2011483
1.2011902
1.2012673
1.201359
1.2014445
1.2015264
1.2016012
1.201659
1.2016885
1.1980793
1.1980948
1.1981146
1.1981383
1.198168
1.1982092
1.1982635
1.1983314
1.1984174
1.1985234
1.198651
1.1988008
1.198971
1.1991581
1.1993583
1.1995688
1.199789
1.2000209
1.2002689
1.2005381
1.2008327
1.2011147
1.201191
1.2012197
1.2012861
1.2013615
1.201445
1.2015234
1.2015886
1.2016421
1.2016699
1.1984027
1.1984136
1.1984293
1.198449
1.1984749
1.198511
1.1985599
1.198616
1.1986785
1.1987565
1.1988543
1.1989735
1.1991143
1.1992755
1.1994543
1.1996479
1.1998543
1.200074
1.2003095
1.2005652
1.2008458
1.2011313
1.2012322
1.2012529
1.2013062
1.2013743
1.2014491
1.2015157
1.2015772
1.2016271
1.2016533
1.1986739
1.1986834
1.1986972
1.1987143
1.1987339
1.1987542
1.1987799
1.198823
1.1988839
1.1989527
1.1990304
1.1991262
1.1992429
1.1993811
1.1995396
1.1997164
1.1999094
1.200118
1.2003433
1.2005882
1.2008579
1.201147
1.2012719
1.2012876
1.2013303
1.2013911
1.2014522
1.2015126
1.2015692
1.2016147
1.2016383
1.1988603
1.198873
1.1988886
1.1989066
1.1989259
1.1989457
1.1989656
1.1989884
1.1990208
1.1990724
1.1991454
1.1992319
1.1993335
1.1994562
1.1996008
1.1997659
1.1999496
1.2001505
1.2003687
1.2006062
1.2008678
1.2011542
1.2013081
1.2013224
1.2013563
1.2014042