/*--------------------------------*- C++ -*----------------------------------*\
| =========                 |                                                 |
| \\      /  F ield         | OpenFOAM: The Open Source CFD Toolbox           |
|  \\    /   O peration     | Version:  2406                                  |
|   \\  /    A nd           | Website:  www.openfoam.com                      |
|    \\/     M anipulation  |                                                 |
\*---------------------------------------------------------------------------*/
FoamFile
{
    version     2.0;
    format      ascii;
    arch        "LSB;label=32;scalar=64";
    class       volVectorField;
    location    "0.052";
    object      U;
}
// * * * * * * * * * * * * * * * * * * * * * * * * * * * * * * * * * * * * * //

dimensions      [0 1 -1 0 0 0 0];

internalField   nonuniform List<vector> 
8260
(
(40.183849 29.050722 0)
(41.562821 27.759955 -2.4742053e-20)
(42.87822 26.469927 2.1380122e-20)
(44.151558 25.177023 -3.657377e-20)
(45.380216 23.842278 1.5510228e-20)
(46.546464 22.483701 -2.617989e-20)
(47.639186 21.137543 -1.0933289e-20)
(48.650008 19.836905 -1.4610167e-23)
(49.614351 18.606126 4.9058786e-21)
(50.572234 17.445517 0)
(51.467731 16.370852 4.6243763e-20)
(52.321947 15.374748 0)
(53.126741 14.438386 0)
(53.845903 13.52595 -7.1063784e-20)
(54.315733 12.578938 1.8695629e-23)
(54.370166 11.505552 0)
(53.76532 10.010953 0)
(52.87106 8.3772242 6.7920732e-19)
(52.405239 7.2287646 5.6930596e-21)
(52.135656 6.3146786 -6.9191608e-19)
(51.918701 5.4711447 -1.2594697e-18)
(51.716867 4.7230603 -1.1361335e-18)
(51.526859 4.042729 -2.0630724e-18)
(51.360553 3.4120718 1.8472774e-18)
(51.216975 2.8608541 1.6428039e-18)
(51.098802 2.3535438 0)
(51.002684 1.8903752 2.5879396e-18)
(50.92154 1.4561553 2.2841814e-18)
(50.85384 1.0412899 4.0327444e-18)
(50.812088 0.6257824 0)
(50.782429 0.21333365 6.2597122e-18)
(39.185378 28.27696 2.4234729e-20)
(40.624367 27.109352 -1.7453028e-23)
(41.991738 26.002312 -1.8849303e-20)
(43.322264 24.860994 4.9602728e-20)
(44.617137 23.661991 0)
(45.860781 22.422394 2.4702726e-20)
(47.039479 21.172409 4.236917e-20)
(48.147009 19.943145 2.7148371e-20)
(49.199851 18.759836 -3.1027597e-20)
(50.217622 17.628661 1.3361653e-20)
(51.176501 16.561028 -5.2411573e-20)
(52.082021 15.558228 0)
(52.923504 14.604952 0)
(53.660327 13.670468 1.4630818e-19)
(54.130514 12.669848 -1.5282733e-19)
(54.153054 11.555594 1.8919623e-19)
(53.530255 9.9735599 2.6258159e-24)
(52.685552 8.3459981 -2.1343764e-20)
(52.28791 7.2207753 2.2185922e-20)
(52.049606 6.3118659 -6.6314951e-19)
(51.850359 5.4674546 -9.4745486e-21)
(51.662757 4.7202525 1.100605e-18)
(51.483237 4.0405243 1.9811587e-18)
(51.325838 3.4105658 -3.4640507e-21)
(51.189694 2.8597236 6.2019941e-21)
(51.076783 2.3533149 -2.7420857e-21)
(50.984757 1.8902258 -2.4887642e-18)
(50.906556 1.4562435 -2.2009013e-18)
(50.840954 1.0411714 -3.8932926e-18)
(50.800714 0.625364 3.4376826e-18)
(50.771994 0.21298977 -6.0667653e-18)
(38.144914 27.228653 -2.0339295e-20)
(39.564168 26.287209 1.8257199e-20)
(40.976556 25.384885 0)
(42.371352 24.417707 -3.0179904e-20)
(43.739045 23.374273 2.6953913e-20)
(45.064744 22.271994 0)
(46.333979 21.136582 -4.1706346e-20)
(47.537949 19.996153 -9.1022994e-21)
(48.682678 18.876154 3.9675879e-20)
(49.777336 17.786499 0)
(50.808305 16.73743 4.9101264e-20)
(51.773686 15.735618 0)
(52.660259 14.769269 0)
(53.421684 13.81254 -7.4814449e-20)
(53.900523 12.761166 -5.2583761e-21)
(53.901385 11.597679 -2.0909717e-19)
(53.268025 9.9183829 2.8018537e-19)
(52.493163 8.3318024 -1.3584662e-18)
(52.161524 7.2353558 0)
(51.952716 6.3300999 6.2803994e-19)
(51.772696 5.4825616 0)
(51.601347 4.7336368 -8.0460329e-21)
(51.433723 4.051871 1.4426488e-20)
(51.28634 3.4199785 -1.2876818e-20)
(51.158569 2.8667851 -1.4602474e-18)
(51.051581 2.3594021 0)
(50.964231 1.8947152 0)
(50.889424 1.4597362 1.9883095e-21)
(50.826247 1.0434682 -1.7565175e-21)
(50.787763 0.6267631 -3.1764067e-18)
(50.760118 0.21351745 -4.2565761e-23)
(37.275788 26.040941 6.7720368e-20)
(38.649092 25.320263 -4.6752453e-20)
(40.057059 24.620647 2.9366285e-20)
(41.475226 23.8403 2.7237886e-20)
(42.885295 22.968483 -7.4863594e-20)
(44.269483 22.020009 -2.259124e-20)
(45.610838 21.016691 2.0269314e-20)
(46.896379 19.982727 -1.8054831e-20)
(48.123666 18.941862 1.6043985e-20)
(49.294669 17.907243 0)
(50.396552 16.889708 5.125095e-20)
(51.422528 15.898046 0)
(52.355586 14.923881 -8.7749764e-20)
(53.141007 13.945559 0)
(53.625986 12.845035 -1.8396751e-19)
(53.600209 11.620885 6.9383803e-21)
(52.963283 9.8417545 4.390992e-23)
(52.277809 8.3205999 6.5801832e-19)
(52.016482 7.2461005 -6.4285579e-19)
(51.84103 6.3432715 0)
(51.683129 5.492327 -1.0603445e-18)
(51.530438 4.7420291 -7.4435048e-21)
(51.376621 4.0587757 6.6507797e-21)
(51.240813 3.4258897 -1.5160931e-18)
(51.122787 2.8709446 0)
(51.022693 2.3634067 0)
(50.940734 1.8976425 0)
(50.869832 1.4621231 -1.8646667e-18)
(50.809466 1.0449425 0)
(50.77299 0.627496 2.9075292e-18)
(50.746608 0.21370683 5.1303494e-18)
(36.591401 24.756427 -1.3976535e-20)
(37.89803 24.234427 0)
(39.265084 23.723703 -2.5488916e-20)
(40.668943 23.129242 2.4318437e-20)
(42.088497 22.436291 2.2843068e-20)
(43.503177 21.653457 4.232659e-20)
(44.893211 20.79709 1.9414538e-20)
(46.241532 19.886279 -1.7675298e-20)
(47.538048 18.941317 -1.600804e-20)
(48.777161 17.976901 8.7033957e-20)
(49.944757 17.004745 -1.3194928e-20)
(51.02886 16.033822 0)
(52.007165 15.058657 1.7457877e-19)
(52.813991 14.060093 -4.5707562e-24)
(53.299093 12.910316 2.1176434e-19)
(53.240775 11.608074 1.4992104e-20)
(52.611477 9.7439331 -3.2032344e-19)
(52.044532 8.3080781 6.1932304e-19)
(51.853915 7.2530607 6.3625506e-19)
(51.714492 6.3547032 2.3680771e-24)
(51.581498 5.5017904 9.6002066e-19)
(51.449942 4.7512329 8.7295867e-19)
(51.31187 4.0670296 6.0776595e-21)
(51.189139 3.4335155 1.3770095e-18)
(51.082173 2.8764745 1.2256211e-18)
(50.989883 2.3687345 0)
(50.91402 1.901598 -3.7460982e-21)
(50.84755 1.4653351 1.6975093e-18)
(50.7904 1.0469936 -2.9916829e-18)
(50.756191 0.62864341 -2.6411715e-18)
(50.731244 0.21408601 5.6872339e-22)
(36.106647 23.398694 2.3014051e-20)
(37.328541 23.053956 -2.2152173e-20)
(38.626971 22.714242 -2.1942837e-20)
(39.983904 22.295161 4.2877513e-20)
(41.379693 21.778677 -4.1246585e-20)
(42.793329 21.16581 0)
(44.203553 20.465819 0)
(45.5902 19.691456 0)
(46.936922 18.858051 3.1576617e-20)
(48.230704 17.979279 3.4995177e-23)
(49.454493 17.066578 -5.3993728e-20)
(50.590516 16.127862 1.1422604e-19)
(51.609647 15.159685 -2.0812963e-19)
(52.432671 14.142062 -1.1128238e-19)
(52.908107 12.9409 2.6750009e-20)
(52.813573 11.538152 -1.5925443e-20)
(52.212158 9.6249561 1.8720805e-20)
(51.791953 8.2917167 -6.1912747e-19)
(51.671093 7.2537908 -1.7241126e-20)
(51.571018 6.3616411 -4.9677482e-19)
(51.466067 5.5080067 -8.7542412e-19)
(51.358326 4.758167 -1.586833e-18)
(51.238191 4.0736443 -1.4219161e-18)
(51.130252 3.4402056 -8.1946564e-25)
(51.035922 2.8811852 8.6902188e-21)
(50.95256 2.3736343 1.9601385e-18)
(50.883614 1.9052453 0)
(50.822173 1.4683846 1.5323206e-18)
(50.768728 1.0489013 2.6972158e-18)
(50.737067 0.62964842 0)
(50.713775 0.2143834 0)
(35.836563 21.99047 8.7043524e-21)
(36.960374 21.806671 -3.7076123e-20)
(38.169016 21.618504 3.7590564e-20)
(39.450949 21.35761 -1.8757114e-20)
(40.790964 21.006189 -1.8476955e-20)
(42.170438 20.558666 0)
(43.568685 20.016794 0)
(44.964084 19.386232 0)
(46.335977 18.676076 -3.0782589e-20)
(47.665129 17.896374 -5.7883587e-20)
(48.930112 17.056229 0)
(50.106784 16.161018 -1.0432513e-19)
(51.157554 15.208098 1.2771291e-19)
(51.987277 14.170318 -3.5845828e-23)
(52.438258 12.913616 1.7060431e-19)
(52.306981 11.38406 3.3107772e-20)
(51.77401 9.491288 -3.6175182e-20)
(51.518887 8.2665234 5.9011302e-19)
(51.466653 7.2454013 0)
(51.408873 6.3623566 4.5115276e-19)
(51.335485 5.5103215 8.0500923e-19)
(51.254563 4.7629435 1.4327674e-18)
(51.154712 4.0792387 -1.0000172e-20)
(51.063351 3.4467546 8.7995641e-21)
(50.983393 2.8859596 3.3326682e-23)
(50.91021 2.378849 -1.7612786e-18)
(50.849083 1.9092023 0)
(50.793304 1.4717585 2.5481338e-23)
(50.744117 1.0510278 0)
(50.715312 0.63079728 0)
(50.693929 0.21474096 1.8867061e-18)
(35.79276 20.599915 -2.3931914e-23)
(36.805965 20.538482 -2.333057e-20)
(37.907622 20.472077 8.0342996e-21)
(39.091721 20.344338 1.6377022e-20)
(40.348153 20.137514 1.6453999e-20)
(41.662247 19.841021 0)
(43.015719 19.44983 0)
(44.387462 18.962373 0)
(45.754773 18.380632 0)
(47.094011 17.70887 -2.8550208e-20)
(48.378964 16.951455 2.7423995e-20)
(49.578612 16.109253 0)
(50.644974 15.178611 -2.6479928e-20)
(51.466488 14.112396 2.7368324e-20)
(51.871865 12.796625 -4.7787479e-19)
(51.707064 11.120918 3.3447911e-20)
(51.310096 9.3475013 -3.4140177e-20)
(51.223046 8.2269375 -5.0729724e-19)
(51.238406 7.2240274 0)
(51.226019 6.3539732 0)
(51.188267 5.5065384 0)
(51.137439 4.7637763 2.0153405e-20)
(51.06031 4.0823967 1.1312922e-18)
(50.987302 3.4518615 5.1340537e-25)
(50.923679 2.8899368 -1.790822e-18)
(50.862157 2.3836197 1.5695908e-18)
(50.809868 1.9129209 1.3965971e-18)
(50.760446 1.4750596 -2.4555692e-18)
(50.716144 1.0530871 0)
(50.690542 0.63187219 0)
(50.671413 0.21505421 -1.6864548e-18)
(35.961452 19.247107 -6.1771475e-21)
(36.859306 19.274194 2.6221935e-20)
(37.843475 19.301169 -3.4511283e-20)
(38.914127 19.27884 -1.4319083e-20)
(40.065879 19.191063 1.467702e-20)
(41.288255 19.024155 -2.9674494e-20)
(42.566609 18.767749 2.9660585e-20)
(43.88222 18.413864 0)
(45.212621 17.957371 0)
(46.531853 17.395441 0)
(47.809444 16.725599 0)
(49.006928 15.941966 1.0837733e-19)
(50.063327 15.036854 -1.3672064e-19)
(50.858086 13.915071 2.8312744e-20)
(51.185955 12.55239 2.4517935e-19)
(51.016263 10.737826 0)
(50.840552 9.1995116 0)
(50.90233 8.166992 4.592713e-19)
(50.984298 7.1846259 2.5658356e-20)
(51.020335 6.3330157 -2.2839656e-20)
(51.023021 5.4944425 0)
(51.00574 4.7593606 -5.5732192e-19)
(50.954018 4.0825844 8.9933134e-25)
(50.901132 3.4550806 -9.0047005e-19)
(50.855863 2.893226 -3.3832851e-23)
(50.807679 2.3879695 -1.4157442e-18)
(50.765326 1.9165069 -1.2398763e-18)
(50.723063 1.4783955 1.094085e-18)
(50.684317 1.0551733 -1.8854256e-21)
(50.662319 0.63295247 8.3169596e-22)
(50.645884 0.21536487 7.3364837e-22)
(36.314942 17.950567 0)
(37.102147 18.030408 -4.462072e-20)
(37.96714 18.122703 4.7948127e-20)
(38.915913 18.178535 0)
(39.947845 18.181127 -7.9145624e-20)
(41.057265 18.11682 2.2290499e-23)
(42.234143 17.97167 5.5280921e-20)
(43.463398 17.732804 2.7831811e-20)
(44.724439 17.388846 0)
(45.990752 16.929508 -2.3638966e-23)
(47.228413 16.344107 -6.4453185e-24)
(48.390538 15.618123 -1.6553341e-19)
(49.399603 14.733786 5.6415456e-20)
(50.129118 13.541515 5.8879559e-20)
(50.358629 12.080689 6.2191801e-20)
(50.287441 10.270873 2.4840428e-19)
(50.376652 9.0389841 -5.716318e-20)
(50.553683 8.0794303 9.073605e-23)
(50.702764 7.1216488 0)
(50.789862 6.295053 -3.4580527e-19)
(50.838155 5.4708832 -5.6105516e-19)
(50.857674 4.7474267 0)
(50.834593 4.0783647 0)
(50.803961 3.4549809 7.8865884e-19)
(50.778878 2.895154 7.1853058e-19)
(50.745832 2.3912291 1.2490079e-18)
(50.714614 1.9195265 -8.610554e-21)
(50.68051 1.4814547 3.7982601e-21)
(50.648049 1.0570818 1.7191261e-18)
(50.630109 0.63388092 0)
(50.616908 0.21559807 1.3351899e-18)
(36.813991 16.703527 -3.0150409e-20)
(37.490103 16.82152 3.4264958e-20)
(38.23899 16.952234 -4.2809293e-20)
(39.066549 17.052294 -4.5810471e-20)
(39.972926 17.112734 1.2120925e-20)
(40.95727 17.117472 5.0641055e-20)
(42.014299 17.051765 0)
(43.13294 16.899989 -2.679535e-20)
(44.295203 16.645521 0)
(45.474997 16.270501 -4.2283163e-23)
(46.635271 15.755233 0)
(47.719027 15.073919 -5.6792982e-20)
(48.628288 14.18523 5.8645406e-20)
(49.230397 12.878832 6.0426831e-20)
(49.410911 11.339286 -2.4232821e-19)
(49.6058 9.8589966 -5.1216197e-19)
(49.900242 8.9071711 5.1421586e-20)
(50.187376 7.9091547 -4.1553638e-19)
(50.39228 7.058392 -2.8722126e-19)
(50.536841 6.2089683 -3.6424798e-20)
(50.63206 5.4322992 4.8179624e-19)
(50.690933 4.7254915 4.8274859e-19)
(50.700315 4.0682931 2.5150487e-20)
(50.695142 3.4504057 6.8904742e-19)
(50.691801 2.8953036 0)
(50.675431 2.3930625 -2.2161675e-18)
(50.656767 1.9218044 -7.6378935e-21)
(50.632051 1.4841202 6.7379172e-21)
(50.606714 1.0587746 4.0262179e-23)
(50.593322 0.63463037 1.3109332e-21)
(50.583906 0.21574189 -1.1852221e-18)
(37.465322 15.457195 0)
(38.021741 15.578373 0)
(38.646949 15.716874 0)
(39.344069 15.839154 0)
(40.116734 15.929233 0)
(40.966133 15.972762 -1.1028207e-19)
(41.889388 15.955261 1.0280997e-19)
(42.877524 15.85947 0)
(43.913558 15.664312 -1.1006306e-19)
(44.970405 15.344515 1.1288412e-19)
(46.005537 14.870274 5.791278e-20)
(46.947099 14.197329 0)
(47.692118 13.238758 1.8288153e-19)
(48.152425 11.895956 -6.0608694e-20)
(48.533296 10.477846 1.7062529e-19)
(48.97793 9.5584981 5.1580564e-20)
(49.447015 8.5869273 -1.8532263e-19)
(49.791541 7.7591707 -3.7047976e-19)
(50.063868 6.9157082 6.2057064e-19)
(50.257687 6.139721 5.1717589e-19)
(50.401519 5.3937496 0)
(50.504913 4.679828 -2.5166459e-20)
(50.549003 4.044986 2.2273139e-20)
(50.573607 3.4397844 -6.3023976e-19)
(50.593941 2.8924245 0)
(50.595173 2.3927828 1.9629093e-18)
(50.590761 1.9227819 0)
(50.576832 1.48597 -5.9667934e-21)
(50.559686 1.0600134 -2.6895772e-18)
(50.551341 0.63502623 0)
(50.546119 0.21571179 0)
(38.11852 14.11943 0)
(38.568558 14.216297 0)
(39.082297 14.333153 0)
(39.657772 14.445793 8.8654671e-20)
(40.30076 14.53129 -1.7933953e-19)
(41.014694 14.576871 2.1725448e-19)
(41.797668 14.568932 -1.3533587e-19)
(42.639554 14.489001 2.8396603e-20)
(43.520781 14.311884 1.4758157e-19)
(44.411939 14.005821 -7.3765076e-23)
(45.275493 13.524538 -6.2194292e-20)
(46.043595 12.810969 -2.4930737e-19)
(46.633563 11.813857 1.2150455e-19)
(47.160141 10.738921 0)
(47.798452 9.906093 0)
(48.441159 9.0818258 9.2834028e-20)
(48.953562 8.3355992 3.300656e-19)
(49.38473 7.5228021 7.3172089e-19)
(49.716052 6.764121 -3.240037e-19)
(49.96548 6.0132034 -5.7281819e-20)
(50.154723 5.2981609 5.0663177e-20)
(50.295978 4.6512093 -3.8031532e-19)
(50.379598 4.0057001 1.9750222e-20)
(50.437271 3.4221809 0)
(50.484619 2.8847394 0)
(50.50434 2.389942 -8.6752352e-19)
(50.515651 1.9219705 0)
(50.513965 1.4866256 0)
(50.506375 1.0606129 1.1916575e-18)
(50.503606 0.63497334 -1.0512271e-18)
(50.502643 0.21546647 -9.2723766e-19)
(38.744269 12.297285 -2.5561537e-23)
(39.106781 12.365625 -1.7821878e-19)
(39.517817 12.454873 9.1354911e-20)
(39.987289 12.534291 0)
(40.515868 12.602342 9.8052787e-24)
(41.099001 12.646701 1.3592922e-19)
(41.733557 12.639837 -4.5401149e-23)
(42.411468 12.561661 -3.2629319e-20)
(43.114944 12.387719 -3.3086719e-20)
(43.816941 12.096223 -6.6012756e-20)
(44.490962 11.646727 -6.456815e-20)
(45.130803 11.060217 0)
(45.785645 10.399928 0)
(46.515007 9.8275539 0)
(47.24144 9.2496208 0)
(47.889824 8.6436205 -1.6534653e-19)
(48.476877 7.9392639 -1.4656334e-19)
(48.95986 7.2500776 -2.5957551e-19)
(49.357686 6.5472197 0)
(49.66066 5.8729796 -2.0299725e-19)
(49.892482 5.2102729 0)
(50.074818 4.5608666 3.1662607e-19)
(50.19146 3.9683524 0)
(50.284238 3.3965773 0)
(50.362152 2.8750929 0)
(50.40332 2.3786409 0)
(50.430759 1.9185934 0)
(50.442646 1.4854315 -9.3223865e-21)
(50.446182 1.0601712 8.225923e-21)
(50.449656 0.63428339 1.8594692e-18)
(50.452535 0.21493399 8.176582e-19)
(39.223927 10.269194 2.6157035e-23)
(39.451558 10.33312 0)
(39.738064 10.417405 1.9163262e-21)
(40.094499 10.491927 1.1657448e-19)
(40.538988 10.509209 -2.5252022e-19)
(41.026523 10.518815 -3.602446e-20)
(41.544035 10.473752 -2.1667711e-19)
(42.099582 10.379566 5.6701641e-19)
(42.691921 10.230995 -2.7511158e-19)
(43.298707 10.07608 -6.6181723e-20)
(43.931613 9.8472772 -2.2721351e-23)
(44.609987 9.6192729 5.7783087e-20)
(45.34058 9.3470826 0)
(46.051795 9.0253258 0)
(46.742407 8.6141755 0)
(47.407228 8.0858994 2.9347572e-19)
(48.000324 7.5308121 0)
(48.527643 6.9113477 -2.2991927e-19)
(48.981565 6.3006681 0)
(49.346082 5.6873818 0)
(49.625311 5.0657482 0)
(49.841407 4.4883228 -2.4476489e-19)
(49.991632 3.8968919 -3.085451e-20)
(50.115783 3.3604725 -4.627094e-19)
(50.225626 2.8457183 2.4006649e-20)
(50.291441 2.3713031 0)
(50.335956 1.9148653 0)
(50.362424 1.4795137 5.2706114e-19)
(50.378458 1.0579676 9.3702599e-19)
(50.389122 0.63283092 -3.1723215e-21)
(50.394951 0.21410651 -2.825718e-21)
(40.144964 8.0066139 0)
(40.305651 8.1076074 -1.0745352e-20)
(40.474999 8.2452103 1.0945237e-20)
(40.661582 8.3880714 -1.0973275e-20)
(40.876026 8.5886691 -2.1005276e-20)
(41.172514 8.7207058 2.0329224e-20)
(41.534312 8.8515468 -3.8907021e-20)
(41.964148 8.9470157 -3.6480981e-20)
(42.485214 8.8279244 0)
(43.032369 8.7530084 -2.4286034e-19)
(43.652207 8.5938463 5.0001854e-19)
(44.314225 8.5317515 -5.1563762e-20)
(44.99512 8.3703361 -9.2721589e-20)
(45.66421 8.1902823 1.6544102e-19)
(46.344009 7.9075094 -2.9357507e-19)
(46.987742 7.5303247 8.4601323e-24)
(47.578677 7.0578764 -1.1500323e-19)
(48.106801 6.5407983 4.0657238e-19)
(48.596079 5.9997456 0)
(49.014263 5.4636134 0)
(49.346573 4.920663 6.9984723e-20)
(49.604473 4.3609342 -6.8041753e-24)
(49.78284 3.823204 -2.724212e-20)
(49.935928 3.3091407 -2.4070066e-20)
(50.074517 2.8178307 -3.3904158e-19)
(50.167798 2.3472533 0)
(50.232055 1.9009399 0)
(50.272971 1.4741382 -4.5785517e-19)
(50.302459 1.0545137 -1.6410208e-18)
(50.32161 0.6303951 -7.2939814e-19)
(50.329252 0.21298305 0)
(40.907428 6.435609 0)
(41.078539 6.5098559 1.1798048e-20)
(41.268867 6.6130577 -4.1126239e-19)
(41.481212 6.7184305 4.3657102e-23)
(41.700146 6.8396998 3.8292148e-19)
(41.934617 6.9615874 -2.1039458e-20)
(42.192599 7.0615438 3.9059904e-20)
(42.436484 7.1737455 3.5718626e-20)
(42.680276 7.5061976 0)
(43.062148 7.6443314 5.5912072e-20)
(43.584927 7.6129102 -4.8653744e-20)
(44.123849 7.5399219 1.7691633e-19)
(44.725625 7.3922912 -3.2147272e-19)
(45.340523 7.3078143 1.4551719e-19)
(45.99138 7.1685765 0)
(46.627888 6.9224515 1.1493587e-19)
(47.212245 6.5889713 2.2969362e-23)
(47.736912 6.1511747 -1.7955505e-19)
(48.227625 5.6762211 2.3794579e-19)
(48.672565 5.2060409 7.0000925e-20)
(49.050962 4.7139976 -3.0890273e-19)
(49.355332 4.2372043 -2.1800902e-19)
(49.569275 3.7214057 0)
(49.748293 3.2374599 3.3914961e-19)
(49.912159 2.7694562 2.6170968e-19)
(50.031127 2.3219384 3.2974366e-20)
(50.118262 1.8861859 0)
(50.174649 1.4619071 0)
(50.217656 1.0466285 -5.6934841e-21)
(50.246478 0.62672727 4.9880999e-21)
(50.255033 0.21162128 0)
(41.525452 5.5436679 -8.9021169e-19)
(41.629984 5.6217281 8.4369175e-19)
(41.752287 5.7108376 7.8813287e-19)
(41.897416 5.8039313 -7.2728961e-19)
(42.071083 5.9015579 -6.8482731e-19)
(42.281593 6.0050394 6.4827378e-19)
(42.54361 6.1123483 -6.0774442e-19)
(42.868337 6.2099178 5.169529e-19)
(43.187834 6.3277177 -4.6050628e-19)
(43.497908 6.3530718 -5.1556857e-20)
(43.728864 6.6734292 4.0337535e-19)
(44.104409 6.7801235 3.5858344e-19)
(44.622122 6.6025076 -4.1595572e-19)
(45.152688 6.516447 0)
(45.682349 6.3773824 2.267446e-19)
(46.266207 6.2226953 -4.0476578e-19)
(46.865762 6.0367649 8.9741118e-20)
(47.411008 5.7459959 0)
(47.906315 5.3524601 -2.0995769e-19)
(48.345418 4.9219151 1.2909914e-23)
(48.736768 4.49677 4.3601638e-19)
(49.089197 4.054194 2.4036715e-19)
(49.345863 3.6073514 4.2400565e-20)
(49.554358 3.1603125 -3.7397178e-19)
(49.741264 2.7079633 2.9681143e-19)
(49.882095 2.2807225 2.0358194e-19)
(49.993447 1.8575553 1.2824057e-20)
(50.067304 1.4469876 3.7320924e-19)
(50.123598 1.0368084 6.4831563e-19)
(50.162807 0.6214758 5.5429413e-19)
(50.172136 0.21003179 0)
(42.265241 4.5933729 -6.5419519e-21)
(42.364326 4.6615413 -2.4097406e-20)
(42.477597 4.7400186 -7.2473774e-19)
(42.605809 4.8223358 1.3461914e-18)
(42.74901 4.9094614 -1.237512e-18)
(42.905718 5.0006673 5.8162608e-19)
(43.072402 5.0928126 0)
(43.249916 5.1828354 0)
(43.461596 5.2609757 -2.5777389e-20)
(43.736577 5.3581065 4.6066862e-20)
(44.093513 5.366206 2.8726441e-19)
(44.410824 5.3680248 -6.2010686e-19)
(44.684693 5.7806774 3.1315275e-19)
(45.115937 5.7385217 0)
(45.549859 5.6759273 0)
(46.013917 5.5101434 0)
(46.521323 5.3810386 -1.5792279e-19)
(47.082769 5.2623768 2.0991395e-19)
(47.609476 5.0078179 0)
(48.05373 4.6482818 -1.0898425e-19)
(48.434107 4.2412988 9.6163349e-20)
(48.803137 3.8641774 -3.3920884e-19)
(49.107624 3.4485466 1.4957641e-19)
(49.353894 3.0551746 -9.8967145e-20)
(49.564033 2.6371188 -2.0354162e-19)
(49.72207 2.2297188 -2.0513725e-19)
(49.855466 1.8229533 3.3922478e-19)
(49.950521 1.4233237 -2.991396e-19)
(50.019978 1.0203668 0)
(50.06961 0.61413319 -4.9647237e-19)
(50.080656 0.20817523 0)
(42.852775 3.9122589 7.6410947e-19)
(42.917581 3.9705386 2.958537e-24)
(42.992574 4.0363791 1.0151572e-20)
(43.080034 4.1052982 0)
(43.183155 4.179112 -1.7220902e-20)
(43.306331 4.2589079 5.0143472e-19)
(43.455924 4.3455424 -4.5352329e-19)
(43.636534 4.4398704 0)
(43.842794 4.5436157 2.2847306e-20)
(44.060417 4.644654 3.466896e-19)
(44.283525 4.7601325 3.6268618e-20)
(44.578476 4.8479666 -5.1594417e-19)
(44.905467 4.8313749 5.7080589e-20)
(45.202014 4.8745055 1.9712682e-19)
(45.526443 5.0937108 0)
(45.906509 4.9047352 0)
(46.351898 4.7528211 -6.8748071e-20)
(46.821768 4.6919787 9.8564122e-24)
(47.310244 4.5620163 1.0892422e-19)
(47.778644 4.3225846 -2.0268468e-23)
(48.167669 3.9990986 -2.5432356e-19)
(48.53008 3.6371413 7.4765495e-20)
(48.856357 3.2672735 6.5947654e-20)
(49.139679 2.9320545 2.9073092e-19)
(49.380269 2.5425696 -5.6571619e-24)
(49.555219 2.1629282 -2.2611826e-20)
(49.704337 1.7707223 -6.3799649e-19)
(49.822557 1.3919732 -1.7583373e-20)
(49.906576 1.0007763 0)
(49.965998 0.60415162 0)
(49.980842 0.20582984 0)
(43.50169 3.1713157 1.3642681e-18)
(43.561721 3.2199545 1.2568191e-18)
(43.630583 3.2747824 -1.1726261e-18)
(43.709183 3.332133 1.0744789e-18)
(43.79839 3.3936715 -9.682543e-19)
(43.8988 3.4601186 8.7954665e-19)
(44.010191 3.5306274 -8.0651751e-19)
(44.132607 3.6032942 0)
(44.270693 3.67528 0)
(44.435568 3.7469339 5.5947751e-19)
(44.634103 3.8102145 -4.8158266e-19)
(44.837517 3.866748 0)
(45.046274 3.9702138 -5.0500739e-20)
(45.331766 4.0434066 0)
(45.654784 3.8989055 0)
(45.918042 4.2956804 -6.7773024e-20)
(46.283642 4.1588063 2.9706411e-19)
(46.688809 4.0468804 -4.3150235e-19)
(47.089051 4.0140515 -9.6030513e-20)
(47.513809 3.8832823 2.5425982e-19)
(47.926613 3.6855299 -2.5421533e-23)
(48.293562 3.4131281 -6.5930245e-20)
(48.618546 3.0662722 0)
(48.914737 2.7670395 0)
(49.18393 2.4308146 0)
(49.383028 2.0795786 0)
(49.543042 1.7106442 3.1635367e-19)
(49.682624 1.3460788 -1.5501835e-20)
(49.783032 0.97248285 -1.3671023e-20)
(49.851647 0.59077102 -6.0290853e-21)
(49.872784 0.20258315 3.4567424e-19)
(44.017332 2.6504269 1.2166818e-18)
(44.055173 2.6921156 -1.1175513e-18)
(44.09894 2.7384686 8.118835e-21)
(44.149882 2.7870824 9.6452153e-19)
(44.209748 2.8398107 -8.7389946e-19)
(44.280846 2.8976989 7.922515e-19)
(44.365906 2.9609956 -1.4281555e-18)
(44.467672 3.029827 -1.9980117e-20)
(44.587435 3.1044082 5.5471092e-19)
(44.723534 3.1834416 0)
(44.875838 3.2659646 -4.8193903e-19)
(45.059678 3.3551049 2.5191773e-20)
(45.277972 3.4050851 3.7883276e-19)
(45.467745 3.4952244 -3.154588e-19)
(45.724036 3.5710056 2.4406013e-19)
(46.048216 3.4218629 7.1383446e-25)
(46.28787 3.6914422 2.1284838e-19)
(46.6017 3.5338357 -2.3295724e-19)
(46.948691 3.4217337 3.3471206e-19)
(47.312989 3.3749703 -7.4608813e-20)
(47.691225 3.2940531 6.589969e-20)
(48.076387 3.1387776 1.5776419e-23)
(48.413565 2.8517633 1.0251148e-19)
(48.698979 2.5930102 0)
(48.972604 2.2787449 -1.5941036e-19)
(49.204296 1.9743848 1.4056657e-19)
(49.37601 1.6293415 3.0986161e-20)
(49.531501 1.2896753 -2.7328536e-20)
(49.648601 0.93666965 1.2050538e-20)
(49.726685 0.5728853 3.242094e-19)
(49.756316 0.19785997 -2.9531738e-19)
(44.598863 2.0834809 2.1853595e-18)
(44.634518 2.1185552 -1.9877053e-18)
(44.675452 2.1574024 -1.4418824e-20)
(44.722253 2.1982563 -6.6304723e-21)
(44.775501 2.2427494 -6.0460838e-21)
(44.83563 2.291663 1.4132037e-18)
(44.902963 2.34499 -4.9090076e-23)
(44.977701 2.4023205 -1.1237936e-18)
(45.060584 2.4628806 2.9089875e-24)
(45.154469 2.5260069 0)
(45.262576 2.5913224 -2.5019399e-20)
(45.38159 2.6544588 -4.43858e-20)
(45.517065 2.7381372 -1.9657432e-20)
(45.709893 2.7753213 2.7823251e-19)
(45.8933 2.8674968 -2.4597356e-19)
(46.102536 3.0017104 2.7160893e-20)
(46.36902 2.9302563 0)
(46.582008 3.1676007 -4.1511553e-20)
(46.852124 3.0170503 -7.2470139e-20)
(47.178349 2.8779906 -6.4904238e-20)
(47.515385 2.8507202 0)
(47.859293 2.787277 -1.0246789e-19)
(48.225243 2.6041083 0)
(48.511905 2.3944634 0)
(48.759533 2.1020538 1.4050807e-19)
(49.015072 1.841015 -2.4780981e-19)
(49.205619 1.5353918 1.09268e-19)
(49.37079 1.2152315 0)
(49.503107 0.88902515 -1.8059379e-19)
(49.591547 0.54838597 -2.9045031e-19)
(49.631181 0.19093303 0)
(45.058343 1.694238 -1.9475389e-18)
(45.079462 1.7229386 3.4519272e-21)
(45.103889 1.7544123 1.2801825e-20)
(45.132291 1.7875807 1.5047495e-18)
(45.16562 1.8239386 -1.3654722e-18)
(45.205167 1.864273 -2.0792555e-24)
(45.25253 1.9087484 0)
(45.309527 1.9575303 1.5436233e-24)
(45.378122 2.011012 8.9301506e-19)
(45.460054 2.0694267 -7.8270387e-19)
(45.556755 2.1327414 2.2075334e-20)
(45.671465 2.2024429 1.9576407e-20)
(45.80242 2.2652936 0)
(45.935344 2.3537603 0)
(46.094612 2.3918729 4.8796727e-19)
(46.247835 2.4097174 2.3908372e-20)
(46.421357 2.4873858 -3.3829137e-19)
(46.654445 2.355775 3.7314482e-19)
(46.843413 2.6386523 -2.2649684e-19)
(47.111758 2.5093234 -5.6425375e-20)
(47.407872 2.3765091 0)
(47.696835 2.3864809 -9.0333485e-20)
(48.037412 2.2712537 7.9667172e-20)
(48.342868 2.1560041 -7.6710813e-24)
(48.567351 1.9090575 -6.1939956e-20)
(48.817931 1.6662611 1.0921976e-19)
(49.029724 1.4170359 -9.6312176e-20)
(49.203784 1.1288709 -1.6988754e-19)
(49.348214 0.82956308 1.8713868e-20)
(49.447014 0.51573654 -2.4779037e-20)
(49.496736 0.18100503 7.2852845e-21)
(45.546808 1.2414143 -1.723973e-18)
(45.567874 1.2635335 -6.0972849e-21)
(45.591912 1.2875921 1.4442132e-18)
(45.619083 1.3129338 0)
(45.649448 1.3407819 -1.2114275e-18)
(45.683004 1.3717546 -8.5409429e-21)
(45.719973 1.4060089 2.1789511e-23)
(45.761261 1.4434174 1.7730797e-18)
(45.808318 1.4836423 -2.1310913e-23)
(45.862527 1.5263382 -7.1263297e-19)
(45.925267 1.570808 0)
(45.997512 1.6147915 0)
(46.081179 1.6624755 0)
(46.181094 1.700698 0)
(46.295351 1.7582973 -2.3906984e-20)
(46.437708 1.8247384 3.3782176e-19)
(46.579358 1.8715185 -2.6090693e-19)
(46.724376 2.0042031 -2.9609372e-19)
(46.95012 1.8216483 2.0315982e-19)
(47.11391 2.1380798 5.1319465e-25)
(47.350537 1.9884424 0)
(47.598134 1.9544084 1.5835542e-19)
(47.879288 1.8920932 -1.404675e-19)
(48.173853 1.855139 6.1919402e-20)
(48.397299 1.6803195 0)
(48.626312 1.4783501 -1.4443604e-19)
(48.849259 1.2659725 4.245728e-20)
(49.035221 1.0200812 1.8718733e-19)
(49.186631 0.75624651 9.9050315e-20)
(49.294398 0.47634493 0)
(49.352935 0.16761678 -2.055183e-19)
(45.878482 1.0006894 0)
(45.889226 1.0182896 2.704444e-21)
(45.902181 1.0371823 0)
(45.917616 1.0570868 0)
(45.935981 1.0789738 -4.176443e-21)
(45.957909 1.103353 -1.9333443e-18)
(45.984147 1.1304495 1.7387095e-18)
(46.015429 1.1605004 6.0814966e-21)
(46.052537 1.1937947 1.0856412e-20)
(46.096476 1.2305986 -1.2269662e-18)
(46.148452 1.2711272 2.1965228e-18)
(46.209873 1.3160208 -9.7376392e-19)
(46.281963 1.3644951 0)
(46.369031 1.4192071 0)
(46.479221 1.4656688 0)
(46.604183 1.5054796 0)
(46.73818 1.5507399 -1.6432236e-20)
(46.873551 1.5486507 2.610498e-19)
(46.992637 1.6874001 -2.5607064e-20)
(47.178029 1.5579442 -1.5772232e-19)
(47.339472 1.6891805 1.5625808e-19)
(47.529344 1.6092823 -2.7566963e-19)
(47.756886 1.5156571 2.4636991e-19)
(48.018324 1.5020146 -1.091931e-19)
(48.243246 1.4287481 1.4440552e-19)
(48.458642 1.2535585 8.488337e-20)
(48.677263 1.0932442 0)
(48.866455 0.89547911 3.3005122e-20)
(49.021199 0.66914312 -2.202225e-24)
(49.136046 0.42486556 -1.2838556e-19)
(49.201472 0.1503797 1.8116715e-19)
(46.286226 0.69505654 -2.7097025e-18)
(46.296455 0.70863713 2.4450806e-18)
(46.307636 0.72329171 0)
(46.320076 0.73889942 0)
(46.334145 0.75620716 7.3716409e-21)
(46.350268 0.77558075 0)
(46.368933 0.79712908 0)
(46.390706 0.8209019 -1.378787e-18)
(46.416231 0.84692779 1.225602e-18)
(46.446201 0.87516678 -1.1735052e-24)
(46.481307 0.90547112 7.5668572e-21)
(46.522239 0.93753276 0)
(46.570098 0.97001796 0)
(46.621088 1.003017 0)
(46.67199 1.0410616 0)
(46.735982 1.0799191 0)
(46.832412 1.1197412 -1.449138e-20)
(46.9646 1.1693323 -1.2788475e-20)
(47.094015 1.1709093 -3.1585514e-19)
(47.207636 1.2477545 6.3684644e-19)
(47.36661 1.2704407 -3.1442068e-19)
(47.508252 1.358163 -3.0584129e-20)
(47.683227 1.2547343 -1.0812058e-19)
(47.891393 1.135664 9.6072291e-20)
(48.121342 1.1337008 -4.2438736e-20)
(48.321541 1.0245994 -7.4841329e-20)
(48.521902 0.90146443 5.778851e-24)
(48.703073 0.74778766 5.820434e-20)
(48.857499 0.56841953 2.5668019e-20)
(48.974598 0.36509961 1.1318388e-19)
(49.044383 0.12956393 7.9870902e-20)
(46.515373 0.50483996 -2.3940331e-18)
(46.520865 0.51402321 2.1574716e-18)
(46.527737 0.52377939 -1.9500122e-21)
(46.536086 0.53421584 1.8305451e-18)
(46.54604 0.54586078 -1.6684118e-18)
(46.557787 0.55898364 -1.5079998e-18)
(46.571607 0.5737226 1.1465785e-23)
(46.587878 0.59022151 2.4233813e-18)
(46.607059 0.60865096 -1.0812478e-18)
(46.629646 0.62919483 -3.7594512e-21)
(46.656102 0.65210716 -7.4734712e-25)
(46.686862 0.67793968 5.9189019e-21)
(46.724055 0.70638095 0)
(46.770613 0.73675011 9.2718445e-21)
(46.827721 0.76828303 -5.2442263e-19)
(46.891379 0.8006331 4.5594574e-19)
(46.956261 0.82935964 0)
(47.034664 0.85323982 -3.7208551e-19)
(47.148947 0.85201646 2.9843189e-19)
(47.265236 0.85578945 1.7548089e-20)
(47.380225 0.88227647 1.5475923e-20)
(47.527248 0.74761886 2.7293797e-20)
(47.661316 0.96701472 0)
(47.815071 0.83602919 1.6922465e-19)
(48.018984 0.83297594 -1.8674423e-19)
(48.203663 0.79062779 -3.2997986e-20)
(48.380098 0.70153439 -5.8190824e-20)
(48.549715 0.59242066 0)
(48.698804 0.45650525 4.0979924e-24)
(48.814021 0.29526062 -7.9845014e-20)
(48.885341 0.10513314 6.3916396e-24)
(46.777154 0.33222458 -4.2337086e-18)