/*--------------------------------*- C++ -*----------------------------------*\
| =========                 |                                                 |
| \\      /  F ield         | OpenFOAM: The Open Source CFD Toolbox           |
|  \\    /   O peration     | Version:  2406                                  |
|   \\  /    A nd           | Website:  www.openfoam.com                      |
|    \\/     M anipulation  |                                                 |
\*---------------------------------------------------------------------------*/
FoamFile
{
    version     2.0;
    format      ascii;
    arch        "LSB;label=32;scalar=64";
    class       volScalarField;
    location    "0.009";
    object      rho;
}
// * * * * * * * * * * * * * * * * * * * * * * * * * * * * * * * * * * * * * //

dimensions      [1 -3 0 0 0 0 0];

internalField   nonuniform List<scalar> 
23203
(
1.1865841
1.1867341
1.186903
1.1870846
1.1872763
1.187474
1.1876734
1.1878706
1.1880632
1.1882496
1.1884293
1.1886022
1.1887688
1.1889295
1.1890851
1.1892364
1.1893839
1.1895283
1.1896702
1.18981
1.1899482
1.1900855
1.1902222
1.1867044
1.1868541
1.1870221
1.1872022
1.187392
1.1875875
1.1877845
1.1879794
1.1881699
1.1883544
1.1885323
1.1887036
1.1888686
1.1890279
1.1891821
1.1893319
1.189478
1.1896209
1.1897613
1.1898995
1.1900362
1.1901719
1.1903069
1.1868256
1.1869748
1.1871418
1.1873203
1.1875081
1.1877013
1.1878959
1.1880885
1.1882767
1.1884592
1.1886353
1.188805
1.1889684
1.1891262
1.189279
1.1894274
1.1895721
1.1897136
1.1898524
1.1899891
1.1901243
1.1902584
1.1903918
1.186947
1.1870958
1.1872618
1.1874387
1.1876244
1.1878152
1.1880073
1.1881975
1.1883835
1.188564
1.1887382
1.1889062
1.1890681
1.1892245
1.1893758
1.1895228
1.189666
1.189806
1.1899434
1.1900787
1.1902123
1.1903449
1.1904766
1.1870689
1.1872171
1.187382
1.1875573
1.1877407
1.187929
1.1881186
1.1883063
1.1884901
1.1886685
1.1888409
1.1890072
1.1891675
1.1893224
1.1894723
1.1896179
1.1897597
1.1898983
1.1900342
1.190168
1.1903003
1.1904314
1.1871912
1.1873388
1.1875024
1.1876758
1.187857
1.1880427
1.1882297
1.1884149
1.1885963
1.1887726
1.1889431
1.1891076
1.1892664
1.1894198
1.1895683
1.1897125
1.1898529
1.1899902
1.1901247
1.1902572
1.190388
1.1905176
1.1873138
1.1874608
1.187623
1.1877944
1.1879731
1.1881562
1.1883404
1.188523
1.188702
1.1888761
1.1890447
1.1892075
1.1893647
1.1895166
1.1896637
1.1898065
1.1899456
1.1900815
1.1902148
1.1903459
1.1904753
1.1906034
1.1874369
1.1875831
1.1877436
1.1879129
1.1880889
1.1882692
1.1884506
1.1886305
1.1888071
1.188979
1.1891456
1.1893066
1.1894622
1.1896127
1.1897584
1.1898999
1.1900377
1.1901723
1.1903043
1.1904341
1.1905621
1.1906887
1.1875599
1.1877048
1.1878637
1.1880308
1.1882042
1.1883816
1.1885601
1.1887373
1.1889113
1.189081
1.1892456
1.1894048
1.1895588
1.1897078
1.1898522
1.1899924
1.190129
1.1902624
1.1903931
1.1905216
1.1906484
1.1907736
1.1876828
1.1878265
1.1879835
1.1881482
1.1883188
1.1884932
1.1886688
1.1888432
1.1890146
1.189182
1.1893446
1.1895021
1.1896545
1.189802
1.1899451
1.1900841
1.1902194
1.1903516
1.1904812
1.1906084
1.190734
1.1908579
1.187806
1.1879481
1.188103
1.1882651
1.1884328
1.1886042
1.1887767
1.1889482
1.189117
1.189282
1.1894425
1.1895982
1.189749
1.1898952
1.1900369
1.1901747
1.1903089
1.1904399
1.1905683
1.1906945
1.1908188
1.1909415
1.1879288
1.1880692
1.1882221
1.1883815
1.1885461
1.1887143
1.1888837
1.1890522
1.1892184
1.189381
1.1895394
1.1896933
1.1898425
1.1899872
1.1901277
1.1902642
1.1903973
1.1905273
1.1906546
1.1907797
1.1909029
1.1910245
1.1880514
1.1881902
1.1883407
1.1884973
1.1886588
1.1888237
1.1889898
1.1891554
1.1893188
1.1894789
1.1896352
1.1897872
1.1899348
1.190078
1.1902172
1.1903526
1.1904846
1.1906136
1.1907399
1.1908639
1.1909861
1.1911066
1.188174
1.188311
1.1884589
1.1886125
1.1887707
1.1889322
1.1890951
1.1892575
1.1894181
1.1895758
1.1897299
1.1898799
1.1900259
1.1901677
1.1903057
1.1904399
1.1905709
1.1906988
1.1908242
1.1909472
1.1910685
1.191188
1.1882965
1.1884314
1.1885765
1.1887269
1.1888818
1.1890399
1.1891995
1.1893588
1.1895165
1.1896716
1.1898234
1.1899716
1.1901159
1.1902563
1.1903929
1.1905261
1.190656
1.190783
1.1909074
1.1910296
1.1911499
1.1912685
1.1884187
1.1885514
1.1886937
1.1888408
1.1889922
1.1891469
1.1893031
1.1894592
1.189614
1.1897665
1.189916
1.1900622
1.1902048
1.1903437
1.1904791
1.1906111
1.19074
1.1908661
1.1909896
1.1911109
1.1912304
1.1913481
1.1885406
1.188671
1.1888102
1.188954
1.189102
1.1892531
1.1894059
1.1895587
1.1897105
1.1898604
1.1900076
1.1901518
1.1902926
1.1904301
1.1905642
1.190695
1.1908229
1.1909481
1.1910708
1.1911913
1.19131
1.1914269
1.188662
1.1887898
1.1889259
1.1890664
1.1892109
1.1893585
1.1895078
1.1896575
1.1898063
1.1899535
1.1900984
1.1902405
1.1903795
1.1905154
1.1906482
1.190778
1.1909049
1.1910292
1.191151
1.1912708
1.1913887
1.1915049
1.1887824
1.188908
1.1890412
1.1891783
1.1893192
1.1894633
1.1896091
1.1897555
1.1899013
1.1900458
1.1901883
1.1903283
1.1904655
1.1905999
1.1907314
1.19086
1.1909859
1.1911093
1.1912303
1.1913493
1.1914665
1.191582
1.1889025
1.1890254
1.1891555
1.1892892
1.1894267
1.1895673
1.1897097
1.1898528
1.1899957
1.1901374
1.1902775
1.1904154
1.1905508
1.1906836
1.1908137
1.1909411
1.191066
1.1911885
1.1913088
1.191427
1.1915435
1.1916584
1.189022
1.1891421
1.1892691
1.1893995
1.1895335
1.1896706
1.1898096
1.1899495
1.1900894
1.1902284
1.190366
1.1905018
1.1906354
1.1907665
1.1908952
1.1910215
1.1911454
1.191267
1.1913864
1.191504
1.1916198
1.191734
1.1891408
1.1892582
1.189382
1.1895091
1.1896396
1.1897733
1.189909
1.1900457
1.1901826
1.1903189
1.1904541
1.1905877
1.1907193
1.1908489
1.1909762
1.1911012
1.191224
1.1913447
1.1914634
1.1915802
1.1916953
1.1918089
1.189259
1.1893736
1.1894943
1.189618
1.1897452
1.1898755
1.1900078
1.1901414
1.1902753
1.1904089
1.1905417
1.1906731
1.1908028
1.1909307
1.1910566
1.1911803
1.1913021
1.1914218
1.1915397
1.1916558
1.1917703
1.1918832
1.1893766
1.1894884
1.189606
1.1897265
1.1898503
1.1899772
1.1901063
1.1902367
1.1903677
1.1904986
1.1906289
1.1907581
1.1908859
1.1910121
1.1911365
1.191259
1.1913796
1.1914984
1.1916154
1.1917308
1.1918446
1.1919569
1.1894936
1.1896026
1.1897171
1.1898343
1.1899549
1.1900785
1.1902043
1.1903317
1.1904598
1.190588
1.1907158
1.1908429
1.1909687
1.1910932
1.1912161
1.1913373
1.1914568
1.1915746
1.1916907
1.1918053
1.1919185
1.1920302
1.1896101
1.1897162
1.1898276
1.1899417
1.190059
1.1901794
1.1903021
1.1904264
1.1905516
1.1906772
1.1908026
1.1909274
1.1910513
1.191174
1.1912954
1.1914152
1.1915336
1.1916504
1.1917657
1.1918795
1.191992
1.1921031
1.189726
1.1898293
1.1899377
1.1900487
1.1901628
1.19028
1.1903996
1.1905209
1.1906433
1.1907662
1.1908892
1.1910118
1.1911337
1.1912547
1.1913745
1.191493
1.1916102
1.1917259
1.1918403
1.1919533
1.1920651
1.1921756
1.1898414
1.1899418
1.1900473
1.1901552
1.1902662
1.1903804
1.1904969
1.1906153
1.1907349
1.1908552
1.1909757
1.1910962
1.1912161
1.1913353
1.1914535
1.1915706
1.1916865
1.1918012
1.1919147
1.1920269
1.192138
1.1922478
1.1899563
1.1900539
1.1901564
1.1902614
1.1903694
1.1904805
1.1905941
1.1907095
1.1908264
1.1909441
1.1910623
1.1911805
1.1912984
1.1914158
1.1915325
1.1916482
1.1917628
1.1918764
1.1919889
1.1921003
1.1922106
1.1923198
1.1900708
1.1901656
1.1902652
1.1903672
1.1904723
1.1905804
1.1906911
1.1908038
1.1909179
1.1910331
1.1911489
1.1912649
1.1913808
1.1914964
1.1916114
1.1917257
1.1918391
1.1919516
1.1920631
1.1921736
1.1922832
1.1923917
1.1901847
1.1902767
1.1903734
1.1904726
1.1905749
1.1906802
1.190788
1.1908979
1.1910094
1.1911221
1.1912356
1.1913494
1.1914634
1.1915771
1.1916905
1.1918033
1.1919154
1.1920268
1.1921372
1.1922469
1.1923556
1.1924634
1.1902982
1.1903875
1.1904812
1.1905775
1.1906771
1.1907797
1.1908849
1.1909921
1.191101
1.1912113
1.1913224
1.1914341
1.191546
1.191658
1.1917697
1.1918811
1.1919918
1.192102
1.1922114
1.1923201
1.1924281
1.1925352
1.1904114
1.1904978
1.190589
1.1906828
1.1907796
1.1908795
1.1909819
1.1910865
1.1911928
1.1913006
1.1914094
1.191519
1.1916289
1.1917391
1.1918491
1.191959
1.1920684
1.1921774
1.1922857
1.1923935
1.1925006
1.1926069
1.1905243
1.1906079
1.1906963
1.1907875
1.1908818
1.1909792
1.191079
1.1911809
1.1912848
1.1913901
1.1914967
1.1916041
1.1917121
1.1918204
1.1919288
1.1920371
1.1921452
1.1922529
1.1923602
1.192467
1.1925732
1.1926788
1.1906363
1.1907169
1.1908029
1.1908919
1.1909838
1.1910786
1.1911758
1.1912754
1.1913768
1.1914798
1.1915842
1.1916895
1.1917955
1.191902
1.1920087
1.1921155
1.1922222
1.1923287
1.1924349
1.1925407
1.192646
1.1927508
1.190748
1.1908256
1.190909
1.1909957
1.1910854
1.1911778
1.1912727
1.1913698
1.191469
1.1915697
1.1916719
1.1917752
1.1918793
1.1919839
1.192089
1.1921943
1.1922996
1.1924048
1.1925098
1.1926146
1.1927191
1.192823
1.1908591
1.1909337
1.1910146
1.1910996
1.1911875
1.1912774
1.1913698
1.1914646
1.1915614
1.1916599
1.19176
1.1918612
1.1919634
1.1920663
1.1921697
1.1922734
1.1923773
1.1924812
1.1925851
1.1926889
1.1927924
1.1928955
1.1909703
1.1910421
1.1911207
1.1912029
1.1912878
1.1913758
1.1914663
1.191559
1.1916537
1.1917502
1.1918482
1.1919475
1.1920478
1.1921489
1.1922507
1.1923529
1.1924554
1.1925581
1.1926608
1.1927635
1.192866
1.1929683
1.1910803
1.1911487
1.1912246
1.1913046
1.1913883
1.1914748
1.191563
1.1916535
1.1917461
1.1918406
1.1919366
1.192034
1.1921325
1.192232
1.1923321
1.1924328
1.1925339
1.1926353
1.1927368
1.1928384
1.1929401
1.1930415
1.1911894
1.1912546
1.1913282
1.1914068
1.1914891
1.1915736
1.1916599
1.1917484
1.1918389
1.1919313
1.1920254
1.1921209
1.1922176
1.1923154
1.1924139
1.1925131
1.1926129
1.192713
1.1928133
1.1929139
1.1930145
1.193115
1.1912988
1.1913609
1.1914325
1.1915096
1.1915884
1.1916697
1.1917546
1.1918418
1.1919308
1.1920215
1.1921139
1.1922078
1.1923028
1.192399
1.192496
1.1925938
1.1926922
1.192791
1.1928902
1.1929897
1.1930893
1.193189
1.191406
1.1914643
1.1915331
1.191608
1.1916856
1.1917675
1.1918519
1.1919369
1.1920236
1.1921124
1.1922029
1.192295
1.1923884
1.1924829
1.1925785
1.1926748
1.1927719
1.1928695
1.1929675
1.1930659
1.1931646
1.1932634
1.1915132
1.1915681
1.1916349
1.1917087
1.1917852
1.1918627
1.1919445
1.19203
1.1921155
1.1922025
1.1922914
1.1923819
1.1924737
1.1925668
1.192661
1.192756
1.1928518
1.1929482
1.1930451
1.1931425
1.1932403
1.1933381
1.1916191
1.1916702
1.1917347
1.1918072
1.1918825
1.1919594
1.192039
1.1921212
1.1922056
1.1922916
1.1923792
1.1924683
1.1925588
1.1926506
1.1927434
1.1928372
1.1929318
1.1930271
1.193123
1.1932194
1.1933162
1.1934133
1.191724
1.1917711
1.1918332
1.1919044
1.1919786
1.1920543
1.1921302
1.192211
1.1922963
1.1923811
1.192467
1.1925545
1.1926437
1.1927341
1.1928257
1.1929183
1.1930118
1.193106
1.1932009
1.1932964
1.1933924
1.1934886
1.1918274
1.1918704
1.1919301
1.1919999
1.1920728
1.1921473
1.1922234
1.1923008
1.1923834
1.1924694
1.1925542
1.1926403
1.192728
1.1928172
1.1929076
1.1929991
1.1930916
1.1931848
1.1932788
1.1933734
1.1934686
1.1935641
1.1919298
1.1919687
1.1920261
1.1920947
1.1921666
1.1922403
1.192316
1.1923928
1.1924714
1.1925532
1.1926377
1.1927234
1.1928105
1.1928989
1.1929885
1.1930791
1.1931707
1.1932631
1.1933563
1.1934501
1.1935446
1.1936394
1.1920306
1.1920652
1.19212
1.1921872
1.1922577
1.1923299
1.1924042
1.1924799
1.1925559
1.1926376
1.1927235
1.1928081
1.1928935
1.1929805
1.193069
1.1931586
1.1932493
1.1933409
1.1934333
1.1935264
1.1936202
1.1937145
1.1921302
1.1921604
1.1922128
1.1922787
1.1923481
1.192419
1.1924921
1.1925675
1.1926442
1.1927205
1.1928025
1.1928894
1.1929746
1.1930606
1.1931481
1.1932369
1.1933268
1.1934177
1.1935094
1.193602
1.1936952
1.193789
1.1922286
1.1922543
1.1923041
1.1923687
1.1924368
1.1925064
1.1925781
1.1926522
1.1927285
1.1928057
1.1928827
1.1929656
1.1930534
1.1931393
1.1932258
1.1933138
1.193403
1.1934933
1.1935844
1.1936764
1.1937692
1.1938625
1.1923257
1.1923471
1.1923943
1.1924574
1.1925243
1.1925925
1.1926628
1.1927355
1.1928106
1.1928877
1.1929656
1.1930428
1.1931265
1.1932151
1.1933018
1.1933892
1.1934777
1.1935673
1.1936579
1.1937495
1.1938418
1.1939348
1.1924218
1.1924389
1.1924835
1.1925451
1.1926105
1.1926772
1.192746
1.1928172
1.1928908
1.1929665
1.1930441
1.1931222
1.1931991
1.1932828
1.1933755
1.1934658
1.1935528
1.1936407
1.1937303
1.1938211
1.193913
1.1940056
1.1925171
1.19253
1.192572
1.192632
1.192696
1.1927612
1.1928285
1.1928983
1.1929706
1.1930452
1.1931221
1.1932011
1.1932809
1.1933592
1.1934401
1.1935301
1.193622
1.1937105
1.1937995
1.19389
1.1939817
1.1940742
1.1926117
1.1926207
1.1926601
1.1927183
1.1927806
1.1928442
1.1929098
1.192978
1.1930486
1.1931217
1.193197
1.1932747
1.1933545
1.1934352
1.193514
1.1935946
1.1936846
1.1937774
1.1938669
1.1939568
1.1940482
1.1941406
1.1927057
1.1927111
1.1927479
1.1928043
1.1928648
1.1929266
1.1929904
1.1930568
1.1931257
1.193197
1.1932707
1.1933467
1.193425
1.1935053
1.1935867
1.193667
1.1937479
1.1938375
1.1939308
1.1940213
1.1941124
1.1942045
1.1927994
1.1928015
1.1928359
1.1928903
1.1929489
1.1930086
1.1930705
1.193135
1.193202
1.1932715
1.1933434
1.1934176
1.1934941
1.1935727
1.1936533
1.1937352
1.1938164
1.1938972
1.193986
1.1940831
1.1941773
1.1942681
1.192893
1.1928922
1.1929242
1.1929766
1.1930331
1.1930908
1.1931506
1.193213
1.1932781
1.1933456
1.1934157
1.1934882
1.193563
1.1936401
1.1937194
1.1938009
1.1938842
1.1939678
1.1940502
1.1941354
1.1942294
1.1943252
1.1929867
1.1929835
1.1930132
1.1930634
1.1931178
1.1931733
1.1932309
1.1932911
1.193354
1.1934194
1.1934874
1.1935579
1.1936308
1.1937061
1.1937836
1.1938634
1.1939453
1.1940293
1.194114
1.1941974
1.194282
1.1943754
1.1930805
1.1930754
1.193103
1.1931509
1.1932031
1.1932563
1.1933116
1.1933695
1.1934301
1.1934933
1.1935591
1.1936274
1.1936982
1.1937715
1.193847
1.1939249
1.1940049
1.1940871
1.1941712
1.1942565
1.1943411
1.1944257
1.1931745
1.1931681
1.1931937
1.1932394
1.1932892
1.19334
1.193393
1.1934485
1.1935068
1.1935676
1.193631
1.1936971
1.1937656
1.1938367
1.1939102
1.1939861
1.1940643
1.1941447
1.1942273
1.194312
1.1943985
1.1944856
1.1932689
1.1932617
1.1932856
1.1933289
1.1933763
1.1934247
1.1934752
1.1935283
1.193584
1.1936424
1.1937034
1.1937669
1.1938331
1.1939018
1.193973
1.1940467
1.1941227
1.1942011
1.1942817
1.1943644
1.1944492
1.194536
1.1933636
1.1933561
1.1933784
1.1934194
1.1934643
1.1935103
1.1935583
1.1936089
1.1936621
1.1937179
1.1937763
1.1938374
1.193901
1.1939672
1.194036
1.1941073
1.194181
1.1942571
1.1943356
1.1944163
1.1944991
1.1945843
1.1934585
1.1934513
1.1934723
1.193511
1.1935534
1.1935969
1.1936424
1.1936905
1.1937411
1.1937943
1.19385
1.1939084
1.1939694
1.194033
1.1940992
1.1941679
1.1942391
1.1943128
1.1943889
1.1944673
1.1945479
1.194631
1.1935535
1.1935472
1.193567
1.1936034
1.1936433
1.1936844
1.1937274
1.1937729
1.1938209
1.1938714
1.1939245
1.1939802
1.1940385
1.1940993
1.1941628
1.1942288
1.1942974
1.1943685
1.194442
1.1945178
1.194596
1.1946768
1.1936486
1.1936435
1.1936625
1.1936966
1.193734
1.1937726
1.1938132
1.1938561
1.1939015
1.1939494
1.1939998
1.1940527
1.1941082
1.1941663
1.1942269
1.1942901
1.1943559
1.1944243
1.194495
1.1945682
1.1946437
1.194722
1.1937436
1.1937402
1.1937585
1.1937903
1.1938253
1.1938615
1.1938996
1.19394
1.1939828
1.1940281
1.1940757
1.1941259
1.1941786
1.1942338
1.1942916
1.194352
1.1944149
1.1944804
1.1945483
1.1946186
1.1946914
1.1947669
1.1938383
1.193837
1.1938547
1.1938844
1.193917
1.1939508
1.1939865
1.1940245
1.1940647
1.1941073
1.1941523
1.1941997
1.1942496
1.194302
1.1943569
1.1944144
1.1944744
1.1945369
1.1946019
1.1946693
1.1947391
1.1948118
1.1939324
1.1939336
1.193951
1.1939785
1.1940088
1.1940403
1.1940737
1.1941092
1.194147
1.194187
1.1942294
1.1942741
1.1943212
1.1943708
1.1944228
1.1944773
1.1945344
1.1945939
1.1946559
1.1947203
1.194787
1.1948568
1.194026
1.1940298
1.194047
1.1940725
1.1941005
1.1941298
1.1941609
1.1941941
1.1942294
1.194267
1.1943067
1.1943488
1.1943932
1.19444
1.1944892
1.1945408
1.1945949
1.1946514
1.1947104
1.1947717
1.1948354
1.1949022
1.1941187
1.1941254
1.1941425
1.1941661
1.1941919
1.1942191
1.194248
1.1942789
1.1943119
1.194347
1.1943843
1.1944237
1.1944655
1.1945095
1.1945559
1.1946047
1.1946558
1.1947094
1.1947654
1.1948237
1.1948843
1.194948
1.1942104
1.1942202
1.1942373
1.1942591
1.1942827
1.1943079
1.1943347
1.1943635
1.1943942
1.194427
1.1944618
1.1944988
1.1945379
1.1945793
1.194623
1.1946689
1.1947173
1.1947679
1.194821
1.1948762
1.1949338
1.1949944
1.194301
1.194314
1.1943312
1.1943513
1.1943729
1.194396
1.1944209
1.1944476
1.1944762
1.1945067
1.1945392
1.1945737
1.1946104
1.1946492
1.1946902
1.1947335
1.194779
1.1948269
1.194877
1.1949293
1.1949838
1.1950415
1.1943905
1.1944066
1.1944241
1.1944424
1.1944621
1.1944834
1.1945064
1.1945311
1.1945576
1.194586
1.1946162
1.1946485
1.1946828
1.1947191
1.1947576
1.1947983
1.1948411
1.1948862
1.1949335
1.1949829
1.1950345
1.1950891
1.1944787
1.194498
1.1945158
1.1945325
1.1945503
1.1945699
1.194591
1.1946139
1.1946384
1.1946648
1.1946929
1.194723
1.194755
1.194789
1.194825
1.1948631
1.1949034
1.1949458
1.1949904
1.1950371
1.1950858
1.1951375
1.1945657
1.1945881
1.1946062
1.1946214
1.1946375
1.1946553
1.1946748
1.1946959
1.1947186
1.194743
1.1947691
1.1947971
1.1948269
1.1948586
1.1948924
1.1949281
1.1949659
1.1950058
1.1950477
1.1950917
1.1951376
1.1951866
1.1946516
1.1946769
1.1946952
1.1947091
1.1947235
1.1947397
1.1947576
1.194777
1.194798
1.1948205
1.1948448
1.1948707
1.1948985
1.1949281
1.1949596
1.194993
1.1950285
1.1950659
1.1951054
1.1951468
1.1951901
1.1952363
1.1947362
1.1947644
1.194783
1.1947955
1.1948083
1.1948231
1.1948395
1.1948573
1.1948766
1.1948974
1.1949198
1.1949439
1.1949698
1.1949973
1.1950267
1.195058
1.1950912
1.1951264
1.1951635
1.1952024
1.1952431
1.1952867
1.1948199
1.1948507
1.1948696
1.1948807
1.1948921
1.1949055
1.1949205
1.1949368
1.1949545
1.1949737
1.1949944
1.1950167
1.1950407
1.1950663
1.1950938
1.195123
1.195154
1.195187
1.1952218
1.1952584
1.1952967
1.1953378
1.1949026
1.1949359
1.1949549
1.1949649
1.1949749
1.194987
1.1950006
1.1950155
1.1950317
1.1950493
1.1950684
1.1950891
1.1951113
1.1951352
1.1951607
1.195188
1.195217
1.1952479
1.1952806
1.195315
1.1953509
1.1953896
1.1949846
1.1950201
1.1950392
1.1950481
1.1950567
1.1950676
1.1950799
1.1950935
1.1951083
1.1951245
1.1951421
1.1951611
1.1951817
1.1952038
1.1952276
1.195253
1.1952801
1.1953091
1.1953397
1.195372
1.1954057
1.1954421
1.195066
1.1951034
1.1951227
1.1951304
1.1951378
1.1951475
1.1951586
1.1951709
1.1951844
1.1951992
1.1952154
1.1952329
1.1952519
1.1952724
1.1952945
1.1953182
1.1953435
1.1953705
1.1953993
1.1954295
1.1954612
1.1954954
1.1951471
1.1951861
1.1952053
1.195212
1.1952183
1.1952268
1.1952368
1.1952479
1.1952602
1.1952736
1.1952884
1.1953046
1.1953221
1.1953411
1.1953615
1.1953835
1.1954072
1.1954324
1.1954594
1.1954877
1.1955174
1.1955494
1.195228
1.1952684
1.1952875
1.1952931
1.1952983
1.1953057
1.1953147
1.1953246
1.1953357
1.1953479
1.1953614
1.1953762
1.1953923
1.1954098
1.1954288
1.1954492
1.1954712
1.1954948
1.19552
1.1955465
1.1955743
1.1956044
1.1953089
1.1953504
1.1953692
1.1953739
1.1953781
1.1953845
1.1953924
1.1954013
1.1954112
1.1954222
1.1954345
1.195448
1.1954627
1.1954789
1.1954964
1.1955153
1.1955358
1.1955578
1.1955813
1.1956061
1.1956321
1.1956602
1.1953902
1.1954323
1.1954509
1.1954546
1.1954578
1.1954632
1.1954701
1.1954779
1.1954868
1.1954967
1.1955077
1.19552
1.1955335
1.1955483
1.1955644
1.1955819
1.1956009
1.1956214
1.1956434
1.1956665
1.1956907
1.195717
1.1954718
1.1955144
1.1955325
1.1955354
1.1955376
1.1955421
1.195548
1.1955549
1.1955626
1.1955715
1.1955814
1.1955925
1.1956047
1.1956182
1.1956331
1.1956492
1.1956668
1.1956858
1.1957062
1.1957278
1.1957504
1.1957749
1.1955542
1.1955969
1.1956145
1.1956165
1.1956177
1.1956214
1.1956263
1.1956322
1.195639
1.1956467
1.1956555
1.1956655
1.1956766
1.1956889
1.1957024
1.1957172
1.1957335
1.1957511
1.1957701
1.1957901
1.1958111
1.1958339
1.1956374
1.1956799
1.1956969
1.195698
1.1956984
1.1957011
1.1957052
1.1957101
1.1957159
1.1957226
1.1957304
1.1957392
1.1957492
1.1957603
1.1957726
1.1957862
1.1958011
1.1958173
1.1958349
1.1958535
1.1958729
1.1958942
1.1957217
1.1957637
1.1957799
1.1957802
1.1957797
1.1957816
1.1957848
1.1957888
1.1957936
1.1957993
1.195806
1.1958138
1.1958226
1.1958326
1.1958437
1.1958561
1.1958697
1.1958846
1.1959009
1.1959181
1.195936
1.1959557
1.1958072
1.1958483
1.1958637
1.1958632
1.1958619
1.1958629
1.1958652
1.1958683
1.1958722
1.1958769
1.1958826
1.1958893
1.1958971
1.1959059
1.1959159
1.195927
1.1959394
1.1959531
1.1959681
1.1959839
1.1960004
1.1960185
1.1958939
1.195934
1.1959485
1.1959471
1.195945
1.1959452
1.1959467
1.1959488
1.1959518
1.1959556
1.1959603
1.195966
1.1959726
1.1959804
1.1959892
1.1959992
1.1960104
1.1960229
1.1960366
1.196051
1.1960661
1.1960828
1.1959821
1.1960209
1.1960343
1.1960322
1.1960293
1.1960286
1.1960292
1.1960305
1.1960325
1.1960354
1.1960391
1.1960438
1.1960494
1.1960561
1.1960638
1.1960727
1.1960827
1.196094
1.1961064
1.1961196
1.1961333
1.1961485
1.1960718
1.196109
1.1961214
1.1961184
1.1961147
1.1961133
1.196113
1.1961134
1.1961145
1.1961164
1.1961192
1.1961228
1.1961275
1.1961331
1.1961397
1.1961474
1.1961563
1.1961664
1.1961776
1.1961895
1.1962019
1.1962158
1.1961631
1.1961985
1.1962096
1.1962059
1.1962014
1.1961991
1.196198
1.1961975
1.1961977
1.1961987
1.1962005
1.1962032
1.1962068
1.1962114
1.196217
1.1962236
1.1962314
1.1962403
1.1962503
1.196261
1.1962721
1.1962846
1.196256
1.1962894
1.1962992
1.1962947
1.1962895
1.1962864
1.1962844
1.1962831
1.1962824
1.1962824
1.1962833
1.196285
1.1962876
1.1962911
1.1962957
1.1963012
1.1963078
1.1963156
1.1963245
1.1963339
1.1963437
1.1963549
1.1963505
1.1963817
1.1963902
1.1963848
1.1963789
1.196375
1.1963722
1.19637
1.1963684
1.1963675
1.1963674
1.1963682
1.1963698
1.1963723
1.1963758
1.1963803
1.1963858
1.1963925
1.1964001
1.1964084
1.196417
1.1964268
1.1964466
1.1964755
1.1964826
1.1964764
1.1964697
1.196465
1.1964614
1.1964583
1.1964558
1.196454
1.196453
1.1964528
1.1964534
1.1964549
1.1964574
1.1964608
1.1964652
1.1964708
1.1964773
1.1964844
1.1964918
1.1965004
1.1965444
1.1965707
1.1965763
1.1965694
1.196562
1.1965565
1.196552
1.196548
1.1965446
1.1965419
1.19654
1.1965388
1.1965385
1.196539
1.1965404
1.1965428
1.1965461
1.1965506
1.196556
1.1965619
1.1965681
1.1965754
1.1966437
1.1966673
1.1966715
1.1966638
1.1966556
1.1966493
1.196644
1.1966391
1.1966349
1.1966313
1.1966284
1.1966263
1.196625
1.1966245
1.1966249
1.1966262
1.1966285
1.1966319
1.1966362
1.196641
1.1966459
1.1966521
1.1967445
1.1967654
1.196768
1.1967595
1.1967506
1.1967435
1.1967373
1.1967316
1.1967265
1.196722
1.1967182
1.1967151
1.1967129
1.1967114
1.1967108
1.1967111
1.1967123
1.1967146
1.1967178
1.1967215
1.1967253
1.1967303
1.1968468
1.1968647
1.1968657
1.1968565
1.1968469
1.196839
1.196832
1.1968254
1.1968194
1.196814
1.1968093
1.1968053
1.1968021
1.1967997
1.196798
1.1967973
1.1967975
1.1967988
1.1968009
1.1968034
1.1968061
1.1968099
1.1969504
1.1969653
1.1969647
1.1969547
1.1969445
1.1969358
1.1969279
1.1969205
1.1969136
1.1969074
1.1969017
1.1968968
1.1968926
1.1968892
1.1968866
1.1968849
1.1968841
1.1968843
1.1968853
1.1968867
1.1968883
1.196891
1.1970552
1.1970671
1.1970649
1.1970542
1.1970432
1.1970337
1.197025
1.1970168
1.197009
1.1970019
1.1969954
1.1969896
1.1969844
1.1969801
1.1969765
1.1969738
1.1969719
1.1969711
1.1969711
1.1969714
1.1969719
1.1969734
1.1971611
1.1971699
1.1971661
1.1971547
1.197143
1.1971328
1.1971232
1.1971142
1.1971056
1.1970976
1.1970902
1.1970834
1.1970774
1.1970721
1.1970675
1.1970638
1.197061
1.1970591
1.197058
1.1970573
1.1970567
1.1970572
1.1972681
1.1972737
1.1972683
1.1972561
1.1972438
1.1972328
1.1972225
1.1972126
1.1972031
1.1971943
1.197186
1.1971784
1.1971714
1.1971652
1.1971597
1.197155
1.1971512
1.1971483
1.1971462
1.1971444
1.1971428
1.1971422
1.1973759
1.1973783
1.1973713
1.1973584
1.1973455
1.1973337
1.1973226
1.1973119
1.1973016
1.1972919
1.1972828
1.1972743
1.1972665
1.1972593
1.1972529
1.1972472
1.1972424
1.1972385
1.1972354
1.1972326
1.19723
1.1972284
1.1974844
1.1974836
1.197475
1.1974615
1.1974479
1.1974354
1.1974235
1.197412
1.197401
1.1973904
1.1973805
1.1973711
1.1973624
1.1973543
1.197347
1.1973404
1.1973346
1.1973297
1.1973256
1.1973218
1.1973182
1.1973156
1.1975934
1.1975894
1.1975793
1.1975651
1.197551
1.1975378
1.1975251
1.1975128
1.197501
1.1974896
1.1974789
1.1974686
1.197459
1.1974501
1.1974419
1.1974344
1.1974277
1.1974218
1.1974167
1.1974119
1.1974073
1.1974037
1.1977028
1.1976957
1.197684
1.1976692
1.1976545
1.1976406
1.1976272
1.1976142
1.1976016
1.1975894
1.1975778
1.1975668
1.1975564
1.1975466
1.1975375
1.1975291
1.1975214
1.1975146
1.1975086
1.1975028
1.1974972
1.1974927
1.1978125
1.1978022
1.197789
1.1977737
1.1977584
1.1977438
1.1977297
1.1977159
1.1977026
1.1976897
1.1976773
1.1976655
1.1976542
1.1976436
1.1976336
1.1976243
1.1976158
1.1976081
1.1976011
1.1975944
1.1975879
1.1975824
1.1979222
1.1979089
1.1978942
1.1978782
1.1978624
1.1978472
1.1978324
1.1978179
1.1978038
1.1977902
1.1977771
1.1977645
1.1977525
1.197741
1.1977302
1.1977201
1.1977107
1.1977021
1.1976942
1.1976866
1.1976791
1.1976728
1.1980317
1.1980154
1.1979993
1.1979828
1.1979665
1.1979506
1.1979351
1.19792
1.1979053
1.197891
1.1978771
1.1978638
1.1978509
1.1978387
1.1978271
1.1978161
1.1978059
1.1977964
1.1977876
1.1977791
1.1977708
1.1977636
1.1981409
1.1981216
1.1981041
1.1980872
1.1980704
1.1980539
1.1980378
1.1980221
1.1980067
1.1979917
1.1979771
1.1979631
1.1979495
1.1979365
1.1979241
1.1979124
1.1979013
1.197891
1.1978813
1.197872
1.1978628
1.1978548
1.1982496
1.1982275
1.1982086
1.1981912
1.198174
1.198157
1.1981403
1.1981239
1.1981079
1.1980922
1.198077
1.1980623
1.198048
1.1980343
1.1980212
1.1980087
1.1979968
1.1979857
1.1979752
1.197965
1.197955
1.1979462
1.1983575
1.1983327
1.1983126
1.1982947
1.1982771
1.1982596
1.1982423
1.1982253
1.1982087
1.1981925
1.1981767
1.1981613
1.1981464
1.198132
1.1981181
1.1981048
1.1980922
1.1980803
1.198069
1.198058
1.1980473
1.1980377
1.1984645
1.1984371
1.1984157
1.1983975
1.1983795
1.1983615
1.1983437
1.1983262
1.1983091
1.1982923
1.1982759
1.1982599
1.1982443
1.1982292
1.1982147
1.1982007
1.1981874
1.1981747
1.1981627
1.1981509
1.1981395
1.1981292
1.1985705
1.1985405
1.198518
1.1984994
1.1984811
1.1984626
1.1984444
1.1984264
1.1984087
1.1983914
1.1983744
1.1983579
1.1983417
1.198326
1.1983109
1.1982962
1.1982822
1.1982688
1.198256
1.1982435
1.1982314
1.1982204
1.198675
1.1986427
1.1986192
1.1986002
1.1985816
1.1985628
1.1985441
1.1985257
1.1985075
1.1984897
1.1984722
1.1984551
1.1984384
1.1984222
1.1984064
1.1983911
1.1983765
1.1983624
1.1983489
1.1983357
1.1983229
1.1983112
1.1987781
1.1987435
1.198719
1.1986998
1.1986809
1.1986618
1.1986427
1.1986239
1.1986053
1.198587
1.1985691
1.1985515
1.1985343
1.1985175
1.1985012
1.1984853
1.19847
1.1984553
1.1984411
1.1984273
1.1984138
1.1984016
1.1988795
1.1988429
1.1988174
1.198798
1.1987789
1.1987594
1.19874
1.1987208
1.1987019
1.1986832
1.1986648
1.1986468
1.1986291
1.1986118
1.198595
1.1985786
1.1985627
1.1985474
1.1985326
1.1985181
1.1985041
1.1984912
1.198979
1.1989404
1.1989142
1.1988945
1.1988753
1.1988556
1.1988358
1.1988163
1.1987971
1.198778
1.1987593
1.1987408
1.1987227
1.198705
1.1986876
1.1986707
1.1986543
1.1986384
1.1986231
1.198608
1.1985934
1.19858
1.1990764
1.1990361
1.1990091
1.1989893
1.1989699
1.19895
1.19893
1.1989102
1.1988907
1.1988713
1.1988523
1.1988335
1.198815
1.1987968
1.198779
1.1987617
1.1987448
1.1987284
1.1987124
1.1986969
1.1986818
1.1986679
1.1991715
1.1991297
1.199102
1.1990821
1.1990627
1.1990426
1.1990224
1.1990024
1.1989826
1.198963
1.1989436
1.1989245
1.1989057
1.1988872
1.198869
1.1988512
1.1988339
1.198817
1.1988006
1.1987845
1.1987689
1.1987545
1.1992642
1.199221
1.1991928
1.1991728
1.1991533
1.1991331
1.1991127
1.1990926
1.1990726
1.1990528
1.1990331
1.1990138
1.1989946
1.1989758
1.1989573
1.1989392
1.1989214
1.1989041
1.1988872
1.1988707
1.1988547
1.1988399
1.1993542
1.1993099
1.1992812
1.1992612
1.1992417
1.1992214
1.1992009
1.1991806
1.1991605
1.1991405
1.1991207
1.1991011
1.1990817
1.1990627
1.1990439
1.1990254
1.1990073
1.1989896
1.1989723
1.1989553
1.1989389
1.1989237
1.1994414
1.1993961
1.1993671
1.199347
1.1993276
1.1993073
1.1992868
1.1992664
1.1992461
1.199226
1.1992061
1.1991863
1.1991668
1.1991475
1.1991284
1.1991097
1.1990913
1.1990732
1.1990555
1.1990382
1.1990215
1.1990059
1.1995256
1.1994796
1.1994503
1.1994303
1.1994109
1.1993906
1.1993701
1.1993497
1.1993294
1.1993092
1.1992892
1.1992693
1.1992496
1.1992301
1.1992109
1.1991919
1.1991732
1.1991549
1.1991369
1.1991193
1.1991022
1.1990863
1.1996066
1.1995601
1.1995306
1.1995107
1.1994914
1.1994712
1.1994507
1.1994303
1.1994101
1.1993899
1.1993698
1.1993498
1.19933
1.1993104
1.199291
1.1992719
1.199253
1.1992344
1.1992161
1.1991982
1.1991809
1.1991647
1.1996844
1.1996375
1.1996079
1.1995882
1.1995691
1.199549
1.1995286
1.1995082
1.199488
1.1994678
1.1994477
1.1994277
1.1994079
1.1993882
1.1993687
1.1993494
1.1993304
1.1993116
1.1992931
1.199275
1.1992574
1.199241
1.1997587
1.1997117
1.1996821
1.1996625
1.1996436
1.1996237
1.1996034
1.1995832
1.199563
1.1995429
1.1995229
1.1995029
1.1994831
1.1994634
1.1994438
1.1994244
1.1994053
1.1993863
1.1993677
1.1993493
1.1993316
1.199315
1.1998294
1.1997825
1.1997531
1.1997337
1.199715
1.1996952
1.1996751
1.199655
1.199635
1.199615
1.1995951
1.1995752
1.1995554
1.1995357
1.1995162
1.1994967
1.1994775
1.1994585
1.1994397
1.1994212
1.1994033
1.1993865
1.1998964
1.1998498
1.1998205
1.1998014
1.199783
1.1997634
1.1997436
1.1997237
1.1997039
1.199684
1.1996642
1.1996445
1.1996248
1.1996051
1.1995856
1.1995662
1.1995469
1.1995279
1.199509
1.1994904
1.1994724
1.1994555
1.1999596
1.1999135
1.1998845
1.1998656
1.1998475
1.1998283
1.1998086
1.199789
1.1997694
1.1997498
1.1997302
1.1997105
1.199691
1.1996715
1.199652
1.1996327
1.1996134
1.1995944
1.1995754
1.1995568
1.1995388
1.1995218
1.200019
1.1999734
1.1999449
1.1999263
1.1999085
1.1998895
1.1998702
1.1998509
1.1998315
1.1998122
1.1997928
1.1997734
1.199754
1.1997346
1.1997153
1.1996961