/*--------------------------------*- C++ -*----------------------------------*\
| =========                 |                                                 |
| \\      /  F ield         | OpenFOAM: The Open Source CFD Toolbox           |
|  \\    /   O peration     | Version:  2406                                  |
|   \\  /    A nd           | Website:  www.openfoam.com                      |
|    \\/     M anipulation  |                                                 |
\*---------------------------------------------------------------------------*/
FoamFile
{
    version     2.0;
    format      ascii;
    arch        "LSB;label=32;scalar=64";
    class       volScalarField;
    location    "0.05";
    object      k;
}
// * * * * * * * * * * * * * * * * * * * * * * * * * * * * * * * * * * * * * //

dimensions      [0 2 -2 0 0 0 0];

internalField   nonuniform List<scalar> 
2065
(
224.02253
230.29748
235.75041
240.64056
245.14401
249.30687
253.16541
256.91651
260.13763
263.08383
265.60524
267.66301
269.10601
269.70211
269.37394
267.80076
264.41575
259.17448
252.12679
243.21745
232.60479
220.63995
207.65431
194.008
180.09043
166.20652
152.64842
139.64056
127.37032
115.94449
105.4839
96.046389
87.708909
80.367286
73.992663
68.491114
63.842606
60.030612
57.051467
54.746468
53.021135
51.708143
50.803081
50.084625
49.605361
49.12374
48.769974
48.220089
47.775116
47.007999
46.380058
45.217779
44.390967
42.744293
41.708185
39.577668
38.420703
35.143301
157.68608
170.42159
182.47222
193.81957
204.57091
214.61678
223.96319
232.58599
240.32607
247.44281
253.77625
259.34648
264.08503
267.54113
269.47855
269.02303
266.93413
262.35982
255.23798
245.84618
234.54316
221.80501
208.06986
193.80534
179.42925
165.23545
151.53803
138.53743
126.42821
115.27909
105.18936
96.18826
88.330196
81.495868
75.638543
70.645533
66.478086
63.098461
60.485939
58.46278
56.932251
55.720056
54.840504
54.069562
53.496052
52.860927
52.346666
51.601535
50.978142
49.999717
49.208796
47.842066
46.888129
45.058422
43.931703
41.645697
40.433258
36.983276
94.704281
111.72182
129.5829
147.48367
165.03856
181.56762
196.46889
210.14164
222.18144
232.83168
242.36218
251.11418
259.24558
265.43688
270.13817
272.85585
272.71299
270.88171
265.89421
257.69761
247.16844
234.7843
221.13856
206.70327
191.93943
177.225
162.91069
149.31451
136.59681
124.91864
114.30005
104.80776
96.442597
89.231051
83.041291
77.801586
73.375774
69.70748
66.741773
64.448947
62.642989
61.234128
60.04969
59.126995
58.244684
57.525367
56.698027
55.988292
55.022831
54.198061
52.99402
52.022816
50.443925
49.347556
47.3298
46.100157
43.652684
42.375932
38.75009
64.253653
77.143794
92.755911
110.32704
128.7077
147.23127
165.32806
183.0011
199.77113
215.0169
229.01316
241.60098
252.58869
262.08539
269.58472
275.32773
277.56864
276.66342
273.82142
267.25373
257.58662
245.86403
232.48936
218.01991
203.02071
187.98747
173.30404
159.27841
146.16834
134.09037
123.15271
113.3335
104.66265
97.116862
90.695329
85.248441
80.677246
76.823456
73.620175
71.004936
68.950187
67.273431
65.899815
64.664681
63.629806
62.579683
61.666835
60.612173
59.676305
58.468859
57.423091
55.981519
54.815788
53.018569
51.767497
49.557783
48.215522
45.601884
44.25439
40.449732
59.998329
70.07131
82.165234
96.333363
112.42658
130.18738
148.85604
168.06474
187.25164
205.59864
222.86822
238.54365
251.95257
263.06578
271.54197
277.195
278.46049
276.88407
272.54516
264.53921
253.70646
240.85351
226.65608
211.77202
196.78761
182.07172
167.96767
154.71994
142.53398
131.47912
121.59973
112.83313
105.16647
98.580143
93.029162
88.352426
84.428833
81.086718
78.260414
75.892288
73.967897
72.318088
70.887801
69.523751
68.311046
67.041356
65.892393
64.579697
63.391595
61.924124
60.641124
58.952565
57.580968
55.560877
54.14554
51.741175
50.278842
47.49562
46.072744
42.087238
54.113624
61.090059
69.385513
79.237213
90.631668
103.84424
119.05863
136.13067
154.67923
174.20039
193.75104
212.79808
230.63056
246.3575
258.7761
267.65399
272.96524
273.39385
271.15729
265.45006
256.14899
244.46999
231.19255
217.10562
202.724
188.52504
174.80835
161.88878
149.94871
139.1308
129.45297
120.89346
113.34856
106.79496
101.20282
96.503261
92.530639
89.153629
86.200581
83.619326
81.367821
79.452321
77.722956
76.145795
74.579546
73.129623
71.594902
70.173261
68.576711
67.11495
65.373104
63.840011
61.897482
60.311423
58.065573
56.478847
53.878393
52.290483
49.33551
47.834005
43.666792
52.157339
57.707729
63.962683
71.108469
79.32233
88.806146
99.772984
112.58734
127.32666
143.85477
161.86548
180.72676
199.48966
217.3838
233.2915
246.19232
255.16885
260.03873
259.82497
257.1362
250.81191
241.51806
230.31677
217.91199
204.98128
192.01546
179.4006
167.37673
156.2144
146.04183
136.93447
128.86037
121.7308
115.44569
109.97074
105.27331
101.29048
97.862777
94.862818
92.131299
89.637673
87.361403
85.332219
83.421408
81.614608
79.781228
78.042897
76.204975
74.4806
72.579536
70.827373
68.800484
67.007749
64.80672
63.000183
60.527341
58.764316
55.967594
54.25032
51.122643
49.540392
45.191854
56.126214
61.048069
66.530072
72.70177
79.693374
87.697221
96.966936
107.7706
120.19678
134.2492
149.7087
166.25018
183.01611
199.18907
214.0478
226.15362
234.48268
239.00277
239.0225
236.74859
231.27232
223.28465
213.74069
203.28946
192.46624
181.70612
171.31966
161.5007
152.46321
144.29336
137.00395
130.51458
124.73615
119.55668
114.95268
110.92391
107.42489
104.3153
101.48216
98.785072
96.216799
93.778727
91.522577
89.339614
87.231728
85.076752
83.008103
80.836601
78.786111
76.565105
74.510385
72.191393
70.132666
67.670998
65.640389
62.940936
60.99872
58.006786
56.157885
52.857712
51.193597
46.665286
59.513558
63.674474
68.292163
73.477642
79.34789
86.062452
93.816572
102.81363
113.11078
124.73438
137.6292
151.40153
165.53887
179.27557
192.01694
202.67338
210.64633
215.06879
216.1534
214.97583
211.37597
205.69883
198.66056
190.87029
182.70283
174.53192
166.61154
159.10616
152.17315
145.86079
140.16873
135.0029
130.25011
125.83694
121.77501
118.10175
114.79981
111.7544
108.87031
106.02582
103.23315
100.51199
97.931899
95.401281
92.934319
90.414756
87.983553
85.455955
83.06256
80.511314
78.146299
75.531601
73.203584
70.48143
68.225415
65.301281
63.178814
59.993905
58.012488
54.541121
52.79487
48.089455
58.770317
61.941867
65.365376
69.189907
73.508542
78.412168
84.006404
90.426697
97.806673
106.23185
115.75685
126.41072
137.92919
149.89394
161.6447
172.61121
181.99405
189.82873
194.97303
197.60342
198.25809
196.93874
194.05514
189.67925
184.56973
178.92524
173.08907
167.2773
161.65263
156.34724
151.40168
146.78679
142.42502
138.22421
134.14867
130.24705
126.59369
123.20068
119.97786
116.84528
113.69512
110.5523
107.44922
104.46819
101.53142
98.661581
95.746055
92.929597
90.03101
87.284225
84.397346
81.718459
78.807715
76.209966
73.229643
70.748978
67.603549
65.301433
61.926894
59.813305
56.173071
54.345144
49.466326
60.509721
63.176235
66.079255
69.35173
73.05673
77.251968
82.018144
87.45421
93.656975
100.70898
108.82936
117.98853
128.13312
139.05215
149.97204
160.5812
170.1003
178.56146
185.13327
189.64646
192.43301
193.17805
192.30946
190.17792
187.00952
183.05445
178.69334
174.13838
169.56665
165.09112
160.76406
156.56335
152.42465
148.27798
144.11736
140.01934
136.08583
132.35324
128.75117
125.20991
121.62946
118.04012
114.48139
111.0434
107.65913
104.3565
101.02477
97.809372
94.532054
91.42727
88.203932
85.211448
82.007332
79.142046
75.907876
73.205216
69.843244
67.363569
63.803763
61.559453
57.753626
55.845125
50.797527
60.841955
63.302835
65.985754
69.012068
72.437659
76.314717
80.71088
85.727126
91.499888
98.191873
105.9447
114.8709
124.98579
136.03007
147.63413
159.28099
170.19991
180.32254
188.65536
195.00508
199.36838
201.48842
201.47559
200.49457
198.12997
194.71695
190.75747
186.46256
182.03111
177.57357
173.15445
168.76185
164.34001
159.83171
155.24515
150.67097
146.22728
141.96803
137.83743
133.77145
129.67265
125.57069
121.50732
117.57649
113.71951
109.96706
106.20913
102.58937
98.932089
95.470033
91.913566
88.611256
85.119173
81.990934
78.509061
75.588765
72.016257
69.362429
65.622649
63.250041
59.282762
57.295359
52.084419
59.723727
62.300403
65.097718
68.232016
71.762767
75.753198
80.296816
85.534567
91.64499
98.845089
107.29291
117.20784
128.54383
141.14199
154.62588
168.28725
181.3621
193.67727
203.44841
211.13953
216.18972
218.77743
218.81692
217.85684
215.34473
211.60788
207.24173
202.46697
197.50661
192.48118
187.4657
182.45785
177.40543
172.25502
167.01605
161.78212
156.67864
151.77196
147.01742
142.35407
137.68371
133.03107
128.43669
123.99532
119.65486
115.44709
111.26206
107.23982
103.20712
99.393253
95.510678
91.905411
88.13319
84.748703
81.026892
77.894829
74.118912
71.29549
67.381862
64.884243
60.760413
58.696283
53.328134
57.061895
60.067782
63.301103
66.876403
70.864675
75.348386
80.459408
86.396793
93.412613
101.79517
111.76581
123.50995
136.79591
151.6605
167.45108
183.87216
199.16464
212.98202
223.61589
231.88043
237.07845
239.70253
239.52097
238.17406
235.10078
230.75155
225.67061
220.10886
214.32149
208.45348
202.59609
196.76221
190.90422
184.97
178.96464
172.97886
167.14068
161.52623
156.10072
150.80573
145.54103
140.32395
135.19166
130.23768
125.41542
120.75672
116.1515
111.73496
107.33634
103.18021
98.981743
95.083074
91.040636
87.408453
83.455874
80.119227
76.148003
73.160539
69.079924
66.461322
62.186527
60.048272
54.529612
53.039008
56.621677
60.477032
64.706981
69.388914
74.629188
80.612948
87.597743
95.900425
105.84209
117.64674
131.39599
146.97489
164.49398
182.34046
200.64833
217.15747
231.22272
242.39829
250.83717
256.32512
259.21955
259.14218
257.66437
254.32396
249.56756
243.9191
237.65177
231.06792
224.35511
217.6334
210.94266
204.24767
197.50244
190.70887
183.95401
177.36732
171.03425
164.93037
159.00093
153.14399
147.36864
141.70752
136.25173
130.95962
125.86256
120.85054
116.05314
111.30225
106.81683
102.31535
98.135095
93.834116
89.964348
85.791354
82.258413
78.100809
74.955699
70.715592
67.980655
63.561079
61.35167
55.689642
52.080878
56.567745
61.505957
66.987424
73.145934
80.203503
88.467042
98.305619
110.01493
123.80462
139.59394
157.32933
176.4938
195.2555
213.12877
229.37811
243.22678
254.82678
263.97672
270.33365
274.1518
275.02475
273.9029
270.99793
266.35163
260.55385
253.89928
246.75829
239.37751
231.91928
224.46295
216.99909
209.49639
201.95882
194.47213
187.16829
180.14296
173.38349
166.84089
160.41305
154.101
147.9326
141.99593
136.25403
130.73772
125.33749
120.17685
115.09067
110.29169
105.50222
101.05404
96.507611
92.411646
88.029544
84.309504
79.975113
76.679458
72.287879
69.441755
64.884086
62.606815
56.808671
46.700197
51.601874
57.125752
63.413044
70.615611
78.991242
88.910796
100.66021
114.37714
130.06847
147.70608
166.31008
184.87831
202.78252
219.08789
234.24544
247.96535
260.15743
270.46566
278.4015
283.78008
286.37754
286.17629
284.30861
280.35716
274.87868
268.21846
260.83516
253.03804
245.04202
236.97599
228.86755
220.70877
212.51219
204.36589
196.4063
188.74052
181.36942
174.2522
167.28863
160.4727
153.82774
147.43866
141.27314
135.36162
129.59566
124.09264
118.69065
113.59597
108.53522
103.83418
99.056471
94.746696
90.167521
86.270295
81.769224
78.330675
73.796062
70.844292
66.155629
63.814051
57.886974
41.116427
46.239989
52.338162
59.582751
68.24061
78.490107
90.642406
104.91173
120.569
137.2866
155.40083
173.03784
189.90821
205.6837
220.7002
235.03853
248.74597
261.62284
273.11696
282.63986
289.7031
294.07563
295.40124
294.43688
291.66117
286.8166
280.44376
273.09518
265.12524
256.79886
248.29613
239.68749
230.99439
222.24336
213.52809
204.99121
196.75212
188.82669
181.1845
173.72947
166.44998
159.36541
152.55759
145.99886
139.71965
133.61322
127.79094
122.09444
116.72343
111.40924
106.47144
101.47739
96.966921
92.203222
88.139264
83.481981
79.908595
75.239689
72.188104
67.375869
64.973753
58.92512
42.48979
49.543086
58.27847
69.150583
82.145806
96.835202
113.06832
129.59813
145.91476
162.63717
178.42591
193.38014
207.5612
221.64072
235.90054
250.19419
263.82956
276.12556
286.56282
294.62835
300.12163
302.76993
302.50664
300.76011
296.6893
290.73128
283.59183
275.63053
267.14677
258.36373
249.3932
240.28752
231.09004
221.90199
212.87297
204.13482
195.71919
187.60774
179.71065
172.01223
164.52865
157.3389
150.41998
143.80278
137.38281
131.26584
125.29722
119.67023
114.12117
108.96336
103.76835
99.070787
94.135416
89.915539
85.112739
81.412855
76.61858
73.473209
68.54506
66.086327
59.923613
169.30983
161.77636
154.53146
147.60697
140.90123
134.51481
128.29694
122.43477
116.66971
111.30896
105.92858
101.05775
95.963664
91.598878
86.661337
82.843502
77.932818
74.699821
69.663561
67.152227
60.882917
508.99001
474.50871
377.45938
451.35061
505.678
532.69188
537.13329
522.7554
495.44848
461.48264
299.53537
371.21192
440.23965
491.7787
517.77048
522.07361
507.97477
481.17005
447.7584
298.57201
364.54265
428.69401
477.34746
502.19504
506.28896
492.46771
466.18452
433.37676
297.38828
357.58456
416.82659
462.47334
486.02484
489.82221
476.26881
450.52422
418.36645
295.95031
350.42584
404.7697
447.24058
469.33112
472.7365
459.42354
434.22953
402.76428
294.43162
343.19322
392.57025
431.74672
452.20982
455.13526
442.00476
417.36319
386.63726
292.78642
335.89304
380.32668
416.08407
434.75237
437.09114
424.06767
399.98083
370.04379
291.13876
328.68869
368.17169
400.35755
417.05046
418.68317
405.69974
382.16099
353.05398
289.29687
321.56236
356.1327
384.63686
399.19466
400.00566
387.00108
363.998
335.75373
287.4216
314.5538
344.2734
368.99191
381.25923
381.15257
368.06105
345.58221
318.23114
285.46269
307.68922
332.61612
353.44336
363.40904
362.20574
348.97213
327.01049
300.58159
283.27793
300.8719
321.12803
338.03722
345.68668
343.26182
329.83304
308.38479
282.90503
280.78258
294.02251
309.76126
322.78434
328.12838
324.40477
310.74472
289.81316
265.30916
277.75979
286.98422
298.43821
307.6876
310.76894
305.71268
291.80871
271.40716
247.90571
274.12179
279.67518
287.10954
292.72534
293.64602
287.2704
273.13289
253.28361
230.81095
269.68687
271.95316
275.66544
278.0471
276.77979
269.16012
254.82914
235.56511
214.14727
264.13853
263.70871
264.06313
263.71523
260.25023
251.48056
237.01126
218.36839
198.02556
257.37942
254.7866
252.49274
249.57896
244.13467
234.33632
219.79426
201.80753
182.55283
249.29242
245.21202
240.83401
235.71804
228.53179
217.83405
203.28018
185.96975
167.79593
239.92772
234.94405
229.06993
222.19526
213.54315
202.09208
187.59098
170.97301
153.86512
229.29875
223.94517
217.17535
209.04796
199.25146
187.20448
172.80906
156.87807
140.79808
217.61628
212.30599
205.16587
196.29192
185.71163
173.25902
159.0356
143.78612
128.69112
205.09952
200.14333
193.07361
183.92135
172.91905
160.25834
146.26903
131.68136
117.51111
191.99343
187.58717
180.93316
171.93443
160.88883
148.25174
134.58137
120.64339
107.33724
178.59376
174.80886
168.77366
160.25126
149.5032
137.13444
123.89291
110.60899
98.112065
165.17526
162.02822
156.72826
148.90985
138.74121
126.87417
114.18597
101.57863
89.849528
151.97379
149.40195
144.84976
137.85543
128.46953
117.30863
105.30639
93.41912
82.435578
139.21155
137.12385
133.26821
127.12629
118.63657
108.33055
97.13186
86.018398
75.777095
127.05432
125.3298
122.06553
116.72473
109.15469
99.780574
89.466472
79.174588
69.682852
115.63028
114.14834
111.35162
106.71812
100.029
91.600683
82.207753
72.765306
64.029207
105.0669
103.7111
101.25088
97.196013
91.294206
83.766189
75.28347
66.690271
58.704916
95.452809
94.133224
91.899512
88.312769
83.102884
76.406699
68.791161
61.018058
53.758025
86.882222
85.519824
83.408603
80.174102
75.550082
69.604917
62.801285
55.809057
49.241821
79.260085
77.789373
75.719635
72.747224
68.61843
63.345488
57.292136
51.03366
45.121337
72.567048
70.926127
68.805671
65.978763
62.226224
57.524131
52.142883
46.561119
41.262161
66.722113
64.860298
62.607989
59.826262
56.342101
52.103124
47.303126
42.328971
37.593603
61.722064
59.605954
57.155562
54.319055
50.983507
47.093182
42.777096
38.3335
34.10424
57.569649
55.184133
52.485361
49.505891
46.20985
42.557512
38.624843
34.630941
30.846729
54.278916
51.626952
48.649709
45.457358
42.098882
38.569065
34.911933
31.27773
27.867992
51.714391
48.825476
45.571791
42.125654
38.622238
35.115318
31.63941
28.283818
25.184454
49.791397
46.710447
43.205308
39.489759
35.778526
32.198829
28.798314
25.627221
22.765323
48.357856
45.152541
41.456988
37.501906
33.561621
29.840721
26.431677
23.364472
20.668678
47.397697
44.128823
40.304776
36.151938
31.97988
28.063457
24.555223
21.498687
18.890883
46.698437
43.441707
39.580843
35.322127
30.981694
26.879396
23.228384
20.108157
17.512879
46.27931
43.077359
39.234211
34.928683
30.467143
26.196207
22.383841
19.155568
16.517417
45.920632
42.843275
39.117826
34.894704
30.444374
26.097486
22.143767
18.757664
15.990833
45.696737
42.749806
39.148081
35.014649
30.60618
26.255781
22.265786
18.824533
15.99321
45.315695
42.544157
39.136471
35.186658
30.918589
26.631919
22.625575
19.118041
16.211559
45.02538
42.415352
39.191762
35.44393
31.354978
27.19867
23.25691
19.745289
16.77641
44.448362
42.038366
39.044994
35.527124
31.658919
27.687685
23.87688
20.438366
17.495496
43.964035
41.705318
38.89063
35.578529
31.928343
28.15152
24.490141
21.149225
18.256968
42.989141
40.928474
38.354359
35.30141
31.888243
28.328297
24.845736
21.635407
18.826985
42.274881
40.335141
37.901056
35.005257
31.765071
28.371064
25.043787
21.959749
19.239321
40.79684
39.035226
36.8225
34.181564
31.206508
28.051243
24.901455
21.942652
19.318224
39.843964
38.176981
36.074241
33.553649
30.702534
27.671008
24.641804
21.789957
19.240442
37.855232
36.337668
34.420764
32.116607
29.499536
26.702597
23.891092
21.224376
18.825059
36.754891
35.30893
33.478406
31.272878
28.761511
26.070193
23.357353
20.778463
18.455828
33.632575
32.346353
30.717422
28.75153
26.506107
24.089725
21.642915
19.307047
17.195543
436.75208
392.93868
338.90569
270.19599
177.08161
59.518275
424.24453
381.02955
327.81719
260.41148
169.74178
56.773887
411.10118
368.57574
316.31749
250.40894
162.41927
54.002215
397.36803
355.61485
304.44429
240.22104
155.11269
51.231233
383.07007
342.19095
292.25177
229.89254
147.84875
48.47453
368.25338
328.35438
279.78519
219.45353
140.62322
45.74844
352.98411
314.16383
267.09385
208.93885
133.44947
43.058241
337.3222
299.67803
254.22734
198.37665
126.32314
40.410197
321.33251
284.95593
241.23305
187.79516
119.24837
37.803229
305.09212
270.06415
228.16284
177.22427
112.22891
35.237771
288.68208
255.07147
215.06745
166.69203
105.27124
32.712232
272.19184
240.05625
202.0088
156.23983
98.39684
30.228452
255.71436
225.09863
189.04833
145.90673
91.625038
27.790372
239.35189
210.29066
176.2639
135.75436
85.001597
25.407789
223.20987
195.72583
163.73161
125.83733
78.55833
23.093639
207.39868
181.50484
151.53977
116.23068
72.359133
20.86681
192.03477
167.73408
139.78106
107.01236
66.470293
18.756293
177.21943
154.50407
128.53604
98.25593
60.95204
16.789235
163.05034
141.90131
117.87489
90.00154
55.775891
14.97039
149.5709
129.94103
107.77641
82.179698
50.817158
13.260027
136.88246
118.71474
98.322459
74.870156
46.187168
11.673514
125.00152
108.22054
89.498338
68.057726
41.890623
10.246723
114.01976
98.546928
81.391678
61.830229
38.008388
9.1150965
103.88709
89.627678
73.921417
56.09328
34.431903
8.1732301
94.680015
81.535864
67.157285
50.911553
31.211856
7.3701364
86.340161
74.207237
61.024783
46.1971
28.249352
6.6710708
78.890872
67.672773
55.564008
42.005867
25.633044
6.0589613
72.232909
61.844781
50.69669
38.268009
23.297658
5.518133
66.292962
56.669326
46.387269
34.964244
21.235537
5.0425699
60.896874
51.993126
42.505954
31.990649
19.373585
4.6211874
55.92966
47.716753
38.975038
29.296575
17.694647
4.248876
51.279208
43.734464
35.701652
26.808046
16.150823
3.9194881
46.979693
40.071027
32.705577
24.543443
14.762081
3.6358205
43.079688
36.7714
30.028153
22.539456
13.556638
3.4021552
39.542106
33.79924
27.636347
20.768457
12.514305
3.2133054
36.233711
31.027574
25.415252
19.134881
11.568457
3.0543465
33.079008
28.379476
23.290915
17.572891
10.668949
2.9119967
30.059831
25.83141
21.236811
16.056945
9.7978256
2.7795403
27.225017
23.427495
19.291325
14.617829
8.9749798
2.6578645
24.612431
21.196819
17.475124
13.268628
8.2068992
2.5470936
22.243076
19.163168
15.812569
12.030545
7.5045911
2.4466391
20.080475
17.287089
14.264155
10.867657
6.8403401
2.3508507
18.180838
15.62071
12.876215
9.8182755
6.2404805
2.2604398
16.532563
14.147144
11.629978
8.8641821
5.6885452
2.1737693
15.213946
12.930908
10.571127
8.0341774
5.2033103
2.088514
14.222714
11.988653
9.7270784
7.351759
4.7980234
2.0071331
13.606423
11.326581
9.0837291
6.8040235
4.4552634
1.9282959
13.519588
11.134293
8.7981915
6.4832075
4.2036412
1.8580503
13.67061
11.214802
8.8035631
6.3774496
3.9565785
1.7893148
14.133648
11.543385
8.9891582
6.4381671
3.8443085
1.7336606
14.831141
12.163069
9.4640942
6.6864905
3.8196954
1.688726
15.601325
12.897366
10.117613
7.176224
3.9567312
1.6622939
16.21375
13.51007
10.685263
7.6223414
4.1443231
1.6413517
16.678022
13.991334
11.150002
8.0164836
4.3568278
1.6176133
16.825718
14.181942
11.36063
8.2210175
4.6106795
1.5846723
16.795254
14.178871
11.377568
8.242934
4.5725158
1.5038238
16.497718
13.972953
11.241703
8.1555673
4.5256815
1.3990304
16.190991
13.719792
11.04369
8.0113489
4.3810528
1.2907899
15.117949
12.826541
10.32949
7.4766877
4.0460257
1.1141718
)
;

boundaryField
{
    Side1
    {
        type            empty;
    }
    Inlet
    {
        type            inletOutlet;
        inletValue      nonuniform List<scalar> 0();
        value           nonuniform List<scalar> 0();
    }
    Side2
    {
        type            empty;
    }
    Outlet
    {
        type            zeroGradient;
    }
    Botwall
    {
        type            kqRWallFunction;
        value           nonuniform List<scalar> 
59
(
59.518275
56.773887
54.002215
51.231233
48.47453
45.74844
43.058241
40.410197
37.803229
35.237771
32.712232
30.228452
27.790372
25.407789
23.093639
20.86681
18.756293
16.789235
14.97039
13.260027
11.673514
10.246723
9.1150965
8.1732301
7.3701364
6.6710708
6.0589613
5.518133
5.0425699
4.6211874
4.248876
3.9194881
3.6358205
3.4021552
3.2133054
3.0543465
2.9119967
2.7795403
2.6578645
2.5470936
2.4466391
2.3508507
2.2604398
2.1737693
2.088514
2.0071331
1.9282959
1.8580503
1.7893148
1.7336606
1.688726
1.6622939
1.6413517
1.6176133
1.5846723
1.5038238
1.3990304
1.2907899
1.1141718
)
;
    }
    Cyli
    {
        type            kqRWallFunction;
        value           nonuniform List<scalar> 0();
    }
    procBoundary1to0
    {
        type            processor;
        value           nonuniform List<scalar> 
44
(
216.70476
300.13116
144.37305
144.37305
78.926743
78.926743
54.105889
51.835966
51.835966
48.190047
48.190047
47.20994
51.642266
55.662285
55.662285
55.923377
58.002933
58.462384
57.280352
54.345403
47.982148
49.977268
47.982148
42.329823
36.819723
36.947207
36.947207
521.75646
486.79851
383.28623
462.00324
518.96943
546.8917
551.40059
536.75946
536.75946
300.13116
300.13116
448.58072
404.25223
349.51665
279.69443
184.39148
62.211751
)
;
    }
    procBoundary1to3
    {
        type            processor;
        value           nonuniform List<scalar> 
62
(
44.284902
53.187782
63.987913
77.147576
92.104688
107.52814
124.02855
140.78412
156.72098
172.01126
186.39871
200.38851
214.47298
229.15769
243.75428
257.9702
271.25315
283.04606
293.04128
300.89879
306.46148
309.55676
309.68698
308.44938
304.97512
299.41157
292.53142
284.67149
276.14334
267.19838
257.98295
248.57702
239.03856
229.47325
220.03568
210.87072
202.02796
193.50408
185.21759
177.14827
177.14827
173.70827
165.86907
158.332
151.13098
144.16744
137.53704
131.09296
125.0165
119.05443
113.50791
107.95781
102.92775
97.687935
93.189464
88.127781
84.200604
79.182766
75.868373
70.731917
68.172013
61.803319
)
;
    }
}


// ************************************************************************* //
