/*--------------------------------*- C++ -*----------------------------------*\
| =========                 |                                                 |
| \\      /  F ield         | OpenFOAM: The Open Source CFD Toolbox           |
|  \\    /   O peration     | Version:  2406                                  |
|   \\  /    A nd           | Website:  www.openfoam.com                      |
|    \\/     M anipulation  |                                                 |
\*---------------------------------------------------------------------------*/
FoamFile
{
    version     2.0;
    format      ascii;
    arch        "LSB;label=32;scalar=64";
    class       surfaceScalarField;
    location    "0.05";
    object      phi;
}
// * * * * * * * * * * * * * * * * * * * * * * * * * * * * * * * * * * * * * //

dimensions      [1 0 -1 0 0 0 0];

oriented        oriented;

internalField   nonuniform List<scalar> 
4030
(
0.015433224
0.0013619344
0.015663911
0.0014709446
-0.0017010608
0.015838944
0.0016181467
-0.0017925596
0.015960555
0.001812937
-0.0019338722
0.016023667
0.0020644136
-0.0021267788
0.016027761
0.0023845789
-0.0023878411
0.015963723
0.0027861373
-0.0027211704
0.015854362
0.0032261909
-0.00311578
0.015690115
0.0037248683
-0.0035594497
0.01545535
0.0043109874
-0.0040749278
0.015199617
0.0048523846
-0.0045952375
0.01492782
0.005369955
-0.0050966315
0.014659037
0.0058021807
-0.0055317621
0.014404475
0.0061315752
-0.0058752645
0.014177702
0.0063270388
-0.0060983885
0.013984882
0.0063857005
-0.0061908531
0.013827658
0.0063159976
-0.0061565657
0.013704535
0.0061420329
-0.0060164837
0.013614727
0.0058970562
-0.0058045673
0.013562832
0.0055701833
-0.0055153252
0.013536559
0.0052355852
-0.0052060061
0.013533883
0.0049018387
-0.0048955168
0.013562313
0.0045594838
-0.0045838957
0.013619672
0.0041678213
-0.0042207567
0.013697839
0.0038344485
-0.0039077509
0.013800102
0.0034597467
-0.0035566442
0.013920981
0.0031256034
-0.003240527
0.014059458
0.0028009191
-0.002932727
0.014214614
0.0025391036
-0.0026867696
0.014382348
0.0023177673
-0.0024770726
0.014564943
0.0021605281
-0.0023336535
0.014764366
0.0019930083
-0.0021819539
0.014982088
0.0018033246
-0.0020092419
0.015218028
0.0015860704
-0.0018086843
0.015472375
0.0013327208
-0.0015722259
0.015744831
0.0010988488
-0.001354772
0.01603599
0.00087748399
-0.0011503389
0.016346687
0.00066885701
-0.00095943506
0.016677448
0.00045319622
-0.00076190937
0.017028023
0.00020355979
-0.00053014058
0.017397842
-4.9993799e-05
-0.00029388877
0.017785739
-0.00031481553
-4.52913e-05
0.018191394
-0.00057090269
0.0001947035
0.018613387
-0.00083267514
0.00044161367
0.01905187
-0.0010822127
0.00067587841
0.019506716
-0.0013234895
0.00090170729
0.019979005
-0.0015575747
0.0011190303
0.02046771
-0.0017496652
0.0012953604
0.020977018
-0.0019145728
0.0014401298
0.021507352
-0.0020867194
0.0015904327
0.022064493
-0.0022198657
0.0016939964
0.02263661
-0.0022145064
0.0016708395
0.02323454
-0.0023350455
0.0017536594
0.023849309
-0.0023433047
0.0017187135
0.024499519
-0.0023166597
0.0016492323
0.025168335
-0.0019683049
0.001285293
0.025912275
-0.0021150471
0.0013689511
-0.0012624293
0.00053516928
0.012852421
0.00083677238
0.013299012
0.0010249629
0.01367556
0.0012422628
0.013984681
0.0015045451
0.014223597
0.0018263068
0.014393468
0.0022156135
0.014496903
0.0026837185
0.014522587
0.0032016475
0.014472409
0.0037763214
0.014369539
0.0044152598
0.014234428
0.0049890176
0.01406293
0.005543082
0.013886736
0.0059801084
0.013719126
0.0063010302
0.013576536
0.0064716075
0.013465337
0.0064990335
0.013388045
0.006395614
0.013345062
0.0061875725
0.013336559
0.005908384
0.013365726
0.0055441414
0.013416458
0.0051883408
0.01348915
0.0048329878
0.013592004
0.0044608614
0.013714443
0.0040500378
0.013853803
0.0037002121
0.014013383
0.0033058214
0.014188761
0.0029565067
0.014376275
0.0026204258
0.01457667
0.0023465865
0.014787711
0.0021155767
0.015011681
0.0019464794
0.015250374
0.001765324
0.01550486
0.0015611687
0.015774982
0.0013298299
0.016060761
0.0010624232
0.016361888
0.00081496078
0.016678541
0.00057988941
0.017011145
0.00035716886
0.017359534
0.00012769687
0.017722875
-0.00013490312
0.018100285
-0.00040055724
0.018490534
-0.00067632567
0.018893277
-0.00094323388
0.019307262
-0.0012147622
0.019732763
-0.0014745978
0.020169818
-0.0017265204
0.020619517
-0.0019725887
0.021081031
-0.0021758683
0.021558545
-0.0023563605
0.022052179
-0.0025455347
0.022567732
-0.002703729
0.023093297
-0.0027110356
0.023639646
-0.0028629261
0.024197431
-0.0029102671
0.024785352
-0.0029223748
0.025386576
-0.0025837982
0.026055878
-0.0027863554
-0.0019084654
0.0078317758
-5.343257e-05
0.0085593718
0.00010979113
0.0092655532
0.00031944612
0.0099341618
0.00057437641
0.010544526
0.00089497546
0.011082921
0.0012887958
0.011542712
0.00175681
0.011918158
0.0023093779
0.012195272
0.0029257675
0.012378409
0.0035945538
0.012495349
0.004299815
0.012539927
0.0049460517
0.012547482
0.0055372407
0.012536402
0.0059930056
0.012523412
0.0063159516
0.012525512
0.0064715746
0.012552418
0.0064743596
0.012607853
0.0063426116
0.012693272
0.0061048317
0.012810821
0.0057937927
0.012952807
0.0054054321
0.01310826
0.005036535
0.013283612
0.0046616622
0.013480349
0.0042685551
0.01368619
0.0038490678
0.013905184
0.0034865793
0.014133713
0.0030832167
0.014372572
0.0027242259
0.0146191
0.0023812451
0.014874136
0.0020997887
0.015136622
0.001862331
0.015409271
0.0016841674
0.015693522
0.0014925885
0.015990104
0.0012774084
0.016298842
0.001035476
0.016619393
0.00075794248
0.016951365
0.0005008747
0.017294607
0.00025639233
0.017649203
2.4212653e-05
0.018014562
-0.00021400613
0.018389527
-0.0004841899
0.018773196
-0.0007565415
0.019164467
-0.0010379977
0.019563206
-0.0013106915
0.01996838
-0.0015871574
0.020380499
-0.0018527191
0.020799733
-0.0021108513
0.021227249
-0.002364554
0.021662374
-0.0025748387
0.022109317
-0.0027667808
0.022567841
-0.002968524
0.023043857
-0.0031476509
0.023525295
-0.0031630259
0.024023014
-0.0033404112
0.02452715
-0.0034227089
0.025056607
-0.0034701634
0.025594489
-0.0031359897
0.026194114
-0.0033878182
-0.0024785028
0.0039794968
-0.00064840107
0.004514043
-0.0005873585
0.0051054467
-0.00048094908
0.0057447407
-0.00031913192
0.0064004428
-8.0546789e-05
0.0070526545
0.00024362109
0.0076893869
0.00065301596
0.0082879562
0.001159302
0.0088289374
0.0017695782
0.0092972161
0.0024587999
0.0096896782
0.0032035355
0.010019375
0.0039716864
0.010279834
0.0046872739
0.010501826
0.005317028
0.01069929
0.0057974256
0.010892798
0.0061244481
0.011093755
0.0062727633
0.011310692
0.006259741
0.011547103
0.0061087322
0.011803481
0.0058512437
0.012078968
0.0055213861
0.012363074
0.0051247417
0.012656132
0.0047472636
0.012955687
0.004366301
0.013260533
0.00396832
0.013564587
0.0035500784
0.013872969
0.0031837751
0.014181985
0.0027803665
0.014493936
0.0024191224
0.014807801
0.0020750249
0.015125018
0.0017911352
0.015445485
0.0015514545
0.015772413
0.0013679468
0.016106674
0.0011702861
0.016448688
0.00094867741
0.016798268
0.00070072987
0.017154612
0.00041820157
0.017517347
0.00015660686
0.017886195
-9.2094152e-05
0.018261131
-0.00032843288
0.018641419
-0.00056994914
0.019025875
-0.00084224365
0.019413816
-0.0011160439
0.019804434
-0.0013982367
0.020197886
-0.0016720731
0.020593413
-0.0019491022
0.020991777
-0.002216276
0.021393276
-0.0024766332
0.021799145
-0.0027340662
0.022208865
-0.0029476166
0.022626637
-0.0031472841
0.023051885
-0.0033575623
0.023490614
-0.0035538521
0.023930653
-0.0035734787
0.024382883
-0.0037708254
0.024837033
-0.0038841173
0.025312145
-0.0039641203
0.025791307
-0.0036295
0.02632641
-0.0039245993
-0.002978369
0.0023637613
-0.00092732704
0.0026667721
-0.00088971706
0.0030076823
-0.00082116095
0.0033941541
-0.00070484462
0.0038256676
-0.00051123144
0.0043027803
-0.00023258264
0.0048080467
0.00014875558
0.0053226366
0.00064582821
0.0058350306
0.0012584205
0.0063349258
0.001960269
0.0068169597
0.0027229955
0.0072804117
0.0035098524
0.0077159938
0.0042534195
0.0081420484
0.0048927997
0.0085614361
0.0053799765
0.0089825742
0.0057053749
0.0094116914
0.0058458596
0.0098500218
0.0058238077
0.010298174
0.0056632026
0.010753369
0.0053989389
0.01121127
0.0050666759
0.011661266
0.0046782876
0.012105673
0.004306777
0.01254239
0.0039339202
0.012968837
0.0035466387
0.013381923
0.0031422302
0.013788453
0.0027830137
0.014186022
0.0023891775
0.014578268
0.002033965
0.014965554
0.0016956487
0.015350104
0.0014154381
0.015732634
0.0011788244
0.016116664
0.000994949
0.016502618
0.00079665821
0.016890647
0.00057434949
0.017280414
0.00032619225
0.0176709
4.4790841e-05
0.018061975
-0.00021548857
0.018453523
-0.00046273809
0.018845674
-0.00069771966
0.019237818
-0.00093713998
0.019628982
-0.0012063663
0.020018841
-0.0014768003
0.020406962
-0.0017552845
0.020793814
-0.0020261514
0.021178916
-0.0022999016
0.021563262
-0.0025650854
0.021947259
-0.0028241725
0.022332191
-0.0030819017
0.022717688
-0.0032954414
0.023107896
-0.0034995333
0.023501925
-0.0037147553
0.023905859
-0.0039247971
0.02430748
-0.0039456796
0.024717633
-0.0041578202
0.02512574
-0.0042982991
0.025550921
-0.0044086123
0.025976303
-0.0040692579
0.026452391
-0.0044022123
-0.003414251
0.0010419597
-0.0010571034
0.0011544731
-0.0010392123
0.0012821524
-0.00101671
0.0014340272
-0.000972301
0.0016158454
-0.0008858659
0.0018338563
-0.00072837147
0.0020943586
-0.0004921341
0.0024006964
-0.00015653743
0.0027511818
0.00029649596
0.0031463479
0.00086452603
0.0035828981
0.0015251162
0.0040595921
0.0022478255
0.0045746979
0.0029963958
0.0051219759
0.0037078985
0.0057122492
0.0043043852
0.0063310317
0.0047631753
0.0069731682
0.0050653538
0.0076335951
0.0051877065
0.0083014979
0.0051583734
0.008971481
0.0049959234
0.0096359015
0.0047374992
0.010286164
0.0044197053
0.010912086
0.0040560184
0.011515513
0.0037073876
0.012095539
0.0033583513
0.01264991
0.0029971672
0.013177858
0.0026196686
0.013687732
0.0022790745
0.014178326
0.0019051494
0.014654609
0.0015649793
0.015118004
0.0012403957
0.015571478
0.00097106653
0.016016486
0.00074398561
0.016456726
0.00056602504
0.016892423
0.00037359507
0.017323587
0.00015722496
0.017749797
-8.4447136e-05
0.018170194
-0.00035812099
0.018585154
-0.00061102997
0.01899499
-0.0008512036
0.019400217
-0.0010795886
0.019800527
-0.0013119729
0.020195292
-0.0015735382
0.02058459
-0.0018364247
0.020968369
-0.0021073873
0.021347392
-0.0023717866
0.021721424
-0.0026389973
0.022091652
-0.0028991295
0.02245856
-0.0031539598
0.022823463
-0.0034090372
0.02318612
-0.0036197616
0.02355059
-0.0038254113
0.023915684
-0.004042437
0.024287554
-0.0042631468
0.024653988
-0.0042832402
0.025025744
-0.004505361
0.025392024
-0.0046694068
0.025771975
-0.0048082601
0.026148812
-0.0044604872
0.02657171
-0.0048264936
-0.0037926506
8.5330504e-07
-0.0010784777
7.8774473e-06
-0.0010635017
1.758106e-05
-0.0010482691
2.9147479e-05
-0.0010275865
4.6265376e-05
-0.00098865729
7.3121297e-05
-0.00091189105
0.00012208484
-0.00077643255
0.00019976751
-0.00056883643
0.00032370936
-0.00027940686
0.00050508829
0.00011629483
0.00077047469
0.00060043411
0.0011217476
0.0011752604
0.0015544958
0.0018166197
0.0020834217
0.0024691405
0.0027106463
0.0030824476
0.0034271549
0.0035897559
0.0042106706
0.0039816739
0.0050469506
0.0042312312
0.0059189185
0.0043180658
0.0068027555
0.004277069
0.0076852088
0.0041162464
0.0085523175
0.0038734522
0.0093907587
0.003584644
0.010190051
0.0032604763
0.010950879
0.0029506945
0.011673017
0.002640773
0.012355032
0.0023201626
0.012997964
0.0019822455
0.013611126
0.0016719845
0.014194259
0.0013287379
0.01475331
0.0010134016
0.015290511
0.00071153253
0.015809557
0.00046133477
0.016312677
0.00025125849
0.016803851
8.6404809e-05
0.017283354
-9.3032621e-05
0.017751295
-0.00029640408
0.018207483
-0.0005247779
0.01865153
-0.00078433871
0.019084507
-0.0010242239
0.019507322
-0.0012522624
0.019920983
-0.0014694806
0.02032555
-0.0016906252
0.020720775
-0.0019407071
0.021107113
-0.0021926127
0.02148485
-0.0024529372
0.021854991
-0.0027080181
0.022217501
-0.0029660276
0.022573711
-0.0032185953
0.022924151
-0.0034666977
0.023270142
-0.0037166658
0.023611559
-0.003922244
0.023952335
-0.0041270245
0.024291004
-0.004343174
0.024633777
-0.004571814
0.024968504
-0.004590062
0.0253058
-0.0048177048
0.025634725
-0.0050019063
0.025974412
-0.00516792
0.026308223
-0.0048087003
0.026684055
-0.0052035751
-0.0041203708
-0.00088638282
-0.00097569361
-0.00099026823
-0.00095898831
-0.0010931664
-0.00094469596
-0.0011952583
-0.00092476681
-0.001294258
-0.00088886561
-0.0013851284
-0.00082016552
-0.0014567295
-0.00070390809
-0.0015014861
-0.00052307864
-0.0014923666
-0.00028743401
-0.0014162402
4.1364804e-05
-0.0012628333
0.00044833809
-0.0010061829
0.00092004066
-0.0006132866
0.0014252788
-6.6793702e-05
0.0019243258
0.0006246268
0.0023928092
0.0014345267
0.0027817574
0.0023519731
0.0030662693
0.0033532394
0.003232157
0.004407124
0.0032665552
0.005481118
0.0032056636
0.0065540465
0.0030461572
0.0076050516
0.0028255784
0.0086161075
0.0025770434
0.0095757668
0.0023046453
0.010482928
0.0020477471
0.011337685
0.0017906573
0.012139341
0.0015236035
0.012890013
0.0012371771
0.013599246
0.00096893193
0.0142675
0.00066733004
0.014901313
0.0003872025
0.015503679
0.00011766099
0.016079158
-0.00010465913
0.016630919
-0.00028992844
0.017163437
-0.00043437204
0.017677374
-0.0005939042
0.01817313
-0.00077764634
0.018650983
-0.00098655119
0.019111249
-0.0012265004
0.019555719
-0.0014486248
0.019985913
-0.0016603954
0.020403324
-0.001862795
0.020808351
-0.0020693875
0.021201088
-0.0023050171
0.0215823
-0.0025432949
0.02195254
-0.0027905753
0.022312993
-0.0030341342
0.02266377
-0.0032808746
0.023006297
-0.0035239065
0.023341118
-0.0037633188
0.023669543
-0.0040062079
0.023991539
-0.0042047797
0.02431089
-0.0044067047
0.024625867
-0.0046197533
0.024942737
-0.0048538908
0.025249473
-0.0048703104
0.025556495
-0.0050993465
0.025852779
-0.005300563
0.026157417
-0.0054926843
0.026453981
-0.0051196574
0.026789138
-0.005539856
-0.0044044628
-0.0016867208
-0.00078597231
-0.0018754253
-0.0007696437
-0.0020645469
-0.00075488175
-0.0022543197
-0.00073424601
-0.0024435399
-0.00069883939
-0.0026257411
-0.00063709656
-0.0027905694
-0.00053814296
-0.0029225407
-0.0003900916
-0.0030035701
-0.00020529784
-0.0029969637
3.5966859e-05
-0.0028914708
0.00034416635
-0.0026545856
0.00068459477
-0.0022663372
0.0010385898
-0.0017333595
0.0013930247
-0.00103655
0.0016977915
-0.00014896627
0.0018960981
0.00088479284
0.0020345732
0.0020145944
0.0021045758
0.0032192797
0.0020642841
0.0044536982
0.0019738814
0.0056885117
0.001814236
0.0068957294
0.0016215495
0.0080538223
0.0014224662
0.0091505515
0.0012118044
0.010182798
0.0010197731
0.011150814
0.00082734075
0.012054409
0.00062516663
0.012896151
0.0004011069
0.013685279
0.00018606218
0.014422914
-6.3367505e-05
0.015116055
-0.00029821837
0.015768588
-0.000526259
0.016386133
-0.00071259102
0.016972962
-0.00086604847
0.017534184
-0.00098371346
0.01807102
-0.0011175383
0.018584289
-0.0012762796
0.019074815
-0.0014608372
0.019543602
-0.0016769779
0.019993069
-0.0018778158
0.02042525
-0.0020702927
0.020842034
-0.0022552412
0.021244073
-0.0024449025
0.02163173
-0.0026639687
0.022005993
-0.0028867445
0.022367601
-0.0031192638
0.022717857
-0.003349722
0.023056965
-0.0035836971
0.023386401
-0.0038157458
0.023706695
-0.0040450025
0.024019133
-0.0042793212
0.024323755
-0.0044694875
0.024624172
-0.0046670087
0.024918407
-0.0048751893
0.025212788
-0.0051126794
0.025495475
-0.0051283582
0.025776641
-0.0053550202
0.026045224
-0.0055704063
0.026320253
-0.0057878531
0.026585582
-0.0053993443
0.026886695
-0.0058419772
-0.0046522336
-0.0020777192
-0.00055330529
-0.0023291883
-0.00053389816
-0.0025791532
-0.00051902773
-0.0028304994
-0.00050283477
-0.0030840316
-0.00047995825
-0.0033376482
-0.00044440998
-0.0035842269
-0.00038964216
-0.0038118206
-0.00030960378
-0.0040038323
-0.00019705558
-0.0041411539
-6.6860847e-05
-0.0041846209
8.0650419e-05
-0.0041180848
0.00027895737
-0.0038995121
0.00046746489
-0.0035060004
0.00064663754
-0.0029205636
0.00080926161
-0.0021411362
0.00092016506
-0.0011973693
0.00095427076
-9.142648e-05
0.00093070481
0.0011487623
0.00086662925
0.0024641657
0.00075132703
0.0038274563
0.00061326473
0.005188963
0.00045566232
0.0065156825
0.0002980617
0.0077845847
0.00015712276
0.0089836401
1.6677089e-05
0.010108172
-0.00010044957
0.011158777
-0.00021852988
0.012135742
-0.00034660484
0.013041872
-0.00049931058
0.013885939
-0.0006516975
0.014669804
-0.00084023734
0.015400944
-0.0010215685
0.016084237
-0.0012008597
0.016726378
-0.001345034
0.017332677
-0.0014615492
0.0179088
-0.0015478645
0.018456495
-0.0016519451
0.018976949
-0.0017820313
0.01947143
-0.0019389813
0.019941483
-0.0021285906
0.020389984
-0.0023059125
0.020819314
-0.0024772003
0.021231636
-0.0026430699
0.021627746
-0.0028143197
0.02200819
-0.0030155215
0.02237409
-0.0032216449
0.022726298
-0.0034383333
0.023066174
-0.003654698
0.023393975
-0.0038749523
0.023711183
-0.0040950688
0.024018296
-0.0043131818
0.024316562
-0.0045379024
0.02460608
-0.0047187127
0.024890271
-0.0049107137
0.025166932
-0.0051127073
0.025442439
-0.0053516559
0.025705227
-0.0053685475
0.025965173
-0.0055896744
0.026211199
-0.0058166875
0.026462268
-0.0060589105
0.026702583
-0.005653946
0.026976495
-0.0061167975
-0.0048711801
-0.0024568164
-0.0002580122
-0.0027440578
-0.00024604669
-0.0030299514
-0.00023247874
-0.0033181616
-0.00021391993
-0.0036094016
-0.0001879605
-0.0039007128
-0.00015228305
-0.0041844923
-0.00010498347
-0.0044477516
-4.5394473e-05
-0.0046685699
2.4791431e-05
-0.0048212528
8.694076e-05
-0.0048855231
0.00014613967
-0.0048224332
0.00021719425
-0.0045963816
0.00024285579
-0.0041795139
0.00023133019
-0.0035510945
0.00018251747
-0.0027072358
7.8110869e-05
-0.0016771486
-7.3879126e-05
-0.00048903205
-0.00025533177
0.00083332475
-0.00045347033
0.0022354841
-0.00064836242
0.0036824771
-0.00083102847
0.0051251642
-0.00098406445
0.0065238021
-0.0010973179
0.0078560992
-0.0011715914
0.0091113941
-0.0012346698
0.010284783
-0.0012695143
0.011377676
-0.0013066758
0.012391016
-0.0013547402
0.013327898
-0.0014304657
0.014196636
-0.0015141084
0.014999828
-0.001636408
0.015745298
-0.0017592152
0.016438743
-0.0018855742
0.017087652
-0.0019842024
0.017698044
-0.0020610997
0.018275871
-0.0021136788
0.018823214
-0.0021859648
0.019341465
-0.0022855668
0.019832134
-0.0024132825
0.020297111
-0.0025750695
0.02073952
-0.0027278703
0.021161922
-0.0028771222
0.021566619
-0.0030232058
0.02195445
-0.0031753813
0.022326063
-0.0033581505
0.022682635
-0.003547128
0.023025066
-0.0037475069
0.023354727
-0.0039493264
0.023671888
-0.0041554054
0.023978009
-0.0043631107
0.02427354
-0.004569545
0.024559685
-0.004784086
0.024836589
-0.0049550222
0.025107474
-0.0051408105
0.025369932
-0.0053357468
0.025630372
-0.0055744858
0.0258776
-0.0055951425
0.026121158
-0.0058084141
0.026349955
-0.0060448473
0.026582897
-0.0063115382
0.026804599
-0.0058898283
0.027058339
-0.0063713606
-0.0050690018
-0.0025952127
4.759806e-05
-0.0028921079
5.1458959e-05
-0.0031876337
6.370225e-05
-0.0034849454
8.4095632e-05
-0.0037845458
0.00011239678
-0.0040825263
0.00014651182
-0.0043701225
0.00018349106
-0.0046324808
0.00021791347
-0.0048466454
0.00023998458
-0.0049913249
0.00023273801
-0.0050437828
0.00019981557
-0.0049513156
0.00012605098
-0.0046903924
-1.662772e-05
-0.0042270923
-0.0002304105
-0.0035356381
-0.00050726125
-0.0026197253
-0.00083599971
-0.0015236647
-0.0011680055
-0.000273524
-0.00150339
0.0011085335
-0.0018332643
0.0025598234
-0.0020971682
0.004044686
-0.0023131784
0.0055100552
-0.002446461
0.0069235174
-0.0025075124
0.0082637704
-0.0025082563
0.009522865
-0.0024898182
0.010696761
-0.0024390919
0.011788095
-0.0023932727
0.01279854
-0.0023599909
0.013731451
-0.002357661
0.01459458
-0.0023709195
0.015390988
-0.0024257993
0.016128484
-0.0024888915
0.016813167
-0.002561527
0.01745284
-0.0026141361
0.018053779
-0.0026512006
0.018621882
-0.0026697752
0.019159301
-0.0027100793
0.019667447
-0.0027790371
0.020147852
-0.0028773525
0.020602551
-0.0030112878
0.021034733
-0.0031396314
0.021446979
-0.0032669132
0.02184162
-0.003393305
0.022219455
-0.0035264582
0.022581156
-0.0036908699
0.022927898
-0.0038627891
0.023260578
-0.0040469098
0.023580539
-0.0042342218
0.023888038
-0.0044261325
0.024184489
-0.0046213836
0.024470287
-0.0048160326
0.024746591
-0.0050202371
0.02501358
-0.005181196
0.025274278
-0.0053604908
0.025526096
-0.005547931
0.025775455
-0.0057851202
0.026011631
-0.0058120714
0.026243796
-0.0060165086
0.026460855
-0.006260466
0.026681667
-0.0065516175
0.026891314
-0.0061135425
0.02713206
-0.0066128612
-0.0052535317
-0.0024677628
0.00034248189
-0.0027523506
0.00033665306
-0.0030323732
0.00034437564
-0.0033110403
0.00036346164
-0.0035887719
0.00039087968
-0.0038616424
0.00042019103
-0.0041203512
0.00044307221
-0.004350125
0.00044863077
-0.0045263573
0.00041723948
-0.004634277
0.00034177013
-0.0046353998
0.00020215222
-0.0044812598
-2.6768132e-05
-0.0041528388
-0.00034361242
-0.0036215994
-0.00076009413
-0.002859893
-0.0012672943
-0.0018908819
-0.0018032117
-0.00075503007
-0.0023019253
0.00053921665
-0.0027955547
0.0019484515
-0.0032402381
0.0034055354
-0.0035517641
0.0048680169
-0.0037729472
0.0062947262
-0.0038701998
0.0076633927
-0.0038729178
0.0089554389
-0.003796727
0.01016718
-0.0036976333
0.011295812
-0.0035634299
0.012345087
-0.0034378407
0.013317199
-0.0033269421
0.014215489
-0.0032502697
0.015046851
-0.003195999
0.015814326
-0.003186295
0.016525246
-0.0031920291
0.017185601
-0.0032131928
0.017803009
-0.0032218489
0.018383566
-0.003220968
0.018932801
-0.0032070597
0.019452709
-0.0032167504
0.019944542
-0.0032562865
0.02040967
-0.0033262452
0.020850104
-0.0034333332
0.021268948
-0.0035381632
0.021668682
-0.0036442981
0.022051579
-0.0037517633
0.022418327
-0.0038665522
0.022769574
-0.0040132305
0.023106448
-0.0041686843
0.023429798
-0.0043370646
0.023740918
-0.0045103452
0.024040038
-0.004688513
0.024328505
-0.0048716704
0.02460666
-0.0050548271
0.024875621
-0.0052489405
0.025135593
-0.0054002136
0.025389409
-0.0055731337
0.025634324
-0.0057530708
0.025876746
-0.0059877527
0.026106526
-0.0060232863
0.026332436
-0.0062192625
0.026543385
-0.0064692427
0.026758204
-0.0067851216
0.026962477
-0.0063317655
0.027197526
-0.0068486074
-0.0054327485
-0.0020976231
0.00059599529
-0.0023404714
0.00058009958
-0.0025765726
0.00058111896
-0.00280825
0.00059582879
-0.0030350005
0.0006183718
-0.0032527263
0.00063871489
-0.0034512971
0.00064250439
-0.0036169839
0.00061524946
-0.0037242868
0.00052555423
-0.0037551497
0.00037373584
-0.0036689402
0.00011714733
-0.0034271932
-0.0002671978
-0.0030081953
-0.00076117809
-0.0023931505
-0.001373587
-0.0016014227
-0.0020573514
-0.00061685337
-0.0027859857
0.00058085639
-0.0034977064
0.001907894
-0.0041205145
0.0032866335
-0.0046167253
0.0046887748
-0.0049514248
0.0060636202
-0.0051450923
0.0073928504
-0.0051964751
0.0086608375
-0.005137665
0.0098542039
-0.0049865461
0.010974337
-0.0048138772
0.012019295
-0.0046041369
0.012993402
-0.0044072891
0.01389885
-0.0042272823
0.014738444
-0.0040842405
0.015517803
-0.0039691369
0.01623943
-0.0039010105
0.016909714
-0.0038546037
0.017534056
-0.0038289233
0.018119462
-0.0037976458
0.018671504
-0.0037623139
0.019195106
-0.003718814
0.019691925
-0.003700452
0.020162929
-0.0037128515
0.020609186
-0.00375643
0.021032561
-0.0038384815
0.021435958
-0.0039214309
0.021821668
-0.0040078454
0.022191846
-0.0040976917
0.02254703
-0.0041952737
0.022887801
-0.0043253032
0.023215209
-0.0044653132
0.023530037
-0.0046188772
0.02383351
-0.0047789888
0.024125821
-0.0049442173
0.024408246
-0.0051160096
0.024681075
-0.0052883394
0.024945392
-0.0054729854
0.025201428
-0.0056152386
0.025451832
-0.0057822875
0.025693741
-0.0059551184
0.025933518
-0.0061868069
0.026161675
-0.0062326145
0.026386577
-0.0064221799
0.026597158
-0.0066769558
0.026812231
-0.0070180553
0.027017905
-0.0065511945
0.027254639
-0.0070859965
-0.0056147406
-0.0015269907
-0.0017015029
0.00075519894
-0.0018685115
0.00074875803
-0.0020272508
0.00075524528
-0.0021767563
0.00076860512
-0.0023122563
0.00077499802
-0.0024213787
0.00075247237
-0.0024893212
0.00068410777
-0.0025000421
0.00053727144
-0.0024167548
0.00029153614
-0.0022107826
-8.7634674e-05
-0.0018673707
-0.00060930331
-0.0013822932
-0.0012448287
-0.00070141649
-0.0020529172
0.00020334862
-0.0029604504
0.0012784249
-0.0038592719
0.0024657609
-0.0046831187
0.0037387255
-0.0053914066
0.0050255772
-0.0059013382
0.0062978506
-0.0062212395
0.0075262175
-0.006370783
0.0087036819
-0.006371012
0.0098229122
-0.0062536888
0.010876475
-0.0060366032
0.01187041
-0.0058039751
0.012802726
-0.005532259
0.013677421
-0.0052773924
0.014495944
-0.0050407695
0.015259948
-0.0048427012
0.015973327
-0.0046763829
0.016637534
-0.0045584017
0.017257618
-0.0044670843
0.017838027
-0.0044008372
0.018384854
-0.0043349912
0.018902908
-0.0042698089
0.019396353
-0.0042005614
0.019866396
-0.0041575451
0.020313638
-0.0041458496
0.020738756
-0.0041657046
0.021143385
-0.0042251178
0.02153016
-0.0042883319
0.021901126
-0.0043569131
0.022258284
-0.0044308715
0.022601998
-0.0045128048
0.022932759
-0.0046276452
0.023251525
-0.0047535934
0.023558996
-0.0048936123
0.023856325
-0.005041756
0.02414367
-0.0051951861
0.024422232
-0.0053566782
0.024692261
-0.0055191896
0.024954818
-0.0056953462
0.025210158
-0.0058295983
0.025460768
-0.0059916492
0.025703697
-0.0061581749
0.025945245
-0.0063868752
0.026176651
-0.0064441775
0.02640588
-0.0066307707
0.026621919
-0.0068894468
0.026843573
-0.007256531
0.027057484
-0.0067785782
0.027303336
-0.0073324719
-0.0058076573
-0.00089363562
0.00084377839
-0.00097125991
0.0008269977
-0.0010357747
0.00082042105
-0.0010847729
0.00081831325
-0.0011126902
0.0008036802
-0.0011083749
0.00074898367
-0.0010503131
0.00062694087
-0.00092378284
0.00041171624
-0.00070135446
7.0175764e-05
-0.00036418847
-0.00042362831
0.00011201649
-0.0010842195
0.00077183675
-0.0019032345
0.0015966984
-0.0028762411
0.0025509539
-0.0039130472
0.0036255488
-0.004932085
0.0047590366
-0.00581469
0.0059052473
-0.0065355508
0.0070262816
-0.0070201501
0.0081059331
-0.0072984713
0.0091344914
-0.007396701
0.010116427
-0.0073500583
0.011051812
-0.0071859125
0.01193765
-0.0069189908
0.012782966
-0.0066455174
0.013584685
-0.0063298574
0.014345323
-0.0060335194
0.015064906
-0.0057554081
0.015743434
-0.0055157865
0.016382738
-0.0053096657
0.016982853
-0.0051518258
0.017547253
-0.0050240188
0.018079217
-0.0049244591
0.018583738
-0.0048301957
0.019064721
-0.004740413
0.019525497
-0.0046498357
0.019966769
-0.0045860825
0.020388736
-0.0045538193
0.02079164
-0.0045530582
0.021176842
-0.0045926284
0.021546668
-0.0046386089
0.021902892
-0.0046915775
0.022247341
-0.0047516948
0.022580203
-0.0048198491
0.022901867
-0.0049212604
0.023213199
-0.0050348241
0.023514809
-0.0051628639
0.023807784
-0.0053005326
0.024092251
-0.0054436058
0.024369343
-0.0055961659
0.024639283
-0.005750184
0.024903123
-0.0059191587
0.025161149
-0.006046761
0.025415706
-0.0062050398
0.025663791
-0.0063664416
0.025911626
-0.0065927145
0.02615122
-0.0066623747
0.02639017
-0.0068507232
0.026617548
-0.0071125929
0.026852154
-0.0075067761
0.027081171
-0.0070207163
0.027343588
-0.0075954962
-0.0060197343
1.4560712e-05
0.00081849344
5.1707102e-05
0.00079044765
0.00010218255
0.00077058569
0.00017468501
0.0007464978
0.00028232163
0.00069678347
0.00043281515
0.00059929117
0.00064828258
0.00041234311
0.00095368657
0.00010725924
0.0013719378
-0.00034703707
0.0019125933
-0.00096313699
0.0025790463
-0.0017494069
0.003387616
-0.0027104119
0.0043067166
-0.0037938219
0.0052889084
-0.004893595
0.0062925834
-0.0059339926
0.0072838153
-0.006804019
0.0082302362
-0.0074799165
0.0091200745
-0.0079077973
0.0099586913
-0.0081347229
0.010753203
-0.0081886176
0.011515488
-0.008109506
0.01225071
-0.0079180266
0.01295735
-0.0076222471
0.013645269
-0.0073297408
0.014309782
-0.0069903352
0.014951108
-0.0066704324
0.015567501
-0.0063669654
0.016157041
-0.0061000041
0.016719396
-0.0058661353
0.017253069
-0.005678958
0.017759881
-0.0055235335
0.018241856
-0.0053982776
0.018702811
-0.0052820393
0.019145713
-0.0051731572
0.019573056
-0.0050659152
0.019985033
-0.0049855868
0.020381451
-0.0049365349
0.020762109
-0.0049185128
0.021128091
-0.0049412837
0.02148139
-0.0049727507
0.021823513
-0.0050125516
0.022156112
-0.005061099
0.022479207
-0.005117576
0.022793089
-0.0052075517
0.023098536
-0.0053106452
0.023396076
-0.0054285183
0.02368674
-0.0055574559
0.023970634
-0.0056918797
0.024248834
-0.0058371492
0.024521557
-0.005984289
0.024789859
-0.0061476959
0.025054068
-0.0062703112
0.025316409
-0.0064263793
0.025573867
-0.0065841961
0.02583258
-0.0068092004
0.026085346
-0.0068918193
0.026339442
-0.0070878913
0.026584063
-0.0073522819
0.026838006
-0.0077750572
0.027088992
-0.0072844051
0.027375405
-0.0078825156
-0.0062591853
0.00092490017
0.0010758091
0.00064011371
0.0012567785
0.00059023145
0.0014813883
0.00052254778
0.0017612329
0.00041764766
0.0021113204
0.00024996854
0.0025599917
-3.5497387e-05
0.0031173969
-0.00044923705
0.003790693
-0.0010193327
0.0045707755
-0.0017421123
0.0054392518
-0.0026166559
0.0063646641
-0.0036344688
0.0073013362
-0.0047290072
0.0082053413
-0.0057959855
0.009040624
-0.0067675357
0.0098001683
-0.0075616881
0.010487721
-0.0081654372
0.011112359
-0.0085302874
0.011692031
-0.0087120841
0.01224651
-0.0087405527
0.012789836
-0.0086500575
0.013329501
-0.0084546491
0.013862626
-0.0081520667
0.014398386
-0.0078618951
0.014929843
-0.0075178563
0.015455313
-0.0071916017
0.015971249
-0.0068781898
0.016473906
-0.0065974788
0.016960988
-0.0063474883
0.017429564
-0.0061411697
0.017879906
-0.0059667748
0.018312837
-0.0058232686
0.018731042
-0.0056913711
0.019136594
-0.0055688108
0.019531207
-0.0054495442
0.019914608
-0.0053568198
0.020286254
-0.0052948208
0.020645524
-0.0052629626
0.020993245
-0.0052721018
0.021331086
-0.0052918864
0.021660302
-0.0053210969
0.021982382
-0.0053604906
0.022297204
-0.0054075567
0.022604965
-0.0054882644
0.022906374
-0.0055829903
0.023201891
-0.0056927127