/*--------------------------------*- C++ -*----------------------------------*\
| =========                 |                                                 |
| \\      /  F ield         | OpenFOAM: The Open Source CFD Toolbox           |
|  \\    /   O peration     | Version:  2406                                  |
|   \\  /    A nd           | Website:  www.openfoam.com                      |
|    \\/     M anipulation  |                                                 |
\*---------------------------------------------------------------------------*/
FoamFile
{
    version     2.0;
    format      ascii;
    arch        "LSB;label=32;scalar=64";
    class       volScalarField;
    location    "0.006";
    object      p;
}
// * * * * * * * * * * * * * * * * * * * * * * * * * * * * * * * * * * * * * //

dimensions      [1 -1 -2 0 0 0 0];

internalField   nonuniform List<scalar> 
8951
(
101383.72
101342.26
101360.98
101373.88
101385.73
101380.52
101043.25
101047.13
101053.11
101062.07
101074.64
101091.62
101112.46
101138.38
101163.89
101194.61
101224.24
101256.9
101288.89
101317.92
101341.36
101359.98
101372.81
101384.49
101378.52
101029.76
101029.96
101031.24
101032.61
101034.66
101037.43
101039.69
101041.75
101043.74
101045.56
101047.23
101048.94
101051.17
101054.61
101060.06
101068.39
101080.2
101096.32
101116.3
101141.29
101165.91
101195.94
101224.81
101257.14
101288.65
101317.31
101340.47
101358.99
101371.75
101383.3
101376.8
101040.66
101040.71
101041.91
101043.38
101044.72
101046.83
101049.26
101050.96
101052.6
101054.12
101055.49
101056.89
101058.79
101061.84
101066.8
101074.54
101085.65
101100.95
101120.12
101144.19
101168.08
101197.22
101225.45
101257.4
101288.43
101316.72
101339.6
101358.01
101370.71
101382.19
101375.87
101051.08
101051
101052.08
101053.61
101054.85
101056.14
101057.88
101059.6
101061
101062.25
101063.35
101064.49
101066.09
101068.79
101073.33
101080.52
101090.99
101105.52
101123.92
101147.09
101170.25
101198.63
101226.13
101257.67
101288.27
101316.15
101338.75
101357.03
101369.68
101381.15
101375.75
101060.9
101060.71
101061.59
101062.95
101064.23
101064.93
101066.15
101067.95
101069.01
101069.96
101070.82
101071.73
101073.08
101075.48
101079.64
101086.33
101096.2
101110.01
101127.69
101149.99
101172.42
101200.25
101226.88
101257.97
101288.1
101315.61
101337.92
101356.08
101368.67
101380.13
101375.59
101070.16
101069.88
101070.58
101071.72
101072.86
101073.74
101074.48
101075.4
101076.5
101077.27
101077.91
101078.62
101079.77
101081.91
101085.73
101091.98
101101.3
101114.43
101131.43
101152.88
101174.66
101202.04
101227.67
101258.32
101287.96
101315.09
101337.1
101355.13
101367.67
101379.12
101374.33
101078.85
101078.5
101079.04
101079.96
101080.89
101081.66
101081.98
101082.72
101083.79
101084.22
101084.64
101085.17
101086.14
101088.07
101091.6
101097.46
101106.28
101118.79
101135.14
101155.76
101176.99
101203.9
101228.48
101258.73
101287.84
101314.6
101336.3
101354.2
101366.69
101378.13
101372.84
101086.98
101086.58
101086.98
101087.72
101088.45
101089.09
101089.56
101089.87
101090.16
101090.67
101090.99
101091.39
101092.22
101093.97
101097.26
101102.78
101111.15
101123.07
101138.82
101158.62
101179.39
101205.75
101229.31
101259.17
101287.77
101314.13
101335.52
101353.28
101365.73
101377.2
101371.62
101094.55
101094.1
101094.38
101094.96
101095.5
101095.96
101096.28
101096.2
101096.47
101096.98
101097.02
101097.28
101098.01
101099.63
101102.72
101107.93
101115.9
101127.29
101142.47
101161.45
101181.85
101207.54
101230.21
101259.66
101287.73
101313.68
101334.76
101352.37
101364.78
101376.35
101370.66
101101.55
101101.09
101101.26
101101.69
101102.07
101102.36
101102.57
101102.63
101102.53
101102.43
101102.65
101102.87
101103.52
101105.05
101107.97
101112.93
101120.55
101131.44
101146.09
101164.25
101184.3
101209.31
101231.17
101260.18
101287.71
101313.26
101334.01
101351.48
101363.84
101375.59
101370.02
101108
101107.53
101107.62
101107.91
101108.15
101108.29
101108.34
101108.29
101107.96
101107.87
101108.06
101108.16
101108.77
101110.23
101113.04
101117.79
101125.09
101135.53
101149.68
101167.01
101186.68
101211.11
101232.2
101260.75
101287.73
101312.85
101333.29
101350.61
101362.91
101374.89
101370.05
101113.92
101113.46
101113.46
101113.63
101113.75
101113.76
101113.69
101113.54
101113.31
101113.1
101112.94
101113.13
101113.77
101115.2
101117.92
101122.5
101129.53
101139.57
101153.25
101169.77
101188.93
101212.91
101233.3
101261.34
101287.78
101312.48
101332.58
101349.76
101361.99
101374.19
101370.71
101119.33
101118.89
101118.83
101118.89
101118.89
101118.8
101118.63
101118.41
101118.15
101117.83
101117.64
101117.88
101118.54
101119.98
101122.64
101127.09
101133.89
101143.56
101156.8
101172.57
101191.18
101214.7
101234.47
101261.96
101287.85
101312.12
101331.9
101348.92
101361.08
101373.31
101370.46
101124.26
101123.85
101123.73
101123.7
101123.61
101123.44
101123.2
101122.9
101122.58
101122.25
101122.22
101122.44
101123.11
101124.56
101127.21
101131.56
101138.17
101147.52
101160.34
101175.42
101193.79
101216.52
101235.7
101262.61
101287.96
101311.79
101331.23
101348.1
101360.18
101372.12
101369.47
101128.73
101128.36
101128.21
101128.1
101127.93
101127.7
101127.41
101127.08
101126.77
101126.54
101126.53
101126.74
101127.47
101128.99
101131.64
101135.93
101142.37
101151.44
101163.88
101178.36
101196.79
101218.36
101236.99
101263.23
101288.08
101311.52
101330.58
101347.3
101359.29
101370.81
101368.07
101132.78
101132.47
101132.29
101132.12
101131.89
101131.62
101131.3
101130.96
101130.66
101130.47
101130.46
101130.84
101131.64
101133.26
101135.95
101140.2
101146.52
101155.34
101167.41
101181.39
101199.84
101220.21
101238.32
101263.9
101288.21
101311.25
101329.95
101346.51
101358.42
101369.48
101366.47
101136.46
101136.2
101136.01
101135.79
101135.53
101135.22
101134.9
101134.57
101134.3
101134.16
101134.2
101134.71
101135.66
101137.39
101140.16
101144.4
101150.62
101159.22
101170.95
101184.51
101202.55
101222
101239.69
101264.62
101288.39
101310.97
101329.34
101345.74
101357.56
101368.14
101364.82
101139.8
101139.61
101139.42
101139.16
101138.87
101138.56
101138.25
101137.97
101137.76
101137.72
101137.9
101138.46
101139.58
101141.43
101144.29
101148.55
101154.69
101163.08
101174.49
101187.66
101204.93
101223.82
101241.09
101265.38
101288.58
101310.7
101328.75
101344.99
101356.71
101366.74
101363.19
101142.86
101142.73
101142.55
101142.28
101141.98
101141.68
101141.4
101141.17
101141.05
101141.13
101141.48
101142.15
101143.42
101145.4
101148.35
101152.65
101158.73
101166.95
101178.03
101190.85
101207.29
101225.9
101242.5
101266.16
101288.8
101310.45
101328.17
101344.25
101355.88
101365.29
101361.62
101145.68
101145.62
101145.46
101145.18
101144.89
101144.61
101144.38
101144.23
101144.21
101144.4
101144.91
101145.76
101147.18
101149.31
101152.38
101156.72
101162.75
101170.81
101181.58
101194.1
101209.77
101228.24
101243.91
101266.95
101289.03
101310.22
101327.62
101343.53
101355.06
101363.86
101360.14
101148.31
101148.33
101148.2
101147.93
101147.65
101147.41
101147.25
101147.18
101147.28
101147.61
101148.27
101149.32
101150.9
101153.19
101156.38
101160.77
101166.77
101174.68
101185.14
101197.37
101212.4
101230.44
101245.32
101267.76
101289.28
101310.01
101327.08
101342.83
101354.25
101362.47
101358.73
101150.82
101150.91
101150.81
101150.56
101150.31
101150.13
101150.04
101150.08
101150.3
101150.78
101151.64
101152.85
101154.59
101157.07
101160.38
101164.83
101170.79
101178.55
101188.71
101200.65
101215.08
101232.38
101246.75
101268.58
101289.54
101309.81
101326.56
101342.14
101353.46
101361.18
101357.41
101153.24
101153.42
101153.36
101153.14
101152.93
101152.81
101152.81
101152.96
101153.31
101153.95
101154.95
101156.38
101158.36
101160.97
101164.4
101168.9
101174.82
101182.44
101192.29
101203.92
101217.77
101234.32
101248.2
101269.41
101289.82
101309.63
101326.05
101341.47
101352.68
101360.03
101356.18
101155.65
101155.9
101155.89
101155.7
101155.55
101155.5
101155.6
101155.86
101156.37
101157.17
101158.33
101159.97
101162.15
101164.9
101168.44
101172.99
101178.87
101186.33
101195.89
101207.18
101220.45
101236.3
101249.66
101270.26
101290.12
101309.46
101325.57
101340.81
101351.91
101359.06
101355.08
101158.1
101158.41
101158.46
101158.32
101158.22
101158.26
101158.45
101158.84
101159.5
101160.47
101161.82
101163.64
101165.97
101168.89
101172.54
101177.12
101182.94
101190.24
101199.49
101210.42
101223.14
101238.28
101251.14
101271.1
101290.42
101309.31
101325.1
101340.16
101351.16
101358.18
101354.16
101160.62
101161.01
101161.11
101161.02
101160.99
101161.11
101161.41
101161.93
101162.74
101163.88
101165.41
101167.39
101169.88
101172.94
101176.68
101181.29
101187.03
101194.16
101203.09
101213.66
101225.84
101240.28
101252.62
101271.96
101290.74
101309.17
101324.65
101339.53
101350.42
101357.42
101353.45
101163.28
101163.73
101163.89
101163.86
101163.9
101164.11
101164.52
101165.17
101166.12
101167.42
101169.11
101171.25
101173.89
101177.08
101180.89
101185.5
101191.16
101198.1
101206.7
101216.89
101228.54
101242.29
101254.1
101272.81
101291.05
101309.04
101324.23
101338.91
101349.69
101356.81
101352.96
101166.11
101166.62
101166.84
101166.87
101166.98
101167.28
101167.8
101168.57
101169.67
101171.13
101172.96
101175.22
101178.01
101181.3
101185.17
101189.75
101195.3
101202.04
101210.31
101220.1
101231.26
101244.35
101255.6
101273.67
101291.42
101308.93
101323.79
101338.31
101348.97
101356.23
101352.67
101169.16
101169.71
101169.99
101170.08
101170.26
101170.65
101171.27
101172.17
101173.41
101175.04
101176.96
101179.29
101182.24
101185.62
101189.51
101194.06
101199.47
101205.98
101213.9
101223.28
101233.98
101246.49
101257.11
101274.53
101291.74
101308.83
101323.42
101337.72
101348.27
101355.67
101352.49
101172.44
101173.03
101173.36
101173.51
101173.77
101174.24
101174.95
101175.97
101177.35
101179.18
101181.12
101183.46
101186.58
101190.03
101193.92
101198.4
101203.65
101209.91
101217.48
101226.44
101236.68
101248.5
101258.62
101275.4
101292.06
101308.72
101323.08
101337.14
101347.59
101355.25
101352.25
101175.97
101176.59
101176.97
101177.18
101177.5
101178.04
101178.84
101179.93
101181.36
101183.18
101185.36
101188.03
101191.1
101194.53
101198.39
101202.77
101207.85
101213.84
101221.04
101229.55
101239.34
101250.19
101260.17
101276.27
101292.41
101308.64
101322.74
101336.57
101346.93
101354.92
101351.62
101179.77
101180.41
101180.82
101181.09
101181.47
101182.07
101182.94
101184.1
101185.57
101187.36
101189.81
101192.74
101195.71
101199.11
101202.91
101207.16
101212.04
101217.75
101224.56
101232.62
101241.92
101251.65
101261.76
101277.13
101292.79
101308.58
101322.4
101336.01
101346.27
101354.58
101350.11
101183.83
101184.49
101184.93
101185.24
101185.67
101186.34
101187.27
101188.51
101190.08
101192
101194.46
101197.31
101200.35
101203.74
101207.46
101211.57
101216.22
101221.62
101228.04
101235.63
101244.41
101253.14
101263.38
101277.98
101293.18
101308.53
101322.07
101335.47
101345.62
101354.23
101347.07
101188.17
101188.82
101189.28
101189.63
101190.11
101190.82
101191.81
101193.11
101194.75
101196.75
101199.17
101201.97
101205.06
101208.42
101212.03
101215.97
101220.38
101225.46
101231.48
101238.59
101246.84
101254.84
101265
101278.81
101293.58
101308.49
101321.76
101334.93
101344.98
101353.76
101341.89
101192.75
101193.39
101193.87
101194.24
101194.75
101195.49
101196.52
101197.88
101199.65
101201.55
101203.84
101206.76
101209.83
101213.12
101216.61
101220.35
101224.5
101229.25
101234.85
101241.5
101249.22
101256.74
101266.52
101279.63
101293.98
101308.47
101321.46
101334.41
101344.34
101353.15
101334.55
101197.57
101198.17
101198.65
101199.05
101199.58
101200.34
101201.36
101202.66
101204.29
101206.4
101208.96
101211.68
101214.64
101217.82
101221.16
101224.7
101228.57
101232.97
101238.16
101244.34
101251.55
101258.65
101267.85
101280.46
101294.39
101308.47
101321.19
101333.9
101343.7
101352.49
101332.4
101202.59
101203.15
101203.63
101204.05
101204.6
101205.37
101206.4
101207.72
101209.34
101211.42
101213.9
101216.55
101219.44
101222.5
101225.67
101228.99
101232.57
101236.62
101241.39
101247.11
101253.83
101260.48
101269.04
101281.3
101294.82
101308.48
101320.93
101333.41
101343.07
101351.83
101333.17
101207.79
101208.3
101208.76
101209.19
101209.75
101210.53
101211.57
101212.92
101214.48
101216.43
101218.81
101221.41
101224.21
101227.13
101230.13
101233.21
101236.49
101240.19
101244.54
101249.81
101256.04
101262.22
101270.33
101282.16
101295.25
101308.51
101320.69
101332.93
101342.45
101351.11
101332.8
101213.12
101213.57
101214.01
101214.42
101214.97
101215.72
101216.7
101217.96
101219.57
101221.55
101223.79
101226.27
101228.94
101231.7
101234.49
101237.33
101240.31
101243.65
101247.59
101252.43
101258.18
101263.94
101271.81
101283.02
101295.68
101308.57
101320.47
101332.45
101341.83
101350.2
101328.85
101218.58
101218.95
101219.35
101219.75
101220.28
101221
101221.94
101223.13
101224.71
101226.62
101228.72
101231.08
101233.6
101236.18
101238.76
101241.34
101244.02
101247.01
101250.55
101254.96
101260.25
101265.64
101273.36
101283.87
101296.13
101308.62
101320.25
101331.99
101341.22
101349.27
101327.02
101224.11
101224.4
101224.75
101225.14
101225.64
101226.32
101227.22
101228.37
101229.83
101231.57
101233.56
101235.79
101238.15
101240.55
101242.91
101245.23
101247.6
101250.25
101253.4
101257.41
101262.24
101267.33
101274.87
101284.71
101296.6
101308.66
101320.03
101331.56
101340.62
101348.46
101325.5
101229.66
101229.86
101230.16
101230.51
101230.97
101231.59
101232.41
101233.52
101234.88
101236.47
101238.32
101240.39
101242.58
101244.79
101246.92
101248.97
101251.05
101253.36
101256.14
101259.76
101264.16
101268.98
101276.34
101285.55
101297.07
101308.75
101319.87
101331.15
101340.03
101347.69
101324.34
101235.25
101235.34
101235.59
101235.9
101236.32
101236.89
101237.63
101238.61
101239.83
101241.28
101242.98
101244.87
101246.86
101248.86
101250.77
101252.57
101254.35
101256.34
101258.76
101262.03
101265.99
101270.57
101277.79
101286.39
101297.56
101308.86
101319.72
101330.73
101339.43
101346.82
101327.85
101240.79
101240.79
101240.97
101241.24
101241.62
101242.14
101242.82
101243.62
101244.64
101245.97
101247.51
101249.2
101250.99
101252.77
101254.44
101256
101257.51
101259.18
101261.28
101264.22
101267.75
101272.08
101279.2
101287.24
101298.05
101308.99
101319.57
101330.32
101338.84
101345.83
101327.85
101246.24
101246.14
101246.25
101246.48
101246.8
101247.22
101247.78
101248.51
101249.43
101250.57
101251.9
101253.38
101254.94
101256.49
101257.94
101259.25
101260.5
101261.9
101263.69
101266.32
101269.47
101273.5
101280.59
101288.09
101298.56
101309.13
101319.43
101329.94
101338.26
101344.77
101327.34
101251.6
101251.39
101251.43
101251.61
101251.86
101252.19
101252.62
101253.25
101254.08
101255.03
101256.14
101257.39
101258.72
101260.03
101261.25
101262.32
101263.33
101264.47
101266
101268.35
101271.17
101274.97
101281.94
101288.93
101299.06
101309.27
101319.3
101329.57
101337.68
101343.75
101326.51
101256.79
101256.47
101256.43
101256.53
101256.69
101256.89
101257.17
101257.86
101258.67
101259.35
101260.21
101261.22
101262.31
101263.39
101264.37
101265.22
101266.01
101266.92
101268.2
101270.31
101272.86
101276.69
101283.26
101289.78
101299.57
101309.43
101319.19
101329.21
101337.11
101342.85
101328.09
101261.91
101261.5
101261.4
101261.47
101261.6
101261.8
101262.08
101262.25
101262.59
101263.33
101264.06
101264.85
101265.71
101266.55
101267.31
101267.95
101268.54
101269.25
101270.32
101272.22
101274.56
101278.61
101284.52
101290.63
101300.08
101309.59
101319.09
101328.86
101336.55
101342.07
101328.17
101266.73
101266.23
101266.05
101266.05
101266.08
101266.13
101266.17
101266.15
101266.65
101267.4
101267.81
101268.31
101268.92
101269.53
101270.07
101270.52
101270.92
101271.46
101272.36
101274.08
101276.25
101280.5
101285.71
101291.47
101300.58
101309.77
101319
101328.51
101335.98
101341.36
101328.5
101271.4
101270.83
101270.59
101270.54
101270.51
101270.49
101270.49
101270.51
101270.57
101270.81
101271.21
101271.55
101271.93
101272.32
101272.66
101272.93
101273.18
101273.56
101274.31
101275.89
101277.94
101282.09
101286.84
101292.31
101301.08
101309.94
101318.91
101328.16
101335.4
101340.59
101329.87
101275.8
101275.16
101274.86
101274.76
101274.67
101274.57
101274.49
101274.39
101273.97
101274.06
101274.59
101274.63
101274.77
101274.95
101275.1
101275.2
101275.31
101275.57
101276.21
101277.65
101279.59
101283.42
101288.03
101293.13
101301.58
101310.12
101318.82
101327.83
101334.84
101339.71
101332.25
101279.94
101279.24
101278.89
101278.74
101278.59
101278.41
101278.23
101278.06
101277.76
101277.42
101277.31
101277.42
101277.45
101277.41
101277.38
101277.34
101277.33
101277.49
101278.03
101279.37
101281.21
101284.7
101289.38
101293.93
101302.06
101310.3
101318.75
101327.51
101334.3
101338.8
101334.43
101283.78
101283.05
101282.66
101282.45
101282.24
101281.98
101281.7
101281.41
101281.03
101280.24
101279.95
101280.27
101280.06
101279.75
101279.54
101279.36
101279.25
101279.34
101279.81
101281.05
101282.82
101286.02
101290.74
101294.69
101302.55
101310.49
101318.68
101327.21
101333.77
101337.92
101331.63
101287.31
101286.55
101286.12
101285.88
101285.62
101285.3
101284.93
101284.53
101284.09
101283.48
101282.66
101282.4
101282.43
101281.95
101281.58
101281.29
101281.09
101281.12
101281.54
101282.69
101284.41
101287.36
101291.92
101295.39
101303.03
101310.68
101318.61
101326.91
101333.23
101337.05
101328.64
101290.5
101289.74
101289.29
101289.02
101288.72
101288.35
101287.92
101287.44
101286.94
101286.4
101285.55
101284.69
101284.27
101283.96
101283.52
101283.12
101282.85
101282.84
101283.21
101284.29
101285.96
101288.68
101292.92
101296.03
101303.51
101310.86
101318.54
101326.62
101332.7
101336.18
101327.99
101293.35
101292.6
101292.15
101291.84
101291.51
101291.1
101290.62
101290.07
101289.47
101288.82
101288.05
101286.87
101286.14
101285.97
101285.37
101284.87
101284.55
101284.5
101284.85
101285.86
101287.46
101289.96
101293.87
101296.61
101303.99
101311.04
101318.48
101326.33
101332.17
101335.35
101327.84
101295.84
101295.13
101294.67
101294.35
101294
101293.56
101293.04
101292.44
101291.76
101291.02
101290.22
101289.25
101288.28
101287.55
101287.05
101286.54
101286.18
101286.11
101286.43
101287.38
101288.92
101291.2
101294.8
101297.17
101304.47
101311.23
101318.42
101326.05
101331.65
101334.53
101326.51
101297.97
101297.31
101296.87
101296.54
101296.18
101295.72
101295.18
101294.56
101293.85
101293.05
101292.19
101291.26
101290.01
101289.19
101288.84
101288.15
101287.75
101287.67
101287.97
101288.86
101290.33
101292.41
101295.74
101297.77
101304.97
101311.41
101318.36
101325.76
101331.14
101333.73
101326.48
101299.74
101299.14
101298.73
101298.41
101298.04
101297.59
101297.05
101296.42
101295.69
101294.87
101293.98
101293.05
101292.01
101290.97
101290.12
101289.65
101289.26
101289.17
101289.46
101290.3
101291.69
101293.59
101296.67
101298.47
101305.46
101311.59
101318.3
101325.46
101330.64
101332.97
101327.4
101301.16
101300.64
101300.26
101299.96
101299.6
101299.16
101298.63
101298.01
101297.29
101296.48
101295.57
101294.62
101293.63
101292.44
101291.57
101291.17
101290.72
101290.62
101290.9
101291.69
101293.01
101294.74
101297.6
101299.26
101305.94
101311.77
101318.24
101325.17
101330.15
101332.26
101328.56
101302.23
101301.8
101301.46
101301.18
101300.85
101300.44
101299.94
101299.34
101298.65
101297.86
101296.97
101296.02
101295.03
101294.01
101293.11
101292.44
101292.09
101292
101292.28
101293.02
101294.27
101295.87
101298.54
101300.05
101306.41
101311.96
101318.19
101324.89
101329.68
101331.54
101329.33
101302.99
101302.64
101302.36
101302.11
101301.8
101301.43
101300.97
101300.42
101299.77
101299.03
101298.18
101297.26
101296.31
101295.38
101294.43
101293.71
101293.42
101293.32
101293.6
101294.3
101295.49
101296.98
101299.5
101300.79
101306.89
101312.15
101318.15
101324.62
101329.21
101330.8
101329.32
101303.46
101303.2
101302.97
101302.75
101302.48
101302.15
101301.74
101301.25
101300.66
101299.98
101299.2
101298.34
101297.43
101296.52
101295.6
101294.99
101294.71
101294.58
101294.85
101295.53
101296.67
101298.05
101300.42
101301.55
101307.37
101312.36
101318.12
101324.37
101328.73
101330.08
101328.5
101303.65
101303.48
101303.3
101303.12
101302.89
101302.62
101302.27
101301.84
101301.33
101300.73
101300.03
101299.25
101298.42
101297.59
101296.81
101296.21
101295.82
101295.76
101296.05
101296.7
101297.79
101299.08
101301.21
101302.35
101307.85
101312.57
101318.1
101324.15
101328.22
101329.41
101327.16
101303.6
101303.52
101303.42
101303.27
101303.09
101302.86
101302.58
101302.23
101301.8
101301.28
101300.68
101300
101299.27
101298.54
101297.88
101297.3
101296.89
101296.89
101297.19
101297.83
101298.87
101300.07
101301.84
101303.16
101308.33
101312.81
101318.11
101323.96
101327.69
101328.75
101325.62
101303.36
101303.37
101303.32
101303.22
101303.08
101302.91
101302.69
101302.42
101302.08
101301.66
101301.17
101300.6
101299.98
101299.35
101298.78
101298.27
101297.97
101297.98
101298.29
101298.91
101299.91
101301.04
101302.42
101303.96
101308.82
101313.06
101318.14
101323.81
101327.19
101328.09
101324.19
101302.96
101303.05
101303.05
101302.99
101302.9
101302.79
101302.64
101302.45
101302.2
101301.89
101301.51
101301.07
101300.58
101300.07
101299.59
101299.19
101298.98
101299.02
101299.34
101299.95
101300.92
101301.98
101303.11
101304.8
101309.31
101313.33
101318.21
101323.69
101326.76
101327.44
101323.06
101302.46
101302.61
101302.67
101302.64
101302.6
101302.54
101302.46
101302.35
101302.2
101302
101301.75
101301.44
101301.08
101300.71
101300.35
101300.05
101299.91
101300
101300.35
101300.97
101301.9
101302.93
101303.95
101305.68
101309.81
101313.63
101318.31
101323.61
101326.39
101326.84
101322.24
101301.89
101302.11
101302.2
101302.22
101302.22
101302.22
101302.2
101302.17
101302.12
101302.03
101301.9
101301.73
101301.52
101301.29
101301.07
101300.86
101300.78
101300.95
101301.33
101301.96
101302.86
101303.86
101304.82
101306.52
101310.31
101313.96
101318.45
101323.57
101326.07
101326.32
101321.71
101301.32
101301.59
101301.72
101301.77
101301.81
101301.86
101301.91
101301.96
101302
101302.02
101302.02
101301.98
101301.92
101301.83
101301.77
101301.64
101301.61
101301.88
101302.3
101302.94
101303.81
101304.79
101305.65
101307.28
101310.82
101314.31
101318.63
101323.59
101325.81
101325.88
101321.4
101300.79
101301.09
101301.26
101301.34
101301.42
101301.52
101301.63
101301.75
101301.88
101302.01
101302.12
101302.22
101302.3
101302.34
101302.36
101302.36
101302.51
101302.82
101303.26
101303.9
101304.76
101305.7
101306.46
101308.01
101311.33
101314.7
101318.84
101323.64
101325.62
101325.5
101321.28
101300.35
101300.68
101300.87
101300.98
101301.09
101301.23
101301.4
101301.59
101301.8
101302.03
101302.26
101302.48
101302.69
101302.87
101302.94
101303.07
101303.43
101303.75
101304.22
101304.86
101305.69
101306.61
101307.27
101308.72
101311.86
101315.11
101319.1
101323.74
101325.48
101325.18
101321.26
101300.04
101300.38
101300.59
101300.72
101300.86
101301.04
101301.26
101301.51
101301.8
101302.11
101302.45
101302.79
101303.14
101303.49
101303.62
101303.81
101304.3
101304.68
101305.19
101305.83
101306.63
101307.52
101308.09
101309.36
101312.4
101315.55
101319.39
101323.87
101325.38
101324.9
101321.28
101299.86
101300.18
101300.38
101300.54
101300.72
101300.95
101301.22
101301.53
101301.88
101302.27
101302.7
101303.15
101303.6
101303.97
101304.26
101304.73
101305.19
101305.62
101306.16
101306.79
101307.56
101308.41
101308.9
101309.95
101312.95
101316.01
101319.72
101324.04
101325.31
101324.68
101321.33
101299.95
101300.28
101300.5
101300.66
101300.85
101301.08
101301.37
101301.71
101302.1
101302.55
101303.06
101303.61
101304.18
101304.47
101304.91
101305.68
101306.12
101306.59
101307.13
101307.76
101308.5
101309.31
101309.72
101310.64
101313.52
101316.49
101320.08
101324.23
101325.26
101324.52
101321.39
101300.19
101300.51
101300.73
101300.9
101301.09
101301.34
101301.64
101302.01
101302.43
101302.93
101303.48
101304.08
101304.65
101305.17
101305.89
101306.56
101307.05
101307.56
101308.12
101308.74
101309.44
101310.19
101310.54
101311.46
101314.1
101316.99
101320.47
101324.42
101325.23
101324.42
101321.5
101300.63
101300.93
101301.14
101301.31
101301.51
101301.76
101302.08
101302.46
101302.91
101303.44
101304.06
101304.72
101305.21
101305.89
101306.85
101307.46
101308
101308.56
101309.12
101309.72
101310.38
101311.07
101311.38
101312.32
101314.7
101317.5
101320.87
101324.6
101325.22
101324.37
101321.67
101301.29
101301.55
101301.75
101301.91
101302.11
101302.36
101302.67
101303.05
101303.5
101304.04
101304.65
101305.36
101306.04
101306.84
101307.71
101308.37
101308.98
101309.56
101310.13
101310.7
101311.32
101311.93
101312.21
101313.15
101315.31
101318.04
101321.28
101324.79
101325.2
101324.35
101321.9
101302.16
101302.37
101302.55
101302.7
101302.89
101303.13
101303.42
101303.79
101304.24
101304.76
101305.35
101305.99
101306.88
101307.87
101308.61
101309.31
101309.96
101310.56
101311.13
101311.68
101312.25
101312.77
101313.02
101313.96
101315.93
101318.59
101321.7
101324.98
101325.15
101324.35
101322.17
101303.23
101303.4
101303.54
101303.68
101303.85
101304.07
101304.35
101304.7
101305.14
101305.65
101306.26
101306.95
101307.8
101308.7
101309.5
101310.26
101310.95
101311.56
101312.12
101312.64
101313.17
101313.59
101313.8
101314.78
101316.56
101319.16
101322.12
101325.15
101325.07
101324.35
101322.42
101304.49
101304.6
101304.71
101304.83
101304.98
101305.18
101305.43
101305.75
101306.15
101306.65
101307.24
101307.93
101308.72
101309.57
101310.41
101311.2
101311.91
101312.54
101313.09
101313.59
101314.08
101314.41
101314.54
101315.59
101317.22
101319.75
101322.55
101325.3
101324.98
101324.34
101322.63
101305.9
101305.95
101306.03
101306.13
101306.25
101306.42
101306.64
101306.92
101307.28
101307.73
101308.28
101308.93
101309.67
101310.49
101311.33
101312.13
101312.85
101313.49
101314.03
101314.51
101314.96
101315.23
101315.28
101316.4
101317.9
101320.35
101322.96
101325.43
101324.85
101324.3
101322.78
101307.41
101307.41
101307.45
101307.52
101307.61
101307.75
101307.93
101308.16
101308.47
101308.87
101309.36
101309.95
101310.64
101311.41
101312.23
101313.02
101313.75
101314.39
101314.92
101315.39
101315.82
101316.05
101316.14
101317.2
101318.61
101320.98
101323.37
101325.52
101324.69
101324.23
101322.86
101309.01
101308.94
101308.94
101308.98
101309.04
101309.13
101309.26
101309.45
101309.7
101310.03
101310.45
101310.97
101311.6
101312.33
101313.11
101313.87
101314.6
101315.23
101315.77
101316.23
101316.65
101316.87
101317.15
101317.98
101319.33
101321.62
101323.77
101325.6
101324.5
101324.15
101322.89
101310.65
101310.53
101310.49
101310.48
101310.5
101310.55
101310.62
101310.75
101310.93
101311.18
101311.51
101311.93
101312.54
101313.25
101313.93
101314.66
101315.37
101316.01
101316.55
101317.02
101317.44
101317.68
101318.19
101318.78
101320.08
101322.28
101324.16
101325.67
101324.3
101324.06
101322.89
101312.28
101312.12
101312.03
101312
101311.98
101311.97
101312
101312.06
101312.17
101312.36
101312.63
101313
101313.46
101314.02
101314.67
101315.38
101316.07
101316.71
101317.27
101317.75
101318.19
101318.47
101319.18
101319.66
101320.82
101322.93
101324.52
101325.76
101324.13
101323.97
101322.86
101313.84
101313.64
101313.52
101313.45
101313.39
101313.34
101313.31
101313.32
101313.36
101313.47
101313.66
101313.94
101314.27
101314.72
101315.37
101316.04
101316.7
101317.34
101317.91
101318.42
101318.9
101319.23
101320
101320.61
101321.56
101323.58
101324.84
101325.88
101324.01
101323.9
101322.84
101315.29
101315.06
101314.92
101314.82
101314.73
101314.64
101314.56
101314.5
101314.47
101314.5
101314.59
101314.74
101314.97
101315.45
101316.07
101316.64
101317.27
101317.89
101318.49
101319.03
101319.56
101319.94
101320.68
101321.53
101322.28
101324.21
101325.17
101326.01
101323.97
101323.87
101322.82
101316.59
101316.35
101316.18
101316.06
101315.95
101315.82
101315.71
101315.6
101315.52
101315.48
101315.5
101315.61
101315.82
101316.12
101316.55
101317.14
101317.75
101318.38
101318.99
101319.58
101320.16
101320.6
101321.3
101322.3
101322.92
101324.8
101325.5
101326.17
101324
101323.92
101322.82
101317.72
101317.48
101317.3
101317.17
101317.03
101316.88
101316.73
101316.59
101316.46
101316.36
101316.32
101316.35
101316.47
101316.61
101316.99
101317.63
101318.17
101318.79
101319.44
101320.07
101320.7
101321.21
101321.89
101322.9
101323.49
101325.34
101325.81
101326.34
101324.1
101324.05
101322.82
101318.66
101318.43
101318.25
101318.11
101317.96
101317.8
101317.63
101317.45
101317.29
101317.16
101317.06
101317.02
101317.08
101317.21
101317.52
101317.97
101318.52
101319.16
101319.83
101320.5
101321.18
101321.75
101322.44
101323.42
101324
101325.83
101326.07
101326.52
101324.28
101324.28
101322.85
101319.42
101319.2
101319.04
101318.89
101318.73
101318.56
101318.38
101318.2
101318.02
101317.85
101317.71
101317.64
101317.65
101317.79
101317.96
101318.24
101318.82
101319.47
101320.15
101320.87
101321.6
101322.23
101322.94
101323.88
101324.46
101326.24
101326.29
101326.75
101324.54
101324.6
101322.89
101319.98
101319.8
101319.64
101319.5
101319.35
101319.18
101319
101318.81
101318.62
101318.43
101318.27
101318.15
101318.11
101318.16
101318.29
101318.57
101319.1
101319.73
101320.43
101321.17
101321.94
101322.63
101323.34
101324.27
101324.82
101326.57
101326.49
101326.97
101324.87
101325.06
101322.96
101320.37
101320.22
101320.08
101319.95
101319.81
101319.65
101319.48
101319.3
101319.1
101318.91
101318.74
101318.6
101318.52
101318.52
101318.59
101318.91
101319.38
101319.94
101320.64
101321.4
101322.2
101322.93
101323.65
101324.55
101325.07
101326.8
101326.68
101327.25
101325.26
101325.58
101323.08
101320.57
101320.46
101320.35
101320.23
101320.11
101319.97
101319.81
101319.65
101319.47
101319.29
101319.11
101318.96
101318.87
101318.86
101318.97
101319.19
101319.51
101320.08
101320.79
101321.56
101322.37
101323.12
101323.84
101324.71
101325.19
101326.92
101326.83
101327.53
101325.7
101326.22
101323.24
101320.61
101320.54
101320.46
101320.37
101320.26