/*--------------------------------*- C++ -*----------------------------------*\
| =========                 |                                                 |
| \\      /  F ield         | OpenFOAM: The Open Source CFD Toolbox           |
|  \\    /   O peration     | Version:  2406                                  |
|   \\  /    A nd           | Website:  www.openfoam.com                      |
|    \\/     M anipulation  |                                                 |
\*---------------------------------------------------------------------------*/
FoamFile
{
    version     2.0;
    format      ascii;
    arch        "LSB;label=32;scalar=64";
    class       surfaceScalarField;
    location    "0.016";
    object      phi;
}
// * * * * * * * * * * * * * * * * * * * * * * * * * * * * * * * * * * * * * //

dimensions      [1 0 -1 0 0 0 0];

oriented        oriented;

internalField   nonuniform List<scalar> 
184887
(
0.0082501124
-0.0098197415
0.010058572
-0.0084888281
0.0080359985
-0.010248902
0.010463122
0.0078267327
-0.010664578
0.010873944
0.0076187511
-0.011074772
0.011282847
0.0074119422
-0.011481041
0.011687935
0.0072079685
-0.011884183
0.012088233
0.0070083087
-0.012284665
0.012484392
0.0068141339
-0.012683197
0.012877431
0.0066263865
-0.013080577
0.013268375
0.0064456407
-0.013477861
0.01365865
0.0062720483
-0.013876046
0.014049674
0.0061055477
-0.014275911
0.014442439
0.0059458309
-0.014677786
0.014837523
0.0057926826
-0.015081941
0.015235103
0.0056459334
-0.015488683
0.015635441
0.0055053977
-0.015898401
0.016038941
0.0053709081
-0.016311507
0.016445997
0.0052422915
-0.016728486
0.016857099
0.0051193362
-0.01714993
0.017272875
0.0050017555
-0.017576521
0.017694088
0.0048892173
-0.018009159
0.018121685
0.0047813091
-0.018448564
0.018556462
0.0046777755
-0.018894953
0.018998476
0.0045784572
-0.019348103
0.019447404
0.0044832307
-0.019808116
0.019903316
0.004391916
-0.020275204
0.020366484
0.0043043304
-0.02074956
0.020837103
0.0042203066
-0.021231421
0.021315394
0.0041396459
-0.021721232
0.021801834
0.0040621355
-0.022219469
0.022296913
0.0039875667
-0.022726521
0.022801016
0.0039157389
-0.023242711
0.023314458
0.0038464615
-0.023768323
0.023837512
0.0037795505
-0.024303606
0.02437042
0.0037148285
-0.024848776
0.024913393
0.0036521277
-0.02540402
0.025466608
0.003591282
-0.025969501
0.026030227
0.003532132
-0.026545351
0.026604374
0.0034745235
-0.027131676
0.027189151
0.0034183008
-0.02772855
0.027784633
0.0033633141
-0.028336019
0.02839086
0.0033094118
-0.028954096
0.029007847
0.003256441
-0.029582755
0.02963557
0.0032042496
-0.030221942
0.030273973
0.0031526789
-0.030871551
0.030922958
0.0031015722
-0.031531432
0.031582372
0.0030507465
-0.032201424
0.03225208
0.003000005
-0.032881399
0.032931984
0.0029492856
-0.033570728
0.033621279
0.0028983327
-0.034268091
0.034318874
0.00284672
-0.03497393
0.035025363
0.0027943513
-0.035688955
0.035741142
0.0027409712
-0.036410994
0.036464214
0.0026862371
-0.037139122
0.037193697
0.0026298022
-0.037872405
0.037928688
0.0025712589
-0.038609476
0.038667877
0.002510124
-0.039348714
0.039409717
0.0024458315
-0.040088109
0.040152283
0.0023776809
-0.040825134
0.040893182
0.0023048049
-0.041556577
0.04162937
0.0022260951
-0.042278268
0.04235692
0.0021401047
-0.042984685
0.043070649
0.0020449354
-0.043668391
0.043763574
0.0019382136
-0.044319412
0.044426204
0.0018187996
-0.044927386
0.04504697
0.001696854
-0.045504907
0.045627114
0.0016002338
-0.046136134
0.046232943
0.0015369368
-0.046912681
0.046976049
0.0014895685
-0.047785009
0.047832385
0.0014468127
-0.048696445
0.048739191
0.0014059532
-0.049629815
0.049670661
0.0013663291
-0.050582387
0.050621999
0.0013277695
-0.051554066
0.051592612
0.0012901808
-0.052544941
0.052582515
0.0012535259
-0.053555706
0.053592344
0.0012177578
-0.05458645
0.054622199
0.0011828767
-0.055637827
0.055672686
0.0011488466
-0.056710102
0.056744107
0.0011156497
-0.057803748
0.057836915
0.0010832528
-0.05891934
0.058951703
0.0010516221
-0.060057221
0.060088813
0.001020735
-0.061218261
0.061249108
0.00099055409
-0.06240251
0.062432649
0.00096106273
-0.063610641
0.063640091
0.00093222802
-0.064843088
0.064871882
0.00090402618
-0.066100349
0.06612851
0.00087644937
-0.067383167
0.067410704
0.00084949149
-0.068692059
0.068718977
0.00082311216
-0.070027881
0.070054221
0.00079725342
-0.07139078
0.071416599
0.00077187992
-0.072781255
0.072806589
0.00074696245
-0.074199877
0.074224754
0.00072248885
-0.075647208
0.075671641
0.00069844064
-0.077124159
0.077148168
0.00067479398
-0.078631219
0.078654826
0.00065151689
-0.080168788
0.080192027
0.00062859989
-0.081737854
0.081760735
0.00060602387
-0.083338944
0.083361487
0.00058375019
-0.084972499
0.084994743
0.00056177299
-0.086639432
0.086661382
0.0005400687
-0.088340564
0.088362244
0.00051859654
-0.090076421
0.090097871
0.000497333
-0.091847605
0.091868849
0.00047626765
-0.093655089
0.093676138
0.00045539029
-0.095499601
0.095520465
0.00043467739
-0.097381763
0.097402465
0.00041410108
-0.09930239
0.099322958
0.00039364632
-0.10126215
0.1012826
0.0003733084
-0.10326172
0.10328206
0.00035306152
-0.10530214
0.10532238
0.0003328888
-0.10738434
0.1074045
0.0003127662
-0.10950904
0.10952916
0.00029266882
-0.1116772
0.11169729
0.00027257694
-0.11388952
0.11390961
0.00025245886
-0.11614681
0.11616693
0.00023230534
-0.11845027
0.11847043
0.00021208536
-0.1208008
0.12082104
0.0001917736
-0.12319943
0.12321977
0.00017134647
-0.12564706
0.12566752
0.00015077283
-0.12814489
0.1281655
0.00013002323
-0.13069356
0.13071434
0.0001090752
-0.13329463
0.13331561
8.7885029e-05
-0.13594858
0.13596981
6.6430237e-05
-0.13865757
0.13867906
4.4661893e-05
-0.1414214
0.1414432
2.2539554e-05
-0.1442436
0.14426576
-0.14712271
0.14714529
0.0082328532
-0.0096277047
-0.008424771
0.0080358625
-0.010051799
0.0078398957
-0.010468507
0.0076447392
-0.01087952
0.0074512162
-0.011287432
0.0072603334
-0.011693224
0.0070731595
-0.012097424
0.0068905491
-0.012500528
0.0067131848
-0.012903163
0.0065414399
-0.013306075
0.0063754542
-0.013710027
0.0062151145
-0.014115545
0.0060603456
-0.014522997
0.0059111056
-0.014932687
0.0057673626
-0.015344932
0.005629065
-0.0157601
0.0054961504
-0.016178592
0.0053685409
-0.01660088
0.0052461259
-0.017027523
0.0051287456
-0.017459153
0.0050160746
-0.017896499
0.0049077399
-0.018340239
0.0048034129
-0.018790637
0.0047029738
-0.019247679
0.004606327
-0.019711491
0.0045133531
-0.020182259
0.0044239581
-0.020660202
0.0043380301
-0.021145539
0.0042554172
-0.021638674
0.0041759245
-0.022140039
0.0040993506
-0.022650018
0.0040255
-0.023168939
0.0039541874
-0.023697096
0.0038852328
-0.024234745
0.0038184635
-0.024782107
0.0037537125
-0.025339377
0.0036908168
-0.02590672
0.0036296156
-0.026484271
0.0035699556
-0.027072144
0.0035116811
-0.027670409
0.0034546386
-0.028279114
0.0033986763
-0.028898276
0.0033436386
-0.029527864
0.0032893677
-0.030167821
0.0032357039
-0.03081804
0.0031824844
-0.031478368
0.0031295264
-0.032148623
0.003076604
-0.032828627
0.0030235659
-0.033517846
0.0029702814
-0.034214962
0.0029163846
-0.034920205
0.0028616233
-0.035634367
0.0028057456
-0.036355264
0.0027484029
-0.037081928
0.0026892236
-0.037813367
0.0026277767
-0.038548163
0.0025635472
-0.039284608
0.0024959182
-0.040020591
0.0024241334
-0.040753445
0.0023472429
-0.041479763
0.0022640221
-0.0421951
0.0021728681
-0.042893552
0.0020716693
-0.043567171
0.0019579319
-0.044205591
0.0018320196
-0.044801281
0.0017096604
-0.045382291
0.0016204222
-0.04604674
0.0015626353
-0.046854845
0.0015164523
-0.047738827
0.0014734652
-0.04865347
0.001432005
-0.049588367
0.0013917169
-0.050542112
0.0013524916
-0.051514854
0.0013142481
-0.052506713
0.0012769461
-0.053518421
0.0012405422
-0.054550065
0.0012050363
-0.055602343
0.0011703912
-0.056675483
0.0011365894
-0.057769977
0.0011036
-0.058886385
0.0010713913
-0.06002505
0.0010399334
-0.061186844
0.0010091901
-0.062371808
0.00097914587
-0.063580638
0.00094976824
-0.064813751
0.00092103654
-0.066071658
0.00089294824
-0.067355119
0.00086549572
-0.068664647
0.00083863127
-0.070001056
0.00081228178
-0.07136447
0.00078642125
-0.072755435
0.00076102431
-0.074174521
0.00073608215
-0.075622306
0.00071157185
-0.077099689
0.00068746979
-0.078607156
0.00066374613
-0.080145102
0.00064039107
-0.081714535
0.00061738112
-0.083315967
0.00059468094
-0.08494983
0.0005722872
-0.086617066
0.00055017054
-0.088318472
0.00052828728
-0.09005456
0.00050662173
-0.091825959
0.00048515918
-0.093633643
0.00046388663
-0.095478342
0.00044278216
-0.097360669
0.00042181478
-0.099281431
0.00040097121
-0.10124131
0.00038024773
-0.10324101
0.0003596171
-0.10528152
0.00033906325
-0.1073638
0.0003185603
-0.10948855
0.00029808483
-0.11165673
0.0002776138
-0.11386905
0.00025712018
-0.11612631
0.00023659086
-0.11842973
0.00021599488
-0.12078018
0.00019530714
-0.12317872
0.00017450244
-0.12562623
0.00015354218
-0.12812389
0.00013241759
-0.13067239
0.00011107912
-0.13327326
8.949671e-05
-0.13592697
6.7643955e-05
-0.13863568
4.5473494e-05
-0.14139919
2.2950804e-05
-0.14422104
-0.14709972
0.0081771902
-0.0094642274
-0.0083405457
0.0080043888
-0.0098788817
0.0078276567
-0.010291667
0.0076497969
-0.010701563
0.0074723592
-0.011109906
0.0072964748
-0.011517261
0.0071230484
-0.011923928
0.0069528358
-0.012330256
0.0067864263
-0.012736703
0.0066241989
-0.013143805
0.0064663186
-0.013552112
0.0063128606
-0.013962058
0.0061638844
-0.014373999
0.0060194559
-0.014788243
0.0058796394
-0.015205105
0.0057444777
-0.015624932
0.0056139956
-0.016048108
0.0054881919
-0.016475078
0.0053670254
-0.016906361
0.0052504001
-0.017342535
0.0051381036
-0.017784212
0.0050298098
-0.018231954
0.0049252446
-0.018686082
0.004824283
-0.019146732
0.0047268333
-0.019614062
0.004632814
-0.020088269
0.0045421444
-0.02056957
0.0044547642
-0.021058206
0.0043705618
-0.021554527
0.0042893778
-0.022058919
0.0042110375
-0.02257175
0.0041353671
-0.023093349
0.0040621916
-0.023624009
0.0039913398
-0.024163989
0.0039226478
-0.024713518
0.0038559503
-0.02527279
0.0037910901
-0.025841977
0.0037279111
-0.026421217
0.0036662575
-0.027010621
0.0036059746
-0.027610262
0.0035469121
-0.028220194
0.0034889116
-0.028840422
0.0034318192
-0.029470922
0.0033754723
-0.030111628
0.003319707
-0.030762431
0.0032643515
-0.031423171
0.0032092226
-0.032093654
0.0031540801
-0.032773639
0.0030987381
-0.033462663
0.0030430893
-0.034159468
0.0029868043
-0.034864094
0.0029295679
-0.035577304
0.0028711033
-0.036296946
0.002811044
-0.037022017
0.0027490027
-0.037751465
0.0026845093
-0.0384838
0.0026170168
-0.039217235
0.0025458561
-0.039949538
0.0024702059
-0.040677885
0.0023890229
-0.041398651
0.0023009638
-0.042107086
0.0022042637
-0.042796863
0.002096648
-0.043459521
0.0019758851
-0.044084719
0.0018453293
-0.044670498
0.0017271883
-0.045263907
0.0016475189
-0.045966948
0.0015936203
-0.046800916
0.0015474301
-0.047692641
0.0015036969
-0.048609749
0.0014613833
-0.049546067
0.001420244
-0.050500986
0.0013801855
-0.05147481
0.00134113
-0.052467673
0.0013030334
-0.053480341
0.0012658516
-0.054512902
0.0012295883
-0.055566102
0.0011942036
-0.056640124
0.0011596812
-0.057735485
0.0011259869
-0.058852726
0.0010930907
-0.059992192
0.0010609599
-0.061154754
0.0010295558
-0.062340445
0.00099886656
-0.063549991
0.00096885972
-0.064783786
0.00093951745
-0.066042357
0.00091083164
-0.067326474
0.00088279538
-0.068636651
0.00085535113
-0.069973652
0.00082843783
-0.071337597
0.0008020293
-0.072729067
0.00077609912
-0.074148631
0.00075063464
-0.075596882
0.00072561475
-0.07707471
0.00070100864
-0.07858259
0.00067679468
-0.080120926
0.00065295731
-0.081690734
0.00062947148
-0.083292515
0.00060630684
-0.084926696
0.00058345821
-0.086594245
0.00056089299
-0.088295932
0.00053856686
-0.090032256
0.00051646687
-0.091803878
0.00049457532
-0.093611768
0.00047287649
-0.095456656
0.00045135107
-0.097339154
0.00042996338
-0.099260052
0.00040870396
-0.10122006
0.00038756825
-0.10321988
0.00036653051
-0.10526049
0.000345569
-0.10734284
0.00032466178
-0.10946765
0.00030378334
-0.11163586
0.00028291278
-0.11384818
0.000262021
-0.11610542
0.00024109625
-0.11840879
0.0002201057
-0.12075917
0.00019901953
-0.1231576
0.00017781703
-0.12560499
0.00015646277
-0.1281025
0.00013492636
-0.13065082
0.00011318569
-0.13325148
9.1192902e-05
-0.13590494
6.8924649e-05
-0.13861338
4.6341219e-05
-0.14137657
2.3381156e-05
-0.14419804
-0.1470763
0.0081045715
-0.0093240456
-0.0082446311
0.0079551388
-0.0097293321
0.0077997184
-0.010136138
0.0076410907
-0.010542835
0.0074810954
-0.010949821
0.0073210349
-0.01135712
0.0071619002
-0.011764722
0.0070044816
-0.012172775
0.0068493963
-0.012581563
0.0066970895
-0.012991452
0.006547847
-0.013402831
0.0064018759
-0.013816056
0.0062593458
-0.014231444
0.006120412
-0.01464929
0.0059852159
-0.015069895
0.0058538773
-0.015493583
0.0057264906
-0.015920714
0.0056031183
-0.016351702
0.0054837778
-0.01678702
0.0053684266
-0.017227186
0.0052569331
-0.017672723
0.0051490776
-0.018124106
0.0050446609
-0.018581676
0.004943562
-0.019045649
0.0048457026
-0.019516225
0.0047510195
-0.019993616
0.0046594568
-0.020478046
0.0045709683
-0.020969765
0.0044854725
-0.021469088
0.0044028499
-0.021976362
0.0043229612
-0.022491935
0.0042456507
-0.023016121
0.0041707622
-0.023549211
0.0040981414
-0.024091467
0.0040276288
-0.024643112
0.0039590711
-0.025204347
0.0038923159
-0.025775344
0.0038272104
-0.02635624
0.0037636015
-0.026947147
0.0037013394
-0.027548141
0.0036402669
-0.028159267
0.0035802324
-0.028780538
0.0035210754
-0.02941192
0.003462634
-0.030053344
0.0034047375
-0.030704695
0.0033472105
-0.031365807
0.0032898559
-0.032036463
0.0032324383
-0.032716382
0.0031747561
-0.033405144
0.0031166832
-0.034101552
0.0030579043
-0.034805493
0.0029980907
-0.035517668
0.0029369291
-0.036235933
0.0028740343
-0.036959271
0.002808987
-0.037686558
0.0027412929
-0.038416236
0.0026703568
-0.039146418
0.002595457
-0.039874742
0.0025156969
-0.040598212
0.00242994
-0.041312959
0.0023367111
-0.042013894
0.0022340917
-0.042694243
0.0021197157
-0.043345091
0.0019920972
-0.043956955
0.0018589274
-0.044537071
0.0017477523
-0.045152514
0.0016764146
-0.045895518
0.0016245937
-0.046749078
0.0015781438
-0.047646199
0.0015336981
-0.048565316
0.0014905801
-0.049502961
0.0014486295
-0.050459049
0.0014077715
-0.051433966
0.0013679325
-0.05242785
0.0013290657
-0.053441492
0.0012911286
-0.054474984
0.0012541264
-0.055529122
0.0012180193
-0.056604043
0.001182788
-0.057700284
0.0011484041
-0.058818377
0.001114834
-0.059958661
0.0010820416
-0.061122002
0.0010499884
-0.062308434
0.0010186637
-0.063518708
0.00098803546
-0.064753199
0.00095808883
-0.066012451
0.0009288169
-0.067297243
0.00090021113
-0.068608086
0.00087220408
-0.069945686
0.00084473274
-0.071310166
0.00081777852
-0.072702153
0.00079131234
-0.074122205
0.00076532741
-0.075570938
0.00073979379
-0.077049218
0.00071468297
-0.07855752
0.00068997382
-0.080096256
0.00066565192
-0.081666449
0.00064168973
-0.083268587
0.0006180571
-0.084903094
0.00059474992
-0.086570966
0.00057173333
-0.088272941
0.00054896031
-0.090009505
0.00052642093
-0.091781358
0.00050409863
-0.093589462
0.00048197175
-0.095434542
0.00046001959
-0.097317212
0.00043821036
-0.099238251
0.00041652952
-0.10119839
0.00039497775
-0.10319834
0.0003735277
-0.10523905
0.00035215473
-0.10732148
0.00033083992
-0.10944635
0.00030955339
-0.11161458
0.00028827627
-0.1138269
0.00026698378
-0.11608412
0.00024565732
-0.11838745
0.00022426575
-0.12073775
0.00020277958
-0.12313609
0.00018117332
-0.12558335
0.00015941302
-0.1280807
0.00013746682
-0.13062883
0.00011531354
-0.13322929
9.2906009e-05
-0.13588249
7.0224002e-05
-0.13859066
4.7204388e-05
-0.14135351
2.3814895e-05
-0.14417461
-0.14705244
0.0080232919
-0.0092048764
-0.0081423399
0.00789523
-0.0096011559
0.0077604726
-0.010001274
0.0076212033
-0.010403467
0.0074790429
-0.01080757
0.0073352365
-0.011213232
0.0071907981
-0.011620211
0.0070465651
-0.012028477
0.0069032163
-0.012438158
0.0067612846
-0.012849472
0.0066211764
-0.013262682
0.0064832141
-0.013678059
0.006347669
-0.014095871
0.0062147807
-0.014516379
0.0060847637
-0.014939859
0.0059578044
-0.015366609
0.005834058
-0.015796957
0.005713643
-0.016231279
0.0055966307
-0.016670003
0.0054830334
-0.017113587
0.0053727905
-0.017562482
0.0052657801
-0.018017101
0.0051618745
-0.018477781
0.0050609845
-0.018944775
0.0049630507
-0.019418315
0.0048680297
-0.019898626
0.0047758853
-0.020385941
0.0046865847
-0.020880513
0.0046000688
-0.02138263
0.0045162548
-0.021892615
0.0044350266
-0.022410782
0.004356259
-0.022937437
0.0042798146
-0.023472859
0.0042055534
-0.024017306
0.004133332
-0.024571
0.0040630053
-0.025134137
0.0039944272
-0.025706889
0.0039274516
-0.026289395
0.0038619292
-0.026881762
0.0037977126
-0.027484068
0.0037346493
-0.028096353
0.0036725823
-0.028718624
0.0036113537
-0.029350849
0.0035507966
-0.029992948
0.0034907388
-0.030644801
0.0034309959
-0.031306229
0.0033713653
-0.031976998
0.0033116148
-0.032656795
0.0032515326
-0.033345227
0.0031909582
-0.034041135
0.0031295902
-0.034744305
0.0030670888
-0.035455345
0.0030031104
-0.036172104
0.0029372419
-0.036893551
0.0028690403
-0.037618496
0.0027979686
-0.038345294
0.002723388
-0.039071954
0.0026445169
-0.039795973
0.0025603799
-0.040514158
0.0024697303
-0.041222368
0.0023709581
-0.041915148
0.0022619968
-0.042585266
0.0021404813
-0.043223497
0.0020064325
-0.04382272
0.0018732915
-0.04440366
0.0017715018
-0.045050542
0.0017070754
-0.045831026
0.0016564163
-0.046698413
0.0016095141
-0.047599307
0.0015642939
-0.048520109
0.0015203517
-0.049459032
0.0014775739
-0.050416284
0.0014359024
-0.05139231
0.0013952675
-0.052387231
0.001355616
-0.053401858
0.0013169103
-0.054436298
0.0012791586
-0.055491393
0.0012423145
-0.056567226
0.0012063643
-0.057664365
0.001171276
-0.058783325
0.0011370203
-0.059924444
0.001103553
-0.061088576
0.0010708365
-0.062275759
0.0010388639
-0.063486777
0.0010076038
-0.064721981
0.00097704255
-0.065981931
0.00094717237
-0.067267414
0.00091798025
-0.068578935
0.00088939526
-0.069917142
0.00086135134
-0.071282163
0.00083384212
-0.072674684
0.00080683153
-0.074095236
0.00078031153
-0.07554446
0.00075425822
-0.077023206
0.00072863015
-0.078531932
0.00070342036
-0.080071086
0.00067860463
-0.08164167
0.00065415332
-0.08324417
0.00063004332
-0.084879015
0.00060626947
-0.086547221
0.00058279203
-0.088249489
0.0005595631
-0.089986299
0.00053657581
-0.09175839
0.00051381258
-0.093566714
0.00049124704
-0.09541199
0.00046886176
-0.097294837
0.00044662019
-0.099216017
0.00042451105
-0.10117628
0.0004025375
-0.10317637
0.00038066577
-0.10521719
0.00035887289
-0.1072997
0.00033713959
-0.10942462
0.00031543866
-0.11159289
0.00029374875
-0.11380522
0.00027204403
-0.11606241
0.00025031112
-0.1183657
0.00022851005
-0.12071593
0.00020661233
-0.12311416
0.00018459512
-0.12556129
0.00016242056
-0.12805849
0.00014006368
-0.13060644
0.00011749681
-0.13320668
9.4667333e-05
-0.13585963
7.1545849e-05
-0.1385675
4.8095167e-05
-0.14133002
2.4268795e-05
-0.14415074
-0.14702813
0.0079365528
-0.0091049994
-0.0080363083
0.0078283701
-0.0094928616
0.0077133379
-0.0098861389
0.0075929032
-0.010282937
0.0074683247
-0.010682903
0.0073407008
-0.011085527
0.0072110107
-0.011490447
0.0070801114
-0.011897513
0.0069487347
-0.012306724
0.0068174912
-0.012718178
0.0066868848
-0.013132031
0.0065573365
-0.013548473
0.0064292074
-0.013967709
0.0063028151
-0.014389959
0.0061784407
-0.014815462
0.0060563306
-0.01524448
0.005936695
-0.015677306
0.0058197027
-0.016114275
0.005705476
-0.016555768
0.0055940821
-0.017002189
0.0054855274
-0.017453927
0.0053797671
-0.017911345
0.0052767411
-0.018374764
0.0051764016
-0.018844452
0.005078717
-0.019320654
0.0049836673
-0.019803608
0.0048912332
-0.020293548
0.0048013981
-0.020790728
0.0047141279
-0.021295419
0.0046293568
-0.021807912
0.0045470049
-0.022328508
0.0044669674
-0.022857486
0.0043891309
-0.023395118
0.004313371
-0.02394165
0.0042395584
-0.024497299
0.0041675606
-0.025062258
0.0040972406
-0.025636696
0.0040284597
-0.026220748
0.0039610743
-0.026814517
0.003894938
-0.027418078
0.0038299028
-0.028031469
0.0037658123
-0.028654691
0.0037025084
-0.029287705
0.0036398212
-0.029930425
0.0035775746
-0.030582721
0.0035155788
-0.0312444
0.0034536272
-0.031915214
0.0033914866
-0.032594821
0.0033289324
-0.03328284
0.0032657811
-0.033978142
0.0032017263
-0.034680431
0.0031364278
-0.035390227
0.0030695038
-0.036105329
0.0030005193
-0.036824714
0.0029289941
-0.037547109
0.0028543566
-0.038270784
0.0027759159
-0.038993627
0.0026928208
-0.039712975
0.0026040038
-0.040425417
0.0025081045
-0.041126518
0.0024033653
-0.041810423
0.0022875739
-0.04246944
0.0021586026
-0.043094415
0.0020191506
-0.043683039
0.0018894875
-0.044273732
0.0017985244
-0.044959435
0.0017390447
-0.045771506
0.0016888067
-0.046648176
0.001641302
-0.047551814
0.0015952861
-0.048474106
0.0015505169
-0.049414276
0.0015069141
-0.050372695
0.0014644288
-0.051349839
0.0014229916
-0.05234581
0.0013825553
-0.053361439
0.0013430773
-0.05439684
0.0013045673
-0.055452907
0.0012669841
-0.05652967
0.0012303091
-0.057627722
0.0011945107
-0.058747562
0.0011595607
-0.059889534
0.0011254121
-0.061054469
0.0010920273
-0.062242417
0.0010593997
-0.063454192
0.001027501
-0.064690124
0.0009963171
-0.065950789
0.00096584079
-0.06723698
0.00093605757
-0.068549193
0.00090688538
-0.069888011
0.00087826537
-0.071253583
0.00085019154
-0.072646651
0.00082262696
-0.074067712
0.00079556672
-0.075517441
0.00076898171
-0.076996662
0.00074283023
-0.078505822
0.00071710634
-0.080045402
0.00069178995
-0.081616391
0.00066684358
-0.083219258
0.00064224796
-0.084854452
0.00061799911
-0.086523
0.0005940499
-0.088225565
0.00057035643
-0.089962628
0.00054691612
-0.091734968
0.00052370518
-0.093543519
0.00050069433
-0.095388991
0.00047786604
-0.097272019
0.00045518593
-0.099193345
0.00043263939
-0.10115374
0.00041023417
-0.10315397
0.00038793393
-0.10519489
0.00036571465
-0.10727748
0.00034355635
-0.10940247
0.00032143103
-0.11157077
0.00029931965
-0.11378311
0.00027719794
-0.11604028
0.00025504758
-0.11834354
0.00023283089
-0.12069369
0.0002105156
-0.12309181
0.00018808014
-0.12553882
0.00016548178
-0.12803585
0.00014270147
-0.13058362
0.00011970203
-0.13318364
9.6443864e-05
-0.13583633
7.288847e-05
-0.13854391
4.8999904e-05
-0.14130609
2.4717396e-05
-0.14412642
-0.14700337
0.0078479478
-0.0090233829
-0.0079294441
0.0077584367
-0.0094032417
0.0076618998
-0.0097895025
0.0075592735
-0.010180217
0.007451499
-0.010575041
0.0073395172
-0.010973465
0.0072242409
-0.011375097
0.0071065147
-0.01177972
0.0069870947
-0.012187245
0.0068666424
-0.012597673
0.0067457299
-0.013011073
0.0066248527
-0.013427555
0.0065044438
-0.013847265
0.0063848861
-0.014270371
0.006266519
-0.014697068
0.0061496413
-0.015127579
0.0060345115
-0.015562157
0.0059213452
-0.016001093
0.0058103111
-0.016444722
0.0057015276
-0.016893398
0.005595061
-0.017347458
0.0054909328
-0.01780722
0.0053891428
-0.018272984
0.0052896866
-0.018745013
0.0051925653
-0.019223557
0.0050977803
-0.019708856
0.005005339
-0.020201149
0.0049152368
-0.020700678
0.0048274575
-0.021207701
0.0047419665
-0.021722492
0.0046586999
-0.022245321
0.0045775823
-0.022776458
0.004498518
-0.023316152
0.0044214024
-0.023864641
0.0043461239
-0.024422135
0.0042725606
-0.024988818
0.0042005858
-0.025564852
0.0041300678
-0.026150368
0.0040608732
-0.026745466
0.0039928584
-0.027350213
0.0039258755
-0.027964642
0.0038597756
-0.028588751
0.0037943928
-0.029222487
0.0037295634
-0.029865762
0.0036651033
-0.03051843
0.0036008194
-0.031180287
0.0035364983
-0.031851064
0.003471909
-0.032530401
0.0034068128
-0.033217913
0.0033409964
-0.033912485
0.0032741582
-0.034613776
0.0032059423
-0.035322191
0.0031359382
-0.036035473
0.0030636833
-0.036752606
0.0029886605
-0.037472223
0.0029102528
-0.038192501
0.0028277089
-0.038911194
0.0027401063
-0.039625464
0.0026462774
-0.040331657
0.0025447245
-0.041025004
0.0024335314
-0.041699229
0.0023103888
-0.042346241
0.0021738755
-0.042957753
0.0020310168
-0.043539918
0.0019087195
-0.044151197
0.0018284549
-0.044879063
0.0017720354
-0.045715063
0.0017217481
-0.046597894
0.001673545
-0.047503622
0.001626713
-0.048427286
0.001581113
-0.049368689
0.0015366835
-0.05032828
0.0014933759
-0.051306547
0.0014511363
-0.052303586
0.0014099078
-0.053320229
0.0013696529
-0.054356605
0.0013303826
-0.05541366
0.0012920529
-0.056491368
0.0012546464
-0.057590348
0.0012181284
-0.05871108
0.001182478
-0.059853923
0.0011476396
-0.061019672
0.0011135793
-0.062208399
0.0010802885
-0.063420944
0.0010477422
-0.06465762
0.0010159301
-0.065919019
0.00098484146
-0.067205933
0.00095445587
-0.068518849
0.00092468799
-0.069858284
0.00089547804
-0.071224414
0.00086683391
-0.072618047
0.00083870745
-0.074039627
0.00081109536
-0.07548987
0.00078397249
-0.076969581
0.00075728886
-0.07847918
0.00073104457
-0.080019198
0.00070521792
-0.081590603
0.000679766
-0.083193842
0.00065467686
-0.084829394
0.00062994247
-0.086498295
0.00060551647
-0.088201165
0.00058135085
-0.089938485
0.00055744778
-0.091711084
0.00053378199
-0.093519869
0.00051031577
-0.095365538
0.00048703676
-0.097248749
0.00046390986
-0.099170225
0.00044092037
-0.10113076
0.00041807576
-0.10313113
0.00039533927
-0.10517216
0.00037268253
-0.10725484
0.00035009066
-0.10937989
0.00032753508
-0.11154822
0.00030499396
-0.11376057
0.00028244717
-0.11601773
0.00025987363
-0.11832095
0.00023723061
-0.12067102
0.00021449085
-0.12306904
0.00019162902
-0.12551592
0.00016860452
-0.12801278
0.00014539397
-0.13056036
0.00012196122
-0.13316017
9.8261236e-05
-0.13581259
7.4264935e-05
-0.13851987
4.9919147e-05
-0.14128171
2.5185658e-05
-0.14410164
-0.14697813
0.0077612423
-0.0089587386
-0.0078257674
0.0076889332
-0.0093308255
0.0076093374
-0.009709809
0.0075231101
-0.010093898
0.0074309741
-0.010482819
0.0073337316
-0.010876142
0.0072322122
-0.011273505
0.0071272194
-0.011674661
0.0070195008
-0.012079466
0.0069097356
-0.012487853
0.0067985317
-0.01289982
0.0066864312
-0.013315411
0.0065739169
-0.013734711
0.0064614204
-0.014157839
0.006349327
-0.014584944
0.0062379793
-0.015016205
0.0061276768
-0.015451832
0.0060186756
-0.015892073
0.0059111866
-0.016337219
0.0058053744
-0.016787577
0.0057013566
-0.017243437
0.0055992121
-0.017705078
0.0054989914
-0.018172773
0.0054007335
-0.018646772
0.0053044713
-0.019127321
0.0052102355
-0.019614655
0.0051180503
-0.020109008
0.0050279338
-0.020610615
0.0049398894
-0.021119721
0.0048538983
-0.021636574
0.0047699257
-0.022161432
0.0046879125
-0.022694536
0.0046077879
-0.023236128
0.0045294659
-0.023786428
0.0044528467
-0.024345634
0.0043778256
-0.024913922
0.0043042873
-0.025491447
0.0042321092
-0.02607833
0.004161162
-0.026674667
0.0040913107
-0.027280515
0.0040224122
-0.027895902
0.0039543135
-0.028520816
0.0038868578
-0.029155198
0.0038198719
-0.029798947
0.0037531738
-0.030451904
0.0036865653
-0.031113852
0.0036198289
-0.031784501
0.0035527268
-0.032463471
0.0034850062
-0.033150363
0.0034164364
-0.033844076
0.0033467102
-0.034544234
0.0032754533
-0.035251114
0.0032022242
-0.035962392
0.0031265307
-0.036677059
0.0030478143
-0.037393641
0.0029654083
-0.038110217
0.0028784997
-0.038824391
0.0027860739
-0.039533124
0.0026868498
-0.040232493
0.0025791857
-0.040917367
0.0024609997
-0.041581025
0.0023300049
-0.042215162
0.0021863677
-0.042813924
0.0020433269
-0.043396597
0.001931905
-0.044039576
0.0018606571
-0.044807742
0.0018058393
-0.045660236
0.0017551758
-0.046547239
0.001706214
-0.047454672
0.001658555
-0.04837964
0.0016121222
-0.049322269
0.0015668624
-0.050283034
0.0015227328
-0.051262433
0.0014796837
-0.052260554
0.0014376613
-0.053278225
0.001396628
-0.054315593
0.0013565921
-0.055373649
0.0013175101
-0.056452314
0.0012793652
-0.057552236
0.0012421246
-0.058673876
0.0012057657
-0.059817604
0.0011702314
-0.06098418
0.0011354868
-0.062173697
0.0011015271
-0.063387027
0.0010683275
-0.064624462
0.0010358797
-0.065886614
0.0010041706
-0.067174266
0.00097317556
-0.068487896
0.00094280112
-0.069827951
0.00091299677
-0.071194651
0.00088377121
-0.072588863
0.00085507531
-0.074010972
0.00082690419
-0.075461741
0.00079923475
-0.076941954
0.00077200857
-0.078451996
0.00074523458
-0.079992464
0.00071888927
-0.081564296
0.0006929245
-0.083167913
0.00066733272
-0.084803835
0.00064210711
-0.086473098
0.0006171912
-0.088176275
0.0005925453
-0.089913861
0.0005681709
-0.091686729
0.00054404234
-0.093495756
0.00052011496
-0.095341622
0.00049637504
-0.097225018
0.00047279378
-0.099146651
0.00044935338
-0.10110733
0.00042606094
-0.10310785
0.00040288096
-0.10514899
0.00037978064
-0.10723175
0.00035674662
-0.10935686
0.00033375115
-0.11152523
0.00031077449
-0.11373759
0.00028779321
-0.11599474
0.00026478632
-0.11829793
0.00024171297
-0.12064792
0.00021853873
-0.12304583
0.00019524171
-0.12549258
0.00017177697
-0.12798927
0.00014813545
-0.13053668
0.00012425008
-0.13313624
0.0001001074
-0.13578841
7.5656961e-05
-0.13849538
5.0859189e-05
-0.14125687
2.5655154e-05
-0.14407639
-0.14695243
0.0076792536
-0.0089095414
-0.0077283342
0.0076223793
-0.0092738452
0.0075580037
-0.0096453365
0.0074865865
-0.01002239
0.0074087157
-0.010404863
0.0073250904
-0.010792438
0.0072364547
-0.011184796
0.0071435492
-0.011581688
0.0070470844
-0.011982939
0.0069477258
-0.012388438
0.0068460873
-0.012798129
0.006742729
-0.013212006
0.0066381609
-0.013630101
0.0065328447
-0.014052485
0.0064271981
-0.014479263
0.0063215955
-0.014910572
0.0062163697
-0.015346581
0.0061118104
-0.015787493
0.0060081644
-0.016233557
0.0059056355
-0.016685038
0.0058043861
-0.017142183
0.0057045406
-0.017605235
0.0056061956
-0.018074438
0.0055094285
-0.018550024
0.0054143066
-0.019032227
0.0053208847
-0.019521271
0.0052292118
-0.020017382
0.0051393232
-0.020520783
0.0050512394
-0.021031704
0.0049649664
-0.021550378
0.004880486
-0.022077037
0.0047977627
-0.022611908
0.0047167432
-0.023155212
0.0046373601
-0.023707157
0.0045595316
-0.024267926
0.0044831645
-0.024837684
0.0044081571
-0.025416576
0.0043343956
-0.026004713
0.0042617582
-0.02660218
0.0041901167
-0.027209031
0.004119331
-0.027825279
0.0040492542
-0.028450906
0.0039797248
-0.029085839
0.0039105726
-0.029729968