/*--------------------------------*- C++ -*----------------------------------*\
| =========                 |                                                 |
| \\      /  F ield         | OpenFOAM: The Open Source CFD Toolbox           |
|  \\    /   O peration     | Version:  2406                                  |
|   \\  /    A nd           | Website:  www.openfoam.com                      |
|    \\/     M anipulation  |                                                 |
\*---------------------------------------------------------------------------*/
FoamFile
{
    version     2.0;
    format      ascii;
    arch        "LSB;label=32;scalar=64";
    class       volScalarField;
    location    "0.002";
    object      k;
}
// * * * * * * * * * * * * * * * * * * * * * * * * * * * * * * * * * * * * * //

dimensions      [0 2 -2 0 0 0 0];

internalField   nonuniform List<scalar> 
23203
(
466.65081
466.85768
466.92188
466.80569
466.47033
465.87975
465.00166
463.80766
462.27331
460.3781
458.10548
455.44275
452.38093
448.91464
445.04187
440.76375
436.08431
431.01009
425.54968
419.71197
413.50493
406.94081
400.03731
469.15945
468.90636
468.53475
468.00932
467.29338
466.35249
465.15555
463.67495
461.88661
459.77006
457.30839
454.48827
451.29981
447.73646
443.79483
439.47448
434.77762
429.70884
424.27454
418.48211
412.33991
405.85945
399.05601
471.96332
471.25778
470.45672
469.52674
468.43329
467.14362
465.62785
463.85921
461.81406
459.47202
456.81592
453.83189
450.50923
446.84033
442.8205
438.44784
433.72294
428.64863
423.22962
417.47221
411.38444
404.97681
398.26232
475.08728
473.93694
472.71259
471.38245
469.91415
468.2767
466.4415
464.38269
462.07716
459.5047
456.64803
453.49281
450.02763
446.24395
442.13594
437.70037
432.93638
427.84531
422.4305
416.69719
410.65264
404.30647
397.66964
478.54495
476.95887
475.31833
473.5931
471.75307
469.76907
467.61392
465.26276
462.69312
459.8851
456.82139
453.48734
449.871
445.96299
441.75651
437.24716
432.43285
427.31363
421.89163
416.17097
410.15802
403.86213
482.33635
480.32599
478.27836
476.16477
473.95749
471.62931
469.15458
466.50959
463.67267
460.62434
457.34744
453.82717
450.05116
446.00939
441.69424
437.10034
432.22453
427.06577
421.62508
415.90558
409.91262
403.65434
486.44481
484.02524
481.58277
479.09032
476.5227
473.85483
471.06275
468.12406
465.01804
461.72586
458.23064
454.51762
450.57418
446.38988
441.95642
437.26764
432.3195
427.10996
421.63904
415.90874
409.92318
403.68876
490.83567
488.02638
485.20553
482.34764
479.43011
476.43018
473.32578
470.09602
466.72135
463.18374
459.46685
455.55613
451.43893
447.10452
442.54417
437.7511
432.72049
427.44944
421.937
416.18409
410.1935
403.97006
495.45923
492.28432
489.10582
485.89998
482.6469
479.32628
475.91811
472.40319
468.76332
464.9815
461.04211
456.93103
452.63577
448.14556
443.45138
438.54599
433.42398
428.0817
422.51731
416.7307
410.7235
404.49922
500.24804
496.73681
493.22643
489.69499
486.1254
482.49991
478.80074
475.01056
471.11269
467.09136
462.93186
458.62072
454.14584
449.49658
444.66383
439.6401
434.41951
428.99784
423.37248
417.54244
411.50836
405.27267
505.11992
501.30708
497.49558
493.66608
489.80412
485.89454
481.92189
477.87084
473.72643
469.47431
465.10088
460.59352
455.94071
451.13215
446.15888
441.0133
435.68929
430.18218
424.48879
418.60742
412.53789
406.28179
509.98848
505.91143
501.83385
497.73762
493.61169
489.44329
485.2192
480.92618
476.55109
472.08114
467.50402
462.80814
457.98276
453.01812
447.90557
442.63765
437.20814
431.61214
425.84607
419.90771
413.79626
407.51263
514.76198
510.46144
506.15536
501.82784
497.46984
493.07168
488.62227
484.11036
479.52467
474.85404
470.08759
465.2149
460.22615
455.11233
449.86527
444.47782
438.94388
433.25848
427.41784
421.41941
415.26196
408.94591
519.34594
514.86563
510.37175
505.85069
501.29625
496.70064
492.05552
487.3515
482.57912
477.72887
472.79136
467.75744
462.61837
457.36597
451.99277
446.49207
440.85806
435.08591
429.17181
423.11305
416.90817
410.55722
523.65345
519.03562
514.39634
509.72161
505.00793
500.25014
495.44153
490.57515
485.64319
480.63775
475.55093
470.37491
465.1021
459.7253
454.23781
448.63355
442.90716
437.05411
431.07071
424.95429
418.70329
412.31759
527.60588
522.89236
518.14801
513.36041
508.52607
503.64225
498.70461
493.70759
488.64552
483.51195
478.30041
473.0044
467.61754
462.13365
456.54691
450.85196
445.04403
439.11898
433.07346
426.90493
420.61189
414.19421
531.13573
526.36685
521.5567
516.69446
511.77828
506.80532
501.77334
496.67892
491.51754
486.28465
480.97502
475.58343
470.10465
464.53359
458.86535
453.09536
447.2195
441.23419
435.13646
428.92408
422.59573
416.15138
534.18889
529.40219
524.5636
519.66339
514.70118
509.67556
504.58411
499.42516
494.19615
488.89347
483.51354
478.05223
472.50541
466.86903
461.13913
455.31197
449.38415
443.35268
437.21509
430.96954
424.61499
418.15161
536.72564
531.95514
527.12241
522.21857
517.24417
512.19905
507.08199
501.89108
496.62524
491.2826
485.86037
480.35581
474.76576
469.08711
463.31682
457.45197
451.48989
445.42825
439.26511
432.99908
426.62949
420.15679
538.72055
533.99628
529.20005
524.3237
519.36833
514.33458
509.22228
504.03053
498.75793
493.40388
487.96711
482.44554
476.83719
471.13977
465.35106
459.46895
453.49148
447.41696
441.24402
434.97176
428.59992
422.12925
540.16156
535.50939
530.77636
525.95489
521.04647
516.0522
510.97252
505.80741
500.55636
495.21837
489.79324
484.28024
478.6779
472.98495
467.19985
461.3212
455.34773
449.27835
443.11226
436.84906
430.4889
424.03289
541.04867
536.49026
531.84305
527.1
522.26278
517.33274
512.3107
507.19715
501.99228
496.69585
491.30722
485.82656
480.25358
474.5874
468.82734
462.97257
457.02241
450.97635
444.83414
438.59582
432.26197
425.83404
541.39212
536.94504
532.40233
527.75737
523.01185
518.16724
513.22458
508.18465
503.04802
497.81501
492.48564
487.0596
481.53736
475.91905
470.20431
464.39298
458.48488
452.47999
446.37851
440.18095
433.88827
427.50223
541.21057
536.88858
532.46524
527.93429
523.29733
518.55584
513.71091
508.76349
503.71435
498.56411
493.31324
487.96196
482.51026
476.95889
471.30834
465.55872
459.71038
453.76369
447.71925
441.57794
435.34107
429.01068
540.52951
536.34281
532.05016
527.6456
523.13058
518.50646
513.77431
508.9351
503.98969
498.93886
493.78328
488.52353
483.16002
477.69301
472.12351
466.45236
460.68007
454.80745
448.83539
442.76507
436.59809
430.33672
539.37946
535.33505
531.18119
526.91216
522.52921
518.03351
513.42601
508.70763
503.87922
498.94159
493.8955
488.7417
483.48085
478.11354
472.64028
467.06234
461.38085
455.59669
449.71109
443.72544
437.64156
431.46189
537.79424
533.89638
529.88655
525.7593
521.51561
517.15642
512.68252
508.09469
503.3937
498.58032
493.65531
488.61945
483.4735
478.21824
472.85442
467.38279
461.80486
456.12201
450.33548
444.4469
438.45821
432.37196
535.80958
532.06014
528.19715
524.21539
520.11557
515.89836
511.56435
507.11414
502.54837
497.86771
493.07284
488.16448
483.14342
478.01048
472.76655
467.41249
461.9493
456.37873
450.70231
444.92174
439.03903
433.05679
533.46189
529.86076
526.14535
522.31064
518.35705
514.28498
510.09482
505.78695
501.36183
496.81997
492.16195
487.3884
482.50001
477.4976
472.38203
467.15429
461.81536
456.3665
450.80966
445.14645
439.37908
433.51012
530.78734
527.3328
523.76398
520.07605
516.26915
512.34344
508.29904
504.13613
499.85497
495.4559
490.93932
486.30574
481.55573
476.69
471.70937
466.61477
461.40727
456.08798
450.65842
445.12065
439.47663
433.72897
527.8211
524.51012
521.08551
517.5426
513.8813
510.10149
506.20305
502.18596
498.05025
493.79606
489.42363
484.93328
480.32546
475.60072
470.75977
465.80346
460.73277
455.54888
450.25299
444.84697
439.33295
433.71331
524.59678
521.42533
518.14144
514.74062
511.22253
507.58681
503.83311
499.96119
495.97087
491.86209
487.63488
483.2894
478.82592
474.24483
469.5467
464.73223
459.80231
454.758
449.60053
444.33127
438.95233
433.46608
521.14606
518.10936
514.96186
511.69927
508.321
504.82647
501.21513
497.4865
493.64023
489.67603
485.59375
481.39336
477.07493
472.6387
468.08505
463.41454
458.62789
453.72603
448.71008
443.58132
438.34135
432.99261
517.49844
514.59117
511.57514
508.44621
505.20359
501.84651
498.37421
494.78604
491.08141
487.25987
483.32106
479.26476
475.09086
470.79942
466.39063
461.86488
457.22272
452.4649
447.59238
442.60632
437.50813
432.29977
513.68112
510.8976
508.00767
505.00734
501.89565
498.67164
495.33438
491.88301
488.3168
484.63509
480.83734
476.92315
472.89221
468.74441
464.47976
460.09844
455.60084
450.98751
446.25923
441.41699
436.46206
431.39603
509.71891
507.05328
504.28383
501.40672
498.42083
495.32504
492.11827
488.79951
485.36783
481.82242
478.16257
474.38768
470.4973
466.4911
462.36891
458.13075
453.77679
449.30741
444.72319
440.02492
435.21368
430.29089
505.63431
503.08062
500.42589
497.66642
494.80096
491.82825
488.74708
485.55628
482.25478
478.84161
475.31591
471.6769
467.92397
464.05661
460.07447
455.97739
451.76536
447.43856
442.99736
438.44236
433.77443
428.99478
501.44753
498.99987
496.45409
493.80661
491.05609
488.20114
485.24043
482.17267
478.99666
475.7113
472.31555
468.80852
465.18941
461.45756
457.61246
453.65376
449.58127
445.39497
441.09506
436.68193
432.15623
427.51894
497.17666
494.82923
492.38667
489.84556
487.20445
484.46187
481.61638
478.66658
475.61116
472.44889
469.17861
465.79929
462.30999
458.70989
454.99834
451.17479
447.23891
443.19048
439.02952
434.7562
430.37098
425.87461
492.83776
490.58491
488.24
485.79973
483.26257
480.62698
477.89142
475.05443
472.11459
469.07055
465.92107
462.66496
459.30117
455.82875
452.24688
448.55488
444.75224
440.83859
436.81373
432.67768
428.43066
424.07322
488.44503
486.28134
484.02867
481.68385
479.24529
476.71139
474.08056
471.35123
468.52192
465.59121
462.55772
459.42018
456.17743
452.82838
449.37209
445.80775
442.13466
438.35233
434.46037
430.45862
426.3471
422.12616
484.01095
481.93125
479.76563
477.51107
475.16594
472.72857
470.19733
467.57061
464.84684
462.02452
459.10222
456.07856
452.95227
449.72216
446.38719
442.94638
439.39895
435.74421
431.98164
428.1109
424.13185
420.0446
479.54648
477.54583
475.46234
473.29307
471.03638
468.69057
466.25395
463.72488
461.10175
458.38299
455.56708
452.6526
449.63817
446.52253
443.3045
439.98302
436.55716
433.02612
429.38923
425.64599
421.79608
417.83946
475.06113
473.13491
471.12887
469.04018
466.86717
464.60813
462.26136
459.82516
457.2979
454.67795
451.96375
449.1538
446.24667
443.241
440.13553
436.9291
433.62067
430.20932
426.69424
423.07481
419.35055
415.52122
470.5632
468.70706
466.77406
464.76148
462.66765
460.49084
458.22933
455.88142
453.44542
450.91969
448.30263
445.59268
442.78834
439.88821
436.89093
433.79527
430.60009
427.30436
423.90717
420.40775
416.80549
413.1
466.05986
464.26973
462.40565
460.46498
458.44607
456.34717
454.16658
451.90256
449.55342
447.1175
444.59315
441.97879
439.27286
436.47392
433.58054
430.59141
427.50532
424.32114
421.03786
417.65461
414.17064
410.58543
461.55727
459.82939
458.03037
456.15769
454.20969
452.18465
450.08085
447.89656
445.63008
443.27973
440.84385
438.32082
435.70907
433.00707
430.21339
427.32664
424.34554
421.26887
418.09556
414.82461
411.45518
407.98662
457.06076
455.3916
453.65407
451.84571
449.96488
448.00988
445.97899
443.87049
441.68269
439.41388
437.06241
434.62664
432.10497
429.49585
426.79778
424.00936
421.12922
418.15611
415.08885
411.92637
408.66774
405.3122
452.57483
450.96118
449.28181
447.53437
445.71722
443.82868
441.86706
439.83065
437.71775
435.52668
433.25576
430.90336
428.46785
425.94767
423.3413
420.64727
417.8642
414.99076
412.02572
408.96794
405.8164
402.57024
448.10336
446.54223
444.91796
443.22827
441.47156
439.64616
437.7504
435.7826
433.74106
431.62412
429.43011
427.15737
424.8043
422.36931
419.85086
417.24745
414.55767
411.78014
408.91358
405.95679
402.90869
399.76833
443.64969
442.13833
440.56633
438.93147
437.23217
435.46682
433.63374
431.73129
429.7578
427.7116
425.59104
423.39448
421.1203
418.76692
416.33277
413.81636
411.21622
408.53097
405.75927
402.89987
399.95164
396.91356
439.2167
437.75258
436.23023
434.64749
433.00283
431.29463
429.52128
427.68114
425.77257
423.79393
421.74358
419.61989
417.42125
415.14607
412.7928
410.35991
407.84593
405.24944
402.5691
399.8036
396.95175
394.0125
434.80683
433.38764
431.91254
430.37943
428.78681
427.1331
425.41672
423.63606
421.78951
419.87544
417.89225
415.83832
413.71204
411.51184
409.23616
406.88349
404.45233
401.94126
399.34889
396.6739
393.91507
391.07128
430.42217
429.0458
427.61574
426.12997
424.58701
422.98532
421.32335
419.59954
417.81228
415.96
414.0411
412.05399
409.99708
407.86881
405.66763
403.39202
401.0405
398.61162
396.10398
393.51625
390.84717
388.09559
426.06451
424.72902
423.342
421.90145
420.40595
418.854
417.24408
415.57465
413.84417
412.05106
410.19377
408.27072
406.28037
404.22114
402.09152
399.88999
397.61506
395.26529
392.83928
390.33568
387.7532
385.09066
421.73538
420.439
419.09317
417.69592
416.24586
414.74153
413.18147
411.56415
409.88807
408.15171
406.35351
404.49195
402.56549
400.5726
398.51175
396.38145
394.18023
391.90665
389.55929
387.1368
384.63789
382.06135
417.43607
416.1772
414.87086
413.51512
412.10865
410.65001
409.13776
407.57045
405.94659
404.26469
402.52324
400.72075
398.85569
396.92655
394.93186
392.87011
390.73985
388.53965
386.2681
383.92385
381.50559
379.01209
413.16767
411.94484
410.67646
409.36062
407.99601
406.58125
405.11496
403.59569
402.02201
400.39245
398.70556
396.95986
395.15385
393.28607
391.35504
389.35929
387.29739
385.16791
382.96946
380.70068
378.36026
375.94699
408.93113
407.74301
406.51116
405.23372
403.9094
402.53688
401.11479
399.64175
398.11635
396.53717
394.90278
393.21174
391.46259
389.65388
387.78417
385.85202
383.856
381.7947
379.66675
377.47081
375.20555
372.86977
404.72722
403.57259
402.37599
401.13557
399.8501
398.51829
397.1388
395.7103
394.23141
392.70076
391.11695
389.47857
387.7842
386.03243
384.22182
382.35098
380.41849
378.42298
376.36306
374.23742
372.04476
369.78384
400.5566
399.43434
398.27181
397.06716
395.8192
394.52667
393.18829
391.80276
390.36875
388.88491
387.34988
385.76229
384.12076
382.42389
380.6703
378.85861
376.98743
375.05539
373.06116
371.00341
368.88086
366.69228
396.41979
395.3289
394.19934
393.0293
391.81761
390.56307
389.26442
387.9204
386.52972
385.09108
383.60315
382.0646
380.47407
378.8302
377.13165
375.37706
373.56506
371.69433
369.76352
367.77136
365.71655
363.5979
392.31724
391.25677
390.1592
389.02269
387.84613
386.62836
385.36815
384.06428
382.71551
381.32056
379.87815
378.38697
376.84572
375.25306
373.60767
371.90823
370.15341
368.3419
366.47238
364.54358
362.55426
360.50319
388.24926
387.21836
386.15184
385.04788
383.9054
382.72326
381.5003
380.23532
378.92711
377.57444
376.17606
374.7307
373.23709
371.69393
370.09994
368.45381
366.75425
364.99997
363.18969
361.32215
359.39613
357.41042
384.2161
383.21398
382.17766
381.10533
379.99593
378.84838
377.66154
376.43425
375.16535
373.85362
372.49788
371.09687
369.64936
368.15409
366.60981
365.01524
363.36912
361.67018
359.91718
358.10888
356.24406
354.32155
380.21789
379.24382
378.23691
377.19535
376.11812
375.00417
373.8524
372.66169
371.4309
370.15888
368.84444
367.48639
366.08353
364.63462
363.13845
361.59377
359.99935
358.35395
356.65636
354.90535
353.09973
351.23836
376.2547
375.30799
374.32975
373.31816
372.27224
371.19097
370.07328
368.9181
367.72431
366.4908
365.21642
363.90002
362.54041
361.13642
359.68683
358.19045
356.64607
355.05249
353.4085
351.71292
349.96459
348.16236
372.3265
371.40651
370.45625
369.47388
368.45846
367.40899
366.32445
365.2038
364.04596
362.84985
361.61434
360.33833
359.02067
357.66019
356.25574
354.80615
353.31022
351.7668
350.1747
348.53277
346.83986
345.09486
368.43319
367.53932
366.61638
365.66252
364.67682
363.65834
362.60608
361.51901
360.39611
359.23633
358.03857
356.80176
355.52478
354.20651
352.84581
351.44154
349.99256
348.49772
346.95586
345.36586
343.72659
342.03696
364.57457
363.70625
362.81001
361.88399
360.9273
359.93902
358.91818
357.86381
356.7749
355.65043
354.48935
353.2906
352.0531
350.77577
349.4575
348.09717
346.69368
345.24589
343.75269
342.21296
340.62563
338.9896
360.75038
359.90707
359.03694
358.13811
357.20973
356.2509
355.2607
354.23817
353.18233
352.0922
350.96677
349.80499
348.60584
347.36824
346.09112
344.7734
343.41399
342.0118
340.56573
339.0747
337.53764
335.95349
356.96026
356.14145
355.29686
354.42461
353.52388
352.59379
351.63345
350.64193
349.6183
348.56159
347.47082
346.34498
345.18306
343.98403
342.74685
341.47046
340.15379
338.79579
337.39538
335.95152
334.46314
332.92922
353.2038
352.40898
351.58939
350.74313
349.8694
348.96737
348.03616
347.07487
346.0826
345.05842
344.00135
342.91045
341.78471
340.62314
339.42472
338.18842
336.9132
335.59804
334.24189
332.84371
331.40248
329.91719
349.4805
348.70918
347.91406
347.09322
346.24588
345.37124
344.46845
343.53663
342.57492
341.58239
340.55813
339.5012
338.41062
337.28543
336.12464
334.92724
333.69224
332.41861
331.10535
329.75144
328.35588
326.91768
345.78978
345.0415
344.27033
343.47435
342.65281
341.80492
340.92985
340.02678
339.09484
338.13315
337.14081
336.1169
335.06051
333.97066
332.84641
331.68678
330.49078
329.25743
327.98574
326.67472
325.3234
323.9308
342.131
341.40529
340.65759
339.88593
339.0896
338.26783
337.41983
336.54478
335.64186
334.7102
333.74893
332.75716
331.73399
330.67849
329.58972
328.46674
327.30859
326.11431
324.88292
323.61348
322.305
320.95656
338.50346
337.79987
337.07514
336.32727
335.55559
334.75934
333.93775
333.09004
332.21539
331.31298
330.38196
329.42146
328.43059
327.40846
326.35417
325.26677
324.14535
322.98895
321.79665
320.56748
319.30053
317.99485
334.90639
334.22448
333.52223
332.79764
332.05005
331.27872
330.48292
329.66187
328.81479
327.94087
327.03929
326.1092
325.14975
324.16006
323.13924
322.0864
321.00062
319.88098
318.72656
317.53644
316.30971
315.04546
331.33897
330.6783
329.99806
329.29624
328.57219
327.8252
327.05456
326.25952
325.43931
324.59314
323.72022
322.81973
321.89083
320.93267
319.94438
318.92508
317.87388
316.7899
315.67222
314.51996
313.3322
312.10807
327.80033
327.16046
326.50176
325.8222
325.12116
324.39795
323.65186
322.88218
322.08816
321.26903
320.42402
319.55232
318.65313
317.7256
316.76891
315.78218
314.76456
313.71516
312.63312
311.51754
310.36756
309.18229
324.28954
323.67004
323.03242
322.37463
321.69607
320.99607
320.27394
319.529
318.7605
317.9677
317.14985
316.30617
315.43587
314.53813
313.61213
312.65703
311.67199
310.65615
309.60866
308.52865
307.41527
306.26765
320.80565
320.20608
319.58908
318.95257
318.29597
317.61863
316.91989
316.19905
315.45542
314.68828
313.89687
313.08045
312.23823
311.36943
310.47325
309.54887
308.59545
307.61218
306.59819
305.55266
304.47475
303.3636
317.34765
316.7676
316.17075
315.55504
314.91989
314.26466
313.58872
312.8914
312.172
311.42983
310.66416
309.87425
309.05935
308.21868
307.35147
306.45691
305.53419
304.5825
303.60101
302.58891
301.54536
300.46954
313.91453
313.35356
312.77642
312.18103
311.56681
310.93317
310.27946
309.60505
308.90926
308.19141
307.45078
306.68666
305.89832
305.08499
304.24591
303.3803
302.48737
301.56633
300.61636
299.63666
298.62642
297.58484
310.50524
309.96292
309.40504
308.82948
308.2357
307.62311
306.99108
306.339
305.6662
304.97202
304.25576
303.51673
302.75419
301.96743
301.15568
300.31818
299.45417
298.56285
297.64344
296.69516
295.7172
294.70878
307.1187
306.59462
306.05554
305.49934
304.9255
304.33343
303.72254
303.09221
302.4418
301.77065
301.0781
300.36346
299.62601
298.86506
298.07985
297.26964
296.43368
295.5712
294.68144
293.76361
292.81693
291.84064
303.75383
303.24756
302.72684
302.18954
301.63514
301.06308
300.47278
299.86363
299.23501
298.58628
297.91679
297.22585
296.51279
295.7769
295.01746
294.23375
293.42502
292.59051
291.72949
290.84118
289.92482
288.97965
300.40954
299.92065
299.41784
298.89897
298.36353
297.81097
297.24072
296.65219
296.04478
295.41785
294.77078
294.10289
293.41352
292.70198
291.96757
291.20956
290.42724
289.61988
288.78672
287.92702
287.04005
286.12503
297.08472
296.6128
296.12746
295.62655
295.10958
294.57601
294.02528
293.45683
292.87004
292.26432
291.63904
290.99355
290.3272
289.6393
288.92917
288.19612
287.43943
286.65837
285.85223
285.02028
284.16177
283.27597
293.77827
293.3229
292.85459
292.37118
291.87219
291.35711
290.82539
290.27645
289.70973
289.12463
288.52053
287.89679
287.25278
286.58784
285.90129
285.19245
284.46061
283.70507
282.92513
282.12005
281.28913
280.43162
290.48909
290.04983
289.59811
289.13175
288.65027
288.15318
287.63994
287.10999
286.56278
285.99771
285.41418
284.81157
284.18926
283.5466
282.88293
282.19756
281.48983
280.75904
280.00448
279.22545
278.42125
277.59116
287.21605
286.7925
286.35693
285.90716
285.44272
284.96312
284.46785
283.95636
283.4281
282.88249
282.31894
281.73685
281.1356
280.51456
279.87307
279.21049
278.52613
277.81931
277.08936
276.33557
275.55726
274.75372
283.95806
283.54979
283.12993
282.6963
282.24843
281.78584
281.30803
280.81447
280.30462
279.7779
279.23375
278.67157
278.09076
277.49069
276.87072
276.23022
275.56852
274.88495
274.17884
273.4495
272.69627
271.91844
280.71399
280.3206
279.91602
279.49806
279.06629
278.62024
278.15939
277.68325
277.19126
276.68289
276.15756
275.6147
275.0537
274.47397
273.87487
273.25577
272.61603
271.95498
271.27197
270.56632
269.83737
269.08444
277.48274
277.10379
276.71406
276.31135
275.89522
275.46521
275.02083
274.56159
274.08694
273.59636
273.0893
272.56517
272.02339
271.46337
270.8845
270.28614
269.66767
269.02844
268.3678
267.6851
266.97966
266.25083
274.26318
273.89827
273.52296
273.13504
272.73409
272.31965
271.89126
271.44841
270.99058
270.51726
270.0279
269.52193
268.99878
268.45786
267.89859
267.32033
266.72246
266.10436
265.46539
264.80489
264.12222
263.41672
271.05418
270.7029
270.34158
269.96801
269.58179
269.18246
268.76956
268.34261
267.90109
267.4445
266.97229
266.48391
265.97881
265.45641
264.91611
264.35731
263.7794
263.18176
262.56376
261.92476
261.26413
260.58121
267.8546
267.51653
267.16878
266.80914
266.43719
266.05251
265.65464
265.24309
264.81737
264.37698
263.92139
263.45006
262.96244
262.45796
261.93604
261.39608
260.83749
260.25965
259.66195
259.04376
258.40444
257.74337
264.66329
264.33803
264.00344
263.65728
263.29917
262.92868
262.54535
262.14873
261.73832
261.31362
260.87412
260.41929
259.94859
259.46146
258.95732
258.4356
257.89571
257.33703
256.75897
256.1609
255.54222
254.90228
261.47906
261.16622
260.84437
260.51128
260.16656
259.80981
259.44057
259.0584
258.6628
258.25329
257.82937
257.39051
256.93618
256.46584
255.97891
255.47483
254.95302
254.41288
253.85382
253.27522
252.67649
252.05699
258.30072
257.9999
257.69038
257.36994
257.0382
256.69474
256.33914
255.97094
255.58968
255.19487
254.78601
254.3626
253.92411
253.47
252.99972
252.51271
252.00839
251.48617
250.94548
250.38572
249.80627
249.20654
255.12704
254.83785
254.54027
254.23206
253.91287
253.58227
253.23986
252.88518
252.51778
252.13718
251.7429
251.33443
250.91126
250.47285
250.01866
249.54815
249.06073
248.55585
248.03292
247.49136
246.93057
246.34994
251.95677
251.67882
251.39277
251.0964
250.78933
250.47117
250.14151
249.79991
249.44591
249.07906
248.69886
248.30484
247.89647
247.47324
247.03462
246.58005
246.10898
245.62085
245.11509
244.59112
244.04835
243.48619
248.7887
248.52161
248.2467
247.96175
247.6664
247.36026
247.04292
246.71394
246.3729
246.01932
245.65275
245.27268
244.87862
244.47006
244.04646
243.60731
243.15203
242.68009
242.19092
241.68395
241.1586
240.61428
245.62157
245.36496
245.10082
244.82691
244.54287
244.24833
243.94288
243.62611
243.29757
242.95682
242.60338
242.23679
241.85655
241.46215
241.05308
240.62881
240.18879
239.73248
239.25933
238.76878
238.26025
237.73316
242.45404
242.20756
241.95382
241.69056
241.41745
241.13412
240.84015
240.53515
240.21869
239.89031
239.54957
239.19599
238.82909
238.44837
238.05331
237.64341
237.21812
236.7769
236.31922
235.84452
235.35223
234.84179
239.28479
239.04809
238.80438
238.55141
238.28885
238.01632
237.73344
237.43981
237.135
236.81857
236.49008
236.14905
235.79502
235.4275
235.04597
234.64993
234.23886
233.81221
233.36946
232.91006
232.43344
231.93906
236.11247
235.8852
235.65117
235.40812
235.15573
234.89364
234.62145
234.33878
234.04521
233.74031
233.42363
233.09472
232.75311
232.39832
232.02984
231.64718
231.24982
230.83723
230.40889
229.96424
229.50276
229.02387
232.9357
232.71752
232.49283
232.25935
232.01677
231.76473
231.50286
231.23076
230.94803
230.65424
230.34896
230.03173
229.70209
229.35958
229.00369
228.63393
228.2498
227.85076
227.43631
227.00591
226.55901
226.09507
229.75309
229.54369
229.32798
229.10373
228.8706
228.62825
228.37632
228.11441
227.84212
227.55904
227.26474
226.95877
226.64068
226.31
225.96625
225.60892
225.23754
224.85157
224.45052
224.03384
223.60101
223.15148
226.56325
226.36229
226.15524
225.93987
225.71585
225.48283
225.24047
224.98837
224.72615
224.45338
224.16966
223.87454
223.56757
223.24828
222.91622
222.57088
222.21178
221.83841
221.45026
221.04681
220.62753
220.1919
223.36475
223.1719
222.97319
222.76637
222.5511
222.32707
222.09392
221.85127
221.59873
221.33589
221.06235
220.77767
220.4814
220.17309
219.85228
219.51848
219.17121
218.80997
218.43425
218.04354
217.63733
217.21508
220.15614
219.9711
219.7804
219.58179
219.37495
219.15955
218.93526
218.70168
218.45845
218.20517
217.94142
217.66678
217.38081
217.08307
216.77308
216.45039
216.1145
215.76493
215.40118
215.02274
214.6291
214.21973
216.93594
216.7584
216.5754
216.38467
216.18592
215.97882
215.76303
215.53818
215.3039
215.05979
214.80546
214.54047
214.2644
213.9768
213.67723
213.36521
213.04027
212.70193
212.34969
211.98305
211.60151
211.20454
213.70265
213.5323
213.35667
213.17352
212.98253
212.78339
212.57576
212.35929
212.13359
211.89829
211.65299
211.39727
211.13071
210.85286
210.56329
210.26153
209.94712
209.61957
209.27839
208.9231
208.55319
208.16815
210.45471
210.29125
210.1227
209.94679
209.76323
209.57172
209.37192
209.16347
208.94601
208.71916
208.48252
208.23569
207.97825
207.70976
207.42979
207.13788
206.83357
206.51638
206.18584
205.84145
205.48273
205.10915
207.19053
207.03365
206.87186
206.70289
206.52645
206.34224
206.14992
205.94916
205.73958
205.52082
205.29249
205.05418
204.80548
204.54597
204.2752
203.99274
203.69812
203.39088
203.07055
202.73663
202.38864
202.02608
203.90843
203.75784
203.6025
203.44016
203.27052
203.09329
202.90813
202.71471
202.51268
202.30166
202.08127
201.85112
201.6108
201.35988
201.09794
200.82453
200.53921
200.24151
199.93096
199.60709
199.26941
198.91743
200.60666
200.46207
200.3129
200.15687
199.99372
199.82315
199.64483
199.45843
199.26361
199.05999
198.8472
198.62484
198.39253
198.14984
197.89634
197.63161
197.35519
197.06663
196.76548
196.45124
196.12346
195.78163
197.28339
197.14452
197.00121
196.85122
196.69425
196.53003
196.35823
196.17853
195.99058
195.79403
195.58849
195.3736
195.14894
194.91411
194.6687
194.41227
194.14438
193.86458
193.57242
193.26742
192.94913
192.61704
193.93669
193.80326
193.66554
193.52128
193.3702
193.21203
193.04645
192.87313
192.69175
192.50193
192.30333
192.09555
191.8782
191.6509
191.41321
191.16472
190.90499
190.63358
190.35004
190.0539
189.7447
189.42196
190.56453
190.43626
190.30386
190.16505
190.01958
189.86717
189.70751
189.54028
189.36514
189.18176
188.98976
188.78878
188.57842
188.3583
188.128
187.8871
187.63518
187.3718
187.09651
186.80886
186.50838
186.1946
187.16474
187.0414
186.91404
186.78042
186.64029
186.49336
186.33933
186.1779
186.00872
185.83147
185.64577
185.45128
185.24759
185.03433
184.81109
184.57746
184.33301
184.07732
183.80994
183.53043
183.23831
182.93314
183.73508
183.61641
183.49385
183.36517
183.23011
183.0884
182.93975
182.78383
182.62034
182.44893
182.26926
182.08095
181.88364
181.67694
181.46045
181.23377
180.99648
180.74815
180.48835
180.21663
179.93255
179.63562
180.27316
180.15894
180.04096
179.91698
179.78675
179.65002
179.50648
179.35583
179.19776
179.03193
178.858
178.67561
178.48439
178.28396
178.07394
177.85391
177.62348
177.38221
177.12968
176.86545
176.58906
176.30007
176.77653
176.66655
176.55292
176.43342
176.30781
176.17581
176.03716
175.89154
175.73865
175.57815
175.40972
175.23298
175.0476
174.85318
174.64934
174.4357
174.21184
173.97734
173.73179
173.47475
173.20577
172.9244
173.24262
173.13669
173.02722
172.912
172.7908
172.66334
172.52935
172.38855
172.24061
172.08522
171.92204
171.75073
171.57093
171.38228
171.18438
170.97686
170.75931
170.53132
170.29248
170.04236
169.78051
169.50648
169.66881
169.56677
169.46128
169.35016
169.23318
169.11006
168.98055
168.84436
168.70117
168.55068
168.39255
168.22644
168.05201
167.86889
167.67671
167.47507
167.2636
167.04188
166.80949
166.56603
166.31105
166.0441
166.05244
165.95413
165.85247
165.74529
165.63236
165.51342
165.38821
165.25644
165.11782
164.97204
164.81877
164.65767
164.48841
164.31061
164.12393
163.92797
163.72235
163.50667
163.28052
163.04349
162.79514
162.53503
162.39084
162.29613
162.19816
162.09477
161.98574
161.87082
161.74975
161.62226
161.48804
161.34679
161.1982
161.04194
160.87765
160.70501
160.52363
160.33315
160.13318
159.92334
159.70322
159.4724
159.23047
158.97697
158.68134
158.59012
158.4957
158.39598
158.29072
158.17969
158.06262
157.93925
157.80929
157.67243
157.52836
157.37676
157.2173
157.04963
156.87338
156.68821
156.49372
156.28953
156.07524
155.85045
155.61474
155.36765
154.92134
154.83349
154.74253
154.64635
154.54475
154.43748
154.32429
154.20492
154.07907
153.94646
153.80678
153.6597
153.50491
153.34206
153.1708
152.99076
152.80159
152.60289
152.39427
152.17533
151.94565
151.70479
151.1083
151.02374
150.93613
150.8434
150.74535
150.64173
150.5323
150.41681
150.29496
150.16647
150.03105
149.88837
149.73812
149.57995
149.41353
149.23849
149.05448
148.86111
148.658
148.44476
148.22095
147.98616
147.23983
147.15847
147.07412
146.98475
146.89014
146.79008
146.68431
146.57259
146.45463
146.33016
146.19887
146.06047
145.91463