/*--------------------------------*- C++ -*----------------------------------*\
| =========                 |                                                 |
| \\      /  F ield         | OpenFOAM: The Open Source CFD Toolbox           |
|  \\    /   O peration     | Version:  2406                                  |
|   \\  /    A nd           | Website:  www.openfoam.com                      |
|    \\/     M anipulation  |                                                 |
\*---------------------------------------------------------------------------*/
FoamFile
{
    version     2.0;
    format      ascii;
    arch        "LSB;label=32;scalar=64";
    class       volScalarField;
    location    "0.002";
    object      pMean;
}
// * * * * * * * * * * * * * * * * * * * * * * * * * * * * * * * * * * * * * //

dimensions      [1 -1 -2 0 0 0 0];

internalField   nonuniform List<scalar> 
23203
(
100346.18
100347.72
100354.7
100363.49
100372.55
100381.87
100391.63
100401.86
100412.56
100423.74
100435.42
100447.6
100460.3
100473.52
100487.27
100501.56
100516.38
100531.73
100547.5
100563.65
100580.26
100597.48
100615.25
100367.43
100368
100374.62
100383.33
100392.29
100401.48
100411.09
100421.15
100431.67
100442.65
100454.12
100466.08
100478.54
100491.52
100505.01
100519.03
100533.56
100548.59
100564.06
100579.93
100596.3
100613.27
100630.77
100388.33
100387.83
100394.09
100402.75
100411.65
100420.74
100430.22
100440.14
100450.5
100461.32
100472.61
100484.37
100496.62
100509.37
100522.62
100536.37
100550.63
100565.36
100580.55
100596.19
100612.35
100629.11
100646.35
100408.78
100407.19
100413.1
100421.73
100430.59
100439.6
100448.97
100458.78
100469.01
100479.68
100490.8
100502.39
100514.44
100526.98
100540
100553.51
100567.5
100581.97
100596.9
100612.31
100628.27
100644.84
100661.83
100428.92
100426.15
100431.69
100440.32
100449.16
100458.09
100467.38
100477.09
100487.2
100497.74
100508.72
100520.13
100532.01
100544.35
100557.15
100570.43
100584.19
100598.42
100613.12
100628.32
100644.09
100660.47
100448.6
100444.64
100449.83
100458.5
100467.34
100476.23
100485.45
100495.07
100505.09
100515.52
100526.36
100537.62
100549.33
100561.49
100574.1
100587.17
100600.71
100614.72
100629.21
100644.22
100659.81
100675.92
100467.96
100462.76
100467.6
100476.31
100485.18
100494.04
100503.2
100512.75
100522.69
100533.01
100543.73
100554.86
100566.42
100578.4
100590.83
100603.71
100617.05
100630.85
100645.14
100659.95
100675.32
100691.15
100487.12
100480.6
100485.04
100493.79
100502.69
100511.52
100520.64
100530.14
100540
100550.23
100560.84
100571.85
100583.26
100595.09
100607.35
100620.04
100633.19
100646.8
100660.88
100675.47
100690.6
100706.16
100505.33
100497.79
100501.98
100510.85
100519.83
100528.67
100537.77
100547.22
100557.02
100567.17
100577.69
100588.58
100599.86
100611.54
100623.64
100636.16
100649.12
100662.53
100676.4
100690.77
100705.66
100720.95
100523.73
100514.95
100518.74
100527.66
100536.7
100545.54
100554.61
100564.03
100573.77
100583.85
100594.27
100605.05
100616.21
100627.75
100639.69
100652.05
100664.82
100678.03
100691.7
100705.84
100720.48
100735.51
100540.95
100531.89
100535.42
100544.28
100553.31
100562.14
100571.18
100580.55
100590.24
100600.25
100610.59
100621.27
100632.31
100643.71
100655.5
100667.69
100680.28
100693.29
100706.75
100720.66
100735.05
100749.82
100557.93
100547.01
100551.51
100560.64
100569.63
100578.42
100587.45
100596.79
100606.43
100616.37
100626.63
100637.21
100648.13
100659.41
100671.05
100683.07
100695.48
100708.3
100721.54
100735.22
100749.36
100763.88
100575.95
100562.42
100566.03
100576.52
100585.75
100594.44
100603.42
100612.73
100622.33
100632.21
100642.39
100652.88
100663.68
100674.83
100686.32
100698.18
100710.41
100723.03
100736.05
100749.5
100763.4
100777.65
100593.48
100579.17
100580.8
100590.83
100601.41
100610.28
100619.13
100628.38
100637.94
100647.76
100657.86
100668.25
100678.94
100689.96
100701.31
100713
100725.05
100737.47
100750.28
100763.49
100777.14
100791.12
100610.25
100595.46
100597.01
100605.38
100615.5
100625.67
100634.65
100643.76
100653.24
100663
100673.02
100683.32
100693.9
100704.79
100715.99
100727.51
100739.38
100751.6
100764.19
100777.17
100790.56
100804.28
100626.57
100610.96
100612.8
100621.43
100629.83
100639.48
100649.74
100658.95
100668.27
100677.93
100687.88
100698.07
100708.54
100719.29
100730.35
100741.71
100753.39
100765.41
100777.78
100790.52
100803.66
100817.11
100642.57
100626.08
100627.82
100637.03
100645.66
100653.53
100663.24
100673.7
100683.09
100692.57
100702.4
100712.5
100722.85
100733.47
100744.37
100755.56
100767.06
100778.88
100791.03
100803.53
100816.41
100829.58
100658.27
100640.95
100642.45
100651.83
100660.99
100669.07
100677.01
100686.88
100697.47
100706.99
100716.62
100726.58
100736.82
100747.3
100758.05
100769.07
100780.38
100791.99
100803.92
100816.18
100828.79
100841.7
100673.65
100655.61
100656.84
100666.22
100675.52
100684.05
100692.19
100700.32
100710.29
100720.97
100730.6
100740.34
100750.43
100760.78
100771.36
100782.21
100793.33
100804.74
100816.44
100828.46
100840.8
100853.43
100688.69
100670.04
100671.03
100680.35
100689.61
100698.22
100706.75
100715.09
100723.36
100733.39
100744.13
100753.85
100763.69
100773.87
100784.3
100794.98
100805.9
100817.1
100828.57
100840.34
100852.43
100864.77
100703.37
100684.21
100684.99
100694.24
100703.42
100711.95
100720.53
100729.2
100737.68
100746.05
100756.12
100766.9
100776.68
100786.6
100796.85
100807.35
100818.08
100829.06
100840.31
100851.83
100863.65
100875.71
100717.67
100698.11
100698.7
100707.87
100716.96
100725.37
100733.84
100742.54
100751.3
100759.87
100768.33
100778.42
100789.22
100799.04
100809.01
100819.31
100829.85
100840.62
100851.64
100862.91
100874.46
100886.24
100731.59
100711.75
100712.18
100721.25
100730.22
100738.49
100746.83
100755.41
100764.16
100772.96
100781.59
100790.12
100800.24
100811.03
100820.87
100830.88
100841.21
100851.77
100862.55
100873.58
100884.86
100896.36
100745.11
100725.12
100725.47
100734.39
100743.2
100751.31
100759.5
100767.92
100776.53
100785.3
100794.12
100802.79
100811.38
100821.52
100832.28
100842.13
100852.15
100862.49
100873.05
100883.82
100894.84
100906.06
100758.21
100738.22
100738.49
100747.25
100755.87
100763.81
100771.82
100780.07
100788.52
100797.14
100805.9
100814.73
100823.41
100832.07
100842.22
100852.93
100862.77
100872.79
100883.11
100893.65
100904.4
100915.35
100770.88
100750.98
100751.21
100759.78
100768.2
100775.96
100783.79
100791.86
100800.13
100808.57
100817.18
100825.94
100834.75
100843.42
100852.14
100862.31
100872.96
100882.77
100892.76
100903.04
100913.53
100924.21
100783.09
100763.37
100763.57
100771.95
100780.17
100787.73
100795.37
100803.26
100811.34
100819.59
100828.02
100836.62
100845.37
100854.14
100862.78
100871.56
100881.78
100892.35
100902.08
100912.02
100922.24
100932.66
100794.83
100775.37
100775.55
100783.73
100791.73
100799.1
100806.55
100814.25
100822.14
100830.21
100838.45
100846.86
100855.45
100864.16
100872.89
100881.45
100890.33
100900.65
100911.1
100920.7
100930.56
100940.7
100806.09
100786.94
100787.12
100795.09
100802.89
100810.05
100817.32
100824.82
100832.53
100840.4
100848.46
100856.69
100865.1
100873.68
100882.4
100891.15
100899.77
100908.96
100918.69
100928.45
100938.26
100948.25
100816.87
100798.09
100798.27
100806.04
100813.61
100820.58
100827.65
100834.97
100842.48
100850.17
100858.03
100866.06
100874.27
100882.65
100891.2
100899.85
100908.42
100916.68
100926.18
100936.37
100945.85
100955.51
100827.16
100808.79
100808.99
100816.55
100823.91
100830.68
100837.56
100844.68
100852
100859.5
100867.17
100875.01
100883.02
100891.19
100899.54
100908.02
100916.55
100925.02
100933.43
100943.03
100953.13
100962.53
100836.98
100819.06
100819.27
100826.63
100833.77
100840.35
100847.04
100853.98
100861.11
100868.41
100875.89
100883.54
100891.36
100899.35
100907.49
100915.79
100924.21
100932.69
100941.16
100949.72
100959.28
100969.16
100846.34
100828.88
100829.12
100836.27
100843.21
100849.6
100856.1
100862.85
100869.79
100876.91
100884.21
100891.67
100899.3
100907.1
100915.06
100923.18
100931.45
100939.84
100948.3
100956.72
100965.64
100974.93
100855.27
100838.29
100838.54
100845.49
100852.23
100858.43
100864.75
100871.32
100878.08
100885.02
100892.13
100899.41
100906.87
100914.48
100922.26
100930.2
100938.29
100946.52
100954.87
100963.2
100971.27
100980.4
100863.77
100847.28
100847.55
100854.31
100860.84
100866.86
100873.01
100879.39
100885.98
100892.74
100899.68
100906.79
100914.06
100921.5
100929.11
100936.87
100944.79
100952.86
100961.07
100969.37
100977.7
100986.15
100871.9
100855.89
100856.17
100862.73
100869.07
100874.91
100880.89
100887.1
100893.52
100900.11
100906.87
100913.81
100920.91
100928.18
100935.61
100943.19
100950.92
100958.8
100966.8
100974.89
100982.96
100991.01
100879.66
100864.13
100864.42
100870.78
100876.93
100882.61
100888.42
100894.47
100900.72
100907.14
100913.74
100920.51
100927.44
100934.55
100941.81
100949.23
100956.8
100964.52
100972.38
100980.36
100988.45
100996.65
100887.1
100872.03
100872.32
100878.5
100884.47
100889.98
100895.63
100901.52
100907.6
100913.86
100920.3
100926.91
100933.69
100940.63
100947.73
100954.99
100962.4
100969.95
100977.65
100985.47
100993.39
101001.42
100894.27
100879.63
100879.9
100885.9
100891.7
100897.06
100902.55
100908.28
100914.21
100920.31
100926.59
100933.05
100939.67
100946.46
100953.4
100960.51
100967.77
100975.17
100982.72
100990.41
100998.21
101006.2
100901.18
100886.96
100887.2
100893.03
100898.66
100903.87
100909.21
100914.79
100920.56
100926.52
100932.65
100938.95
100945.42
100952.06
100958.86
100965.82
100972.93
100980.18
100987.58
100995.11
101002.77
101010.59
100907.9
100894.06
100894.26
100899.92
100905.39
100910.45
100915.64
100921.07
100926.7
100932.51
100938.5
100944.65
100950.98
100957.47
100964.13
100970.94
100977.91
100985.03
100992.29
100999.69
101007.22
101014.94
100914.45
100900.96
100901.11
100906.6
100911.91
100916.83
100921.89
100927.18
100932.67
100938.33
100944.17
100950.19
100956.38
100962.73
100969.25
100975.92
100982.75
100989.73
100996.86
101004.11
101011.5
101019.08
100920.89
100907.71
100907.78
100913.11
100918.28
100923.06
100927.98
100933.14
100938.49
100944.02
100949.72
100955.6
100961.65
100967.87
100974.25
100980.79
100987.49
100994.34
101001.33
101008.46
101015.72
101023.18
100927.24
100914.34
100914.33
100919.51
100924.53
100929.18
100933.97
100938.99
100944.21
100949.6
100955.17
100960.92
100966.83
100972.92
100979.17
100985.58
100992.15
100998.87
101005.73
101012.73
101019.87
101027.21
100933.56
100920.89
100920.77
100925.8
100930.7
100935.22
100939.88
100944.78
100949.86
100955.13
100960.57
100966.18
100971.97
100977.92
100984.04
100990.32
100996.76
101003.36
101010.1
101016.97
101023.99
101031.21
100939.87
100927.41
100927.18
100932.07
100936.84
100941.24
100945.77
100950.54
100955.49
100960.63
100965.94
100971.42
100977.08
100982.91
100988.9
100995.05
101001.37
101007.84
101014.46
101021.22
101028.11
101035.22
100946.23
100933.92
100933.56
100938.32
100942.97
100947.26
100951.67
100956.31
100961.14
100966.15
100971.33
100976.69
100982.22
100987.92
100993.78
100999.81
101006
101012.34
101018.84
101025.48
101032.26
101039.25
100952.65
100940.49
100940.01
100944.64
100949.17
100953.34
100957.63
100962.15
100966.85
100971.73
100976.78
100982.01
100987.41
100992.98
100998.72
101004.62
101010.68
101016.9
101023.28
101029.8
101036.46
101043.34
100959.19
100947.2
100946.65
100951.13
100955.52
100959.55
100963.71
100968.09
100972.67
100977.41
100982.33
100987.42
100992.69
100998.13
101003.74
101009.51
101015.45
101021.55
101027.8
101034.2
101040.74
101047.51
100965.88
100954.08
100953.47
100957.79
100962.03
100965.92
100969.94
100974.18
100978.61
100983.22
100988
100992.96
100998.09
101003.4
101008.87
101014.51
101020.32
101026.29
101032.42
101038.7
101045.12
101051.77
100972.73
100961.13
100960.48
100964.64
100968.72
100972.46
100976.33
100980.43
100984.72
100989.18
100993.82
100998.64
101003.64
101008.8
101014.14
101019.65
101025.33
101031.17
101037.17
101043.32
101049.62
101056.15
100979.76
100968.36
100967.66
100971.66
100975.58
100979.17
100982.9
100986.85
100990.99
100995.31
100999.81
101004.49
101009.34
101014.37
101019.57
101024.94
101030.48
101036.19
101042.06
101048.09
101054.27
101060.67
100986.99
100975.78
100975.03
100978.86
100982.63
100986.07
100989.65
100993.46
100997.46
101001.63
101005.98
101010.51
101015.22
101020.11
101025.17
101030.4
101035.81
101041.38
101047.12
101053.01
101059.06
101065.34
100994.43
100983.39
100982.59
100986.27
100989.87
100993.17
100996.61
101000.27
101004.11
101008.14
101012.35
101016.73
101021.3
101026.04
101030.95
101036.05
101041.31
101046.75
101052.35
101058.11
101064.03
101070.18
101002.08
100991.21
100990.35
100993.88
100997.33
101000.48
101003.77
101007.28
101010.98
101014.86
101018.91
101023.15
101027.57
101032.16
101036.94
101041.88
101047.01
101052.3
101057.76
101063.38
101069.17
101075.19
101009.95
100999.24
100998.33
101001.7
101005
101008
101011.14
101014.5
101018.05
101021.78
101025.69
101029.78
101034.05
101038.49
101043.12
101047.92
101052.9
101058.05
101063.37
101068.85
101074.5
101080.39
101018.04
101007.49
101006.52
101009.74
101012.88
101015.74
101018.73
101021.95
101025.35
101028.93
101032.68
101036.62
101040.74
101045.04
101049.51
101054.17
101058.99
101064
101069.17
101074.51
101080.02
101085.77
101026.36
101015.96
101014.93
101017.99
101020.98
101023.69
101026.54
101029.61
101032.86
101036.29
101039.89
101043.68
101047.65
101051.79
101056.12
101060.62
101065.3
101070.15
101075.18
101080.37
101085.73
101091.34
101034.9
101024.64
101023.56
101026.46
101029.3
101031.86
101034.57
101037.48
101040.58
101043.86
101047.32
101050.95
101054.76
101058.76
101062.93
101067.28
101071.81
101076.51
101081.38
101086.43
101091.64
101097.1
101043.65
101033.54
101032.39
101035.15
101037.83
101040.25
101042.8
101045.57
101048.52
101051.65
101054.95
101058.43
101062.09
101065.93
101069.95
101074.14
101078.52
101083.07
101087.79
101092.68
101097.74
101103.04
101052.61
101042.64
101041.43
101044.03
101046.56
101048.84
101051.25
101053.87
101056.67
101059.64
101062.79
101066.12
101069.63
101073.31
101077.17
101081.21
101085.43
101089.82
101094.38
101099.12
101104.02
101109.17
101061.76
101051.93
101050.66
101053.11
101055.49
101057.62
101059.89
101062.36
101065.01
101067.84
101070.83
101074.01
101077.36
101080.88
101084.59
101088.47
101092.53
101096.76
101101.17
101105.74
101110.49
101115.48
101071.09
101061.4
101060.07
101062.38
101064.6
101066.59
101068.71
101071.04
101073.54
101076.21
101079.06
101082.08
101085.27
101088.64
101092.19
101095.91
101099.81
101103.88
101108.13
101112.54
101117.13
101121.96
101080.6
101071.04
101069.66
101071.81
101073.89
101075.73
101077.71
101079.89
101082.25
101084.77
101087.46
101090.32
101093.36
101096.57
101099.96
101103.52
101107.26
101111.17
101115.26
101119.51
101123.93
101128.6
101090.25
101080.83
101079.39
101081.39
101083.32
101085.03
101086.87
101088.9
101091.11
101093.48
101096.02
101098.73
101101.61
101104.67
101107.9
101111.3
101114.87
101118.62
101122.54
101126.63
101130.88
101135.38
101100.03
101090.75
101089.26
101091.11
101092.9
101094.47
101096.16
101098.05
101100.11
101102.33
101104.72
101107.28
101110.01
101112.9
101115.97
101119.21
101122.63
101126.21
101129.97
101133.88
101137.97
101142.3
101109.93
101100.79
101099.24
101100.95
101102.59
101104.02
101105.58
101107.33
101109.24
101111.32
101113.55
101115.96
101118.53
101121.27
101124.18
101127.26
101130.51
101133.93
101137.52
101141.26
101145.18
101149.34
101119.93
101110.92
101109.32
101110.89
101112.39
101113.68
101115.1
101116.71
101118.48
101120.4
101122.49
101124.74
101127.16
101129.75
101132.5
101135.41
101138.5
101141.76
101145.18
101148.75
101152.49
101156.48
101130
101121.13
101119.47
101120.9
101122.26
101123.42
101124.7
101126.17
101127.8
101129.58
101131.52
101133.62
101135.88
101138.31
101140.9
101143.66
101146.59
101149.67
101152.93
101156.33
101159.9
101163.71
101140.12
101131.38
101129.67
101130.96
101132.18
101133.21
101134.36
101135.69
101137.18
101138.82
101140.61
101142.57
101144.68
101146.95
101149.39
101151.98
101154.74
101157.67
101160.75
101163.99
101167.38
101171.01
101150.27
101141.67
101139.9
101141.06
101142.14
101143.05
101144.06
101145.26
101146.61
101148.1
101149.75
101151.56
101153.52
101155.64
101157.92
101160.36
101162.95
101165.71
101168.63
101171.69
101174.91
101178.37
101160.43
101151.95
101150.14
101151.16
101152.11
101152.89
101153.78
101154.84
101156.05
101157.41
101158.92
101160.58
101162.39
101164.36
101166.48
101168.76
101171.2
101173.79
101176.54
101179.44
101182.48
101185.76
101170.57
101162.22
101160.36
101161.25
101162.07
101162.72
101163.49
101164.42
101165.5
101166.72
101168.09
101169.6
101171.27
101173.09
101175.06
101177.18
101179.46
101181.89
101184.47
101187.19
101190.06
101193.16
101180.68
101172.45
101170.53
101171.3
101171.99
101172.53
101173.17
101173.97
101174.92
101176
101177.23
101178.61
101180.13
101181.8
101183.62
101185.59
101187.71
101189.98
101192.4
101194.95
101197.64
101200.56
101190.72
101182.61
101180.64
101181.28
101181.86
101182.27
101182.79
101183.47
101184.29
101185.24
101186.34
101187.58
101188.95
101190.48
101192.15
101193.96
101195.93
101198.04
101200.29
101202.68
101205.19
101207.94
101200.68
101192.68
101190.66
101191.18
101191.64
101191.93
101192.34
101192.89
101193.59
101194.42
101195.38
101196.48
101197.72
101199.1
101200.62
101202.29
101204.1
101206.05
101208.15
101210.36
101212.7
101215.28
101210.53
101202.63
101200.57
101200.97
101201.31
101201.5
101201.78
101202.22
101202.8
101203.5
101204.33
101205.3
101206.4
101207.64
101209.02
101210.54
101212.2
101214
101215.93
101217.98
101220.15
101222.55
101220.26
101212.45
101210.34
101210.63
101210.85
101210.93
101211.11
101211.43
101211.89
101212.46
101213.17
101214.01
101214.98
101216.09
101217.32
101218.7
101220.21
101221.85
101223.63
101225.52
101227.52
101229.75
101229.82
101222.11
101219.95
101220.13
101220.24
101220.22
101220.29
101220.5
101220.84
101221.3
101221.88
101222.59
101223.44
101224.41
101225.51
101226.74
101228.1
101229.6
101231.22
101232.95
101234.78
101236.84
101239.22
101231.58
101229.37
101229.45
101229.46
101229.33
101229.3
101229.4
101229.63
101229.97
101230.44
101231.03
101231.74
101232.58
101233.55
101234.64
101235.87
101237.21
101238.69
101240.26
101241.93
101243.81
101248.41
101240.85
101238.6
101238.57
101238.48
101238.25
101238.12
101238.12
101238.24
101238.47
101238.82
101239.29
101239.88
101240.6
101241.43
101242.39
101243.47
101244.68
101246.01
101247.42
101248.93
101250.65
101257.38
101249.89
101247.59
101247.46
101247.27
101246.96
101246.73
101246.63
101246.64
101246.77
101247.01
101247.36
101247.84
101248.43
101249.14
101249.96
101250.91
101251.98
101253.16
101254.43
101255.78
101257.34
101266.11
101258.68
101256.33
101256.11
101255.83
101255.42
101255.1
101254.91
101254.82
101254.84
101254.98
101255.22
101255.58
101256.05
101256.64
101257.34
101258.16
101259.09
101260.13
101261.25
101262.45
101263.85
101274.57
101267.19
101264.8
101264.49
101264.13
101263.63
101263.22
101262.94
101262.75
101262.68
101262.71
101262.85
101263.09
101263.45
101263.92
101264.5
101265.19
101265.99
101266.9
101267.87
101268.93
101270.17
101282.75
101275.42
101272.98
101272.59
101272.14
101271.57
101271.07
101270.7
101270.42
101270.25
101270.18
101270.22
101270.36
101270.61
101270.96
101271.42
101271.99
101272.67
101273.44
101274.28
101275.19
101276.28
101290.62
101283.33
101280.85
101280.38
101279.85
101279.2
101278.63
101278.16
101277.81
101277.54
101277.38
101277.32
101277.36
101277.5
101277.75
101278.1
101278.55
101279.1
101279.75
101280.45
101281.22
101282.17
101298.16
101290.91
101288.39
101287.84
101287.23
101286.51
101285.86
101285.32
101284.88
101284.54
101284.28
101284.13
101284.07
101284.11
101284.25
101284.49
101284.83
101285.27
101285.8
101286.37
101287.01
101287.81
101305.34
101298.13
101295.57
101294.95
101294.28
101293.49
101292.77
101292.16
101291.64
101291.21
101290.87
101290.63
101290.48
101290.43
101290.47
101290.6
101290.83
101291.16
101291.57
101292.03
101292.53
101293.19
101312.16
101304.98
101302.38
101301.7
101300.96
101300.11
101299.32
101298.64
101298.05
101297.54
101297.12
101296.8
101296.56
101296.42
101296.37
101296.4
101296.53
101296.75
101297.05
101297.39
101297.76
101298.3
101318.59
101311.44
101308.8
101308.05
101307.26
101306.35
101305.5
101304.75
101304.09
101303.52
101303.03
101302.62
101302.3
101302.07
101301.93
101301.88
101301.91
101302.03
101302.22
101302.45
101302.71
101303.12
101324.6
101317.49
101314.81
101314.01
101313.16
101312.19
101311.29
101310.48
101309.76
101309.12
101308.56
101308.08
101307.69
101307.38
101307.15
101307.01
101306.95
101306.97
101307.06
101307.19
101307.33
101307.62
101330.18
101323.1
101320.39
101319.54
101318.64
101317.63
101316.67
101315.81
101315.03
101314.32
101313.7
101313.15
101312.69
101312.3
101312
101311.78
101311.63
101311.56
101311.56
101311.59
101311.63
101311.8
101335.31
101328.27
101325.52
101324.63
101323.68
101322.63
101321.63
101320.71
101319.88
101319.12
101318.44
101317.83
101317.3
101316.85
101316.47
101316.17
101315.94
101315.79
101315.71
101315.63
101315.57
101315.64
101339.97
101332.96
101330.19
101329.26
101328.28
101327.18
101326.14
101325.18
101324.3
101323.49
101322.75
101322.09
101321.5
101320.98
101320.54
101320.17
101319.87
101319.64
101319.47
101319.31
101319.16
101319.13
101344.14
101337.17
101334.38
101333.41
101332.4
101331.27
101330.19
101329.19
101328.27
101327.41
101326.63
101325.91
101325.27
101324.69
101324.19
101323.75
101323.39
101323.09
101322.84
101322.6
101322.36
101322.24
101347.8
101340.89
101338.07
101337.07
101336.03
101334.87
101333.76
101332.73
101331.77
101330.87
101330.05
101329.29
101328.59
101327.97
101327.41
101326.91
101326.49
101326.12
101325.81
101325.5
101325.17
101324.97
101350.95
101344.08
101341.25
101340.22
101339.16
101337.98
101336.84
101335.78
101334.79
101333.86
101333
101332.2
101331.46
101330.79
101330.18
101329.64
101329.15
101328.73
101328.35
101327.97
101327.58
101327.3
101353.55
101346.74
101343.9
101342.86
101341.77
101340.58
101339.42
101338.33
101337.32
101336.36
101335.46
101334.63
101333.86
101333.15
101332.49
101331.9
101331.37
101330.89
101330.46
101330.02
101329.56
101329.21
101355.6
101348.85
101346.01
101344.95
101343.86
101342.65
101341.47
101340.37
101339.33
101338.35
101337.43
101336.57
101335.77
101335.02
101334.33
101333.7
101333.13
101332.61
101332.12
101331.63
101331.11
101330.69
101357.08
101350.41
101347.57
101346.5
101345.4
101344.18
101343
101341.89
101340.83
101339.84
101338.9
101338.01
101337.18
101336.41
101335.69
101335.02
101334.41
101333.85
101333.33
101332.78
101332.22
101331.74
101358
101351.4
101348.58
101347.5
101346.4
101345.18
101343.99
101342.87
101341.81
101340.8
101339.84
101338.94
101338.09
101337.29
101336.55
101335.85
101335.21
101334.62
101334.05
101333.47
101332.86
101332.34
101358.33
101351.85
101349.07
101347.98
101346.87
101345.65
101344.45
101343.32
101342.25
101341.23
101340.26
101339.35
101338.48
101337.67
101336.9
101336.18
101335.52
101334.89
101334.3
101333.69
101333.04
101332.48
101358.05
101351.72
101348.98
101347.88
101346.77
101345.55
101344.35
101343.22
101342.14
101341.11
101340.14
101339.21
101338.34
101337.51
101336.73
101336
101335.31
101334.67
101334.05
101333.41
101332.74
101332.14
101357.15
101350.93
101348.2
101347.12
101346.03
101344.82
101343.63
101342.51
101341.44
101340.42
101339.45
101338.53
101337.65
101336.82
101336.03
101335.29
101334.59
101333.93
101333.3
101332.64
101331.95
101331.33
101355.63
101349.52
101346.81
101345.75
101344.68
101343.49
101342.33
101341.22
101340.17
101339.16
101338.2
101337.28
101336.41
101335.58
101334.79
101334.05
101333.34
101332.68
101332.04
101331.37
101330.66
101330.03
101353.51
101347.51
101344.83
101343.79
101342.74
101341.58
101340.44
101339.35
101338.32
101337.32
101336.38
101335.47
101334.61
101333.79
101333.01
101332.27
101331.57
101330.91
101330.26
101329.59
101328.88
101328.23
101350.78
101344.9
101342.25
101341.23
101340.22
101339.08
101337.97
101336.91
101335.9
101334.93
101334
101333.11
101332.27
101331.46
101330.69
101329.96
101329.27
101328.61
101327.97
101327.3
101326.59
101325.95
101347.43
101341.69
101339.08
101338.09
101337.11
101336.01
101334.92
101333.89
101332.91
101331.96
101331.06
101330.2
101329.37
101328.59
101327.84
101327.12
101326.44
101325.79
101325.16
101324.5
101323.8
101323.17
101343.49
101337.89
101335.33
101334.37
101333.43
101332.36
101331.31
101330.31
101329.36
101328.45
101327.57
101326.74
101325.94
101325.17
101324.45
101323.75
101323.09
101322.46
101321.84
101321.2
101320.52
101319.89
101338.95
101333.51
101331.01
101330.08
101329.18
101328.15
101327.14
101326.18
101325.26
101324.38
101323.54
101322.73
101321.96
101321.23
101320.53
101319.86
101319.22
101318.61
101318.02
101317.39
101316.74
101316.13
101333.84
101328.55
101326.12
101325.23
101324.36
101323.38
101322.41
101321.49
101320.61
101319.77
101318.97
101318.2
101317.46
101316.76
101316.09
101315.45
101314.84
101314.26
101313.69
101313.09
101312.47
101311.89
101328.16
101323.04
101320.68
101319.83
101319.01
101318.07
101317.15
101316.27
101315.44
101314.64
101313.88
101313.15
101312.45
101311.78
101311.15
101310.54
101309.97
101309.41
101308.87
101308.31
101307.72
101307.17
101321.93
101317
101314.7
101313.9
101313.13
101312.24
101311.37
101310.54
101309.75
101309
101308.28
101307.59
101306.93
101306.31
101305.71
101305.14
101304.6
101304.09
101303.58
101303.05
101302.5
101301.99
101315.18
101310.43
101308.22
101307.46
101306.74
101305.91
101305.09
101304.31
101303.57
101302.86
101302.19
101301.55
101300.94
101300.35
101299.8
101299.27
101298.77
101298.3
101297.83
101297.34
101296.83
101296.37
101307.95
101303.39
101301.26
101300.54
101299.88
101299.1
101298.33
101297.61
101296.92
101296.26
101295.64
101295.04
101294.48
101293.95
101293.44
101292.95
101292.5
101292.06
101291.63
101291.19
101290.73
101290.31
101300.25
101295.88
101293.84
101293.18
101292.57
101291.85
101291.13
101290.46
101289.83
101289.22
101288.65
101288.11
101287.59
101287.11
101286.64
101286.21
101285.8
101285.4
101285.02
101284.63
101284.22
101283.85
101292.12
101287.96
101286.01
101285.4
101284.84
101284.18
101283.52
101282.91
101282.33
101281.78
101281.26
101280.77
101280.3
101279.87
101279.46
101279.07
101278.7
101278.36
101278.02
101277.68
101277.32
101277.01
101283.62
101279.66
101277.81
101277.24
101276.75
101276.14
101275.54
101274.98
101274.46
101273.96
101273.5
101273.06
101272.65
101272.26
101271.9
101271.57
101271.25
101270.95
101270.67
101270.38
101270.07
101269.82
101274.79
101271.03
101269.28
101268.77
101268.32
101267.78
101267.24
101266.73
101266.27
101265.83
101265.42
101265.03
101264.67
101264.34
101264.03
101263.74
101263.48
101263.23
101263
101262.75
101262.51
101262.31
101265.69
101262.12
101260.47
101260.01
101259.62
101259.14
101258.65
101258.21
101257.8
101257.41
101257.06
101256.72
101256.42
101256.14
101255.88
101255.64
101255.43
101255.23
101255.05
101254.86
101254.67
101254.53
101256.37
101253
101251.45
101251.04
101250.71
101250.28
101249.85
101249.46
101249.11
101248.78
101248.47
101248.2
101247.94
101247.71
101247.51
101247.32
101247.15
101247.01
101246.87
101246.73
101246.6
101246.51
101246.9
101243.73
101242.28
101241.92
101241.64
101241.27
101240.9
101240.56
101240.26
101239.98
101239.73
101239.5
101239.3
101239.12
101238.96
101238.83
101238.71
101238.61
101238.52
101238.43
101238.35
101238.32
101237.36
101234.37
101233.03
101232.72
101232.48
101232.17
101231.85
101231.57
101231.32
101231.09
101230.89
101230.71
101230.56
101230.43
101230.32
101230.23
101230.15
101230.1
101230.06
101230.02
101229.99
101230.01
101227.84
101225.02
101223.78
101223.51
101223.33
101223.06
101222.8
101222.56
101222.36
101222.18
101222.03
101221.9
101221.79
101221.7
101221.63
101221.59
101221.56
101221.55
101221.55
101221.55
101221.57
101221.64
101218.41
101215.76
101214.61
101214.39
101214.24
101214.02
101213.81
101213.62
101213.46
101213.33
101213.22
101213.13
101213.06
101213.02
101212.99
101212.98
101212.99
101213.02
101213.06
101213.11
101213.17
101213.28
101209.16
101206.67
101205.6
101205.42
101205.32
101205.14
101204.97
101204.83
101204.71
101204.62
101204.55
101204.5
101204.47
101204.46
101204.47
101204.49
101204.54
101204.6
101204.67
101204.75
101204.85
101205
101200.19
101197.84
101196.86
101196.72
101196.64
101196.51
101196.38
101196.27
101196.19
101196.13
101196.09
101196.08
101196.08
101196.1
101196.14
101196.2
101196.27
101196.36
101196.46
101196.58
101196.71
101196.88
101191.6
101189.38
101188.47
101188.36
101188.32
101188.22
101188.11
101188.04
101187.99
101187.96
101187.95
101187.96
101187.99
101188.04
101188.1
101188.18
101188.28
101188.39
101188.52
101188.65
101188.8
101189
101183.47
101181.37
101180.53
101180.44
101180.42
101180.35
101180.28
101180.23
101180.2
101180.2
101180.21
101180.24
101180.29
101180.36
101180.44
101180.54
101180.65
101180.78
101180.92
101181.07
101181.23
101181.44
101175.91
101173.91
101173.13
101173.06
101173.06
101173
101172.95
101172.92
101172.92
101172.93
101172.95
101173
101173.06
101173.14
101173.23
101173.34
101173.46
101173.6
101173.75
101173.9
101174.08
101174.29
101169
101167.08
101166.35
101166.29
101166.3
101166.27
101166.23
101166.21
101166.21
101166.24
101166.27
101166.33
101166.39
101166.48
101166.57
101166.68
101166.81
101166.94
101167.09
101167.25
101167.42
101167.62
101162.81
101160.96
101160.27
101160.23
101160.24
101160.21
101160.18
101160.17
101160.18
101160.2
101160.24
101160.29
101160.36
101160.44
101160.54
101160.64
101160.76
101160.89
101161.03
101161.18
101161.34
101161.53
101157.41
101155.63
101154.97
101154.93
101154.94
101154.91
101154.89
101154.87
101154.88
101154.9
101154.93
101154.98
101155.04
101155.11
101155.19
101155.29
101155.39
101155.51
101155.63
101155.76
101155.9
101156.07
101152.87
101151.13
101150.49
101150.45
101150.46
101150.43
101150.4
101150.38
101150.38
101150.39
101150.41
101150.44
101150.49
101150.54