/*--------------------------------*- C++ -*----------------------------------*\
| =========                 |                                                 |
| \\      /  F ield         | OpenFOAM: The Open Source CFD Toolbox           |
|  \\    /   O peration     | Version:  2406                                  |
|   \\  /    A nd           | Website:  www.openfoam.com                      |
|    \\/     M anipulation  |                                                 |
\*---------------------------------------------------------------------------*/
FoamFile
{
    version     2.0;
    format      ascii;
    arch        "LSB;label=32;scalar=64";
    class       volScalarField;
    location    "0.002";
    object      rho;
}
// * * * * * * * * * * * * * * * * * * * * * * * * * * * * * * * * * * * * * //

dimensions      [1 -3 0 0 0 0 0];

internalField   nonuniform List<scalar> 
23203
(
1.1867961
1.1868831
1.1870353
1.1872092
1.1873862
1.1875662
1.1877509
1.1879405
1.1881351
1.1883345
1.188539
1.1887484
1.1889629
1.1891825
1.1894073
1.1896373
1.1898725
1.1901126
1.1903568
1.1906041
1.1908559
1.1911138
1.1913772
1.1870488
1.1871204
1.1872648
1.1874345
1.1876072
1.1877826
1.1879627
1.1881478
1.1883378
1.1885327
1.1887326
1.1889375
1.1891475
1.1893626
1.1895829
1.1898084
1.1900389
1.1902742
1.1905138
1.1907571
1.1910052
1.1912595
1.1915191
1.1873024
1.1873576
1.187494
1.1876595
1.1878282
1.1879992
1.1881749
1.1883556
1.1885412
1.1887318
1.1889273
1.1891278
1.1893335
1.1895442
1.18976
1.1899809
1.1902068
1.1904375
1.1906727
1.1909122
1.191157
1.191408
1.1916638
1.1875558
1.1875941
1.1877226
1.1878843
1.1880491
1.1882158
1.1883872
1.1885636
1.188745
1.1889312
1.1891225
1.1893187
1.18952
1.1897263
1.1899377
1.1901541
1.1903755
1.1906017
1.1908326
1.1910683
1.1913096
1.1915575
1.1918094
1.1878107
1.1878312
1.1879514
1.1881094
1.1882703
1.188433
1.1886001
1.1887723
1.1889494
1.1891315
1.1893184
1.1895104
1.1897073
1.1899092
1.1901162
1.1903282
1.1905452
1.190767
1.1909938
1.1912258
1.1914639
1.1917083
1.1880652
1.1880677
1.18818
1.1883346
1.1884921
1.1886507
1.1888137
1.1889818
1.1891548
1.1893327
1.1895154
1.1897031
1.1898957
1.1900933
1.1902959
1.1905036
1.1907162
1.1909339
1.1911568
1.1913851
1.1916197
1.1918598
1.1883209
1.1883047
1.1884091
1.1885605
1.1887146
1.1888693
1.1890283
1.1891924
1.1893613
1.189535
1.1897136
1.189897
1.1900854
1.1902787
1.190477
1.1906803
1.1908887
1.1911023
1.1913211
1.1915455
1.191776
1.1920115
1.1885787
1.1885431
1.188639
1.1887871
1.1889379
1.1890889
1.189244
1.1894041
1.189569
1.1897386
1.189913
1.1900923
1.1902764
1.1904654
1.1906594
1.1908585
1.1910626
1.1912719
1.1914865
1.1917067
1.1919328
1.1921636
1.1888294
1.1887779
1.1888672
1.1890131
1.1891614
1.1893089
1.1894603
1.1896167
1.1897777
1.1899433
1.1901137
1.1902888
1.1904687
1.1906534
1.1908431
1.1910378
1.1912376
1.1914425
1.1916528
1.1918686
1.1920901
1.1923162
1.1890859
1.1890163
1.1890972
1.1892402
1.1893857
1.1895298
1.1896775
1.1898301
1.1899873
1.190149
1.1903153
1.1904863
1.190662
1.1908426
1.1910279
1.1912183
1.1914136
1.1916141
1.1918198
1.1920311
1.1922479
1.1924692
1.1893315
1.1892553
1.1893297
1.1894686
1.1896106
1.1897511
1.1898953
1.1900442
1.1901976
1.1903554
1.1905178
1.1906847
1.1908562
1.1910325
1.1912136
1.1913995
1.1915904
1.1917864
1.1919875
1.192194
1.1924061
1.1926226
1.1895766
1.1894752
1.189558
1.1896968
1.1898352
1.1899721
1.1901129
1.1902583
1.1904081
1.1905621
1.1907206
1.1908835
1.1910509
1.191223
1.1913997
1.1915813
1.1917677
1.191959
1.1921555
1.1923572
1.1925644
1.192776
1.189836
1.1897006
1.1897698
1.1899219
1.1900599
1.1901927
1.1903299
1.190472
1.1906183
1.1907687
1.1909233
1.1910823
1.1912457
1.1914136
1.191586
1.1917631
1.191945
1.1921318
1.1923235
1.1925204
1.1927226
1.1929291
1.1900908
1.1899434
1.1899863
1.19013
1.1902814
1.1904134
1.1905462
1.1906847
1.1908276
1.1909745
1.1911255
1.1912806
1.19144
1.1916038
1.191772
1.1919447
1.1921221
1.1923042
1.1924911
1.1926831
1.1928804
1.1930818
1.1903371
1.1901816
1.1902211
1.1903424
1.1904856
1.1906305
1.1907622
1.1908963
1.1910356
1.1911792
1.1913266
1.191478
1.1916334
1.1917931
1.1919571
1.1921255
1.1922984
1.1924758
1.192658
1.1928451
1.1930373
1.1932336
1.1905781
1.1904108
1.1904514
1.1905734
1.1906937
1.1908299
1.1909744
1.1911072
1.1912421
1.191382
1.191526
1.1916737
1.1918254
1.1919811
1.1921409
1.192305
1.1924734
1.1926463
1.1928237
1.1930059
1.193193
1.1933841
1.190815
1.1906352
1.1906726
1.1907994
1.1909203
1.1910331
1.1911687
1.191314
1.1914475
1.1915828
1.1917231
1.1918674
1.1920153
1.1921671
1.1923229
1.1924827
1.1926467
1.192815
1.1929877
1.1931649
1.193347
1.1935329
1.1910475
1.1908562
1.1908887
1.1910157
1.191141
1.1912542
1.1913666
1.1915028
1.1916485
1.1917821
1.1919178
1.1920583
1.1922027
1.1923507
1.1925025
1.1926581
1.1928178
1.1929816
1.1931495
1.1933219
1.1934989
1.1936797
1.191275
1.1910737
1.1911015
1.1912266
1.1913517
1.1914685
1.1915814
1.191695
1.1918313
1.1919768
1.1921106
1.1922464
1.1923869
1.1925313
1.1926792
1.1928308
1.1929862
1.1931455
1.1933088
1.1934764
1.1936483
1.1938239
1.1914971
1.1912872
1.1913107
1.1914337
1.1915568
1.1916728
1.1917887
1.1919031
1.1920174
1.1921533
1.1922985
1.1924321
1.1925679
1.1927084
1.1928525
1.1930001
1.1931513
1.1933063
1.1934651
1.1936279
1.1937949
1.1939654
1.1917133
1.1914962
1.191516
1.1916368
1.1917575
1.1918712
1.1919861
1.192103
1.1922182
1.1923328
1.1924682
1.1926128
1.1927462
1.1928818
1.193022
1.1931658
1.1933129
1.1934636
1.1936179
1.193776
1.1939381
1.1941036
1.1919233
1.1917005
1.1917169
1.1918357
1.191954
1.192065
1.1921774
1.1922931
1.1924102
1.1925257
1.1926405
1.1927754
1.1929192
1.1930522
1.1931875
1.1933273
1.1934705
1.193617
1.1937669
1.1939205
1.1940778
1.1942383
1.192127
1.1918999
1.1919136
1.1920301
1.1921459
1.1922542
1.1923638
1.1924769
1.1925926
1.1927095
1.192825
1.19294
1.1930744
1.1932173
1.1933496
1.1934845
1.1936236
1.1937662
1.1939118
1.1940609
1.1942135
1.1943692
1.192324
1.1920945
1.1921063
1.1922202
1.1923333
1.1924387
1.1925454
1.1926555
1.1927685
1.1928839
1.1930004
1.1931157
1.1932308
1.1933647
1.1935065
1.1936381
1.1937723
1.1939107
1.1940523
1.194197
1.194345
1.194496
1.1925143
1.192284
1.1922943
1.1924054
1.1925155
1.192618
1.1927218
1.192829
1.192939
1.1930516
1.1931664
1.1932824
1.1933973
1.1935125
1.1936459
1.1937865
1.1939173
1.1940507
1.1941882
1.1943287
1.1944722
1.1946186
1.1926976
1.1924679
1.192477
1.1925853
1.1926924
1.1927919
1.1928928
1.192997
1.193104
1.1932135
1.1933256
1.1934399
1.1935553
1.1936695
1.1937848
1.1939179
1.1940572
1.1941869
1.1943193
1.1944555
1.1945948
1.1947367
1.1928737
1.1926457
1.1926539
1.1927594
1.1928634
1.19296
1.193058
1.1931593
1.1932633
1.1933698
1.1934789
1.1935904
1.1937041
1.1938187
1.193932
1.1940476
1.1941807
1.1943183
1.1944466
1.1945777
1.1947126
1.1948503
1.1930426
1.1928171
1.1928247
1.1929273
1.1930283
1.193122
1.1932172
1.1933156
1.1934168
1.1935203
1.1936264
1.193735
1.193846
1.193959
1.1940726
1.1941845
1.1943008
1.1944345
1.1945703
1.1946964
1.194826
1.1949594
1.193204
1.192982
1.1929892
1.193089
1.193187
1.1932779
1.1933703
1.1934659
1.1935642
1.193665
1.1937681
1.1938738
1.193982
1.1940927
1.1942054
1.1943189
1.1944312
1.1945506
1.194677
1.194804
1.1949321
1.1950628
1.1933583
1.1931403
1.1931473
1.1932443
1.1933394
1.1934275
1.1935171
1.19361
1.1937055
1.1938035
1.1939038
1.1940066
1.1941117
1.1942194
1.1943293
1.1944408
1.1945518
1.1946594
1.1947822
1.1949136
1.195037
1.1951627
1.1935054
1.1932921
1.1932989
1.1933932
1.1934853
1.1935708
1.1936578
1.193748
1.1938408
1.193936
1.1940335
1.1941334
1.1942357
1.1943403
1.1944472
1.1945561
1.1946659
1.1947753
1.1948845
1.1950081
1.195138
1.1952599
1.1936455
1.1934373
1.1934441
1.1935357
1.193625
1.1937079
1.1937923
1.1938799
1.1939701
1.1940626
1.1941575
1.1942547
1.1943542
1.1944559
1.19456
1.1946661
1.194774
1.1948829
1.1949921
1.1951028
1.1952255
1.1953524
1.1937791
1.1935762
1.193583
1.193672
1.1937586
1.1938389
1.1939208
1.1940059
1.1940935
1.1941835
1.1942758
1.1943704
1.1944672
1.1945663
1.1946676
1.1947711
1.1948767
1.194984
1.1950924
1.1952008
1.1953153
1.1954347
1.1939062
1.1937089
1.1937158
1.1938022
1.1938861
1.193964
1.1940436
1.1941262
1.1942114
1.1942989
1.1943887
1.1944807
1.194575
1.1946716
1.1947703
1.1948711
1.1949741
1.1950791
1.1951857
1.1952924
1.1953964
1.1955131
1.1940275
1.1938358
1.1938427
1.1939266
1.194008
1.1940836
1.1941608
1.1942411
1.1943239
1.194409
1.1944964
1.194586
1.1946779
1.194772
1.1948682
1.1949666
1.1950671
1.1951697
1.1952742
1.19538
1.1954866
1.1955948
1.1941432
1.1939571
1.193964
1.1940455
1.1941244
1.1941977
1.1942727
1.1943508
1.1944313
1.1945141
1.1945992
1.1946866
1.1947761
1.1948678
1.1949616
1.1950575
1.1951554
1.1952552
1.1953569
1.1954597
1.1955626
1.1956657
1.1942538
1.1940733
1.1940802
1.1941592
1.1942358
1.194307
1.1943798
1.1944557
1.194534
1.1946147
1.1946976
1.1947827
1.1948699
1.1949594
1.1950509
1.1951445
1.1952402
1.1953378
1.1954373
1.1955386
1.1956413
1.1957456
1.1943599
1.1941847
1.1941915
1.1942682
1.1943425
1.1944116
1.1944824
1.1945562
1.1946325
1.194711
1.1947917
1.1948747
1.1949598
1.1950471
1.1951365
1.1952279
1.1953213
1.1954166
1.1955138
1.1956127
1.1957131
1.1958149
1.1944619
1.1942919
1.1942983
1.1943729
1.194445
1.1945121
1.1945809
1.1946527
1.194727
1.1948034
1.1948822
1.1949631
1.1950462
1.1951314
1.1952187
1.195308
1.1953993
1.1954926
1.1955878
1.1956847
1.1957834
1.1958844
1.1945605
1.1943952
1.1944013
1.1944736
1.1945437
1.1946089
1.1946758
1.1947457
1.194818
1.1948925
1.1949693
1.1950482
1.1951293
1.1952126
1.1952979
1.1953852
1.1954745
1.1955658
1.1956589
1.1957537
1.1958502
1.195949
1.1946561
1.1944953
1.1945008
1.1945711
1.1946392
1.1947025
1.1947676
1.1948356
1.194906
1.1949787
1.1950536
1.1951306
1.1952098
1.1952911
1.1953745
1.19546
1.1955474
1.1956367
1.1957279
1.1958209
1.1959156
1.1960128
1.1947493
1.1945926
1.1945974
1.1946656
1.1947318
1.1947934
1.1948567
1.1949229
1.1949915
1.1950624
1.1951354
1.1952107
1.195288
1.1953675
1.1954491
1.1955327
1.1956182
1.1957057
1.195795
1.1958861
1.1959789
1.1960741
1.1948407
1.1946876
1.1946915
1.1947578
1.1948221
1.194882
1.1949436
1.1950081
1.195075
1.1951441
1.1952154
1.1952889
1.1953645
1.1954422
1.195522
1.1956038
1.1956875
1.1957732
1.1958608
1.1959501
1.1960412
1.1961348
1.1949309
1.1947809
1.1947837
1.1948481
1.1949108
1.194969
1.195029
1.1950918
1.195157
1.1952244
1.1952939
1.1953657
1.1954396
1.1955156
1.1955936
1.1956737
1.1957558
1.1958397
1.1959256
1.1960132
1.1961025
1.1961944
1.1950202
1.194873
1.1948745
1.1949371
1.1949981
1.1950548
1.1951131
1.1951743
1.1952379
1.1953036
1.1953715
1.1954416
1.1955138
1.1955881
1.1956645
1.1957429
1.1958233
1.1959056
1.1959898
1.1960757
1.1961634
1.1962537
1.1951093
1.1949644
1.1949646
1.1950254
1.1950848
1.19514
1.1951968
1.1952563
1.1953183
1.1953824
1.1954487
1.1955171
1.1955877
1.1956604
1.1957351
1.1958118
1.1958906
1.1959712
1.1960538
1.1961381
1.1962242
1.196313
1.1951986
1.1950556
1.1950542
1.1951133
1.1951713
1.195225
1.1952803
1.1953384
1.1953987
1.1954613
1.1955259
1.1955927
1.1956617
1.1957327
1.1958058
1.1958809
1.195958
1.196037
1.196118
1.1962007
1.1962853
1.1963724
1.1952886
1.1951473
1.1951443
1.1952019
1.1952585
1.1953107
1.1953645
1.195421
1.1954797
1.1955406
1.1956037
1.1956689
1.1957362
1.1958055
1.195877
1.1959505
1.1960259
1.1961034
1.1961827
1.1962639
1.1963469
1.1964325
1.1953799
1.1952405
1.1952366
1.1952924
1.1953472
1.1953978
1.1954499
1.1955048
1.1955619
1.1956211
1.1956825
1.195746
1.1958116
1.1958793
1.1959491
1.196021
1.1960948
1.1961706
1.1962484
1.196328
1.1964094
1.1964935
1.1954728
1.1953357
1.1953311
1.1953849
1.1954379
1.1954867
1.1955371
1.1955901
1.1956455
1.195703
1.1957627
1.1958245
1.1958884
1.1959544
1.1960226
1.1960927
1.1961649
1.1962391
1.1963152
1.1963932
1.1964731
1.1965556
1.1955676
1.1954328
1.1954276
1.1954795
1.1955304
1.1955775
1.1956261
1.1956774
1.195731
1.1957867
1.1958446
1.1959047
1.1959669
1.1960312
1.1960976
1.196166
1.1962366
1.1963091
1.1963836
1.19646
1.1965382
1.1966192
1.1956645
1.195532
1.1955262
1.1955761
1.1956251
1.1956703
1.1957171
1.1957666
1.1958184
1.1958724
1.1959285
1.1959868
1.1960472
1.1961098
1.1961744
1.1962412
1.19631
1.1963809
1.1964537
1.1965284
1.1966051
1.1966845
1.1957638
1.1956335
1.195627
1.1956749
1.195722
1.1957654
1.1958104
1.1958581
1.1959081
1.1959603
1.1960146
1.1960711
1.1961297
1.1961905
1.1962534
1.1963184
1.1963855
1.1964546
1.1965258
1.1965988
1.1966738
1.1967516
1.1958656
1.1957373
1.1957302
1.1957762
1.1958213
1.1958629
1.1959061
1.195952
1.1960002
1.1960505
1.196103
1.1961577
1.1962145
1.1962735
1.1963346
1.1963978
1.1964631
1.1965305
1.1966
1.1966713
1.1967446
1.1968208
1.19597
1.1958436
1.1958358
1.1958799
1.1959231
1.1959629
1.1960043
1.1960484
1.1960947
1.1961432
1.1961939
1.1962467
1.1963017
1.1963589
1.1964182
1.1964796
1.1965431
1.1966088
1.1966764
1.1967461
1.1968177
1.1968921
1.196077
1.1959525
1.195944
1.1959862
1.1960276
1.1960655
1.1961051
1.1961474
1.1961919
1.1962385
1.1962873
1.1963383
1.1963915
1.1964468
1.1965043
1.1965639
1.1966256
1.1966894
1.1967553
1.1968232
1.196893
1.1969658
1.1961869
1.1960641
1.1960549
1.1960952
1.1961347
1.1961708
1.1962086
1.196249
1.1962917
1.1963365
1.1963835
1.1964326
1.1964839
1.1965374
1.196593
1.1966507
1.1967106
1.1967726
1.1968367
1.1969027
1.1969708
1.1970418
1.1962995
1.1961785
1.1961685
1.1962069
1.1962445
1.1962788
1.1963148
1.1963534
1.1963942
1.1964372
1.1964823
1.1965296
1.196579
1.1966306
1.1966843
1.1967402
1.1967982
1.1968583
1.1969206
1.1969848
1.197051
1.1971202
1.1964149
1.1962955
1.1962847
1.1963213
1.196357
1.1963896
1.1964238
1.1964605
1.1964995
1.1965406
1.1965839
1.1966292
1.1966768
1.1967265
1.1967783
1.1968323
1.1968884
1.1969467
1.197007
1.1970693
1.1971337
1.1972011
1.196533
1.1964152
1.1964037
1.1964384
1.1964722
1.196503
1.1965354
1.1965703
1.1966075
1.1966467
1.1966881
1.1967316
1.1967772
1.196825
1.1968749
1.196927
1.1969812
1.1970376
1.197096
1.1971564
1.1972189
1.1972844
1.1966537
1.1965375
1.1965252
1.1965581
1.19659
1.1966191
1.1966497
1.1966828
1.1967181
1.1967555
1.196795
1.1968366
1.1968803
1.1969262
1.1969742
1.1970243
1.1970766
1.197131
1.1971875
1.197246
1.1973065
1.1973701
1.1967769
1.1966624
1.1966493
1.1966803
1.1967104
1.1967377
1.1967665
1.1967978
1.1968313
1.1968668
1.1969044
1.1969441
1.1969859
1.1970299
1.197076
1.1971242
1.1971745
1.1972269
1.1972815
1.197338
1.1973966
1.1974581
1.1969026
1.1967896
1.1967758
1.1968049
1.1968332
1.1968587
1.1968858
1.1969153
1.1969469
1.1969806
1.1970163
1.1970541
1.197094
1.197136
1.1971802
1.1972264
1.1972748
1.1973252
1.1973778
1.1974323
1.1974889
1.1975485
1.1970305
1.1969191
1.1969045
1.1969318
1.1969583
1.196982
1.1970073
1.1970351
1.1970649
1.1970967
1.1971305
1.1971665
1.1972045
1.1972445
1.1972867
1.197331
1.1973774
1.1974258
1.1974764
1.1975289
1.1975834
1.197641
1.1971604
1.1970506
1.1970353
1.1970608
1.1970855
1.1971075
1.1971311
1.197157
1.197185
1.197215
1.197247
1.197281
1.1973171
1.1973552
1.1973955
1.1974378
1.1974821
1.1975286
1.1975771
1.1976276
1.1976801
1.1977356
1.1972923
1.1971841
1.197168
1.1971917
1.1972146
1.1972349
1.1972568
1.1972809
1.1973071
1.1973353
1.1973654
1.1973976
1.1974317
1.1974679
1.1975062
1.1975465
1.1975889
1.1976334
1.1976799
1.1977283
1.1977787
1.1978321
1.1974258
1.1973192
1.1973024
1.1973243
1.1973455
1.1973641
1.1973842
1.1974066
1.1974311
1.1974574
1.1974857
1.197516
1.1975482
1.1975825
1.1976188
1.1976572
1.1976976
1.19774
1.1977844
1.1978308
1.1978791
1.1979304
1.1975608
1.1974557
1.1974382
1.1974584
1.1974778
1.1974948
1.1975133
1.1975339
1.1975566
1.1975811
1.1976076
1.197636
1.1976664
1.1976988
1.1977331
1.1977695
1.1978079
1.1978483
1.1978907
1.197935
1.1979812
1.1980303
1.197697
1.1975935
1.1975753
1.1975938
1.1976115
1.1976268
1.1976436
1.1976626
1.1976835
1.1977063
1.1977309
1.1977575
1.197786
1.1978165
1.1978489
1.1978833
1.1979197
1.1979581
1.1979984
1.1980406
1.1980847
1.1981317
1.1978342
1.1977323
1.1977134
1.1977302
1.1977462
1.1977599
1.1977751
1.1977924
1.1978116
1.1978326
1.1978555
1.1978802
1.1979069
1.1979354
1.1979659
1.1979984
1.1980328
1.1980692
1.1981074
1.1981475
1.1981895
1.1982344
1.1979722
1.1978718
1.1978523
1.1978674
1.1978817
1.1978939
1.1979074
1.1979231
1.1979406
1.1979599
1.197981
1.1980039
1.1980287
1.1980554
1.198084
1.1981145
1.198147
1.1981813
1.1982176
1.1982555
1.1982954
1.1983381
1.1981108
1.1980118
1.1979916
1.1980051
1.1980178
1.1980284
1.1980404
1.1980544
1.1980703
1.1980879
1.1981072
1.1981284
1.1981514
1.1981762
1.1982029
1.1982315
1.198262
1.1982943
1.1983285
1.1983644
1.1984021
1.1984427
1.1982496
1.198152
1.1981312
1.1981431
1.1981542
1.1981633
1.1981738
1.1981862
1.1982004
1.1982163
1.1982339
1.1982534
1.1982746
1.1982976
1.1983225
1.1983491
1.1983777
1.198408
1.1984402
1.198474
1.1985095
1.198548
1.1983884
1.1982922
1.1982708
1.1982811
1.1982907
1.1982983
1.1983072
1.1983181
1.1983307
1.198345
1.1983609
1.1983786
1.1983981
1.1984193
1.1984423
1.1984671
1.1984937
1.1985221
1.1985523
1.198584
1.1986175
1.1986537
1.198527
1.1984321
1.1984101
1.1984189
1.198427
1.1984331
1.1984406
1.1984499
1.198461
1.1984736
1.198488
1.198504
1.1985217
1.1985411
1.1985623
1.1985853
1.19861
1.1986364
1.1986646
1.1986943
1.1987256
1.1987597
1.1986651
1.1985715
1.1985488
1.1985562
1.1985628
1.1985676
1.1985736
1.1985814
1.198591
1.198602
1.1986148
1.1986291
1.1986451
1.1986628
1.1986823
1.1987034
1.1987262
1.1987507
1.198777
1.1988046
1.1988339
1.1988658
1.1988026
1.1987101
1.1986868
1.1986928
1.1986979
1.1987013
1.198706
1.1987124
1.1987204
1.1987299
1.1987411
1.1987538
1.1987682
1.1987842
1.1988019
1.1988212
1.1988422
1.1988648
1.1988891
1.1989148
1.1989419
1.1989718
1.198939
1.1988476
1.1988238
1.1988283
1.1988321
1.1988342
1.1988375
1.1988425
1.198849
1.1988571
1.1988667
1.1988779
1.1988906
1.198905
1.1989209
1.1989385
1.1989577
1.1989785
1.1990008
1.1990245
1.1990496
1.1990774
1.1990743
1.1989839
1.1989594
1.1989626
1.1989651
1.1989659
1.1989679
1.1989715
1.1989767
1.1989833
1.1989914
1.199001
1.1990122
1.1990249
1.1990392
1.199055
1.1990724
1.1990914
1.1991119
1.1991337
1.1991568
1.1991825
1.1992081
1.1991187
1.1990936
1.1990955
1.1990967
1.1990962
1.1990969
1.1990992
1.199103
1.1991083
1.1991149
1.1991231
1.1991327
1.1991438
1.1991565
1.1991706
1.1991863
1.1992035
1.1992222
1.1992421
1.1992632
1.1992868
1.1993403
1.1992516
1.199226
1.1992266
1.1992266
1.1992249
1.1992244
1.1992255
1.1992279
1.1992318
1.1992371
1.1992437
1.1992519
1.1992615
1.1992725
1.1992851
1.1992991
1.1993146
1.1993315
1.1993495
1.1993686
1.1993902
1.1994705
1.1993826
1.1993564
1.1993558
1.1993546
1.1993518
1.1993501
1.1993499
1.1993511
1.1993537
1.1993576
1.1993629
1.1993696
1.1993777
1.1993872
1.1993981
1.1994105
1.1994243
1.1994395
1.1994556
1.1994729
1.1994926
1.1995985
1.1995114
1.1994845
1.1994828
1.1994805
1.1994766
1.1994738
1.1994724
1.1994724
1.1994737
1.1994763
1.1994802
1.1994855
1.1994922
1.1995002
1.1995096
1.1995204
1.1995325
1.199546
1.1995604
1.1995758
1.1995936
1.1997242
1.1996377
1.1996102
1.1996075
1.199604
1.1995991
1.1995952
1.1995927
1.1995915
1.1995916
1.1995929
1.1995956
1.1995995
1.1996048
1.1996114
1.1996193
1.1996285
1.1996391
1.1996509
1.1996636
1.1996772
1.1996931
1.1998473
1.1997613
1.1997333
1.1997295
1.199725
1.1997191
1.1997141
1.1997106
1.1997083
1.1997072
1.1997073
1.1997087
1.1997114
1.1997153
1.1997205
1.199727
1.1997348
1.1997438
1.199754
1.1997651
1.1997769
1.1997909
1.1999676
1.199882
1.1998534
1.1998487
1.1998432
1.1998364
1.1998304
1.1998259
1.1998225
1.1998203
1.1998193
1.1998195
1.1998209
1.1998235
1.1998274
1.1998325
1.1998388
1.1998464
1.1998551
1.1998645
1.1998747
1.1998869
1.2000848
1.1999997
1.1999705
1.1999648
1.1999585
1.1999507
1.1999439
1.1999383
1.1999339
1.1999307
1.1999286
1.1999276
1.1999278
1.1999293
1.1999319
1.1999356
1.1999406
1.1999468
1.199954
1.1999618
1.1999703
1.1999809
1.2001987
1.200114
1.2000843
1.2000777
1.2000705
1.200062
1.2000542
1.2000477
1.2000424
1.2000381
1.200035
1.200033
1.2000321
1.2000323
1.2000337
1.2000362
1.2000399
1.2000446
1.2000505
1.2000568
1.2000637
1.2000726
1.2003091
1.2002248
1.2001946
1.2001872
1.2001792
1.2001698
1.2001613
1.2001539
1.2001477
1.2001425
1.2001384
1.2001353
1.2001334
1.2001325
1.2001327
1.200134
1.2001364
1.2001399
1.2001444
1.2001493
1.2001547
1.200162
1.2004158
1.2003318
1.2003012
1.200293
1.2002843
1.2002742
1.2002649
1.2002567
1.2002496
1.2002436
1.2002385
1.2002345
1.2002315
1.2002296
1.2002287
1.2002289
1.2002301
1.2002323
1.2002355
1.2002391
1.200243
1.2002488
1.2005186
1.200435
1.2004038
1.200395
1.2003856
1.2003748
1.2003648
1.2003559
1.200348
1.2003411
1.2003352
1.2003303
1.2003263
1.2003234
1.2003215
1.2003206
1.2003207
1.2003218
1.2003237
1.200326
1.2003286
1.2003329
1.2006173
1.200534
1.2005024
1.200493
1.2004829
1.2004715
1.2004608
1.2004512
1.2004426
1.200435
1.2004282
1.2004225
1.2004177
1.2004138
1.2004109
1.200409
1.200408
1.200408
1.2004088
1.2004098
1.2004111
1.2004141
1.2007116
1.2006287
1.2005967
1.2005867
1.2005761
1.2005641
1.2005528
1.2005426
1.2005333
1.2005249
1.2005175
1.2005109
1.2005053
1.2005006
1.2004968
1.2004939
1.200492
1.2004909
1.2004906
1.2004905
1.2004905
1.2004921
1.2008014
1.2007189
1.2006865
1.200676
1.2006649
1.2006524
1.2006406
1.2006298
1.2006199
1.2006109
1.2006027
1.2005954
1.200589
1.2005835
1.2005789
1.2005751
1.2005722
1.2005702
1.2005689
1.2005677
1.2005666
1.200567
1.2008864
1.2008043
1.2007717
1.2007606
1.2007491
1.2007362
1.2007239
1.2007126
1.2007021
1.2006925
1.2006837
1.2006758
1.2006687
1.2006625
1.2006571
1.2006525
1.2006488
1.2006458
1.2006435
1.2006413
1.2006391
1.2006384
1.2009665
1.2008849
1.200852
1.2008405
1.2008286
1.2008153
1.2008026
1.2007908
1.2007799
1.2007698
1.2007604
1.2007519
1.2007442
1.2007373
1.2007312
1.2007258
1.2007213
1.2007175
1.2007144
1.2007113
1.200708
1.2007062
1.2010414
1.2009604
1.2009273
1.2009155
1.2009032
1.2008896
1.2008765
1.2008643
1.200853
1.2008424
1.2008326
1.2008235
1.2008152
1.2008077
1.200801
1.200795
1.2007897
1.2007852
1.2007812
1.2007772
1.2007731
1.2007703
1.2011111
1.2010307
1.2009974
1.2009853
1.2009728
1.2009589
1.2009455
1.200933
1.2009213
1.2009103
1.2009
1.2008905
1.2008817
1.2008737
1.2008663
1.2008597
1.2008538
1.2008486
1.2008439
1.2008391
1.2008342
1.2008304
1.2011752
1.2010955
1.2010621
1.2010498
1.2010371
1.201023
1.2010093
1.2009966
1.2009846
1.2009732
1.2009626
1.2009527
1.2009435
1.2009349
1.2009271
1.20092
1.2009135
1.2009076
1.2009023
1.2008968
1.2008911
1.2008865
1.2012338
1.2011548
1.2011214
1.2011089
1.201096
1.2010818
1.201068
1.201055
1.2010427
1.2010311
1.2010202
1.2010099
1.2010004
1.2009914
1.2009832
1.2009755
1.2009685
1.2009621
1.2009562
1.2009501
1.2009437
1.2009384
1.2012866
1.2012085
1.2011751
1.2011625
1.2011496
1.2011353
1.2011213
1.2011082
1.2010957
1.2010839
1.2010727
1.2010621
1.2010522
1.201043
1.2010343
1.2010263
1.2010188
1.201012
1.2010055
1.2009988
1.2009918
1.2009859
1.2013335
1.2012568
1.2012238
1.201211
1.2011979
1.2011835
1.2011694
1.201156
1.2011434
1.2011314
1.20112
1.2011092
1.201099
1.2010894
1.2010805
1.2010721
1.2010642
1.201057
1.20105
1.2010429
1.2010354
1.2010288
1.2013742
1.2012991
1.2012666
1.2012536
1.2012405
1.2012259
1.2012117
1.2011983
1.2011855
1.2011733
1.2011618
1.2011508
1.2011404
1.2011306
1.2011214
1.2011127
1.2011046
1.2010969
1.2010897
1.2010821
1.2010742
1.2010671
1.2014085
1.2013347
1.2013022
1.2012894
1.2012764
1.2012619
1.2012478
1.2012344
1.2012216
1.2012094
1.2011978
1.2011868
1.2011763
1.2011663
1.2011569
1.201148
1.2011397
1.2011318
1.2011242
1.2011163
1.201108
1.2011006
1.2014365
1.2013639
1.2013316
1.2013188
1.201306
1.2012917
1.2012777
1.2012645
1.2012518
1.2012396
1.2012281
1.201217
1.2012065
1.2011965
1.201187
1.2011779
1.2011694
1.2011613
1.2011535
1.2011454
1.2011369
1.2011292
1.2014581
1.2013868
1.2013547
1.2013422
1.2013295
1.2013155
1.2013017
1.2012885
1.201276
1.201264
1.2012524
1.2012414
1.201231
1.2012209
1.2012114
1.2012023
1.2011937
1.2011855
1.2011776
1.2011693
1.2011606
1.2011527
1.2014734
1.2014034
1.2013717
1.2013593
1.2013469
1.2013331
1.2013195
1.2013066
1.2012942
1.2012824
1.201271
1.2012601
1.2012497
1.2012397
1.2012302
1.2012212
1.2012125
1.2012043
1.2011963
1.201188
1.2011792
1.2011711
1.2014821
1.2014137
1.2013824
1.2013702
1.2013581
1.2013446
1.2013313
1.2013186
1.2013065
1.2012948
1.2012836
1.2012729
1.2012626
1.2012528
1.2012434
1.2012344
1.2012258
1.2012176
1.2012096
1.2012012
1.2011924
1.2011843
1.2014845
1.2014176
1.2013868
1.2013749
1.2013632
1.20135
1.201337
1.2013246
1.2013127
1.2013013
1.2012904
1.2012799
1.2012698
1.2012601
1.2012509
1.201242
1.2012335
1.2012254
1.2012174
1.2012091
1.2012004
1.2011923
1.2014803
1.2014152
1.2013849
1.2013733
1.201362
1.2013492
1.2013366
1.2013245
1.201313
1.2013019
1.2012912
1.201281
1.2012711
1.2012617
1.2012526
1.2012439
1.2012356
1.2012276
1.2012198
1.2012116
1.201203
1.201195
1.2014697
1.2014064
1.2013768
1.2013656
1.2013547
1.2013423
1.20133
1.2013184
1.2013072
1.2012964
1.2012861
1.2012762
1.2012666
1.2012575
1.2012487
1.2012402
1.2012321
1.2012243
1.2012166
1.2012086
1.2012002
1.2011924
1.2014528
1.2013914
1.2013625
1.2013517
1.2013412
1.2013293
1.2013175
1.2013062
1.2012955
1.2012851
1.2012751
1.2012655
1.2012563
1.2012475
1.201239
1.2012308
1.201223
1.2012154
1.2012079
1.2012002
1.2011921
1.2011845
1.2014295
1.2013702
1.2013421
1.2013317
1.2013217
1.2013102
1.2012989
1.2012881
1.2012778
1.2012679
1.2012583
1.2012491
1.2012403
1.2012318
1.2012237
1.2012158
1.2012083
1.201201
1.2011938
1.2011864
1.2011786
1.2011714
1.2014002
1.2013429
1.2013157
1.2013057
1.2012962
1.2012853
1.2012745
1.2012642
1.2012543
1.2012449
1.2012358
1.201227
1.2012186
1.2012105
1.2012027
1.2011953
1.2011881
1.2011811
1.2011743
1.2011672
1.2011598
1.2011529
1.2013648
1.2013097
1.2012834
1.2012739
1.2012649
1.2012546
1.2012443
1.2012345
1.2012252
1.2012162
1.2012076
1.2011993
1.2011913
1.2011837
1.2011764
1.2011693
1.2011625
1.2011559
1.2011494
1.2011427
1.2011358
1.2011293
1.2013236
1.2012707
1.2012454
1.2012364
1.201228
1.2012182
1.2012085
1.2011993
1.2011905
1.2011821
1.2011739
1.2011662
1.2011587
1.2011515
1.2011446
1.201138
1.2011316
1.2011254
1.2011194
1.2011131
1.2011066
1.2011007
1.2012769
1.2012263
1.201202
1.2011935
1.2011857
1.2011765
1.2011674
1.2011588
1.2011505
1.2011426
1.201135
1.2011278
1.2011208
1.2011141
1.2011077
1.2011015
1.2010956
1.2010899
1.2010843
1.2010785
1.2010725
1.2010671
1.2012249
1.2011767
1.2011534
1.2011455
1.2011382
1.2011297
1.2011212
1.2011131
1.2011055
1.2010981
1.2010911
1.2010844
1.2010779
1.2010718
1.2010658
1.2010602
1.2010547
1.2010495
1.2010443
1.2010391
1.2010336
1.2010287
1.2011681
1.2011221
1.2011
1.2010926
1.2010859
1.2010781
1.2010702
1.2010627
1.2010556
1.2010489
1.2010424
1.2010362
1.2010304
1.2010247
1.2010193
1.2010142
1.2010092
1.2010045
1.2009998
1.2009951
1.2009902
1.2009859
1.2011068
1.2010632
1.2010422
1.2010353
1.2010292
1.201022
1.2010147
1.2010079
1.2010014
1.2009952
1.2009894
1.2009837
1.2009784
1.2009733
1.2009685
1.2009638
1.2009594
1.2009552
1.200951
1.2009468
1.2009425
1.2009388
1.2010415
1.2010002
1.2009804
1.200974
1.2009686
1.2009619
1.2009553
1.2009491
1.2009432
1.2009376
1.2009323
1.2009273
1.2009225
1.200918
1.2009137
1.2009096
1.2009057
1.2009019
1.2008983
1.2008946
1.2008909
1.2008878
1.2009729
1.2009337
1.2009151
1.2009093
1.2009044
1.2008985
1.2008925
1.2008868
1.2008816
1.2008766
1.2008718
1.2008674
1.2008631
1.2008591
1.2008554
1.2008518
1.2008484
1.2008452
1.2008421
1.2008389
1.2008358
1.2008332
1.2009014
1.2008645
1.200847
1.2008418
1.2008374
1.2008321
1.2008267
1.2008217
1.200817
1.2008125
1.2008084
1.2008044
1.2008008
1.2007973
1.2007941
1.200791
1.2007881
1.2007854
1.2007828
1.2007802
1.2007777
1.2007756
1.2008279
1.200793
1.2007767
1.200772
1.2007682
1.2007635
1.2007587
1.2007542
1.2007501
1.2007462
1.2007426
1.2007392
1.2007361
1.2007331
1.2007304
1.2007278
1.2007254
1.2007232
1.2007211
1.200719
1.200717
1.2007155
1.2007531
1.2007202
1.200705
1.2007009
1.2006976
1.2006934
1.2006892
1.2006853
1.2006817
1.2006783
1.2006752
1.2006724
1.2006697
1.2006672
1.200665
1.2006629
1.200661
1.2006592
1.2006575
1.2006559
1.2006544
1.2006534
1.2006779
1.2006469
1.2006327
1.200629
1.2006262
1.2006226
1.2006189
1.2006155
1.2006124
1.2006096
1.200607
1.2006046
1.2006024
1.2006004
1.2005985
1.2005969
1.2005954
1.2005941
1.2005928
1.2005916
1.2005906
1.20059
1.2006031
1.2005738
1.2005607
1.2005575
1.2005551
1.2005519
1.2005487
1.2005458
1.2005432
1.2005408
1.2005386
1.2005366
1.2005349
1.2005333
1.2005319
1.2005306
1.2005295
1.2005285
1.2005276
1.2005269
1.2005262
1.2005261
1.2005297
1.200502
1.2004898
1.200487
1.200485
1.2004823
1.2004795
1.2004771
1.2004749
1.2004729
1.2004711
1.2004695
1.2004681
1.2004668
1.2004657
1.2004648
1.2004641
1.2004634
1.2004629
1.2004624
1.2004621
1.2004622
1.2004587
1.2004324
1.2004211
1.2004186
1.200417
1.2004146
1.2004123
1.2004102
1.2004083
1.2004067
1.2004052
1.2004039
1.2004028
1.2004019
1.2004011
1.2004004
1.2003999
1.2003995
1.2003992
1.2003991
1.200399
1.2003994
1.200391
1.2003659
1.2003554
1.2003532
1.2003518
1.2003499
1.2003478
1.200346
1.2003444
1.2003431
1.2003419
1.2003408
1.20034
1.2003393
1.2003387
1.2003383
1.2003379
1.2003378
1.2003376
1.2003376
1.2003378
1.2003383
1.2003275
1.2003036
1.2002937
1.2002918
1.2002906
1.2002889
1.2002871
1.2002855
1.2002842
1.200283
1.200282
1.2002812
1.2002805
1.2002799
1.2002795
1.2002792
1.200279
1.2002789
1.2002789
1.200279
1.2002793
1.2002798
1.2002691
1.2002461
1.2002368
1.2002351
1.2002341
1.2002325
1.2002309
1.2002295
1.2002284
1.2002273
1.2002264
1.2002257
1.2002251
1.2002246
1.2002243
1.200224
1.2002239
1.2002239
1.2002239
1.2002241
1.2002243
1.2002248
1.2002166
1.2001944
1.2001855
1.200184
1.2001831
1.2001817
1.2001802
1.2001789
1.2001778
1.2001768
1.200176
1.2001753
1.2001747
1.2001743
1.2001739
1.2001737
1.2001735
1.2001734
1.2001734
1.2001735
1.2001737
1.2001741
1.2001706
1.2001491
1.2001406
1.2001391
1.2001382
1.2001369
1.2001355
1.2001343
1.2001332
1.2001322
1.2001314
1.2001306
1.20013
1.2001295