/*--------------------------------*- C++ -*----------------------------------*\
| =========                 |                                                 |
| \\      /  F ield         | OpenFOAM: The Open Source CFD Toolbox           |
|  \\    /   O peration     | Version:  2406                                  |
|   \\  /    A nd           | Website:  www.openfoam.com                      |
|    \\/     M anipulation  |                                                 |
\*---------------------------------------------------------------------------*/
FoamFile
{
    version     2.0;
    format      ascii;
    arch        "LSB;label=32;scalar=64";
    class       volScalarField;
    location    "0.051";
    object      alphat;
}
// * * * * * * * * * * * * * * * * * * * * * * * * * * * * * * * * * * * * * //

dimensions      [1 -1 -1 0 0 0 0];

internalField   nonuniform List<scalar> 
8260
(
0.04002828
0.045393321
0.051699946
0.058822128
0.066597127
0.074851527
0.083366035
0.091845027
0.099888192
0.10692209
0.11213704
0.11441021
0.11221314
0.10362059
0.086531863
0.060024442
0.031598558
0.01477768
0.0095815671
0.0078994703
0.0069873343
0.0063603367
0.005910531
0.0055912584
0.0053715606
0.0052274012
0.005127126
0.0050547561
0.0050005518
0.0049635709
0.0049438405
0.047379946
0.052905611
0.058969436
0.065640174
0.072876115
0.080546408
0.088443493
0.096271658
0.10362282
0.10991567
0.11431196
0.11566758
0.11243619
0.10270331
0.084417657
0.057207939
0.028894756
0.013911568
0.0092962672
0.0077834945
0.0069201536
0.0063212166
0.0058876003
0.0055780705
0.0053645271
0.0052230207
0.0051244883
0.0050530352
0.0049994315
0.0049628073
0.0049433243
0.055803077
0.061120163
0.066879126
0.073118246
0.079814233
0.086862528
0.094073742
0.10116077
0.10771114
0.11312991
0.11656664
0.11685303
0.11242642
0.10139129
0.081780102
0.053783373
0.026247258
0.013011105
0.0091023594
0.007720547
0.0068835586
0.0063001249
0.0058753702
0.0055710655
0.0053608552
0.0052206264
0.0051230227
0.0050518944
0.0049985829
0.0049621185
0.0049427585
0.065406249
0.070291558
0.075605887
0.081328032
0.087419637
0.093776976
0.10021687
0.10645623
0.11207905
0.11647985
0.1187947
0.1178352
0.11202596
0.099501689
0.078427757
0.04966432
0.023507391
0.012225905
0.0089238765
0.0076221638
0.0068224032
0.006263848
0.005853858
0.0055583927
0.0053541155
0.0052161189
0.0051202294
0.0050499786
0.0049973053
0.0049611962
0.0049421147
0.076185162
0.080472734
0.085217475
0.090306771
0.095688858
0.10125203
0.10680907
0.11207328
0.11662151
0.11983765
0.12084387
0.11843514
0.11102997
0.096809397
0.074140563
0.044767406
0.020760888
0.011467112
0.0087351192
0.0075357984
0.0067704194
0.0062336442
0.0058362109
0.0055479461
0.0053486899
0.0052124495
0.0051179644
0.0050482719
0.0049961033
0.0049602513
0.0049413815
0.087933068
0.091552641
0.095613275
0.099951742
0.10450436
0.10914928
0.11369015
0.11783076
0.12113632
0.1229778
0.12246395
0.11837653
0.10913942
0.093003927
0.068640587
0.039051603
0.018274376
0.010767091
0.0085514974
0.0074310984
0.0067037766
0.0061937568
0.0058123131
0.0055334344
0.0053410509
0.0052072351
0.0051147191
0.0050459562
0.0049945528
0.0049590905
0.0049405456
0.10028166
0.10319188
0.10648013
0.10996485
0.11357111
0.11716693
0.12054509
0.12339682
0.12527269
0.12552869
0.12326078
0.11724237
0.10592297
0.087659557
0.061590461
0.032600345
0.015915971
0.010138806
0.0083669374
0.0073313995
0.006641561
0.0061569174
0.0057903617
0.0055198158
0.005334032
0.0052023681
0.0051116639
0.0050436411
0.0049929633
0.0049578399
0.0049395936
0.11262829
0.11479852
0.11724601
0.11978881
0.1223407
0.12475876
0.12682353
0.12821194
0.12845833
0.12690315
0.12263122
0.11441547
0.100768
0.080204924
0.052633574
0.025761081
0.013758165
0.0096632732
0.0081862466
0.0072208152
0.0065694522
0.0061129913
0.0057634751
0.0055027153
0.0053250992
0.0051961692
0.0051077438
0.0050407455
0.0049910302
0.0049563547
0.0049385101
0.12402
0.12542334
0.12697244
0.12849793
0.12989942
0.13102028
0.1316266
0.13137904
0.12979498
0.1262005
0.11967369
0.10899896
0.092821904
0.06991133
0.041579366
0.020201584
0.011974666
0.0092804624
0.0080038015
0.0071147724
0.0065014684
0.0060714822
0.0057378764
0.0054859497
0.0053163911
0.0051900802
0.0051037946
0.005037703
0.0049889678
0.0049547178
0.0049372785
0.13295983
0.1335878
0.13419258
0.13463988
0.1348124
0.13453536
0.13355644
0.13151743
0.12791916
0.12207844
0.1130765
0.099724774
0.080938213
0.055988079
0.029020901
0.015752871
0.010605904
0.0089431418
0.0078209867
0.0070024713
0.0064273112
0.006024552
0.005707894
0.0054659448
0.0053057361
0.0051827275
0.0050989619
0.0050340288
0.0049865162
0.0049528025
0.0049358783
0.13720034
0.13707257
0.13672424
0.13605903
0.13494612
0.13319506
0.13053282
0.12658149
0.12083047
0.11260168
0.10100365
0.084882967
0.063756415
0.038030309
0.019970178
0.012559487
0.0098322468
0.008644318
0.0076349242
0.0068949523
0.0063590332
0.0059801614
0.0056788718
0.0054461133
0.0052948948
0.0051753641
0.0050939422
0.0050300599
0.0049838357
0.0049506692
0.0049342833
0.13345163
0.13252778
0.13122955
0.12947079
0.12708947
0.12386576
0.11950267
0.1136085
0.10568143
0.095092618
0.08105395
0.062354477
0.040257397
0.02318671
0.014274695
0.010508782
0.0093326839
0.0083218843
0.0074572243
0.0067794157
0.0062843728
0.0059325317
0.0056454281
0.0054231788
0.0052817125
0.0051667204
0.0050880074
0.0050253405
0.0049806764
0.0049481991
0.0049320272
0.11697906
0.11540094
0.11326922
0.11048725
0.10689226
0.1022532
0.096253381
0.088517748
0.078629715
0.066175112
0.051127071
0.036405929
0.023496735
0.01496718
0.011028643
0.0096903736
0.008761818
0.0080005014
0.0072520624
0.0066781271
0.0062137637
0.0058820027
0.0056132358
0.0054009005
0.0052679822
0.0051578861
0.0050818348
0.00502019
0.0049771832
0.004945446
0.004929409
0.082404071
0.080206451
0.077510499
0.074354153
0.07059208
0.066039768
0.060500846
0.053905605
0.046232876
0.037596663
0.02851729
0.020207311
0.014290471
0.011073706
0.0096646513
0.0089611374
0.0083175169
0.0076362271
0.0070523441
0.0065478798
0.0061390518
0.0058313711
0.0055749191
0.0053760382
0.0052517162
0.0051474122
0.0050746456
0.0050142523
0.0049731224
0.0049422934
0.0049265154
0.046410172
0.045011398
0.043283019
0.041223147
0.038687294
0.03561147
0.032200652
0.028415303
0.024277035
0.019934427
0.015701751
0.012333332
0.010359271
0.0094413121
0.0090813236
0.0084226204
0.0077622897
0.0072849031
0.0068062912
0.0064196202
0.0060525115
0.0057729744
0.0055406787
0.0053515674
0.0052352371
0.0051363437
0.0050669374
0.0050080361
0.0049686536
0.004938792
0.0049234099
0.022975031
0.022476808
0.021738718
0.020801938
0.019637243
0.018247672
0.016704877
0.015044553
0.013308717
0.011648798
0.010131691
0.00919288
0.0087474147
0.0088241241
0.0081366204
0.0076323572
0.0073496605
0.0069194065
0.0065740802
0.0062352246
0.0059534534
0.0057143741
0.0054976317
0.0053233016
0.0052164873
0.0051237292
0.0050573357
0.0050013397
0.0049635302
0.0049348204
0.0049202173
0.012211282
0.01209038
0.011841805
0.011497912
0.011075099
0.010593341
0.010081316
0.0095414899
0.0089410083
0.0084781571
0.0082300216
0.0081092786
0.0082389527
0.0078172711
0.0075000867
0.0073146818
0.0069213698
0.0066558618
0.0063286854
0.0060674109
0.0058281266
0.0056362391
0.0054564651
0.0052947221
0.0051963982
0.00511036
0.0050475753
0.0049944296
0.0049578628
0.0049304384
0.0049163006
0.0082742772
0.0082409475
0.0081623845
0.0080581096
0.0079350626
0.0077954339
0.0076731054
0.0075711293
0.0075275222
0.0075058237
0.0075196458
0.0074511423
0.0070686031
0.0069988504
0.006949295
0.006625142
0.0064920322
0.0062635328
0.0060752842
0.0058540266
0.0056976265
0.005555556
0.0053967124
0.0052608885
0.005173812
0.0050956234
0.0050355587
0.0049866274
0.0049515632
0.0049255334
0.0049122345
0.0069853408
0.0069353487
0.0069019581
0.0068843262
0.0068799118
0.0068754554
0.0069049653
0.0068734257
0.0068411787
0.0067968385
0.0066801529
0.0065046307
0.0065346765
0.0063835278
0.0063139347
0.0062733207
0.0060678298
0.0059793717
0.0058238818
0.0057175954
0.0055652222
0.0054510783
0.0053345191
0.0052268009
0.0051505734
0.0050782331
0.0050240363
0.0049784168
0.0049446538
0.0049201993
0.0049074104
0.0064031906
0.0063977258
0.0063881818
0.0063760373
0.0063810958
0.0064016506
0.0063964953
0.0063742602
0.0063302827
0.0062284727
0.0061584327
0.0061035644
0.0060366166
0.00601146
0.0059147185
0.0058741603
0.0058342786
0.0057025256
0.0056186301
0.0055183119
0.0054376875
0.0053695782
0.0052582614
0.0051885613
0.0051230865
0.0050608011
0.0050098476
0.0049685211
0.0049370959
0.0049143404
0.0049026299
0.0059767938
0.0059731668
0.0059658837
0.005948526
0.0059187239
0.0058744008
0.0058485733
0.0058393186
0.005824184
0.0058095685
0.0058170216
0.0058249163
0.0057313581
0.0057363444
0.0056808647
0.0056421451
0.00554568
0.0054976231
0.005441951
0.0053910781
0.0053235904
0.0052716939
0.0052159401
0.0051499942
0.0050905948
0.0050419565
0.0049958737
0.0049588636
0.0049284027
0.0049080978
0.0048970051
0.0055648064
0.0055648229
0.005562129
0.0055562126
0.0055508985
0.0055555366
0.0055702684
0.0055646726
0.0055591198
0.0055416281
0.0055163961
0.0055026984
0.0055259781
0.005457264
0.0054627747
0.005385265
0.0053683532
0.0053183836
0.0052929709
0.0052567165
0.0052090139
0.005193023
0.0051580989
0.0051158566
0.0050550611
0.005021209
0.0049792694
0.0049466789
0.0049189692
0.0049013806
0.0048918746
0.0053438428
0.0053443497
0.0053424301
0.005337493
0.0053295152
0.0053162835
0.0052938564
0.0052940604
0.0052919722
0.0052902542
0.0052878032
0.0052822816
0.0052918886
0.0053032437
0.0052737113
0.0052584793
0.0052026123
0.0052305612
0.0051968573
0.0051789237
0.0051458657
0.0051006034
0.0051062276
0.0050737378
0.0050262479
0.0049973961
0.0049605661
0.0049338728
0.0049098143
0.0048941833
0.0048855325
0.0051395522
0.0051412399
0.0051411377
0.0051400508
0.0051389655
0.0051393845
0.0051469512
0.0051529934
0.0051565082
0.0051583019
0.0051569666
0.005152448
0.0051341998
0.0051342456
0.0051296089
0.0051380182
0.0051130373
0.005103839
0.005126602
0.0051151725
0.0050895934
0.0050499688
0.0050240551
0.0050214191
0.0049956127
0.0049665049
0.0049405058
0.0049191152
0.0049003313
0.0048870084
0.0048801014
0.0050347934
0.0050365445
0.0050368709
0.0050362759
0.0050350633
0.0050327185
0.0050279789
0.0050250156
0.0050239094
0.0050238193
0.0050241201
0.0050235553
0.005021813
0.0050183474
0.005024151
0.005020661
0.0050345217
0.005016022
0.0050167928
0.0050125132
0.0050219556
0.0050032418
0.0049745716
0.0049673463
0.0049585763
0.0049392813
0.0049216868
0.004906154
0.0048916864
0.0048799084
0.0048738487
0.0049558659
0.0049568701
0.004956985
0.0049566674
0.0049563335
0.0049561311
0.0049561156
0.004956687
0.0049591375
0.0049614865
0.0049633391
0.0049631835
0.0049606755
0.0049573585
0.004956637
0.0049589743
0.0049605508
0.0049661813
0.004954973
0.0049512139
0.0049465999
0.0049507247
0.0049444301
0.0049298982
0.0049278841
0.004915694
0.0049046006
0.0048945995
0.0048828832
0.004873365
0.0048678664
0.0049184163
0.0049191562
0.0049191143
0.0049185539
0.0049176805
0.0049168205
0.0049162214
0.0049158885
0.0049154298
0.0049159283
0.0049166765
0.0049172003
0.0049191409
0.0049215825
0.0049236616
0.0049221215
0.0049234125
0.0049218622
0.0049226807
0.0049199437
0.0049179486
0.0049155318
0.0049159537
0.0049111835
0.0049062398
0.0048998162
0.004894798
0.0048836993
0.0048745968
0.0048678566
0.0048638362
0.0048860494
0.0048863458
0.0048864579
0.0048865668
0.0048868268
0.0048872662
0.0048878542
0.0048885902
0.0048894449
0.0048904296
0.0048918036
0.0048952007
0.0048999532
0.0049022612
0.0049024852
0.0049009229
0.0048985983
0.0049006209
0.004900888
0.0049025851
0.0049035583
0.0048994661
0.0048958498
0.0048966412
0.0048928697
0.0048903059
0.0048821603
0.0048758846
0.0048696421
0.0048645702
0.0048619781
0.0048727583
0.0048729991
0.0048731604
0.0048733384
0.004873598
0.0048739423
0.0048743558
0.0048748425
0.0048753869
0.0048760025
0.0048767658
0.0048777741
0.0048787732
0.0048798052
0.0048799283
0.0048815004
0.0048844998
0.0048851512
0.0048865363
0.0048859545
0.0048856553
0.0048874767
0.0048844283
0.0048821056
0.0048815432
0.0048786859
0.0048751805
0.0048708168
0.0048664673
0.0048622625
0.0048582234
0.0048662061
0.0048664043
0.0048665695
0.0048667573
0.0048669922
0.0048672753
0.0048675925
0.0048678565
0.0048680861
0.0048683711
0.0048687482
0.0048695114
0.0048707146
0.0048717464
0.0048714558
0.0048711717
0.0048718785
0.0048725452
0.0048732581
0.0048741664
0.0048743309
0.0048740981
0.0048750704
0.0048741436
0.0048736748
0.0048723992
0.0048708064
0.00486821
0.0048625503
0.0048585875
0.0048585949
0.0048593636
0.0048595104
0.0048596935
0.0048599261
0.0048602321
0.0048606199
0.0048610921
0.0048616556
0.0048623315
0.004863151
0.0048641345
0.0048654363
0.0048666588
0.0048669702
0.0048667336
0.0048664027
0.0048666702
0.0048676158
0.0048684987
0.0048686146
0.0048696512
0.0048694809
0.0048693355
0.0048695499
0.0048692106
0.0048683657
0.0048674294
0.0048644734
0.0048625488
0.0048616193
0.0048599789
0.0008565396
0.0018545962
0.0037253706
0.0065378901
0.010267818
0.015008768
0.020855143
0.027862932
0.036155321
0.045157218
0.055034659
0.065345464
0.075303601
0.083673953
0.088595707
0.08743565
0.07695003
0.056095384
0.031837124
0.01563131
0.0093277429
0.0073551832
0.0064975111
0.0059328125
0.005565991
0.0053475893
0.00519995
0.0051019003
0.0050330452
0.0049870754
0.0049630267
0.0020988201
0.0042379988
0.0070788998
0.010477837
0.014629728
0.019663379
0.025650724
0.032916116
0.040974206
0.049915262
0.059597602
0.069510865
0.078815506
0.086211855
0.089780408
0.086862348
0.074339582
0.052026417
0.028062315
0.013911775
0.0088231238
0.0071972509
0.0064256858
0.0058912927
0.005542437
0.0053355901
0.0051933056
0.0050982696
0.0050309941
0.0049858636
0.0049623691
0.0039027216
0.0062347883
0.0091110465
0.012712915
0.017185818
0.022626121
0.029142733
0.036630993
0.044911463
0.053987218
0.063589694
0.073176839
0.081870319
0.08831926
0.090559679
0.085930082
0.071507666
0.048135377
0.025149691
0.012750652
0.0084928666
0.007126439
0.0063914267
0.0058710203
0.0055303063
0.0053287265
0.0051892014
0.0050958676
0.0050294938
0.0049848539
0.0049616972
0.0056887798
0.0082459993
0.011479276
0.015479086
0.020292529
0.026039465
0.03283278
0.040369004
0.04876445
0.057863324
0.067319051
0.076541759
0.084600487
0.090089728
0.091005963
0.084701491
0.068504186
0.044419093
0.022608087
0.011704183
0.0082766204
0.0070344901
0.0063382047
0.0058388876
0.005511556
0.0053188209
0.0051836022
0.0050927148
0.0050276493
0.0049837146
0.0049609893
0.0074295554
0.010345221
0.013928242
0.01823211
0.02335113
0.029413948
0.036290882
0.044007852
0.052510357
0.061586071
0.070849563
0.079669017
0.087062567
0.091573514
0.091165687
0.083220966
0.065374264
0.04085656
0.020364291
0.010980739
0.0080786489
0.0069687474
0.0063020986
0.005817732
0.0054991147
0.0053118427
0.0051794652
0.005090265
0.0050261175
0.0049826847
0.0049602462
0.0092774738
0.012496141
0.016356251
0.020935071
0.026395933
0.03267497
0.039731218
0.047602577
0.056165211
0.065172724
0.07420437
0.082585939
0.089286733
0.092803413
0.091074157
0.08152063
0.062166195
0.037457114
0.018403908
0.010300556
0.0079332968
0.0068990044
0.006258584
0.0057914542
0.0054837029
0.0053033868
0.0051746102
0.0050874418
0.0050244102
0.0049815869
0.0049594701
0.011068791
0.014575008
0.018735579
0.023649527
0.02937971
0.03585696
0.043121597
0.051123423
0.059714257
0.068621472
0.07739057
0.085306594
0.091293315
0.093805669
0.090762325
0.079642041
0.058927094
0.034273685
0.016733523
0.0098176232
0.0078027335
0.0068407184
0.0062238887
0.0057713216
0.0054719969
0.0052966627
0.0051706417
0.0050850397
0.0050228884
0.0049805524
0.0049586845
0.012803577
0.016628035
0.02110351
0.026364656
0.032308228
0.039008026
0.046450829
0.054554723
0.063147653
0.071929127
0.080411548
0.08784128
0.093099891
0.094605271
0.090261288
0.07762226
0.055696267
0.031344557
0.015347477
0.0094220232
0.0076984398
0.0067836281
0.0061870535
0.0057493866
0.0054592223
0.0052893202
0.0051663862
0.005082478
0.0050212862
0.0049794857
0.0049578915
0.014535365
0.01866006
0.023456467
0.028985729
0.035174067
0.04209203
0.049696367
0.057883028
0.066457476
0.075092879
0.083270397
0.090200013
0.094724379
0.095229239
0.089611001
0.07550218
0.052531851
0.028702519
0.014221534
0.0091385987
0.0076035795
0.006732816
0.0061552962
0.005731155
0.0054487831
0.00528306
0.0051626999
0.005080185
0.0050197992
0.0049784579
0.0049570946
0.016213749
0.020642977
0.02576373
0.031527437
0.037971905
0.045098301
0.052847874
0.061099461
0.069637772
0.078111158
0.085971302
0.092394009
0.096186337
0.095705557
0.088853022
0.073339443
0.049473344
0.026364367
0.01331625
0.008900555
0.0075217543
0.0066847544
0.0061237537
0.0057127192
0.0054382261
0.0052766463
0.0051589554
0.0050778509
0.0050182835
0.004977418
0.0049562936
0.017875722
0.02260141
0.028002723
0.034012231
0.040701844
0.048018162
0.055895808
0.064196085
0.072683795
0.080983766
0.088519974
0.094436238
0.097507442
0.096064633
0.088022416
0.07117671
0.046559682
0.02433574
0.012572943
0.0087161357
0.0074471923
0.0066411224
0.0060956289
0.0056967374
0.0054292572
0.0052709757
0.0051556048
0.0050757051
0.0050168444
0.0049764042
0.0049554893
0.019493843
0.024517758
0.030167386
0.036434383
0.043350638
0.050839735
0.058830873
0.06716585
0.075591968
0.083711908
0.090923808
0.096341304
0.098709458
0.096339227
0.087155108
0.06905399
0.04383579
0.022613107
0.01199039
0.0085635369
0.0073805842
0.0066006385
0.0060687767
0.0056813007
0.0054206129
0.0052654078
0.0051523137
0.0050735832
0.005015405
0.0049753896
0.0049546817
0.021088535
0.026383936
0.032276382
0.038784901
0.045897034
0.053552754
0.061644108
0.070002828
0.078360049
0.086298258
0.093191781
0.098125136
0.099814628
0.096554567
0.086286469
0.067013241
0.041332769
0.021177433
0.011537633
0.0084400583
0.0073196719
0.0065638449
0.0060446161
0.0056676686
0.0054131252
0.0052604113
0.0051493182
0.0050716072
0.005014022
0.0049743947
0.0049538713
0.022655923
0.028195426
0.034325632
0.041054232
0.048337523
0.056151472
0.064327238
0.072701296
0.080987491
0.088748038
0.095334292
0.099805217
0.10084646
0.096741226
0.085449576
0.065085713
0.039074631
0.020008619
0.011211139
0.0083371586
0.0072647607
0.0065302471
0.0060222072
0.0056549196
0.0054061423
0.0052556578
0.0051464414
0.0050696897
0.0050126552
0.0049734049
0.0049530583
0.024199464
0.029956516
0.036307586
0.043237775
0.050697005
0.058602848
0.066875545
0.075259125
0.083473687
0.091066711
0.0973592
0.10139577
0.1018315
0.096936449
0.084689702
0.06329615
0.037076863
0.019086504
0.010965001
0.0082522041
0.0072149145
0.0064999924
0.0060021735
0.0056436379
0.0054000532
0.0052513852
0.0051438052
0.0050678941
0.0050113364
0.0049724325
0.0049522419
0.025697607
0.031661208
0.038212237
0.04532203
0.052934017
0.060957863
0.069258083
0.077662737
0.085811511
0.093245617
0.099275446
0.10291251
0.10279324
0.097172722
0.084048414
0.061672367
0.035348207
0.018399966
0.010781947
0.0081790696
0.0071703753
0.0064728674
0.005984098
0.0056333864
0.0053945187
0.0052474225
0.0051413173
0.0050661731
0.0050100464
0.0049714707
0.0049514202
0.027098551
0.033266139
0.040004804
0.047279076
0.055025742
0.063149614
0.071499392
0.079874506
0.087968911
0.095286388
0.10108256
0.10436912
0.10375269
0.097480054
0.083563476
0.06027857
0.033931888
0.017817376
0.010593177
0.0081136291
0.0071307602
0.0064488829
0.005968232
0.0056244291
0.0053897088
0.0052438822
0.0051390395
0.0050645584
0.0050088018
0.0049705243
0.0049505936
0.028383993
0.034715689
0.041617659
0.049041277
0.056918617
0.065142669
0.073559464
0.081949637
0.089983133
0.097159486
0.10277456
0.10577618
0.1047292
0.097885252
0.08326719
0.059170351
0.032801469
0.017331642
0.010432329
0.0080582035
0.0070961923
0.0064279239
0.0059543703
0.0056165586
0.0053854497
0.0052406718
0.005136925
0.0050630243
0.005007594
0.00496959
0.0049497622
0.029733637
0.036141656
0.043131036
0.0506515
0.058621696
0.066927076
0.075404398
0.083822761
0.091837526
0.098935902
0.10438653
0.10711676
0.10573715
0.098411277
0.083186596
0.058384688
0.031936719
0.016922955
0.010283787
0.0080112384
0.0070665289
0.0064099695
0.005942597
0.0056098845
0.0053818209
0.0052378392
0.0051350059
0.0050615865
0.0050064332
0.0049686707
0.0049489263
0.031075789
0.037534121
0.04456901
0.052138506
0.060161462
0.068519759
0.077042898
0.085490278
0.093503211
0.10055731
0.1059024
0.10846021
0.1067934
0.099042147
0.083341959
0.05794901
0.031325639
0.016576791
0.01015069
0.0079734785
0.007041879
0.0063949959
0.0059328216
0.005604314
0.0053787548
0.0052353361
0.0051332605
0.005060232
0.0050053163
0.0049677644
0.0049480863
0.032389473
0.038860747
0.045904028
0.053485584
0.061526881
0.069913523
0.078469101
0.086947033
0.094975075
0.10202027
0.10731391
0.10976449
0.10790692
0.099873973
0.083747951
0.057887401
0.030968196
0.016271966
0.010026908
0.007944575
0.0070223722
0.0063830797
0.0059251023
0.005599902
0.0053763054
0.0052331832
0.0051317047
0.0050589673
0.005004248
0.0049668716
0.0049472427
0.033661128
0.040105629
0.047117737
0.054675506
0.062701712
0.071101005
0.079704802
0.088239051
0.096321471
0.10338363
0.10865197
0.11104559
0.10907912
0.10086206
0.084432839
0.058226044
0.030882858
0.015980177
0.0099091773
0.00792503
0.0070082625
0.0063743029
0.0059194099
0.0055965998
0.0053744432
0.0052313482
0.0051303202
0.0050577803
0.0050032233
0.004965989
0.0049463957
0.03490244
0.041250963
0.048175532
0.055671714
0.063695497
0.072123374
0.080766999
0.089338802
0.097446442
0.10454808
0.10985746
0.11227585
0.11030086
0.10201263
0.085391374
0.058990746
0.031069078
0.015654578
0.009795333
0.0079147347
0.0069995476
0.0063685998
0.0059156505
0.0055943472
0.0053731487
0.0052298118
0.0051290961
0.0050566649
0.0050022387
0.0049651143
0.0049455445
0.036108102
0.042258147
0.048994932
0.056341198
0.064275988
0.072668004
0.081317995
0.089940799
0.098135884
0.10533778
0.11075456
0.11327307
0.11137298
0.10310776
0.086388618
0.0598851
0.031521296
0.015222426
0.0096860569
0.0079138273
0.0069955708
0.0063654861
0.0059134644
0.0055929224
0.0053723068
0.0052285086
0.0051279986
0.0050556066
0.0050012896
0.0049642478
0.0049446887
0.00087890108
0.0017930851
0.0035545235
0.0062160539
0.0097608253
0.01421716
0.019735544
0.026426711
0.034450244
0.043261363
0.053027581
0.063329321
0.073421275
0.082134567
0.087662796
0.087409496
0.078058808
0.058032959
0.033536355
0.016188252
0.0094688978
0.0074000862
0.0065210639
0.0059474414
0.0055755004
0.0053532202
0.0052032877
0.0051038184
0.0050342269
0.0049878605
0.0049633592
0.0009319052
0.0018411948
0.0035739227
0.0061598652
0.0096070389
0.013989224
0.019422875
0.02600594
0.033888324
0.042609281
0.05222471
0.062403608
0.072473111
0.081265845
0.087012678
0.087153237
0.078406957
0.05893698
0.034443609
0.0165622
0.0095555013
0.0074260862
0.0065358748
0.0059574699
0.0055825619
0.0053567137
0.0052053882
0.0051050671
0.0050350354
0.0049884631
0.0049636775
0.00099705648
0.0018937121
0.0036017899
0.0061382654
0.0095168656
0.013809913
0.019129117
0.025577024
0.033282795
0.041877745
0.051369381
0.061456786
0.071492919
0.080358181
0.086320927
0.086860456
0.078733741
0.059858484
0.03541081
0.016983893
0.0096505936
0.0074541457
0.006551188
0.0059672569
0.0055890893
0.005361273
0.0052081013
0.005106593
0.0050359645
0.0049890523
0.0049641013
0.0010754163
0.0019515839
0.0036297452
0.0061155342
0.0094239788
0.01362678
0.018831635
0.025146343
0.032673212
0.041134705
0.050496379
0.060483917
0.070480168
0.079410354
0.085585093
0.086527554
0.079034091
0.060794758
0.036437947
0.017452764
0.0097563139
0.0074827065
0.0065674795
0.0059792044
0.0055979045
0.0053647058
0.0052102188
0.0051079117
0.0050368494
0.0049897451
0.0049645574
0.0011695851
0.0020190848
0.0036592141
0.0060921306
0.0093299419
0.013441683
0.018531448
0.024704036
0.032059283
0.040381368
0.049606582
0.059485697
0.069435014
0.078421954
0.084803797
0.086152194
0.07930595
0.061750633
0.037525945
0.017970733
0.0098736561
0.0075154824
0.0065839656
0.0059893542
0.0056043753
0.0053701984
0.0052134718
0.0051097209
0.005037936
0.0049904588
0.0049649743
0.0012835077
0.0020961341
0.0036971995
0.0060749233
0.0092400817
0.013258752
0.01823147
0.024259138
0.031442756
0.039620048
0.04870224
0.058465682
0.06835925
0.077394298
0.083977504
0.085733925
0.079539443
0.062717112
0.038667051
0.01854627
0.010006891
0.0075480311
0.0066024098
0.0060034204
0.0056148774
0.0053752937
0.0052165377
0.0051114919
0.0050390333
0.0049912195
0.0049653236
0.001421711
0.0021961506
0.0037404583
0.0060586017
0.0091500174
0.013075305
0.017931095
0.023817482
0.030825056
0.038854629
0.04778657
0.0574267
0.067254539
0.076327696
0.083103871
0.085266347
0.079714889
0.063661565
0.039842622
0.019175929
0.010156578
0.0075830141
0.0066204836
0.0060166259
0.0056243979
0.0053807318
0.0052198171
0.0051133926
0.0050402032
0.0049920303
0.0049657531
0.0015912586
0.0023118912
0.0038003168
0.0060547421
0.0090705656
0.012901546
0.017639734
0.023383585
0.030216776
0.038088626
0.046864766
0.056372488
0.066121216
0.07522088
0.082176987
0.084736807
0.079845169
0.064595273
0.041099908
0.019869966
0.010326296
0.0076201597
0.0066390479
0.0060306352
0.0056345674
0.0053865795
0.0052233365
0.0051154233
0.0050414402
0.0049928883
0.0049663714
0.0017968319
0.0024522732
0.0038759286
0.0060629792
0.0090017853
0.012737869
0.017358172
0.022959689
0.029626384
0.037327895
0.045940218
0.055306972
0.064965536
0.07407941
0.081203182
0.084152519
0.0799232
0.065509812
0.042423
0.020634198
0.010517801
0.0076593981
0.0066580818
0.0060451717
0.0056453169
0.0053927971
0.0052270907
0.0051176052
0.0050427595
0.0049937992
0.0049672067
0.0020492197
0.002632917
0.0039791164
0.0060898099
0.0089478448
0.012587961
0.017090116
0.022548119
0.029035366
0.036573867
0.045017477
0.054235504
0.063802928
0.07290732
0.08018379
0.083511444
0.079943676
0.066405237
0.043799561
0.021474615
0.010734141
0.0077016911
0.0066772436
0.0060605186
0.0056567701
0.005399491
0.0052311264
0.0051199329
0.0050441488
0.0049947561
0.0049679935
0.0023505096
0.0028502926
0.0041048697
0.0061356222
0.0089112187
0.012455078
0.016839172
0.022152495
0.028461688
0.035829901
0.044101507
0.053162828
0.062622024
0.071707772
0.079120818
0.082812593
0.079901832
0.067268857
0.045227672
0.022399241
0.010978691
0.007746232
0.006697292
0.0060763442
0.0056688621
0.0054066034
0.0052354227
0.0051224366
0.0050456305
0.0049957744
0.0049687571
0.0027056378
0.0031193822
0.0042800137
0.0062104036
0.0088970006
0.01234339
0.016609747
0.021779357
0.027922204
0.035109071
0.043199457
0.052094907
0.061431201
0.070485069
0.078017097
0.082055928
0.079792825
0.068080013
0.046662186
0.023406438
0.011255526
0.0077955811
0.0067164237
0.0060926361
0.0056815683
0.0054142158
0.0052400423
0.0051250925
0.0050471833
0.0049968382
0.004969549
0.0031124156
0.0034409812
0.0044858772
0.006317009
0.0089096264
0.01225724
0.016406704
0.021434461
0.027413346
0.03441733
0.042319414
0.051038869
0.060239784
0.069243884
0.076876249
0.081242387
0.079613103
0.068830502
0.048087879
0.024502028
0.01156923
0.0078477571
0.0067376756
0.0061096982
0.0056951307
0.0054223682
0.00524495
0.0051279442
0.0050488348
0.0049979747
0.0049704066
0.0035636072
0.0038164617
0.0047425634
0.0064648666
0.0089572991
0.012203706
0.016236642
0.021124006
0.026937646
0.033737179
0.041463216
0.050001568
0.059054438
0.067982851
0.075702531
0.080374009
0.079360447
0.069511894
0.049516631
0.025687036
0.011925015
0.0079063144
0.0067563585
0.0061260753
0.0057088084
0.0054309086
0.0052502096
0.0051309355
0.0050505636
0.0049991484
0.004971327
0.004046261
0.0042437945
0.0050616942
0.0066624509
0.009047654
0.0121903
0.016107102
0.020855492
0.026504617
0.033107201
0.040652269
0.048994327
0.057885787
0.066735618
0.074504548
0.079454381
0.079033773
0.070115775
0.050935458
0.026964961
0.012328554
0.0079726237
0.0067781656
0.0061442412
0.0057239408
0.0054403142
0.0052557996
0.0051341377
0.005052389
0.0050004065
0.0049722968
0.0045481212
0.0047116566
0.0054345927
0.0069177894
0.0091911056
0.012227442
0.016029219
0.020639235
0.02612448
0.032538976
0.039886853
0.048026303
0.056744058
0.065501308
0.073290286
0.078488549
0.078633306
0.070632846
0.052336365
0.028316472
0.012784962
0.0080406717
0.0067981168
0.0061598765
0.0057380623
0.0054497385
0.0052617187
0.0051374396
0.0050543155
0.0050016904
0.0049733049
0.0050546608
0.0052180644
0.0058809999
0.0072584748
0.0094170161
0.012340375
0.016022494
0.020492511
0.025808122
0.032031252
0.039151775
0.047099566
0.055636454
0.064270463
0.072066458
0.077482955
0.078161812
0.071056408
0.053711574
0.029780909
0.013300863
0.0081350775
0.0068167029
0.006178085
0.0057544702
0.0054606076
0.0052680311
0.005140974
0.0050563155
0.0050030699
0.0049743477
0.0055418277
0.0057324737
0.0063719719
0.0076714155
0.0097292688
0.012542213
0.016102802
0.020431632
0.025571498
0.031601659
0.038508701
0.046262648
0.054583021
0.063069358
0.070843606
0.076445692
0.077624941
0.071391146
0.055058934
0.031337118
0.013888033
0.0082309035
0.0068424726
0.0061938943
0.0057688083
0.0054709296
0.0052745345
0.0051445528
0.0050584703
0.005004464
0.0049754218
0.0060189061
0.0062663078
0.0069209604
0.0081793333
0.010150847
0.012855693
0.016292017
0.020476772
0.025433475
0.031267675
0.037958717
0.045469897
0.053586871
0.061908449
0.06962618
0.075385
0.077027027
0.071641869
0.056370363
0.03290615
0.014529526
0.0083507874
0.0068560301
0.0062089001
0.0057849429
0.0054830593
0.0052814906
0.0051484063
0.0050606321
0.0050059506
0.0049765234
0.0065369469
0.0068681872
0.0075736972
0.0088252227
0.010722184
0.013320058
0.016624916
0.020655538
0.025419862
0.03104665
0.037506636
0.044754327
0.05265619
0.060798276
0.068435973
0.07431137
0.07637285
0.071798365
0.057602711
0.034531084
0.015271264
0.0085057199
0.006882439
0.0062279807
0.005800589
0.0054945659
0.0052883672
0.0051522985
0.0050630364
0.0050074493
0.0049776477
0.0071790682
0.007600867
0.0083728681
0.0096318878
0.011482037
0.013971032
0.017131312
0.020992193
0.025553414
0.03095768
0.037176657
0.044177788
0.051848634
0.059764598
0.067303674
0.073239385
0.075670774
0.071863707
0.058752697
0.036236206
0.016093105
0.0086439646
0.0069083078