/*--------------------------------*- C++ -*----------------------------------*\
| =========                 |                                                 |
| \\      /  F ield         | OpenFOAM: The Open Source CFD Toolbox           |
|  \\    /   O peration     | Version:  2406                                  |
|   \\  /    A nd           | Website:  www.openfoam.com                      |
|    \\/     M anipulation  |                                                 |
\*---------------------------------------------------------------------------*/
FoamFile
{
    version     2.0;
    format      ascii;
    arch        "LSB;label=32;scalar=64";
    class       volVectorField;
    location    "0.051";
    object      U;
}
// * * * * * * * * * * * * * * * * * * * * * * * * * * * * * * * * * * * * * //

dimensions      [0 1 -1 0 0 0 0];

internalField   nonuniform List<vector> 
8260
(
(40.162409 29.005183 0)
(41.543032 27.714953 -2.4712248e-20)
(42.859513 26.424442 2.135384e-20)
(44.133895 25.130587 -3.652804e-20)
(45.363314 23.794389 1.5490583e-20)
(46.529314 22.433721 -2.6146153e-20)
(47.621375 21.085312 -1.0955327e-20)
(48.630544 19.78212 -1.4696223e-23)
(49.591641 18.548529 4.9871202e-21)
(50.543804 17.385258 0)
(51.432835 16.30737 4.6160771e-20)
(52.279622 15.306659 0)
(53.076512 14.363568 0)
(53.791374 13.43899 -7.0944507e-20)
(54.262706 12.475548 1.8685353e-23)
(54.322669 11.380055 0)
(53.724357 9.8550096 0)
(52.848523 8.204667 6.8516704e-19)
(52.40346 7.0476109 5.7372591e-21)
(52.133625 6.1393298 -6.9897523e-19)
(51.90779 5.3159996 -1.2713321e-18)
(51.717733 4.5892368 -1.1427021e-18)
(51.526118 3.9338066 -2.0706112e-18)
(51.369337 3.3372008 1.8502967e-18)
(51.238005 2.8088318 1.6425805e-18)
(51.117365 2.3265995 0)
(51.0133 1.8738708 2.5809331e-18)
(50.927912 1.4478146 2.2768597e-18)
(50.856381 1.0365206 4.0191944e-18)
(50.81289 0.62357169 0)
(50.7826 0.21249825 6.2379057e-18)
(39.164375 28.2309 2.420723e-20)
(40.604305 27.062768 -1.745419e-23)
(41.972475 25.95503 -1.8826628e-20)
(43.303634 24.812648 4.9541063e-20)
(44.598868 23.612179 0)
(45.842262 22.37074 2.467005e-20)
(47.020062 21.118711 4.2310925e-20)
(48.125752 19.887097 2.7108996e-20)
(49.175289 18.701146 -3.0979036e-20)
(50.187758 17.567316 1.3338414e-20)
(51.140065 16.496617 -5.2306993e-20)
(52.037856 15.489373 0)
(52.870952 14.529403 0)
(53.602871 13.583043 1.4595364e-19)
(54.074165 12.565771 -1.527653e-19)
(54.101421 11.429453 1.9025438e-19)
(53.486311 9.8167754 2.6783759e-24)
(52.661869 8.1730937 -2.1518498e-20)
(52.286004 7.0388428 2.236247e-20)
(52.048646 6.1361054 -6.6978897e-19)
(51.84122 5.3140596 -9.5586177e-21)
(51.66543 4.5880735 1.1062904e-18)
(51.484461 3.9335714 1.9870813e-18)
(51.336432 3.3375331 -3.4676565e-21)
(51.211972 2.8095019 6.1982327e-21)
(51.096093 2.3272967 -2.7366043e-21)
(50.995693 1.8743502 -2.4811443e-18)
(50.913107 1.4480955 -2.1931092e-18)
(50.843581 1.0365286 -3.8789056e-18)
(50.801563 0.62320479 3.4245914e-18)
(50.772196 0.21216628 -6.0435084e-18)
(38.123586 27.18089 -2.0317454e-20)
(39.543461 26.238749 1.8236752e-20)
(40.956437 25.335675 0)
(42.351702 24.367446 -3.0142304e-20)
(43.719598 23.322644 2.6918674e-20)
(45.04498 22.21872 0)
(46.313243 21.081443 -4.1645734e-20)
(47.515316 19.938853 -9.0880896e-21)
(48.65675 18.816384 3.9607929e-20)
(49.746268 17.72415 0)
(50.770525 16.672155 4.8989846e-20)
(51.727773 15.666089 0)
(52.605278 14.693154 0)
(53.36083 13.724825 -7.4566189e-20)
(53.840083 12.656972 -5.2494936e-21)
(53.845012 11.471667 -2.0989584e-19)
(53.220254 9.7617446 2.8244164e-19)
(52.467737 8.1607009 -1.3675804e-18)
(52.159224 7.054645 0)
(51.953398 6.1556256 6.332141e-19)
(51.76564 5.3323611 0)
(51.605888 4.6037958 -8.0744283e-21)
(51.437055 3.9471758 1.44492e-20)
(51.298734 3.3487666 -1.2875809e-20)
(51.182138 2.8183956 -1.4581096e-18)
(51.071765 2.3342454 0)
(50.97558 1.8794781 0)
(50.896207 1.4517706 1.9807643e-21)
(50.828989 1.0389535 -1.7496402e-21)
(50.788667 0.62465492 -3.1636807e-18)
(50.760352 0.21270268 -4.2371375e-23)
(37.253925 25.991211 6.765164e-20)
(38.627617 25.269853 -4.6702018e-20)
(40.035976 24.569525 2.9332125e-20)
(41.454453 23.788209 2.7203845e-20)
(42.864601 22.915167 -7.476367e-20)
(44.248416 21.965229 -2.2558918e-20)
(45.588758 20.960217 2.0238128e-20)
(46.872361 19.924277 -1.8024421e-20)
(48.096361 18.881139 1.6013819e-20)
(49.262282 17.84407 0)
(50.357311 16.823748 5.1118525e-20)
(51.37471 15.828055 0)
(52.297957 14.847489 -8.7410074e-20)
(53.076439 13.857926 0)
(53.561051 12.74156 -1.8340316e-19)
(53.538557 11.496033 6.9524133e-21)
(52.911308 9.6870645 4.4198252e-23)
(52.250478 8.1527329 6.6143305e-19)
(52.01376 7.0676281 -6.4656716e-19)
(51.843528 6.170671 0)
(51.678476 5.3460495 -1.0657011e-18)
(51.537091 4.6150769 -7.4588064e-21)
(51.382348 3.956871 6.6530552e-21)
(51.255336 3.3568546 -1.5145272e-18)
(51.147834 2.8247837 0)
(51.0438 2.3393203 0)
(50.95251 1.8831828 0)
(50.876842 1.4544004 -1.8571957e-18)
(50.812327 1.040583 0)
(50.773954 0.62545233 2.8953984e-18)
(50.746878 0.21290239 5.108865e-18)
(36.568879 24.7049 -1.3963099e-20)
(37.875705 24.182282 0)
(39.242974 23.67091 -2.5459704e-20)
(40.646999 23.075592 2.4288023e-20)
(42.066516 22.381576 2.281192e-20)
(43.48075 21.597457 4.2263522e-20)
(44.869707 20.739569 1.9382722e-20)
(46.21604 19.826965 -1.7643068e-20)
(47.509267 18.87993 -1.5974802e-20)
(48.743337 17.913234 8.6822415e-20)
(49.903931 16.938458 -1.3155981e-20)
(50.978963 15.963789 0)
(51.946616 14.982525 1.7377148e-19)
(52.745331 13.97328 -4.5548698e-24)
(53.229168 12.808887 2.1080754e-19)
(53.173257 11.485842 1.4995098e-20)
(52.555141 9.5941767 -3.2134176e-19)
(52.015045 8.1454377 6.2163758e-19)
(51.850578 7.0791422 6.3910794e-19)
(51.719201 6.1858884 2.3045656e-24)
(51.579657 5.3614274 9.6324953e-19)
(51.458891 4.628465 8.7361791e-19)
(51.320256 3.9688286 6.0733052e-21)
(51.205972 3.36715 1.3744828e-18)
(51.108814 2.832946 1.2222502e-18)
(51.011991 2.3458819 0)
(50.92629 1.8880422 -3.7312757e-21)
(50.854805 1.4579008 1.6904128e-18)
(50.793393 1.0428104 -2.978962e-18)
(50.75722 0.62667478 -2.6297924e-18)
(50.731553 0.21329101 5.6626631e-22)
(36.083308 23.345757 2.2992804e-20)
(37.305295 23.000558 -2.2129792e-20)
(38.603814 22.660309 -2.1917942e-20)
(39.960793 22.240504 4.2823312e-20)
(41.356426 21.723127 -4.1188638e-20)
(42.76951 21.109155 0)
(44.178565 20.407813 0)
(45.563159 19.631827 0)
(46.906581 18.796541 3.1503879e-20)
(48.195347 17.915686 3.4967348e-23)
(49.411989 17.000597 -5.3811519e-20)
(50.538421 16.058518 1.137367e-19)
(51.545993 15.084715 -2.0698825e-19)
(52.359699 14.057349 -1.1054538e-19)
(52.832902 12.843592 2.6589469e-20)
(52.739925 11.42117 -1.5903497e-20)
(52.151522 9.4837875 1.8746519e-20)
(51.759711 8.1370525 -6.2064198e-19)
(51.666883 7.0876544 -1.7295772e-20)
(51.57824 6.1987154 -4.9837799e-19)
(51.467509 5.3756576 -8.770388e-19)
(51.369731 4.6409159 -1.5862385e-18)
(51.249541 3.9800746 -1.4196301e-18)
(51.149667 3.3770733 -8.1280311e-25)
(51.064308 2.8407414 8.6624087e-21)
(50.975714 2.3522319 1.9527692e-18)
(50.896432 1.8927668 0)
(50.829675 1.4613072 1.5256997e-18)
(50.771857 1.044923 2.6854153e-18)
(50.738166 0.62777036 0)
(50.71413 0.21359745 0)
(35.812188 21.936678 8.6593491e-21)
(36.936121 21.752893 -3.70388e-20)
(38.144835 21.564418 3.7547561e-20)
(39.426721 21.302943 -1.8732804e-20)
(40.766441 20.950791 -1.8449836e-20)
(42.145216 20.502323 0)
(43.542169 19.959248 0)
(44.935439 19.327212 0)
(46.304027 18.615355 -3.0703152e-20)
(47.628199 17.833806 -5.7703356e-20)
(48.885913 16.991612 0)
(50.052476 16.093591 -1.0380479e-19)
(51.090758 15.135786 1.2688651e-19)
(51.910005 14.089889 -3.548667e-23)
(52.357754 12.823694 1.6934276e-19)
(52.227096 11.27611 3.3022881e-20)
(51.70911 9.3637327 -3.6178453e-20)
(51.483096 8.1238335 5.9088883e-19)
(51.461019 7.0917746 0)
(51.418753 6.2081052 4.519266e-19)
(51.34075 5.3889313 8.054092e-19)
(51.268426 4.6531209 1.4308411e-18)
(51.169321 3.9915558 -9.9768401e-21)
(51.085662 3.3876928 8.7728754e-21)
(51.013662 2.8491133 3.3412686e-23)
(50.93443 2.3591422 -1.7542079e-18)
(50.86251 1.8980095 0)
(50.801065 1.4651125 2.5402832e-23)
(50.747387 1.047285 0)
(50.716481 0.6290265 0)
(50.694337 0.21396266 1.8781927e-18)
(35.767528 20.548173 -2.3992259e-23)
(36.78076 20.486391 -2.3306158e-20)
(37.882431 20.419552 8.0246568e-21)
(39.066384 20.2913 1.6354539e-20)
(40.322366 20.083853 1.6428126e-20)
(41.635585 19.786512 0)
(42.987616 19.394212 0)
(44.357162 18.905397 0)
(45.721202 18.322143 0)
(47.05555 17.648849 -2.8448408e-20)
(48.333184 16.889906 2.7301026e-20)
(49.522277 16.045718 0)
(50.575338 15.111372 -2.6278901e-20)
(51.385433 14.039923 2.7113533e-20)
(51.786695 12.719078 -4.7385909e-19)
(51.620663 11.028028 3.3339686e-20)
(51.240965 9.2385965 -3.411447e-20)
(51.182952 8.1018485 -5.0744561e-19)
(51.230494 7.0897482 0)
(51.238279 6.2114797 0)
(51.197811 5.3996476 0)
(51.153413 4.6636873 2.0110064e-20)
(51.078293 4.0019728 1.127947e-18)
(51.012999 3.3979615 5.0855023e-25)
(50.956013 2.8572183 -1.7838084e-18)
(50.887388 2.3658993 1.562975e-18)
(50.823918 1.9032752 1.390407e-18)
(50.768468 1.4689334 -2.4444699e-18)
(50.719567 1.0496178 0)
(50.691775 0.63022884 0)
(50.671877 0.21428216 -1.6787318e-18)
(35.935062 19.199007 -6.1901954e-21)
(36.832912 19.225724 2.6191382e-20)
(37.817192 19.252291 -3.4465404e-20)
(38.887678 19.229585 -1.4297302e-20)
(40.038823 19.141307 1.4651316e-20)
(41.260109 18.973617 -2.9614341e-20)
(42.536859 18.716157 2.9590428e-20)
(43.850244 18.361028 0)
(45.177507 17.903279 0)
(46.492082 17.340311 0)
(47.762475 16.669766 0)
(48.949162 15.885411 1.0764274e-19)
(49.991844 14.978503 -1.3551627e-19)
(50.77468 13.856668 2.8018536e-20)
(51.098019 12.49432 2.4313636e-19)
(50.924252 10.667337 0)
(50.767496 9.1164991 0)
(50.857828 8.0670909 4.5892516e-19)
(50.972941 7.0795683 2.5641999e-20)
(51.034112 6.2054678 -2.2818343e-20)
(51.036877 5.4063273 0)
(51.023103 4.6719652 -5.5572821e-19)
(50.975044 4.0109932 8.7762982e-25)
(50.930731 3.4078518 -8.9704089e-19)
(50.890468 2.8652033 -3.3795476e-23)
(50.833786 2.3725885 -1.4095554e-18)
(50.779955 1.9087213 -1.2342626e-18)
(50.731313 1.4728778 1.0890651e-18)
(50.687927 1.0520226 -1.8767309e-21)
(50.663609 0.63145909 8.2784652e-22)
(50.646401 0.21459794 7.3025022e-22)
(36.28794 17.909196 0)
(37.075399 17.988628 -4.4551954e-20)
(37.941034 18.080209 4.7861701e-20)
(38.889306 18.136033 0)
(39.919972 18.138248 -7.8983994e-20)
(41.027734 18.07313 2.227127e-23)
(42.202725 17.926926 5.5129359e-20)
(43.42981 17.686996 2.7741868e-20)
(44.688069 17.342249 0)
(45.950256 16.882733 -2.3511513e-23)
(47.18119 16.297978 -6.6714326e-24)
(48.332748 15.573216 -1.6423652e-19)
(49.328543 14.690253 5.585309e-20)
(50.046764 13.505828 5.8234948e-20)
(50.269466 12.051241 6.1729952e-20)
(50.191665 10.232481 2.475243e-19)
(50.299597 8.989295 -5.7052386e-20)
(50.505447 8.0142222 8.9895867e-23)
(50.686954 7.0585603 0)
(50.804757 6.1862664 -3.4527001e-19)
(50.855312 5.4061695 -5.5800753e-19)
(50.875664 4.6763074 0)
(50.857733 4.0172451 0)
(50.837564 3.4163054 7.8544183e-19)
(50.815879 2.8724118 7.154077e-19)
(50.772681 2.3786258 1.2433982e-18)
(50.729738 1.9139553 -8.5709343e-21)
(50.688879 1.4766284 3.7806382e-21)
(50.651892 1.0543036 1.7111179e-18)
(50.631463 0.63256403 0)
(50.617466 0.21483778 1.3289518e-18)
(36.785817 16.672959 -2.7410976e-20)
(37.456338 16.797633 3.4466632e-20)
(38.206268 16.923233 -4.2713603e-20)
(39.033978 17.022587 -4.5707063e-20)
(39.940017 17.081582 1.2090869e-20)
(40.923757 17.08452 5.0497642e-20)
(41.979993 17.017373 0)
(43.097589 16.864852 -2.6694811e-20)
(44.258246 16.610556 0)
(45.43515 16.236934 -4.1749074e-23)
(46.58991 15.724511 0)
(47.664288 15.04745 -5.6290273e-20)
(48.562097 14.165721 5.8020898e-20)
(49.154755 12.877374 5.9810784e-20)
(49.322124 11.344233 -2.4081723e-19)
(49.506005 9.8637567 -5.104918e-19)
(49.814841 8.9007774 5.1295049e-20)
(50.134651 7.8884402 -4.1441087e-19)
(50.376017 7.0164301 -2.8642181e-19)
(50.549197 6.1773337 -3.6315439e-20)
(50.650874 5.3764645 4.8020988e-19)
(50.709043 4.6748844 4.8092514e-19)
(50.724356 4.019518 2.5048162e-20)
(50.73186 3.4224634 6.8609122e-19)
(50.730851 2.8784909 0)
(50.703137 2.3837873 -2.2060099e-18)
(50.672348 1.918799 -7.6023231e-21)
(50.640336 1.4800549 6.7063824e-21)
(50.610798 1.0564271 4.0094436e-23)
(50.594775 0.63351959 1.3047696e-21)
(50.584486 0.21499571 -1.1796479e-18)
(37.444128 15.418689 0)
(38.000743 15.536214 0)
(38.619324 15.682415 0)
(39.312715 15.806288 0)
(40.083718 15.898213 0)
(40.932553 15.944209 -1.0992226e-19)
(41.855676 15.929506 1.0243541e-19)
(42.843709 15.836768 0)
(43.879358 15.645219 -1.0952538e-19)
(44.935008 15.330173 1.1221128e-19)
(45.966897 14.862412 5.7476189e-20)
(46.901874 14.198724 0)
(47.638251 13.256785 1.8105231e-19)
(48.086989 11.937386 -6.0124074e-20)
(48.447256 10.518248 1.6952455e-19)
(48.872356 9.6123866 5.1346339e-20)
(49.354335 8.6283756 -1.8473596e-19)
(49.728273 7.7936702 -3.6916976e-19)
(50.041905 6.9314077 6.1831423e-19)
(50.270676 6.1334595 5.1522601e-19)
(50.418867 5.3841997 0)
(50.521848 4.6545401 -2.5059347e-20)
(50.57321 4.0114971 2.2175617e-20)
(50.611842 3.4246362 -6.2737387e-19)
(50.633797 2.8823677 0)
(50.624153 2.3874798 1.953423e-18)
(50.606888 1.9226026 0)
(50.584789 1.4827477 -5.9386832e-21)
(50.563901 1.0581497 -2.6768786e-18)
(50.552957 0.63415078 0)
(50.546715 0.21499745 0)
(38.103801 14.08403 0)
(38.552582 14.18954 0)
(39.065984 14.30802 0)
(39.640666 14.423459 8.8407784e-20)
(40.282331 14.513476 -1.7881119e-19)
(40.99458 14.564475 2.1656497e-19)
(41.775816 14.562269 -1.3486007e-19)
(42.616308 14.488278 2.8282854e-20)
(43.496863 14.317661 1.4688252e-19)
(44.388074 14.019379 -7.3201034e-23)
(45.250812 13.548354 -6.1745082e-20)
(46.01401 12.849794 -2.4728463e-19)
(46.595133 11.874324 1.2055587e-19)
(47.103004 10.813517 0)
(47.716656 9.9983631 0)
(48.340987 9.176909 9.2526823e-20)
(48.852061 8.4364958 3.2880832e-19)
(49.307486 7.6151781 7.2870894e-19)
(49.680597 6.8357098 -3.2262243e-19)
(49.970665 6.0646937 -5.7031038e-20)
(50.169406 5.3227589 5.0440662e-20)
(50.310365 4.6526948 -3.7857794e-19)
(50.404048 3.9921619 1.9659657e-20)
(50.476306 3.4214381 0)
(50.523488 2.8837107 0)
(50.534526 2.3882527 -8.6344439e-19)
(50.532511 1.9246327 0)
(50.521505 1.484415 0)
(50.510458 1.0592662 1.1860068e-18)
(50.505447 0.63435414 -1.04624e-18)
(50.503275 0.21481286 -9.2283848e-19)
(38.717502 12.334097 -2.2532135e-23)
(39.086666 12.394033 -1.7768577e-19)
(39.502278 12.484455 9.1085513e-20)
(39.974027 12.565067 0)
(40.503252 12.633238 9.9326742e-24)
(41.085972 12.678106 1.3549418e-19)
(41.719712 12.672908 -4.6113545e-23)
(42.397203 12.597817 -3.2524415e-20)
(43.101409 12.428692 -3.2972026e-20)
(43.805489 12.143731 -6.5735466e-20)
(44.479922 11.703165 -6.4212562e-20)
(45.111232 11.123911 0)
(45.756653 10.479188 0)
(46.476876 9.9253538 0)
(47.181994 9.3794586 0)
(47.801503 8.7924774 -1.6465338e-19)
(48.378093 8.092937 -1.4591449e-19)
(48.870869 7.3999634 -2.5839113e-19)
(49.300716 6.6761593 0)
(49.647505 5.9719722 -2.0202606e-19)
(49.896609 5.2787539 0)
(50.083625 4.5978404 3.1511661e-19)
(50.216213 3.9752687 0)
(50.324926 3.4104057 0)
(50.399142 2.8824539 0)
(50.433027 2.3834619 0)
(50.448324 1.9237513 0)
(50.450059 1.4845945 -9.2810983e-21)
(50.4498 1.0593437 8.1871158e-21)
(50.451706 0.63393536 1.8506226e-18)
(50.453229 0.21437448 8.1376821e-19)
(39.220264 10.292667 2.6163616e-23)
(39.445724 10.358647 0)
(39.73075 10.445652 2.0805186e-21)
(40.086164 10.523394 1.2196255e-19)
(40.530102 10.544453 -2.5727804e-19)
(41.016939 10.55534 -3.5916567e-20)
(41.535651 10.512809 -2.1608084e-19)
(42.094373 10.421903 5.6552735e-19)
(42.691454 10.278196 -2.7443457e-19)
(43.303673 10.13089 -6.6021517e-20)
(43.939678 9.9164138 -2.2647032e-23)
(44.603309 9.6888906 5.7475867e-20)
(45.32188 9.4346191 0)
(46.034479 9.1326652 0)
(46.69967 8.7523157 0)
(47.340148 8.2554462 2.9202358e-19)
(47.919971 7.7231671 0)
(48.445102 7.1088649 -2.2880889e-19)
(48.907203 6.4784936 0)
(49.305556 5.8280099 0)
(49.607696 5.1738221 0)
(49.837109 4.5520216 -2.4356853e-19)
(50.014777 3.9341983 -3.0705823e-20)
(50.15874 3.3894019 -4.6050843e-19)
(50.261017 2.8650255 2.3892267e-20)
(50.318109 2.3856175 0)
(50.353658 1.9162159 0)
(50.37018 1.4821238 5.245508e-19)
(50.381385 1.0578668 9.3247695e-19)
(50.391215 0.63280792 -3.1568688e-21)
(50.3957 0.21366326 -2.812247e-21)
(40.145285 8.0208353 0)
(40.306385 8.1224979 -1.0718111e-20)
(40.476402 8.2610145 1.0915252e-20)
(40.663712 8.4048555 -1.0939622e-20)
(40.878165 8.607287 -2.093779e-20)
(41.175117 8.7403272 2.0256133e-20)
(41.537114 8.8743065 -3.8773465e-20)
(41.968858 8.9727564 -3.6351942e-20)
(42.494369 8.8550893 0)
(43.04855 8.7816575 -2.4211887e-19)
(43.68022 8.6216886 4.9978342e-19)
(44.354406 8.5802977 -5.1476556e-20)
(45.032163 8.4757787 -9.2688654e-20)
(45.680809 8.2683605 1.6454715e-19)
(46.315043 8.0032576 -2.9199666e-19)
(46.924419 7.6610806 8.4695479e-24)
(47.516311 7.2349127 -1.1443988e-19)
(48.048449 6.7546738 4.0458164e-19)
(48.524019 6.2083888 0)
(48.948358 5.6397045 0)
(49.297555 5.054223 6.963562e-20)
(49.576954 4.4539134 -7.0594953e-24)
(49.799467 3.8813188 -2.7109454e-20)
(49.97911 3.3559146 -2.3953952e-20)
(50.108164 2.8461297 -3.3741712e-19)
(50.190525 2.3641782 0)
(50.247505 1.909979 0)
(50.281297 1.4785292 -4.5567004e-19)
(50.30481 1.0546577 -1.6331843e-18)
(50.323427 0.6303201 -7.2591541e-19)
(50.330008 0.21265372 0)
(40.912177 6.4505719 0)
(41.082744 6.5251397 1.1951174e-20)
(41.273237 6.6270159 -4.0972975e-19)
(41.485398 6.7325616 4.3456574e-23)
(41.704234 6.8542672 3.8128501e-19)
(41.938729 6.9778697 -2.0942208e-20)
(42.199909 7.0756992 3.8887662e-20)
(42.446827 7.1862561 3.5560799e-20)
(42.689437 7.5246633 0)
(43.07409 7.6682439 5.572162e-20)
(43.611072 7.6126155 -4.8535974e-20)
(44.178109 7.5184425 1.7652408e-19)
(44.782081 7.4022899 -3.2263289e-19)
(45.416405 7.3440628 1.4532806e-19)
(46.023235 7.2156007 0)
(46.589522 6.9746319 1.1435635e-19)
(47.152766 6.6856014 2.3212963e-23)
(47.694347 6.3217711 -1.7866602e-19)
(48.171052 5.8876624 2.3675867e-19)
(48.599181 5.3880806 6.965157e-20)
(48.97641 4.8613303 -3.0736881e-19)
(49.296243 4.3392614 -2.1693214e-19)
(49.570805 3.7980468 0)
(49.787178 3.305918 3.3751333e-19)
(49.941891 2.8079758 2.6045187e-19)
(50.049101 2.34702 3.2816129e-20)
(50.129327 1.8950403 0)
(50.182906 1.4676116 0)
(50.219791 1.0483605 -5.6661759e-21)
(50.247706 0.62681647 4.9642606e-21)
(50.255746 0.21138598 0)
(41.529588 5.5470309 -8.8640551e-19)
(41.6346 5.6251335 8.4010948e-19)
(41.757352 5.7143798 7.8472347e-19)
(41.90279 5.8075513 -7.2403033e-19)
(42.076261 5.9051415 -6.8165296e-19)
(42.285666 6.0083448 6.4523491e-19)
(42.545963 6.1158918 -6.0489983e-19)
(42.871223 6.2147807 5.1449853e-19)
(43.200617 6.3231551 -4.5874537e-19)
(43.512921 6.3423857 -5.1355772e-20)
(43.747111 6.6725648 4.0151626e-19)
(44.143353 6.7728905 3.5692127e-19)
(44.636943 6.5940161 -4.1580723e-19)
(45.18821 6.4114756 0)
(45.790036 6.3749513 2.2763156e-19)
(46.33222 6.2687714 -4.0433378e-19)
(46.85732 6.0496166 8.9369422e-20)
(47.384446 5.804712 0)
(47.863296 5.4865129 -2.089399e-19)
(48.280585 5.0844382 1.2797878e-23)
(48.659697 4.6386654 4.3388179e-19)
(49.005956 4.1603291 2.3918867e-19)
(49.324272 3.6878979 4.2193718e-20)
(49.582685 3.2330686 -3.72165e-19)
(49.763657 2.7642537 2.9538259e-19)
(49.895445 2.3072689 2.0260396e-19)
(49.99846 1.8705 1.2762653e-20)
(50.073863 1.4541215 3.7142356e-19)
(50.126056 1.0386564 6.4521411e-19)
(50.163338 0.62164831 5.5164282e-19)
(50.17279 0.20988895 0)
(42.27619 4.612829 -6.5110288e-21)
(42.375199 4.681166 -2.3986861e-20)
(42.488611 4.7599521 -7.2140822e-19)
(42.617118 4.8427772 1.33988e-18)
(42.760797 4.9306122 -1.2317668e-18)
(42.918842 5.0231377 5.7901996e-19)
(43.087681 5.1175889 0)
(43.265906 5.2109207 0)
(43.474297 5.2950489 -2.5659949e-20)
(43.74714 5.3945465 4.5859488e-20)
(44.090832 5.4217653 2.860101e-19)
(44.396579 5.3975133 -6.1747534e-19)
(44.66297 5.8371716 3.1270568e-19)
(45.094568 5.6883826 0)
(45.600604 5.5078108 0)
(46.130779 5.4934727 0)
(46.620101 5.4021866 -1.5770055e-19)
(47.122347 5.2190562 2.089172e-19)
(47.594151 5.0187951 0)
(48.004996 4.7204512 -1.0846258e-19)
(48.376956 4.348287 9.5698377e-20)
(48.726407 3.9573647 -3.3756339e-19)
(49.070168 3.5362731 1.4885209e-19)
(49.364289 3.1300412 -9.848971e-20)
(49.574697 2.6904447 -2.0256148e-19)
(49.731771 2.2625772 -2.0415203e-19)
(49.855704 1.8389165 3.3759916e-19)
(49.953292 1.42856 -2.9770717e-19)
(50.022832 1.0243025 0)
(50.069659 0.6145206 -4.9409642e-19)
(50.081218 0.20810988 0)
(42.857412 3.9021807 7.6089938e-19)
(42.921759 3.9598561 2.9376863e-24)
(42.99616 4.024866 1.0114869e-20)
(43.083052 4.0925508 0)
(43.18581 4.1645392 -1.7163302e-20)
(43.30879 4.2415457 4.995948e-19)
(43.458078 4.3237472 -4.5166522e-19)
(43.639204 4.4112466 0)
(43.84816 4.504622 2.2745957e-20)
(44.069394 4.5954907 3.4517575e-19)
(44.296839 4.6803472 3.6113885e-20)
(44.571955 4.8091905 -5.1370697e-19)
(44.910508 4.6465527 5.6963603e-20)
(45.130045 5.0567355 1.9627294e-19)
(45.518103 4.8995996 0)
(45.972475 4.7533997 0)
(46.423102 4.7308378 -6.9126247e-20)
(46.89078 4.6065583 9.8308845e-24)
(47.350037 4.4843684 1.0840651e-19)
(47.759912 4.2933803 -2.0514023e-23)
(48.133386 4.0356869 -2.5310991e-19)
(48.489312 3.7017509 7.4406625e-20)
(48.832404 3.3599824 6.5630118e-20)
(49.137675 2.9959343 2.8933004e-19)
(49.37301 2.5956553 -5.7993469e-24)
(49.559537 2.193403 -2.2503324e-20)
(49.703587 1.7886364 -6.3493909e-19)
(49.821327 1.398103 -1.749917e-20)
(49.908507 1.0037013 0)
(49.966123 0.60491992 0)
(49.981182 0.20572521 0)
(43.509054 3.1979655 1.3585731e-18)
(43.567775 3.2477105 1.251382e-18)
(43.635046 3.3039333 -1.1673267e-18)
(43.711646 3.3631182 1.0694336e-18)
(43.79825 3.4270702 -9.6362696e-19)
(43.895313 3.4967435 8.7539559e-19)
(44.002385 3.5716699 -8.0277819e-19)
(44.118799 3.6502804 0)
(44.248752 3.7304154 0)
(44.40485 3.8106628 5.5679686e-19)
(44.600043 3.8960724 -4.7919905e-19)
(44.819533 3.9481375 0)
(45.051383 4.1083086 -5.0254765e-20)
(45.354592 3.9736236 0)
(45.545943 4.349147 0)
(45.917602 4.1959008 -6.6320145e-20)
(46.300031 4.164303 2.9770986e-19)
(46.680764 4.022677 -4.2684237e-19)
(47.099691 3.9082003 -9.4879537e-20)
(47.517657 3.8083535 2.5240441e-19)
(47.913729 3.6595567 -2.654273e-23)
(48.288808 3.4401714 -6.5615604e-20)
(48.628989 3.1496071 0)
(48.916549 2.8258097 0)
(49.161402 2.4682824 0)
(49.377532 2.104759 0)
(49.542737 1.7288102 3.1483808e-19)
(49.67861 1.3518748 -1.542758e-20)
(49.782494 0.97509073 -1.3605576e-20)
(49.852015 0.59175207 -6.0002171e-21)
(49.872792 0.20247458 3.4401934e-19)
(44.041296 2.6260045 1.2123462e-18)
(44.079872 2.6673688 -1.1134506e-18)
(44.124427 2.7133516 8.0874055e-21)
(44.176219 2.7614223 9.6062441e-19)
(44.237011 2.8134015 -8.7018711e-19)
(44.309045 2.8702274 7.8869004e-19)
(44.3951 2.9319729 -1.421509e-18)
(44.498697 2.998729 -1.9885773e-20)
(44.621849 3.0706477 5.5207056e-19)
(44.762087 3.1473963 0)
(44.915107 3.2242263 -4.7959833e-19)
(45.091152 3.3094406 2.5069551e-20)
(45.295746 3.3542654 3.7697051e-19)
(45.5112 3.4735532 -3.1392087e-19)
(45.771286 3.4098792 2.4288128e-19)
(45.96258 3.6383686 2.4754571e-24)
(46.261753 3.7097833 2.1185637e-19)
(46.572975 3.5878958 -2.3087536e-19)
(46.9184 3.4353495 3.2778851e-19)
(47.298121 3.3160602 -7.3528072e-20)
(47.694847 3.2705719 6.5575642e-20)
(48.087206 3.1204354 1.7238153e-23)
(48.438563 2.92514 1.0202159e-19)
(48.708084 2.6285399 0)
(48.947843 2.3109878 -1.5864655e-19)
(49.184589 1.985294 1.3989311e-19)
(49.373124 1.6467909 3.0837764e-20)
(49.526043 1.292516 -2.7197652e-20)
(49.645248 0.93873735 1.1992831e-20)
(49.726922 0.57329751 3.2265701e-19)
(49.756025 0.19820696 -2.9390341e-19)
(44.604258 2.0850484 2.178745e-18)
(44.638662 2.1198529 -1.9814258e-18)
(44.678101 2.1583787 -1.4369698e-20)
(44.723104 2.198894 -6.606478e-21)
(44.774178 2.2430723 -6.0231839e-21)
(44.831742 2.2917534 1.4076657e-18)
(44.896182 2.3450496 -4.9109389e-23)
(44.967618 2.4025601 -1.1189336e-18)
(45.046908 2.4635617 2.970122e-24)
(45.137863 2.527204 0)
(45.246668 2.5934602 -2.4903893e-20)
(45.375265 2.6596675 -4.4178838e-20)
(45.529958 2.7314861 -1.9564356e-20)
(45.719003 2.7916737 2.7690327e-19)
(45.927632 2.8467349 -2.4479531e-19)
(46.137923 2.9459643 2.7030875e-20)
(46.358544 2.7896245 0)
(46.570894 3.1563708 -4.1319909e-20)
(46.856711 3.0639437 -7.2894714e-20)
(47.190902 2.9350973 -6.4534672e-20)
(47.531736 2.8914168 0)
(47.86048 2.7514496 -1.0173789e-19)
(48.219369 2.6207918 0)
(48.506606 2.3998522 0)
(48.742222 2.1287221 1.3983572e-19)
(48.983947 1.8335115 -2.466236e-19)
(49.195971 1.5422569 1.0874503e-19)
(49.36586 1.2202639 0)
(49.49838 0.88869571 -1.7972918e-19)
(49.591198 0.54933407 -2.8905951e-19)
(49.630485 0.19093192 0)
(45.068418 1.6592735 -1.9412849e-18)
(45.089624 1.687432 3.4404602e-21)
(45.114122 1.718295 1.2755863e-20)
(45.142577 1.7507445 1.4989937e-18)
(45.17594 1.7862764 -1.3599751e-18)
(45.215488 1.8257063 -2.0667577e-24)
(45.262809 1.8692564 0)
(45.319862 1.9170618 1.5317444e-24)
(45.388789 1.9693398 8.8901211e-19)
(45.470861 2.0262125 -7.79156e-19)
(45.565813 2.0871974 2.1974509e-20)
(45.67357 2.1512102 1.9486759e-20)
(45.793638 2.2164868 0)
(45.929152 2.2722107 0)
(46.093381 2.3420834 4.8567294e-19)
(46.277409 2.3244188 2.379739e-20)
(46.450484 2.5114953 -3.3668318e-19)
(46.695689 2.2979111 3.7136209e-19)
(46.893968 2.5170118 -2.262948e-19)
(47.170362 2.5359241 -5.7416801e-20)
(47.449034 2.4910237 0)
(47.711178 2.389268 -8.9715028e-20)
(47.984201 2.2354956 7.9104723e-20)
(48.297715 2.1053538 -8.0696352e-24)
(48.555519 1.9124871 -6.1644175e-20)
(48.790995 1.6559205 1.0869767e-19)
(49.014096 1.4072227 -9.5851346e-20)
(49.200996 1.1281363 -1.6907438e-19)
(49.344607 0.82943074 1.8624394e-20)
(49.445909 0.51664929 -2.4660403e-20)
(49.495955 0.18140256 7.2504062e-21)
(45.535735 1.2415823 -1.7183425e-18)
(45.556225 1.263664 -6.076453e-21)
(45.579743 1.2876356 1.4388773e-18)
(45.606645 1.3128717 0)
(45.637299 1.3406208 -1.2064182e-18)
(45.672 1.3715115 -8.504358e-21)
(45.710801 1.4057494 2.1572137e-23)
(45.753705 1.4433475 1.76512e-18)
(45.801004 1.4841494 -2.106984e-23)
(45.853727 1.5277707 -7.0936047e-19)
(45.913691 1.5737744 0)
(45.982934 1.6224779 0)
(46.065255 1.6722562 0)
(46.162491 1.7290436 0)
(46.277494 1.7753972 -2.3794752e-20)
(46.426592 1.860092 3.3622618e-19)
(46.602977 1.83675 -2.5974351e-19)
(46.750113 1.9876977 -2.9468582e-19)
(46.963412 1.9678845 1.9982104e-19)
(47.183296 1.9327298 -1.7569506e-24)
(47.421767 1.9739519 0)
(47.644999 1.9860607 1.5851694e-19)
(47.861823 1.893753 -1.3961623e-19)
(48.109323 1.7540815 6.1587336e-20)
(48.389955 1.655728 0)
(48.620514 1.4616745 -1.4374544e-19)
(48.839384 1.2501664 4.2254147e-20)
(49.033288 1.0167242 1.8629148e-19)
(49.185534 0.75478686 9.8576239e-20)
(49.293353 0.47513956 0)
(49.352839 0.1676262 -2.0453438e-19)
(45.884421 0.97901751 0)
(45.894687 0.99655391 2.6948507e-21)
(45.906642 1.0154288 0)
(45.920735 1.0353946 0)
(45.937741 1.0574535 -4.1613939e-21)
(45.959005 1.0817302 -1.9258597e-18)
(45.984617 1.1087355 1.7316757e-18)
(46.015328 1.1385046 6.0561835e-21)
(46.052256 1.1711666 1.0810559e-20)
(46.096507 1.2069805 -1.2217908e-18)
(46.148913 1.2464148 2.1874203e-18)
(46.209778 1.2905732 -9.6997971e-19)
(46.282539 1.3363997 0)
(46.364273 1.3812047 0)
(46.451511 1.4289602 0)
(46.549228 1.4568459 0)
(46.684159 1.5123359 -1.6358603e-20)
(46.860022 1.4760889 2.5980805e-19)
(46.984442 1.5419611 -2.548524e-20)
(47.152147 1.5798847 -1.5515638e-19)
(47.372314 1.4168344 1.5635597e-19)
(47.61167 1.5065301 -2.781051e-19)
(47.803937 1.5059697 2.4647738e-19)
(48.009052 1.4465027 -1.0867086e-19)
(48.249798 1.3662478 1.437147e-19)
(48.475022 1.2415842 8.4477293e-20)
(48.681267 1.0798881 0)
(48.866788 0.88835043 3.2847152e-20)
(49.023672 0.66799108 -2.1916179e-24)
(49.135919 0.42400519 -1.277709e-19)
(49.201467 0.15024856 1.8029983e-19)
(46.268869 0.69907792 -2.6995176e-18)
(46.281608 0.71261308 2.4360828e-18)
(46.295929 0.72717463 0)
(46.311748 0.74268781 0)
(46.328781 0.75988684 7.3441802e-21)
(46.346447 0.7794592 0)
(46.365877 0.80113594 0)
(46.388052 0.82506907 -1.3729901e-18)
(46.413818 0.85140638 1.2203859e-18)
(46.443956 0.88022002 -1.2134969e-24)
(46.479209 0.91119076 7.5350164e-21)
(46.519725 0.94218778 0)
(46.559027 0.97742437 0)
(46.603925 1.0147742 0)
(46.663046 1.0545823 0)
(46.736425 1.1045085 0)
(46.813675 1.1495058 -1.4422656e-20)
(46.919456 1.215545 -1.2727915e-20)
(47.066575 1.189607 -3.1436252e-19)
(47.161074 1.3248017 6.3381235e-19)
(47.323099 1.301359 -3.1069519e-19)
(47.510826 1.1762534 -3.030509e-20)
(47.724599 1.1542106 -1.0768569e-19)
(47.934105 1.1750468 9.5578678e-20)
(48.136125 1.1024433 -4.2235727e-20)
(48.340733 1.0253341 -7.4483008e-20)
(48.532052 0.89673647 5.7624805e-24)
(48.70708 0.7450245 5.7925675e-20)
(48.861213 0.56800991 2.5545137e-20)
(48.975329 0.36563052 1.1264201e-19)
(49.044012 0.12942553 7.9488563e-20)
(46.519975 0.53303033 -2.3847015e-18)
(46.525328 0.54258182 2.1486906e-18)
(46.531685 0.55272869 -1.9418963e-21)
(46.539279 0.5634976 1.8227548e-18)
(46.548463 0.57541205 -1.6611552e-18)
(46.559672 0.58875175 -1.5013105e-18)
(46.57327 0.60371087 1.1516721e-23)
(46.589605 0.62046826 2.4123081e-18)
(46.609077 0.63922062 -1.0762563e-18)
(46.632219 0.66012723 -3.7419675e-21)
(46.659838 0.6833254 -7.5178872e-25)
(46.693359 0.70972585 5.8909194e-21)
(46.736116 0.74011729 0)
(46.790499 0.77287404 9.2278027e-21)
(46.852032 0.80859588 -5.2192699e-19)
(46.917837 0.8423398 4.5377287e-19)
(46.984531 0.87730068 0)
(47.046386 0.90583314 -3.7030989e-19)
(47.138183 0.94412502 2.9700719e-19)
(47.257965 0.90153755 1.7464354e-20)
(47.335512 1.0169204 1.5384153e-20)
(47.475342 1.039204 2.6878516e-20)
(47.642135 0.9297965 0)
(47.825162 0.89132353 1.6808005e-19)
(48.019895 0.86745775 -1.859488e-19)
(48.206187 0.80007913 -3.28339e-20)
(48.384698 0.70973517 -5.7912228e-20)
(48.552202 0.59676411 0)
(48.699231 0.45694642 4.0743942e-24)
(48.814691 0.29527867 -7.9462759e-20)
(48.885454 0.10510625 6.337458e-24)
(46.781653 0.32543066 -4.2173458e-18)