/*--------------------------------*- C++ -*----------------------------------*\
| =========                 |                                                 |
| \\      /  F ield         | OpenFOAM: The Open Source CFD Toolbox           |
|  \\    /   O peration     | Version:  2406                                  |
|   \\  /    A nd           | Website:  www.openfoam.com                      |
|    \\/     M anipulation  |                                                 |
\*---------------------------------------------------------------------------*/
FoamFile
{
    version     2.0;
    format      ascii;
    arch        "LSB;label=32;scalar=64";
    class       volScalarField;
    location    "0.01";
    object      T;
}
// * * * * * * * * * * * * * * * * * * * * * * * * * * * * * * * * * * * * * //

dimensions      [0 0 0 1 0 0 0];

internalField   nonuniform List<scalar> 
2065
(
293.04986
292.99617
292.94699
292.90595
292.86974
293.30743
293.24952
293.18744
293.12794
293.07441
293.42081
293.3891
293.35009
293.3035
293.44969
293.43156
293.40876
293.45439
293.44157
293.42552
293.45332
293.44271
293.45106
293.44971
293.45038
293.49477
293.50375
293.51458
293.52941
293.52732
293.55554
293.55224
293.61374
293.60563
293.59434
293.67683
293.65991
293.63467
293.60485
293.63774
293.6071
293.56848
293.53151
293.49737
292.78176
292.58465
292.40644
292.24926
292.11862
292.01671
291.94131
291.88705
291.84818
292.75659
292.56056
292.39168
292.24591
292.12602
292.03292
291.96359
291.91337
291.87721
292.73164
292.54382
292.38422
292.24896
292.13829
292.05223
291.98812
291.94162
291.90805
292.70944
292.53204
292.37976
292.25315
292.15081
292.07141
292.01236
291.96951
291.93851
292.68759
292.52064
292.37598
292.25735
292.16284
292.09002
292.03596
292.6663
291.81652
291.78611
291.756
291.72308
291.6796
291.59821
291.84763
291.81907
291.79074
291.75963
291.71794
291.64049
291.8804
291.85349
291.82656
291.79668
291.75629
291.68267
291.91282
291.88769
291.86232
291.83386
291.79512
291.7252
292.32154
292.32999
292.34276
292.36435
292.41027
292.54833
292.19437
292.20041
292.20975
292.22571
292.25861
292.34991
292.0604
292.06408
292.07073
292.08355
292.11219
292.19586
291.92031
291.92059
291.9226
291.92827
291.94337
291.99589
291.77737
291.77425
291.77232
291.77371
291.78487
291.83417
291.63703
291.6311
291.62546
291.62066
291.61853
291.63448
291.50028
291.49051
291.48002
291.46881
291.45754
291.4624
291.37146
291.35724
291.34157
291.32458
291.30794
291.31217
291.2577
291.23956
291.21952
291.19771
291.17594
291.17442
291.16556
291.14439
291.12137
291.09654
291.07118
291.0592
291.099
291.0745
291.04798
291.01909
290.98803
290.96382
291.06259
291.03532
291.00648
290.97576
290.94246
290.90678
291.05578
291.0247
290.99102
290.95379
290.91121
290.85633
291.07366
291.04408
291.0119
290.97567
290.9321
290.86618
291.10869
291.07974
291.04886
291.01431
290.97006
290.89628
291.15962
291.12834
291.09548
291.05903
291.0136
290.9379
291.22798
291.19577
291.16207
291.12432
291.07661
290.99666
291.30615
291.27292
291.23866
291.20078
291.15259
291.06857
291.38981
291.35576
291.32085
291.28228
291.23292
291.14702
291.4748
291.44054
291.40584
291.36788
291.31927
291.23134
291.5574
291.52302
291.48817
291.44973
291.40011
291.31288
291.63621
291.6025
291.56887
291.53232
291.48497
291.39685
291.70732
291.67379
291.64013
291.60311
291.55504
291.4699
291.77926
291.74707
291.71511
291.68024
291.63454
291.54865
292.15022
292.16862
292.18897
292.21185
292.23453
292.25557
292.27489
292.29285
292.30978
292.01041
292.03702
292.06537
292.09259
292.1169
292.13769
292.15532
292.17085
292.18498
291.87465
291.90738
291.94042
291.97035
291.99525
292.01486
292.03021
292.0428
292.05374
291.73882
291.77641
291.8129
291.84476
291.86986
291.88802
291.90073
291.9099
291.91705
291.60626
291.64765
291.68664
291.71947
291.74396
291.76008
291.76962
291.77488
291.77781
291.48161
291.52536
291.56552
291.59814
291.62105
291.63445
291.64042
291.6417
291.64069
291.36996
291.41404
291.45354
291.48455
291.50487
291.5148
291.51665
291.51343
291.50791
291.27502
291.31767
291.35496
291.38299
291.39967
291.40538
291.40249
291.39424
291.38366
291.20522
291.24224
291.27486
291.29852
291.31055
291.31128
291.30319
291.28973
291.27419
291.14359
291.18229
291.21515
291.23575
291.24287
291.23809
291.22445
291.20583
291.18571
291.16757
291.19327
291.2066
291.21109
291.20664
291.193
291.17225
291.14787
291.12299
291.19346
291.20884
291.21898
291.2182
291.204
291.17932
291.15015
291.11962
291.09008
291.24548
291.2473
291.24278
291.22994
291.21065
291.18586
291.15452
291.12002
291.08676
291.33243
291.31754
291.29622
291.26921
291.23787
291.20345
291.16848
291.13477
291.1031
291.46401
291.42758
291.38553
291.34063
291.29458
291.24978
291.20838
291.17111
291.13817
291.62111
291.56191
291.49862
291.43508
291.37477
291.31965
291.27065
291.22804
291.19167
291.79412
291.71116
291.62546
291.54274
291.46777
291.40246
291.34679
291.30009
291.26143
291.97369
291.86718
291.75935
291.65779
291.56834
291.49304
291.43117
291.38107
291.34071
292.14621
292.01908
291.89187
291.77347
291.67102
291.58686
291.51963
291.46674
291.42517
292.30131
292.1577
292.01542
291.88362
291.77056
291.67917
291.60767
291.55268
291.51043
292.43653
292.27924
292.12551
291.98393
291.86302
291.76629
291.69178
291.63548
291.59302
292.54734
292.38272
292.22177
292.07345
291.94693
291.84639
291.77007
291.71331
291.67124
292.64133
292.46374
292.29801
292.14779
292.01942
291.91722
291.84009
291.78339
291.74191
292.77713
292.59272
292.40704
292.23911
292.09957
291.99116
291.91109
291.85365
291.81276
291.36566
291.60897
291.77883
291.90692
292.01123
292.10074
291.21704
291.45969
291.63197
291.76195
291.86739
291.95721
291.07431
291.31803
291.491
291.62054
291.72619
291.81681
290.94279
291.18537
291.35555
291.48315
291.58784
291.67815
290.82646
291.06472
291.22953
291.35414
291.45626
291.54447
290.73185
290.96033
291.11903
291.23834
291.33626
291.42038
290.65264
290.87669
291.02887
291.14114
291.23267
291.31099
290.6184
290.82677
290.96486
291.06701
291.15013
291.22057
290.61882
290.79995
290.93548
291.02926
291.10124
291.15985
290.68899
290.87467
290.94259
290.99953
291.05262
291.10116
290.74924
290.85841
290.93604
291.0138
291.07836
291.12949
290.74418
290.88434
291.0263
291.10038
291.14585
291.17475
290.9102
291.06363
291.15657
291.20014
291.22434
291.23869
291.09243
291.26534
291.31252
291.33095
291.3392
291.34026
291.49154
291.52208
291.52861
291.52208
291.50913
291.49148
291.84847
291.80863
291.78403
291.74852
291.70996
291.67046
292.19688
292.10253
292.0511
291.99048
291.92738
291.86558
292.5593
292.4617
292.35701
292.25074
292.15477
292.06796
292.81053
292.74441
292.6269
292.49632
292.37323
292.26159
293.21435
293.11804
292.9148
292.73302
292.57427
292.43573
293.35575
293.31383
293.14104
292.93763
292.75174
292.58798
293.52759
293.46542
293.25295
293.07008
292.8809
292.70688
293.47325
293.50293
293.40438
293.179
293.0038
292.82006
293.50295
293.47358
293.47308
293.36424
293.11002
292.92743
293.50784
293.50351
293.474
293.46239
293.38021
293.1405
293.49178
293.50177
293.49786
293.48851
293.45724
293.37238
293.49855
293.494
293.49377
293.4915
293.48413
293.44813
293.49475
293.48864
293.48596
293.48316
293.47835
293.46622
293.48762
293.48487
293.48143
293.47767
293.47273
293.46491
293.48254
293.47954
293.47616
293.47241
293.46781
293.46164
293.4777
293.47479
293.47178
293.46826
293.46392
293.45837
293.47521
293.47228
293.4694
293.46603
293.4618
293.45647
293.47511
293.47218
293.46944
293.46618
293.46205
293.45683
293.47813
293.4743
293.47147
293.46829
293.46433
293.45935
293.4829
293.47798
293.47499
293.472
293.46835
293.46379
293.48739
293.48258
293.47959
293.47682
293.47356
293.46957
293.48864
293.48726
293.48462
293.4821
293.4793
293.47599
293.49003
293.48889
293.48774
293.4864
293.48462
293.48232
293.48967
293.49062
293.49099
293.49079
293.49006
293.48882
293.4906
293.49367
293.49524
293.496
293.49623
293.496
293.4938
293.49818
293.50068
293.50233
293.50349
293.50423
293.49881
293.50407
293.50742
293.51003
293.51231
293.51431
293.50505
293.51123
293.51574
293.51977
293.52388
293.52814
293.51207
293.51925
293.52561
293.53234
293.54104
293.55329
293.51931
293.52755
293.53709
293.5489
293.56917
293.61069
293.52444
293.53712
293.55139
293.5761
293.61955
293.68139
293.53077
293.55043
293.59457
293.66013
293.71965
293.6598
293.52839
293.60318
293.70069
293.74564
291.07725
291.34821
291.54315
291.69365
291.28045
291.52136
291.69583
291.83013
291.94213
292.03888
291.48866
291.70057
291.85421
291.97241
292.0708
292.1559
291.69435
291.88095
292.01426
292.11633
292.20113
292.27452
291.89537
292.06064
292.17319
292.25873
292.32973
292.39135
292.08155
292.22987
292.32324
292.39312
292.45163
292.50274
292.27297
292.38254
292.45638
292.51349
292.56185
292.60487
292.43626
292.51824
292.5763
292.6225
292.66245
292.69799
292.5762
292.63753
292.68206
292.71899
292.75113
292.77995
292.69454
292.73529
292.76973
292.79917
292.82509
292.84863
292.78129
292.81277
292.83874
292.86167
292.88266
292.90233
292.83103
292.86593
292.88588
292.9041
292.92202
292.93958
292.84906
292.87567
292.89895
292.92009
292.93971
292.9583
292.81196
292.85306
292.88462
292.91165
292.93567
292.9577
292.75034
292.80924
292.85067
292.88419
292.91358
292.94023
292.66352
292.74518
292.79843
292.83991
292.87544
292.90757
292.55754
292.66029
292.72737
292.77889
292.82203
292.86025
292.436
292.56141
292.6422
292.70372
292.75502
292.80044
292.29184
292.44931
292.54522
292.61637
292.67595
292.72881
292.15442
292.32248
292.43218
292.51494
292.58426
292.64534
292.00184
292.18384
292.30846
292.40326
292.48251
292.55198
291.84579
292.04335
292.1804
292.28561
292.37397
292.45153
291.68016
291.89391
292.04567
292.16219
292.25997
292.34561
291.51471
291.7581
291.92073
292.04585
292.15083
292.24117
293.64512
293.74095
293.76696
290.69782
290.88165
291.18001
292.32934
292.42985
292.52934
292.62204
292.70693
292.78194
292.84599
292.89829
292.93863
292.96546
292.97828
292.97581
292.95669
292.9219
292.87263
292.81006
292.73556
292.65063
292.55716
292.45602
292.34952
292.24055
292.13135
292.42269
292.52422
292.61586
292.69894
292.77354
292.83839
292.89302
292.93692
292.96935
292.98981
292.99793
292.99276
292.97391
292.94214
292.89816
292.84284
292.77712
292.70201
292.61886
292.52857
292.43301
292.33408
292.23261
292.52172
292.61684
292.69872
292.77189
292.83643
292.89173
292.9372
292.97293
292.99822
293.01299
293.01699
293.00965
292.99112
292.96194
292.92258
292.87366
292.81584
292.74984
292.67635
292.59634
292.51113
292.42215
292.33003
292.6217
292.70648
292.77806
292.84107
292.89566
292.94156
292.97859
293.00642
293.0251
293.0347
293.03507
293.02596
293.00779
292.98089
292.94564
292.90244
292.85174
292.79401
292.72966
292.65959
292.58427
292.50505
292.42239
292.71915
292.79202
292.85294
292.90567
292.95058
292.98746
293.01616
293.03678
293.04952
293.05452
293.05168
293.04121
293.02342
292.99857
292.96696
292.92887
292.88459
292.83442
292.77864
292.71756
292.65179
292.58215
292.50895
292.8116
292.87198
292.92214
292.96494
293.00051
293.02867
293.04962
293.06367
293.07109
293.07197
293.06648
293.05492
293.03753
293.01453
292.98616
292.95259
292.91401
292.87059
292.8225
292.76989
292.71305
292.65254
292.58864
292.89678
292.94492
292.98481
293.01802
293.0445
293.06452
293.07845
293.08663
293.0893
293.08666
293.07901
293.06661
293.04966
293.02836
293.00286
292.97329
292.93976
292.90235
292.86115
292.81622
292.76766
292.71571
292.66059
292.97293
293.0099
293.0399
293.06375
293.08181
293.09448
293.10218
293.10517
293.10375
293.09823
293.08887
293.07588
293.05945
293.0397
293.01677
292.99072
292.96162
292.9295
292.8944
292.85631
292.81524
292.77127
292.7244
293.03904
293.06565
293.08612
293.10134
293.11185
293.11806
293.1203
293.11891
293.11419
293.10641
293.09578
293.08248
293.06663
293.04834
293.02769
293.00473
292.97949
292.95197
292.92217
292.89007
292.85565
292.81884
292.77945
293.09411
293.11059
293.12232
293.12999
293.13401
293.13477
293.13259
293.12777
293.12055
293.11114
293.09969
293.08633
293.07116
293.05425
293.03565
293.01539
292.99347
292.96989
292.94462
292.91765
292.88893
292.85838
292.82573
293.13583
293.14352
293.14789
293.14937
293.14827
293.14486
293.1394
293.1321
293.12314
293.11268
293.10083
293.08767
293.07328
293.05769
293.04093
293.02302
293.00395
292.98371
292.96227
292.93961
292.91568
292.89043
292.86364
293.16323
293.16464
293.1637
293.16067
293.15583
293.14944
293.14168
293.13272
293.1227
293.1117
293.09981
293.08707
293.07353
293.0592
293.04411
293.02825
293.01161
292.99418
292.97594
292.95685
292.9369
292.91602
292.89405
293.17979
293.17646
293.17156
293.1653
293.15791
293.14959
293.14045
293.1306
293.12011
293.10904
293.09743
293.0853
293.07268
293.05956
293.04596
293.03188
293.01729
293.0022
292.98659
292.97043
292.9537
292.93637
293.1872
293.18061
293.17314
293.16494
293.15616
293.14687
293.13715
293.12705
293.11659
293.1058
293.09471
293.08332
293.07164
293.05967
293.04741
293.03485
293.02199
293.00882
292.99533
292.9815
292.96733
292.9528
293.18779
293.17951
293.17082
293.16178
293.15248
293.14294
293.1332
293.12327
293.11317
293.10292
293.0925
293.08193
293.0712
293.06031
293.04926
293.03804
293.02663
293.01505
293.00328
292.99132
292.97916
292.96679
293.18354
293.17471
293.16574
293.15666
293.14749
293.13825
293.12894
293.11956
293.11013
293.10063
293.09105
293.0814
293.07167
293.06185
293.05194
293.04193
293.03182
293.02161
293.01129
293.00086
292.99033
292.97969
293.17563
293.1671
293.15857
293.15005
293.14152
293.133
293.12448
293.11595
293.10741
293.09885
293.09026
293.08163
293.07295
293.06422
293.05543
293.04658
293.03766
293.02868
293.01963
293.01052
293.00135
292.99213
293.16535
293.15759
293.14989
293.14226
293.13468
293.12714
293.11964
293.11215
293.10468
293.09721
293.08972
293.08221
293.07467
293.06708
293.05945
293.05176
293.04402
293.03622
293.02837
293.02046
293.01251
293.00453
293.15232
293.14568
293.13914
293.1327
293.12633
293.12002
293.11375
293.10751
293.10129
293.09506
293.08882
293.08255
293.07624
293.06989
293.06348
293.05701
293.05048
293.04389
293.03724
293.03053
293.02378
293.01699
293.13589
293.13077
293.12574
293.12079
293.1159
293.11106
293.10624
293.10143
293.09661
293.09177
293.08689
293.08197
293.07698
293.07193
293.06681
293.06161
293.05633
293.05096
293.04553
293.04002
293.03444
293.02882
293.11661
293.11328
293.11002
293.10679
293.10358
293.10038
293.09716
293.0939
293.0906
293.08724
293.08381
293.0803
293.0767
293.07301
293.06922
293.06532
293.06133
293.05723
293.05303
293.04874
293.04436
293.03991
293.0913
293.09062
293.08982
293.0889
293.08785
293.08668
293.08537
293.08392
293.08233
293.08061
293.07874
293.07674
293.0746
293.07232
293.06991
293.06736
293.06469
293.0619
293.05898
293.05595
293.0528
293.04955
293.05552
293.05814
293.06049
293.06255
293.06434
293.06586
293.06711
293.06809
293.06881
293.06927
293.06948
293.06945
293.06919
293.0687
293.068
293.06707
293.06594
293.06464
293.06317
293.06153
293.05974
293.05782
293.03816
293.0406
293.04286
293.04495
293.04689
293.04869
293.05037
293.05194
293.05341
293.05477
293.05601
293.05713
293.05813
293.05899
293.05971
293.06029
293.06071
293.06096
293.06104
293.06097
293.06072
293.06029
293.05945
293.05966
293.05992
293.06023
293.0606
293.06099
293.06142
293.06186
293.0623
293.06273
293.06314
293.06351
293.06385
293.06414
293.06438
293.06457
293.0647
293.06478
293.06481
293.06477
293.06469
293.06455
293.07484
293.07496
293.07508
293.07519
293.07527
293.07534
293.07538
293.07539
293.07538
293.07534
293.07529
293.07521
293.07512
293.07501
293.07489
293.07475
293.0746
293.07444
293.07429
293.07413
293.07398
293.07383
293.07294
293.07273
293.07256
293.07244
293.07237
293.07232
293.07231
293.07232
293.07236
293.07241
293.07248
293.07256
293.07264
293.07273
293.07283
293.07292
293.073
293.07308
293.07314
293.07318
293.07321
293.07322
293.06191
293.06149
293.06112
293.06077
293.06045
293.06016
293.05989
293.05965
293.05943
293.05924
293.05908
293.05895
293.05885
293.05877
293.05872
293.0587
293.0587
293.05873
293.05878
293.05885
293.05895
293.05907
293.03072
293.03068
293.03067
293.03069
293.03073
293.03081
293.03091
293.03104
293.0312
293.03138
293.0316
293.03183
293.03209
293.03237
293.03268
293.03299
293.03333
293.03367
293.03403
293.03439
293.03476
293.03513
293.02758
293.0277
293.02782
293.02794
293.02806
293.02817
293.02829
293.0284
293.02852
293.02863
293.02875
293.02886
293.02898
293.02909
293.02921
293.02933
293.02945
293.02958
293.0297
293.02983
293.02996
293.0301
293.0365
293.03633
293.03615
293.03596
293.03575
293.03552
293.03528
293.03502
293.03474
293.03444
293.03414
293.03381
293.03348
293.03313
293.03278
293.03242
293.03206
293.0317
293.03134
293.03099
293.03066
293.03035
292.41251
292.39409
292.37547
292.35682
292.33845
292.32039
292.30489
292.29656
292.29452
292.49045
292.47247
292.45482
292.43816
292.42297
292.40921
292.39805
292.39244
292.39275
292.57267
292.55477
292.53798
292.52328
292.51086
292.50079
292.49351
292.49057
292.49206
292.65829
292.64053
292.62445
292.61119
292.60101
292.59389
292.58987
292.5895
292.59223
292.7466
292.72881
292.71316
292.70085
292.6923
292.68738
292.68574
292.6872
292.69088
292.8363
292.81825
292.80269
292.79085
292.78324
292.77965
292.77941
292.78179
292.7858
292.92555
292.90701
292.89114
292.87922
292.87181
292.86861
292.86875
292.87112
292.87466
293.01177
292.99262
292.97612
292.96354
292.95553
292.95176
292.95123
292.95265
292.955
293.09188
293.07189
293.05444
293.04079
293.03146
293.02611
293.02383
293.02373
293.02496
293.16282
293.14204
293.12324
293.10807
293.09702
293.08993
293.08622
293.08493
293.08489
293.22228
293.20244
293.18354
293.16727
293.15456
293.14556
293.13949
293.13522
293.13219
293.2676
293.24875
293.2294
293.21105
293.19547
293.18328
293.1743
293.16797
293.16354
293.29209
293.27375
293.25514
293.23742
293.22157
293.20823
293.1976
293.18949
293.1835
293.30759
293.29003
293.27172
293.25371
293.23704
293.22247
293.21038
293.20076
293.1934
293.3055
293.28977
293.2731
293.25629
293.24024
293.22575
293.21332
293.20318
293.19525
293.29263
293.27902
293.26434
293.24926
293.23454
293.22094
293.20905
293.19917
293.19134
293.27001
293.25917
293.24711
293.23439
293.22171
293.20977
293.19915
293.1902
293.18304
293.24316
293.23503
293.22561
293.21538
293.20493
293.19491
293.18587
293.17819
293.17199
293.20546
293.20212
293.19685
293.19025
293.18295
293.1756
293.16874
293.16277
293.15787
293.15165
293.15784
293.15944
293.1581
293.15503
293.15113
293.14704
293.14324
293.14
293.06716
293.09111
293.10741
293.11649
293.12061
293.12176
293.12134
293.12025
293.11899
292.99441
293.01346
293.03508
293.055
293.06992
293.07965
293.08557
293.08903
293.09097
292.99214
292.99436
292.99984
293.00966
293.02196
293.03302
293.04155
293.0478
293.05227
293.03498
293.03287
293.03031
293.02785
293.02648
293.02792
293.03075
293.03351
293.03579
293.06262
293.06333
293.06368
293.06359
293.06298
293.06196
293.06091
293.0601
293.05954
293.07386
293.07379
293.07387
293.07404
293.07422
293.07439
293.07453
293.07466
293.07475
293.07773
293.07694
293.07605
293.07522
293.07453
293.074
293.07362
293.07334
293.07315
293.06234
293.06255
293.06272
293.0628
293.06278
293.06267
293.06251
293.06237
293.06226
293.03065
293.03057
293.03052
293.03052
293.03056
293.03061
293.03067
293.03072
293.03076
293.02659
293.02668
293.02679
293.02692
293.02706
293.02719
293.02731
293.02741
293.02749
293.03744
293.03737
293.03728
293.03718
293.03708
293.03697
293.03685
293.03674
293.03664
292.42613
292.50438
292.58732
292.67357
292.76268
292.85334
292.94371
293.03103
293.11226
293.18362
293.24156
293.28559
293.31001
293.32462
293.32078
293.3057
293.28013
293.25037
293.2066
293.13847
293.03633
292.98012
292.99564
293.03596
293.06183
293.0741
293.07839
293.06211
293.03075
293.02653
293.03751
292.43762
292.51688
292.60115
292.68867
292.7793
292.87164
292.96382
293.05278
293.13525
293.2064
293.2621
293.30457
293.32926
293.34286
293.33725
293.31957
293.29038
293.2569
293.20317
293.11039
293.00276
292.97478
292.99912
293.03602
293.06118
293.07456
293.07895
293.06202
293.03096
293.02649
293.0376
292.45435
292.53509
292.62124
292.71037
292.80303
292.89753
292.99196
293.08258
293.1653
293.23427
293.28635
293.32664
293.35147
293.36368
293.35593
293.33463
293.30008
293.26034
293.18457
293.05687
292.98288
292.97466
293.00126
293.03582
293.06099
293.07518
293.07941
293.0621
293.03127
293.0265
293.0377
292.48091
292.56398
292.65281
292.74416
292.8397
292.93704
293.03411
293.12598
293.20605
293.26951
293.31588
293.35424
293.37787
293.38835
293.37768
293.35022
293.30439
293.24645
293.11827
293.00685
292.98017
292.97627
293.00208
293.03563
293.06147
293.07581
293.07973
293.06247
293.03168
293.02659
293.03786
292.53265
292.62012
292.71308
292.80842
292.90825
293.0088
293.10663
293.19645
293.26618
293.31892
293.35649
293.39118
293.40809
293.41621
293.39816
293.3523
293.26062
293.1428
293.05523
293.00295
292.97657
292.97735
292.99974
293.03389
293.06179
293.07604
293.07924
293.06294
293.03178
293.02699
293.03788
292.67894
292.77536
292.88051
292.98575
293.08905
293.18361
293.26072
293.32055
293.36454
293.39811
293.41551
293.42669
293.4193
293.38235
293.31883
293.23829
293.16348
293.10509
293.05565
292.9887
292.96916
292.96418
292.98952
293.02272
293.05199
293.07086
293.0732
293.05958
293.0296
293.02758
293.03971
)
;

boundaryField
{
    Side1
    {
        type            empty;
    }
    Inlet
    {
        type            totalTemperature;
        gamma           1.4;
        T0              uniform 294.31799;
        value           uniform 293.00245;
    }
    Side2
    {
        type            empty;
    }
    Outlet
    {
        type            zeroGradient;
    }
    Botwall
    {
        type            zeroGradient;
    }
    Cyli
    {
        type            zeroGradient;
    }
    procBoundary0to1
    {
        type            processor;
        value           nonuniform List<scalar> 
44
(
292.83648
292.83648
293.02775
293.25405
293.25405
293.38066
293.38066
293.40592
293.42971
293.42971
293.44165
293.44165
293.44107
293.44229
293.45326
293.45326
293.45818
293.46463
293.47186
293.47922
293.48674
293.48674
293.49208
293.50156
293.51264
293.51264
293.52428
291.99677
291.96832
292.50997
292.3734
292.26237
292.17507
292.10847
291.99677
292.05922
292.50997
292.6465
291.94463
291.92135
291.89772
291.87102
291.83442
291.76812
)
;
    }
    procBoundary0to2
    {
        type            processor;
        value           nonuniform List<scalar> 
55
(
293.50017
293.46676
293.43634
293.41083
293.38682
293.66631
293.55136
293.76366
293.66631
293.65951
291.39151
291.8199
291.55252
291.8199
291.92829
293.76366
293.79051
293.79051
293.63998
290.53484
291.02066
291.02066
291.39151
292.02752
292.12741
292.23085
292.33216
292.42868
292.51867
292.6006
292.67355
292.73694
292.79048
292.83494
292.87073
292.91832
292.91832
292.93783
292.95416
292.96892
292.98284
292.9965
293.01016
293.02314
293.03539
293.04621
293.05576
293.05968
293.06435
293.0737
293.07322
293.05922
293.03551
293.03025
293.03005
)
;
    }
    procBoundary0to3
    {
        type            processor;
        value           nonuniform List<scalar> 7(293.54737 293.54737 293.58073 293.58073 293.5733 293.5733 293.46609);
    }
}


// ************************************************************************* //
