/*--------------------------------*- C++ -*----------------------------------*\
| =========                 |                                                 |
| \\      /  F ield         | OpenFOAM: The Open Source CFD Toolbox           |
|  \\    /   O peration     | Version:  2406                                  |
|   \\  /    A nd           | Website:  www.openfoam.com                      |
|    \\/     M anipulation  |                                                 |
\*---------------------------------------------------------------------------*/
FoamFile
{
    version     2.0;
    format      ascii;
    arch        "LSB;label=32;scalar=64";
    class       volScalarField;
    location    "0.005";
    object      alphat;
}
// * * * * * * * * * * * * * * * * * * * * * * * * * * * * * * * * * * * * * //

dimensions      [1 -1 -1 0 0 0 0];

internalField   nonuniform List<scalar> 
23203
(
0.023274756
0.024287472
0.025200852
0.025977445
0.026604654
0.027073764
0.027377919
0.027512166
0.027473957
0.027263301
0.026881825
0.026330842
0.025609917
0.024717966
0.023661992
0.022456922
0.021103417
0.019596675
0.017959799
0.024851677
0.025603625
0.026248111
0.026768719
0.027153782
0.027393173
0.027479465
0.02740808
0.027176878
0.026785882
0.026236593
0.025530965
0.024671235
0.023643952
0.022464562
0.021158047
0.019709947
0.018124461
0.016428108
0.026179355
0.026680731
0.027068392
0.027334711
0.027472274
0.027473331
0.027332214
0.027045824
0.026613124
0.0260346
0.02531153
0.02444559
0.023440874
0.022278535
0.020978436
0.019569591
0.018030481
0.016374453
0.014632937
0.027158617
0.027406622
0.027540948
0.027556789
0.027449752
0.027214989
0.026849279
0.026351478
0.025721952
0.02496185
0.024072288
0.023054565
0.021913103
0.020629274
0.019224999
0.01772802
0.016119536
0.014422964
0.012675283
0.027706249
0.027704492
0.027591544
0.027365229
0.02702355
0.02656425
0.025986457
0.025290939
0.024479424
0.023553746
0.022514957
0.021364028
0.02010296
0.018717199
0.017235745
0.01567977
0.014037852
0.012346618
0.010650667
0.027742592
0.027500623
0.027152226
0.026698316
0.026139159
0.025474753
0.024706194
0.023835773
0.022866238
0.02179999
0.020638409
0.019383378
0.018026284
0.016568323
0.015051265
0.01347776
0.011855442
0.010234015
0.0086664015
0.027196879
0.026731458
0.026167191
0.025508336
0.024757328
0.02391605
0.022987013
0.021973393
0.020878396
0.019704823
0.018455154
0.017134174
0.015718626
0.014233899
0.012732213
0.01119785
0.0096686617
0.0082002502
0.0068505886
0.026011905
0.025349059
0.024598279
0.0237672
0.022860138
0.021880294
0.020830846
0.019715098
0.018536145
0.017297127
0.016002562
0.014662526
0.013248224
0.011798289
0.010370084
0.0089550052
0.0076109035
0.0063872448
0.0053384445
0.024152095
0.023329815
0.02243415
0.021475828
0.020460432
0.019391639
0.018272455
0.017105723
0.015894328
0.014642281
0.013357334
0.01205719
0.010716314
0.009382071
0.0081110857
0.0069102065
0.0058421496
0.0049360775
0.0042294862
0.021617352
0.020688902
0.019704975
0.018678634
0.017615743
0.016519485
0.01539211
0.014236099
0.013055031
0.01185527
0.010649091
0.0094615951
0.008282968
0.0071613357
0.0061392028
0.0052393718
0.0045019809
0.003931377
0.0035354696
0.018465321
0.01750253
0.016503963
0.015483755
0.014446979
0.013395778
0.012332011
0.01125918
0.010183719
0.0091165472
0.0080750267
0.0070848517
0.0061625471
0.0053397084
0.004630969
0.0040622321
0.0036426477
0.0033558897
0.0031779365
0.014845272
0.013939381
0.013015543
0.012087727
0.011159947
0.010234141
0.0093136226
0.0084051976
0.0075199633
0.0066735403
0.0058855271
0.0051773324
0.0045650778
0.004059911
0.0036668074
0.0033844966
0.0031976822
0.0030875245
0.0030330953
0.011042816
0.010296691
0.0095431871
0.0087961599
0.008060199
0.0073394276
0.0066406559
0.0059743079
0.0053536074
0.0047929156
0.004305459
0.0039006482
0.0035814766
0.0033440337
0.0031798416
0.0030772466
0.0030235363
0.0030053012
0.0030100697
0.0075170813
0.0070166799
0.0065095035
0.0060105199
0.0055271196
0.0050665657
0.0046375529
0.0042495136
0.0039109856
0.0036280275
0.0034030998
0.0032346288
0.0031173688
0.0030435675
0.0030044383
0.0029914875
0.0029974922
0.0030164148
0.0030423059
0.004841543
0.004601041
0.0043508064
0.0041048354
0.0038715429
0.0036578905
0.003469905
0.0033119914
0.003186347
0.0030928305
0.0030292261
0.0029917626
0.0029757663
0.0029763204
0.0029889074
0.0030099264
0.0030367254
0.0030672422
0.0030982738
0.0033672249
0.0033025311
0.0032306681
0.00315927
0.0030938103
0.0030381434
0.0029948239
0.0029650273
0.0029486272
0.0029444708
0.0029507475
0.0029653597
0.0029862373
0.0030115641
0.0030398926
0.0030701777
0.0031017611
0.0031340955
0.0031649198
0.0028599641
0.0028648985
0.0028690097
0.0028733909
0.0028800783
0.0028902624
0.0029044173
0.002922505
0.0029441244
0.0029686656
0.0029954682
0.0030239299
0.0030535482
0.0030839253
0.0031147816
0.0031459824
0.0031775267
0.0032092814
0.003238932
0.0028155606
0.0028349173
0.0028578503
0.0028823651
0.0029083531
0.0029355543
0.0029635978
0.0029921985
0.0030211907
0.003050481
0.0030800104
0.0031097332
0.0031396096
0.003169621
0.0031997978
0.0032302426
0.0032610968
0.0032922063
0.0033208709
0.0029173702
0.0029349154
0.0029573174
0.0029823019
0.0030089605
0.0030365358
0.0030644994
0.0030925868
0.0031207303
0.0031489535
0.0031773017
0.0032058193
0.0032345553
0.0032635772
0.0032929829
0.0033229009
0.003353439
0.0033842933
0.0034122946
0.0030478403
0.0030618979
0.0030802382
0.0031016671
0.0031253576
0.0031503941
0.0031761514
0.0032023178
0.0032287961
0.0032555956
0.0032827588
0.0033103308
0.0033383573
0.0033668954
0.0033960267
0.0034258584
0.0034564501
0.0034873391
0.0035148602
0.0031810809
0.0031927005
0.0032078994
0.0032263679
0.0032476032
0.0032706756
0.003294886
0.0033198661
0.0033454675
0.0033716418
0.003398371
0.0034256479
0.0034534846
0.0034819299
0.0035110769
0.003541042
0.0035718477
0.0036028518
0.0036298626
0.0033184043
0.0033286802
0.0033421323
0.0033588035
0.0033786048
0.0034007124
0.003424349
0.0034490279
0.0034744906
0.003500596
0.0035272623
0.0035544564
0.0035822032
0.0036105889
0.0036397468
0.0036698099
0.0037007536
0.0037317368
0.0037580333
0.0034678662
0.0034778914
0.0034908284
0.0035063699
0.0035250513
0.003546396
0.0035695949
0.0035940033
0.0036192287
0.0036450571
0.0036713874
0.0036982076
0.0037255877
0.0037536669
0.0037826221
0.0038125995
0.0038435183
0.0038743199
0.0038997354
0.0036406775
0.0036483759
0.0036604071
0.0036746103
0.0036915118
0.0037111289
0.0037328562
0.0037560225
0.0037801467
0.0038049587
0.0038303503
0.0038563343
0.0038830207
0.0039105884
0.0039392403
0.0039691141
0.0040000428
0.0040307144
0.0040552991
0.003820475
0.0038273613
0.0038382759
0.0038524105
0.0038690602
0.003887692
0.0039080178
0.003929754
0.0039526016
0.0039763393
0.0040008688
0.0040262162
0.0040525088
0.0040799387
0.0041087045
0.0041389023
0.0041702416
0.0042011191
0.0042251459
0.0039879448
0.0040010196
0.0040136217
0.0040267681
0.0040438658
0.0040635782
0.0040847474
0.0041069925
0.0041302303
0.004154405
0.0041794737
0.0042054745
0.0042325421
0.004260872
0.0042906498
0.0043219175
0.0043542432
0.0043857218
0.0044094603
0.0041816618
0.0041879187
0.0042012671
0.0042148609
0.0042281997
0.0042459457
0.0042672045
0.0042904936
0.004315123
0.0043408781
0.0043676441
0.004395396
0.0044242176
0.0044542661
0.004485689
0.0045184577
0.0045519854
0.004584075
0.0046074454
0.0044169624
0.0044125337
0.0044168063
0.0044298213
0.0044431018
0.0044559663
0.0044732269
0.0044944884
0.0045185024
0.0045444473
0.0045718653
0.0046005689
0.0046305202
0.0046617545
0.0046943047
0.0047280075
0.0047620764
0.0047940269
0.0048163498
0.0046613732
0.0046614767
0.0046638991
0.0046691749
0.0046829939
0.0046961732
0.0047086719
0.0047250713
0.0047456543
0.0047693357
0.0047950928
0.004822537
0.0048515734
0.004882139
0.0049141223
0.004947165
0.0049802239
0.005010539
0.005030579
0.0049167635
0.0049126215
0.0049187361
0.0049228326
0.004929853
0.0049449244
0.0049585124
0.0049709553
0.0049869237
0.0050069109
0.0050295365
0.0050540338
0.005080259
0.0051081769
0.00513763
0.0051680824
0.005198225
0.0052250853
0.0052413888
0.005167508
0.0051630435
0.005162964
0.0051696853
0.0051748958
0.0051833901
0.0051995138
0.0052130706
0.0052255616
0.0052413195
0.0052601532
0.0052809842
0.0053033851
0.0053273594
0.0053528128
0.0053790801
0.005404621
0.0054263773
0.0054376812
0.0054030631
0.0053974517
0.0053964784
0.0053959781
0.0054024588
0.0054081304
0.0054165361
0.005433078
0.0054454586
0.0054574966
0.0054719188
0.0054884101
0.0055063086
0.0055255861
0.0055461534
0.0055671669
0.0055868902
0.0056023483
0.0056078545
0.0056086591
0.0056017983
0.0055996182
0.0055978703
0.0055966286
0.0056026604
0.0056073631
0.0056152345
0.0056312096
0.0056414221
0.0056516138
0.0056631888
0.0056759467
0.005690127
0.0057054213
0.0057206324
0.0057338824
0.0057424707
0.0057420145
0.0057704098
0.0057627285
0.0057594019
0.0057564461
0.0057537124
0.005751351
0.0057565692
0.0057589556
0.0057662612
0.0057800394
0.0057877386
0.005795137
0.0058025179
0.0058115382
0.0058215391
0.0058308799
0.0058377046
0.0058396927
0.0058338694
0.0058779946
0.0058703015
0.0058664042
0.0058626208
0.0058588812
0.0058552462
0.0058517588
0.0058554223
0.0058553883
0.0058612542
0.0058716567
0.0058788573
0.0058814214
0.0058852836
0.0058900409
0.0058938704
0.0058952344
0.0058919465
0.0058820021
0.0059277429
0.0059208927
0.0059172548
0.0059134052
0.0059093647
0.0059053144
0.0059011629
0.0058965623
0.0058979638
0.0058958787
0.0059001422
0.0059073022
0.0059121087
0.0059123109
0.0059125924
0.0059119451
0.0059097471
0.0059033126
0.0058901821
0.0059230788
0.0059178735
0.0059154065
0.0059125134
0.0059092148
0.0059057921
0.005902358
0.0058986489
0.0058938964
0.0058952409
0.0058943065
0.0058982314
0.0058970479
0.00590061
0.0058998378
0.0058963818
0.0058920969
0.0058840021
0.0058726349
0.0058695531
0.0058688636
0.0058676738
0.0058660149
0.0058641705
0.0058623438
0.0058605688
0.0058588139
0.005857455
0.0058624869
0.0058622734
0.0058663587
0.0058662114
0.0058618718
0.0058597324
0.0058536847
0.0058446519
0.0057878766
0.0057869734
0.0057881812
0.0057888481
0.0057890033
0.005788895
0.0057886593
0.0057882216
0.0057872896
0.005786212
0.0057883515
0.005787805
0.0058024638
0.0058052327
0.0058011511
0.0057964195
0.0057893065
0.005780603
0.0056807598
0.0056818064
0.0056847302
0.0056870865
0.0056888973
0.0056903723
0.0056916033
0.0056924293
0.0056921018
0.0056890429
0.0056846039
0.0056856422
0.0056825297
0.0056894174
0.0056990872
0.00569522
0.0056887135
0.0056818286
0.0055618267
0.0055644724
0.0055688202
0.0055726291
0.0055759482
0.0055790114
0.0055819826
0.0055848913
0.0055873528
0.0055877966
0.0055833501
0.0055821715
0.0055760578
0.0055746038
0.0055760103
0.005581026
0.0055802014
0.0055715057
0.0054390283
0.0054428195
0.0054481352
0.0054529123
0.0054572076
0.005461245
0.0054652058
0.0054692239
0.0054733158
0.0054770654
0.0054793069
0.0054784638
0.0054793806
0.00547978
0.0054775868
0.0054759599
0.0054809088
0.0054770724
0.0053178723
0.0053224057
0.0053282791
0.0053335757
0.0053383332
0.0053427144
0.0053468215
0.0053507027
0.0053543611
0.0053577139
0.0053605707
0.0053629584
0.0053655513
0.0053669466
0.0053742117
0.005375949
0.0053742858
0.0053820736
0.0052018262
0.0052068733
0.005213115
0.0052187799
0.005223909
0.0052286385
0.005233041
0.0052371364
0.0052409136
0.0052443329
0.0052473449
0.0052499626
0.0052523723
0.0052554474
0.0052553998
0.0052621684
0.0052622113
0.005264471
0.0050925888
0.0050980123
0.0051045173
0.0051104746
0.0051159411
0.0051210458
0.0051258578
0.0051304018
0.0051346798
0.0051386699
0.005142316
0.0051455095
0.0051480967
0.0051499304
0.0051509566
0.0051490183
0.0051536611
0.0051508233
0.0049907714
0.0049964875
0.0050031938
0.0050093929
0.0050151581
0.0050206138
0.0050258253
0.0050308191
0.005035605
0.005040175
0.0050444978
0.0050485128
0.0050521325
0.0050552537
0.0050576301
0.0050589336
0.0050576985
0.0050610267
0.0048963981
0.0049023675
0.0049092556
0.0049156894
0.0049217612
0.0049275955
0.0049332595
0.0049387878
0.004944203
0.0049495176
0.0049547318
0.0049598346
0.0049648107
0.0049696524
0.0049743849
0.0049789692
0.0049831567
0.0049850285
0.0048091474
0.0048153379
0.0048223871
0.0048290377
0.0048353995
0.0048415975
0.0048477007
0.0048537498
0.0048597767
0.0048658055
0.0048718514
0.0048779217
0.0048840201
0.0048901545
0.0048963468
0.0049026485
0.0049090356
0.0049150833
0.0047285757
0.0047349547
0.0047421382
0.0047489756
0.0047555911
0.0047621082
0.0047685955
0.0047750951
0.0047816416
0.0047882617
0.0047949721
0.004801779
0.004808679
0.0048156593
0.0048226968
0.0048297442
0.0048366742
0.0048430416
0.0046542203
0.0046607559
0.0046680456
0.0046750375
0.0046818668
0.0046886551
0.0046954681
0.0047023476
0.0047093274
0.0047164328
0.004723678
0.0047310651
0.0047385841
0.0047462125
0.0047539122
0.0047616178
0.0047691846
0.0047761941
0.0045856314
0.0045922918
0.0045996586
0.0046067709
0.004613773
0.0046207834
0.0046278648
0.0046350571
0.0046423922
0.0046498925
0.0046575681
0.0046654154
0.0046734162
0.0046815361
0.004689721
0.0046978827
0.0047058574
0.0047132709
0.0045223928
0.0045291475
0.0045365637
0.0045437642
0.0045509006
0.0045580879
0.0045653862
0.0045728333
0.0045804593
0.0045882845
0.0045963163
0.0046045486
0.0046129608
0.0046215168
0.0046301622
0.0046388138
0.0046473283
0.0046554085
0.0044641241
0.0044709455
0.0044783857
0.004485645
0.0044928808
0.0045002048
0.0045076739
0.0045153244
0.0045231845
0.0045312724
0.0045395937
0.0045481405
0.0045568913
0.004565811
0.0045748484
0.0045839287
0.0045929245
0.004601572
0.0044104773
0.0044173404
0.0044247819
0.0044320738
0.0044393776
0.0044468017
0.0044544002
0.0044622074
0.0044702494
0.004478542
0.0044870882
0.0044958774
0.0045048852
0.0045140733
0.0045233877
0.0045327507
0.0045420345
0.0045509817
0.0043611357
0.0043680184
0.0043754418
0.0043827436
0.0043900885
0.0043975815
0.0044052741
0.0044131985
0.0044213788
0.0044298285
0.0044385484
0.0044475254
0.0044567331
0.0044661316
0.0044756663
0.0044852604
0.0044947907
0.0045040147
0.0043158099
0.0043226932
0.0043300821
0.0043373747
0.0043447378
0.0043522732
0.0043600298
0.0043680378
0.0043763191
0.0043848851
0.0043937339
0.00440285
0.0044122046
0.0044217557
0.0044314466
0.0044411997
0.004450894
0.0044602982
0.0042742352
0.0042811027
0.0042884436
0.0042957107
0.0043030726
0.0043106278
0.0043184228
0.0043264858
0.0043348366
0.0043434841
0.0043524241
0.0043616388
0.0043710968
0.0043807543
0.0043905528
0.0044004136
0.0044102169
0.0044197392
0.00423617
0.0042430085
0.0042502902
0.0042575188
0.0042648635
0.0042724201
0.0042802327
0.0042883274
0.0042967222
0.0043054237
0.0043144254
0.0043237074
0.0043332367
0.004342968
0.004352842
0.0043627809
0.0043726683
0.0043822927
0.0042013932
0.0042081914
0.0042154051
0.0042225843
0.0042298987
0.0042374413
0.0042452538
0.0042533606
0.0042617776
0.0042705094
0.0042795475
0.0042888701
0.004298443
0.0043082196
0.0043181407
0.0043281294
0.0043380735
0.004347773
0.0041697027
0.0041764516
0.0041835901
0.0041907111
0.0041979842
0.0042054998
0.0042132973
0.0042213992
0.0042298195
0.0042385606
0.0042476122
0.0042569507
0.0042665403
0.0042763334
0.0042862705
0.0042962754
0.004306239
0.0043159705
0.0041409138
0.004147606
0.0041546639
0.0041617198
0.0041689428
0.0041764207
0.0041841908
0.0041922738
0.0042006815
0.0042094146
0.0042184608
0.0042277946
0.0042373791
0.0042471659
0.0042570951
0.0042670913
0.0042770482
0.0042867837
0.0041148579
0.0041214876
0.0041284607
0.0041354458
0.0041426115
0.0041500428
0.0041577751
0.0041658271
0.0041742087
0.0041829186
0.0041919424
0.0042012534
0.0042108132
0.0042205726
0.0042304717
0.0042404359
0.0042503621
0.0042600765
0.004091381
0.0040979435
0.0041048288
0.0041117389
0.0041188414
0.004126219
0.0041339049
0.0041419159
0.00415026
0.0041589339
0.0041679215
0.0041771944
0.0041867129
0.0041964272
0.0042062773
0.0042161894
0.0042260629
0.0042357318
0.004070342
0.0040768335
0.0040836287
0.0040904605
0.0040974951
0.0041048131
0.0041124453
0.0041204069
0.0041287038
0.004137331
0.0041462704
0.0041554922
0.0041649557
0.0041746103
0.0041843961
0.0041942403
0.0042040452
0.0042136523
0.0040516106
0.0040580281
0.0040647315
0.0040714822
0.0040784451
0.0040856984
0.0040932709
0.0041011758
0.0041094173
0.0041179882
0.0041268692
0.0041360287
0.0041454251
0.0041550073
0.0041647152
0.0041744771
0.0041841984
0.0041937276
0.0040350649
0.0040414058
0.0040480161
0.0040546835
0.0040615714
0.0040687556
0.0040762629
0.0040841047
0.0040922833
0.0041007899
0.0041096032
0.0041186907
0.0041280095
0.0041375081
0.0041471266
0.0041567944
0.0041664199
0.0041758592
0.0040205896
0.0040268516
0.0040333675
0.0040399496
0.0040467595
0.0040538705
0.0040613075
0.0040690803
0.0040771892
0.0040856236
0.0040943609
0.0041033671
0.0041125987
0.0041220034
0.0041315216
0.0041410838
0.0041506019
0.0041599396
0.0040080737
0.0040142544
0.0040206746
0.0040271694
0.0040338983
0.0040409322
0.0040482941
0.0040559919
0.0040640244
0.0040723793
0.0040810325
0.0040899489
0.0040990841
0.0041083854
0.0041177931
0.0041272391
0.004136639
0.0041458649
0.003997409
0.0040035057
0.0040098287
0.0040162341
0.0040228788
0.0040298314
0.0040371131
0.0040447301
0.0040526796
0.0040609476
0.0040695087
0.0040783269
0.0040873568
0.0040965454
0.0041058328
0.0041151523
0.0041244236
0.0041335281
0.003988489
0.0039944988
0.0040007228
0.0040070362
0.0040135933
0.0040204602
0.0040276563
0.0040351864
0.0040430458
0.0040512194
0.0040596804
0.0040683918
0.0040773076
0.0040863741
0.0040955315
0.0041047139
0.0041138459
0.0041228202
0.0039812095
0.0039871289
0.0039932516
0.0039994701
0.0040059355
0.0040127118
0.0040198166
0.0040272531
0.0040350152
0.0040430863
0.0040514387
0.0040600345
0.0040688271
0.0040777623
0.0040867797
0.0040958143
0.0041047954
0.0041136302
0.0039754686
0.0039812939
0.0039873125
0.0039934326
0.0039998019
0.004006482
0.0040134892
0.004020825
0.0040284819
0.0040364422
0.0040446771
0.0040531482
0.0040618083
0.0040706026
0.00407947
0.0040883452
0.0040971619
0.0041058467
0.0039711691
0.0039768961
0.0039828074
0.0039888249
0.0039950931
0.0040016712
0.0040085739
0.0040158013
0.0040233446
0.0040311851
0.0040392933
0.0040476302
0.0040561482
0.004064792
0.0040734993
0.004082203
0.0040908392
0.0040993587
0.0039682195
0.0039738439
0.0039796443
0.0039855548
0.0039917164
0.003998186
0.0040049769
0.0040120878
0.0040195088
0.0040272202
0.004035192
0.0040433848
0.004051751
0.0040602347
0.0040687722
0.0040772927
0.0040857288
0.0040940557
0.0039665356
0.0039720533
0.0039777388
0.0039835377
0.0039895869
0.0039959415
0.004002613
0.004009599
0.0040168887
0.0040244614
0.0040322869
0.0040403256
0.0040485301
0.0040568444
0.0040652035
0.004073531
0.0040817447
0.0040898169
0.0039660419
0.0039714487
0.0039770157
0.003982698
0.0039886292
0.0039948619
0.0040014065
0.0040082594
0.0040154087
0.0040228333
0.0040305026
0.0040383773
0.0040464103
0.0040545462
0.0040627195
0.0040708495
0.0040788273
0.0039666706
0.0039719628
0.0039774076
0.0039829688
0.0039887765
0.0039948811
0.0040012915
0.0040080031
0.0040150034
0.0040222707
0.0040297745
0.0040374758
0.0040453279
0.0040532765
0.0040612573
0.0040691921
0.0040769782
0.0039683607
0.0039735352
0.0039788545
0.0039842907
0.0039899699
0.0039959404
0.00400221
0.0040087731
0.0040156164
0.0040227181
0.0040300477
0.0040375668
0.0040452294
0.0040529822
0.0040607623
0.0040684935
0.0040760773
0.0039710556
0.0039761099
0.0039813012
0.0039866089
0.0039921554
0.0039979869
0.00400411
0.0040105181
0.0040171975
0.0040241264
0.0040312745
0.0040386038
0.0040460695
0.0040536192
0.0040611914
0.0040687121
0.0040760866
0.0039747009
0.0039796331
0.0039846945
0.0039898711
0.0039952817
0.0040009702
0.004006942
0.00401319
0.0040197
0.0040264502
0.0040334107
0.0040405444
0.0040478072
0.0040551481
0.0040625069
0.0040698116
0.0040769715
0.003979242
0.0039840508
0.0039889813
0.003994025
0.0039992973
0.0040048399
0.004010657
0.004016741
0.0040230775
0.0040296447
0.0040364133
0.004043347
0.0040504028
0.0040575308
0.0040646724
0.0040717576
0.0040786993
0.0039846233
0.003989308
0.0039941068
0.0039990167
0.0040041492
0.0040095441
0.0040152044
0.004021122
0.0040272823
0.0040336638
0.0040402379
0.0040469691
0.0040538155
0.0040607285
0.0040676508
0.0040745147
0.0040812363
0.0039907883
0.0039953485
0.0040000157
0.0040047914
0.0040097835
0.0040150297
0.0040205321
0.0040262821
0.0040322651
0.0040384598
0.0040448384
0.0040513663
0.0040580026
0.0040647
0.0040714028
0.0040780451
0.0040845467
0.0039976819
0.0040021175
0.0040066531
0.0040112947
0.0040161464
0.0040212439
0.0040265883
0.0040321706
0.0040379763
0.0040439846
0.0040501681
0.0040564932
0.0040629202
0.0040694029
0.0040758873
0.0040823094
0.0040885923
0.0040052525
0.0040095635
0.0040139679
0.0040184758
0.0040231876
0.0040281368
0.0040333238
0.0040387393
0.0040443689
0.0040501919
0.0040561818
0.0040623058
0.0040685253
0.0040747954
0.0040810635
0.0040872678
0.0040933347
0.0040134551
0.0040176414
0.0040219152
0.0040262901
0.0040308627
0.0040356646
0.0040406954
0.0040459456
0.0040514006
0.0040570404
0.0040628388
0.0040687641
0.0040747786
0.0040808386
0.0040868933
0.0040928829
0.004098737
0.0040222522
0.0040263141
0.0040304579
0.0040347008
0.0040391352
0.0040437911
0.0040486672
0.0040537538
0.0040590365
0.0040644953
0.0040701048
0.004075834
0.0040816463
0.0040874993
0.0040933438
0.0040991223
0.0041047675
0.0040316147
0.0040355526
0.0040395676
0.0040436795
0.0040479771
0.0040524884
0.0040572116
0.0040621366
0.0040672491
0.0040725295
0.0040779528
0.0040834888
0.0040891019
0.0040947511
0.0041003889
0.0041059602
0.004111401
0.0040415197
0.0040453343
0.0040492219
0.0040532043
0.0040573667
0.0040617351
0.0040663073
0.0040710729
0.0040760176
0.0040811221
0.0040863621
0.0040917079
0.0040971252
0.0041025741
0.0041080092
0.0041133778
0.0041186191
0.0040519468
0.0040556396
0.0040594016
0.0040632564
0.0040672854
0.004071513
0.0040759363
0.0040805449
0.0040853245
0.0040902561
0.0040953159
0.0041004751
0.0041057002
0.0041109528
0.0041161895
0.0041213605
0.0041264081
0.0040628746
0.0040664475
0.0040700864
0.0040738161
0.0040777141
0.0040818033
0.0040860803
0.0040905346
0.0040951521
0.0040999142
0.0041047975
0.004109774
0.0041148111
0.004119872
0.0041249153
0.0041298941
0.0041347545
0.0040742769
0.0040777328
0.0040812515
0.0040848589
0.0040886289
0.0040925826
0.0040967162
0.0041010194
0.0041054782
0.0041100746
0.0041147856
0.0041195839
0.0041244378
0.0041293118
0.0041341669
0.0041389594
0.0041436394
0.0040861212
0.0040894634
0.0040928655
0.0040963538
0.0040999988
0.0041038201
0.0041078137
0.0041119692
0.0041162731
0.0041207077
0.0041252508
0.0041298757
0.0041345513
0.0041392433
0.004143915
0.0041485267
0.0041530333
0.0040983688
0.0041016006
0.0041048895
0.0041082621
0.0041117852
0.0041154773
0.0041193339
0.004123345
0.0041274976
0.0041317746
0.0041361543
0.0041406103
0.0041451123
0.0041496269
0.0041541192
0.0041585544
0.0041628944
0.0041109755
0.0041141003
0.0041172791
0.0041205387
0.0041239429
0.0041275083
0.0041312308
0.0041351006
0.0041391053
0.0041432284
0.0041474488
0.0041517406
0.0041560734
0.0041604141
0.0041647297
0.0041689909
0.0041731702
0.0041238951
0.0041269155
0.0041299867
0.0041331359
0.0041364233
0.0041398645
0.0041434553
0.0041471865
0.0041510463
0.004155019
0.0041590841
0.0041632158
0.0041673835
0.0041715536
0.0041756936
0.00417978
0.004183802
0.0041370829
0.004140001
0.0041429668
0.0041460076
0.0041491803
0.0041524994
0.0041559607
0.0041595557
0.0041632735
0.0041670991
0.0041710125
0.0041749882
0.0041789951
0.0041829978
0.004186962
0.0041908676
0.0041947284
0.0041505012
0.0041533187
0.0041561811
0.0041591155
0.0041621755
0.0041653744
0.0041687084
0.0041721698
0.0041757484
0.00417943
0.0041831954
0.0041870193
0.0041908698
0.0041947094
0.0041984986
0.0042022109
0.0042058796
0.004164124
0.0041668426
0.0041696037
0.004172434
0.0041753835
0.0041784647
0.0041816741
0.0041850048
0.0041884473
0.0041919884
0.0041956096
0.004199286
0.0042029857
0.0042066691
0.0042102901
0.0042137989
0.0041779459
0.0041805677
0.0041832304
0.0041859595
0.0041888017
0.0041917686
0.004194857
0.0041980607
0.0042013714
0.0042047765
0.0042082583
0.0042117926
0.0042153476
0.0042188843
0.0042223575
0.0042257193
0.0041919966
0.004194525
0.0041970932
0.0041997255
0.0042024649
0.0042053223
0.0042082949
0.0042113774
0.0042145621
0.0042178373
0.0042211859
0.0042245841
0.0042280006
0.0042313966
0.0042347273
0.0042379458
0.0042063619
0.0042088016
0.0042112809
0.0042138222
0.0042164652
0.0042192197
0.0042220836
0.0042250523
0.0042281187
0.0042312718
0.004234495
0.0042377649
0.0042410503
0.0042443127
0.0042475075
0.0042505887
0.0042212086
0.0042235655
0.0042259624
0.0042284197
0.0042309736
0.0042336331
0.0042363965
0.0042392598
0.0042422166
0.0042452562
0.0042483623
0.0042515119
0.0042546738
0.0042578096
0.0042608749
0.0042638243
0.004236806
0.0042390856
0.0042414066
0.0042437867
0.0042462587
0.0042488308
0.0042515016
0.0042542676
0.0042571225
0.0042600563
0.0042630526
0.0042660883
0.0042691325
0.0042721465
0.0042750863
0.0042779071
0.004253542
0.004255748
0.0042579976
0.0042603053
0.0042627005
0.0042651906
0.0042677744
0.0042704483
0.0042732066
0.0042760388
0.0042789289
0.0042818534
0.0042847814
0.0042876742
0.0042904879
0.0042931781
0.0042719286
0.0042740606
0.0042762395
0.0042784755
0.0042807951
0.0042832044
0.0042857021
0.0042882849
0.0042909466
0.0042936766
0.0042964583
0.0042992683
0.0043020752
0.0043048406
0.004307521
0.0043100721
0.0042925919
0.0042946441
0.0042967474
0.0042989071
0.0043011463
0.0043034703
0.0043058773
0.0043083635
0.0043109222
0.0043135423
0.0043162065
0.0043188908
0.0043215638
0.0043241877
0.0043267194
0.0043291152
0.0043162446
0.0043182045
0.0043202206
0.0043222925
0.0043244402
0.0043266674
0.0043289718
0.0043313489
0.0043337909
0.0043362856
0.0043388148
0.0043413537
0.0043438712
0.0043463304
0.0043486897
0.0043509065
0.0043436324
0.004345481
0.0043473914
0.0043493571
0.0043513948
0.0043535066
0.0043556894
0.0043579372
0.004360241
0.0043625869
0.0043649553
0.0043673208
0.0043696523
0.0043719149
0.0043740702
0.004376078
0.0043754514
0.0043771634
0.0043789434
0.0043807778
0.0043826803
0.0043846513
0.0043866862
0.0043887777
0.0043909146
0.0043930813
0.0043952561
0.0043974124
0.0043995198
0.0044015464
0.0044034598
0.0044052252
0.0044122253
0.0044137714
0.0044153912
0.0044170643
0.0044188012
0.0044206006
0.0044224562
0.0044243588
0.0044262952
0.0044282471
0.0044301906
0.0044320974
0.0044339373
0.004435683
0.0044373124
0.0044388034
0.0044541471
0.0044554969
0.0044569252
0.0044584051
0.004459944
0.0044615388
0.0044631814
0.0044648608
0.0044665614
0.0044682623
0.0044699367
0.0044715537
0.0044730827
0.0044745012
0.0044758029
0.004476994
0.0045009055
0.0045020327
0.0045032417
0.0045044996
0.004505811
0.0045071711
0.0045085703
0.0045099958
0.0045114299
0.0045128492
0.0045142238
0.0045155196
0.0045167029
0.0045177531
0.0045186826
0.0045195537
0.004551543
0.0045524318
0.0045534032
0.0045544199
0.0045554838
0.0045565888
0.0045577242
0.0045588758
0.0045600245
0.0045611451
0.0045622056
0.0045631679
0.0045639922
0.0045646502
0.0045651566
0.0045656495
0.0046043962
0.004605047
0.0046057779
0.0046065496
0.0046073617
0.0046082071
0.0046090745
0.0046099494
0.004610812
0.0046116371
0.0046123921
0.0046130372
0.0046135266
0.0046138121
0.0046138501
0.0046571646
0.004657597
0.0046581036
0.0046586453
0.0046592203
0.0046598209
0.0046604363
0.0046610519
0.0046616491
0.0046622039
0.0046626861
0.0046630593
0.004663282
0.0046633117
0.0046631119
0.0047071454
0.004707397
0.0047077131
0.0047080579
0.0047084288
0.0047088184
0.0047092166
0.0047096101
0.0047099822
0.0047103115
0.0047105716
0.004710731
0.0047107541
0.0047106047
0.0047102527
0.0047516471
0.0047517668
0.0047519383
0.004752132
0.0047523449
0.0047525706
0.0047528004
0.004753023
0.0047532243
0.0047533869
0.0047534889
0.004753505
0.0047534066
0.0047531648
0.0047527562
0.0047885229
0.0047885609
0.0047886372
0.0047887294
0.0047888348
0.0047889484
0.0047890631
0.0047891704
0.0047892594
0.0047893167
0.004789326
0.0047892682
0.0047891222
0.0047888667
0.0047884845
0.0048166572
0.0048166559
0.0048166802
0.004816715
0.0048167582
0.0048168062
0.0048168541
0.0048168957
0.0048169235
0.0048169283
0.0048168989
0.0048168224
0.0048166844
0.0048164705
0.0048161694
0.0048361983
0.0048361866
0.0048361901
0.0048361998
0.0048362143
0.0048362315
0.0048362481
0.0048362603
0.0048362635
0.004836252
0.004836219
0.0048361565
0.0048360558
0.0048359083
0.0048357071
0.0048484048
0.0048483973
0.0048483976
0.004848401
0.0048484069
0.004848414
0.0048484205
0.0048484244
0.0048484231
0.0048484136
0.0048483923
0.004848355
0.0048482969
0.0048482136
0.0048481013
0.0048551669
0.0048551677
0.0048551717
0.0048551769
0.004855183
0.0048551895
0.0048551955
0.0048552001
0.0048552022
0.0048552004
0.004855193
0.0048551782
0.0048551539
0.004855118
0.0048550689
0.0048584158
0.0048584226
0.0048584307
0.0048584391
0.0048584477
0.0048584562
0.0048584644
0.004858472
0.0048584785
0.0048584835
0.0048584864
0.0048584864
0.0048584829
0.0048584751
0.0048584625
0.0048597104
0.0048597205
0.0048597305
0.0048597403
0.0048597499
0.0048597593
0.0048597685
0.0048597774
0.0048597861
0.0048597943
0.0048598018
0.0048598085
0.0048598141
0.0048598184
0.004859822
0.0048600712
0.0048600796
0.0048600878
0.0048600957
0.0048601033
0.0048601106
0.0048601178
0.0048601247
0.0048601315
0.0048601382
0.0048601446
0.0048601508
0.0048601565
0.0048601618
0.0048601424
0.0048601463
0.0048601502
0.004860154
0.0048601577
0.0048601613
0.0048601648
0.0048601682
0.0048601715
0.0048601748
0.0048601779
0.004860181
0.0048601839
0.0048601868
0.0019838652
0.0024137931
0.0028351705
0.0033071798
0.0038779699
0.0045856021
0.005454269
0.0064879838
0.0076740356
0.0089894563
0.010406007
0.01189487
0.01342869
0.014985726
0.016545591
0.018091985
0.019611505
0.021093646
0.022526439
0.0021532345
0.0025559442
0.0029933964
0.0035246111
0.0041902772
0.0050156603
0.0060068487
0.0071530556
0.0084322742
0.0098171448
0.011279308
0.012792648
0.014333252
0.015881301
0.01742137
0.01893865
0.020421883
0.021862022
0.0022908854
0.0027059327
0.0032045176
0.0038368986
0.0046299542
0.0055906323
0.0067083767