/*--------------------------------*- C++ -*----------------------------------*\
| =========                 |                                                 |
| \\      /  F ield         | OpenFOAM: The Open Source CFD Toolbox           |
|  \\    /   O peration     | Version:  2406                                  |
|   \\  /    A nd           | Website:  www.openfoam.com                      |
|    \\/     M anipulation  |                                                 |
\*---------------------------------------------------------------------------*/
FoamFile
{
    version     2.0;
    format      ascii;
    arch        "LSB;label=32;scalar=64";
    class       volScalarField;
    location    "0.005";
    object      k;
}
// * * * * * * * * * * * * * * * * * * * * * * * * * * * * * * * * * * * * * //

dimensions      [0 2 -2 0 0 0 0];

internalField   nonuniform List<scalar> 
23203
(
389.17675
368.74391
347.42584
325.63444
303.68303
281.8053
260.19808
239.03452
218.469
198.64113
179.6659
161.62156
144.53848
128.4259
113.31085
99.244844
86.190276
74.059701
62.865712
368.68068
348.1686
326.95032
305.50717
284.09061
262.88369
242.05353
221.75388
202.11919
183.26424
165.28018
148.22955
132.14801
116.97991
102.76309
89.581964
77.352232
66.007936
55.568181
344.50028
324.35179
303.66846
282.88086
262.22923
241.88765
222.00934
202.73137
184.17012
166.4192
149.54665
133.59485
118.59756
104.46781
91.250286
79.038004
67.711303
57.234283
47.635159
317.44202
297.85291
277.95001
258.07032
238.42267
219.16758
200.4444
182.37399
165.0549
148.56066
132.9374
118.20845
104.40067
91.409801
79.291624
68.129071
57.789628
48.276876
39.62617
288.29123
269.52895
250.63267
231.87765
213.44053
195.46308
178.06831
161.36025
145.41968
130.30126
116.03129
102.61624
90.064579
78.274414
67.32814
57.277649
47.998035
39.537005
31.940519
257.60731
239.93488
222.26402
204.83222
187.7905
171.26072
155.34723
140.13546
125.68781
112.04136
99.206724
87.181607
75.919362
65.374506
55.675564
46.789011
38.646643
31.332723
24.903865
225.91147
209.56608
193.3242
177.3977
161.91716
146.98456
132.68367
119.07936
106.21478
94.111262
82.770534
72.194984
62.253148
53.004329
44.613655
36.945815
30.036587
23.977555
18.826381
193.74248
178.93265
164.30295
150.04555
136.27244
123.06467
110.48355
98.571969
87.353989
76.837937
67.023793
57.929523
49.380817
41.487537
34.427356
28.068301
22.503514
17.794433
13.980421
161.68167
148.59106
135.73588
123.29095
111.34874
99.967333
89.18438
79.021541
69.486875
60.581105
52.309373
44.713676
37.621338
31.161116
25.494598
20.538637
16.390469
13.046201
10.499628
130.3818
119.17311
108.23282
97.71833
87.700298
78.2125
69.270488
60.879734
53.040154
45.753558
39.035844
32.948439
27.381497
22.44069
18.222529
14.707122
11.922078
9.7986101
8.2696262
100.60708
91.420342
82.505926
74.002969
65.959282
58.387023
51.286992
44.659461
38.508747
32.848213
27.706263
23.132753
19.13354
15.728601
12.914572
10.701843
9.0434714
7.8369902
6.9666811
73.284313
66.220047
59.392652
52.924308
46.844592
41.154438
35.853749
30.951162
26.464891
22.421604
18.85298
15.787816
13.230262
11.159943
9.5393961
8.3119481
7.3990254
6.7197281
6.2025487
49.546786
44.621496
39.853615
35.35472
31.149108
27.242679
23.646954
20.382452
17.473307
14.940465
12.794566
11.02932
9.6170363
8.511131
7.6572925
6.9995188
6.4859287
6.0728453
5.7268847
30.714045
27.773221
24.88613
22.159009
19.623181
17.29655
15.198091
13.345316
11.748144
10.404819
9.3006321
8.4092906
7.6965712
7.1255936
6.6615085
6.2746021
5.942013
5.6472098
5.3793832
17.968068
16.57193
15.15112
13.794166
12.533555
11.387781
10.369409
9.4835997
8.7270641
8.08911
7.5539085
7.1031091
6.7182835
6.3828477
6.083432
5.8102294
5.5563937
5.3173667
5.090213
11.245699
10.718056
10.144
9.5769866
9.0384416
8.5390604
8.0843924
7.6753115
7.3087714
6.9792293
6.6801267
6.4050622
6.1485478
5.9063454
5.6753872
5.4535158
5.2392325
5.0315549
4.8301066
8.4957478
8.2859548
8.040498
7.7848828
7.5301632
7.2808629
7.0390175
6.8052081
6.5789986
6.3594708
6.1457001
5.936979
5.7328108
5.5328116
5.3366568
5.144079
4.9549093
4.7692011
4.5873682
7.3829511
7.2564682
7.1066879
6.9457451
6.7792757
6.6090689
6.4359649
6.2608115
6.084444
5.907586
5.7308306
5.5546312
5.3792982
5.2050394
5.0320263
4.8604591
4.6905906
4.5228098
4.3577566
6.7450275
6.640758
6.5208327
6.3915834
6.2562134
6.1159067
5.9713999
5.8235352
5.6731637
5.5209964
5.3675786
5.2133325
5.0586133
4.9037544
4.7490911
4.5949549
4.4416697
4.2896633
4.1395966
6.237015
6.1439006
6.0397266
5.9282385
5.8113189
5.6898215
5.5643488
5.4355476
5.3040618
5.1704419
5.0351291
4.8984883
4.7608455
4.6225126
4.4837949
4.3449895
4.2063995
4.0684641
3.9318635
5.7843773
5.7001917
5.6083613
5.5110247
5.4089991
5.3027712
5.1928558
5.0798313
4.9642332
4.8464742
4.7268491
4.6055884
4.4829141
4.3590744
4.2343499
4.10904
3.9834658
3.8580976
3.7336279
5.3691967
5.2940613
5.2135096
5.1287382
5.0398939
4.9472025
4.8511014
4.7520814
4.6505281
4.5466805
4.4406891
4.3326985
4.2229055
4.1115738
3.9990147
3.8855536
3.7715299
3.6574308
3.5439392
4.9910108
4.9256289
4.8554746
4.7814119
4.7036774
4.6224758
4.5381052
4.4508858
4.3610524
4.2687426
4.1740662
4.0771763
3.9783019
3.877739
3.7758165
3.6728611
3.5692057
3.4653301
3.361883
4.6519697
4.594362
4.5326555
4.4668959
4.3976553
4.3253044
4.2500442
4.1720556
4.0914899
4.0084644
3.9231054
3.835591
3.7461631
3.6551109
3.5627386
3.4693378
3.3752057
3.2807887
3.1866754
4.3236842
4.2761075
4.2238213
4.1673935
4.1073016
4.0436906
3.9768403
3.9070922
3.8347388
3.7600056
3.6830896
3.6041976
3.5235627
3.4414367
3.3580704
3.2736991
3.1885706
3.1030846
3.0177588
3.9922275
3.9585455
3.9180986
3.8705929
3.8198107
3.7659219
3.708668
3.6481652
3.5847719
3.5188604
3.4507377
3.3806615
3.308868
3.2355838
3.1610215
3.0853784
3.008871
2.9318649
2.8548164
3.700093
3.6631114
3.6302901
3.5925545
3.5472703
3.4996641
3.4501939
3.3982846
3.3437236
3.286661
3.2273458
3.1660129
3.1028741
3.0381299
2.9719717
2.9045818
2.8361666
2.7670696
2.6976936
3.4456065
3.405874
3.3699831
3.3391685
3.3027634
3.2592726
3.2139408
3.1674756
3.1193818
3.0693358
3.0173151
2.9634194
2.9077756
2.8505224
2.7918086
2.7317881
2.6706435
2.6086808
2.5462372
3.1986587
3.1697769
3.1384915
3.1056896
3.0769917
3.0421734
3.0007912
2.9578112
2.9140011
2.8689453
2.8223378
2.7741317
2.7243908
2.6732114
2.6207003
2.5669638
2.5121331
2.4564453
2.4001518
2.9711107
2.9425181
2.9190327
2.8906315
2.8606233
2.8340123
2.8010601
2.7622845
2.7221772
2.6813026
2.6392477
2.595784
2.5509378
2.5048347
2.4575926
2.4092846
2.3599813
2.3098398
2.259023
2.7538175
2.7303781
2.7059715
2.6843052
2.6577419
2.6301099
2.6054986
2.5744755
2.5387181
2.5018773
2.4641661
2.4252174
2.3849469
2.3435217
2.3011078
2.2577583
2.213487
2.1683838
2.1225496
2.5478587
2.5282052
2.5081785
2.485227
2.4646326
2.4396642
2.4140458
2.3913679
2.3621673
2.3295781
2.2959391
2.2612823
2.2254171
2.1884956
2.1506963
2.1120273
2.0724485
2.0320124
1.9908011
2.3537813
2.3370555
2.3203475
2.3012409
2.2793567
2.2598953
2.2364072
2.2128451
2.1921269
2.164936
2.1352761
2.1045337
2.0727711
2.040151
2.0067508
1.9724779
1.9372586
1.9011584
1.8642879
2.1720803
2.157748
2.1436035
2.1275182
2.109072
2.08833
2.0700743
2.0479388
2.0266927
2.0077847
1.9828614
1.9559414
1.9278642
1.899254
1.8699827
1.8397887
1.8086112
1.7765754
1.7438522
2.0032347
1.9909993
1.9789905
1.9653434
1.9497756
1.9321906
1.9126759
1.8955768
1.8747761
1.8558114
1.8383707
1.8165608
1.7918173
1.7666494
1.7410731
1.7146372
1.6873056
1.6592075
1.630551
1.8476636
1.8373115
1.8272103
1.8156777
1.8025612
1.7878364
1.7713813
1.7532052
1.7372095
1.7179796
1.7009495
1.6849674
1.6656894
1.6436336
1.6211763
1.5981142
1.5745069
1.5502837
1.5255987
1.7055763
1.6969112
1.6885326
1.67892
1.667984
1.6557982
1.6423241
1.6274152
1.6110237
1.5967075
1.5799451
1.5649876
1.5487599
1.5320239
1.5127542
1.4925275
1.4721211
1.4513144
1.5768392
1.5696446
1.5627702
1.5548469
1.5458232
1.5358024
1.5248392
1.5128957
1.4999226
1.4860915
1.4744023
1.4597768
1.4466354
1.4324628
1.4160617
1.3991969
1.3811314
1.3627925
1.4609726
1.4550134
1.4493911
1.4428741
1.4354317
1.4271622
1.4181216
1.4082961
1.3975972
1.3860934
1.3746204
1.3629767
1.3537873
1.3418836
1.3283281
1.3138042
1.2980259
1.2819001
1.3572303
1.352285
1.3476782
1.3423036
1.3361451
1.3292891
1.3217785
1.3135853
1.3045392
1.2942556
1.2830445
1.2726428
1.2614226
1.2520708
1.2431375
1.2309214
1.2177471
1.2040939
1.2646575
1.2605334
1.2567413
1.2522939
1.2471944
1.2415307
1.2353568
1.2286849
1.2214296
1.2132245
1.2033733
1.1937424
1.1827167
1.1727087
1.163264
1.1545502
1.1442844
1.132097
1.1821586
1.1786767
1.1755035
1.1717577
1.1674544
1.1626755
1.1574742
1.1518832
1.1459091
1.1394571
1.1322311
1.123756
1.1153465
1.1064191
1.0970171
1.0876868
1.0799243
1.070135
1.1086585
1.1056743
1.1029638
1.0997374
1.0960137
1.0918573
1.0873006
1.0823553
1.077024
1.0712916
1.0651102
1.058439
1.0512755
1.0436238
1.0368105
1.028818
1.0201603
1.0139191
1.0431633
1.0405823
1.0382425
1.0354383
1.0321945
1.0285667
1.024577
1.0202286
1.0155189
1.0104411
1.0049871
0.99915403
0.99294863
0.98645172
0.97904121
0.97288687
0.96520127
0.95806958
0.98472733
0.98248099
0.980447
0.97799624
0.97516093
0.97199186
0.96850744
0.9647099
0.96059766
0.95616619
0.95140606
0.94629894
0.94081196
0.93489128
0.92849428
0.92122768
0.91531806
0.90778036
0.93249138
0.93052692
0.92874883
0.92659603
0.92410721
0.92132909
0.9182768
0.91495153
0.911352
0.90747536
0.90331591
0.89886424
0.89410705
0.88902454
0.88355346
0.87761101
0.87091373
0.86535869
0.88569743
0.88397554
0.88241744
0.88052294
0.87833673
0.87590268
0.87323414
0.87033252
0.86719812
0.86383094
0.86023023
0.85639492
0.85232484
0.84802225
0.84349228
0.83871081
0.83361697
0.82785734
0.84367354
0.84216123
0.8407923
0.839121
0.83719698
0.83506168
0.83272698
0.83019459
0.82746592
0.82454269
0.82142657
0.81811958
0.81462517
0.81094979
0.80710417
0.80310279
0.79893385
0.79454553
0.80583586
0.80450462
0.80329777
0.80181807
0.80011896
0.79823942
0.79618972
0.7939713
0.79158572
0.78903496
0.78632086
0.78344529
0.78041064
0.77722032
0.77387939
0.77039356
0.76676215
0.76294234
0.77168156
0.77050716
0.76943937
0.76812427
0.76661809
0.76495738
0.76315079
0.76119921
0.75910392
0.75686653
0.75448839
0.75197055
0.74931411
0.74652051
0.74359179
0.74053088
0.73733918
0.73400122
0.74077697
0.73973874
0.7387905
0.73761706
0.73627667
0.73480352
0.7332048
0.73148085
0.72963256
0.72766114
0.72556732
0.72335133
0.721013
0.7185519
0.71596731
0.71325829
0.71042293
0.70745296
0.7127484
0.71182884
0.71098378
0.70993275
0.70873539
0.70742372
0.70600365
0.70447508
0.7028387
0.70109548
0.69924597
0.69729019
0.69522779
0.69305815
0.69078053
0.68839418
0.68589881
0.68329422
0.68727325
0.68645756
0.68570205
0.68475738
0.68368405
0.68251207
0.68124625
0.67988617
0.67843237
0.6768857
0.67524662
0.67351515
0.67169106
0.66977401
0.6677638
0.66566076
0.66346628
0.66118268
0.66407188
0.66334754
0.6626702
0.66181843
0.6608532
0.65980263
0.65867061
0.65745645
0.65616056
0.65478368
0.65332617
0.65178796
0.65016867
0.6484678
0.64668483
0.64481956
0.64287245
0.64084444
0.64290136
0.64225774
0.64164907
0.64087899
0.64000852
0.63906408
0.63804875
0.63696164
0.63580307
0.63457374
0.63327396
0.63190364
0.63046245
0.62894994
0.62736571
0.62570968
0.62398244
0.62218495
0.62354983
0.62297793
0.62243001
0.62173222
0.62094535
0.62009425
0.61918129
0.61820542
0.61716691
0.61606639
0.61490411
0.61367995
0.61239351
0.61104428
0.60963172
0.60815555
0.606616
0.60501364
0.60583191
0.60532406
0.60483023
0.60419683
0.60348417
0.60271562
0.60189296
0.60101503
0.60008205
0.59909459
0.59805287
0.59695671
0.5958057
0.59459924
0.59333671
0.59201757
0.59064164
0.58920882
0.5895851
0.58913476
0.58868944
0.58811378
0.58746743
0.5867724
0.58602996
0.58523887
0.58439932
0.58351186
0.58257669
0.58159363
0.58056226
0.57948201
0.57835225
0.57717246
0.57594244
0.5746621
0.57466636
0.57426792
0.57386635
0.57334279
0.57275604
0.57212685
0.57145606
0.57074238
0.56998601
0.56918747
0.56834697
0.56746436
0.56653926
0.56557115
0.56455948
0.5635038
0.56240399
0.56126006
0.56094961
0.56059819
0.56023633
0.55976003
0.55922714
0.55865722
0.55805074
0.55740638
0.55672435
0.55600515
0.55524899
0.55445574
0.55362504
0.55275641
0.55184933
0.55090337
0.54991835
0.54889429
0.5483234
0.54801477
0.54768914
0.54725597
0.54677201
0.54625572
0.54570728
0.54512535
0.54451011
0.54386209
0.5431815
0.54246821
0.54172191
0.54094214
0.54012841
0.5392803
0.53839762
0.53748027
0.53668901
0.53641943
0.53612702
0.53573339
0.5352941
0.5348266
0.53433076
0.53380528
0.53325033
0.53266641
0.53205375
0.53141222
0.53074155
0.5300413
0.52931102
0.52855033
0.52775902
0.52693699
0.5259588
0.52572498
0.52546316
0.52510594
0.52470763
0.52428469
0.52383679
0.5233626
0.52286231
0.52233643
0.52178513
0.52120833
0.52060574
0.51997698
0.51932159
0.5186392
0.51792956
0.51719251
0.51605471
0.51585372
0.51562016
0.5152966
0.51493602
0.51455397
0.5141499
0.51372253
0.51327203
0.51279888
0.51230327
0.5117851
0.51124412
0.51067994
0.51009216
0.5094804
0.50884442
0.50818401
0.50690705
0.50673622
0.50652885
0.5062365
0.50591078
0.50556635
0.50520253
0.50481803
0.50441303
0.50398799
0.50354309
0.50307824
0.50259317
0.50208754
0.50156095
0.50101304
0.50044355
0.49985223
0.49845324
0.49831016
0.49812709
0.49786373
0.49757028
0.49726058
0.49693379
0.49658866
0.49622537
0.49584436
0.49544578
0.49502955
0.49459542
0.49414306
0.4936721
0.49318218
0.49267302
0.49214438
0.49063688
0.49051929
0.49035877
0.49012239
0.48985886
0.48958124
0.48928859
0.48897968
0.48865469
0.48831403
0.48795784
0.48758604
0.48719839
0.48679458
0.48637424
0.48593704
0.48548268
0.48501089
0.48340675
0.48331255
0.48317295
0.48296165
0.48272587
0.48247793
0.48221677
0.4819412
0.48165141
0.48134778
0.48103044
0.48069929
0.48035412
0.47999461
0.47962044
0.47923125
0.47882677
0.47840668
0.47671614
0.4766433
0.47652307
0.47633509
0.47612503
0.47590449
0.47567237
0.4754275
0.47517006
0.47490041
0.47461866
0.47432473
0.47401839
0.47369935
0.47336728
0.47302188
0.47266283
0.4722898
0.47052218
0.47046878
0.47036641
0.47020005
0.47001377
0.46981852
0.46961314
0.46939649
0.46916874
0.46893024
0.4686811
0.4684212
0.46815035
0.46786825
0.46757461
0.46726912
0.46695146
0.4666213
0.46478548
0.46474964
0.46466367
0.46451727
0.46435292
0.46418093
0.46400009
0.46380932
0.46360878
0.46339879
0.46317944
0.46295063
0.46271215
0.46246375
0.46220513
0.461936
0.46165605
0.46136492
0.4594698
0.45944968
0.45937868
0.45925064
0.45910642
0.45895573
0.45879735
0.45863023
0.45845452
0.45827053
0.45807833
0.45787783
0.45766883
0.45745108
0.45722431
0.45698824
0.45674258
0.45648694
0.45454188
0.45453571
0.45447827
0.454367
0.45424115
0.45410988
0.45397195
0.45382634
0.45367321
0.45351283
0.45334529
0.45317047
0.4529882
0.45279823
0.45260033
0.45239423
0.45217966
0.45195621
0.4499713
0.4499774
0.44993212
0.44983609
0.44972692
0.44961325
0.44949383
0.44936769
0.44923497
0.44909594
0.44895067
0.44879904
0.4486409
0.44847602
0.44830418
0.44812515
0.44793868
0.44774434
0.44573044
0.44574719
0.44571275
0.44563044
0.44553632
0.4454385
0.44533574
0.44522712
0.44511276
0.44499291
0.44486764
0.44473684
0.44460037
0.44445801
0.44430957
0.44415485
0.44399365
0.44382562
0.44179429
0.44182018
0.44179528
0.44172528
0.44164465
0.44156102
0.44147317
0.4413802
0.44128225
0.44117955
0.44107214
0.44095994
0.4408428
0.44072054
0.44059299
0.44045997
0.44032135
0.43814027
0.43817391
0.43815735
0.43809829
0.43802968
0.43795868
0.43788409
0.43780506
0.43772169
0.4376342
0.43754265
0.43744695
0.43734697
0.43724255
0.43713351
0.43701973
0.43690107
0.43474798
0.43478808
0.43477874
0.43472938
0.43467143
0.43461162
0.43454877
0.43448205
0.43441157
0.43433754
0.43425999
0.43417886
0.43409401
0.43400532
0.43391262
0.43381579
0.43371474
0.43159883
0.43164424
0.4316411
0.43160028
0.43155175
0.43150182
0.43144931
0.43139345
0.43133432
0.43127212
0.43120689
0.43113855
0.431067
0.43099211
0.43091375
0.43083181
0.43074622
0.42867573
0.42872541
0.42872755
0.42869425
0.42865401
0.42861277
0.42856936
0.42852304
0.42847388
0.42842206
0.42836761
0.42831048
0.42825057
0.42818776
0.42812194
0.42805303
0.42798095
0.42596274
0.42601578
0.42602239
0.42599568
0.42596275
0.42592914
0.42589372
0.42585576
0.42581533
0.4257726
0.42572759
0.42568026
0.42563052
0.42557827
0.42552341
0.42546587
0.4254056
0.42344494
0.42350052
0.42351089
0.42348995
0.42346344
0.42343652
0.42340809
0.42337746
0.42334468
0.4233099
0.42327316
0.4232344
0.42319356
0.42315054
0.42310526
0.42305767
0.42300774
0.4211083
0.4211657
0.42117919
0.42116328
0.42114239
0.42112134
0.42109903
0.42107481
0.42104873
0.42102093
0.42099142
0.42096017
0.42092713
0.4208922
0.42085533
0.42081646
0.42077559
0.41893981
0.41899837
0.41901439
0.41900286
0.41898688
0.41897094
0.41895399
0.41893538
0.41891516
0.41889345
0.41887029
0.41884564
0.41881944
0.41879163
0.41876215
0.41873097
0.41869809
0.41692758
0.41698672
0.41700475
0.41699698
0.41698526
0.41697377
0.41696147
0.41694775
0.41693265
0.41691629
0.41689869
0.41687982
0.41685964
0.4168381
0.41681515
0.41679076
0.41676495
0.41506107
0.41512025
0.41513981
0.41513526
0.41512721
0.41511955
0.41511127
0.41510179
0.41509115
0.41507945
0.41506671
0.41505292
0.41503803
0.41502201
0.41500481
0.41498643
0.41496688
0.41333112
0.41338986
0.41341052
0.41340868
0.41340377
0.41339939
0.41339456
0.41338875
0.41338196
0.4133743
0.4133658
0.41335645
0.4133462
0.41333502
0.4133229
0.41330981
0.4132958
0.41172987
0.41178777
0.41180916
0.41180959
0.41180734
0.41180575
0.41180388
0.4118012
0.41179773
0.41179358
0.41178876
0.41178326
0.41177706
0.41177014
0.41176248
0.41175406
0.41174494
0.41025051
0.41030724
0.41032906
0.41033139
0.41033141
0.41033219
0.41033284
0.41033286
0.41033226
0.41033114
0.41032952
0.41032739
0.41032475
0.41032157
0.41031784
0.41031357
0.41030878
0.40888689
0.40894221
0.40896425
0.40896821
0.40897018
0.40897301
0.40897585
0.40897822
0.40898013
0.40898167
0.40898287
0.40898374
0.40898425
0.4089844
0.40898419
0.40898361
0.40898272
0.40763313
0.4076869
0.40770905
0.40771445
0.40771817
0.40772285
0.40772765
0.40773213
0.4077363
0.40774025
0.407744
0.40774757
0.40775095
0.40775413
0.40775712
0.40775992
0.40776256
0.40648332
0.40653553
0.40655778
0.40656453
0.4065699
0.4065763
0.40658294
0.4065894
0.40659569
0.40660188
0.40660803
0.40661412
0.40662016
0.40662616
0.40663211
0.40663802
0.40664391
0.40543142
0.40548215
0.40550454
0.40551265
0.40551963
0.40552772
0.40553615
0.40554452
0.40555285
0.4055612
0.40556962
0.40557811
0.40558667
0.40559532
0.40560404
0.40561284
0.40562175
0.40447124
0.40452059
0.40454322
0.4045527
0.40456131
0.40457108
0.40458127
0.40459151
0.40460182
0.40461225
0.40462285
0.40463362
0.40464457
0.40465569
0.404667
0.40467848
0.40469016
0.40359653
0.40364462
0.40366755
0.40367842
0.40368863
0.40370005
0.40371196
0.40372401
0.40373621
0.40374862
0.40376127
0.40377418
0.40378734
0.40380075
0.40381442
0.40382835
0.40384253
0.40280114
0.40284803
0.4028713
0.4028835
0.40289526
0.40290824
0.40292176
0.4029355
0.40294945
0.40296368
0.40297821
0.40299306
0.40300821
0.40302368
0.40303946
0.40305554
0.40307193
0.40207917
0.40212486
0.40214841
0.40216185
0.40217501
0.4021894
0.40220437
0.40221961
0.40223511
0.40225094
0.40226711
0.40228364
0.40230051
0.40231774
0.40233531
0.40235321
0.40237145
0.40142493
0.40146933
0.40149304
0.40150755
0.40152193
0.40153751
0.4015537
0.40157018
0.40158697
0.40160411
0.40162162
0.40163951
0.40165778
0.40167641
0.4016954
0.40171474
0.40173444
0.40083278
0.40087573
0.40089945
0.4009148
0.40093014
0.40094666
0.40096378
0.40098122
0.40099898
0.40101711
0.40103563
0.40105454
0.40107384
0.40109352
0.40111358
0.40113398
0.40029699
0.40033831
0.40036183
0.40037778
0.40039382
0.40041099
0.40042875
0.40044685
0.40046529
0.4004841
0.40050331
0.40052293
0.40054296
0.40056338
0.40058419
0.40060538
0.39981184
0.39985136
0.39987449
0.39989082
0.39990731
0.3999249
0.39994306
0.39996157
0.39998044
0.3999997
0.40001938
0.40003948
0.40006001
0.40008096
0.40010233
0.40012412
0.39937204
0.39940965
0.39943227
0.39944881
0.39946559
0.39948342
0.39950182
0.39952059
0.39953973
0.39955929
0.39957929
0.39959975
0.39962066
0.39964203
0.39966387
0.39968616
0.39897323
0.3990089
0.39903094
0.39904759
0.39906455
0.39908251
0.39910105
0.39911998
0.39913931
0.39915909
0.39917933
0.39920007
0.39922129
0.39924302
0.39926525
0.39928798
0.39861221
0.39864594
0.39866735
0.39868404
0.39870108
0.39871909
0.39873769
0.39875669
0.39877612
0.39879603
0.39881644
0.39883735
0.3988588
0.39888077
0.39890329
0.39892634
0.39828679
0.39831859
0.39833932
0.39835592
0.39837293
0.39839088
0.39840939
0.39842834
0.39844774
0.39846763
0.39848803
0.39850896
0.39853043
0.39855246
0.39857506
0.39859821
0.39799545
0.39802529
0.39804523
0.39806159
0.39807839
0.39809607
0.39811432
0.398133
0.39815213
0.39817176
0.3981919
0.39821257
0.39823379
0.39825557
0.39827792
0.39830084
0.39773691
0.3977647
0.3977837
0.3977996
0.39781596
0.39783314
0.39785086
0.39786901
0.3978876
0.39790666
0.39792624
0.39794633
0.39796695
0.39798812
0.39800986
0.39803216
0.39750994
0.3975356
0.39755349
0.39756873
0.39758442
0.39760087
0.39761781
0.39763517
0.39765295
0.39767118
0.3976899
0.39770911
0.39772884
0.39774908
0.39776988
0.39779123
0.3973137
0.39733719
0.39735386
0.39736828
0.39738314
0.39739869
0.39741471
0.39743111
0.39744791
0.39746514
0.39748283
0.39750098
0.39751961
0.39753875
0.3975584
0.39757859
0.39714805
0.39716942
0.39718487
0.39719841
0.39721238
0.39722699
0.39724203
0.39725743
0.39727322
0.39728941
0.39730603
0.39732308
0.39734058
0.39735856
0.39737701
0.39739598
0.3970134
0.39703282
0.3970471
0.3970598
0.39707292
0.39708663
0.39710075
0.39711522
0.39713006
0.39714527
0.39716088
0.3971769
0.39719333
0.39721019
0.3972275
0.39724527
0.39690984
0.39692747
0.39694071
0.39695266
0.39696501
0.39697791
0.3969912
0.39700482
0.39701879
0.39703311
0.3970478
0.39706287
0.39707832
0.39709415
0.39711038
0.39712703
0.39683592
0.39685193
0.39686424
0.39687551
0.39688717
0.39689933
0.39691185
0.39692469
0.39693787
0.39695138
0.39696523
0.39697943
0.39699398
0.39700888
0.39702413
0.39703976
0.39678833
0.39680286
0.39681435
0.39682501
0.39683604
0.39684752
0.39685935
0.39687148
0.39688393
0.3968967
0.3969098
0.39692323
0.39693698
0.39695106
0.39696547
0.39698023
0.39676258
0.39677579
0.39678656
0.3967967
0.39680718
0.39681807
0.39682928
0.3968408
0.39685262
0.39686476
0.39687721
0.39688999
0.39690308
0.39691648
0.39693019
0.39675381
0.39676588
0.39677606
0.39678577
0.3967958
0.3968062
0.39681691
0.39682791
0.39683922
0.39685083
0.39686276
0.396875
0.39688756
0.39690042
0.3969136
0.39675721
0.39676833
0.39677801
0.39678737
0.39679702
0.39680702
0.39681731
0.39682788
0.39683875
0.39684992
0.39686139
0.39687317
0.39688526
0.39689765
0.39691035
0.39676852
0.3967788
0.39678802
0.39679703
0.39680631
0.39681591
0.39682579
0.39683595
0.39684638
0.3968571
0.39686812
0.39687943
0.39689104
0.39690294
0.39691514
0.39678538
0.39679483
0.3968035
0.39681206
0.39682088
0.39682999
0.39683937
0.396849
0.39685891
0.39686909
0.39687956
0.39689031
0.39690134
0.39691267
0.39692429
0.39680879
0.39681728
0.39682523
0.39683315
0.39684131
0.39684974
0.39685842
0.39686735
0.39687654
0.39688598
0.3968957
0.3969057
0.39691598
0.39692654
0.39693739
0.39684271
0.39685009
0.39685712
0.39686418
0.39687146
0.39687898
0.39688672
0.39689469
0.3969029
0.39691136
0.39692006
0.39692903
0.39693826
0.39694777
0.39695755
0.39689121
0.39689739
0.39690336
0.3969094
0.39691563
0.39692206
0.39692868
0.39693551
0.39694255
0.39694979
0.39695727
0.39696497
0.3969729
0.39698108
0.39698951
0.39695526
0.39696028
0.3969652
0.3969702
0.39697535
0.39698068
0.39698616
0.39699181
0.39699763
0.39700363
0.3970098
0.39701617
0.39702272
0.39702947
0.39703641
0.39703087
0.39703482
0.39703875
0.39704277
0.39704693
0.39705121
0.39705563
0.39706018
0.39706486
0.39706968
0.39707464
0.39707974
0.39708498
0.39709037
0.3970959
0.39711392
0.39711688
0.39711988
0.39712296
0.39712615
0.39712945
0.39713286
0.39713636
0.39713998
0.39714369
0.39714751
0.39715142
0.39715544
0.39715956
0.39716379
0.39720117
0.3972032
0.3972053
0.39720747
0.39720973
0.39721205
0.39721445
0.3972169
0.39721942
0.39722198
0.39722461
0.39722728
0.39723001
0.39723279
0.39730385
0.39730504
0.39730628
0.39730757
0.39730892
0.39731031
0.39731173
0.39731319
0.39731467
0.39731617
0.3973177
0.39731925
0.39732082
0.39732242
188.64809
213.34034
224.03312
228.81782
232.4659
237.31322
243.93576
251.61256
259.24357
265.86371
270.7816
273.60406
274.17039
272.545
268.85866
263.32551
256.18892
247.70181
238.11413
207.09112
220.44031
225.27611
228.78361
233.78324
240.84718
249.22615
257.74728
265.34517
271.2562
275.03335
276.5042
275.66761
272.66578
267.7324
261.098
253.02044
243.75221
215.72208
221.79196
225.08787
230.16776
237.70756
246.86974
256.34476
264.95312
271.85176
276.54971
278.8447
278.75006
276.40963
272.00922
265.83057
258.12845
249.15897
239.16666
217.98861
221.68429
226.62231
234.39949
244.23498
254.67014
264.34919
272.3058
277.98284
281.15196
281.80794
280.10735
276.26609
270.54099
263.20768
254.5297
244.75759
217.33353
222.40238
230.42861
240.9927
252.48597
263.3491
272.4704
279.21599
283.3277
284.80334
283.78579
280.51125
275.26127
268.30928
259.93127
250.38607
239.91388
217.13392
225.64805
237.02546
249.67826
261.8446
272.24971
280.17077
285.31432
287.67114
287.40056
284.75243
280.00209
273.45594
265.39678
256.09271
245.79123
219.72681
232.14275
246.09766
259.7124
271.54389
280.76806
287.05175
290.38088
290.92525
288.94891
284.75455
278.65097
270.93921
261.89852
251.78575
240.83562
226.05461
241.56688
256.81774
270.24325
280.91977
288.47089
292.87805
294.32443
293.09293
289.5058
283.89057
276.5619
267.81298
257.91135
247.09949
235.80517
252.97762
268.2082
280.51387
289.48336
295.09493
297.54743
297.14596
294.2351
289.16275
282.2614
273.83931
264.17702
253.5272
242.11783
247.92146
265.25414
279.40828
289.97618
296.9437
300.52834
301.06027
298.90975
294.44804
288.02809
279.97576
270.58664
260.12595
248.83048
261.10345
277.40986
289.80114
298.30833
303.17866
304.77086
303.48408
299.71649
293.8447
286.21499
277.14049
266.90137
255.74681
243.8995
274.22539
288.75437
299.03424
305.37956
308.1889
307.8943
304.92452
299.68377
292.54228
283.83375
273.8559
262.87258
251.1169
238.79649
286.52263
298.90625
306.97052
311.19332
312.05168
310.00984
305.504
298.9328
290.6544
280.98742
270.21345
258.58021
246.30541
297.59032
307.72595
313.61866
315.83369
314.88439
311.24498
305.34779
297.58046
288.28678
277.76972
266.29503
254.09525
241.37555
307.29214
315.2303
319.07098
319.42493
316.81987
311.72911
304.57596
295.735
285.53521
274.26425
262.17279
249.47887
236.37457
315.65678
321.52125
323.45907
322.10529
317.99153
311.58536
303.29919
293.4942
282.48499
270.54471
257.90984
244.78483
322.79727
326.73793
326.92652
324.01207
318.52541
310.92667
301.61711
290.94495
279.2112
266.67546
253.56123
240.06235
328.86117
331.0292
329.61431
325.27402
318.53657
309.85439
299.61806
288.16359
275.77931
262.71219
249.17353
235.3463
334.00319
334.53957
331.6537
326.00811
318.12789
308.45819
297.37956
285.21668
272.24607
258.70293
244.78697
230.67037
338.37142
337.40252
333.16331
326.31851
317.39012
306.81656
294.96913
282.16192
268.66046
254.689
240.43626
342.1014
339.73798
334.24834
326.29682
316.40254
304.99781
292.44526
279.04909
265.06459
250.70598
236.15396
345.31357
341.65158
335.00073
326.02266
315.23384
303.0609
289.85833
275.92094
261.49435
246.78338
231.95998
348.1125
343.23475
335.49977
325.56453
313.94297
301.05638
287.25142
272.81392
257.98033
242.94655
227.87605
350.58707
344.56521
335.81277
324.98055
312.57995
299.02706
284.661
269.75886
254.54831
239.21688
223.92001
352.81112
345.70768
335.99577
324.31916
311.18644
297.00857
282.11731
266.78132
251.21972
235.61202
220.10629
354.84463
346.71458
336.09409
323.61962
309.79625
295.02972
279.64479
263.90192
248.01182
232.14606
216.44606
356.73583
347.62702
336.14307
322.91262
308.43589
293.11301
277.26221
261.13649
244.93792
228.8297
212.94726
358.52087
348.47592
336.16938
322.2215
307.12576
291.2755
274.98326
258.49617
242.00768
225.67094
209.61558
360.22945
349.28619
336.194
321.56494
305.88273
289.53145
272.81838
255.98787
239.22673
222.676
206.45767
361.88745
350.08312
336.23687
320.95949
304.7232
287.89691
270.78142
253.61689
236.59321
219.8454
203.47946
363.53617
350.90367
336.32518
320.42309
303.65768
286.387
268.90093
251.42059
234.12762
217.18008
200.67397
184.69347
365.20018
351.79626
336.53767
320.03817
302.75395
285.03729
267.19989
249.44612
231.91913
214.76772
198.09986
181.99388
366.98002
352.80315
336.87565
319.80841
302.04174
283.91555
265.69883
247.64807
229.9023
212.57946
195.77337
179.54965
369.00368
354.07159
337.46259
319.80639
301.53111
282.99835
264.44374
246.0758
228.07511
210.56072
193.61046
177.28216
370.80983
355.26263
338.09195
319.91086
301.16507
282.21072
263.3316
244.68819
226.44542
208.71799
191.60366
175.15814
159.42452
372.20503
356.10991
338.45005
319.84246
300.73044
281.43832
262.24147
243.34838
224.89876
207.00477
189.75226
173.19967
157.38937
373.65446
357.00385
338.85543
319.82525
300.34488
280.74683
261.28375
242.15597
223.50887
205.45157
188.06691
171.41096
155.51835
375.26263
358.05697
339.42886
319.98805
300.14773
280.23494
260.50092
241.14094
222.30106
204.08203
186.56367
169.80203
153.83148
138.67388
376.99616
359.25518
340.16763
320.33084
300.14395
279.92461
259.92118
240.32407
221.28555
202.90449
185.24985
168.37653
152.31866
137.09576
378.80612
360.56553
341.04366
320.83546
300.32064
279.80858
259.54495
239.71601
220.47051
201.92119
184.12831
167.13849
150.98595
135.68456
380.65512
361.95591
342.03385
321.48267
300.6642
279.87782
259.36504
239.31358
219.86344
201.13389
183.1996
166.0905
149.83822
134.45902
119.95624
382.52359
363.40342
343.11932
322.25762
301.16251
280.12362
259.3771
239.11116
219.46608
200.55125
182.46284
165.23275
148.87531
133.40923
118.83389
384.39705
364.89354
344.28548
323.14797
301.80572
280.53841
259.57686
239.10733
219.27439
200.18154
181.92493
164.56488
148.09964