/*--------------------------------*- C++ -*----------------------------------*\
| =========                 |                                                 |
| \\      /  F ield         | OpenFOAM: The Open Source CFD Toolbox           |
|  \\    /   O peration     | Version:  2406                                  |
|   \\  /    A nd           | Website:  www.openfoam.com                      |
|    \\/     M anipulation  |                                                 |
\*---------------------------------------------------------------------------*/
FoamFile
{
    version     2.0;
    format      ascii;
    arch        "LSB;label=32;scalar=64";
    class       volScalarField;
    location    "0.005";
    object      p;
}
// * * * * * * * * * * * * * * * * * * * * * * * * * * * * * * * * * * * * * //

dimensions      [1 -1 -2 0 0 0 0];

internalField   nonuniform List<scalar> 
23203
(
100563.88
100542.08
100548.64
100549.36
100550.2
100554.69
100563.22
100575.38
100590.75
100608.86
100628.95
100650.09
100672.09
100695.28
100713.09
100737.7
100765.47
100787.63
100808.23
100722.71
100712.71
100710.81
100704.32
100698.7
100696.53
100697.78
100702.11
100709.26
100718.87
100730.5
100743.98
100759.25
100770.74
100781.09
100803.59
100824.98
100841.27
100857.03
100827.98
100820.45
100812.4
100801.48
100793.25
100788.82
100787.61
100789.15
100793.17
100799.35
100807.36
100817.19
100828.51
100834.19
100842.29
100862.12
100878.84
100891.28
100903.55
100924.26
100916.74
100906.54
100893.36
100883.02
100876.39
100872.78
100871.71
100872.89
100875.99
100880.79
100887.32
100894.83
100896.05
100902.34
100918.72
100930.8
100939.75
100948.74
101016.67
101009.34
100998.23
100983.63
100971.53
100962.83
100956.86
100953.17
100951.45
100951.46
100953.05
100956.42
100959.62
100956.22
100961.56
100974
100981.54
100987.12
100992.98
101105.12
101098.17
101086.58
101070.97
101057.4
101046.84
101038.65
101032.4
101027.87
101024.86
101023.48
101024.1
101020.86
101014.4
101020.35
101027.84
101030.95
101033.33
101036.22
101189.93
101183.38
101171.46
101155.02
101140.14
101127.81
101117.46
101108.72
101101.42
101095.48
101091.08
101088.15
101079.74
101072.89
101077.04
101079.38
101078.77
101078.17
101078.32
101271.55
101265.27
101252.99
101235.74
101219.53
101205.42
101192.9
101181.67
101171.63
101162.78
101155.34
101149.13
101137.44
101129.49
101130.58
101128.69
101124.96
101121.33
101119.11
101350.14
101343.86
101331.04
101312.81
101295.16
101279.18
101264.44
101250.73
101238.02
101226.37
101216.01
101206.77
101192.89
101183.51
101181.02
101175.85
101168.92
101162.14
101158.42
101425.67
101418.88
101405.16
101385.68
101366.38
101348.42
101331.46
101315.34
101300.1
101285.84
101272.69
101260.52
101245.48
101234.68
101228.16
101220.18
101209.49
101200.8
101195.71
101497.75
101489.65
101474.52
101453.49
101432.38
101412.41
101393.31
101374.99
101357.49
101340.87
101325.08
101309.96
101295.16
101282.58
101271.21
101259.98
101248.73
101239.55
101231.47
101565.65
101555.04
101537.97
101515.21
101492.29
101470.44
101449.44
101429.19
101409.74
101391.1
101373.24
101356.14
101339.93
101324.97
101311.18
101298.26
101286.19
101275.39
101265.76
101627.95
101613.49
101594.07
101569.7
101545.2
101521.74
101499.12
101477.23
101456.1
101435.76
101416.26
101397.68
101380.15
101363.81
101348.63
101334.53
101321.5
101309.63
101298.85
101682.27
101663.05
101641.3
101615.78
101590.14
101565.47
101541.66
101518.6
101496.35
101474.98
101454.58
101435.21
101416.94
101399.8
101383.78
101368.85
101354.98
101342.18
101330.4
101726.19
101702.56
101678.96
101653.03
101627.02
101601.89
101577.65
101554.24
101531.68
101510.04
101489.35
101469.65
101450.97
101433.33
101416.72
101401.14
101386.59
101373.05
101360.5
101759.48
101733.42
101708.97
101683.43
101657.87
101633.06
101609.09
101585.9
101563.48
101541.89
101521.16
101501.34
101482.44
101464.49
101447.51
101431.48
101416.42
101402.29
101389.1
101784.52
101758.51
101734.24
101709.46
101684.72
101660.56
101637.08
101614.29
101592.19
101570.82
101550.22
101530.44
101511.5
101493.42
101476.22
101459.89
101444.44
101429.88
101416.19
101804.2
101779.43
101755.89
101731.98
101708.12
101684.73
101661.91
101639.67
101618.03
101597.04
101576.73
101557.13
101538.28
101520.2
101502.9
101486.4
101470.71
101455.83
101441.77
101820.17
101796.87
101774.33
101751.38
101728.48
101705.96
101683.91
101662.34
101641.27
101620.75
101600.82
101581.51
101562.86
101544.88
101527.61
101511.06
101495.24
101480.16
101465.84
101833.23
101811.4
101789.96
101768.05
101746.15
101724.56
101703.33
101682.49
101662.06
101642.09
101622.63
101603.69
101585.33
101567.56
101550.42
101533.91
101518.07
101502.9
101488.43
101843.94
101823.42
101803.09
101782.25
101761.36
101740.71
101720.35
101700.28
101680.55
101661.2
101642.27
101623.79
101605.8
101588.32
101571.39
101555.03
101539.25
101524.09
101509.55
101852.4
101833.1
101813.91
101794.17
101774.34
101754.65
101735.16
101715.91
101696.92
101678.23
101659.89
101641.92
101624.37
101607.25
101590.61
101574.47
101558.84
101543.77
101529.26
101859.51
101841.19
101822.93
101804.19
101785.34
101766.59
101747.98
101729.55
101711.32
101693.33
101675.61
101658.21
101641.14
101624.45
101608.17
101592.31
101576.91
101561.99
101547.59
101865.07
101847.73
101830.31
101812.47
101794.54
101776.69
101758.96
101741.36
101723.91
101706.64
101689.58
101672.77
101656.24
101640.02
101624.14
101608.63
101593.52
101578.82
101564.58
101868.45
101851.78
101835.32
101818.65
101801.85
101785.02
101768.21
101751.47
101734.81
101718.29
101701.92
101685.74
101669.77
101654.06
101638.63
101623.51
101608.73
101594.32
101580.3
101872.13
101855.39
101838.92
101823.12
101807.51
101791.77
101775.92
101760.04
101744.19
101728.42
101712.74
101697.21
101681.83
101666.66
101651.71
101637.02
101622.62
101608.53
101594.79
101872.25
101859.65
101843.51
101827.14
101811.98
101797.2
101782.3
101767.27
101752.2
101737.16
101722.19
101707.3
101692.53
101677.92
101663.48
101649.25
101635.26
101621.53
101608.1
101870.57
101859.05
101847.01
101831.58
101815.96
101801.53
101787.46
101773.3
101759.01
101744.68
101730.39
101716.14
101701.99
101687.93
101674.02
101660.27
101646.72
101633.38
101620.3
101869.9
101857.71
101846.6
101834.9
101820.12
101805.29
101791.58
101778.19
101764.7
101751.1
101737.47
101723.86
101710.3
101696.82
101683.44
101670.18
101657.08
101644.16
101631.45
101868.57
101857.09
101845.25
101834.48
101823.27
101809.19
101795.14
101782.11
101769.36
101756.51
101743.55
101730.55
101717.59
101704.67
101691.82
101679.06
101666.42
101653.93
101641.6
101866.66
101855.95
101844.72
101833.22
101822.93
101812.18
101798.77
101785.5
101773.15
101760.99
101748.71
101736.33
101723.94
101711.57
101699.24
101686.98
101674.81
101662.76
101650.83
101864.27
101854.28
101843.75
101832.82
101821.82
101812.03
101801.6
101788.84
101776.42
101764.68
101753.04
101741.28
101729.44
101717.6
101705.79
101694.02
101682.32
101670.7
101659.19
101861.5
101852.17
101842.31
101832.06
101821.61
101811.15
101801.83
101791.64
101779.45
101767.8
101756.6
101745.42
101734.15
101722.83
101711.52
101700.23
101689
101677.82
101666.72
101858.44
101849.7
101840.46
101830.85
101821.05
101811.11
101801.16
101792.32
101782.38
101770.57
101759.47
101748.73
101738.03
101727.28
101716.48
101705.68
101694.9
101684.17
101673.48
101855.12
101846.93
101838.25
101829.22
101820.02
101810.67
101801.18
101791.68
101783.25
101773.8
101762.35
101751.41
101741.01
101730.86
101720.67
101710.39
101700.09
101689.79
101679.52
101851.58
101843.89
101835.72
101827.22
101818.56
101809.75
101800.79
101791.68
101782.57
101774.53
101765.89
101754.56
101743.47
101733.64
101724.07
101714.38
101704.59
101694.75
101684.9
101847.86
101840.62
101832.92
101824.91
101816.73
101808.4
101799.92
101791.28
101782.47
101773.61
101765.72
101757.48
101746.91
101736.61
101727.15
101717.87
101708.54
101699.14
101843.98
101837.16
101829.89
101822.33
101814.61
101806.75
101798.74
101790.59
101782.31
101773.92
101765.3
101756.24
101748.05
101739.95
101730.77
101721.25
101712.1
101703.05
101839.96
101833.53
101826.66
101819.53
101812.24
101804.81
101797.23
101789.53
101781.7
101773.76
101765.79
101758.34
101749.86
101740.4
101732
101723.82
101715.21
101706.45
101835.84
101829.75
101823.27
101816.53
101809.63
101802.6
101795.41
101788.07
101780.55
101772.81
101764.99
101758.41
101751.99
101743.39
101734.13
101725.43
101717.17
101709
101831.63
101825.87
101819.74
101813.37
101806.85
101800.2
101793.4
101786.45
101779.34
101772.07
101764.63
101757.09
101750.41
101744.72
101737.31
101728
101719.15
101711.21
101827.36
101821.92
101816.11
101810.09
101803.94
101797.66
101791.24
101784.7
101778.03
101771.24
101764.36
101757.42
101750.37
101743.01
101736.41
101729.77
101721.6
101713.46
101823.04
101817.89
101812.4
101806.71
101800.89
101794.95
101788.87
101782.68
101776.36
101769.92
101763.36
101756.7
101749.91
101743.1
101736.24
101730.18
101723.52
101715.39
101818.68
101813.81
101808.61
101803.24
101797.73
101792.11
101786.37
101780.5
101774.52
101768.43
101762.23
101755.92
101749.52
101743.02
101736.42
101729.82
101724.05
101717.62
101814.28
101809.67
101804.75
101799.67
101794.47
101789.15
101783.71
101778.15
101772.48
101766.7
101760.81
101754.81
101748.72
101742.52
101736.24
101729.86
101723.47
101717.83
101809.85
101805.48
101800.83
101796.02
101791.09
101786.06
101780.9
101775.64
101770.25
101764.76
101759.16
101753.45
101747.64
101741.73
101735.73
101729.62
101723.42
101717.14
101805.4
101801.26
101796.85
101792.3
101787.63
101782.86
101777.98
101772.98
101767.87
101762.65
101757.33
101751.9
101746.36
101740.73
101734.99
101729.15
101723.2
101717.13
101800.95
101797.03
101792.84
101788.52
101784.11
101779.58
101774.95
101770.21
101765.36
101760.4
101755.34
101750.17
101744.91
101739.54
101734.08
101728.52
101722.86
101717.1
101796.51
101792.78
101788.81
101784.71
101780.52
101776.23
101771.84
101767.33
101762.73
101758.02
101753.21
101748.29
101743.28
101738.17
101732.97
101727.66
101722.27
101716.78
101792.07
101788.53
101784.76
101780.87
101776.9
101772.82
101768.65
101764.38
101760.01
101755.53
101750.96
101746.29
101741.52
101736.66
101731.71
101726.67
101721.55
101716.35
101787.65
101784.28
101780.7
101777.01
101773.23
101769.37
101765.4
101761.35
101757.19
101752.94
101748.6
101744.16
101739.62
101734.99
101730.28
101725.47
101720.58
101715.61
101783.23
101780.04
101776.63
101773.12
101769.54
101765.86
101762.1
101758.25
101754.3
101750.26
101746.13
101741.91
101737.6
101733.19
101728.7
101724.12
101719.45
101714.71
101778.84
101775.8
101772.56
101769.22
101765.81
101762.32
101758.75
101755.08
101751.33
101747.49
101743.56
101739.55
101735.45
101731.26
101726.98
101722.62
101718.18
101713.65
101774.46
101771.56
101768.48
101765.31
101762.07
101758.75
101755.35
101751.87
101748.3
101744.65
101740.91
101737.09
101733.18
101729.19
101725.12
101720.97
101716.73
101712.42
101770.09
101767.34
101764.41
101761.39
101758.31
101755.16
101751.92
101748.61
101745.21
101741.74
101738.18
101734.54
101730.83
101727.03
101723.15
101719.19
101715.15
101711.04
101765.74
101763.12
101760.33
101757.46
101754.53
101751.53
101748.46
101745.3
101742.07
101738.77
101735.38
101731.92
101728.38
101724.76
101721.06
101717.29
101713.44
101709.51
101761.41
101758.92
101756.26
101753.53
101750.74
101747.89
101744.96
101741.96
101738.89
101735.74
101732.52
101729.22
101725.85
101722.4
101718.88
101715.28
101711.61
101707.86
101757.1
101754.73
101752.2
101749.6
101746.95
101744.23
101741.44
101738.58
101735.66
101732.66
101729.59
101726.45
101723.24
101719.96
101716.6
101713.17
101709.67
101706.1
101752.81
101750.55
101748.14
101745.67
101743.14
101740.55
101737.9
101735.18
101732.39
101729.53
101726.61
101723.62
101720.56
101717.43
101714.23
101710.96
101707.62
101704.22
101748.54
101746.39
101744.09
101741.74
101739.34
101736.87
101734.34
101731.75
101729.1
101726.38
101723.59
101720.74
101717.82
101714.83
101711.78
101708.66
101705.48
101702.22
101744.29
101742.24
101740.06
101737.82
101735.53
101733.18
101730.78
101728.31
101725.78
101723.19
101720.53
101717.81
101715.03
101712.18
101709.26
101706.28
101703.24
101700.13
101740.06
101738.11
101736.02
101733.89
101731.71
101729.48
101727.19
101724.84
101722.43
101719.96
101717.43
101714.84
101712.19
101709.47
101706.69
101703.85
101700.94
101697.97
101735.84
101733.98
101732
101729.97
101727.89
101725.77
101723.59
101721.35
101719.05
101716.7
101714.29
101711.82
101709.29
101706.7
101704.05
101701.34
101698.57
101695.74
101731.64
101729.87
101727.97
101726.04
101724.07
101722.04
101719.96
101717.83
101715.65
101713.41
101711.11
101708.76
101706.35
101703.88
101701.36
101698.77
101696.13
101693.42
101727.45
101725.76
101723.96
101722.12
101720.23
101718.31
101716.33
101714.3
101712.21
101710.08
101707.89
101705.65
101703.35
101701
101698.59
101696.13
101693.61
101691.03
101723.28
101721.67
101719.95
101718.19
101716.4
101714.56
101712.68
101710.74
101708.75
101706.72
101704.63
101702.49
101700.3
101698.06
101695.77
101693.42
101691.01
101688.55
101719.12
101717.59
101715.95
101714.27
101712.57
101710.81
101709.01
101707.17
101705.28
101703.34
101701.35
101699.31
101697.22
101695.08
101692.89
101690.65
101688.35
101686.01
101714.98
101713.51
101711.95
101710.36
101708.73
101707.06
101705.34
101703.58
101701.78
101699.93
101698.03
101696.09
101694.1
101692.06
101689.97
101687.83
101685.64
101683.4
101710.84
101709.45
101707.96
101706.44
101704.89
101703.3
101701.66
101699.99
101698.27
101696.5
101694.7
101692.84
101690.94
101689
101687.01
101684.97
101682.88
101680.74
101706.71
101705.38
101703.96
101702.52
101701.04
101699.52
101697.97
101696.37
101694.73
101693.06
101691.33
101689.57
101687.76
101685.9
101684
101682.06
101680.07
101678.03
101702.59
101701.32
101699.97
101698.59
101697.19
101695.74
101694.26
101692.74
101691.18
101689.58
101687.94
101686.26
101684.54
101682.77
101680.96
101679.1
101677.21
101675.26
101698.47
101697.26
101695.98
101694.66
101693.32
101691.95
101690.54
101689.09
101687.61
101686.08
101684.52
101682.92
101681.28
101679.59
101677.87
101676.1
101674.29
101672.44
101694.35
101693.21
101691.98
101690.73
101689.45
101688.15
101686.8
101685.43
101684.01
101682.56
101681.07
101679.55
101677.99
101676.38
101674.74
101673.06
101671.33
101669.57
101690.24
101689.15
101687.98
101686.79
101685.58
101684.33
101683.06
101681.75
101680.4
101679.02
101677.6
101676.15
101674.66
101673.13
101671.57
101669.97
101668.33
101666.64
101686.13
101685.09
101683.98
101682.85
101681.7
101680.51
101679.3
101678.05
101676.77
101675.46
101674.11
101672.73
101671.31
101669.85
101668.36
101666.84
101665.27
101663.67
101682.03
101681.04
101679.98
101678.91
101677.81
101676.68
101675.53
101674.34
101673.12
101671.87
101670.59
101669.28
101667.93
101666.54
101665.12
101663.67
101662.18
101677.93
101676.99
101675.98
101674.96
101673.92
101672.85
101671.75
101670.62
101669.47
101668.28
101667.06
101665.8
101664.52
101663.2
101661.85
101660.47
101659.05
101673.84
101672.95
101671.99
101671.02
101670.03
101669.01
101667.97
101666.9
101665.79
101664.66
101663.5
101662.31
101661.09
101659.83
101658.55
101657.23
101655.88
101669.76
101668.91
101668
101667.08
101666.14
101665.17
101664.18
101663.16
101662.11
101661.03
101659.93
101658.79
101657.63
101656.44
101655.21
101653.96
101652.67
101665.68
101664.87
101664.01
101663.13
101662.24
101661.32
101660.37
101659.4
101658.41
101657.38
101656.33
101655.26
101654.15
101653.01
101651.85
101650.65
101649.42
101661.6
101660.84
101660.01
101659.18
101658.33
101657.46
101656.56
101655.64
101654.69
101653.72
101652.72
101651.69
101650.64
101649.56
101648.45
101647.31
101646.14
101657.53
101656.8
101656.02
101655.22
101654.41
101653.58
101652.73
101651.85
101650.95
101650.03
101649.08
101648.1
101647.1
101646.07
101645.01
101643.93
101642.82
101653.45
101652.76
101652.01
101651.26
101650.49
101649.7
101648.89
101648.05
101647.2
101646.32
101645.41
101644.48
101643.53
101642.55
101641.55
101640.52
101639.46
101649.37
101648.71
101648
101647.28
101646.55
101645.8
101645.03
101644.24
101643.42
101642.58
101641.72
101640.84
101639.93
101639
101638.05
101637.07
101636.06
101645.29
101644.66
101643.98
101643.3
101642.61
101641.89
101641.16
101640.4
101639.63
101638.83
101638.01
101637.17
101636.31
101635.43
101634.52
101633.58
101632.62
101641.2
101640.6
101639.96
101639.31
101638.65
101637.97
101637.27
101636.55
101635.81
101635.06
101634.28
101633.48
101632.66
101631.82
101630.95
101630.06
101629.15
101637.1
101636.53
101635.92
101635.3
101634.67
101634.03
101633.36
101632.68
101631.98
101631.26
101630.52
101629.76
101628.98
101628.18
101627.35
101626.51
101625.64
101632.99
101632.45
101631.87
101631.28
101630.68
101630.07
101629.44
101628.79
101628.12
101627.44
101626.73
101626.01
101625.27
101624.5
101623.72
101622.91
101622.09
101628.87
101628.35
101627.8
101627.24
101626.68
101626.09
101625.49
101624.87
101624.24
101623.59
101622.92
101622.23
101621.52
101620.8
101620.05
101619.29
101618.5
101624.73
101624.24
101623.72
101623.19
101622.65
101622.09
101621.52
101620.94
101620.33
101619.71
101619.08
101618.42
101617.75
101617.06
101616.35
101615.62
101614.88
101620.58
101620.12
101619.62
101619.11
101618.6
101618.07
101617.53
101616.97
101616.4
101615.81
101615.21
101614.59
101613.95
101613.29
101612.62
101611.93
101611.21
101616.42
101615.98
101615.5
101615.02
101614.54
101614.03
101613.52
101612.99
101612.45
101611.89
101611.31
101610.72
101610.12
101609.49
101608.85
101608.19
101607.52
101612.24
101611.82
101611.37
101610.91
101610.45
101609.98
101609.49
101608.98
101608.47
101607.94
101607.39
101606.83
101606.25
101605.66
101605.05
101604.43
101603.79
101608.05
101607.65
101607.22
101606.79
101606.35
101605.9
101605.44
101604.96
101604.47
101603.96
101603.44
101602.91
101602.36
101601.8
101601.22
101600.63
101600.02
101603.85
101603.47
101603.07
101602.66
101602.24
101601.81
101601.37
101600.91
101600.45
101599.97
101599.47
101598.97
101598.45
101597.91
101597.36
101596.8
101596.22
101599.64
101599.28
101598.89
101598.5
101598.11
101597.7
101597.28
101596.85
101596.4
101595.95
101595.48
101595
101594.5
101594
101593.47
101592.94
101592.39
101595.41
101595.07
101594.7
101594.33
101593.96
101593.57
101593.17
101592.76
101592.34
101591.91
101591.46
101591
101590.53
101590.05
101589.56
101589.05
101588.52
101591.17
101590.84
101590.49
101590.14
101589.79
101589.42
101589.04
101588.65
101588.25
101587.84
101587.42
101586.98
101586.54
101586.08
101585.61
101585.12
101584.62
101586.9
101586.59
101586.26
101585.93
101585.59
101585.24
101584.88
101584.51
101584.13
101583.74
101583.34
101582.93
101582.51
101582.07
101581.62
101581.16
101582.61
101582.32
101582
101581.69
101581.37
101581.04
101580.7
101580.35
101579.99
101579.62
101579.23
101578.84
101578.44
101578.03
101577.6
101577.17
101578.3
101578.02
101577.72
101577.42
101577.11
101576.8
101576.48
101576.15
101575.8
101575.45
101575.09
101574.72
101574.34
101573.95
101573.54
101573.13
101573.96
101573.7
101573.41
101573.13
101572.84
101572.54
101572.23
101571.92
101571.59
101571.26
101570.92
101570.56
101570.2
101569.83
101569.44
101569.05
101569.61
101569.36
101569.09
101568.81
101568.54
101568.26
101567.96
101567.66
101567.36
101567.04
101566.71
101566.38
101566.03
101565.68
101565.31
101564.94
101565.24
101565
101564.74
101564.49
101564.22
101563.95
101563.68
101563.39
101563.1
101562.8
101562.49
101562.17
101561.84
101561.5
101561.16
101560.8
101560.86
101560.63
101560.39
101560.15
101559.9
101559.64
101559.38
101559.11
101558.83
101558.54
101558.25
101557.95
101557.63
101557.31
101556.98
101556.64
101556.49
101556.27
101556.04
101555.81
101555.57
101555.33
101555.08
101554.82
101554.56
101554.28
101554
101553.72
101553.42
101553.12
101552.8
101552.48
101552.12
101551.92
101551.7
101551.48
101551.25
101551.02
101550.78
101550.54
101550.29
101550.03
101549.76
101549.49
101549.21
101548.92
101548.62
101548.32
101547.77
101547.58
101547.37
101547.16
101546.95
101546.73
101546.51
101546.28
101546.04
101545.79
101545.54
101545.28
101545.01
101544.74
101544.46
101544.16
101543.46
101543.27
101543.08
101542.88
101542.68
101542.47
101542.26
101542.04
101541.81
101541.58
101541.34
101541.09
101540.84
101540.58
101540.31
101540.03
101539.18
101539
101538.82
101538.63
101538.44
101538.24
101538.04
101537.83
101537.61
101537.39
101537.17
101536.93
101536.69
101536.45
101536.19
101535.93
101534.94
101534.78
101534.6
101534.42
101534.24
101534.06
101533.86
101533.67
101533.46
101533.25
101533.04
101532.81
101532.59
101532.35
101532.11
101531.86
101530.77
101530.61
101530.44
101530.27
101530.1
101529.93
101529.74
101529.55
101529.36
101529.16
101528.96
101528.75
101528.53
101528.31
101528.08
101527.84
101526.66
101526.51
101526.35
101526.19
101526.03
101525.86
101525.69
101525.51
101525.33
101525.14
101524.94
101524.74
101524.53
101524.32
101524.1
101523.88
101522.64
101522.5
101522.34
101522.19
101522.04
101521.88
101521.71
101521.54
101521.37
101521.19
101521
101520.81
101520.61
101520.41
101520.2
101519.99
101518.7
101518.57
101518.43
101518.28
101518.13
101517.98
101517.82
101517.66
101517.49
101517.32
101517.15
101516.96
101516.78
101516.58
101516.39
101514.87
101514.74
101514.61
101514.47
101514.33
101514.18
101514.03
101513.88
101513.72
101513.56
101513.39
101513.22
101513.04
101512.85
101512.66
101511.15
101511.03
101510.9
101510.77
101510.63
101510.49
101510.35
101510.2
101510.05
101509.9
101509.74
101509.57
101509.4
101509.22
101509.04
101507.55
101507.43
101507.31
101507.18
101507.06
101506.92
101506.79
101506.65
101506.5
101506.35
101506.2
101506.04
101505.87
101505.71
101505.53
101504.08
101503.97
101503.85
101503.73
101503.6
101503.48
101503.35
101503.21
101503.07
101502.93
101502.78
101502.63
101502.47
101502.31
101502.14
101500.75
101500.64
101500.52
101500.41
101500.29
101500.16
101500.04
101499.91
101499.77
101499.63
101499.49
101499.34
101499.19
101499.04
101498.87
101497.55
101497.45
101497.34
101497.23
101497.11
101496.99
101496.87
101496.74
101496.61
101496.48
101496.34
101496.2
101496.05
101495.9
101495.74
101494.51
101494.4
101494.3
101494.19
101494.08
101493.96
101493.84
101493.72
101493.6
101493.47
101493.33
101493.19
101493.05
101492.9
101492.75
101491.61
101491.51
101491.41
101491.3
101491.19
101491.08
101490.97
101490.85
101490.72
101490.6
101490.47
101490.33
101490.19
101490.05
101489.9
101488.83
101488.73
101488.63
101488.53
101488.42
101488.31
101488.2
101488.08
101487.96
101487.84
101487.71
101487.58
101487.44
101487.3
101487.16
101486.25
101486.16
101486.06
101485.96
101485.85
101485.75
101485.64
101485.52
101485.4
101485.28
101485.16
101485.03
101484.9
101484.76
101484.62
101483.71
101483.62
101483.52
101483.42
101483.32
101483.21
101483.1
101482.99
101482.87
101482.75
101482.62
101482.49
101482.36
101482.22
101480.94
101480.85
101480.75
101480.65
101480.55
101480.44
101480.33
101480.22
101480.11
101479.99
101479.86
101479.74
101479.61
101479.47
99866.828
99864.093
99874.548
99890.724
99908.887
99928.106
99948.096
99968.092
99987.028
100005.66
100024.57
100044.26
100065.07
100087.22
100110.78
100135.77
100162.12
100189.74
100218.52
99892.621
99904.124
99921.506
99941.715
99959.99
99974.905
99988.452
100002.52
100017.19
100032.78
100049.9
100068.76
100089.36
100111.6
100135.35
100160.5
100186.92
100214.47
99904.865
99913.953
99927.683
99942.964
99957.779
99971.827
99985.654
100000.34
100016.42
100033.87
100052.78
100073.19
100095.08
100118.42
100143.11
100169.08
100196.23
100224.41
99913.596
99922.354
99935.677
99950.372
99964.346
99977.606
99991.003
100005.46
100021.4
100038.89
100058.01
100078.75
100101.08
100124.91
100150.14
100176.66
100204.33
99920.795
99928.885
99940.4
99953.232
99965.706
99978.274
99991.808
100006.82
100023.45
100041.74
100061.69
100083.26
100106.39
100130.99
100156.95
100184.14
100212.41
99925.368
99932.381
99942.389
99954.02
99965.919
99978.512
99992.45
100008.03
100025.33
100044.36
100065.1
100087.49
100111.44
100136.83
100163.54
100191.43
99926.982
99933.088
99941.878
99952.652
99964.318
99977.175
99991.679
100008
100026.15
100046.1
100067.79
100091.11
100115.97
100142.24
100169.76
100198.4
99925.321
99930.676
99938.717
99949.142
99961.002
99974.443
99989.751
100007
100026.16
100047.15
100069.89
100094.25
100120.09
100147.29
100175.68
99920.46
99925.315
99933.085
99943.624
99956.033
99970.324
99986.652
100005.02
100025.35
100047.53
100071.43
100096.91
100123.83
100152.03
100181.33
99912.282
99916.999
99924.972
99936.075
99949.391
99964.814
99982.401
100002.09
100023.76
100047.26
100072.45
100099.17
100127.24
100156.49
99900.678
99905.73
99914.394
99926.507
99941.09
99957.941
99977.034
99998.256
100021.44
100046.43
100073.02
100101.06
100130.35
100160.73
99885.535
99891.461
99901.335
99914.917
99931.148
99949.741
99970.604
99993.578
100018.47
100045.07
100073.19
100102.64
100133.23
100164.77
99866.747
99874.155
99885.803
99901.339
99919.616
99940.28
99963.185
99988.134
100014.9
100043.27
100073.03
100103.98
100135.93
99844.237
99853.815
99867.846
99885.845
99906.584
99929.656
99954.878
99982.021
100010.84
100041.11
100072.62
100105.14
100138.5
99818.014
99830.521
99847.58
99868.564
99892.185
99918.004
99945.81
99975.358
100006.4
100038.69
100072.02
100106.19
100141.01
99788.189
99804.441
99825.198
99849.69
99876.605
99905.495
99936.136
99968.28
100001.68
100036.1
100071.34
100107.21
99755.035
99775.875
99800.986
99829.487
99860.082
99892.337
99926.036
99960.942
99996.821
100033.46
100070.67
100108.26
99719.014
99745.259
99775.334
99808.29
99842.9
99878.772
99915.714
99953.515
99991.967
100030.88
100070.09
100109.44
99680.787
99713.166
99748.722
99786.5
99825.393
99865.074
99905.394
99946.182
99987.266
100028.49
100069.72
100110.83
99641.2
99680.294
99721.715
99764.57
99807.926
99851.54
99895.318
99939.138
99982.876
100026.42
100069.65
99601.238
99647.426
99694.931
99742.994
99790.893
99838.485
99885.738
99932.588
99978.962
100024.79
100070
99561.96
99615.395
99669.02
99722.283
99774.698
99826.23
99876.91
99926.736
99975.688
100023.74
100070.88
99524.434
99585.036
99644.634
99702.948
99759.748
99815.099
99869.094
99921.789
99973.221
100023.41
100072.37
99489.682
99557.148
99622.399
99685.483
99746.434
99805.404
99862.539
99917.948
99971.723
100023.93
100074.61
99458.639
99532.462
99602.891
99670.349
99735.126
99797.447
99857.49
99915.413
99971.359
100025.43
100077.7
99432.124
99511.611
99586.618
99657.956
99726.161
99791.509
99854.185
99914.378
99972.295
100028.05
100081.72
99410.849
99495.164
99574.046
99648.677
99719.847
99787.857
99852.841
99915.018
99974.687
100031.94
100086.75
99395.48
99483.767
99565.644
99642.843
99716.453
99786.716
99853.593
99917.383
99978.633
100037.31
100093.03
99386.144
99477.61
99561.578
99640.554
99716.1
99788.299
99856.548
99921.347
99984.108
100044.53
100101.49
99384.167
99477.094
99561.63
99641.448
99718.75
99793.222
99862.679
99927.519
99991.175
100053.5
100112.5
99390.461
99483.837
99567.598
99646.819
99725.085
99802.363
99874.864
99940.082
100001.55
100062.88
100121.79
100180.07
99403.136
99499.549
99584.35
99662.614
99736.947
99811.2
99886.811
99959.296
100022.01
100077.89
100130.22
100184.87
99410.553
99510.862
99599.22
99682.615
99763.593
99830.953
99893.01
99962.471
100031.99
100092.54
100149.36
100202.36
99433.845
99527.738
99611.817
99690.412
99764.792
99841.584
99914.166
99975.79
100035.43
100096.11
100157.65
100212.55
99458.508
99554.541
99637.76
99715.517
99787.648
99856.795
99924.286
99989.762
100052.17
100112.97
100171.73
100226.85
100278.72
99503.179
99592.787
99670.64
99744.581
99815.191
99882.055
99946.891
100010.83
100072.6
100131.97
100188.97
100243.27
100294.83
99549.78
99634.829
99707.909
99777.619
99845.49
99910.583
99973.389
100034.94
100094.95
100152.76
100208.23
100261.39
100312.16
99601.155
99681.449
99749.501
99815.147
99879.864
99942.144
100002.21
100061.26
100119.35
100175.58
100229.46
100281.23
100330.87
100378.34
99657.791
99733.318
99796.423
99857.127
99917.565
99976.913
100034.31
100090.02
100145.5
100200.25
100252.53
100302.73
100350.96
100397.22
99720.347
99790.537
99847.525
99903.029
99958.971
100014.65
100069.26
100121.86
100174.08
100226.31
100277.11
100325.83
100372.43
100417.25
99787.934
99852.284
99902.966
99952.889
100004
100055.49
100106.76
100156.75
100205.22
100253.84
100303.03
100350.49
100395.35
100438.47
100479.98
99860.288
99918.473
99962.505
100006.52
100052.47
100099.42
100146.77
100193.91
100239.38
100283.76
100329.92
100376.43
100419.73
100460.96
100500.81
99937.073
99988.875
100025.94
100063.73
100104.26
100146.39
100189.45
100233.07
100275.89
100316.7
100358.9
100402.96
100445.33
100484.76
100522.72
100559.42
100017.73
100063.18
100093.1
100124.39
100159.24
100196.33
100234.86
100274.5
100314.48
100352.65
100389.96
100430.29
100471.95
100509.91
100545.82
100580.7
100101.67
100140.79
100163.47
100188.04
100217.04
100248.95
100282.8
100318.18
100354.7
100390.54
100423.99
100459.86
100498.77
100536.04
100570.1
100603
100634.91
100189.35
100220.03
100235.28
100253.09
100276.21
100302.98
100332.23
100363.36
100396.1
100429.49
100460.71
100491.18
100525.86
100562.67
100595.34
100626.22
100656.34
100283.12
100302.25
100308.95
100319.3
100336.14
100357.68
100382.39
100409.39
100438.32
100468.78
100498.43
100525.18
100555.12
100588.77
100620.84
100649.99
100678.38
100705.45
100390.71
100399
100398.18
100400.23
100409.01
100423.46
100441.92
100463.38
100487.41
100513.63
100540.79
100565.39
100589.22
100617.4
100647.86
100674.86
100701.48
100726.25
100504.51
100516.15
100521.1
100520.96
100522.22
100527.28
100535.91
100547.62
100562.47
100580.24
100600.33
100620.32
100637.99
100659.1
100681.63
100704.58
100729.25
100750.86
100771.79
99923.806
99936.08
99948.225
99958.332
99967.853
99977.64
99987.548
99998.254
100013.18
100029.82
100047.74
100066.99
100087.55
100109.42
100132.55
100156.9
100182.39
100208.94
100236.44
99911.768
99921.99
99934.339
99946.678
99958.292
99970.059
99981.521
99995.177
100010.87
100028.1
100046.59
100066.29
100087.19
100109.33
100132.68
100157.21
100182.86
100209.56
100237.19