/*--------------------------------*- C++ -*----------------------------------*\
| =========                 |                                                 |
| \\      /  F ield         | OpenFOAM: The Open Source CFD Toolbox           |
|  \\    /   O peration     | Version:  2406                                  |
|   \\  /    A nd           | Website:  www.openfoam.com                      |
|    \\/     M anipulation  |                                                 |
\*---------------------------------------------------------------------------*/
FoamFile
{
    version     2.0;
    format      ascii;
    arch        "LSB;label=32;scalar=64";
    class       surfaceScalarField;
    location    "0.005";
    object      phi;
}
// * * * * * * * * * * * * * * * * * * * * * * * * * * * * * * * * * * * * * //

dimensions      [1 0 -1 0 0 0 0];

oriented        oriented;

internalField   nonuniform List<scalar> 
45979
(
0.0095889666
-0.010854239
0.011058578
-0.0097930238
0.0094139787
-0.011377124
0.011552356
0.0092430258
-0.011887224
0.012058397
0.0090720012
-0.012402608
0.012573822
0.0088996566
-0.012921763
0.013094262
0.0087253877
-0.01344284
0.013617225
0.0085487309
-0.013964138
0.014140871
0.0083693434
-0.014483843
0.014663271
0.0081870337
-0.014999965
0.015182278
0.0080017434
-0.015510769
0.01569604
0.0078131846
-0.016015094
0.016203631
0.0076203559
-0.016512265
0.016705089
0.0074221735
-0.017000446
0.017198557
0.0072211978
-0.017471141
0.017671817
0.0070146312
-0.01792136
0.01812763
0.006804329
-0.018362724
0.018572892
0.0065866951
-0.018793855
0.019011555
0.00636184
-0.019206321
0.019431343
-0.019600958
0.019833066
0.0096583126
-0.010696934
-0.0098153453
0.0094955754
-0.011214139
0.0093368365
-0.011728262
0.0091771306
-0.012242706
0.0090146259
-0.012759093
0.0088484884
-0.013276566
0.0086780911
-0.013793635
0.0085029568
-0.014308634
0.0083228047
-0.014819765
0.0081374274
-0.01532536
0.0079463765
-0.015824019
0.0077487551
-0.016314631
0.0075437442
-0.016795425
0.0073353691
-0.01726279
0.0071192933
-0.017705433
0.0068966877
-0.01814025
0.0066656825
-0.018562702
0.0064264709
-0.018966831
-0.019353291
0.0096916285
-0.010563506
-0.009824828
0.0095503255
-0.011072629
0.0094051364
-0.011582896
0.009256286
-0.012093711
0.0091029144
-0.012605607
0.0089442645
-0.013117832
0.0087796879
-0.013629
0.0086086283
-0.01413754
0.0084306747
-0.014641797
0.0082454817
-0.015140165
0.0080526468
-0.015631189
0.0078515564
-0.016113548
0.0076416645
-0.016585506
0.0074244548
-0.01704547
0.0071989898
-0.017480063
0.0069659468
-0.017907262
0.0067230499
-0.018319567
0.0064711478
-0.018714584
-0.01909276
0.0097083091
-0.010449339
-0.0098222914
0.0095851209
-0.010949281
0.0094543885
-0.011452037
0.0093168632
-0.011956093
0.0091724109
-0.012461094
0.0090205864
-0.012965974
0.0088608691
-0.013469271
0.0086927445
-0.013969423
0.0085157719
-0.014464845
0.0083295955
-0.014954021
0.0081339344
-0.015435574
0.0079285126
-0.015908194
0.007712684
-0.016369645
0.0074864853
-0.016818952
0.0072512618
-0.01724485
0.0070073914
-0.017663346
0.0067530508
-0.018064919
0.0064894619
-0.018450581
-0.018821182
0.0097101247
-0.010351514
-0.0098078058
0.0096020915
-0.01084113
0.0094843476
-0.011334209
0.0093573094
-0.011829004
0.0092209532
-0.012324715
0.0090749763
-0.012819996
0.0089189505
-0.013313261
0.0087524178
-0.013802916
0.0085749666
-0.014287427
0.008386301
-0.0147654
0.0081863294
-0.015235698
0.0079752196
-0.015697349
0.0077526879
-0.01614703
0.0075163025
-0.016581665
0.0072716052
-0.01700017
0.0070166961
-0.017408334
0.0067512919
-0.01779915
0.0064775669
-0.018176367
-0.018541621
0.0096956302
-0.010267579
-0.0097794671
0.0096002686
-0.010745693
0.0094934243
-0.011227321
0.0093751646
-0.011710728
0.0092453517
-0.012194908
0.0091036721
-0.012678337
0.0089497212
-0.013159337
0.0087830807
-0.013636301
0.0086033888
-0.014107757
0.0084104185
-0.014572458
0.0082040806
-0.015029524
0.0079845207
-0.015478464
0.0077557283
-0.015917042
0.0075107271
-0.016335338
0.0072558523
-0.016745888
0.0069898991
-0.017142301
0.0067151475
-0.017523968
0.0064350103
-0.017895652
-0.01826022
0.0096622962
-0.01019504
-0.0097347839
0.0095770317
-0.010660397
0.0094786198
-0.011128903
0.0093668279
-0.01159895
0.009241351
-0.012069458
0.0091018083
-0.012538825
0.0089478015
-0.013005354
0.0087789745
-0.013467482
0.0085950638
-0.013923829
0.0083959326
-0.014373279
0.0081816654
-0.014815184
0.0079534332
-0.01525008
0.007716521
-0.015679309
0.0074630624
-0.016081774
0.0071981718
-0.016480948
0.0069241721
-0.016867914
0.0066453441
-0.017244587
0.0063665048
-0.017616135
-0.017987383
0.0096061201
-0.010131073
-0.0096700879
0.0095280659
-0.010582354
0.0094351875
-0.011036053
0.0093269948
-0.011490794
0.0092030395
-0.011945539
0.0090629049
-0.012398717
0.0089062583
-0.012848713
0.0087329036
-0.0132941
0.0085428135
-0.013733671
0.0083361462
-0.014166494
0.0081133527
-0.014592213
0.0078759141
-0.01501237
0.0076283562
-0.01543131
0.0073680412
-0.015821152
0.0070983827
-0.016210904
0.0068236614
-0.016592633
0.0065500385
-0.016970311
0.0062843612
-0.017349714
-0.017736309
0.0095211289
-0.010072364
-0.0095798886
0.0094469143
-0.010508189
0.0093561261
-0.010945315
0.0092480809
-0.011382794
0.0091222768
-0.011819764
0.0089783742
-0.012254816
0.0088162486
-0.012686552
0.0086360344
-0.013113803
0.0084381431
-0.013535641
0.008223245
-0.013951394
0.0079922549
-0.014360948
0.0077466065
-0.014766361
0.0074917548
-0.015175997
0.0072305617
-0.015559499
0.0069641228
-0.015943904
0.0066999203
-0.016327773
0.0064458371
-0.016715482
0.006207192
-0.017110349
-0.01751637
0.0093986314
-0.01001502
-0.0094560627
0.0093242984
-0.010433924
0.0092315803
-0.010852649
0.0091197431
-0.011270984
0.0089884231
-0.011688436
0.008837577
-0.012103917
0.0086675319
-0.012516401
0.0084790292
-0.012925133
0.0082732446
-0.013329621
0.0080517712
-0.013729613
0.0078164565
-0.014125247
0.0075689179
-0.014518353
0.0073135605
-0.014920089
0.0070634643
-0.01530881
0.0068144386
-0.015694189
0.0065729688
-0.016085568
0.0063523217
-0.016494125
0.0061563289
-0.016913866
-0.017335412
0.0092263443
-0.0099545874
-0.009286881
0.0091474334
-0.010355069
0.0090484588
-0.010753691
0.0089289488
-0.011151444
0.0087890179
-0.011548421
0.0086292635
-0.011944018
0.0084508139
-0.01233774
0.0082553698
-0.012729407
0.0080452562
-0.013119152
0.0078235484
-0.013507476
0.007594291
-0.01389549
0.0073619712
-0.014285468
0.0071220955
-0.014679596
0.0068899949
-0.015076039
0.0066754614
-0.01547895
0.0064804719
-0.015889873
0.0062978129
-0.016310918
0.0061225494
-0.016738109
-0.017171234
0.0089879293
-0.0098865408
-0.0090560575
0.008900245
-0.010267381
0.0087915946
-0.010644972
0.0086623298
-0.011022046
0.0085135333
-0.011399421
0.0083468689
-0.011777078
0.008164626
-0.012155149
0.0079697259
-0.012534088
0.0077657188
-0.012914658
0.0075567712
-0.013297982
0.007347477
-0.013685602
0.0071419691
-0.014079336
0.0069432154
-0.01448021
0.0067559349
-0.014888128
0.0065806975
-0.015303087
0.0064162966
-0.015724859
0.0062590732
-0.01615315
0.0061078095
-0.016586282
-0.017023248
0.008665268
-0.0098085625
-0.0087432431
0.0085676934
-0.010169679
0.0084503569
-0.010527421
0.0083151424
-0.010886545
0.008164531
-0.011248452
0.008001456
-0.011613576
0.0078293347
-0.011982539
0.0076519632
-0.012356174
0.0074733165
-0.012735429
0.0072972149
-0.013121274
0.0071267618
-0.013514537
0.0069636214
-0.013915596
0.0068080152
-0.014324026
0.006659406
-0.014738961
0.0065161436
-0.015159275
0.0063759605
-0.015584128
0.0062364631
-0.016013112
0.0060967431
-0.016446012
-0.016883104
0.0082526347
-0.0097257702
-0.0083352639
0.0081530763
-0.010069814
0.0080385994
-0.010412552
0.0079127035
-0.010760199
0.0077788573
-0.011114105
0.0076403707
-0.011474548
0.0075003806
-0.01184198
0.007361617
-0.01221683
0.0072260741
-0.012599308
0.0070946939
-0.012989329
0.0069671916
-0.013386491
0.0068422186
-0.013790099
0.0067180216
-0.014199318
0.006593009
-0.014613439
0.0064663898
-0.015032137
0.0063381544
-0.01545536
0.0062087117
-0.015883127
0.0060785837
-0.016315333
-0.016751869
0.0077954263
-0.0096545817
-0.0078662801
0.0077139372
-0.0099878797
0.0076251547
-0.010323267
0.0075321145
-0.010666635
0.0074371237
-0.011018581
0.0073416185
-0.011378509
0.0072462379
-0.011746072
0.0071508909
-0.012120969
0.0070548561
-0.012502772
0.0069570097
-0.012890992
0.0068561859
-0.013285181
0.0067515748
-0.013685
0.0066429912
-0.014090241
0.0065308538
-0.014500798
0.0064157907
-0.014916558
0.0062983501
-0.01533739
0.0061788677
-0.015763103
0.0060575916
-0.016193504
-0.016628491
0.0074062432
-0.0096131686
-0.0074472574
0.0073598345
-0.0099410268
0.0073102564
-0.010273225
0.0072575165
-0.010613432
0.0072012992
-0.010961905
0.0071410156
-0.011317769
0.0070758956
-0.011680496
0.0070052604
-0.012049875
0.0069287322
-0.01242578
0.0068463131
-0.012808102
0.0067583514
-0.01319674
0.0066654146
-0.013591576
0.0065681122
-0.013992441
0.0064669416
-0.014399119
0.0063622892
-0.014811385
0.0062544645
-0.01522903
0.0061437983
-0.015651889
0.0060306576
-0.016079804
-0.016512704
0.0071448094
-0.0096015059
-0.0071560973
0.0071264955
-0.0099223243
0.007102402
-0.010248729
0.0070715618
-0.01058218
0.0070333124
-0.010923234
0.0069875959
-0.01127162
0.0069346684
-0.011627124
0.0068749628
-0.011989714
0.0068090111
-0.012359363
0.0067373386
-0.012735955
0.0066603764
-0.013119294
0.0065784395
-0.013509145
0.0064917763
-0.013905273
0.0064006481
-0.014307474
0.006305378
-0.014715585
0.0062063647
-0.015129475
0.0061040419
-0.015549013
0.0059988374
-0.015974036
-0.016404459
0.0069450839
-0.0096046858
-0.0069415365
0.0069392911
-0.0099161495
0.0069254673
-0.010234508
0.006903887
-0.010560188
0.006874731
-0.010893653
0.0068384418
-0.011234894
0.0067955132
-0.011583748
0.0067463164
-0.011940059
0.0066910883
-0.012303666
0.0066299917
-0.012674379
0.006563186
-0.013051997
0.0064908891
-0.013436345
0.0064134045
-0.013827274
0.006331112
-0.014224656
0.0062444342
-0.014628371
0.0061537905
-0.015038284
0.0060595763
-0.015454242
0.0059621603
-0.015876056
-0.016303645
0.0067602296
-0.0096144173
-0.0067501132
0.0067618353
-0.0099173596
0.0067557809
-0.010228047
0.0067425862
-0.010546576
0.0067224638
-0.010873103
0.006695569
-0.011207561
0.0066620584
-0.011549788
0.0066220757
-0.011899614
0.0065757723
-0.012256888
0.0065233471
-0.012621466
0.006465064
-0.012993215
0.00640124
-0.013372011
0.0063322208
-0.013757734
0.0062583564
-0.01415026
0.0061799879
-0.014549462
0.0060974515
-0.014955199
0.0060110829
-0.015367316
0.0059212242
-0.015785633
-0.016210093
0.0065858226
-0.0096293372
-0.0065704928
0.0065938122
-0.0099249367
0.0065947472
-0.010228564
0.0065888458
-0.010540249
0.0065762004
-0.010860024
0.0065568858
-0.011187802
0.0065310181
-0.011523464
0.0064987555
-0.011866884
0.0064602877
-0.01221794
0.0064158306
-0.012576516
0.006365623
-0.012942503
0.0063099206
-0.013315794
0.0062489924
-0.013696281
0.0061831216
-0.014083856
0.0061126069
-0.014478404
0.0060377594
-0.014879801
0.0059588972
-0.015287897
0.0058763445
-0.015702517
-0.016123626
0.0064191043
-0.0096481647
-0.006399857
0.0064321711
-0.0099375829
0.0064389101
-0.01023488
0.0064392461
-0.010540156
0.0064331617
-0.010853503
0.0064206861
-0.01117488
0.006401885
-0.011504206
0.0063768592
-0.011841388
0.0063457422
-0.01218634
0.0063087031
-0.012538983
0.006265944
-0.012899238
0.0062176965
-0.013267029
0.006164215
-0.013642272
0.0061057697
-0.014024875
0.0060426381
-0.014414729
0.0059751014
-0.014811714
0.0059034421
-0.01521568
0.0058279484
-0.015626459
-0.016044041
0.0062599693
-0.0096722266
-0.0062355094
0.0062783404
-0.0099555458
0.0062904048
-0.010246526
0.0062961818
-0.010545506
0.0062957278
-0.010852613
0.006289082
-0.011167788
0.0062762925
-0.011490957
0.006257443
-0.011822067
0.0062326635
-0.012161076
0.0062021239
-0.012507945
0.0061660226
-0.012862627
0.0061245751
-0.013225061
0.0060780053
-0.013595173
0.0060265402
-0.013972872
0.0059704107
-0.014358055
0.0059098508
-0.014750602
0.0058451007
-0.015150371
0.0057764128
-0.015557204
-0.015971122
0.0061148825
-0.0096986903
-0.0060880102
0.0061359232
-0.0099761755
0.0061509794
-0.010261167
0.006160182
-0.010554284
0.0061636132
-0.010855607
0.0061613029
-0.011165028
0.0061532784
-0.011482469
0.006139598
-0.011807909
0.0061203606
-0.012141348
0.006095694
-0.012482776
0.0060657434
-0.012832162
0.0060306632
-0.013189458
0.005990614
-0.013554592
0.0059457661
-0.013927485
0.0058962975
-0.014308039
0.0058423979
-0.014696147
0.005784268
-0.015091677
0.0057221269
-0.01549449
-0.015904637
0.005975746
-0.009723643
-0.0059500019
0.0059971393
-0.0099970138
0.0060142028
-0.010277755
0.0060262873
-0.010565917
0.0060331219
-0.010861987
0.006034693
-0.011166134
0.0060310395
-0.011478339
0.0060222006
-0.011798582
0.0060082221
-0.012126869
0.0059891634
-0.012463206
0.0059650958
-0.012807575
0.0059361046
-0.013159938
0.0059022897
-0.013520241
0.0058637656
-0.013888417
0.0058206654
-0.014264387
0.0057731375
-0.014648058
0.0057213484
-0.015039317
0.0056654873
-0.015438047
-0.015844335
0.0058137385
-0.0097609316
-0.0057762741
0.0058443108
-0.010027228
0.0058679867
-0.010300993
0.0058859562
-0.010583421
0.0058984349
-0.010873993
0.0059055066
-0.011172724
0.0059073128
-0.011479654
0.0059039994
-0.011794767
0.0058956697
-0.012118029
0.0058823924
-0.01244941
0.0058642238
-0.012788879
0.0058412215
-0.013136402
0.005813455
-0.013491933
0.0057810125
-0.013855425
0.0057439992
-0.014226815
0.0057025405
-0.014606031
0.005656783
-0.01499298
0.0056069015
-0.015387573
-0.01578993
0.0056683305
-0.009782966
-0.0056459809
0.0056972323
-0.010055742
0.0057252558
-0.010328582
0.0057477258
-0.010605428
0.005765139
-0.010890929
0.0057775495
-0.011184648
0.0057849081
-0.011486515
0.0057872202
-0.011796571
0.0057845375
-0.01211483
0.0057769187
-0.012441266
0.0057644188
-0.012775847
0.0057470952
-0.013118539
0.0057250151
-0.013469306
0.0056982594
-0.013828113
0.0056669266
-0.014194916
0.0056311349
-0.014569662
0.0055910235
-0.014952278
0.0055467601
-0.015342706
-0.015741093
0.005569801
-0.0098131945
-0.00553915
0.00558544
-0.010070942
0.0056054288
-0.010348129
0.0056277646
-0.010627308
0.0056464263
-0.010909116
0.0056610172
-0.01119875
0.0056713869
-0.011496384
0.0056773625
-0.011802036
0.005678797
-0.012115744
0.0056756022
-0.012437543
0.0056677416
-0.01276745
0.0056552155
-0.013105468
0.0056380526
-0.013451589
0.0056163056
-0.013805801
0.0055900518
-0.014168086
0.0055593918
-0.014538412
0.0055244518
-0.014916735
0.0054853892
-0.015303025
-0.015697458
0.005452119
-0.0098568685
-0.0054080065
0.005485829
-0.010104199
0.0055031233
-0.010364961
0.0055212049
-0.010644916
0.0055403587
-0.010927787
0.0055560175
-0.011213912
0.005567866
-0.011507725
0.0055757968
-0.01180945
0.0055797088
-0.01211913
0.00557948
-0.01243678
0.0055750004
-0.012762428
0.0055661968
-0.013096111
0.0055530335
-0.013437862
0.0055355109
-0.013787702
0.0055136624
-0.014145648
0.0054875547
-0.014511701
0.0054572879
-0.014885849
0.0054229981
-0.0152681
-0.015658655
0.0053289362
-0.0098937042
-0.005291649
0.005369963
-0.010144764
0.0054018498
-0.010396381
0.0054188015
-0.01066139
0.0054362589
-0.010944752
0.0054539027
-0.011231054
0.0054678362
-0.011521147
0.0054778945
-0.011818987
0.0054840831
-0.012124789
0.0054863935
-0.012438551
0.0054847625
-0.012760246
0.0054791118
-0.013089898
0.0054693789
-0.013427553
0.0054555332
-0.013773267
0.0054375799
-0.01412709
0.0054155596
-0.014489061
0.00538955
-0.014859203
0.0053596667
-0.015237564
-0.015624364
0.0052174413
-0.0099292826
-0.0051814036
0.0052518318
-0.010178686
0.0052899756
-0.010434047
0.0053194108
-0.01069034
0.0053351315
-0.010959979
0.0053515357
-0.011246953
0.0053677226
-0.011536819
0.0053802968
-0.011831038
0.0053890897
-0.012133049
0.0053941093
-0.012443026
0.0053953455
-0.012760925
0.0053927436
-0.013086724
0.0053862438
-0.013420466
0.0053758147
-0.013762234
0.0053614616
-0.014112117
0.0053432244
-0.014470186
0.0053211769
-0.014836501
0.0052954245
-0.01521114
-0.01559433
0.005112414
-0.0099645687
-0.0050766646
0.0051458332
-0.010211632
0.0051777447
-0.010465477
0.0052131076
-0.010725212
0.0052400349
-0.010986405
0.0052545007
-0.011260908
0.0052697147
-0.011551513
0.005284167
-0.011844962
0.0052952831
-0.012143626
0.0053028114
-0.012450002
0.0053067193
-0.012764264
0.0053069603
-0.01308638
0.005303468
-0.013416372
0.0052962128
-0.013754361
0.0052852109
-0.014100479
0.0052705138
-0.014454834
0.005252198
-0.014817512
0.0052303601
-0.015188611
-0.015568352
0.005012127
-0.0099996425
-0.004976586
0.0050453891
-0.010244418
0.0050764245
-0.010496028
0.0051060456
-0.010754339
0.0051387511
-0.011018605
0.0051632167
-0.011284855
0.0051767618
-0.011564521
0.005191086
-0.011858741
0.0052036694
-0.012155661
0.0052132332
-0.012459004
0.0052194242
-0.012769876
0.0052221377
-0.013088496
0.0052212944
-0.013414913
0.0052168857
-0.013749318
0.0052089514
-0.014091892
0.0051975542
-0.014442766
0.0051827661
-0.014802034
0.0051646605
-0.015169796
-0.015546254
0.0049158763
-0.01003444
-0.0048806071
0.0049490119
-0.010277073
0.0049799113
-0.010526437
0.0050086389
-0.010782566
0.0050359558
-0.011045411
0.0050659112
-0.011314289
0.0050875764
-0.011585653
0.0051001803
-0.011870783
0.0051140107
-0.012168916
0.0051250124
-0.012469428
0.0051331466
-0.012777415
0.0051380734
-0.013092808
0.0051396122
-0.01341582
0.0051378066
-0.013746864
0.0051327454
-0.014086165
0.0051244955
-0.014433831
0.0051131037
-0.014789938
0.0050985958
-0.015154564
-0.015527883
0.0048232057
-0.0100689
-0.0047882677
0.0048561803
-0.010309561
0.0048870434
-0.010556803
0.0049157008
-0.010810715
0.0049421993
-0.011071389
0.0049672175
-0.011338774
0.0049943588
-0.01161225
0.0050127743
-0.011888646
0.0050236106
-0.012179174
0.0050368362
-0.012482051
0.0050470795
-0.01278704
0.0050541676
-0.013099257
0.0050580023
-0.013419
0.0050587798
-0.013746975
0.0050566239
-0.014083329
0.0050515489
-0.014428061
0.0050435348
-0.014781211
0.0050325337
-0.015142831
-0.015513078
0.0047337445
-0.010102991
-0.0046991692
0.0047665377
-0.010341859
0.0047974006
-0.010587159
0.0048262055
-0.010839
0.0048528624
-0.011097512
0.0048774093
-0.011362772
0.004900455
-0.011634733
0.0049252172
-0.011912832
0.0049408098
-0.012194182
0.0049489288
-0.012489584
0.0049606908
-0.012798187
0.0049704695
-0.013108377
0.0049766267
-0.013424477
0.0049801479
-0.013749811
0.0049810955
-0.014083584
0.00497931
-0.014425572
0.0049746503
-0.014775835
0.0049669901
-0.015134437
-0.015501561
0.0046471689
-0.01013669
-0.0046129776
0.0046797608
-0.010373946
0.0047106183
-0.010617498
0.0047396215
-0.010867471
0.004766661
-0.011124003
0.0047916633
-0.01138721
0.0048146756
-0.011657165
0.0048362556
-0.011933815
0.0048592942
-0.012216605
0.0048730228
-0.01250268
0.0048773975
-0.012801954
0.0048866324
-0.01311699
0.0048969149
-0.013434096
0.0049038839
-0.013756099
0.0049079851
-0.014086988
0.0049092132
-0.014426092
0.0049074478
-0.01477335
0.0049025808
-0.015128836
0.0045632253
-0.010169972
-0.0045294419
0.0045955838
-0.010405791
0.004626403
-0.01064779
0.0046555823
-0.010896108
0.0046830324
-0.011150897
0.0047086884
-0.011412295
0.0047325423
-0.011680433
0.004754747
-0.011955419
0.0047760561
-0.012237296
0.004799708
-0.012525693
0.0048160315
-0.012817611
0.0048206929
-0.013120977
0.0048250034
-0.013437778
0.0048335493
-0.013764003
0.0048401126
-0.014092861
0.0048429973
-0.014428269
0.0048427805
-0.014772409
-0.015124879
0.0044816942
-0.010202788
-0.0044483682
0.0045137461
-0.010437321
0.0045444204
-0.010677931
0.0045736217
-0.010924763
0.0046012592
-0.011177976
0.0046272495
-0.011437716
0.0046515266
-0.011704131
0.0046740535
-0.011977357
0.0046948464
-0.012257491
0.0047143639
-0.012544605
0.0047364482
-0.012839073
0.0047574462
-0.013141345
0.0047706778
-0.013450298
0.0047731495
-0.013765723
0.0047751634
-0.014094194
0.0047781391
-0.01443055
0.0047787136
-0.014772243
-0.01512177
0.0044024681
-0.01023509
-0.004369649
0.0044341471
-0.010468472
0.00446459
-0.010707835
0.0044937063
-0.010953329
0.0045214057
-0.011205114
0.0045475981
-0.011463336
0.0045721885
-0.01172814
0.0045950726
-0.01199965
0.0046161269
-0.012277946
0.0046351185
-0.01256299
0.0046513288
-0.012854689
0.0046642837
-0.013153775
0.0046803418
-0.013465754
0.0046970065
-0.013781661
0.0047063079
-0.014102707
0.00470934
-0.014432778
0.0047101291
-0.014772259
-0.01512012
0.0043254872
-0.010266838
-0.0042932153
0.0043567386
-0.010499189
0.004386883
-0.010737434
0.0044158376
-0.010981728
0.0044435217
-0.011232229
0.0044698593
-0.011489089
0.0044947804
-0.011752459
0.0045182304
-0.012022481
0.0045402148
-0.012299288
0.0045608288
-0.01258293
0.0045796241
-0.012872779
0.0045921807
-0.013165573
0.0045962668
-0.013469193
0.0046039843
-0.013788872
0.0046169531
-0.014115056
0.0046277529
-0.014442832
0.0046343679
-0.014778106
-0.015122788
0.0042506759
-0.010297989
-0.004218991
0.0042814489
-0.010529418
0.0043112312
-0.010766664
0.0043399482
-0.011009883
0.004367532
-0.011259242
0.0043939254
-0.0115149
0.0044190906
-0.011777027
0.0044430197
-0.012045797
0.0044657467
-0.012321387
0.0044874017
-0.012603941
0.0045087532
-0.012893464
0.0045334611
-0.013189581
0.0045535301
-0.013488531
0.0045581419
-0.013792705
0.0045558198
-0.014112002
0.0045603456
-0.014446678
0.0045676025
-0.014784645
-0.015127264
0.004177916
-0.010328489
-0.0041468731
0.0042081276
-0.010559074
0.0042374256
-0.010795395
0.0042657249
-0.011037607
0.0042929358
-0.011285869
0.0043189639
-0.011540335
0.0043437057
-0.011801165
0.0043670443
-0.012068518
0.0043888468
-0.012342556
0.0044089849
-0.012623428
0.0044274209
-0.012911232
0.0044444474
-0.013205926
0.0044639655
-0.013507343
0.0044872031
-0.013815195
0.0045027327
-0.014126751
0.0045069494
-0.01445009
0.004510939
-0.014787851
-0.015130516
0.0041072595
-0.010358337
-0.0040768626
0.0041369063
-0.010588157
0.0041657246
-0.010823635
0.0041936321
-0.011064923
0.0042205419
-0.011312176
0.0042463631
-0.011565544
0.0042709988
-0.011825177
0.0042943453
-0.012091228
0.0043162902
-0.012363849
0.004336723
-0.012643192
0.0043555913
-0.012929412
0.0043730671
-0.013222694
0.004389692
-0.013523245
0.0044059592
-0.013830739
0.0044252382
-0.01414532
0.0044386343
-0.014462793
0.0044442539
-0.014792733
-0.015135724
0.0040386644
-0.010387551
-0.0040089009
0.0040677568
-0.010616682
0.0040961067
-0.010851401
0.0041236385
-0.011091856
0.0041502729
-0.011338198
0.004175929
-0.011590574
0.0042005238
-0.011849134
0.0042239719
-0.012114027
0.0042461855
-0.012385403
0.0042670741
-0.012663409
0.0042865393
-0.012948195
0.0043044504
-0.013239911
0.0043206156
-0.013538703
0.0043353115
-0.013844713
0.0043486259
-0.014157898
0.0043644771
-0.014477894
0.0043732615
-0.014800751
-0.015136897
0.0039720074
-0.010416139
-0.0039428683
0.0040005464
-0.010644654
0.0040284185
-0.010878689
0.0040555527
-0.011118389
0.0040818754
-0.011363902
0.0041073094
-0.011615374
0.0041317762
-0.011872953
0.0041551948
-0.012136784
0.0041774831
-0.012407016
0.0041985583
-0.012683796
0.0042183346
-0.012967269
0.0042367167
-0.013257577
0.0042535925
-0.013554849
0.0042688284
-0.013859205
0.0042824472
-0.01417076
0.004294873
-0.01448955
0.0043102088
-0.0148153
-0.015144191
0.0039072092
-0.010444125
-0.0038786696
0.0039352168
-0.010672092
0.0039626308
-0.010905517
0.0039893867
-0.011144542
0.0040154172
-0.011389312
0.0040406533
-0.011639972
0.0040650235
-0.011896668
0.0040884558
-0.012159545
0.0041108771
-0.01242875
0.0041322146
-0.012704432
0.0041523977
-0.012986736
0.0041713615
-0.01327581
0.0041890544
-0.013571797
0.0042054484
-0.01387484
0.0042205407
-0.014185078
0.0042344237
-0.014502643
0.0042475524
-0.01482762
-0.015159731
0.0038441276
-0.010471525
-0.003816166
0.0038716191
-0.010699007
0.0038985845
-0.01093189
0.0039249645
-0.011170313
0.0039506977
-0.01141442
0.0039757217
-0.011664353
0.0039999722
-0.011920258
0.0040233847
-0.012182278
0.0040458947
-0.012450564
0.0040674393
-0.012725263
0.0040879596
-0.013006527
0.004107403
-0.013294508
0.0041257293
-0.013589362
0.0041429156
-0.013891249
0.0041589701
-0.014200338
0.0041739527
-0.014516812
0.0041880395
-0.014840873
-0.015172755
0.0037826251
-0.010498355
-0.0037552238
0.003809613
-0.010725409
0.003836135
-0.010957811
0.0038621365
-0.011195697
0.0038875608
-0.011439209
0.0039123499
-0.011688489
0.0039364445
-0.011943681
0.0039597839
-0.012204928
0.0039823072
-0.012472379
0.0040039532
-0.012746183
0.0040246607
-0.013026491
0.0040443693
-0.013313456
0.0040630188
-0.013607234
0.004080547
-0.01390798
0.0040968842
-0.014215857
0.0041119416
-0.014531026
0.0041255879
-0.014853648
-0.015183851
0.0037225833
-0.01052463
-0.0036957243
0.0037490798
-0.010751308
0.0037751648
-0.010983283
0.0038007874
-0.011220691
0.0038258949
-0.011463672
0.003850433
-0.011712365
0.0038743457
-0.011966913
0.0038975763
-0.012227459
0.0039200664
-0.01249415
0.0039417571
-0.012767136
0.0039625886
-0.013046566
0.0039825016
-0.013332595
0.0040014377
-0.013625378
0.0040193419
-0.013925074
0.0040361632
-0.014231846
0.0040518559
-0.014545863
0.0040663836
-0.014867296
-0.015196336
0.0036638894
-0.010550369
-0.0036375561
0.0036899059
-0.010776715
0.0037155601
-0.011008313
0.003740804
-0.011245296
0.0037655883
-0.011487801
0.0037898617
-0.011735966
0.0038135714
-0.011989933
0.0038366638
-0.012249843
0.0038590832
-0.012515841
0.0038807723
-0.012788077
0.0039016725
-0.013066699
0.003921723
-0.013351859
0.0039408603
-0.013643712
0.0039590187
-0.013942412
0.0039761278
-0.014248119
0.0039921106
-0.014560991
0.004006879
-0.01488119
-0.015208876
0.0036064447
-0.010575589
-0.003580621
0.0036319932
-0.010801645
0.0036572234
-0.01103291
0.0036820907
-0.011269515
0.0037065482
-0.011511595
0.0037305474
-0.011759286
0.0037540391
-0.012012728
0.0037769716
-0.012272061
0.0037992924
-0.012537429
0.003820947
-0.012808978
0.0038418798
-0.013086857
0.0038620324
-0.013371217
0.0038813453
-0.013662209
0.0038997558
-0.013959988
0.003917199
-0.01426471
0.0039336086
-0.014576533
0.0039489154
-0.014895611
-0.015222106
0.0035501614
-0.010600306
-0.0035248311
0.0035752538
-0.01082611
0.0036000684
-0.011057083
0.0036245626
-0.011293353
0.003648693
-0.011535054
0.0036724141
-0.01178232
0.0036956786
-0.012035291
0.0037184384
-0.012294103
0.003740644
-0.012558899
0.0037622442
-0.012829824
0.0037831876
-0.013107027
0.0038034213
-0.013390655
0.0038228914
-0.013680862
0.003841544
-0.013977801
0.0038593249
-0.014281631
0.0038761813
-0.01459251
0.0038920655
-0.014910598
-0.015236064
0.0034949609
-0.010624538
-0.0034701083
0.0035196096
-0.010850124
0.0035440164
-0.011080841
0.0035681423
-0.011316815
0.0035919459
-0.011558179
0.0036153844
-0.011805066
0.0036384133
-0.012057612
0.0036609866
-0.012315953
0.0036830573
-0.01258023
0.0037045767
-0.012850588
0.0037254947
-0.01312717
0.0037457602
-0.013410127
0.0037653201
-0.013699608
0.0037841199
-0.013995767
0.0038021039
-0.014298759
0.0038192147
-0.014608744
0.0038353945
-0.01492588
-0.015250336
0.0034407746
-0.010648301
-0.0034163845
0.0034649912
-0.0108737
0.0034889993
-0.011104194
0.0035127617
-0.011339908
0.00353624
-0.011580974
0.0035593939
-0.011827521
0.0035821817
-0.012079686
0.0036045602
-0.012337603
0.0036264844
-0.01260141
0.003647909
-0.012871251
0.0036687866
-0.01314727
0.0036890689
-0.013429614
0.0037087067
-0.013718431
0.0037276492
-0.014013876
0.0037458439
-0.014316102
0.0037632385
-0.014625267
0.0037797793
-0.014941532
-0.015265063
0.0033875444
-0.010671611
-0.0033636017
0.0034113412
-0.01089685
0.0034349593
-0.011127152
0.0034583643
-0.011362639
0.00348152
-0.011603441
0.0035043886
-0.011849687
0.0035269306
-0.01210151
0.0035491053
-0.012359044
0.0035708706
-0.012622426
0.0035921828
-0.012891798
0.0036129974
-0.013167301
0.0036332687
-0.013449083
0.0036529491
-0.013737291
0.0036719903
-0.014032077
0.0036903425
-0.014333595
0.0037079547
-0.014642003
0.0037247752
-0.01495746
-0.015280131
0.0033352188
-0.010694484
-0.0033117092
0.003358608
-0.01091959
0.0033818458
-0.011149726
0.0034049001
-0.011385016
0.0034277366
-0.011625586
0.0034503203
-0.011871564
0.0034726138
-0.012123083
0.0034945788
-0.012380272
0.0035161753
-0.01264327
0.003537362
-0.012912215
0.0035580964
-0.013187249
0.0035783346
-0.013468516
0.0035980315
-0.013756163
0.0036171403
-0.014050339
0.0036356127
-0.0143512
0.003653398
-0.014658899
0.0036704432
-0.014973596
-0.015295452
0.0032837558
-0.010716934
-0.0032606652
0.003306749
-0.010941929
0.003329616
-0.011171925
0.0033523266
-0.011407045
0.0033748491
-0.011647412
0.0033971501
-0.011893155
0.0034191947
-0.012144402
0.0034409468
-0.012401284
0.0034623684
-0.012663935
0.0034834207
-0.012932495
0.003504063
-0.013207101
0.0035242539
-0.013487898
0.0035439505
-0.013775031
0.0035631092
-0.014068649
0.0035816848
-0.014368904
0.0035996314
-0.014675951
0.0036169014
-0.014989946
-0.015311052
0.0032331205
-0.010738973
-0.003210436
0.0032557289
-0.010963878
0.0032782343
-0.011193758
0.0033006087
-0.011428732
0.0033228222
-0.011668924
0.0033448436
-0.01191446
0.0033666402
-0.012165467
0.0033881778
-0.012422074
0.003409421
-0.012684415
0.0034303326
-0.012952627
0.0034508744
-0.013226847
0.0034710067
-0.013507217
0.0034906891
-0.013793882
0.0035098799
-0.014086988
0.0035285369
-0.014386688
0.0035466169
-0.014693134
0.0035640763
-0.015006483
-0.015326898
0.0031832858
-0.010760614
-0.0031609954
0.0032055197
-0.010985448
0.0032276721
-0.011215232
0.0032497165
-0.011450083
0.0032716252
-0.011690125
0.0032933691
-0.01193548
0.0033149176
-0.012186275
0.0033362385
-0.012442639
0.0033572984
-0.012704703
0.0033780623
-0.012972601
0.003398494
-0.013246472
0.0034185559
-0.013526456
0.0034382094
-0.013812695
0.0034574148
-0.014105335
0.0034761316
-0.014404527
0.0034943191
-0.014710423
0.0035119363
-0.015023179
-0.015342955
0.0031342335
-0.010781868
-0.0031123263
0.0031561025
-0.011006649
0.0031779096
-0.011236356
0.00319963
-0.011471106
0.0032212383
-0.011711019
0.0032427067
-0.011956218
0.0032640068
-0.012206828
0.0032851086
-0.012462976
0.0033059804
-0.012724792
0.0033265894
-0.01299241
0.0033469015
-0.013265966
0.003366881
-0.013545599
0.0033864908
-0.01383145
0.0034056929
-0.014123665
0.0034244482
-0.014422392
0.0034427166
-0.014727783
0.0034604569
-0.015039991
-0.015359176