/*--------------------------------*- C++ -*----------------------------------*\
| =========                 |                                                 |
| \\      /  F ield         | OpenFOAM: The Open Source CFD Toolbox           |
|  \\    /   O peration     | Version:  2406                                  |
|   \\  /    A nd           | Website:  www.openfoam.com                      |
|    \\/     M anipulation  |                                                 |
\*---------------------------------------------------------------------------*/
FoamFile
{
    version     2.0;
    format      ascii;
    arch        "LSB;label=32;scalar=64";
    class       volScalarField;
    location    "0.015";
    object      Ma;
}
// * * * * * * * * * * * * * * * * * * * * * * * * * * * * * * * * * * * * * //

dimensions      [0 0 0 0 0 0 0];

internalField   nonuniform List<scalar> 
23203
(
0.089944069
0.095081014
0.099934989
0.1044453
0.10857012
0.11229141
0.11561446
0.11856263
0.12117044
0.12347748
0.12552379
0.12734703
0.128981
0.13045512
0.13179447
0.1330202
0.13414997
0.13519848
0.13617793
0.13709838
0.13796793
0.13879322
0.13957995
0.089892158
0.094927058
0.099688404
0.10411774
0.10817487
0.11184219
0.11512431
0.11804315
0.12063144
0.12292691
0.12496789
0.12679058
0.12842761
0.12990743
0.13125442
0.13248915
0.13362887
0.13468795
0.13567836
0.13660997
0.13749079
0.13832742
0.1391255
0.089842697
0.094776522
0.099446036
0.10379485
0.10778435
0.1113974
0.11463803
0.11752681
0.12009478
0.12237786
0.12441275
0.12623422
0.1278737
0.12935874
0.13071296
0.13195637
0.1331058
0.13417528
0.13517651
0.13611916
0.13701116
0.13785907
0.13866845
0.089796386
0.094629757
0.099207935
0.10347651
0.10739838
0.1109569
0.11415556
0.11701368
0.11956063
0.12183063
0.12385876
0.12567841
0.12731982
0.12880962
0.1301707
0.13142249
0.13258137
0.13366105
0.13467293
0.13562651
0.1365296
0.1373887
0.13820932
0.08975364
0.094486976
0.098974176
0.10316274
0.10701703
0.11052086
0.1136772
0.11650415
0.11902951
0.12128584
0.12330664
0.12512391
0.12676677
0.1282609
0.12962845
0.1308883
0.13205637
0.133146
0.13416835
0.1351327
0.13604675
0.13691692
0.089714779
0.094348673
0.098744889
0.10285356
0.10664034
0.1100894
0.11320318
0.1159986
0.11850194
0.12074411
0.12275707
0.12457149
0.12621534
0.12771339
0.12908705
0.13035463
0.13153158
0.13263092
0.13366351
0.13463844
0.13556328
0.13644438
0.089680142
0.094214407
0.098519776
0.10254901
0.10626841
0.10966268
0.11273375
0.1154974
0.11797837
0.12020599
0.12221071
0.12402186
0.1256663
0.12716788
0.12854729
0.12982226
0.13100779
0.13211654
0.13315913
0.13414443
0.13507987
0.1359717
0.089648912
0.094084039
0.098299415
0.10224922
0.10590132
0.10924081
0.11226913
0.11500085
0.11745923
0.11967202
0.12166817
0.1234757
0.12512037
0.12662512
0.12800993
0.12929196
0.13048576
0.13160364
0.13265595
0.13365137
0.13459719
0.13549953
0.089624733
0.09395879
0.098083505
0.10195384
0.10553883
0.10882373
0.11180938
0.11450919
0.11694489
0.11914266
0.12113001
0.12293364
0.12457824
0.12608584
0.12747574
0.1287645
0.12996625
0.13109296
0.1321547
0.13315997
0.1341159
0.1350285
0.089601881
0.093836427
0.097871263
0.10166257
0.10518082
0.10841145
0.11135467
0.11402267
0.1164357
0.11861839
0.12059678
0.12239631
0.12404057
0.12555075
0.12694542
0.1282406
0.12944999
0.13058521
0.13165609
0.13267091
0.13363666
0.13455923
0.089582269
0.093717178
0.097663007
0.10137576
0.10482761
0.10800426
0.11090527
0.11354162
0.11593205
0.11809965
0.120069
0.12186426
0.12350799
0.1250205
0.12641965
0.12772096
0.12893767
0.13008109
0.13116078
0.13218484
0.1331601
0.13409235
0.089567704
0.093602851
0.097458841
0.10109346
0.10447933
0.10760234
0.11046143
0.11306634
0.11543432
0.11758687
0.11954714
0.12133804
0.12298107
0.12449568
0.12589908
0.12720621
0.12842994
0.12958124
0.13066942
0.13170239
0.13268684
0.13362843
0.089557466
0.093493605
0.09725954
0.10081594
0.10413611
0.10720587
0.11002338
0.11259713
0.11494282
0.11708043
0.11903165
0.12081814
0.12246034
0.12397687
0.12538427
0.12669697
0.12792742
0.12908627
0.13018261
0.13122415
0.13221744
0.13316803
0.089551091
0.093387856
0.097064532
0.1005433
0.10379825
0.10681516
0.10959145
0.11213431
0.11445794
0.11658073
0.11852294
0.12030498
0.12194625
0.12346455
0.12487574
0.12619375
0.12743063
0.12859672
0.12970089
0.13075066
0.13175244
0.13271167
0.089549474
0.093288031
0.096875646
0.10027688
0.10346673
0.10643096
0.10916622
0.11167838
0.11398008
0.11608815
0.11802139
0.11979896
0.12143923
0.12295916
0.12437395
0.12569703
0.12694006
0.12811309
0.12922475
0.1302824
0.13129231
0.13225983
0.089551835
0.093193218
0.096692784
0.10001695
0.10314197
0.10605373
0.10874812
0.11122972
0.11350962
0.11560304
0.11752735
0.11930044
0.12093963
0.12246105
0.12387927
0.1252072
0.12645612
0.12763579
0.12875462
0.12981981
0.13083749
0.13181292
0.089559115
0.093102561
0.096514592
0.099762621
0.1028236
0.10568344
0.10833733
0.1107886
0.11304683
0.11512569
0.1170411
0.11880968
0.12044773
0.12197053
0.12339201
0.12472457
0.12597913
0.12716516
0.12829085
0.12936324
0.13038834
0.13137133
0.089571875
0.093018236
0.096343109
0.099515375
0.10251266
0.10532087
0.10793444
0.1103555
0.11259212
0.11465644
0.11656292
0.11832695
0.11996377
0.12148783
0.1229124
0.1242494
0.12550936
0.12670147
0.12783372
0.12891298
0.12994517
0.13093534
0.089590367
0.092941004
0.096179499
0.099276431
0.10221027
0.10496694
0.10754022
0.10993102
0.11214595
0.11419564
0.11609311
0.11785248
0.11948795
0.12101312
0.12244063
0.12378186
0.12504699
0.12624492
0.12738344
0.12846926
0.1295082
0.13050522
0.089615302
0.09287131
0.096024312
0.099046498
0.1019172
0.10462242
0.10715534
0.10951574
0.1117088
0.11374366
0.11563193
0.11738647
0.11902042
0.12054655
0.12197679
0.12332207
0.12459214
0.12579564
0.12694015
0.12803224
0.1290776
0.13008114
0.089647266
0.092809845
0.095878299
0.098826374
0.10163425
0.10428809
0.10678051
0.10911025
0.11128115
0.11330088
0.11517967
0.11692912
0.11856133
0.12008819
0.12152097
0.12287006
0.12414485
0.12535368
0.12650391
0.12760199
0.12865348
0.12966322
0.089686922
0.092757383
0.095742292
0.098616909
0.10136227
0.10396473
0.10641644
0.10871516
0.11086347
0.11286766
0.11473658
0.1164806
0.11811077
0.11963809
0.12107317
0.12242585
0.12370512
0.12491903
0.12607475
0.12717853
0.12823587
0.12925152
0.089734963
0.092714702
0.095617109
0.098418936
0.10110208
0.10365312
0.10606383
0.10833109
0.11045629
0.1124444
0.11430295
0.11604111
0.11766884
0.1191963
0.12063338
0.12198939
0.12327289
0.12449165
0.12565259
0.12676183
0.12782475
0.12884603
0.089792175
0.092682647
0.095503592
0.098233302
0.10085453
0.10335408
0.10572343
0.10795869
0.11006015
0.11203152
0.11387909
0.11561082
0.11723564
0.11876284
0.12020158
0.12156061
0.12284808
0.12407143
0.12523735
0.1263518
0.12742005
0.12844669
0.089859225
0.092661717
0.095402127
0.098060516
0.10062024
0.10306831
0.10539594
0.1075986
0.10967558
0.11162946
0.1134653
0.11518995
0.11681129
0.11833773
0.11977772
0.12113943
0.12243056
0.12365823
0.12482889
0.12594831
0.12702163
0.1280534
0.089935742
0.092653161
0.095315104
0.097902807
0.10040103
0.10279722
0.10508248
0.10725169
0.10930327
0.11123872
0.11306197
0.11477873
0.11639591
0.11792101
0.11936176
0.12072575
0.12202021
0.12325191
0.12442703
0.12555118
0.12662935
0.127666
0.090023527
0.092657095
0.095242106
0.097760281
0.10019729
0.10254134
0.10478359
0.1069185
0.10894371
0.11085972
0.1126694
0.1143774
0.11598963
0.11751273
0.11895369
0.12031949
0.12161689
0.12285229
0.1240316
0.12516022
0.12624301
0.12728433
0.090124375
0.092673974
0.095182083
0.097631353
0.10000781
0.10229997
0.10449902
0.10659905
0.10859706
0.11049269
0.11228782
0.11398613
0.11559257
0.11711293
0.11855347
0.11992056
0.12122047
0.12245921
0.1236424
0.12477523
0.1258624
0.12690816
0.090237384
0.092705628
0.095137709
0.097518322
0.099834273
0.10207434
0.10422967
0.10629407
0.10826393
0.11013812
0.11191764
0.11360523
0.11520493
0.11672173
0.11816114
0.11952892
0.12083084
0.12207251
0.12325924
0.12439599
0.12548729
0.12653727
0.09036272
0.092751509
0.095109269
0.09742197
0.09967765
0.10186542
0.10397648
0.10600437
0.10794502
0.10979662
0.11155934
0.11323506
0.11482698
0.11633928
0.11777676
0.11914455
0.12044792
0.12169206
0.12288196
0.12402231
0.12511747
0.12617143
0.09050065
0.092811826
0.095097472
0.097343744
0.099539422
0.10167454
0.10374055
0.10573091
0.10764114
0.10946883
0.11121345
0.11287605
0.11445904
0.11596581
0.11740045
0.1187675
0.12007168
0.12131777
0.12251039
0.12365399
0.12475272
0.12581042
0.090653055
0.092887864
0.095102305
0.097283145
0.099419448
0.10150181
0.10352218
0.10547405
0.1073527
0.10915522
0.1108804
0.11252859
0.11410142
0.11560154
0.11703238
0.11839783
0.11970212
0.12094955
0.12214442
0.12329087
0.12439284
0.125454
0.090821197
0.092980912
0.095123844
0.097239245
0.099316407
0.1013462
0.10332076
0.10523358
0.10707976
0.10885597
0.11056047
0.11219297
0.1137544
0.11524672
0.11667271
0.11803566
0.11933927
0.1205874
0.12178396
0.12293282
0.12403765
0.12510198
0.091003902
0.093090331
0.095163851
0.097214046
0.099231894
0.10120889
0.10313718
0.10501024
0.10682294
0.10857167
0.1102542
0.11186967
0.11341839
0.11490169
0.1163217
0.11768116
0.11898323
0.12023133
0.12142898
0.12257973
0.12368702
0.12475416
0.091200766
0.093215345
0.095221102
0.097208465
0.099167929
0.10109188
0.10297315
0.10480537
0.10658336
0.10830322
0.10996233
0.11155932
0.11309393
0.11456687
0.1159797
0.11733458
0.11863417
0.11988142
0.12107948
0.12223156
0.12334084
0.12441041
0.091414104
0.093358309
0.095296921
0.097221242
0.099123148
0.10099446
0.10282843
0.10461908
0.1063613
0.10805103
0.10968534
0.11126241
0.11278147
0.1142427
0.11564707
0.11699622
0.1182923
0.11953783
0.12073554
0.12188831
0.12299905
0.12407061
0.091644324
0.093519753
0.095392444
0.097254089
0.099097608
0.10091583
0.10270229
0.10445095
0.10615667
0.10781526
0.10942354
0.11097934
0.11248147
0.11392959
0.1153242
0.11666641
0.11795791
0.11920074
0.12039728
0.12155004
0.12266164
0.1237347
0.091890048
0.093697907
0.095505898
0.097306613
0.099093394
0.10085882
0.10259717
0.1043029
0.10597095
0.10759708
0.1091779
0.11071094
0.11219462
0.11362818
0.11501163
0.11634561
0.11763134
0.11887045
0.12006489
0.12121686
0.12232866
0.12340267
0.092152928
0.093894739
0.095639122
0.097379222
0.099108906
0.10082207
0.10251236
0.1041747
0.10580427
0.10739684
0.10894891
0.11045777
0.11192153
0.11333905
0.11470991
0.11603431
0.11731303
0.11854729
0.11973866
0.12088897
0.12200024
0.12307456
0.092432979
0.094110186
0.095792164
0.097472605
0.099145785
0.1008064
0.10244842
0.10406685
0.10565713
0.10721509
0.10873717
0.11022048
0.11166285
0.11306284
0.11441964
0.11573306
0.11700348
0.1182317
0.11941893
0.12056665
0.12167655
0.1227505
0.092730143
0.094344092
0.09596479
0.097586492
0.099204046
0.10081255
0.10240617
0.10398016
0.10553033
0.10705263
0.10854345
0.10999981
0.11141933
0.11280027
0.11414152
0.11544252
0.11670326
0.11792418
0.11910612
0.12025023
0.12135789
0.12243067
0.09304492
0.094597077
0.096157694
0.097721487
0.099283678
0.10083959
0.10238499
0.10391455
0.10542409
0.10690986
0.10836833
0.10979644
0.11119168
0.11255209
0.11387627
0.11516337
0.11641302
0.11762532
0.11880076
0.11994016
0.12104459
0.12211536
0.093377147
0.094868912
0.096370653
0.09787755
0.09938531
0.10088973
0.10238682
0.1038713
0.1053394
0.10678767
0.10821264
0.1096112
0.11098074
0.11231913
0.11362473
0.11489641
0.11613351
0.1173358
0.11850346
0.11963697
0.12073712
0.12180494
0.093727003
0.095159844
0.096603949
0.098054896
0.099508765
0.10096166
0.10240972
0.10384948
0.10527621
0.1066864
0.10807694
0.10944479
0.1107873
0.11210222
0.11338773
0.11464249
0.11586555
0.1170564
0.11821492
0.1193413
0.12043604
0.12149988
0.094094349
0.095469753
0.096857526
0.098253619
0.099654511
0.1010567
0.10245667
0.10385119
0.10523566
0.1066069
0.10796201
0.10929801
0.1106122
0.11190224
0.1131662
0.11440251
0.11561002
0.11678797
0.11793595
0.11905389
0.120142
0.12120077
0.094478994
0.095798469
0.097131223
0.098473536
0.099822231
0.10117414
0.102526
0.10387464
0.10521722
0.10654948
0.10786851
0.10917167
0.11045634
0.11172016
0.1129611
0.11417746
0.11536791
0.11653146
0.11766746
0.11877559
0.11985579
0.12090831
0.094880689
0.096145813
0.097424964
0.098714721
0.10001224
0.10131469
0.10261915
0.10392262
0.10522246
0.10651488
0.107797
0.10906638
0.11032043
0.11155679
0.11277336
0.11396834
0.11514024
0.1162879
0.11741045
0.11850735
0.11957831
0.12062332
0.095298925
0.096511281
0.097738246
0.098976663
0.10022399
0.10147769
0.10273513
0.10399357
0.10525036
0.10650322
0.10774827
0.10898313
0.11020554
0.11141323
0.11260409
0.11377626
0.11492814
0.11605841
0.11716603
0.11825025
0.11931058
0.12034678
0.095733221
0.096894473
0.098070774
0.099259209
0.1004575
0.10166343
0.10287462
0.10408861
0.10530287
0.10651514
0.10772249
0.10892218
0.11011212
0.11129015
0.11245415
0.11360222
0.11473269
0.11584413
0.11693536
0.11800545
0.11905372
0.12007974
0.096182823
0.097294647
0.098421819
0.099561639
0.10071208
0.10187117
0.10303683
0.10420682
0.10537889
0.10655078
0.10772053
0.10888458
0.11004118
0.11118858
0.11232463
0.11344738
0.11455511
0.1156463
0.11671968
0.11777418
0.11880895
0.1198234
0.096646928
0.097711046
0.098790686
0.099883339
0.1009872
0.10210053
0.10322148
0.10434808
0.10547826
0.10660995
0.10774134
0.10887044
0.10999389
0.11110993
0.11221694
0.1133131
0.11439673
0.11546627
0.11652035
0.11755779
0.11857761
0.11957905
0.097124722
0.098142942
0.099176754
0.10022383
0.10128256
0.10235143
0.10342882
0.10451297
0.10560203
0.10669409
0.10778722
0.10887984
0.10996929
0.11105343
0.11213075
0.11319953
0.11425809
0.11530484
0.11633837
0.11735743
0.11836093
0.11934799
0.097615052
0.098589168
0.099578842
0.1005819
0.10159693
0.10262259
0.10365746
0.1047
0.10574855
0.10680139
0.10785675
0.10891296
0.10996861
0.11102052
0.11206736
0.11310787
0.11414038
0.11516327
0.11617506
0.11717446
0.1181603
0.11913161
0.09811676
0.099048596
0.099995863
0.10095654
0.10192936
0.10291317
0.10390672
0.10490864
0.10591747
0.10693168
0.10794965
0.1089698
0.10999081
0.1110112
0.11202773
0.11303927
0.11404482
0.11504279
0.1160317
0.1170102
0.11797708
0.1189313
0.098628631
0.099520037
0.10042667
0.10134666
0.10227887
0.1032223
0.10417586
0.10513836
0.1061085
0.10708491
0.10806616
0.10905077
0.11003728
0.11102463
0.11201098
0.11299384
0.11397195
0.11494418
0.11590921
0.1168657
0.11781245
0.11874833
0.09914934
0.10000217
0.10086997
0.10175098
0.10264421
0.10354879
0.10446378
0.10538813
0.1063207
0.10726027
0.10820558
0.10915527
0.11010797
0.11106238
0.11201758
0.1129711
0.11392133
0.11486733
0.11580783
0.11674153
0.1176672
0.11858372
0.099677502
0.1004936
0.10132434
0.1021681
0.103024
0.10389129
0.10476915
0.10565666
0.10655282
0.10745655
0.10836673
0.10928215
0.11020155
0.11112363
0.11204729
0.11297161
0.11389385
0.11481304
0.11572836
0.11663854
0.11754232
0.11843854
0.10021169
0.10099286
0.10178832
0.10259655
0.10341676
0.10424832
0.10509051
0.10594253
0.1068035
0.10767247
0.10854842
0.1094303
0.11031696
0.11120723
0.11209997
0.11299436
0.11388936
0.11478208
0.11567173
0.11655768
0.11743877
0.11831381
0.10075051
0.10149855
0.10226046
0.10303486
0.10382106
0.10461849
0.10542653
0.1062445
0.10707161
0.10790703
0.10874987
0.10959917
0.11045394
0.11131311
0.11217559
0.1130403
0.11390658
0.11477317
0.11563754
0.11649894
0.1173568
0.11821004
0.10129256
0.10200921
0.1027393
0.10348156
0.10423538
0.10500027
0.1057757
0.10656105
0.10735566
0.10815878
0.10896963
0.10978737
0.11061108
0.11143984
0.11227264
0.11310846
0.11394636
0.11478577
0.11562518
0.11646238
0.11729669
0.11812762
0.1018365
0.10252345
0.10322339
0.10393517
0.10465823
0.10539216
0.1061365
0.10689071
0.1076542
0.10842633
0.1092064
0.10999365
0.11078728
0.11158645
0.11239026
0.11319777
0.11400803
0.1148202
0.11563383
0.11644717
0.11725829
0.11806664
0.10238105
0.10303993
0.10371134
0.10439424
0.10508814
0.10579266
0.10650741
0.10723194
0.10796571
0.10870816
0.10945868
0.11021658
0.11098117
0.11175167
0.11252727
0.11330714
0.11409038
0.11487608
0.11566354
0.1164524
0.11724073
0.11802701
0.10292496
0.10355735
0.1042018
0.10485738
0.10552363
0.10620026
0.10688692
0.1075832
0.10828864
0.10900275
0.10972498
0.11045473
0.11119137
0.11193423
0.11268256
0.11343561
0.11419256
0.11495257
0.11571478
0.11647856
0.11724352
0.11800751
0.1034671
0.10407449
0.10469347
0.10532321
0.10596332
0.10661351
0.1072735
0.10794294
0.10862141
0.10930848
0.11000367
0.11070645
0.11141626
0.11213248
0.11285446
0.11358151
0.11431289
0.11504783
0.11578551
0.1165251
0.11726605
0.11800781
0.10400639
0.10459021
0.10518515
0.10579047
0.10640584
0.107031
0.10766571
0.10830965
0.10896246
0.10962378
0.11029315
0.11097012
0.11165417
0.11234477
0.11304132
0.11374319
0.11444972
0.11516021
0.1158739
0.11659003
0.11730787
0.11802701
0.10454189
0.10510347
0.10567572
0.10625798
0.10684995
0.10745142
0.10806217
0.10868192
0.10931036
0.10994716
0.11059192
0.11124424
0.11190366
0.1125697
0.11324181
0.11391944
0.11460199
0.11528881
0.11597924
0.11667256
0.11736807
0.11806507
0.10507273
0.10561334
0.10616417
0.10672465
0.10729451
0.10787356
0.10846161
0.10905843
0.10966374
0.11027723
0.11089856
0.11152738
0.11216326
0.11280578
0.11345446
0.11410878
0.11476821
0.11543217
0.11610004
0.11677119
0.11744495
0.11812063
0.10559814
0.10611897
0.10664959
0.1071895
0.10773845
0.1082963
0.10886287
0.10943795
0.1100213
0.11061265
0.1112117
0.11181812
0.11243155
0.11305159
0.11367783
0.11430979
0.114947
0.11558891
0.11623499
0.11688464
0.11753725
0.1181922
0.10611747
0.10661963
0.10713117
0.10765164
0.10818084
0.10871863
0.10926485
0.10981933
0.11038186
0.11095218
0.11153004
0.11211514
0.11270717
0.11330575
0.11391052
0.11452106
0.11513693
0.11575764
0.1163827
0.11701156
0.11764369
0.11827849
0.10663013
0.10711468
0.10760819
0.1081103
0.10862082
0.10913962
0.10966659
0.11020155
0.11074431
0.11129468
0.1118524
0.11241722
0.11298884
0.11356696
0.11415122
0.11474125
0.11533666
0.115937
0.11654183
0.11715065
0.11776297
0.11837825
0.10713564
0.10760355
0.10808003
0.10856477
0.10905762
0.10955846
0.11006718
0.11058364
0.11110767
0.11163908
0.11217766
0.11272318
0.11327538
0.11383397
0.11439865
0.11496908
0.11554489
0.1161257
0.11671109
0.11730061
0.11789382
0.11849022
0.1076336
0.10808578
0.10854615
0.10901447
0.10949059
0.10997442
0.11046585
0.11096476
0.11147101
0.11198442
0.11250481
0.11303198
0.11356568
0.11410567
0.11465166
0.11520335
0.11576042
0.11632251
0.11688925
0.11746023
0.11803504
0.11861324
0.10812368
0.10856097
0.1090061
0.10945887
0.10991914
0.11038685
0.11086189
0.11134416
0.11183353
0.11232985
0.11283295
0.11334265
0.11385873
0.11438098
0.11490915
0.11544295
0.11598209
0.11652626
0.1170751
0.11762827
0.11818538
0.11874605
0.10860561
0.1090288
0.10945949
0.10989752
0.11034278
0.1107952
0.11125469
0.11172116
0.1121945
0.11267457
0.11316123
0.11365431
0.11415362
0.11465896
0.11517011
0.11568682
0.11620882
0.11673582
0.11726752
0.11780358
0.11834367
0.11888744
0.1090792
0.10948902
0.10990602
0.11033008
0.11076109
0.11119899
0.11164372
0.11209519
0.11255329
0.11301792
0.11348893
0.11396619
0.11444952
0.11493874
0.11543365
0.11593403
0.11643964
0.11695021
0.11746547
0.11798513
0.11850886
0.11903637
0.10954429
0.10994142
0.11034544
0.11075623
0.11117371
0.11159783
0.11202853
0.11246574
0.11290936
0.11335929
0.11381541
0.1142776
0.11474569
0.11521954
0.11569896
0.11618374
0.11667368
0.11716853
0.11766805
0.11817196
0.11868
0.11919187
0.1100008
0.11038588
0.11077755
0.11117574
0.11158037
0.11199139
0.11240875
0.11283239
0.11326222
0.11369816
0.1141401
0.11458793
0.1150415
0.11550068
0.11596531
0.11643519
0.11691014
0.11738996
0.11787439
0.11836322
0.11885619
0.11935304
0.11044868
0.1108223
0.11120224
0.11158843
0.11198083
0.11237939
0.11278405
0.11319478
0.11361148
0.1140341
0.11446252
0.11489666
0.11533638
0.11578156
0.11623206
0.1166877
0.11714833
0.11761374
0.11808373
0.11855809
0.11903659
0.119519
0.11088793
0.11125063
0.1116194
0.11199418
0.11237494
0.11276162
0.11315419
0.11355261
0.11395681
0.11436672
0.11478225
0.11520333
0.11562983
0.11606164
0.11649864
0.11694067
0.11738759
0.11783922
0.11829537
0.11875585
0.11922046
0.119689
0.11131856
0.11167087
0.11202899
0.1123929
0.11276256
0.11313793
0.11351897
0.11390566
0.11429792
0.11469571
0.11509895
0.11550755
0.11592143
0.11634047
0.11676456
0.11719358
0.11762737
0.1180658
0.11850868
0.11895585
0.11940713
0.11986234
0.11174065
0.11208304
0.11243101
0.11278455
0.11314362
0.11350819
0.11387824
0.11425373
0.11463461
0.11502082
0.11541231
0.115809
0.11621081
0.11661764
0.11702939
0.11744595
0.11786718
0.11829295
0.11872312
0.11915751
0.11959599
0.12003838
0.11215429
0.11248721
0.11282549
0.11316912
0.11351808
0.11387235
0.11423189
0.11459668
0.11496668
0.11534184
0.11572211
0.11610741
0.11649768
0.11689283
0.11729276
0.11769739
0.11810659
0.11852024
0.1189382
0.11936033
0.11978651
0.12021657
0.1125596
0.11288346
0.11321248
0.11354664
0.11388595
0.11423036
0.11457987
0.11493443
0.11529403
0.11565862
0.11602814
0.11640255
0.11678177
0.11716574
0.11755437
0.11794756
0.11834522
0.11874724
0.11915349
0.11956385
0.11997821
0.12039641
0.11295673
0.11327192
0.11359207
0.11391719
0.11424725
0.11458224
0.11492214
0.11526692
0.11561657
0.11597103
0.11633028
0.11669425
0.1170629
0.11743615
0.11781394
0.11819618
0.11858277
0.11897363
0.11936864
0.11976768
0.12017067
0.12057747
0.11334583
0.11365273
0.11396439
0.11428083
0.11460205
0.11492801
0.11525871
0.11559413
0.11593424
0.11627901
0.11662841
0.11698239
0.1173409
0.11770388
0.11807127
0.11844299
0.11881897
0.11919911
0.11958331
0.11997148
0.12036353
0.12075935
0.11372709
0.11402603
0.11432956
0.11463769
0.11495043
0.11526774
0.11558962
0.11591606
0.11624704
0.11658252
0.11692247
0.11726687
0.11761565
0.11796878
0.11832619
0.11868781
0.11905359
0.11942343
0.11979725
0.12017496
0.12055648
0.12094172
0.11410071
0.11439202
0.11468774
0.1149879
0.1152925
0.11560152
0.11591494
0.11623277
0.11655497
0.11688154
0.11721243
0.11754762
0.11788707
0.11823074
0.11857856
0.11893049
0.11928646
0.1196464
0.12001023
0.12037787
0.12074925
0.1211243
0.1144669
0.11475088
0.11503911
0.11533161
0.1156284
0.11592944
0.11623475
0.1165443
0.11685809
0.11717609
0.11749828
0.11782463
0.11815511
0.11848968
0.11882829
0.1191709
0.11951744
0.11986785
0.12022206
0.12058
0.12094162
0.12130683
0.1148259
0.11510282
0.11538384
0.11566899
0.11595826
0.11625165
0.11654915
0.11685075
0.11715644
0.11746621
0.11778004
0.11809789
0.11841975
0.11874557
0.11907532
0.11940895
0.11974641
0.12008765
0.1204326
0.12078119
0.12113339
0.12148912
0.11517793
0.11544806
0.11572215
0.11600021
0.11628226
0.11656828
0.11685827
0.11715222
0.11745013
0.11775198
0.11805775
0.11836743
0.11868099
0.11899839
0.11931961
0.1196446
0.11997331
0.12030571
0.12064173
0.12098131
0.12132442
0.121671
0.11552323
0.11578682
0.11605423
0.11632547
0.11660056
0.11687948
0.11716224
0.11744883
0.11773924
0.11803346
0.11833148
0.11863329
0.11893885
0.11924814
0.11956113
0.1198778
0.12019808
0.12052195
0.12084936
0.12118024
0.12151458
0.12185231
0.11586205
0.11611933
0.1163803
0.11664496
0.11691334
0.11718543
0.11746121
0.1177407
0.11802389
0.11831076
0.11860131
0.11889552
0.11919337
0.11949485
0.11979991
0.12010854
0.1204207
0.12073634
0.12105543
0.12137791
0.12170377
0.12203296
0.11619463
0.11644582
0.11670057
0.11695889
0.1172208
0.11748628
0.11775534
0.11802798
0.11830419
0.11858398
0.11886732
0.11915421
0.11944462
0.11973855
0.12003596
0.12033684
0.12064114
0.12094884
0.12125989
0.12157426
0.12189193
0.12221285
0.11652121
0.11676652
0.11701526
0.11726745
0.11752311
0.11778222
0.11804478
0.11831081
0.11858029
0.11885323
0.11912961
0.11940943
0.11969266
0.1199793
0.12026933
0.12056271
0.12085943
0.12115945
0.12146274
0.12176926
0.122079
0.12239192
0.11684205
0.11708167
0.11732459
0.11757086
0.11782047
0.11807342
0.11832971
0.11858934
0.11885232
0.11911864
0.1193883
0.11966128
0.11993758
0.12021717
0.12050005
0.1207862
0.12107558
0.12136817
0.12166395
0.12196288
0.12226494
0.12257012
0.11715737
0.11739148
0.11762878
0.11786931
0.11811307
0.11836006
0.11861028
0.11886373
0.11912042
0.11938034
0.11964349
0.11990987
0.12017945
0.12045223
0.1207282
0.12100734
0.12128962
0.12157503
0.12186354
0.12215511
0.12244975
0.12274742
0.11746742
0.11769618
0.11792804
0.11816301
0.11840111
0.11864233
0.11888667
0.11913414
0.11938474
0.11963846
0.11989532
0.12015529
0.12041838
0.12068457
0.12095385
0.1212262
0.12150161
0.12178006
0.12206152
0.12234597
0.12263341
0.12292381
0.11777242
0.117996
0.11822258
0.11845216
0.11868477
0.11892039
0.11915904
0.11940071
0.11964541
0.11989314
0.12014389
0.12039767
0.12065446
0.12091426
0.12117706
0.12144284
0.12171159
0.1219833
0.12225793
0.12253547
0.12281593
0.12309927
0.1180726
0.11829115
0.1185126
0.11873696
0.11896424
0.11919444
0.11942756
0.11966361
0.11990259
0.1201445
0.12038934
0.12063711
0.1208878
0.12114141
0.12139792
0.12165733
0.12191963
0.12218479
0.1224528
0.12272364
0.12299732
0.12327382
0.11836817
0.11858185
0.11879832
0.1190176
0.11923971
0.11946464
0.1196924
0.11992299
0.12015642
0.12039269
0.12063179
0.12087373
0.1211185
0.1213661
0.12161652
0.12186975
0.12212578
0.12238459
0.12264618
0.12291052
0.12317762
0.12344747
0.11865936
0.11886828
0.11907991
0.11929427
0.11951135
0.11973117
0.11995372
0.12017901
0.12040705
0.12063784
0.12087137
0.12110765
0.12134668
0.12158844
0.12183294
0.12208017
0.12233012
0.12258277
0.12283811
0.12309614
0.12335685
0.12362024
0.11894637
0.11915067
0.11935759
0.11956715
0.11977935
0.11999419
0.12021168
0.12043182
0.12065462
0.12088008
0.1211082
0.12133899
0.12157243
0.12180853
0.12204728
0.12228868
0.12253272
0.12277938
0.12302866
0.12328055
0.12353505
0.12379217
0.11922939
0.1194292
0.11963153
0.11983642
0.12004387
0.12025387
0.12046644
0.12068157
0.12089928
0.12111956
0.12134242
0.12156785
0.12179587
0.12202646
0.12225963
0.12249536
0.12273365
0.1229745
0.12321788
0.1234638
0.12371227
0.12396328
0.11950864
0.11970406
0.11990193
0.12010227
0.12030508
0.12051038
0.12071815
0.1209284
0.12114115
0.1213564
0.12157414
0.12179438
0.12201711
0.12224235
0.12247008
0.1227003
0.122933
0.12316818
0.12340584
0.12364595
0.12388854
0.12413361
0.1197843
0.11997544
0.12016896
0.12036486
0.12056316
0.12076386
0.12096697
0.12117248
0.1213804
0.12159073
0.12180349
0.12201867
0.12223627
0.12245629
0.12267872
0.12290358
0.12313085
0.12336052
0.12359259
0.12382706
0.12406393
0.12430321
0.12005656
0.12024352
0.12043279
0.12062437
0.12081827
0.1210145
0.12121305
0.12141393
0.12161714
0.1218227
0.1220306
0.12224085
0.12245344
0.12266838
0.12288567
0.1231053
0.12332727
0.12355158
0.12377822
0.12400718
0.12423848
0.12447213
0.1203256
0.12050848
0.1206936
0.12088096
0.12107057
0.12126243
0.12145653
0.1216529
0.12185153
0.12205242
0.12225559
0.12246103
0.12266875
0.12287874
0.123091
0.12330554
0.12352236
0.12374144
0.12396278
0.12418638
0.12441226
0.12464042
0.1205916
0.1207705
0.12095157
0.1211348
0.12132021
0.1215078
0.12169758
0.12188953
0.12208369
0.12228003
0.12247858
0.12267934
0.12288229
0.12308746
0.12329483
0.12350441
0.12371619
0.12393017
0.12414635
0.12436473
0.12458532
0.12480813
0.12085475
0.12102975
0.12120685
0.12138605
0.12156736
0.12175078
0.12193632
0.12212397
0.12231375
0.12250566
0.1226997
0.12289588
0.12309419
0.12329465
0.12349724
0.12370198
0.12390885
0.12411786
0.12432901
0.12454229
0.12475772
0.12497531
0.1211152
0.12128638
0.1214596
0.12163486
0.12181216
0.12199151
0.1221729
0.12235635
0.12254186
0.12272943
0.12291906
0.12311077
0.12330455
0.12350041
0.12369834
0.12389835
0.12410044
0.12430459
0.12451083
0.12471913
0.12492952
0.12514202
0.12137313
0.12154057
0.12170999
0.12188139
0.12205476
0.12223012
0.12240746
0.1225868
0.12276813
0.12295145
0.12313679
0.12332413
0.12351348
0.12370484
0.12389822
0.12409362
0.12429102
0.12449044
0.12469187
0.12489532
0.1251008
0.12530832
0.1216287
0.12179248
0.12195817
0.12212578
0.12229531
0.12246676
0.12264014
0.12281545
0.12299269
0.12317187
0.12335299
0.12353606
0.12372108
0.12390805
0.12409698
0.12428786
0.1244807
0.12467549
0.12487223
0.12507093
0.12527161
0.12547427
0.12188206
0.12204225
0.12220429
0.12236819
0.12253395
0.12270158
0.12287107
0.12304243
0.12321566
0.12339078
0.12356779
0.12374668
0.12392746
0.12411014
0.12429471
0.12448118
0.12466954
0.12485981
0.12505197
0.12524603
0.12544201
0.12563993
0.12213338
0.12229003
0.12244849
0.12260875
0.12277081
0.12293469
0.12310037
0.12326786
0.12343718
0.12360832
0.12378129
0.12395608
0.12413272
0.12431119
0.1244915
0.12467365
0.12485765
0.12504348
0.12523116
0.12542068
0.12561208
0.12580535
0.12238279
0.12253597
0.12269091
0.12284759
0.12300603
0.12316622
0.12332817
0.12349187
0.12365734
0.12382458
0.1239936
0.12416439
0.12433696
0.12451131
0.12468745
0.12486537
0.12504509
0.12522659
0.12540988
0.12559497
0.12578187
0.1259706
0.12263044
0.12278021
0.12293169
0.12308486
0.12323974
0.12339631
0.12355459
0.12371458
0.12387627
0.12403969
0.12420482
0.12437168
0.12454027
0.12471059
0.12488264
0.12505642
0.12523194
0.1254092
0.1255882
0.12576894
0.12595145
0.12613573
0.12287646
0.12302288
0.12317096
0.12332068
0.12347205
0.12362508
0.12377975
0.12393608
0.12409408
0.12425374
0.12441507
0.12457807
0.12474275
0.12490911
0.12507716
0.12524688
0.1254183
0.1255914
0.12576619
0.12594267
0.12612087
0.1263008
0.12312098
0.12326411
0.12340884
0.12355516
0.12370309
0.12385262
0.12400376
0.1241565
0.12431086
0.12446684
0.12462443
0.12478365
0.1249445
0.12510698
0.12527109
0.12543684
0.12560422
0.12577325
0.12594391
0.12611622
0.1262902
0.12646587
0.12336413
0.12350401
0.12364544
0.12378843
0.12393297
0.12407907
0.12422672
0.12437594
0.12452672
0.12467908
0.124833
0.12498851
0.12514559
0.12530426
0.12546451
0.12562636
0.12578979
0.12595482
0.12612144
0.12628966
0.1264595
0.12663098
0.12360602
0.1237427
0.12388089
0.12402058
0.12416179
0.12430451
0.12444874
0.12459449
0.12474176
0.12489055
0.12504087
0.12519273
0.12534611
0.12550104
0.12565751
0.12581552
0.12597507
0.12613618
0.12629883
0.12646304
0.12662883
0.12679621
0.12384676
0.12398028
0.12411528
0.12425173
0.12438966
0.12452905
0.12466991
0.12481225