/*--------------------------------*- C++ -*----------------------------------*\
| =========                 |                                                 |
| \\      /  F ield         | OpenFOAM: The Open Source CFD Toolbox           |
|  \\    /   O peration     | Version:  2406                                  |
|   \\  /    A nd           | Website:  www.openfoam.com                      |
|    \\/     M anipulation  |                                                 |
\*---------------------------------------------------------------------------*/
FoamFile
{
    version     2.0;
    format      ascii;
    arch        "LSB;label=32;scalar=64";
    class       volScalarField;
    location    "0.015";
    object      omega;
}
// * * * * * * * * * * * * * * * * * * * * * * * * * * * * * * * * * * * * * //

dimensions      [0 0 -1 0 0 0 0];

internalField   nonuniform List<scalar> 
23203
(
36161.974
36093.465
35703.952
34998.362
34000.104
32749.498
31297.75
29700.374
28011.491
26279.763
24546.123
22843.014
21194.696
19618.168
18124.35
16719.304
15405.327
14181.84
13045.884
11991.572
11014.813
10114.828
9287.5641
35685.118
35606.775
35215.061
34515.128
33530.028
32299.022
30871.878
29302.576
27643.801
25942.99
24240.1
22566.842
20946.958
19397.098
17927.974
16545.528
15252.001
14046.81
12927.2
11888.847
10927.969
10041.812
9226.4447
35155.411
35066.955
34672.82
33978.758
33007.642
31797.756
30397.411
28858.958
27233.502
25567.094
23898.558
22258.739
20670.755
19150.839
17709.447
16352.396
15081.909
13897.503
12796.749
11776.045
10831.704
9960.2346
9157.6443
34571.001
34471.445
34074.78
33387.181
32431.35
31244.583
29873.669
28369.204
26780.562
25152.245
23521.801
21919.088
20366.51
18879.824
17469.201
16140.333
14895.446
13734.194
12654.433
11652.944
10726.125
9870.2569
9081.3689
33930.577
33818.991
33419.853
32739.619
31800.751
30639.477
29300.95
27833.867
26285.71
24699.28
23110.712
21548.77
20035.07
18584.844
17207.96
15909.981
14693.15
13557.261
12500.407
11519.626
10611.436
9772.1253
33233.989
33109.671
32708.329
32036.626
31116.679
29983.527
28680.544
27254.371
25750.433
24209.685
22666.725
21149.132
19677.669
18267.01
16926.701
15662.18
14475.714
13367.234
12335.044
11376.407
10488.007
9666.2426
32482.506
32345.018
31941.962
31280.165
30381.276
29279.003
28014.783
26633.038
25176.987
23685.595
22191.82
20721.974
19295.917
17927.736
16626.65
15397.972
14243.998
13164.801
12158.891
11223.756
10356.283
9553.0377
31678.862
31528.043
31124.007
30473.637
29598.011
28529.364
27307.042
25973.093
24568.386
23129.782
21688.5
20269.526
18891.774
17568.724
16309.263
15118.585
13999.024
12950.799
11972.632
11062.25
10216.766
9432.9503
30827.308
30663.286
30259.185
29621.834
28771.635
27739.218
26561.697
25278.612
23928.364
22545.611
21159.761
19794.416
18467.52
17191.933
15976.207
14825.421
13741.957
12726.191
11777.064
10892.552
10070.018
9306.4613
29933.5
29756.679
29353.545
28730.797
27908.048
26914.201
25784.023
24554.443
23261.302
21936.982
20609.027
19299.623
18025.721
16799.549
15629.33
14520.031
13474.091
12492.046
11573.07
10715.396
9916.6523
9174.0908
29004.201
28815.255
28414.238
27807.616
27014.114
26060.812
24980.049
23806.073
22572.112
21308.233
20040.084
18788.415
17569.17
16393.946
15270.631
14204.09
13196.817
12249.519
11361.604
10531.573
9757.3278
9036.3908
28047.101
27846.996
27449.274
26860.18
26097.422
25186.193
24156.359
23039.463
21866.106
20664.03
19456.984
18264.274
17100.837
15977.635
14902.224
13879.361
12911.603
11999.825
11143.672
10341.914
9592.736
8893.9377
27070.468
26860.348
26467.18
25896.85
25165.985
24297.856
23319.858
22260.847
21148.825
20009.234
18863.938
17730.815
16623.797
15553.216
14526.29
13547.67
12619.968
11744.223
10920.314
10147.281
9423.5902
8747.3239
26082.79
25864.021
25476.65
24926.112
24227.909
23403.39
22477.516
21476.518
20425.863
19348.749
18265.199
17191.688
16141.16
15123.317
14145.039
13210.865
12323.449
11483.99
10692.589
9948.5496
9250.6153
8597.1496
25092.4
24866.516
24486.148
23956.219
23291.075
22510.171
21636.113
20692.606
19702.68
18687.375
17664.94
16650.487
15655.993
14690.538
13760.663
12870.78
12023.579
11220.399
10461.553
9746.5951
9074.5371
8444.0156
24107.162
23875.826
23503.604
22994.883
22362.839
21625.094
20802.002
19914.874
18984.432
18029.669
17067.14
16110.652
15171.247
14257.393
13375.288
12529.207
11721.858
10954.703
10228.248
9542.2827
8896.0726
8288.5155
23134.219
22899.152
22536.149
22049.027
21449.806
20754.357
19980.916
19148.549
18275.823
17379.811
16475.478
15575.389
14689.69
13826.254
12990.933
12187.854
11419.724
10688.107
9993.6829
9336.453
8715.921
8131.2293
22179.789
21942.724
21589.925
21124.603
20557.658
19903.309
19177.823
18398.191
17580.988
16741.514
15893.247
15047.594
14213.847
13399.304
12609.472
11848.32
11118.533
10421.757
9758.819
9129.9117
8534.7546
7972.7168
21249.077
21011.718
20669.991
20226.497
19691.056
19076.352
18396.838
17667.609
16903.421
16117.944
15323.296
14529.801
13745.953
12978.496
12232.601
11512.065
10819.536
10156.718
9524.558
8923.4188
8353.2118
7813.5113
20346.204
20110.172
19780.261
19358.471
18853.595
18276.896
17641.179
16959.819
16245.922
15511.687
14767.982
14024.144
13287.917
12565.527
11861.81
11180.392
10523.861
9893.9578
9291.7296
8717.6799
8171.8892
7654.1151
19474.2
19240.999
18923.522
18523.187
18047.817
17507.377
16913.176
16277.042
15610.602
14924.726
14229.161
13532.334
12841.307
12161.814
11498.372
10854.426
10232.499
9634.3424
9061.0817
8513.3375
7991.3354
7494.9936
18635.092
18406.084
18101.532
17722.297
17275.298
16769.316
16214.315
15620.74
14998.896
14358.466
13708.186
13055.667
12407.341
11768.488
11143.323
10535.11
9946.2921
9378.6198
8833.2721
8310.9649
7812.0456
7336.5713
17830.011
17606.396
17315.132
16956.555
16536.749
16063.422
15545.331
14991.688
14411.622
13813.76
13205.935
12595.025
11986.892
11386.397
10797.468
10223.194
9665.9327
9127.4174
8608.8632
8111.0604
7634.457
7179.2277
17059.311
16842.116
16564.38
16225.952
15832.146
15389.701
14906.297
14390.049
13849.043
13290.967
12722.85
12150.914
11580.507
11016.108
10461.379
9919.2396
9391.9568
8881.2376
8388.3177
7914.0436
7458.9447
7023.2941
16322.689
16112.772
15848.687
15529.845
15160.852
14747.575
14296.736
13815.473
13310.946
12790.011
12258.982
11723.494
11188.433
10657.934
10135.411
9623.6234
9124.7485
8640.4585
8171.9975
7720.2532
7285.8197
6869.051
15619.301
15417.335
15166.925
14867.066
14521.726
14135.991
13715.72
13267.186
12796.725
12310.452
11814.047
11312.622
10810.649
10311.95
9819.7133
9336.5494
8864.5461
8405.3365
7960.1645
7529.9465
7115.3271
6716.7265
14947.944
14754.461
14517.666
14236.153
13913.333
13553.589
13162.016
12744.109
12305.472
11851.562
11387.492
10917.905
10446.904
9978.0248
9514.2543
9058.0618
8611.4505
8176.0121
7752.9835
7343.3003
6947.6464
6566.4952
14307.222
14122.596
13899.242
13635.42
13334.019
12998.798
12634.169
12244.939
11836.058
11412.392
10978.546
10538.744
10096.752
9655.8512
9218.841
8788.0624
8365.4379
7952.5176
7550.527
7160.414
6782.8924
6418.4787
13695.479
13519.927
13309.768
13062.966
12781.928
12469.854
12130.549
11768.205
11387.186
10991.827
10586.278
10174.379
9759.5952
9344.9746
8933.1449
8526.3287
8126.3731
7734.787
7352.7822
6981.3137
6621.1181
6272.7469
13110.945
12944.581
12747.32
12516.844
12255.148
11964.929
11649.448
11312.345
10957.459
10588.647
10209.64
9823.9351
9434.7187
9044.8258
8656.7269
8272.5346
7894.0252
7522.6678
7159.6591
6805.9576
6462.3178
6129.3194
12551.86
12394.694
12209.963
11995.114
11751.774
11482.192
11189.144
10875.775
10545.446
10201.577
9847.5232
9486.4625
9121.326
8754.7512
8389.0626
8026.2702
7668.0831
7315.9327
6970.9993
6634.243
6306.432
5988.1695
12016.517
11868.459
11695.855
11495.938
11269.996
11019.898
10747.983
10456.95
10149.728
9829.3425
9498.7968
9160.9762
8818.5734
8474.0413
8129.5664
7787.0616
7448.1723
7114.2926
6786.5864
6466.0132
6153.3525
5849.227
11503.305
11364.184
11203.26
11017.563
10808.099
10576.387
10324.383
10054.387
9768.9363
9470.6932
9162.339
8846.484
8525.597
8201.955
7877.6129
7554.39
7233.8697
6917.4092
6606.1555
6301.0657
6002.9282
5712.3827
11010.648
10880.234
10730.501
10558.316
10364.436
10150.071
9916.834
9666.6667
9401.7534
9124.4229
8837.0571
8542.0087
8241.5334
7937.7399
7632.5556
7327.7078
7024.7184
6724.9072
6429.4031
6139.1593
5854.9711
5577.4927
10537.082
10415.094
10276.05
10116.67
9937.5006
9739.4867
9523.9356
9292.4684
9046.9467
8789.393
8521.9105
8246.6088
7965.5408
7680.6518
7393.7442
7106.454
6820.2406
6536.3852
6255.9966
5980.0223
5709.2623
5444.3832
10081.315
9967.4216
9838.5385
9691.2683
9525.9691
9343.3464
9144.4481
8930.609
8703.3991
8464.5592
8215.9326
7959.3992
7696.8162
7429.9703
7160.5395
6890.0679
6619.9503
6351.4268
6085.5835
5823.3598
5565.5581
5312.8548
9642.1705
9536.0122
9416.7525
9280.893
9128.6325
8960.4801
8777.2492
8580.0191
8370.0982
8148.97
7918.2361
7679.5584
7434.6065
7185.0108
6932.3253
6678.0002
6423.363
6169.6093
5917.7991
5668.8604
5423.5951
5182.6875
9218.5674
9119.758
9009.5781
8884.4404
8744.4117
8589.8373
8421.3264
8239.7334
8046.1302
7841.765
7628.0145
7406.3352
7178.2155
6945.1329
6708.5174
6469.7226
6230.0055
5990.5126
5752.2742
5516.2028
5283.0966
5053.6446
8809.584
8717.7181
8616.0659
8500.9696
8372.3939
8230.5378
8075.8299
7908.9342
7730.7121
7542.1976
7344.5596
7139.0607
6927.0154
6709.7512
6488.5734
6264.7369
6039.4238
5813.7272
5588.6425
5365.0624
5143.7773
4925.4777
8414.4109
8329.0742
8235.4015
8129.6792
8011.7882
7881.8037
7740.0138
7586.9085
7423.163
7249.6186
7067.253
6877.1471
6680.4488
6478.3391
6271.9989
6062.5819
5851.1908
5638.8608
5426.5468
5215.1168
5005.349
4797.9311
8032.3441
7953.1136
7866.8746
7769.8704
7661.916
7542.9917
7413.2619
7273.0647
7122.9162
6963.4845
6795.5729
6620.0929
6438.0344
6250.4357
6058.3542
5862.8401
5664.9134
5465.5456
5265.6462
5066.0527
4867.5258
4670.7463
7662.7994
7589.2525
7509.9092
7420.9818
7322.2372
7213.5818
7095.0718
6966.924
6829.5128
6683.3539
6529.0929
6367.4847
6199.3701
6025.6499
5847.2596
5665.1446
5480.2387
5293.4452
5105.6222
4917.5714
4730.0304
4543.6678
7305.2853
7237.0018
7164.0262
7082.5515
6992.3107
6893.151
6785.0458
6668.1115
6542.5963
6408.8849
6267.4815
6118.9981
5964.1361
5803.665
5638.4012
5469.1851
5296.8616
5122.2617
4946.1868
4769.3966
4592.6003
4416.449
6959.4067
6895.9735
6828.8508
6754.2226
6671.8004
6581.3888
6482.8997
6376.3588
6261.9138
6139.8351
6010.5024
5874.3988
5732.0968
5584.2422
5431.5357
5274.714
5114.5315
4951.7432
4787.0891
4621.2817
4454.9956
4288.8588
6624.8511
6565.8657
6504.0971
6435.7302
6360.466
6278.0795
6188.4337
6091.4861
5987.3038
5876.0543
5758.0113
5633.5427
5503.1036
5367.2245
5226.4958
5081.5529
4933.0593
4781.6917
4628.1247
4473.0183
4317.0071
4160.6903
6301.382
6246.4554
6189.5602
6126.8918
6058.1493
5983.0899
5901.5418
5813.4135
5718.6988
5617.4855
5509.9549
5396.3745
5277.0944
5152.5386
5023.1941
4889.5982
4752.3249
4611.9713
4469.1436
4324.4452
4178.4654
4031.7692
5988.8308
5937.5901
5885.1089
5827.6011
5764.772
5696.3702
5622.2008
5542.1343
5456.1117
5364.1562
5266.3676
5162.9287
5054.0965
4940.1991
4821.6278
4698.8272
4572.2843
4442.5165
4310.0602
4175.4586
4039.2515
3901.9647
5687.0859
5639.1774
5590.6734
5537.8155
5480.3203
5417.9362
5350.4554
5277.722
5199.6395
5116.1746
5027.3658
4933.3223
4834.2214
4730.3059
4621.8798
4509.3015
4392.9748
4273.3394
4150.8613
4026.0214
3899.3068
3771.1995
5396.0851
5351.176
5306.2378
5257.548
5204.839
5147.8654
5086.4143
5020.3141
4949.4404
4873.721
4793.144
4707.7555
4617.6666
4523.0464
4424.1214
4321.1708
4214.5208
4104.5366
3991.6145
3876.173
3758.6435
3639.4614
5115.8047
5073.5851
5031.8286
4986.8566
4938.4201
4886.2847
4830.2398
4770.1058
4705.7407
4637.0449
4563.9645
4486.5008
4404.7071
4318.6904
4228.6093
4134.6728
4037.1355
3936.2929
3832.4744
3726.0362
3617.3538
3506.8129
4846.2484
4806.4328
4767.5024
4725.8303
4681.1883
4633.3563
4582.131
4527.3319
4468.8076
4406.4399
4340.1484
4269.8949
4195.6872
4117.5816
4035.6797
3950.1286
3861.1191
3768.8824
3673.6849
3575.8228
3475.6159
3373.3995
4587.4373
4549.7655
4513.3354
4474.5796
4433.2916
4389.2681
4342.3167
4292.2616
4238.9481
4182.2478
4122.062
4058.3248
3991.0105
3920.131
3845.742
3767.9384
3686.8553
3602.6662
3515.5795
3425.835
3333.6983
3239.455
4339.3987
4303.6362
4269.411
4233.2227
4194.8866
4154.2176
4111.0369
4065.1772
4016.4862
3964.8313
3910.103
3852.2184
3791.1234
3726.8001
3659.2643
3588.5688
3514.8012
3438.0845
3358.5755
3276.4619
3191.9586
3105.3027
4102.1559
4068.0939
4035.8085
4001.8739
3966.1267
3928.4003
3888.5313
3846.3635
3801.751
3754.5621
3704.6826
3652.0191
3596.5011
3538.0851
3476.7576
3412.5368
3345.4722
3275.6437
3203.1629
3128.1711
3050.8365
2971.3506
3875.7178
3843.1726
3812.5919
3780.6317
3747.149
3711.9956
3675.0241
3636.0911
3595.0599
3551.8037
3506.2084
3458.1757
3407.6253
3354.497
3298.7558
3240.3923
3179.4249
3115.8996
3049.8893
2981.4947
2910.8425
2838.0826
3660.0702
3628.882
3599.7999
3569.5685
3538.0638
3505.1553
3470.7117
3434.6033
3396.7044
3356.8958
3315.0672
3271.1198
3224.9685
3176.5446
3125.7968
3072.6964
3017.2372
2959.4379
2899.3405
2837.0115
2772.5415
2706.0431
3455.1678
3425.1994
3397.4372
3368.7209
3338.944
3307.9927
3275.7512
3242.1038
3206.9366
3170.1398
3131.6096
3091.25
3048.9754
3004.7125
2958.4022
2910.0007
2859.4855
2806.8524
2752.1197
2695.3263
2636.5322
2575.818
3260.928
3232.0626
3205.4671
3178.082
3149.8167
3120.5729
3090.2493
3058.7438
3025.955
2991.7831
2956.1324
2918.9125
2880.0402
2839.4413
2797.0529
2752.824
2706.7182
2658.7171
2608.8193
2557.0423
2503.4214
2448.0104
3077.2262
3049.3654
3023.8065
2997.5959
2970.6573
2942.9062
2914.2552
2884.6149
2853.8958
2822.009
2788.8677
2754.3884
2718.4926
2681.1084
2642.172
2601.6294
2559.4368
2515.5647
2469.9979
2422.7372
2373.7993
2323.2161
2903.8936
2876.955
2852.323
2827.1547
2801.386
2774.9452
2747.757
2719.7442
2690.8285
2660.9317
2629.9761
2597.8864
2564.5901
2530.0193
2494.1122
2456.8139
2418.0785
2377.8689
2336.1611
2292.9434
2248.2179
2202
2740.7162
2714.631
2690.8346
2666.5976
2641.8671
2616.5824
2590.6793
2564.0916
2536.7515
2508.5908
2479.5412
2449.5354
2418.508
2386.3964
2353.1423
2318.6925
2283.0006
2246.0275
2207.7424
2168.1258
2127.1691
2084.8749
2587.4368
2562.1476
2539.1105
2515.7124
2491.9099
2467.6521
2442.8846
2417.5509
2391.593
2364.9519
2337.5682
2309.3827
2280.337
2250.3749
2219.4427
2187.4903
2154.4727
2120.3505
2085.091
2048.6689
2011.0684
1972.2831
2443.7579
2419.2161
2396.8749
2374.2387
2351.2725
2327.9335
2304.1762
2279.9527
2255.2137
2229.9087
2203.9864
2177.3953
2150.0844
2122.0036
2093.1044
2063.3411
2032.6711
2001.0565
1968.4644
1934.8674
1900.245
1864.5843
2309.3453
2285.5098
2263.8113
2241.8729
2219.6662
2197.156
2174.3041
2151.0703
2127.4128
2103.2889
2078.6547
2053.466
2027.6784
2001.2481
1974.1321
1946.2893
1917.6808
1888.2708
1858.0275
1826.9236
1794.9365
1762.0489
2183.834
2160.6688
2139.5685
2118.2739
2096.7626
2075.0058
2052.9715
2030.6263
2007.9351
1984.8618
1961.3693
1937.4199
1912.9756
1887.9983
1862.4507
1836.2962
1809.4999
1782.0292
1753.8542
1724.9483
1695.2889
1664.857
2066.834
2044.3072
2023.7668
2003.0703
1982.2004
1961.1334
1939.843
1918.3014
1896.4794
1874.3467
1851.8723
1829.0242
1805.7701
1782.0774
1757.9139
1733.2477
1708.048
1682.2856
1655.9331
1628.9657
1601.3612
1573.1007
1957.9366
1936.0189
1916.0053
1895.8675
1875.5927
1855.1616
1834.5526
1813.7428
1792.708
1771.423
1749.862
1727.9981
1705.8042
1683.2526
1660.3157
1636.9662
1613.1772
1588.923
1564.1791
1538.9227
1513.1331
1486.7919
1856.7205
1835.3846
1815.8682
1796.2548
1776.5349
1756.6933
1736.7122
1716.5729
1696.2555
1675.7393
1655.0027
1634.0236
1612.7791
1591.2462
1569.4013
1547.2213
1524.6831
1501.7644
1478.4434
1454.7
1430.5151
1405.8712
1762.7579
1741.9775
1722.9316
1703.8118
1684.6116
1665.3188
1645.9193
1626.3976
1606.7378
1586.9226
1566.9345
1546.7551
1526.3656
1505.7465
1484.8785
1463.7418
1442.3168
1420.5844
1398.5259
1376.1232
1353.3596
1330.2188
1675.6199
1655.3696
1636.7694
1618.1152
1599.4029
1580.6231
1561.7643
1542.8142
1523.7598
1504.5872
1485.282
1465.8292
1446.2133
1426.4184
1406.4281
1386.2261
1365.796
1345.1214
1324.1864
1302.9753
1281.4732
1259.6658
1594.8813
1575.1361
1556.9583
1538.7439
1520.4906
1502.1913
1483.8369
1465.4176
1446.9229
1428.3418
1409.6625
1390.8729
1371.9603
1352.9118
1333.7139
1314.353
1294.8155
1275.0877
1255.1559
1235.007
1214.628
1194.006
1520.1249
1500.8602
1483.0827
1465.2837
1447.4627
1429.6142
1411.7313
1393.8063
1375.8307
1357.7959
1339.6924
1321.5106
1303.2401
1284.8705
1266.3907
1247.7898
1229.0564
1210.1791
1191.1466
1171.9476
1152.571
1133.0057
1450.9449
1432.1363
1414.7378
1397.3314
1379.9176
1362.4925
1345.0511
1327.5871
1310.0942
1292.5654
1274.9934
1257.3703
1239.6881
1221.9383
1204.1121
1186.2004
1168.1941
1150.0837
1131.8599
1113.5133
1095.0344
1076.4136
1386.9498
1368.5731
1351.5333
1334.4974
1317.4672
1300.4401
1283.4122
1266.3791
1249.3357
1232.2767
1215.1963
1198.0886
1180.947
1163.7649
1146.5353
1129.2509
1111.9043
1094.4879
1076.994
1059.4147
1041.7421
1023.9682
1327.7641
1309.7958
1293.0948
1276.4085
1259.7396
1243.0864
1226.4464
1209.8161
1193.1919
1176.5698
1159.9453
1143.3138
1126.6704
1110.0098
1093.3265
1076.6149
1059.8689
1043.0825
1026.2493
1009.363
992.41708
975.4046
1273.0303
1255.4473
1239.066
1222.7093
1206.3804
1190.0787
1173.8024
1157.5491
1141.3162
1125.1008
1108.8997
1092.7093
1076.5259
1060.3456
1044.164
1027.9767
1011.7791
995.56629
979.33326
963.07484
946.78562
930.45993
1222.4096
1205.1895
1189.1096
1173.0634
1157.0544
1141.0828
1125.1475
1109.2472
1093.3799
1077.5437
1061.7362
1045.955
1030.1973
1014.4602
998.74031
983.0344
967.33883
951.64982
935.96342
920.27548
904.58162
888.87718
1175.5824
1158.7036
1142.9076
1127.1535
1111.4454
1095.7839
1080.1686
1064.5987
1049.0732
1033.5908
1018.1499
1002.7488
987.38567
972.05828
956.76434
941.50132
926.26654
911.05711
895.86995
880.70183
865.54923
850.40836
1132.2485
1115.6902
1100.1616
1084.6824
1069.2572
1053.8869
1038.5718
1023.3115
1008.1057
992.95366
977.85443
962.80699
947.81007
932.86226
917.96193
903.10731
888.29644
873.52716
858.79718
844.10398
829.44481
814.81661
1092.1269
1075.8696
1060.5925
1045.372
1030.2127
1015.116
1000.0826
985.11262
970.20608
955.3628
940.58238
925.86432
911.20791
896.61229
882.07644
867.59917
853.17913
838.8148
824.50449
810.24632
796.03816
781.87758
1054.9556
1038.9807
1023.9404
1008.9633
994.05409
979.21458
964.44568
949.74797
935.12182
920.56744
906.08487
891.67403
877.33467
863.06639
848.86865
834.74074
820.68183
806.69089
792.76675
778.90805
765.1132
751.38031
1020.4907
1004.7809
989.96358
975.2157
960.54193
945.9443
931.42401
916.98194
902.61876
888.335
874.13106
860.00718
845.9635
831.99998
818.11647
804.31266
790.58812
776.94226
763.37431
749.88335
736.46822
723.12748
988.50593
973.04508
958.43813
943.90633
929.4544
915.08454
900.79819
886.59643
872.48022
858.45032
844.50741
830.65201
816.88454
803.20527
789.61437
776.11184
762.69758
749.37134
736.1327
722.98108
709.9157
696.93549
958.7919
943.56511
929.15685
914.82908
900.58651
886.43148
872.36559
858.39013
844.50621
830.71485
817.0169
803.41313
789.90417
776.49056
763.17268
749.95081
736.82512
723.7956
710.86214
698.02444
685.28202
672.63411
931.15504
916.14871
901.92854
887.79382
873.74923
859.79721
845.93949
832.1775
818.51253
804.94572
791.47812
778.11066
764.84416
751.67932
738.61676
725.65693
712.80022
700.04684
687.3969
674.85034
662.4069
650.06609
905.41694
890.61871
876.57704
862.62544
848.76851
835.00879
821.34808
807.78795
794.32977
780.97484
767.72433
754.57929
741.54068
728.60938
715.78612
703.07154
690.46617
677.97041
665.58453
653.30867
641.14276
629.08652
881.41338
866.81209
852.94036
839.16295
825.48442
811.90733
798.43357
785.06478
771.80244
758.64792
745.6025
732.66733
719.84348
707.13193
694.53354
682.04906
669.67916
657.42436
645.28509
633.2616
621.35401
609.56219
858.9935
844.57915
830.86975
817.2586
803.75018
790.34707
777.05123
763.86435
750.78798
737.82355
724.97241
712.23581
699.61487
687.11067
674.72415
662.45616
650.30745
638.27866
626.37031
614.58277
602.91628
591.37085
838.01893
823.78264
810.22887
796.77696
783.4313
770.19449
757.06852
744.05511
731.15588
718.37229
705.70575
693.15755
680.72889
668.42089
656.23457
644.17083
632.2305
620.41429
608.7228
597.1565
585.7157
574.40054
818.36295
804.2969
790.89292
777.5941
764.40474
751.32743
738.36419
725.51676
712.78679
700.17579
687.68519
675.31631
663.0704
650.94862
638.95202
627.08156
615.33812
603.72246
592.23524
580.87699
569.6481
558.54877
799.90975
786.00707
772.74784
759.59676
746.55805
733.63428
720.82747
708.13941
695.57174
683.12598
670.8036
658.60595
646.53428
634.58979
622.77355
611.08656
599.52972
588.10384
576.80962
565.64762
554.6183
543.72191
782.55358
768.80833
755.68953
742.68158
729.78862
717.01319
704.35732
691.82279
679.41126
667.12426
654.96327
642.92963
631.02463
619.24946
607.60523
596.09295
584.71353
573.4678
562.35649
551.3802
540.53941
529.83442
766.19811
752.60513
739.6231
726.75436
714.00293
701.37134
688.86161
676.47552
664.21472
652.08076
640.0751
628.1991
616.45405
604.84113
593.36146
582.01606
570.80586
559.73169
548.79428
537.99428
527.33216
516.80828
750.75565
737.31053
724.46222
711.72934
699.11584
686.62421
674.25647
662.01438
649.8996
637.91365
626.058
614.334
602.74293
591.28598
579.96426
568.77878
557.73048
546.8202
536.04867
525.41653
514.92429
504.57232
736.14652
722.84552
710.12838
697.52857
685.04994
672.69496
660.46563
648.3637
636.3908
624.54847
612.83814
601.26117
589.81882
578.51227
567.34263
556.31089
545.41799
534.66476
524.05194
513.58016
503.24993
493.06164
722.29841
709.13838
696.55032
684.08125
671.73492
659.51377
647.41978
635.45468
623.6201
611.91754
600.34843
588.91411
577.61584
566.45476
555.43199
544.54849
533.8052
523.20294
512.74243
502.42431
492.24909
482.21714
709.1458
696.12409
683.66342
671.32316
659.10698
647.01728
635.056
623.22488
611.5255
599.95937
588.52789
577.23238
566.07408
555.05413
544.1736
533.43347
522.83464
512.37793
502.06404
491.89359
481.8671
471.98494
696.62937
683.74377
671.40914
659.19612
647.10829
635.14802
623.31723
611.61762
600.05077
588.61815
577.32116
566.16108
555.13913
544.25645
533.51408
522.91298
512.45404
502.13803
491.96568
481.93758
472.05423
462.316
684.69549
671.94416
659.73451
647.64745
635.68649
623.85396
612.15174
600.58153
589.14488
577.84324
566.67797
555.65036
544.76158
534.01276
523.40492
512.939
502.61586
492.43626
482.40091
472.51039
462.76517
453.16563
673.29571
660.67714
648.59162
636.62948
624.79416
613.08794
601.51269
590.07006
578.76159
567.58871
556.55276
545.65499
534.89657
524.27859
513.80206
503.46788
493.2769
483.22987
473.32746
463.57024
453.95868
444.49313
662.3863
649.89924
637.9372
626.09915
614.38844
602.80733
591.35765
580.04104
568.85901
557.81295
546.90419
536.13395
525.50339
515.01357
504.66546
494.45996
484.3979
474.47999
464.70689
455.07915
445.59722
436.26144
651.92783
639.57124
627.73217
616.01752
604.43058
592.97356
581.64827
570.45631
559.39917
548.47823
537.69478
527.05003
516.54511
506.18104
495.95879
485.87923
475.94315
466.15128
456.50422
447.00251
437.6466
428.43679
641.88474
629.65776
617.94126
606.34946
594.88556
583.55175
572.34981
561.28131
550.34771
539.55038
528.89057
518.36948
507.9882
497.74774
487.64904
477.69294
467.88024
458.2116
448.68763
439.30886
430.07569
420.98843
632.22499
620.1269
608.53265
597.06323
585.72176
574.5104
563.43089
552.48479
541.67353
530.99845
520.46078
510.0617
499.80226
489.68347
479.70623
469.87137
460.17964
450.63172
441.22818
431.96952
422.85613
413.88831
622.91975
610.94991
599.47764
588.13018
576.9106
565.821
554.86311
544.03846
533.34845
522.79439
512.37751
502.09893
491.95971
481.96081
472.10313
462.38748
452.81457
443.38506
434.0995
424.95839
415.96209
407.11089
613.94301
602.10087
590.75033
579.52447
568.42627
557.45782
546.6208
535.91672
525.34696
514.9128
504.61544
494.456
484.4355
474.55488
464.81502
455.21669
445.76061
436.44741
427.27762
418.2517
409.37002
400.63285
605.27137
593.55641
582.32737
571.22275
560.24547
549.39757
538.68072
528.09639
517.64595
507.33064
497.15165
487.11007
477.2069
467.44306
457.8194
448.33668
438.99559
429.79674
420.74065
411.82777
403.05844
394.43291
596.88374
585.29546
574.18768
563.20394
552.34712
541.61921
531.02185
520.5565
510.22448
500.02704
489.96533
480.0404
470.25325
460.60478
451.09582
441.7271
432.49929
423.41299
414.4687
405.66684
397.00775
388.49167
588.7611
577.29903
566.31223
555.44901
544.71217
534.10369
523.62516
513.27802
503.06358
492.98305
483.03756
473.22816
463.5558
454.02137
444.62568
435.36944
426.25331
417.27786
408.44357
399.75087
391.20006
382.79137
580.8863
569.54995
558.68383
547.94073
537.32339
526.83376
516.4734
506.24372
496.14602
486.18148
476.3512
466.65622
457.09747
447.67581
438.39203
429.24684
420.24087
411.37466
402.64871
394.06339
385.61902
377.31581
573.24388
562.03273
551.28694
540.66353
530.16518
519.7938
509.55093
499.43797
489.45616
479.60669
469.89064
460.30901
450.86271
441.5526
432.37944
423.34392
414.44666
405.68818
397.06896
388.58936
380.24969
372.05015
565.81986
554.73337
544.1075
533.6033
523.22339
512.96963
502.84357
492.84654
482.9798
473.2445
463.64168
454.17234
444.83739
435.63763
426.57383
417.64665
408.8567
400.20449
391.69047
383.31501
375.07839
366.98079
558.60159
547.63917
537.13277
526.74725
516.48518
506.3484
496.33841
486.45654
476.70401
467.08195
457.59139
448.2333
439.00857
429.91801
420.96233
412.14221
403.45821
394.91086
386.50058
378.22773
370.09257
362.0953
551.57763
540.73865
530.3512
520.08377
509.93891
499.91841
490.02373
480.2562
470.617
461.10725
451.72796
442.48009
433.36449
424.38195
415.53319
406.81886
398.23951
389.79564
381.48768
373.31597
365.28076
357.38223
544.73758
534.02136
523.75227
513.60232
503.57397
493.66899
483.88884
474.2348
464.70804
455.30965
446.04063
436.90191
427.89434
419.01869
410.27565
401.66586
393.18987
384.84816
376.64113
368.56913
360.6324
352.8311
538.07202
527.47781
517.32645
507.29326
497.38068
487.59045
477.92398
468.38254
458.96729
449.6793
440.51953
431.48891
422.58827
413.81835
405.17985
396.67337
388.29946
380.05859
371.95115
363.97747
356.13778
348.43226
531.57233
521.09936
511.06499
501.14782
491.35021
481.67388
472.12022
462.69048
453.38578
444.20718
435.15563
426.23204
417.43721
408.77188
400.23672
391.83234
383.55925
375.41793
367.40875
359.53202
351.78799
344.17681
525.23067
514.87808
504.95994
495.15796
485.47448
475.91117
466.4694
457.15039
447.95525
438.88502
429.94064
421.12298
412.43284
403.87094
395.43794
387.13443
378.96093
370.91787
363.00564
355.22453
347.57479
340.05656
519.03983
508.80672
499.00397
489.31632
479.74606
470.29483
460.96399
451.75472
442.66813
433.70521
424.86691
416.15408
407.56749
399.10786
390.77583
382.57198
374.49681
366.55075
358.73417
351.04738
343.49058
336.06393
512.99322
502.87863
493.19036
483.61611
474.15812
464.818
455.59707
446.49652
437.51741
428.66074
419.92741
411.31828
402.83409
394.47556
386.24331
378.13789
370.15981
362.30949
354.58729
346.9935
339.52834
332.19193
507.08472
497.08764
487.51291
478.05108
468.70436
459.47432
450.36227
441.36936
432.49665
423.74511
415.11564
406.60905
398.22611
389.96748
381.8338
373.8256
365.94338
358.18754
350.55845
343.05638
335.68153
328.43406
501.30871
491.42808
481.96587
472.61544
463.37893
454.25791
445.25365
436.36729
427.59986
418.95232
410.42555
402.02035
393.73746
385.57756
377.54123
369.62903
361.84143
354.17882
346.64157
339.22994
331.94413
324.78428
495.65994
485.89466
476.5439
467.30379
458.17642
449.16331
440.26572
431.48478
422.82149
414.27679
405.85155
397.54655
389.36253
381.30013
373.35995
365.54251
357.84829
350.27767
342.831
335.50855
328.3105
321.237
490.13352
480.48244
471.24204
462.11112
453.09175
444.18542
435.39335
426.71666
418.15634
409.7133
401.3884
393.18241
385.09604
377.12994
369.28468
361.56078
353.9587
346.47882
339.12148
331.88694
324.7754
317.78697
484.72488
475.18681
466.05562
457.03275
448.12021
439.31948
430.63175
422.05813
413.59957
405.257
397.03123
388.92303
380.9331
373.06206
365.31049
357.6789
350.16772
342.77734
335.50809
328.36022
321.33392
314.42932
479.42973
470.00344
460.98028
452.06425
443.25735
434.56101
425.97643
417.50465
409.14665
400.90331
392.77545
384.76381
376.86909
369.09189
361.43278
353.89224
346.47073
339.16862
331.98621
324.92377
317.98148
311.15945
474.244
464.92824
456.01188
447.20148
438.49899
429.90582
421.42313
413.05197
404.79329
396.64795
388.61676
380.70045
372.89969
365.21509
357.64719
350.19649
342.8634
335.64831
328.55151
321.57327
314.71375
307.97308
469.16385
459.95733
451.14652
442.4405
433.84116
425.3499
416.96786
408.69607
400.53545
392.48686
384.55109
376.72885
369.02081
361.42756
353.94964
346.58752
339.34163
332.21233
325.19992
318.30465
311.52669
304.86616
464.18561
455.08702
446.38048
437.77755
429.2801
420.88947
412.60681
404.43311
396.36929
388.41619
380.57458
372.84516
365.22859
357.72544
350.33625
343.06149
335.90156
328.85682
321.92757
315.11405
308.41644
301.83485
459.30576
450.31376
441.71019
433.20907
424.8122
416.52092
408.33635
400.25946
392.29116
384.43227
376.68355
369.04569
361.51933
354.10504
346.80334
339.61469
332.5395
325.5781
318.73081
311.99784
305.37938
298.87553
454.52089
445.63412
437.13222
428.73158
420.43399
412.24075
404.15297
396.17161
388.29754
380.53159
372.87449
365.32693
357.88952
350.56284
343.34739
336.24363
329.25194
322.37268
315.60613
308.95252
302.41202
295.98475
449.8277
441.0448
432.64322
424.34174
416.1421
408.0456
400.05331
392.16617
384.38505
376.71076
369.14401
361.68548
354.33578
347.09546
339.96503
332.94493
326.03554
319.2372
312.55021
305.97478
299.51108
293.15922
445.22292
436.54251
428.23992
420.03627
411.93327
403.93219
396.03407
388.23986
380.5504
372.96648
365.48882
358.11806
350.85482
343.69963
336.65299
329.71534
322.88704
316.16845
309.55983
303.06141
296.67335
290.39577
440.70334
432.12405
423.9191
415.81195
407.80426
399.89728
392.09204
384.38946
376.79038
369.29557
361.90572
354.62149