/*--------------------------------*- C++ -*----------------------------------*\
| =========                 |                                                 |
| \\      /  F ield         | OpenFOAM: The Open Source CFD Toolbox           |
|  \\    /   O peration     | Version:  2406                                  |
|   \\  /    A nd           | Website:  www.openfoam.com                      |
|    \\/     M anipulation  |                                                 |
\*---------------------------------------------------------------------------*/
FoamFile
{
    version     2.0;
    format      ascii;
    arch        "LSB;label=32;scalar=64";
    class       volScalarField;
    location    "0.015";
    object      pMean;
}
// * * * * * * * * * * * * * * * * * * * * * * * * * * * * * * * * * * * * * //

dimensions      [1 -1 -2 0 0 0 0];

internalField   nonuniform List<scalar> 
23203
(
100275.84
100282.41
100289.31
100296.14
100303.21
100310.64
100318.38
100326.47
100334.88
100343.57
100352.56
100361.85
100371.42
100381.22
100391.23
100401.44
100411.88
100422.51
100433.32
100444.29
100455.45
100466.8
100478.33
100294.93
100301.26
100307.97
100314.62
100321.5
100328.69
100336.16
100343.94
100352.03
100360.4
100369.07
100378.02
100387.23
100396.67
100406.32
100416.18
100426.26
100436.53
100446.98
100457.61
100468.41
100479.41
100490.61
100313.98
100320.06
100326.59
100333.07
100339.75
100346.71
100353.95
100361.47
100369.26
100377.32
100385.66
100394.27
100403.13
100412.22
100421.52
100431.03
100440.74
100450.65
100460.76
100471.03
100481.5
100492.17
100503.01
100332.9
100338.74
100345.11
100351.46
100357.96
100364.71
100371.73
100379
100386.49
100394.24
100402.27
100410.55
100419.07
100427.83
100436.79
100445.94
100455.3
100464.86
100474.61
100484.54
100494.67
100505
100515.51
100351.65
100357.28
100363.5
100369.73
100376.09
100382.64
100389.42
100396.44
100403.67
100411.16
100418.89
100426.85
100435.03
100443.46
100452.08
100460.89
100469.91
100479.12
100488.53
100498.12
100507.92
100517.93
100370.21
100375.61
100381.71
100387.82
100394.04
100400.43
100407.02
100413.8
100420.79
100428
100435.45
100443.1
100450.97
100459.08
100467.38
100475.86
100484.54
100493.42
100502.49
100511.75
100521.22
100530.89
100388.53
100393.73
100399.71
100405.73
100411.81
100418.07
100424.48
100431.04
100437.8
100444.76
100451.93
100459.29
100466.87
100474.66
100482.65
100490.81
100499.17
100507.72
100516.46
100525.41
100534.55
100543.89
100406.59
100411.58
100417.46
100423.4
100429.39
100435.5
100441.73
100448.11
100454.65
100461.39
100468.29
100475.38
100482.68
100490.17
100497.86
100505.73
100513.76
100522
100530.43
100539.06
100547.88
100556.89
100424.35
100429.14
100434.92
100440.8
100446.7
100452.69
100458.78
100464.98
100471.33
100477.85
100484.51
100491.35
100498.37
100505.59
100512.99
100520.56
100528.31
100536.24
100544.36
100552.68
100561.2
100569.89
100441.73
100446.36
100452.05
100457.88
100463.72
100469.61
100475.56
100481.63
100487.81
100494.11
100500.56
100507.17
100513.94
100520.88
100528.02
100535.31
100542.77
100550.41
100558.24
100566.26
100574.47
100582.85
100458.79
100463.23
100468.85
100474.65
100480.44
100486.25
100492.09
100498.02
100504.04
100510.16
100516.4
100522.79
100529.32
100536.03
100542.9
100549.94
100557.13
100564.49
100572.03
100579.76
100587.69
100595.78
100475.44
100479.71
100485.29
100491.08
100496.82
100502.56
100508.31
100514.12
100519.99
100525.95
100532.02
100538.2
100544.53
100551
100557.63
100564.42
100571.36
100578.45
100585.73
100593.18
100600.83
100608.63
100491.71
100495.79
100501.33
100507.14
100512.85
100518.52
100524.21
100529.92
100535.67
100541.48
100547.38
100553.39
100559.51
100565.77
100572.17
100578.73
100585.44
100592.28
100599.3
100606.49
100613.86
100621.4
100507.65
100511.43
100516.9
100522.75
100528.49
100534.13
100539.76
100545.39
100551.03
100556.71
100562.47
100568.31
100574.26
100580.32
100586.52
100592.85
100599.34
100605.96
100612.73
100619.67
100626.79
100634.06
100523.12
100526.72
100532.13
100537.97
100543.73
100549.38
100554.95
100560.51
100566.06
100571.64
100577.27
100582.96
100588.75
100594.63
100600.64
100606.77
100613.04
100619.45
100625.99
100632.7
100639.58
100646.6
100538.25
100541.64
100546.92
100552.77
100558.53
100564.19
100569.76
100575.27
100580.75
100586.24
100591.75
100597.32
100602.96
100608.68
100614.51
100620.46
100626.54
100632.75
100639.08
100645.56
100652.21
100659
100552.89
100556.1
100561.35
100567.2
100572.96
100578.6
100584.17
100589.67
100595.1
100600.5
100605.91
100611.37
100616.88
100622.47
100628.13
100633.91
100639.8
100645.82
100651.97
100658.25
100664.68
100671.24
100567.11
100570.18
100575.36
100581.21
100586.98
100592.62
100598.17
100603.64
100609.06
100614.41
100619.74
100625.1
100630.5
100635.95
100641.48
100647.1
100652.82
100658.67
100664.63
100670.72
100676.95
100683.31
100580.89
100583.77
100588.94
100594.82
100600.61
100606.23
100611.77
100617.23
100622.61
100627.95
100633.23
100638.5
100643.79
100649.14
100654.54
100660.02
100665.59
100671.27
100677.07
100682.98
100689.03
100695.18
100594.23
100596.95
100602.11
100608.02
100613.82
100619.47
100625
100630.43
100635.79
100641.09
100646.34
100651.55
100656.77
100662.01
100667.3
100672.66
100678.09
100683.61
100689.25
100695.01
100700.88
100706.86
100607.13
100609.7
100614.84
100620.8
100626.62
100632.27
100637.82
100643.25
100648.59
100653.86
100659.07
100664.24
100669.4
100674.55
100679.75
100684.99
100690.31
100695.69
100701.18
100706.78
100712.5
100718.31
100619.61
100622.03
100627.14
100633.15
100639
100644.68
100650.23
100655.68
100661.01
100666.25
100671.43
100676.56
100681.67
100686.77
100691.88
100697.02
100702.22
100707.49
100712.85
100718.3
100723.87
100729.53
100631.66
100633.92
100639.01
100645.06
100650.97
100656.65
100662.23
100667.7
100673.04
100678.27
100683.42
100688.52
100693.59
100698.63
100703.68
100708.74
100713.84
100719
100724.23
100729.55
100734.98
100740.49
100643.27
100645.39
100650.47
100656.56
100662.51
100668.24
100673.83
100679.32
100684.68
100689.92
100695.04
100700.11
100705.14
100710.14
100715.13
100720.13
100725.14
100730.2
100735.32
100740.53
100745.82
100751.2
100654.46
100656.47
100661.53
100667.65
100673.64
100679.4
100685.02
100690.52
100695.92
100701.17
100706.29
100711.34
100716.32
100721.29
100726.23
100731.17
100736.12
100741.09
100746.12
100751.21
100756.38
100761.63
100665.27
100667.14
100672.17
100678.32
100684.35
100690.16
100695.81
100701.33
100706.74
100712.03
100717.17
100722.2
100727.16
100732.07
100736.98
100741.86
100746.75
100751.67
100756.6
100761.6
100766.66
100771.79
100675.65
100677.44
100682.45
100688.61
100694.66
100700.5
100706.19
100711.75
100717.18
100722.47
100727.64
100732.68
100737.62
100742.51
100747.37
100752.22
100757.05
100761.89
100766.77
100771.67
100776.64
100781.66
100685.63
100687.36
100692.37
100698.53
100704.59
100710.43
100716.15
100721.75
100727.21
100732.52
100737.71
100742.78
100747.72
100752.59
100757.4
100762.2
100767
100771.79
100776.59
100781.44
100786.31
100791.24
100695.17
100696.87
100701.9
100708.05
100714.1
100719.95
100725.7
100731.33
100736.81
100742.17
100747.38
100752.47
100757.43
100762.29
100767.09
100771.85
100776.59
100781.35
100786.09
100790.87
100795.68
100800.52
100704.29
100705.97
100711
100717.14
100723.18
100729.05
100734.82
100740.47
100746
100751.4
100756.64
100761.75
100766.75
100771.63
100776.41
100781.14
100785.84
100790.54
100795.25
100799.97
100804.71
100809.48
100712.98
100714.63
100719.66
100725.78
100731.82
100737.69
100743.48
100749.18
100754.76
100760.19
100765.49
100770.64
100775.64
100780.55
100785.35
100790.07
100794.75
100799.39
100804.06
100808.74
100813.41
100818.12
100721.23
100722.84
100727.86
100733.97
100740.01
100745.9
100751.71
100757.45
100763.07
100768.55
100773.9
100779.09
100784.15
100789.08
100793.9
100798.63
100803.29
100807.92
100812.53
100817.15
100821.8
100826.43
100729.02
100730.59
100735.61
100741.73
100747.78
100753.67
100759.5
100765.27
100770.94
100776.48
100781.88
100787.13
100792.24
100797.21
100802.05
100806.81
100811.48
100816.08
100820.66
100825.24
100829.84
100834.43
100736.42
100737.95
100742.96
100749.06
100755.09
100760.99
100766.84
100772.65
100778.36
100783.95
100789.41
100794.73
100799.9
100804.93
100809.82
100814.59
100819.28
100823.89
100828.45
100833
100837.54
100842.11
100743.43
100744.91
100749.9
100755.96
100761.97
100767.88
100773.75
100779.57
100785.33
100790.97
100796.51
100801.89
100807.13
100812.22
100817.17
100821.98
100826.69
100831.33
100835.89
100840.42
100844.93
100849.44
100750.04
100751.44
100756.4
100762.44
100768.45
100774.35
100780.22
100786.06
100791.85
100797.55
100803.14
100808.6
100813.92
100819.08
100824.11
100828.99
100833.74
100838.39
100842.97
100847.48
100851.98
100856.46
100756.27
100757.63
100762.56
100768.56
100774.52
100780.38
100786.25
100792.11
100797.92
100803.67
100809.32
100814.86
100820.26
100825.51
100830.61
100835.57
100840.38
100845.07
100849.68
100854.22
100858.7
100863.15
100762.18
100763.45
100768.31
100774.26
100780.16
100786
100791.86
100797.73
100803.57
100809.35
100815.06
100820.67
100826.15
100831.49
100836.68
100841.73
100846.62
100851.38
100856.02
100860.58
100865.08
100869.54
100767.69
100768.89
100773.69
100779.58
100785.43
100791.24
100797.1
100802.95
100808.8
100814.61
100820.35
100826.02
100831.58
100837.02
100842.31
100847.45
100852.44
100857.28
100861.99
100866.6
100871.13
100875.58
100772.91
100774.05
100778.76
100784.55
100790.35
100796.11
100801.9
100807.74
100813.59
100819.43
100825.21
100830.94
100836.57
100842.09
100847.49
100852.73
100857.82
100862.77
100867.58
100872.24
100876.81
100881.31
100777.8
100778.84
100783.45
100789.17
100794.91
100800.6
100806.36
100812.19
100818.03
100823.86
100829.67
100835.43
100841.13
100846.73
100852.22
100857.57
100862.78
100867.84
100872.74
100877.5
100882.14
100886.68
100782.42
100783.37
100787.91
100793.51
100799.13
100804.77
100810.46
100816.25
100822.08
100827.92
100833.73
100839.52
100845.26
100850.94
100856.51
100861.97
100867.29
100872.47
100877.5
100882.38
100887.11
100891.72
100786.77
100787.59
100792.03
100797.55
100803.09
100808.65
100814.27
100820
100825.8
100831.61
100837.42
100843.23
100849
100854.73
100860.38
100865.94
100871.37
100876.67
100881.82
100886.83
100891.69
100896.41
100790.89
100791.6
100795.93
100801.35
100806.77
100812.22
100817.78
100823.42
100829.16
100834.98
100840.78
100846.58
100852.38
100858.14
100863.85
100869.48
100875.03
100880.45
100885.73
100890.87
100895.87
100900.71
100794.79
100795.38
100799.58
100804.9
100810.24
100815.56
100821.01
100826.58
100832.27
100838.02
100843.8
100849.6
100855.4
100861.18
100866.94
100872.64
100878.27
100883.79
100889.2
100894.47
100899.62
100904.62
100798.51
100798.96
100803.02
100808.21
100813.45
100818.68
100824.03
100829.52
100835.08
100840.76
100846.54
100852.31
100858.11
100863.91
100869.69
100875.43
100881.13
100886.75
100892.27
100897.69
100902.97
100908.11
100802.06
100802.36
100806.28
100811.34
100816.46
100821.59
100826.81
100832.18
100837.68
100843.3
100849.02
100854.77
100860.53
100866.33
100872.12
100877.89
100883.64
100889.33
100894.96
100900.48
100905.9
100911.2
100805.47
100805.62
100809.39
100814.31
100819.31
100824.34
100829.47
100834.73
100840.11
100845.59
100851.21
100856.95
100862.7
100868.47
100874.26
100880.05
100885.83
100891.58
100897.28
100902.92
100908.46
100913.89
100808.76
100808.75
100812.35
100817.14
100821.99
100826.89
100831.91
100837.06
100842.33
100847.73
100853.26
100858.92
100864.65
100870.39
100876.16
100881.96
100887.75
100893.53
100899.29
100905.01
100910.66
100916.22
100811.96
100811.79
100815.22
100819.86
100824.58
100829.34
100834.25
100839.3
100844.47
100849.76
100855.16
100860.66
100866.34
100872.08
100877.83
100883.61
100889.41
100895.22
100901.01
100906.79
100912.53
100918.2
100815.1
100814.76
100818.01
100822.49
100827.07
100831.68
100836.45
100841.38
100846.44
100851.61
100856.9
100862.35
100867.93
100873.59
100879.31
100885.06
100890.85
100896.66
100902.48
100908.3
100914.1
100919.86
100818.19
100817.67
100820.74
100825.07
100829.49
100833.96
100838.59
100843.39
100848.34
100853.42
100858.6
100863.89
100869.31
100874.91
100880.62
100886.35
100892.11
100897.91
100903.73
100909.57
100915.42
100921.25
100821.25
100820.55
100823.43
100827.6
100831.87
100836.19
100840.67
100845.32
100850.14
100855.1
100860.18
100865.37
100870.71
100876.15
100881.74
100887.46
100893.21
100898.98
100904.79
100910.63
100916.5
100922.38
100824.31
100823.42
100826.11
100830.12
100834.23
100838.4
100842.73
100847.23
100851.91
100856.75
100861.72
100866.8
100871.98
100877.33
100882.81
100888.42
100894.16
100899.91
100905.7
100911.53
100917.4
100923.3
100827.39
100826.31
100828.8
100832.64
100836.59
100840.6
100844.77
100849.13
100853.66
100858.35
100863.2
100868.18
100873.27
100878.49
100883.84
100889.31
100894.95
100900.7
100906.48
100912.28
100918.14
100924.05
100830.51
100829.22
100831.52
100835.19
100838.99
100842.83
100846.85
100851.04
100855.41
100859.96
100864.66
100869.52
100874.5
100879.58
100884.84
100890.24
100895.72
100901.37
100907.13
100912.92
100918.75
100924.64
100833.69
100832.2
100834.29
100837.8
100841.43
100845.12
100848.96
100853
100857.22
100861.6
100866.16
100870.88
100875.75
100880.75
100885.84
100891.1
100896.5
100902
100907.66
100913.43
100919.24
100925.11
100836.95
100835.25
100837.14
100840.47
100843.94
100847.46
100851.14
100855.01
100859.07
100863.29
100867.69
100872.26
100876.99
100881.86
100886.85
100891.97
100897.27
100902.67
100908.19
100913.88
100919.64
100925.49
100840.31
100838.4
100840.08
100843.23
100846.54
100849.89
100853.4
100857.11
100861
100865.06
100869.3
100873.71
100878.29
100883.04
100887.92
100892.91
100898.04
100903.33
100908.71
100914.26
100919.98
100925.79
100843.77
100841.64
100843.12
100846.1
100849.24
100852.43
100855.77
100859.3
100863.02
100866.93
100871
100875.25
100879.67
100884.25
100888.98
100893.86
100898.86
100904.04
100909.34
100914.73
100920.28
100926.04
100847.35
100845.02
100846.28
100849.09
100852.07
100855.09
100858.26
100861.63
100865.17
100868.9
100872.81
100876.89
100881.14
100885.57
100890.15
100894.89
100899.76
100904.76
100909.94
100915.25
100920.65
100926.25
100851.05
100848.54
100849.59
100852.22
100855.04
100857.89
100860.89
100864.08
100867.46
100871.01
100874.74
100878.65
100882.73
100886.98
100891.41
100895.99
100900.73
100905.61
100910.63
100915.8
100921.1
100926.53
100854.88
100852.19
100853.05
100855.52
100858.17
100860.85
100863.68
100866.7
100869.89
100873.26
100876.82
100880.55
100884.46
100888.54
100892.79
100897.22
100901.8
100906.52
100911.4
100916.41
100921.58
100926.91
100858.85
100856
100856.68
100858.97
100861.46
100863.97
100866.63
100869.47
100872.48
100875.68
100879.05
100882.61
100886.33
100890.23
100894.32
100898.56
100902.98
100907.54
100912.27
100917.14
100922.16
100927.35
100862.94
100859.96
100860.45
100862.58
100864.91
100867.25
100869.74
100872.4
100875.24
100878.26
100881.46
100884.82
100888.37
100892.09
100895.99
100900.06
100904.3
100908.7
100913.25
100917.96
100922.82
100927.86
100867.18
100864.07
100864.4
100866.37
100868.53
100870.71
100873.02
100875.51
100878.17
100881.01
100884.02
100887.21
100890.57
100894.11
100897.82
100901.71
100905.76
100909.99
100914.37
100918.92
100923.61
100928.48
100871.54
100868.34
100868.5
100870.31
100872.31
100874.33
100876.47
100878.79
100881.28
100883.94
100886.77
100889.77
100892.95
100896.3
100899.83
100903.53
100907.39
100911.44
100915.64
100919.99
100924.52
100929.24
100876.05
100872.76
100872.78
100874.43
100876.28
100878.13
100880.1
100882.25
100884.56
100887.04
100889.69
100892.51
100895.5
100898.67
100902
100905.52
100909.19
100913.05
100917.07
100921.25
100925.59
100930.12
100880.67
100877.33
100877.22
100878.72
100880.4
100882.09
100883.9
100885.88
100888.02
100890.32
100892.79
100895.43
100898.24
100901.21
100904.36
100907.68
100911.17
100914.83
100918.66
100922.65
100926.8
100931.16
100885.42
100882.05
100881.8
100883.15
100884.68
100886.21
100887.86
100889.67
100891.64
100893.77
100896.06
100898.52
100901.14
100903.93
100906.9
100910.02
100913.32
100916.79
100920.44
100924.23
100928.2
100932.36
100890.26
100886.88
100886.52
100887.73
100889.11
100890.49
100891.97
100893.63
100895.43
100897.39
100899.51
100901.79
100904.22
100906.83
100909.61
100912.54
100915.66
100918.93
100922.38
100925.98
100929.76
100933.74
100895.21
100891.82
100891.37
100892.44
100893.67
100894.9
100896.24
100897.73
100899.37
100901.16
100903.11
100905.22
100907.48
100909.9
100912.49
100915.24
100918.17
100921.26
100924.51
100927.92
100931.5
100935.29
100900.26
100896.87
100896.33
100897.26
100898.35
100899.44
100900.63
100901.97
100903.46
100905.09
100906.87
100908.81
100910.89
100913.14
100915.55
100918.12
100920.85
100923.75
100926.81
100930.04
100933.43
100937.03
100905.38
100902.02
100901.39
100902.2
100903.16
100904.11
100905.16
100906.35
100907.68
100909.16
100910.77
100912.55
100914.47
100916.54
100918.77
100921.16
100923.71
100926.43
100929.3
100932.34
100935.53
100938.94
100910.59
100907.25
100906.55
100907.24
100908.06
100908.88
100909.8
100910.85
100912.03
100913.36
100914.82
100916.43
100918.19
100920.09
100922.15
100924.37
100926.74
100929.27
100931.96
100934.81
100937.81
100941.04
100915.87
100912.57
100911.8
100912.36
100913.07
100913.76
100914.55
100915.46
100916.51
100917.69
100919.01
100920.46
100922.06
100923.8
100925.69
100927.74
100929.93
100932.29
100934.8
100937.46
100940.28
100943.31
100921.23
100917.96
100917.13
100917.58
100918.17
100918.73
100919.4
100920.19
100921.1
100922.14
100923.31
100924.62
100926.06
100927.65
100929.38
100931.26
100933.29
100935.47
100937.8
100940.28
100942.92
100945.77
100926.65
100923.43
100922.53
100922.88
100923.34
100923.81
100924.35
100925.01
100925.8
100926.7
100927.74
100928.9
100930.2
100931.63
100933.21
100934.92
100936.79
100938.8
100940.96
100943.27
100945.73
100948.4
100932.13
100928.95
100928
100928.24
100928.6
100928.96
100929.39
100929.93
100930.6
100931.38
100932.28
100933.3
100934.46
100935.75
100937.17
100938.73
100940.44
100942.29
100944.29
100946.42
100948.71
100951.21
100937.67
100934.53
100933.54
100933.68
100933.94
100934.19
100934.51
100934.94
100935.49
100936.15
100936.93
100937.82
100938.84
100939.99
100941.27
100942.68
100944.24
100945.93
100947.76
100949.74
100951.85
100954.18
100943.27
100940.16
100939.13
100939.18
100939.34
100939.49
100939.71
100940.05
100940.48
100941.02
100941.68
100942.45
100943.34
100944.36
100945.49
100946.76
100948.17
100949.71
100951.39
100953.2
100955.16
100957.32
100948.91
100945.84
100944.77
100944.74
100944.81
100944.87
100944.99
100945.22
100945.55
100945.98
100946.53
100947.18
100947.94
100948.83
100949.84
100950.97
100952.23
100953.63
100955.16
100956.82
100958.61
100960.62
100954.6
100951.57
100950.46
100950.35
100950.33
100950.3
100950.34
100950.47
100950.7
100951.03
100951.46
100952
100952.65
100953.41
100954.29
100955.29
100956.42
100957.68
100959.06
100960.57
100962.22
100964.07
100960.34
100957.34
100956.19
100956
100955.91
100955.8
100955.75
100955.79
100955.93
100956.16
100956.49
100956.92
100957.45
100958.1
100958.86
100959.74
100960.73
100961.85
100963.1
100964.46
100965.97
100967.66
100966.12
100963.15
100961.96
100961.7
100961.53
100961.34
100961.21
100961.17
100961.22
100961.36
100961.59
100961.92
100962.35
100962.88
100963.53
100964.28
100965.15
100966.15
100967.26
100968.49
100969.85
100971.4
100971.93
100968.99
100967.77
100967.45
100967.21
100966.95
100966.74
100966.62
100966.59
100966.63
100966.77
100967.01
100967.33
100967.76
100968.29
100968.93
100969.69
100970.55
100971.54
100972.64
100973.86
100975.28
100977.79
100974.87
100973.62
100973.23
100972.93
100972.6
100972.32
100972.13
100972.01
100971.98
100972.02
100972.16
100972.4
100972.73
100973.15
100973.69
100974.33
100975.08
100975.94
100976.92
100978.01
100979.28
100983.68
100980.77
100979.49
100979.05
100978.68
100978.29
100977.95
100977.68
100977.49
100977.38
100977.35
100977.4
100977.54
100977.77
100978.1
100978.53
100979.06
100979.7
100980.45
100981.3
100982.26
100983.41
100989.6
100986.71
100985.4
100984.9
100984.47
100984.02
100983.62
100983.28
100983.03
100982.84
100982.73
100982.7
100982.75
100982.9
100983.13
100983.46
100983.89
100984.42
100985.05
100985.79
100986.64
100987.66
100995.54
100992.67
100991.33
100990.78
100990.3
100989.79
100989.33
100988.94
100988.61
100988.35
100988.17
100988.06
100988.03
100988.09
100988.23
100988.47
100988.8
100989.22
100989.75
100990.38
100991.12
100992.01
101001.5
100998.65
100997.28
100996.69
100996.15
100995.6
100995.08
100994.63
100994.24
100993.91
100993.66
100993.48
100993.37
100993.35
100993.41
100993.55
100993.79
100994.12
100994.55
100995.06
100995.69
100996.48
101007.48
101004.64
101003.25
101002.61
101002.03
101001.42
101000.86
101000.35
100999.9
100999.52
100999.2
100998.95
100998.77
100998.67
100998.64
100998.7
100998.85
100999.09
100999.42
100999.84
101000.36
101001.04
101013.48
101010.64
101009.23
101008.55
101007.92
101007.28
101006.66
101006.1
101005.6
101005.16
101004.77
101004.46
101004.21
101004.03
101003.94
101003.92
101003.98
101004.13
101004.37
101004.69
101005.11
101005.68
101019.48
101016.65
101015.22
101014.5
101013.83
101013.14
101012.48
101011.87
101011.32
101010.82
101010.38
101010.01
101009.7
101009.46
101009.28
101009.19
101009.18
101009.24
101009.39
101009.62
101009.94
101010.42
101025.48
101022.66
101021.2
101020.45
101019.75
101019.02
101018.32
101017.66
101017.06
101016.52
101016.02
101015.59
101015.22
101014.91
101014.67
101014.5
101014.42
101014.41
101014.47
101014.62
101014.85
101015.22
101031.48
101028.66
101027.19
101026.41
101025.67
101024.9
101024.16
101023.47
101022.82
101022.23
101021.69
101021.2
101020.77
101020.4
101020.1
101019.87
101019.7
101019.61
101019.6
101019.66
101019.81
101020.09
101037.46
101034.66
101033.17
101032.35
101031.58
101030.78
101030.01
101029.28
101028.59
101027.95
101027.36
101026.83
101026.34
101025.92
101025.56
101025.26
101025.03
101024.87
101024.79
101024.77
101024.83
101025.03
101043.43
101040.64
101039.13
101038.29
101037.49
101036.67
101035.85
101035.09
101034.37
101033.68
101033.05
101032.47
101031.93
101031.46
101031.04
101030.68
101030.38
101030.16
101030
101029.91
101029.89
101030.01
101049.38
101046.6
101045.08
101044.21
101043.39
101042.53
101041.69
101040.89
101040.13
101039.42
101038.74
101038.11
101037.53
101037
101036.53
101036.12
101035.76
101035.48
101035.25
101035.09
101035.01
101035.04
101055.31
101052.54
101051.01
101050.11
101049.27
101048.38
101047.52
101046.68
101045.89
101045.14
101044.43
101043.76
101043.13
101042.56
101042.04
101041.57
101041.16
101040.82
101040.53
101040.3
101040.14
101040.11
101061.2
101058.44
101056.89
101055.98
101055.12
101054.21
101053.32
101052.46
101051.64
101050.85
101050.1
101049.4
101048.74
101048.11
101047.55
101047.03
101046.57
101046.17
101045.82
101045.54
101045.31
101045.2
101067.06
101064.31
101062.75
101061.82
101060.93
101060.01
101059.09
101058.21
101057.36
101056.55
101055.77
101055.03
101054.33
101053.67
101053.05
101052.49
101051.98
101051.53
101051.12
101050.78
101050.49
101050.32
101072.88
101070.14
101068.57
101067.63
101066.72
101065.77
101064.84
101063.94
101063.06
101062.22
101061.41
101060.63
101059.9
101059.2
101058.55
101057.94
101057.39
101056.89
101056.43
101056.03
101055.68
101055.45
101078.65
101075.92
101074.35
101073.38
101072.47
101071.5
101070.55
101069.62
101068.73
101067.86
101067.02
101066.22
101065.45
101064.72
101064.03
101063.39
101062.79
101062.24
101061.74
101061.28
101060.88
101060.58
101084.37
101081.65
101080.08
101079.1
101078.16
101077.19
101076.22
101075.27
101074.35
101073.46
101072.6
101071.78
101070.97
101070.21
101069.49
101068.81
101068.17
101067.58
101067.03
101066.53
101066.07
101065.72
101090.03
101087.34
101085.75
101084.77
101083.82
101082.83
101081.84
101080.88
101079.94
101079.04
101078.15
101077.29
101076.47
101075.68
101074.92
101074.2
101073.53
101072.9
101072.31
101071.76
101071.26
101070.86
101095.64
101092.96
101091.38
101090.38
101089.42
101088.42
101087.42
101086.44
101085.49
101084.56
101083.65
101082.78
101081.92
101081.1
101080.32
101079.57
101078.87
101078.19
101077.57
101076.97
101076.43
101075.98
101101.19
101098.52
101096.93
101095.93
101094.96
101093.95
101092.94
101091.95
101090.98
101090.04
101089.11
101088.21
101087.34
101086.5
101085.69
101084.91
101084.17
101083.46
101082.8
101082.16
101081.57
101081.08
101106.66
101104.02
101102.43
101101.42
101100.45
101099.42
101098.41
101097.4
101096.42
101095.46
101094.52
101093.6
101092.71
101091.84
101091.01
101090.2
101089.43
101088.7
101087.99
101087.33
101086.7
101086.16
101112.07
101109.45
101107.86
101106.85
101105.86
101104.83
101103.81
101102.79
101101.8
101100.82
101099.87
101098.94
101098.03
101097.14
101096.28
101095.45
101094.65
101093.89
101093.16
101092.45
101091.79
101091.21
101117.42
101114.81
101113.23
101112.21
101111.22
101110.18
101109.15
101108.13
101107.12
101106.14
101105.17
101104.21
101103.29
101102.38
101101.5
101100.65
101099.82
101099.03
101098.27
101097.54
101096.84
101096.22
101122.68
101120.1
101118.52
101117.49
101116.5
101115.46
101114.42
101113.39
101112.37
101111.38
101110.4
101109.43
101108.49
101107.57
101106.67
101105.79
101104.95
101104.13
101103.35
101102.58
101101.85
101101.2
101127.87
101125.31
101123.74
101122.7
101121.71
101120.66
101119.62
101118.58
101117.56
101116.56
101115.57
101114.59
101113.63
101112.69
101111.78
101110.89
101110.02
101109.18
101108.37
101107.58
101106.82
101106.14
101132.98
101130.44
101128.87
101127.84
101126.84
101125.8
101124.74
101123.71
101122.68
101121.66
101120.67
101119.67
101118.71
101117.76
101116.82
101115.92
101115.03
101114.17
101113.33
101112.52
101111.74
101111.03
101138.01
101135.49
101133.93
101132.9
101131.89
101130.85
101129.79
101128.75
101127.72
101126.7
101125.69
101124.69
101123.71
101122.75
101121.81
101120.89
101119.98
101119.1
101118.25
101117.41
101116.6
101115.86
101142.95
101140.47
101138.91
101137.87
101136.87
101135.82
101134.76
101133.72
101132.68
101131.66
101130.64
101129.64
101128.65
101127.68
101126.72
101125.78
101124.86
101123.97
101123.1
101122.24
101121.4
101120.64
101147.81
101145.35
101143.8
101142.76
101141.76
101140.71
101139.66
101138.61
101137.57
101136.54
101135.52
101134.51
101133.51
101132.53
101131.56
101130.62
101129.68
101128.77
101127.88
101127
101126.15
101125.36
101152.57
101150.15
101148.61
101147.57
101146.57
101145.52
101144.46
101143.41
101142.37
101141.34
101140.32
101139.3
101138.3
101137.31
101136.33
101135.37
101134.42
101133.5
101132.6
101131.71
101130.83
101130.02
101157.25
101154.85
101153.32
101152.29
101151.29
101150.24
101149.19
101148.13
101147.09
101146.06
101145.03
101144.01
101143.01
101142.01
101141.02
101140.05
101139.1
101138.16
101137.24
101136.33
101135.45
101134.62
101161.84
101159.47
101157.95
101156.92
101155.92
101154.87
101153.82
101152.77
101151.73
101150.69
101149.67
101148.65
101147.63
101146.63
101145.64
101144.66
101143.7
101142.75
101141.81
101140.89
101139.99
101139.15
101166.33
101163.99
101162.48
101161.45
101160.46
101159.42
101158.37
101157.32
101156.28
101155.24
101154.21
101153.19
101152.17
101151.17
101150.17
101149.19
101148.21
101147.26
101146.31
101145.38
101144.46
101143.6
101170.73
101168.42
101166.92
101165.9
101164.91
101163.88
101162.82
101161.78
101160.74
101159.7
101158.67
101157.65
101156.63
101155.62
101154.62
101153.63
101152.65
101151.68
101150.73
101149.79
101148.86
101147.99
101175.03
101172.75
101171.27
101170.26
101169.26
101168.23
101167.19
101166.15
101165.11
101164.07
101163.05
101162.02
101161
101159.99
101158.99
101157.99
101157.01
101156.04
101155.07
101154.12
101153.18
101152.3
101179.23
101176.99
101175.52
101174.51
101173.52
101172.5
101171.46
101170.42
101169.39
101168.36
101167.32
101166.3
101165.29
101164.27
101163.27
101162.27
101161.28
101160.3
101159.34
101158.37
101157.42
101156.53
101183.34
101181.13
101179.68
101178.67
101177.69
101176.67
101175.64
101174.6
101173.57
101172.54
101171.51
101170.49
101169.47
101168.46
101167.45
101166.46
101165.47
101164.48
101163.52
101162.55
101161.59
101160.69
101187.34
101185.16
101183.73
101182.73
101181.76
101180.75
101179.72
101178.69
101177.66
101176.64
101175.61
101174.6
101173.58
101172.57
101171.56
101170.56
101169.57
101168.59
101167.61
101166.64
101165.68
101164.76
101191.25
101189.11
101187.69
101186.7
101185.73
101184.72
101183.7
101182.68
101181.66
101180.64
101179.62
101178.6
101177.59
101176.58
101175.57
101174.58
101173.58
101172.6
101171.62
101170.64
101169.67
101168.75
101195.05
101192.95
101191.55
101190.56
101189.61
101188.6
101187.59
101186.57
101185.56
101184.54
101183.53
101182.52
101181.51
101180.5
101179.5
101178.5
101177.51
101176.52
101175.54
101174.56
101173.59
101172.67
101198.75
101196.69
101195.31
101194.33
101193.38
101192.39
101191.38
101190.38
101189.36
101188.36
101187.35
101186.34
101185.34
101184.33
101183.33
101182.33
101181.34
101180.36
101179.38
101178.4
101177.43
101176.5
101202.36
101200.33
101198.97
101198
101197.06
101196.08
101195.08
101194.08
101193.08
101192.08
101191.07
101190.07
101189.07
101188.07
101187.08
101186.08
101185.09
101184.11
101183.13
101182.15
101181.17
101180.24
101205.86
101203.88
101202.54
101201.57
101200.64
101199.66
101198.67
101197.68
101196.69
101195.7
101194.7
101193.71
101192.71
101191.72
101190.72
101189.74
101188.75
101187.77
101186.79
101185.81
101184.83
101183.9
101209.26
101207.32
101205.99
101205.05
101204.12
101203.15
101202.18
101201.19
101200.21
101199.23
101198.24
101197.25
101196.26
101195.27
101194.28
101193.3
101192.32
101191.34
101190.36
101189.39
101188.41
101187.48
101212.57
101210.66
101209.36
101208.42
101207.5
101206.55
101205.58
101204.6
101203.63
101202.65
101201.68
101200.7
101199.72
101198.73
101197.75
101196.78
101195.8
101194.82
101193.85
101192.88
101191.9
101190.97
101215.77
101213.91
101212.62
101211.69
101210.78
101209.84
101208.89
101207.92
101206.96
101205.99
101205.02
101204.05
101203.08
101202.1