/*--------------------------------*- C++ -*----------------------------------*\
| =========                 |                                                 |
| \\      /  F ield         | OpenFOAM: The Open Source CFD Toolbox           |
|  \\    /   O peration     | Version:  2406                                  |
|   \\  /    A nd           | Website:  www.openfoam.com                      |
|    \\/     M anipulation  |                                                 |
\*---------------------------------------------------------------------------*/
FoamFile
{
    version     2.0;
    format      ascii;
    arch        "LSB;label=32;scalar=64";
    class       volScalarField;
    location    "0.04";
    object      rho;
}
// * * * * * * * * * * * * * * * * * * * * * * * * * * * * * * * * * * * * * //

dimensions      [1 -3 0 0 0 0 0];

internalField   nonuniform List<scalar> 
92813
(
1.1995503
1.1988562
1.1985569
1.1982148
1.1978698
1.1975719
1.1973199
1.1971108
1.1969426
1.1968121
1.1967146
1.1966436
1.1965923
1.1965565
1.196533
1.196525
1.1965368
1.1965724
1.1966323
1.1967158
1.1968187
1.196938
1.1970708
1.1972157
1.1973711
1.1975357
1.1977083
1.1978879
1.1980737
1.1982647
1.1984601
1.198659
1.1988605
1.1990636
1.1992671
1.1994699
1.1996724
1.1998665
1.2000528
1.2002316
1.2004172
1.2006022
1.2007598
1.2009013
1.2010254
1.2011277
1.2012046
1.2012528
1.2012722
1.2012683
1.2012534
1.201241
1.2012396
1.2012511
1.2012724
1.2012995
1.2013294
1.2013602
1.2013911
1.2014217
1.2014519
1.2014815
1.2015107
1.2015392
1.2015672
1.2015945
1.2016211
1.2016471
1.2016723
1.2016969
1.2017209
1.2017442
1.2017669
1.2017892
1.2018109
1.2018323
1.2018532
1.2018735
1.2018934
1.2019127
1.2019313
1.2019494
1.2019669
1.2019837
1.2020001
1.2020159
1.2020315
1.2020467
1.2020616
1.2020763
1.2020908
1.2021049
1.2021187
1.2021321
1.2021452
1.202158
1.2021704
1.2021824
1.202194
1.2022052
1.2022159
1.2022263
1.2022363
1.2022459
1.2022552
1.2022642
1.202273
1.2022813
1.2022894
1.202297
1.2023042
1.2023111
1.2023175
1.2023236
1.2023292
1.2023345
1.2023395
1.2023441
1.2023484
1.2023524
1.202356
1.2023592
1.2023621
1.2023642
1.2023664
1.2023673
1.2023688
1.2009583
1.2005096
1.2000986
1.1996432
1.1992277
1.198877
1.1985821
1.1983351
1.198131
1.1979649
1.1978315
1.1977249
1.1976384
1.1975658
1.197505
1.1974576
1.1974259
1.1974126
1.1974225
1.1974563
1.1975119
1.1975877
1.1976828
1.197794
1.197918
1.1980527
1.1981965
1.1983482
1.1985066
1.1986709
1.1988399
1.1990128
1.1991887
1.1993667
1.1995456
1.1997243
1.1999024
1.2000765
1.2002432
1.2003943
1.2005628
1.2007314
1.2008713
1.2009969
1.2011062
1.201195
1.2012594
1.2012966
1.2013076
1.2012997
1.2012856
1.2012772
1.2012803
1.2012948
1.2013173
1.2013441
1.2013728
1.2014021
1.2014313
1.2014602
1.2014888
1.2015168
1.2015445
1.2015716
1.2015982
1.2016242
1.2016496
1.2016743
1.2016984
1.2017219
1.2017448
1.2017671
1.201789
1.2018103
1.2018312
1.2018517
1.2018718
1.2018914
1.2019106
1.2019291
1.2019472
1.2019646
1.2019814
1.2019977
1.2020136
1.2020289
1.202044
1.2020587
1.2020732
1.2020875
1.2021015
1.2021152
1.2021287
1.2021418
1.2021545
1.2021669
1.202179
1.2021907
1.202202
1.202213
1.2022235
1.2022336
1.2022434
1.2022528
1.2022619
1.2022707
1.2022792
1.2022874
1.2022953
1.2023027
1.2023098
1.2023166
1.2023229
1.2023288
1.2023343
1.2023395
1.2023444
1.2023489
1.2023532
1.202357
1.2023606
1.2023637
1.2023665
1.2023686
1.2023708
1.2023717
1.2023731
1.2015905
1.2012599
1.200815
1.2003204
1.1998811
1.1995091
1.1991921
1.1989221
1.198694
1.1985032
1.1983447
1.1982135
1.1981047
1.1980139
1.1979394
1.1978799
1.1978356
1.1978088
1.1978029
1.1978189
1.1978569
1.1979171
1.1979973
1.198094
1.1982043
1.1983264
1.1984585
1.1985992
1.1987474
1.1989019
1.1990617
1.1992258
1.199393
1.1995624
1.199733
1.1999033
1.2000728
1.2002405
1.200396
1.200535
1.2006994
1.2008572
1.200986
1.201101
1.201199
1.2012758
1.2013279
1.2013533
1.2013549
1.2013421
1.2013277
1.2013215
1.2013271
1.2013429
1.2013653
1.2013911
1.2014183
1.2014458
1.2014732
1.2015004
1.2015272
1.2015536
1.2015797
1.2016053
1.2016305
1.2016551
1.2016792
1.2017027
1.2017256
1.201748
1.2017698
1.2017911
1.2018119
1.2018323
1.2018523
1.2018719
1.2018912
1.20191
1.2019284
1.2019463
1.2019636
1.2019804
1.2019966
1.2020123
1.2020276
1.2020424
1.2020569
1.2020712
1.2020852
1.202099
1.2021126
1.2021259
1.202139
1.2021517
1.2021641
1.2021762
1.202188
1.2021993
1.2022104
1.202221
1.2022313
1.2022412
1.2022507
1.2022598
1.2022687
1.2022773
1.2022857
1.2022937
1.2023014
1.2023087
1.2023156
1.2023222
1.2023283
1.2023341
1.2023395
1.2023446
1.2023494
1.2023538
1.202358
1.2023618
1.2023653
1.2023683
1.2023711
1.2023732
1.2023753
1.2023762
1.2023776
1.2020845
1.201806
1.2013746
1.2008769
1.2004262
1.2000375
1.1997003
1.1994078
1.199156
1.198941
1.1987588
1.1986052
1.1984764
1.1983692
1.1982814
1.1982118
1.1981601
1.1981273
1.1981146
1.1981226
1.1981514
1.1982008
1.1982689
1.1983534
1.1984522
1.1985633
1.1986854
1.1988168
1.1989565
1.1991031
1.1992555
1.1994127
1.1995735
1.1997367
1.1999013
1.2000659
1.2002298
1.2003937
1.2005366
1.2006711
1.2008347
1.2009814
1.2011011
1.2012068
1.2012942
1.2013593
1.2013988
1.2014123
1.201405
1.2013879
1.2013735
1.2013692
1.2013765
1.2013929
1.2014147
1.2014391
1.2014646
1.2014903
1.2015158
1.2015412
1.2015663
1.201591
1.2016155
1.2016396
1.2016633
1.2016865
1.2017093
1.2017315
1.2017532
1.2017745
1.2017952
1.2018154
1.2018353
1.2018547
1.2018738
1.2018925
1.2019109
1.201929
1.2019466
1.2019637
1.2019803
1.2019965
1.2020121
1.2020272
1.2020419
1.2020561
1.2020701
1.2020839
1.2020974
1.2021108
1.202124
1.2021368
1.2021495
1.2021619
1.2021739
1.2021856
1.202197
1.2022081
1.2022188
1.2022292
1.2022392
1.2022488
1.2022581
1.202267
1.2022757
1.2022841
1.2022922
1.2023
1.2023075
1.2023147
1.2023215
1.2023279
1.2023339
1.2023396
1.2023449
1.2023498
1.2023545
1.2023588
1.2023629
1.2023666
1.2023701
1.202373
1.2023758
1.2023778
1.2023799
1.2023808
1.2023822
1.2025298
1.202279
1.2018674
1.2013791
1.2009286
1.200534
1.2001867
1.199881
1.1996138
1.1993822
1.1991828
1.1990124
1.1988679
1.1987466
1.1986465
1.1985664
1.1985059
1.1984649
1.198444
1.1984431
1.1984622
1.1985006
1.198557
1.1986297
1.198717
1.1988172
1.1989288
1.1990504
1.1991807
1.1993185
1.1994625
1.1996117
1.1997649
1.1999208
1.2000783
1.2002358
1.200393
1.20055
1.200681
1.2008134
1.2009715
1.2011062
1.2012166
1.2013122
1.2013882
1.2014408
1.2014675
1.2014697
1.2014548
1.2014351
1.2014215
1.2014193
1.2014279
1.2014444
1.2014652
1.2014881
1.2015118
1.2015356
1.2015592
1.2015827
1.201606
1.201629
1.2016519
1.2016745
1.2016967
1.2017185
1.2017399
1.2017609
1.2017814
1.2018015
1.2018211
1.2018402
1.201859
1.2018775
1.2018956
1.2019135
1.201931
1.2019482
1.2019651
1.2019815
1.2019974
1.2020129
1.2020278
1.2020423
1.2020564
1.2020701
1.2020836
1.2020968
1.2021099
1.2021228
1.2021355
1.202148
1.2021602
1.2021722
1.2021838
1.2021952
1.2022063
1.2022171
1.2022275
1.2022376
1.2022473
1.2022566
1.2022656
1.2022743
1.2022828
1.202291
1.2022989
1.2023065
1.2023138
1.2023208
1.2023274
1.2023337
1.2023396
1.2023451
1.2023503
1.2023551
1.2023597
1.2023639
1.2023679
1.2023716
1.2023749
1.2023778
1.2023805
1.2023825
1.2023845
1.2023854
1.2023868
1.2029161
1.2026738
1.2022767
1.2018064
1.2013668
1.2009758
1.200627
1.2003161
1.2000409
1.1997993
1.1995886
1.1994064
1.1992503
1.199118
1.1990078
1.1989186
1.1988497
1.1988007
1.1987715
1.198762
1.1987718
1.1988003
1.1988464
1.1989087
1.1989856
1.1990756
1.1991774
1.1992896
1.1994109
1.1995401
1.1996758
1.1998171
1.1999625
1.2001108
1.2002608
1.2004109
1.2005609
1.2007091
1.2008296
1.2009596
1.2011095
1.2012318
1.2013322
1.2014167
1.2014804
1.2015198
1.2015336
1.2015253
1.2015046
1.2014838
1.2014719
1.2014717
1.2014812
1.2014974
1.201517
1.2015381
1.2015598
1.2015816
1.2016033
1.2016249
1.2016465
1.2016677
1.2016889
1.20171
1.2017307
1.2017511
1.2017711
1.2017908
1.20181
1.2018289
1.2018475
1.2018655
1.2018833
1.2019008
1.2019179
1.2019348
1.2019515
1.2019679
1.201984
1.2019996
1.2020148
1.2020296
1.2020438
1.2020577
1.2020712
1.2020843
1.2020973
1.20211
1.2021226
1.202135
1.2021473
1.2021593
1.2021711
1.2021827
1.202194
1.202205
1.2022158
1.2022262
1.2022363
1.2022461
1.2022555
1.2022646
1.2022733
1.2022818
1.20229
1.202298
1.2023057
1.2023131
1.2023203
1.2023271
1.2023335
1.2023396
1.2023454
1.2023507
1.2023558
1.2023605
1.202365
1.2023691
1.202373
1.2023766
1.2023799
1.2023827
1.2023853
1.2023873
1.2023893
1.2023901
1.2023915
1.2032537
1.2030014
1.2026125
1.202166
1.2017448
1.2013643
1.2010203
1.2007102
1.2004326
1.200186
1.1999688
1.1997789
1.1996147
1.1994742
1.1993563
1.1992596
1.1991835
1.1991274
1.199091
1.1990739
1.1990756
1.1990954
1.1991324
1.1991854
1.199253
1.1993338
1.1994266
1.19953
1.1996429
1.1997638
1.1998916
1.2000251
1.2001629
1.2003038
1.2004463
1.200589
1.2007318
1.2008697
1.2009801
1.2011082
1.2012481
1.2013577
1.2014474
1.2015198
1.2015703
1.201596
1.2015972
1.2015799
1.2015553
1.2015347
1.2015249
1.2015264
1.2015363
1.2015517
1.2015699
1.2015891
1.2016088
1.2016286
1.2016482
1.2016679
1.2016876
1.2017071
1.2017267
1.2017461
1.2017653
1.2017843
1.2018029
1.2018213
1.2018392
1.2018569
1.2018743
1.2018912
1.2019079
1.2019244
1.2019405
1.2019566
1.2019724
1.2019879
1.2020032
1.202018
1.2020324
1.2020466
1.2020602
1.2020734
1.2020863
1.2020988
1.2021112
1.2021235
1.2021355
1.2021474
1.2021592
1.2021708
1.2021822
1.2021934
1.2022043
1.202215
1.2022254
1.2022355
1.2022453
1.2022548
1.2022639
1.2022727
1.2022812
1.2022894
1.2022974
1.2023051
1.2023126
1.2023199
1.2023268
1.2023334
1.2023397
1.2023457
1.2023513
1.2023565
1.2023614
1.202366
1.2023704
1.2023744
1.2023782
1.2023817
1.2023849
1.2023877
1.2023903
1.2023922
1.2023941
1.202395
1.2023963
1.203546
1.2032768
1.2028947
1.2024738
1.2020742
1.2017081
1.2013733
1.2010684
1.2007927
1.2005455
1.2003257
1.2001318
1.1999626
1.1998167
1.1996931
1.1995907
1.1995087
1.1994467
1.1994041
1.1993803
1.1993748
1.1993871
1.1994161
1.1994608
1.19952
1.1995924
1.1996769
1.1997721
1.1998769
1.1999899
1.20011
1.2002359
1.2003662
1.2004996
1.2006345
1.20077
1.2009058
1.2010304
1.2011318
1.2012593
1.2013869
1.2014833
1.2015615
1.201621
1.2016575
1.2016692
1.2016586
1.2016341
1.2016075
1.2015882
1.2015805
1.2015834
1.2015932
1.2016074
1.2016238
1.201641
1.2016586
1.2016763
1.2016939
1.2017116
1.2017295
1.2017472
1.2017651
1.2017829
1.2018006
1.201818
1.2018352
1.2018524
1.201869
1.2018854
1.2019017
1.2019174
1.201933
1.2019485
1.2019636
1.2019787
1.2019936
1.2020083
1.2020227
1.2020368
1.2020505
1.2020639
1.2020768
1.2020894
1.2021017
1.2021136
1.2021255
1.2021372
1.2021486
1.2021601
1.2021714
1.2021826
1.2021936
1.2022043
1.2022148
1.2022251
1.2022352
1.2022449
1.2022544
1.2022636
1.2022724
1.202281
1.2022892
1.2022971
1.2023049
1.2023124
1.2023197
1.2023267
1.2023335
1.2023399
1.202346
1.2023518
1.2023573
1.2023624
1.2023672
1.2023717
1.2023759
1.2023798
1.2023835
1.2023869
1.2023901
1.2023928
1.2023953
1.2023971
1.202399
1.2023999
1.2024012
1.2037976
1.2035117
1.2031371
1.2027412
1.2023639
1.2020143
1.2016915
1.2013949
1.2011245
1.2008801
1.2006609
1.2004661
1.2002947
1.2001458
1.2000185
1.199912
1.1998257
1.1997589
1.1997111
1.1996817
1.1996701
1.1996758
1.1996978
1.1997351
1.1997868
1.1998516
1.1999284
1.2000159
1.2001131
1.2002186
1.2003312
1.2004495
1.2005723
1.2006982
1.2008255
1.2009537
1.2010825
1.2011894
1.201286
1.2014131
1.2015252
1.2016081
1.2016738
1.2017193
1.2017413
1.2017393
1.2017184
1.2016887
1.2016618
1.2016446
1.2016388
1.2016424
1.2016515
1.2016643
1.2016788
1.2016938
1.2017092
1.2017248
1.2017403
1.201756
1.2017721
1.2017879
1.2018041
1.2018203
1.2018365
1.2018524
1.2018681
1.2018839
1.2018992
1.2019144
1.2019295
1.201944
1.2019586
1.201973
1.2019871
1.2020013
1.2020152
1.202029
1.2020427
1.2020559
1.2020688
1.2020815
1.2020937
1.2021057
1.2021174
1.2021287
1.2021399
1.2021511
1.2021621
1.202173
1.2021839
1.2021946
1.2022051
1.2022155
1.2022256
1.2022355
1.2022452
1.2022546
1.2022637
1.2022726
1.2022811
1.2022894
1.2022973
1.202305
1.2023126
1.2023198
1.2023269
1.2023337
1.2023403
1.2023465
1.2023525
1.2023581
1.2023634
1.2023683
1.202373
1.2023774
1.2023815
1.2023853
1.2023889
1.2023922
1.2023953
1.202398
1.2024004
1.2024022
1.2024041
1.2024049
1.2024062
1.2040085
1.2037139
1.2033502
1.2029776
1.2026216
1.2022889
1.2019795
1.2016934
1.2014308
1.2011917
1.2009758
1.2007826
1.2006114
1.2004616
1.2003326
1.2002237
1.2001344
1.2000641
1.2000122
1.1999782
1.1999615
1.1999615
1.1999775
1.2000084
1.2000533
1.2001112
1.2001809
1.2002613
1.2003513
1.2004495
1.2005548
1.2006658
1.2007811
1.2008993
1.2010188
1.2011392
1.2012585
1.2013504
1.2014457
1.2015658
1.2016616
1.2017313
1.2017834
1.2018142
1.2018213
1.2018065
1.2017772
1.2017446
1.2017188
1.2017038
1.2016996
1.2017033
1.2017112
1.2017223
1.2017347
1.2017475
1.2017606
1.2017741
1.2017874
1.2018012
1.2018154
1.2018293
1.2018438
1.2018584
1.2018729
1.2018873
1.2019016
1.2019161
1.20193
1.2019439
1.2019578
1.2019711
1.2019846
1.201998
1.2020111
1.2020242
1.2020372
1.2020501
1.202063
1.2020754
1.2020875
1.2020995
1.202111
1.2021223
1.2021333
1.202144
1.2021547
1.2021653
1.2021757
1.2021862
1.2021966
1.2022068
1.2022169
1.2022268
1.2022365
1.202246
1.2022553
1.2022644
1.2022732
1.2022818
1.20229
1.202298
1.2023056
1.2023131
1.2023204
1.2023274
1.2023342
1.2023408
1.2023472
1.2023533
1.202359
1.2023645
1.2023696
1.2023744
1.2023789
1.2023832
1.2023872
1.2023909
1.2023944
1.2023976
1.2024006
1.2024032
1.2024056
1.2024074
1.2024092
1.20241
1.2024113
1.2041801
1.2038851
1.2035399
1.203189
1.2028526
1.2025367
1.2022417
1.2019674
1.2017144
1.2014827
1.2012721
1.2010825
1.2009136
1.2007648
1.2006358
1.200526
1.2004351
1.2003625
1.2003076
1.20027
1.2002491
1.2002445
1.2002552
1.2002805
1.2003195
1.2003711
1.2004343
1.2005081
1.2005912
1.2006825
1.2007807
1.2008844
1.2009923
1.2011028
1.2012143
1.2013266
1.2014343
1.2015135
1.2016073
1.2017166
1.2017959
1.201852
1.2018896
1.2019049
1.2018974
1.2018712
1.2018359
1.2018024
1.2017787
1.2017658
1.2017625
1.201766
1.2017721
1.2017812
1.2017916
1.201802
1.2018128
1.2018241
1.2018352
1.201847
1.2018594
1.2018714
1.2018841
1.2018971
1.20191
1.2019228
1.2019356
1.2019487
1.2019612
1.201974
1.2019866
1.2019987
1.2020111
1.2020234
1.2020354
1.2020476
1.2020597
1.2020716
1.2020836
1.2020952
1.2021066
1.2021178
1.2021286
1.2021391
1.2021496
1.2021597
1.2021697
1.2021798
1.2021897
1.2021996
1.2022095
1.2022192
1.2022289
1.2022384
1.2022476
1.2022568
1.2022657
1.2022744
1.2022829
1.2022911
1.202299
1.2023067
1.2023141
1.2023213
1.2023283
1.2023351
1.2023417
1.2023481
1.2023543
1.2023601
1.2023657
1.202371
1.2023759
1.2023806
1.202385
1.2023891
1.202393
1.2023966
1.2024
1.2024032
1.2024061
1.2024086
1.2024109
1.2024126
1.2024144
1.2024152
1.2024165
1.2043174
1.2040302
1.2037055
1.2033765
1.2030597
1.2027612
1.2024813
1.2022202
1.2019781
1.2017552
1.2015517
1.2013675
1.2012024
1.2010563
1.2009287
1.2008195
1.2007281
1.2006543
1.2005976
1.2005574
1.2005333
1.2005247
1.2005311
1.2005516
1.2005852
1.2006312
1.2006885
1.2007561
1.2008328
1.2009173
1.2010086
1.2011051
1.2012055
1.2013081
1.2014118
1.2015162
1.201609
1.2016768
1.2017701
1.2018651
1.2019277
1.2019694
1.2019913
1.2019909
1.2019697
1.2019344
1.2018955
1.2018629
1.2018418
1.2018305
1.2018275
1.2018301
1.2018341
1.2018411
1.2018493
1.2018573
1.2018658
1.2018749
1.2018838
1.2018935
1.2019041
1.201914
1.201925
1.2019364
1.2019477
1.2019589
1.2019702
1.2019819
1.201993
1.2020045
1.2020159
1.2020268
1.202038
1.2020492
1.2020601
1.2020713
1.2020825
1.2020935
1.2021046
1.2021154
1.2021259
1.2021364
1.2021465
1.2021563
1.2021661
1.2021756
1.2021851
1.2021945
1.2022038
1.2022132
1.2022226
1.2022319
1.2022411
1.2022501
1.202259
1.2022677
1.2022763
1.2022846
1.2022927
1.2023006
1.2023082
1.2023156
1.2023227
1.2023296
1.2023364
1.2023429
1.2023493
1.2023555
1.2023614
1.2023671
1.2023725
1.2023776
1.2023824
1.2023869
1.2023912
1.2023952
1.2023989
1.2024024
1.2024057
1.2024088
1.2024116
1.2024141
1.2024163
1.202418
1.2024197
1.2024205
1.2024217
1.2044275
1.2041529
1.2038497
1.2035429
1.2032462
1.2029657
1.2027018
1.2024545
1.2022244
1.2020117
1.2018165
1.2016391
1.2014793
1.2013371
1.2012123
1.2011047
1.2010142
1.2009402
1.2008825
1.2008406
1.2008142
1.2008026
1.2008054
1.2008217
1.2008507
1.2008916
1.2009435
1.2010052
1.2010757
1.2011538
1.2012383
1.2013276
1.2014204
1.201515
1.2016107
1.201707
1.2017797
1.2018414
1.2019339
1.2020104
1.2020559
1.2020821
1.2020878
1.202072
1.2020388
1.2019971
1.2019571
1.2019265
1.201908
1.2018976
1.2018942
1.2018956
1.201897
1.2019018
1.2019078
1.2019133
1.2019195
1.2019263
1.2019329
1.2019406
1.2019494
1.2019573
1.2019666
1.2019763
1.201986
1.2019955
1.2020054
1.2020157
1.2020253
1.2020355
1.2020456
1.2020552
1.2020653
1.2020755
1.2020853
1.2020955
1.2021057
1.2021157
1.202126
1.2021359
1.2021456
1.2021554
1.2021647
1.2021739
1.202183
1.2021918
1.2022006
1.2022095
1.2022183
1.2022271
1.202236
1.2022448
1.2022535
1.2022621
1.2022705
1.2022789
1.202287
1.202295
1.2023028
1.2023103
1.2023176
1.2023247
1.2023315
1.2023381
1.2023446
1.2023509
1.2023571
1.202363
1.2023688
1.2023742
1.2023794
1.2023844
1.202389
1.2023934
1.2023975
1.2024013
1.2024049
1.2024083
1.2024115
1.2024145
1.2024172
1.2024196
1.2024218
1.2024234
1.2024251
1.2024259
1.2024271
1.204517
1.2042584
1.2039768
1.2036921
1.2034158
1.2031536
1.202906
1.2026734
1.202456
1.2022543
1.2020685
1.2018989
1.2017455
1.2016083
1.2014874
1.2013826
1.2012938
1.2012207
1.2011629
1.2011202
1.2010921
1.2010783
1.2010781
1.2010909
1.2011159
1.2011522
1.2011991
1.2012553
1.2013199
1.2013917
1.2014694
1.2015515
1.2016365
1.2017227
1.2018096
1.2018948
1.201951
1.2020106
1.2020938
1.2021503
1.2021793
1.2021892
1.2021783
1.2021483
1.2021059
1.2020607
1.2020215
1.2019933
1.2019772
1.2019668
1.2019624
1.2019622
1.2019605
1.2019632
1.2019672
1.20197
1.2019738
1.2019785
1.2019827
1.2019884
1.2019954
1.2020012
1.2020087
1.2020168
1.2020248
1.2020327
1.202041
1.2020499
1.2020581
1.202067
1.2020759
1.2020842
1.2020931
1.2021022
1.2021109
1.2021201
1.2021293
1.2021383
1.2021477
1.2021568
1.2021657
1.2021747
1.2021832
1.2021917
1.2022001
1.2022082
1.2022165
1.2022248
1.202233
1.2022413
1.2022496
1.2022579
1.2022662
1.2022743
1.2022823
1.2022902
1.202298
1.2023055
1.202313
1.2023202
1.2023272
1.202334
1.2023405
1.2023468
1.202353
1.2023591
1.202365
1.2023707
1.2023762
1.2023815
1.2023865
1.2023912
1.2023957
1.2023999
1.2024039
1.2024076
1.2024111
1.2024144
1.2024175
1.2024203
1.202423
1.2024253
1.2024274
1.202429
1.2024306
1.2024313
1.2024326
1.2045932
1.2043516
1.2040911
1.2038281
1.203572
1.2033282
1.2030973
1.2028796
1.2026755
1.2024854
1.2023098
1.2021488
1.2020026
1.2018714
1.2017553
1.2016541
1.2015679
1.2014964
1.2014394
1.2013965
1.2013676
1.2013521
1.2013496
1.2013594
1.2013808
1.2014131
1.2014552
1.2015063
1.2015652
1.2016308
1.2017016
1.2017764
1.2018533
1.2019309
1.2020082
1.2020802
1.2021226
1.2021793
1.2022481
1.2022846
1.2022969
1.2022898
1.2022628
1.2022208
1.2021724
1.2021265
1.202089
1.2020631
1.2020491
1.2020376
1.2020319
1.2020299
1.2020245
1.2020254
1.2020274
1.2020275
1.2020289
1.2020313
1.202033
1.2020366
1.202042
1.2020456
1.2020514
1.2020579
1.2020642
1.2020704
1.2020772
1.2020847
1.2020914
1.2020989
1.2021066
1.2021136
1.2021214
1.2021293
1.2021368
1.202145
1.2021532
1.2021613
1.2021699
1.202178
1.2021861
1.2021943
1.2022021
1.2022098
1.2022176
1.202225
1.2022326
1.2022403
1.2022479
1.2022557
1.2022635
1.2022713
1.2022791
1.2022867
1.2022942
1.2023018
1.2023091
1.2023163
1.2023234
1.2023303
1.2023369
1.2023434
1.2023496
1.2023556
1.2023616
1.2023674
1.202373
1.2023785
1.2023838
1.2023889
1.2023937
1.2023982
1.2024025
1.2024066
1.2024104
1.202414
1.2024173
1.2024205
1.2024235
1.2024263
1.2024288
1.2024311
1.2024331
1.2024346
1.2024362
1.2024369
1.2024382
1.2046602
1.2044361
1.2041961
1.2039543
1.2037181
1.2034925
1.2032783
1.2030758
1.2028853
1.2027073
1.2025423
1.2023905
1.2022523
1.2021277
1.202017
1.2019202
1.2018373
1.2017681
1.2017124
1.2016701
1.2016409
1.2016243
1.20162
1.2016274
1.2016456
1.2016741
1.2017118
1.2017579
1.2018112
1.2018706
1.2019346
1.2020017
1.2020704
1.2021391
1.2022066
1.2022615
1.2022922
1.2023459
1.202396
1.2024123
1.2024072
1.2023831
1.2023417
1.202291
1.2022401
1.2021953
1.2021594
1.2021355
1.2021229
1.2021098
1.2021029
1.2020979
1.2020896
1.2020887
1.2020881
1.2020855
1.2020845
1.2020848
1.2020837
1.2020856
1.2020893
1.2020905
1.2020945
1.2020996
1.2021042
1.2021087
1.2021139
1.20212
1.2021251
1.2021314
1.2021378
1.2021434
1.2021501
1.2021569
1.2021632
1.2021704
1.2021776
1.2021847
1.2021923
1.2021996
1.2022068
1.2022143
1.2022212
1.2022282
1.2022353
1.2022421
1.2022491
1.2022562
1.2022631
1.2022704
1.2022776
1.2022849
1.2022922
1.2022993
1.2023064
1.2023135
1.2023205
1.2023273
1.202334
1.2023405
1.2023468
1.202353
1.2023589
1.2023646
1.2023703
1.2023758
1.2023812
1.2023865
1.2023915
1.2023964
1.202401
1.2024054
1.2024095
1.2024134
1.202417
1.2024205
1.2024237
1.2024268
1.2024297
1.2024323
1.2024348
1.202437
1.2024389
1.2024404
1.202442
1.2024426
1.2024438
1.2047216
1.2045152
1.2042952
1.2040739
1.2038573
1.2036498
1.2034522
1.2032647
1.2030879
1.2029223
1.2027681
1.202626
1.202496
1.2023786
1.2022739
1.2021819
1.2021028
1.2020365
1.2019828
1.2019415
1.2019125
1.2018953
1.2018896
1.2018948
1.2019103
1.2019352
1.2019687
1.2020099
1.2020576
1.2021107
1.2021677
1.2022269
1.2022868
1.2023464
1.2024034
1.2024349
1.2024602
1.2025093
1.2025355
1.2025319
1.2025094
1.2024692
1.2024163
1.2023607
1.20231
1.2022665
1.2022325
1.2022112
1.2021979
1.2021846
1.2021747
1.2021657
1.2021574
1.2021526
1.2021482
1.2021438
1.2021406
1.2021385
1.2021352
1.2021355
1.202137
1.2021359
1.2021383
1.2021419
1.2021448
1.2021474
1.202151
1.2021558
1.2021593
1.2021643
1.2021694
1.2021737
1.2021792
1.2021849
1.20219
1.2021962
1.2022024
1.2022084
1.2022152
1.2022216
1.2022279
1.2022346
1.2022407
1.202247
1.2022534
1.2022594
1.2022658
1.2022723
1.2022786
1.2022853
1.202292
1.2022987
1.2023055
1.2023122
1.2023188
1.2023255
1.2023321
1.2023384
1.2023448
1.2023509
1.2023569
1.2023627
1.2023683
1.2023738
1.2023792
1.2023844
1.2023896
1.2023946
1.2023994
1.202404
1.2024084
1.2024126
1.2024166
1.2024203
1.2024238
1.2024271
1.2024302
1.2024331
1.2024359
1.2024385
1.2024409
1.202443
1.2024449
1.2024463
1.2024478
1.2024484
1.2024496
1.2047792
1.2045908
1.2043908
1.2041899
1.2039926
1.2038028
1.2036216
1.2034491
1.2032859
1.2031325
1.2029893
1.2028569
1.2027355
1.2026255
1.202527
1.2024404
1.2023655
1.2023024
1.202251
1.2022112
1.2021827
1.2021653
1.2021586
1.2021619
1.2021747
1.2021963
1.2022257
1.202262
1.2023041
1.2023506
1.2024002
1.2024511
1.2025017
1.2025507
1.202593
1.2026061
1.2026284
1.2026625
1.2026648
1.2026425
1.202603
1.2025495
1.2024885
1.2024314
1.2023821
1.2023389
1.2023112
1.2022921
1.2022745
1.2022591
1.2022463
1.2022349
1.2022246
1.2022165
1.2022093
1.2022026
1.202197
1.2021923
1.202188
1.2021862
1.2021844
1.2021819
1.2021828
1.2021846
1.2021859
1.2021865
1.2021887
1.2021921
1.2021939
1.2021977
1.2022016
1.2022044
1.2022087
1.2022133
1.2022172
1.2022223
1.2022275
1.2022326
1.2022384
1.2022439
1.2022494
1.2022552
1.2022605
1.2022661
1.2022718
1.2022771
1.2022828
1.2022886
1.2022944
1.2023005
1.2023066
1.2023128
1.2023191
1.2023253
1.2023315
1.2023377
1.2023438
1.2023498
1.2023558
1.2023616
1.2023671
1.2023727
1.2023779
1.2023831
1.2023882
1.2023932
1.2023981
1.2024028
1.2024074
1.2024118
1.202416
1.2024201
1.2024238
1.2024274
1.2024307
1.2024339
1.2024368
1.2024396
1.2024423
1.2024448
1.2024471
1.2024491
1.2024509
1.2024523
1.2024537
1.2024543
1.2024555
1.2048399
1.2046677
1.2044869
1.204306
1.2041274
1.2039549
1.2037894
1.2036315
1.2034815
1.2033401
1.2032078
1.2030851
1.2029723
1.2028698
1.2027778
1.2026965
1.2026261
1.2025666
1.2025178
1.2024797
1.2024521
1.2024347
1.202427
1.2024287
1.202439
1.2024572
1.2024824
1.2025137
1.2025498
1.2025895
1.2026313
1.2026733
1.2027142
1.2027514
1.2027742
1.2027732
1.2027911
1.202804
1.2027833
1.2027431
1.2026891
1.2026256
1.2025598
1.2025036
1.2024561
1.2024197
1.202395
1.2023714
1.2023514
1.2023339
1.2023185
1.2023045
1.2022919
1.2022808
1.2022709
1.2022619
1.202254
1.202247
1.2022409
1.2022364
1.2022326
1.2022293
1.202228
1.2022273
1.2022272
1.2022262
1.2022271
1.2022287
1.2022289
1.2022316
1.2022342
1.2022354
1.2022386
1.2022422
1.2022448
1.2022488
1.2022531
1.2022571
1.202262
1.2022666
1.2022711
1.2022762
1.2022807
1.2022855
1.2022904
1.202295
1.2023001
1.2023053
1.2023104
1.2023159
1.2023215
1.2023271
1.2023329
1.2023386
1.2023443
1.2023501
1.2023558
1.2023614
1.2023669
1.2023724
1.2023776
1.2023828
1.2023877
1.2023926
1.2023974
1.2024021
1.2024067
1.2024113
1.2024156
1.2024198
1.2024238
1.2024276
1.2024312
1.2024345
1.2024377
1.2024407
1.2024436
1.2024462
1.2024488
1.2024512
1.2024534
1.2024553
1.2024571
1.2024584
1.2024598
1.2024604
1.2024615
1.2049078
1.2047486
1.2045862
1.2044249
1.2042648
1.2041089
1.2039586
1.2038144
1.2036771
1.2035473
1.2034255
1.2033122
1.2032078
1.2031127
1.2030272
1.2029515
1.2028857
1.2028298
1.2027838
1.2027475
1.2027209
1.2027035
1.2026951
1.2026951
1.2027028
1.2027176
1.2027384
1.2027643
1.2027941
1.2028265
1.2028597
1.2028922
1.2029231
1.2029469
1.2029425
1.2029352
1.2029461
1.202932
1.2028902
1.202834
1.202769
1.2026988
1.2026315
1.202579
1.2025389
1.2025058
1.2024765
1.2024512
1.2024291
1.2024092
1.2023911
1.2023745
1.2023593
1.2023455
1.202333
1.2023216
1.2023114
1.2023022
1.2022941
1.2022874
1.2022816
1.2022767
1.2022733
1.2022707
1.2022687
1.2022667
1.2022662
1.2022655
1.2022645
1.202266
1.202267
1.2022669
1.202269
1.2022714
1.2022728
1.2022757
1.202279
1.2022819
1.2022859
1.2022897
1.2022933
1.2022974
1.2023011
1.2023052
1.2023094
1.2023132
1.2023176
1.2023222
1.2023267
1.2023316
1.2023366
1.2023417
1.202347
1.2023522
1.2023574
1.2023627
1.202368
1.2023731
1.2023783
1.2023834
1.2023882
1.2023931
1.2023977
1.2024022
1.2024068
1.2024112
1.2024155
1.2024198
1.2024239
1.2024279
1.2024317
1.2024353
1.2024387
1.2024418
1.2024449
1.2024477
1.2024504
1.202453
1.2024554
1.2024577
1.2024598
1.2024616
1.2024633
1.2024646
1.2024659
1.2024665
1.2024676
1.2049817
1.2048435
1.204695
1.2045518
1.2044089
1.2042684
1.204132
1.2040006
1.203875
1.203756
1.203644
1.2035397
1.2034435
1.2033556
1.2032764
1.2032061
1.2031448
1.2030926
1.2030493
1.203015
1.2029893
1.202972
1.2029627
1.2029609
1.2029659
1.2029769
1.202993
1.203013
1.2030359
1.20306
1.2030838
1.2031061
1.2031254
1.2031296
1.2031035
1.2030932
1.2030854
1.2030455
1.2029853
1.2029166
1.202844
1.2027693
1.2027107
1.2026652
1.2026246
1.2025893
1.2025587
1.2025317
1.2025072
1.2024847
1.202464
1.2024447
1.2024269
1.2024105
1.2023955
1.2023817
1.2023691
1.2023578
1.2023476
1.2023388
1.2023311
1.2023244
1.202319
1.2023146
1.2023108
1.2023075
1.202305
1.2023029
1.2023011
1.2023007
1.2023
1.2022989
1.2022999
1.202301
1.2023011
1.202303
1.2023053
1.2023071
1.2023102
1.2023131
1.2023157
1.2023191
1.2023219
1.2023252
1.2023287
1.2023318
1.2023355
1.2023394
1.2023432
1.2023476
1.202352
1.2023565
1.2023613
1.202366
1.2023707
1.2023756
1.2023804
1.2023851
1.2023899
1.2023946
1.202399
1.2024036
1.2024079
1.2024121
1.2024163
1.2024204
1.2024245
1.2024285
1.2024324
1.2024361
1.2024397
1.2024431
1.2024463
1.2024493
1.2024521
1.2024548
1.2024574
1.2024598
1.2024621
1.2024643
1.2024663
1.2024681
1.2024697
1.2024709
1.2024722
1.2024727
1.2024738
1.2050613
1.2049719
1.204837
1.2047009
1.2045676
1.2044382
1.204313
1.2041923
1.2040771
1.2039677
1.2038649
1.203769
1.2036804
1.2035994
1.2035262
1.2034612
1.2034043
1.2033555
1.2033149
1.2032823
1.2032574
1.20324
1.2032297
1.2032258
1.2032276
1.2032344
1.2032451
1.2032586
1.2032736
1.2032884
1.2033017
1.2033125
1.2033191
1.2032967
1.2032564
1.2032409
1.2032077
1.2031448
1.2030694
1.2029926
1.2029165
1.2028499
1.2027987
1.2027511
1.2027099
1.2026739
1.2026418
1.2026125
1.2025855
1.2025604
1.2025369
1.202515
1.2024946
1.2024757
1.2024582
1.202442
1.2024272
1.2024136
1.2024014
1.2023906
1.2023809
1.2023725
1.2023652
1.202359
1.2023535
1.2023486
1.2023445
1.2023409
1.2023377
1.2023355
1.2023335
1.2023317
1.2023311
1.2023306
1.20233
1.2023307
1.2023318
1.2023327
1.2023349
1.2023368
1.2023385
1.202341
1.202343
1.2023455
1.2023483
1.2023506
1.2023536
1.2023569
1.20236
1.2023638
1.2023677
1.2023716
1.2023759
1.20238
1.2023842
1.2023887
1.202393
1.2023973
1.2024017
1.202406
1.2024101
1.2024142
1.2024182
1.2024221
1.202426
1.2024298
1.2024336
1.2024374
1.202441
1.2024445
1.2024478
1.202451
1.202454
1.2024569
1.2024595
1.2024621
1.2024645
1.2024668
1.202469
1.202471
1.202473
1.2024746
1.2024762
1.2024773
1.2024785
1.2024791
1.2024802
1.2051611
1.2051082
1.2050058
1.2048684
1.2047389
1.2046176
1.2045015
1.2043902
1.204284
1.2041835
1.204089
1.2040008
1.2039194
1.2038448
1.2037774
1.2037172
1.2036644
1.2036189
1.2035807
1.2035495
1.2035251
1.2035073
1.2034955
1.203489
1.2034871
1.203489
1.2034935
1.2034994
1.2035052
1.2035093
1.2035101
1.2035066
1.2034962
1.2034531
1.2034037
1.2033702
1.20331
1.2032302
1.2031451
1.203067
1.2029992
1.2029386
1.202885
1.202838
1.2027966
1.2027593
1.2027251
1.2026934
1.2026637
1.2026359
1.2026098
1.2025853
1.2025623
1.2025409
1.202521
1.2025025
1.2024855
1.2024698
1.2024555
1.2024427
1.2024311
1.2024208
1.2024118
1.2024037
1.2023965
1.2023901
1.2023843
1.2023792
1.2023747
1.2023709
1.2023675
1.2023645
1.2023625
1.2023608
1.2023596
1.2023588
1.2023585
1.2023588
1.20236
1.2023609
1.2023616
1.2023633
1.2023645
1.2023661
1.2023682
1.2023697
1.202372
1.2023747
1.2023771
1.2023803
1.2023836
1.2023869
1.2023907
1.2023943
1.202398
1.202402
1.2024058
1.2024097
1.2024137
1.2024176
1.2024213
1.2024251
1.2024287
1.2024322
1.2024359
1.2024394
1.2024429
1.2024464
1.2024498
1.202453
1.2024561
1.2024591
1.202462
1.2024646
1.2024671
1.2024695
1.2024717
1.2024739
1.202476
1.2024779
1.2024797
1.2024813
1.2024828
1.2024839
1.202485
1.2024855
1.2024866
1.2052843
1.2052538
1.2051539
1.2050277
1.2049117
1.2048015
1.2046954
1.2045933
1.2044959
1.2044036
1.2043168
1.2042359
1.204161
1.2040924
1.2040302
1.2039746
1.2039254
1.2038828
1.2038465
1.2038164
1.2037921