/*--------------------------------*- C++ -*----------------------------------*\
| =========                 |                                                 |
| \\      /  F ield         | OpenFOAM: The Open Source CFD Toolbox           |
|  \\    /   O peration     | Version:  2406                                  |
|   \\  /    A nd           | Website:  www.openfoam.com                      |
|    \\/     M anipulation  |                                                 |
\*---------------------------------------------------------------------------*/
FoamFile
{
    version     2.0;
    format      ascii;
    arch        "LSB;label=32;scalar=64";
    class       volVectorField;
    location    "0.04";
    object      U;
}
// * * * * * * * * * * * * * * * * * * * * * * * * * * * * * * * * * * * * * //

dimensions      [0 1 -1 0 0 0 0];

internalField   nonuniform List<vector> 
92813
(
(39.038763 29.33742 -4.9988807e-21)
(39.878423 28.59164 1.7301506e-20)
(40.67714 27.890768 -1.059096e-20)
(41.422896 27.221487 -1.082968e-20)
(42.108713 26.559103 -8.9909537e-21)
(42.744942 25.908226 7.2275248e-21)
(43.337907 25.275675 5.6642602e-21)
(43.892757 24.665715 0)
(44.41513 24.080922 -3.1502446e-21)
(44.910574 23.522415 -1.166456e-24)
(45.384312 22.990222 -1.5425735e-21)
(45.841027 22.483637 -1.06963e-21)
(46.284807 22.001423 0)
(46.719405 21.541751 0)
(47.145347 21.102527 5.2225689e-23)
(47.564533 20.681959 0)
(47.977034 20.278246 -1.1741036e-21)
(48.379862 19.889694 -1.5245956e-21)
(48.769242 19.515494 2.2542126e-25)
(49.14413 19.15526 -8.183112e-21)
(49.503896 18.808988 0)
(49.846956 18.477481 0)
(50.176622 18.159528 0)
(50.495082 17.853806 5.4867406e-21)
(50.803268 17.559214 -1.0817287e-20)
(51.101587 17.274655 -5.3424849e-21)
(51.390144 16.999035 0)
(51.668815 16.731261 0)
(51.937284 16.47024 5.2216189e-21)
(52.195062 16.21487 -1.5628002e-20)
(52.441488 15.964032 -1.0425647e-20)
(52.675739 15.71658 5.2327238e-21)
(52.896822 15.471326 -1.5811348e-20)
(53.103566 15.227035 0)
(53.294633 14.982395 0)
(53.468456 14.735951 -1.6552272e-20)
(53.623115 14.486602 1.1307871e-20)
(53.758269 14.232034 -1.1652127e-20)
(53.869915 13.970628 1.2079392e-20)
(53.952153 13.699538 -3.1366509e-20)
(54.006159 13.42234 -4.6086157e-20)
(54.032298 13.12866 1.4019744e-20)
(54.023134 12.820435 3.7531503e-20)
(53.975948 12.494202 3.239823e-20)
(53.888337 12.14783 8.8248364e-21)
(53.758904 11.780104 2.9152527e-20)
(53.588608 11.391218 0)
(53.383052 10.984615 0)
(53.155522 10.569369 0)
(52.928606 10.16197 5.9098657e-20)
(52.729058 9.7826475 6.3557117e-20)
(52.574492 9.4444677 6.6597238e-20)
(52.464673 9.146248 1.7092821e-20)
(52.387856 8.8780602 -1.7325679e-20)
(52.330947 8.6298988 6.9764576e-20)
(52.284525 8.3949029 -8.7452745e-20)
(52.243311 8.1691418 -4.3749731e-20)
(52.204735 7.9507209 3.4748347e-25)
(52.167553 7.7386106 -1.4818751e-19)
(52.131432 7.5322499 0)
(52.096272 7.3314246 1.2965713e-19)
(52.061578 7.1358463 -1.3752054e-19)
(52.027555 6.9451698 8.5378682e-21)
(51.994248 6.7592875 1.440623e-19)
(51.961448 6.5781156 1.2605622e-19)
(51.92899 6.4012993 8.3273924e-21)
(51.896987 6.2287529 1.1544164e-19)
(51.865694 6.0603262 2.6109578e-19)
(51.834705 5.895944 1.6142194e-20)
(51.804335 5.7353231 -7.9755798e-21)
(51.774527 5.5785186 1.3394734e-19)
(51.744855 5.4252606 -1.5561846e-20)
(51.715727 5.2754276 1.3056383e-19)
(51.687094 5.1289904 1.2882216e-19)
(51.658593 4.985848 1.911793e-25)
(51.630573 4.8457671 2.3581336e-19)
(51.60297 4.7089128 -7.2628955e-21)
(51.575847 4.5748026 2.218357e-19)
(51.549274 4.4436204 1.4096445e-20)
(51.522908 4.3151635 -6.9400079e-21)
(51.496977 4.1894069 -2.1860909e-19)
(51.471749 4.0662368 0)
(51.446954 3.9456023 -2.1826254e-19)
(51.422698 3.8273824 -2.0167775e-19)
(51.399077 3.7115453 3.1674818e-24)
(51.375747 3.5979653 0)
(51.35299 3.4866466 -1.9171239e-19)
(51.330738 3.3774283 -6.0787361e-21)
(51.308782 3.270354 2.5341503e-24)
(51.28723 3.1652106 0)
(51.266197 3.0620237 0)
(51.245714 2.9605758 -3.627301e-19)
(51.225607 2.8611015 -4.0697812e-24)
(51.205904 2.763135 -5.4685938e-21)
(51.18663 2.6669584 1.0741517e-20)
(51.168057 2.5722351 3.2699451e-19)
(51.150003 2.4791695 3.3143076e-19)
(51.132364 2.3874078 -3.2031427e-19)
(51.115269 2.2971347 0)
(51.09863 2.2082156 -3.1358192e-19)
(51.082481 2.120452 0)
(51.066776 2.0339492 2.973845e-19)
(51.051417 1.9485905 4.6327162e-21)
(51.036584 1.8643008 0)
(51.022233 1.7809582 -2.8553744e-19)
(51.008264 1.6986494 0)
(50.994971 1.6170883 2.7492362e-19)
(50.982189 1.5363916 -2.7185078e-19)
(50.969872 1.4563982 4.1351398e-21)
(50.958127 1.3770162 -2.0284204e-21)
(50.946868 1.2982684 0)
(50.936181 1.2199513 0)
(50.926001 1.1421385 4.8829292e-19)
(50.916343 1.0645806 -1.2809711e-26)
(50.907227 0.98737458 -4.6980265e-19)
(50.898681 0.91026902 0)
(50.890655 0.83333444 2.5555565e-24)
(50.883207 0.75629949 0)
(50.876322 0.679273 -4.3641811e-19)
(50.870049 0.60184897 -2.2915652e-24)
(50.864305 0.52429122 0)
(50.8593 0.44589021 -4.1118272e-19)
(50.854745 0.36735225 4.0320306e-19)
(50.851148 0.28722067 0)
(50.847886 0.20735654 0)
(50.846065 0.12452347 3.8048104e-19)
(50.844465 0.042860196 -3.7236431e-19)
(38.332059 28.862814 -6.1499412e-21)
(39.230436 28.145799 -1.7724916e-20)
(40.045564 27.506819 0)
(40.801126 26.890842 -1.0591506e-20)
(41.507198 26.283195 2.0122023e-20)
(42.169584 25.686103 -9.5880087e-21)
(42.7925 25.104158 6.4255995e-24)
(43.379808 24.540365 0)
(43.935543 23.996717 8.4180993e-21)
(44.463873 23.474415 1.6180533e-20)
(44.96896 22.973918 -2.0583068e-24)
(45.454815 22.495026 1.5050918e-20)
(45.925075 22.036903 0)
(46.38272 21.598026 -7.051986e-21)
(46.829231 21.176524 1.3687217e-20)
(47.265481 20.770676 -2.896124e-24)
(47.691276 20.378898 6.4744217e-21)
(48.105194 19.99987 6.3144666e-21)
(48.505464 19.633035 0)
(48.891278 19.27841 0)
(49.262383 18.93609 5.9204007e-21)
(49.618646 18.606301 1.0662137e-24)
(49.96139 18.288688 -5.7221737e-21)
(50.291879 17.982502 -5.6393059e-21)
(50.610914 17.686789 1.113862e-20)
(50.918928 17.400518 -5.5144874e-21)
(51.216067 17.122645 5.4701407e-21)
(51.502255 16.852121 1.0880924e-20)
(51.777212 16.587889 -5.4233526e-21)
(52.040482 16.328877 1.6263554e-20)
(52.291432 16.073983 -5.4353696e-21)
(52.529255 15.822071 5.4669494e-21)
(52.752968 15.571957 -1.1032094e-20)
(52.961405 15.322394 5.5872067e-21)
(53.153217 15.07206 -1.7047581e-20)
(53.32685 14.819501 2.3221536e-20)
(53.480519 14.563383 0)
(53.613077 14.301903 1.2307996e-20)
(53.720482 14.032536 6.3913058e-21)
(53.799259 13.751041 2.6595025e-20)
(53.848917 13.46599 -1.3989448e-20)
(53.867795 13.161772 7.4621217e-21)
(53.850433 12.842838 -2.3995066e-20)
(53.794475 12.504779 -8.6437865e-21)
(53.697608 12.145888 3.7720186e-20)
(53.559152 11.765341 0)
(53.381546 11.36415 0)
(53.172853 10.947339 3.843048e-20)
(52.949687 10.526563 7.086833e-20)
(52.736952 10.120891 -1.5431092e-20)
(52.559551 9.75013 -4.918852e-20)
(52.428773 9.4229779 -6.8031522e-20)
(52.338659 9.1338637 0)
(52.275915 8.8714565 0)
(52.228623 8.6264474 -7.0309153e-20)
(52.189037 8.3930312 5.2781375e-20)
(52.153147 8.1680257 8.7873214e-20)
(52.1191 7.9499914 0)
(52.085975 7.7380892 1.7466806e-20)
(52.053633 7.5318664 -1.7383149e-20)
(52.022041 7.3311524 1.7283815e-20)
(51.990665 7.1356681 1.201796e-19)
(51.959802 6.9450688 -1.4484473e-19)
(51.929512 6.7592641 8.4543788e-21)
(51.899555 6.5781896 -2.5954788e-19)
(51.869781 6.401444 1.326522e-19)
(51.840347 6.2289888 -2.6252908e-19)
(51.811518 6.0606459 -1.3792276e-19)
(51.782844 5.896345 -1.2830774e-19)
(51.754699 5.7357982 1.3468598e-19)
(51.727002 5.57906 -1.5646733e-20)
(51.69931 5.4258514 7.7223644e-21)
(51.672095 5.2760654 0)
(51.645284 5.1296662 0)
(51.618496 4.9865595 -2.3712304e-19)
(51.592144 4.8465084 -2.3371726e-19)
(51.56611 4.7097051 7.196729e-21)
(51.540468 4.575631 -2.339276e-19)
(51.515332 4.4444675 2.2337886e-19)
(51.490326 4.3160318 6.8721148e-21)
(51.465711 4.1903086 -6.763351e-21)
(51.441743 4.0671802 0)
(51.418142 3.9465773 -2.1602691e-19)
(51.395031 3.8283899 2.0602111e-19)
(51.372501 3.7125727 -1.9625241e-19)
(51.350206 3.5990029 0)
(51.328446 3.4876967 -2.9025781e-24)
(51.307138 3.3784726 0)
(51.286077 3.2713992 -1.8913884e-19)
(51.265382 3.1662408 0)
(51.245159 3.0630609 1.8262499e-19)
(51.225463 2.961585 1.7941798e-19)
(51.206099 2.8620957 7.0500559e-19)
(51.187098 2.7641081 5.4100419e-21)
(51.168507 2.6679132 3.3474512e-19)
(51.150585 2.5731779 -6.6789205e-19)
(51.133146 2.4800908 5.1270277e-21)
(51.11609 2.3883071 3.1189779e-19)
(51.099567 2.2980071 -3.1115522e-19)
(51.083458 2.2090737 3.1030526e-19)
(51.06781 2.1212816 0)
(51.052597 2.03474 2.5791069e-24)
(51.037697 1.9493571 0)
(51.023297 1.8650435 0)
(51.009363 1.7816635 0)
(50.995783 1.6993347 2.7741234e-19)
(50.982859 1.6177461 2.1267863e-21)
(50.970429 1.5370147 -2.0869308e-21)
(50.95844 1.4569968 2.6416244e-19)
(50.947009 1.3775842 -5.1637784e-19)
(50.936045 1.2988095 1.9713784e-21)
(50.925636 1.2204598 4.9513877e-19)
(50.915716 1.1426164 -1.8975128e-21)
(50.906301 1.0650245 0)
(50.897413 0.98778615 4.6933038e-19)
(50.889077 0.91064772 -3.5828783e-21)
(50.881245 0.8336811 -8.9798124e-19)
(50.873975 0.75660832 0)
(50.86725 0.67954932 -2.4027455e-24)
(50.861121 0.60209214 4.2538735e-19)
(50.855504 0.52449838 -8.133129e-22)
(50.850611 0.44606516 4.0841754e-19)
(50.846149 0.36748751 -8.0112183e-19)
(50.842633 0.28732717 0)
(50.839429 0.20741989 0)
(50.837649 0.12453768 -9.0295879e-23)
(50.836063 0.042864985 9.0287939e-23)
(37.598503 28.243114 -1.3900734e-23)
(38.4831 27.614106 -1.0803901e-20)
(39.312324 27.055705 -5.1415895e-21)
(40.090398 26.506169 4.9021286e-21)
(40.822963 25.958807 9.3810097e-21)
(41.514193 25.417901 -8.9894168e-21)
(42.167599 24.8878 -8.6316015e-21)
(42.786508 24.371148 -8.301139e-21)
(43.374301 23.86978 3.0547164e-24)
(43.934452 23.384973 0)
(44.470454 22.917426 1.5169043e-24)
(44.985716 22.46725 -7.3479604e-25)
(45.483382 22.033974 1.0123915e-24)
(45.966052 21.616549 -6.8249945e-21)
(46.435359 21.213621 1.3285326e-20)
(46.892146 20.823815 -1.2949528e-20)
(47.336452 20.445807 1.2642532e-20)
(47.767551 20.078555 0)
(48.184379 19.721625 -6.0517149e-21)
(48.586312 19.375046 -5.9358262e-21)
(48.97316 19.038931 -7.168137e-25)
(49.345006 18.713473 -5.7386658e-21)
(49.702572 18.398644 5.6578155e-21)
(50.046769 18.094005 -1.1182316e-20)
(50.378326 17.798821 0)
(50.697695 17.512223 0)
(51.005071 17.233278 1.0911717e-20)
(51.300421 16.961022 -1.0869555e-20)
(51.583513 16.694458 -5.4296241e-21)
(51.853924 16.432556 -5.4371235e-21)
(52.111052 16.174249 1.0924314e-20)
(52.354112 15.918419 -1.1009131e-20)
(52.582135 15.663888 1.6700797e-20)
(52.793958 15.409407 5.6526759e-21)
(52.988227 15.153636 1.7282069e-20)
(53.163386 14.895097 2.5963257e-24)
(53.31767 14.632286 6.0733873e-21)
(53.449442 14.363694 -6.2833481e-21)
(53.554712 14.085906 -6.5444684e-21)
(53.631778 13.796361 -2.7301968e-20)
(53.678848 13.501698 2.881199e-20)
(53.692322 13.186785 -3.0856542e-20)
(53.668927 12.856846 3.3170228e-20)
(53.606357 12.506793 0)
(53.502608 12.135433 4.9183394e-20)
(53.357888 11.74251 8.5770884e-25)
(53.176257 11.330247 4.8187488e-20)
(52.968391 10.905778 -1.2033908e-19)
(52.753888 10.483657 -1.0293312e-19)
(52.558549 10.08459 8.569263e-25)
(52.403449 9.7257403 -1.6678829e-20)
(52.29356 9.4103763 5.1482746e-20)
(52.219247 9.1296222 8.7080155e-20)
(52.16743 8.8720791 0)
(52.127821 8.6296622 7.0307143e-20)
(52.094059 8.397616 4.0135512e-24)
(52.063015 8.1733631 1.7545043e-20)
(52.033286 7.9558099 1.2243344e-19)
(52.004117 7.744235 0)
(51.975499 7.5382654 0)
(51.947453 7.3377513 1.7216659e-20)
(51.919377 7.1424309 -1.7094412e-20)
(51.891662 6.9519518 2.5439313e-19)
(51.864386 6.7662339 -1.1768202e-19)
(51.837282 6.5852451 1.6648502e-20)
(51.810204 6.408531 -1.6479924e-20)
(51.78334 6.2361085 -4.5476515e-24)
(51.756983 6.0677618 0)
(51.730628 5.9034404 -7.9664189e-21)
(51.704707 5.7428497 -1.1802454e-19)
(51.679131 5.586043 -7.7683817e-21)
(51.653425 5.4327458 7.666544e-21)
(51.628123 5.2828581 1.2857658e-19)
(51.603145 5.1363361 1.7922605e-25)
(51.57808 4.9931036 2.3528139e-19)
(51.553404 4.852915 -7.2459738e-21)
(51.528949 4.7159904 -7.1388417e-21)
(51.504788 4.5817833 7.0307234e-21)
(51.481105 4.4504582 -2.2151743e-19)
(51.457482 4.3218661 0)
(51.434191 4.1959962 -6.7056988e-21)
(51.41149 4.0727268 -1.2846628e-25)
(51.389087 3.9519718 6.4852458e-21)
(51.367121 3.833636 -1.9782507e-19)
(51.345684 3.7176583 -6.2743512e-21)
(51.324425 3.6039228 6.1684772e-21)
(51.303656 3.4924579 1.9402583e-19)
(51.283293 3.3830594 -1.1918624e-20)
(51.26313 3.2758254 -1.8155181e-19)
(51.243292 3.1704952 0)
(51.223878 3.067173 -1.809297e-19)
(51.204968 2.9655199 0)
(51.186355 2.8658706 -5.4520731e-21)
(51.168061 2.7677253 5.3590431e-21)
(51.150153 2.671378 -3.3683976e-19)
(51.132882 2.576501 6.6155109e-19)
(51.116061 2.483266 -3.2986062e-19)
(51.099593 2.3913402 9.965017e-21)
(51.083647 2.3008958 3.0816497e-19)
(51.068073 2.2118343 -3.0731981e-19)
(51.05293 2.1239079 -4.7135211e-21)
(51.038216 2.0372212 -2.9609673e-19)
(51.02378 1.9517127 -2.8153866e-19)
(51.009813 1.8672797 -8.9132816e-21)
(50.996299 1.7837696 4.3737234e-21)
(50.98311 1.7013314 -2.7469966e-19)
(50.970555 1.6196323 0)
(50.958481 1.5387834 2.0664925e-21)
(50.946824 1.4586641 -2.6156739e-19)
(50.93571 1.3791457 -3.5271322e-24)
(50.925043 1.3002729 0)
(50.914915 1.2218213 -4.9025638e-19)
(50.905257 1.1438816 4.809746e-19)
(50.896088 1.0661919 4.7184976e-19)
(50.887429 0.98885999 -4.6288063e-19)
(50.879305 0.91162959 -4.5229958e-19)
(50.871667 0.83457422 -2.6041875e-24)
(50.864576 0.75740795 -2.5600295e-21)
(50.858013 0.68026358 4.2855623e-19)
(50.85203 0.6027216 8.2099377e-22)
(50.846542 0.52504178 0)
(50.841762 0.44652737 0)
(50.837395 0.36786226 3.9658519e-19)
(50.833959 0.28762518 3.8894637e-19)
(50.830814 0.20762885 0)
(50.829074 0.12466063 -7.4813864e-19)
(50.827504 0.042913481 0)
(36.98104 27.585948 1.015592e-20)
(37.848142 27.039431 -9.9291672e-21)
(38.677501 26.557998 4.7528844e-21)
(39.465785 26.077786 0)
(40.214261 25.593702 -8.770953e-21)
(40.925127 25.110706 1.6899937e-20)
(41.60077 24.633393 8.1498913e-21)
(42.243704 24.164536 -7.8791003e-21)
(42.856601 23.706086 0)
(43.442268 23.259484 7.3901602e-21)
(44.003578 22.825664 0)
(44.543349 22.405036 -6.971775e-21)
(45.064197 21.997496 9.9379787e-25)
(45.568329 21.602471 -6.6127485e-21)
(46.057301 21.219094 0)
(46.532045 20.84639 0)
(46.992849 20.483399 9.0955771e-25)
(47.439418 20.129376 -6.049476e-21)
(47.871162 19.783981 5.9390395e-21)
(48.287657 19.447211 5.8385978e-21)
(48.688737 19.119184 -8.0055961e-25)
(49.074475 18.800075 0)
(49.44536 18.489944 -5.602685e-21)
(49.802062 18.188543 5.542659e-21)
(50.145173 17.895357 5.5012768e-21)
(50.475096 17.609698 5.4658972e-21)
(50.79202 17.330776 -2.1777171e-20)
(51.095927 17.057729 0)
(51.386606 16.789641 -5.4404106e-21)
(51.663656 16.52554 5.459616e-21)
(51.92649 16.2644 -1.6489524e-20)
(52.174336 16.005129 5.5500781e-21)
(52.406227 15.746563 0)
(52.620999 15.487453 -1.7168389e-20)
(52.817282 15.226441 -5.8487457e-21)
(52.993494 14.962017 -6.0013564e-21)
(53.147832 14.692562 -2.4774438e-20)
(53.278336 14.416777 2.5711437e-20)
(53.381824 14.129128 6.482055e-25)
(53.455924 13.834872 -3.4933443e-20)
(53.499701 13.52824 0)
(53.507465 13.202611 3.19465e-20)
(53.477777 12.861331 -3.4434009e-20)
(53.408333 12.499146 0)
(53.297725 12.115442 -5.1343055e-20)
(53.147295 11.710747 1.1347695e-20)
(52.963102 11.288857 -6.2938185e-20)
(52.758746 10.859425 8.3510769e-20)
(52.556469 10.43976 1.0631426e-19)
(52.381408 10.050672 0)
(52.249361 9.7049425 5.0654821e-20)
(52.159396 9.4006692 1.7267542e-20)
(52.099568 9.1270824 -1.7454186e-20)
(52.057776 8.8735043 1.7540818e-20)
(52.025398 8.6331721 1.7563098e-20)
(51.997275 8.402246 -1.7542214e-20)
(51.971031 8.1786201 0)
(51.945635 7.9614815 7.3951361e-24)
(51.920457 7.7501823 1.735609e-20)
(51.895611 7.5444252 -1.7256001e-20)
(51.871164 7.3440652 0)
(51.846434 7.1488646 1.7013228e-20)
(51.821917 6.9584618 -2.868213e-19)
(51.79771 6.7727828 -1.6719203e-20)
(51.773505 6.5918396 1.6550105e-20)
(51.74917 6.4151101 -1.1467858e-19)
(51.724926 6.2426839 -1.6206913e-20)
(51.70109 6.0742944 -1.2811969e-19)
(51.677098 5.9099174 0)
(51.653448 5.7492529 0)
(51.630036 5.5923482 0)
(51.606356 5.4389379 -1.1413423e-19)
(51.58301 5.2889302 3.4715243e-24)
(51.559906 5.1422688 -7.3995386e-21)
(51.536603 4.9988993 0)
(51.513647 4.8585667 -2.2997884e-19)
(51.490812 4.7215138 -7.0794162e-21)
(51.468165 4.5871802 2.3005715e-19)
(51.445968 4.4556962 -6.8631479e-21)
(51.423762 4.3269558 -2.0940157e-19)
(51.401833 4.2009496 -2.1269281e-19)
(51.380433 4.0775526 0)
(51.359262 3.9566583 4.1799239e-19)
(51.338472 3.838191 1.8970308e-19)
(51.318157 3.7220689 6.2169496e-21)
(51.297962 3.6081855 -1.9557162e-19)
(51.278214 3.4965816 -1.9222759e-19)
(51.258823 3.3870272 0)
(51.239583 3.2796531 1.7984246e-19)
(51.22063 3.1741703 5.7003097e-21)
(51.202048 3.070729 0)
(51.183946 2.9689215 1.7054783e-19)
(51.166105 2.8691312 -3.3503811e-19)
(51.148539 2.7708511 7.5670532e-26)
(51.131338 2.6743731 3.3358203e-19)
(51.114737 2.5793763 -6.602378e-19)
(51.098554 2.486014 0)
(51.08269 2.3939677 3.1575975e-19)
(51.067339 2.3034005 0)
(51.052317 2.2142279 2.9953403e-19)
(51.037691 2.1261898 9.3338366e-21)
(51.02349 2.0393759 -4.5806653e-21)
(51.009535 1.953758 -2.5030138e-24)
(50.996013 1.8692241 -2.823875e-19)
(50.982933 1.7856006 -2.7279908e-19)
(50.970148 1.7030674 -4.2492974e-21)
(50.957972 1.6212754 0)
(50.946265 1.5403232 0)
(50.934951 1.4601182 -2.5693715e-19)
(50.924163 1.3805079 5.0419123e-19)
(50.913803 1.3015515 0)
(50.903964 1.2230113 0)
(50.894576 1.1449884 -4.7798244e-19)
(50.88566 1.0672136 -9.3234906e-19)
(50.877237 0.98980049 1.7898761e-21)
(50.869331 0.9124898 8.9896459e-19)
(50.861894 0.83535724 8.8009885e-19)
(50.854987 0.75810816 -4.3249142e-19)
(50.848592 0.68088926 0)
(50.842758 0.60327295 -8.1268033e-22)
(50.837404 0.52551709 -4.0731297e-19)
(50.832739 0.4469317 0)
(50.828471 0.36818875 0)
(50.825117 0.28788419 -3.8462503e-19)
(50.822034 0.2078087 -5.5307925e-22)
(50.820335 0.12476253 3.7045713e-19)
(50.818783 0.042953994 0)
(36.454967 26.91184 4.6600304e-21)
(37.304046 26.440088 9.1669485e-21)
(38.125957 26.029019 -4.4172514e-21)
(38.915751 25.615243 8.5212314e-21)
(39.672085 25.193425 -8.2336348e-21)
(40.395253 24.768019 -7.9670001e-21)
(41.086385 24.343462 0)
(41.747081 23.922575 -9.9333902e-25)
(42.379263 23.507419 7.2777143e-21)
(42.985078 23.099596 3.1622358e-24)
(43.566793 22.700258 6.8943486e-21)
(44.126676 22.310093 6.7195592e-21)
(44.66686 21.929348 1.6451175e-24)
(45.189189 21.557871 6.4137023e-21)
(45.695067 21.195229 6.2762013e-21)
(46.185424 20.840842 -4.3391865e-25)
(46.660701 20.494113 -6.0346045e-21)
(47.120901 20.15457 9.1493815e-25)
(47.565779 19.82199 8.5071862e-25)
(47.995102 19.49638 -5.7474348e-21)
(48.408773 19.177858 -5.2450291e-26)
(48.806866 18.866585 5.6067448e-21)
(49.189715 18.562643 -2.0883168e-25)
(49.557782 18.265907 1.6515386e-20)
(49.911504 17.97603 -1.6413406e-20)
(50.251195 17.692488 -1.0899284e-20)
(50.577001 17.414629 1.6312584e-20)
(50.88889 17.141703 0)
(51.186646 16.872882 0)
(51.469869 16.607259 1.6463441e-20)
(51.737975 16.343855 -5.5373298e-21)
(51.990187 16.081613 -5.6030494e-21)
(52.225533 15.819386 -2.2762595e-20)
(52.442834 15.555925 5.8024754e-21)
(52.640694 15.289861 1.782928e-20)
(52.81749 15.019659 6.11588e-21)
(52.971341 14.743683 -1.2656176e-20)
(53.100005 14.460699 -6.5831726e-21)
(53.201373 14.164073 -2.7428958e-20)
(53.272346 13.862668 3.6021705e-20)
(53.311461 13.544538 7.7018323e-21)
(53.313143 13.208348 -8.2833079e-21)
(53.276777 12.855334 0)
(53.200179 12.480879 9.7644614e-21)
(53.08283 12.084989 -1.0733461e-20)
(52.927544 11.669266 0)
(52.742797 11.239472 5.25802e-20)
(52.545283 10.808076 -1.4455373e-20)
(52.359068 10.394547 -3.1256915e-20)
(52.206752 10.017993 -1.6507965e-20)
(52.097879 9.6857473 0)
(52.026591 9.3916455 -8.6737069e-20)
(51.979923 9.1242509 -3.4968337e-20)
(51.947302 8.874028 3.5078124e-20)
(51.921735 8.6354959 -5.2623866e-20)
(51.899077 8.4055981 -7.0039895e-20)
(51.877589 8.182594 0)
(51.856541 7.9659102 7.4996284e-24)
(51.835389 7.7549365 1.7290766e-20)
(51.814359 7.5494583 -1.3746878e-19)
(51.793566 7.349311 -1.7060812e-20)
(51.772223 7.1542935 -1.3541506e-19)
(51.750954 6.9640311 1.3423382e-19)
(51.729866 6.7784476 -1.3297477e-19)
(51.708607 6.5976128 2.6325564e-19)
(51.687059 6.4209182 -1.3021968e-19)
(51.665478 6.2485474 1.2874459e-19)
(51.644204 6.0801634 1.2722001e-19)
(51.622611 5.9157787 -1.0995643e-19)
(51.601268 5.7550886 -1.5508035e-20)
(51.580056 5.5981265 -1.224408e-19)
(51.558435 5.4446449 1.2079126e-19)
(51.53708 5.2945592 -1.3401064e-19)
(51.515883 5.1477944 7.3392453e-21)
(51.494371 5.0043244 7.2330837e-21)
(51.47317 4.8638845 2.2803452e-19)
(51.451987 4.7267299 0)
(51.430877 4.5923078 -2.2114082e-19)
(51.410192 4.4606923 6.802599e-21)
(51.389433 4.3318324 2.142204e-19)
(51.368892 4.2057151 2.1076571e-19)
(51.348817 4.0822129 -6.4785679e-21)
(51.328897 3.9611972 -4.0776563e-19)
(51.309303 3.842617 2.0047108e-19)
(51.290129 3.7263649 0)
(51.271016 3.6123481 1.9372156e-19)
(51.252306 3.5006189 1.844471e-19)
(51.233904 3.3909196 5.8471156e-21)
(51.215602 3.2834167 1.781146e-19)
(51.197553 3.1777908 5.6451574e-21)
(51.179817 3.0742408 0)
(51.162533 2.9722896 2.2724401e-24)
(51.145482 2.8723634 5.3508469e-21)
(51.128657 2.7739566 -3.415818e-19)
(51.112176 2.6773543 -6.6055404e-19)
(51.096258 2.5822433 3.2936938e-19)
(51.080722 2.4887576 -4.9751216e-21)
(51.065474 2.3965955 -6.2519541e-19)
(51.050729 2.3059103 3.020761e-19)
(51.036269 2.2166252 9.4133055e-21)
(51.022168 2.1284816 5.1626126e-26)
(51.00849 2.0415417 4.8793919e-26)
(50.995025 1.9558135 2.8036243e-19)
(50.981956 1.8711804 2.8388172e-19)
(50.969317 1.7874445 -4.2882789e-21)
(50.956945 1.7048143 2.6918252e-19)
(50.945154 1.6229318 -2.0635922e-21)
(50.933821 1.5418753 2.6323003e-19)
(50.922856 1.4615852 5.0463315e-19)
(50.9124 1.3818824 3.8985925e-21)
(50.902353 1.3028425 -3.8249633e-21)
(50.892808 1.2242132 -1.3260694e-26)
(50.883695 1.1461069 -4.7122497e-19)
(50.875036 1.0682466 4.6407894e-19)
(50.866854 0.99075185 -4.5348382e-19)
(50.859171 0.91336012 -4.4484281e-19)
(50.851937 0.83614977 2.6581152e-24)
(50.845218 0.75881704 4.2802055e-19)
(50.838994 0.68152293 0)
(50.833312 0.60383155 4.1178999e-19)
(50.828093 0.52599877 4.0467513e-19)
(50.823546 0.44734178 2.4980916e-27)
(50.819379 0.36852017 -3.8926342e-19)
(50.816109 0.28814679 0)
(50.813088 0.20799172 -3.7366283e-19)
(50.811431 0.12486741 8.946438e-23)
(50.809897 0.042996104 -8.7567408e-23)
(36.006316 26.223066 0)
(36.838486 25.825059 -4.2509286e-21)
(37.649568 25.479594 8.2390413e-21)
(38.435261 25.128124 -7.99042e-21)
(39.193009 24.765775 -1.5505885e-20)
(39.921873 24.39615 2.2607516e-20)
(40.622046 24.023189 7.3295054e-21)
(41.29436 23.649593 -1.4277736e-20)
(41.940068 23.277456 6.9582003e-21)
(42.560702 22.908483 -1.3583189e-20)
(43.157965 22.543999 -1.3270886e-20)
(43.733612 22.184928 6.4908032e-21)
(44.289331 21.831814 -1.2707288e-20)
(44.826623 21.484859 0)
(45.346695 21.144006 0)
(45.850407 20.809032 0)
(46.338259 20.479659 0)
(46.810428 20.155662 0)
(47.266882 19.836949 -1.1467532e-20)
(47.707535 19.523571 -1.132635e-20)
(48.132353 19.215661 -5.6011581e-21)
(48.541414 18.913375 -5.5465226e-21)
(48.934936 18.616814 -1.1009625e-20)
(49.313223 18.325929 0)
(49.676571 18.040495 -5.448281e-21)
(50.025192 17.760119 1.6308372e-20)
(50.359167 17.484275 0)
(50.678422 17.212319 0)
(50.982716 16.943508 5.4782241e-21)
(51.271632 16.677005 -5.518515e-21)
(51.544568 16.411882 1.1162066e-20)
(51.800732 16.147115 1.1322263e-20)
(52.039132 15.881577 -2.1863964e-24)
(52.258563 15.614025 0)
(52.457595 15.343079 -1.2098147e-20)
(52.634562 15.067189 0)
(52.787494 14.784779 1.942497e-20)
(52.913856 14.494462 6.2003277e-25)
(53.012603 14.189023 -1.0589589e-24)
(53.079951 13.87946 3.7218763e-20)
(53.113702 13.549841 -3.1940334e-20)
(53.108933 13.202996 -3.4431143e-20)
(53.065543 12.837869 0)
(52.981726 12.451068 0)
(52.858099 12.043306 0)
(52.699332 11.617615 -3.7269525e-20)
(52.51671 11.182147 -6.8554921e-20)
(52.329892 10.752263 -1.4972486e-20)
(52.163423 10.348462 -4.8082881e-20)
(52.03547 9.9862847 0)
(51.949107 9.6673168 0)
(51.89496 9.3823922 6.9605185e-20)
(51.860143 9.1203866 0)
(51.835937 8.8730934 -8.7619491e-20)
(51.816832 8.6362084 1.7505177e-20)
(51.7995 8.4073354 1.7467356e-20)
(51.782737 8.1850086 5.2209348e-20)
(51.766055 7.9688669 -1.3854626e-19)
(51.748959 7.7583048 1.3775673e-19)
(51.731787 7.553208 1.1972698e-19)
(51.714693 7.3533574 1.6975114e-20)
(51.696774 7.1586101 1.515095e-19)
(51.678794 6.9685734 1.3346137e-19)
(51.660869 6.7831561 -1.6524562e-20)
(51.642593 6.602505 -1.3077283e-19)
(51.62387 6.4259024 2.5867188e-19)
(51.604989 6.2536539 1.4382405e-19)
(51.586314 6.085326 -1.578688e-20)
(51.567151 5.920983 2.6503202e-19)
(51.548149 5.7603163 3.4451113e-25)
(51.529167 5.6033349 9.1103531e-20)
(51.509636 5.4498217 1.3479882e-19)
(51.490301 5.2996977 0)
(51.471042 5.1528613 0)
(51.451351 5.0093234 0)
(51.431937 4.86881 0)
(51.412437 4.7315728 0)
(51.392886 4.5970969 0)
(51.373736 4.4653729 2.0896849e-19)
(51.354451 4.3364191 6.6329373e-21)
(51.335325 4.210213 2.0881346e-19)
(51.316599 4.086625 0)
(51.29795 3.9655026 2.0195255e-19)
(51.279573 3.8468265 3.5923558e-24)
(51.261559 3.7304574 6.0996002e-21)
(51.243548 3.6163205 -5.9952541e-21)
(51.225894 3.5044795 -1.9443913e-19)
(51.208499 3.3946459 1.1579833e-20)
(51.191153 3.287026 -1.1375338e-20)
(51.174027 3.1812669 1.1178652e-20)
(51.157153 3.0776187 -1.7570453e-19)
(51.1407 2.9755365 2.3680935e-24)
(51.124455 2.8754813 -5.2970577e-21)
(51.108387 2.7769575 3.277306e-19)
(51.09264 2.6802392 3.3204133e-19)
(51.077417 2.5850214 0)
(51.062542 2.491419 3.1516665e-19)
(51.047921 2.3991483 3.0456574e-19)
(51.033794 2.3083528 4.7487681e-21)
(51.019908 2.2189556 0)
(51.00634 2.1307153 -4.5722013e-21)
(50.993195 2.0436543 -2.8271158e-19)
(50.980232 1.9578174 0)
(50.967625 1.8730898 -2.8093833e-19)
(50.955436 1.7892455 8.4806114e-21)
(50.943486 1.7065185 -5.4108105e-19)
(50.932088 1.6245507 4.084109e-21)
(50.921135 1.543392 -2.5647185e-19)
(50.910528 1.4630202 -2.5164339e-19)
(50.900411 1.3832268 -4.9379774e-19)
(50.890682 1.3041063 0)
(50.881437 1.2253899 0)
(50.872605 1.1472028 4.6445237e-19)
(50.864208 1.0692589 4.5920467e-19)
(50.856272 0.99168473 4.5046401e-19)
(50.848816 0.91421364 4.3672462e-19)
(50.841789 0.83692717 -4.300742e-19)
(50.835262 0.75951266 1.6543449e-21)
(50.829213 0.68214484 -8.1133581e-22)
(50.823686 0.6043799 -8.1489138e-19)
(50.818606 0.52647156 -7.8051878e-22)
(50.814179 0.44774452 -3.9194765e-19)
(50.810115 0.36884563 7.6843118e-19)
(50.806929 0.28840424 3.7736544e-19)
(50.803972 0.20817127 7.394362e-19)
(50.802358 0.12497037 3.6266807e-19)
(50.800843 0.043037836 3.5480169e-19)
(35.630784 25.527393 0)
(36.446857 25.203138 -3.9628845e-21)
(37.244997 24.919156 1.5428093e-20)
(38.022252 24.62552 -1.1270103e-20)
(38.775962 24.318938 7.3254419e-21)
(39.504669 24.002223 -7.1460865e-21)
(40.207995 23.678699 -6.977747e-21)
(40.886209 23.350849 1.3636614e-20)
(41.540001 23.020719 -6.6705189e-21)
(42.170369 22.690052 6.5298198e-21)
(42.778502 22.360278 1.9193142e-20)
(43.365683 22.032493 -1.8824741e-20)
(43.933188 21.707473 1.8481711e-20)
(44.482188 21.3857 -6.0550919e-21)
(45.013666 21.067417 0)
(45.528367 20.752705 0)
(46.026777 20.441556 1.1396102e-24)
(46.509149 20.133957 5.7103848e-21)
(46.97556 19.829951 5.6429538e-21)
(47.426012 19.529657 5.5839089e-21)
(47.860514 19.233235 5.534459e-21)
(48.279126 18.940852 5.4947079e-21)
(48.681986 18.652627 -1.0929748e-20)
(49.069275 18.368566 1.6326576e-20)
(49.441165 18.088528 5.4317691e-21)
(49.797763 17.812227 5.4302189e-21)
(50.139071 17.539238 0)
(50.464958 17.269011 0)
(50.775136 17.000885 1.6521307e-20)
(51.069153 16.734088 -1.6685026e-20)
(51.346375 16.467741 0)
(51.60598 16.200855 5.7307571e-21)
(51.846942 15.932321 1.7540907e-20)
(52.06802 15.6609 0)
(52.267742 15.385197 -6.1686336e-21)
(52.444403 15.103659 -6.0938714e-25)
(52.595937 14.814838 1.9917752e-20)
(52.719451 14.516867 2.0847673e-20)
(52.814952 14.202832 -7.2759759e-21)
(52.878267 13.884412 4.580226e-24)
(52.905963 13.543248 -4.6683775e-24)
(52.894362 13.185384 3.5852956e-20)
(52.843695 12.807889 0)
(52.752829 12.408799 -1.068098e-20)
(52.623798 11.989766 5.8866084e-20)
(52.463557 11.555673 1.2995279e-20)
(52.286472 11.117454 6.8650799e-25)
(52.114585 10.693041 -1.5457487e-20)
(51.971076 10.302281 8.1853117e-20)
(51.868117 9.9555457 5.8977502e-25)
(51.802938 9.6491854 -1.7281713e-20)
(51.764247 9.3724065 -6.9747282e-20)
(51.740049 9.1151111 6.9986463e-20)
(51.723597 8.8704411 7.0006999e-20)
(51.710668 8.6351237 1.3977124e-19)
(51.698549 8.4073174 0)
(51.68649 8.1857497 -6.9365892e-20)
(51.674196 7.9702557 0)
(51.661185 7.7602018 -2.7427165e-19)
(51.647909 7.5556047 -1.3616341e-19)
(51.634559 7.356139 -1.6884562e-20)
(51.620098 7.1617555 1.6737714e-20)
(51.605446 6.9720376 -1.3263844e-19)
(51.590728 6.7868589 1.4770971e-19)
(51.575471 6.6064709 -3.2472353e-20)
(51.559609 6.4300179 -1.1236788e-19)
(51.543466 6.2579634 -1.2690375e-19)
(51.527424 6.0897428 0)
(51.510721 5.9254927 -1.0828169e-19)
(51.494094 5.764902 -1.374e-19)
(51.477374 5.6079404 0)
(51.459962 5.4544377 -1.3367497e-19)
(51.44268 5.3043186 2.928497e-20)
(51.425389 5.157444 -1.4429948e-20)
(51.407549 5.0138737 0)
(51.389952 4.8733248 -2.2404027e-19)
(51.37217 4.7360232 -1.3787547e-20)
(51.354199 4.6015315 1.3571826e-20)
(51.336609 4.4697244 -2.136971e-19)
(51.318827 4.340705 2.1683053e-19)
(51.301141 4.2144349 4.4100031e-24)
(51.283785 4.0907816 -1.2712512e-20)
(51.266429 3.9695684 2.0625033e-19)
(51.249289 3.8508155 -1.9661816e-19)
(51.232454 3.7343431 0)
(51.215564 3.6201011 1.899536e-19)
(51.198985 3.5081633 1.8083424e-19)
(51.182614 3.398207 5.7319325e-21)
(51.166241 3.2904828 -1.8021574e-19)
(51.150058 3.1846019 1.7151804e-19)
(51.134062 3.0808658 1.8478674e-19)
(51.11845 2.978667 -1.7616065e-19)
(51.103028 2.8784904 -5.2428245e-21)
(51.087732 2.7798598 5.1485334e-21)