/*--------------------------------*- C++ -*----------------------------------*\
| =========                 |                                                 |
| \\      /  F ield         | OpenFOAM: The Open Source CFD Toolbox           |
|  \\    /   O peration     | Version:  2406                                  |
|   \\  /    A nd           | Website:  www.openfoam.com                      |
|    \\/     M anipulation  |                                                 |
\*---------------------------------------------------------------------------*/
FoamFile
{
    version     2.0;
    format      ascii;
    arch        "LSB;label=32;scalar=64";
    class       volScalarField;
    location    "0.021";
    object      k;
}
// * * * * * * * * * * * * * * * * * * * * * * * * * * * * * * * * * * * * * //

dimensions      [0 2 -2 0 0 0 0];

internalField   nonuniform List<scalar> 
8260
(
655.61565
634.34714
605.17974
569.3362
527.68695
481.04985
430.58942
377.77496
324.23757
271.45156
220.7384
173.22797
129.77815
91.051707
57.474632
29.792912
10.925575
3.3836295
1.6524764
1.1320951
0.85620065
0.69351232
0.59464748
0.52744624
0.48635393
0.46130036
0.44152179
0.42810891
0.41824168
0.41166974
0.40810192
639.93108
615.97112
585.47785
549.47757
508.52164
463.23034
414.55096
363.73367
312.23771
261.44159
212.51989
166.56388
124.42888
86.81275
54.156664
27.437691
9.5893296
3.0560852
1.5736328
1.1053606
0.84401252
0.68700804
0.59067832
0.52515881
0.48505386
0.46056787
0.44105912
0.42781027
0.41805566
0.41154537
0.4080198
616.82371
591.75527
561.19486
525.8519
486.1649
442.66623
396.15303
347.69664
298.56788
250.01743
203.14239
158.97142
118.34996
82.011722
50.433585
24.80551
8.3227063
2.7759997
1.526477
1.0921664
0.83818242
0.6837769
0.58864954
0.52399416
0.4843641
0.46017251
0.44080348
0.42762061
0.41792045
0.41143623
0.40792975
585.39197
560.40504
530.84502
497.12033
459.52449
418.50031
374.7259
329.12232
282.79265
236.86035
192.35859
150.25858
111.39457
76.537759
46.22701
21.882026
7.0713843
2.517884
1.4734658
1.0715073
0.8284687
0.67815401
0.58508666
0.52190713
0.48309984
0.45942978
0.44032163
0.42729067
0.41770946
0.41128713
0.40782728
546.061
522.24713
494.48936
463.13668
428.34174
390.43525
349.97171
307.72786
264.65248
221.74866
179.9809
140.26898
103.43717
70.293638
41.470027
18.670583
5.8571721
2.2773154
1.4213866
1.0523151
0.81987957
0.67340957
0.58216569
0.52020674
0.48207754
0.45881471
0.43992703
0.42700139
0.41751421
0.41113592
0.40771061
499.35604
477.5791
452.334
423.98415
392.58303
358.35361
321.7233
283.32367
243.95348
204.49577
165.83996
128.85457
94.35655
63.187452
36.109251
15.225208
4.7973884
2.0579521
1.3666755
1.0288357
0.80874791
0.66710178
0.57821178
0.51785103
0.48064173
0.45793436
0.43936634
0.42660261
0.41725792
0.41094827
0.40757764
446.10592
427.01568
404.85794
380.00994
352.46285
322.34993
289.97897
255.83994
220.58376
184.96845
149.79809
115.8851
84.044139
55.140578
30.120708
11.683642
3.8546745
1.8620988
1.3110571
1.004663
0.79759102
0.66108982
0.57456399
0.51567171
0.47931878
0.45708602
0.43883968
0.42620629
0.41699729
0.41074688
0.40742632
387.73634
371.69999
352.97695
331.93335
308.5197
282.79708
254.96768
225.38893
194.56751
163.13056
131.7836
101.27429
72.425935
46.109376
23.552824
8.2986989
3.0557514
1.699188
1.252849
0.97685643
0.78402886
0.6537905
0.57007674
0.51293398
0.47764397
0.45598372
0.43816892
0.42570626
0.41667739
0.41050626
0.40725434
326.12252
313.22163
298.01545
280.843
261.62737
240.37194
217.18847
192.31384
166.11711
139.09214
111.83476
85.017402
59.496226
36.129395
16.635252
5.6878812
2.4408356
1.56659
1.1920223
0.94740425
0.76963484
0.64647622
0.56572368
0.5102755
0.47601603
0.45484618
0.43750114
0.4251816
0.41633789
0.41024148
0.40705918
263.30451
253.39533
241.56517
228.11728
212.95866
196.04989
177.42675
157.2201
135.67435
113.15725
90.152545
67.246258
45.367591
25.421138
10.020925
3.8143523
1.9957796
1.4395485
1.1273426
0.91418023
0.75257841
0.63780457
0.56051007
0.50707453
0.47404725
0.4534325
0.43668731
0.42454396
0.41593116
0.40992994
0.40683759
201.44097
194.18676
185.44581
175.41099
163.98733
151.11166
136.76403
120.99172
103.93868
85.868362
67.16744
48.31557
30.418806
14.612203
5.6225117
2.630458
1.7163218
1.325245
1.0597082
0.87840017
0.73450786
0.62881584
0.55519654
0.5038872
0.47207382
0.45193861
0.4358449
0.42385562
0.41548492
0.40958178
0.40658522
142.60966
137.56784
131.47674
124.41453
116.27954
106.98552
96.473321
84.736912
71.860453
58.049122
43.646759
28.938222
15.60916
7.0350851
3.253484
1.9855632
1.5429673
1.2041578
0.99194204
0.83803272
0.71304871
0.61854282
0.54879879
0.50012079
0.46971633
0.45015509
0.43482176
0.42303736
0.4149501
0.4091746
0.4062657
88.821768
85.628196
81.702422
77.061141
71.619822
65.295513
58.021978
49.790359
40.697214
30.978642
21.148585
12.889446
6.8198086
3.5035616
2.1877251
1.6866808
1.3376306
1.0992089
0.91674639
0.79637755
0.6913383
0.60658658
0.54223372
0.49641676
0.46728252
0.44828708
0.43370973
0.42215004
0.41434806
0.40871622
0.40586426
42.534101
40.626578
38.339696
35.751344
32.796374
29.40627
25.569101
21.361828
16.925245
12.456067
8.3555854
5.1497127
3.1528118
2.1601936
1.7259452
1.433867
1.2061047
0.98537892
0.84839656
0.75012195
0.66515933
0.59384997
0.53431279
0.49216197
0.46436063
0.4461158
0.43234566
0.42112042
0.41363531
0.40818388
0.40539907
15.396751
14.675505
13.833437
12.882989
11.761548
10.452932
9.0450533
7.5904333
6.1093083
4.6717228
3.4058235
2.4504245
1.8950397
1.6240324
1.4666229
1.2334155
1.0249536
0.89397442
0.77809785
0.70390457
0.63782482
0.57839765
0.52738195
0.48774256
0.46126454
0.44377313
0.43085758
0.42001251
0.4128478
0.40758548
0.40488444
5.2073725
5.0324581
4.7954013
4.5162412
4.1872745
3.808511
3.3949711
2.9700938
2.5291112
2.1245195
1.7778733
1.5421136
1.4067881
1.3390533
1.1802606
1.0286598
0.91945499
0.80447001
0.72032451
0.65438735
0.6067032
0.56248695
0.51822172
0.48263646
0.45767251
0.44109581
0.42902059
0.41876322
0.41195706
0.40690076
0.40433949
2.0772726
2.0440754
1.987653
1.9128222
1.825011
1.7253281
1.6173903
1.5078319
1.3929634
1.3020185
1.2269884
1.1637316
1.128063
1.0159503
0.98157773
0.91215233
0.79713396
0.73341977
0.66528638
0.61390239
0.57514752
0.54325709
0.50920051
0.47706672
0.45377566
0.43819479
0.42714313
0.41744325
0.41098197
0.40614978
0.40372311
1.162516
1.1517255
1.1355365
1.1151656
1.0923166
1.0724614
1.0542843
1.0284324
1.0047147
0.97593708
0.97279866
0.95361162
0.87713544
0.83762985
0.79986802
0.7610065
0.7204758
0.65816967
0.61748766
0.57254576
0.54873461
0.52435598
0.49504409
0.47053734
0.44950161
0.43517337
0.42476157
0.41598018
0.4098947
0.40532607
0.40304387
0.86729055
0.86103844
0.85509664
0.84858389
0.84107924
0.83077438
0.81902113
0.80657097
0.79758509
0.7922335
0.77410192
0.74251809
0.73937636
0.70916126
0.67893395
0.67605385
0.64529064
0.61018888
0.57907038
0.54887082
0.5222577
0.50249793
0.48327862
0.4625923
0.44502953
0.43177692
0.42247765
0.41442952
0.40870777
0.40445747
0.40229841
0.69888484
0.69727496
0.69553149
0.6938874
0.6938945
0.69556101
0.69555093
0.69284361
0.6822649
0.66045995
0.64307771
0.63853925
0.62427594
0.6224308
0.60501091
0.57752755
0.57376644
0.55324832
0.54284231
0.51765602
0.49938916
0.4869397
0.46947513
0.45232875
0.44032043
0.42820655
0.41987565
0.412578
0.40745493
0.40352329
0.40151454
0.60519437
0.60496641
0.60358515
0.60005252
0.59429547
0.58585074
0.57931154
0.57524099
0.57186707
0.56903599
0.57065221
0.56887072
0.55729209
0.54685004
0.547767
0.52976995
0.51288579
0.50718028
0.50083718
0.49819675
0.48005071
0.46646033
0.45789199
0.44448756
0.43476286
0.42400674
0.41729248
0.41091013
0.40608336
0.40254087
0.40067824
0.52024441
0.52023957
0.51976309
0.51867443
0.51756282
0.51789487
0.51970603
0.52051803
0.51903568
0.5152713
0.51029271
0.50354431
0.50825777
0.49914455
0.49239408
0.49212352
0.48288589
0.47373348
0.46920233
0.46462082
0.4563843
0.45062031
0.44431336
0.4377226
0.42833252
0.42010358
0.41456078
0.40888456
0.40456157
0.40151459
0.39984474
0.47821409
0.4786465
0.47848941
0.47775999
0.47645615
0.4742993
0.47114792
0.46800542
0.4665017
0.46540245
0.46429716
0.46566781
0.46121326
0.46622269
0.46270854
0.46233179
0.4611167
0.45386703
0.45272853
0.4465433
0.44207293
0.4347809
0.43352441
0.43064833
0.42324595
0.41635605
0.41148996
0.40702932
0.4030689
0.40043744
0.39897036
0.44144145
0.44166677
0.44157932
0.44125856
0.44085866
0.44042601
0.43999701
0.44020176
0.44067567
0.44038953
0.43959682
0.43742929
0.43754641
0.43517427
0.43565952
0.43472466
0.43636256
0.43165489
0.43751819
0.43599985
0.43115683
0.42598418
0.42161696
0.42127807
0.41844934
0.41268061
0.40840384
0.40490753
0.40153136
0.39939499
0.39812512
0.42456185
0.42489636
0.42494042
0.42478912
0.42449634
0.4240384
0.42330652
0.42218899
0.42108229
0.42071537
0.42054183
0.42043978
0.42018644
0.42049803
0.42116661
0.42245625
0.42423473
0.42375465
0.42209133
0.42186142
0.42367901
0.41942687
0.41474511
0.41290018
0.41270945
0.40978148
0.40540525
0.4029901
0.40034155
0.39835487
0.39731518
0.41021402
0.41032383
0.41028191
0.41014949
0.41000128
0.40986502
0.40976026
0.40974321
0.4099977
0.41039125
0.41074111
0.41084324
0.41065678
0.41043291
0.41072586
0.41180718
0.41206708
0.41403289
0.41407674
0.41184283
0.41004676
0.41265136
0.40995591
0.40735032
0.40675569
0.40582539
0.40299222
0.40125405
0.39907997
0.39746518
0.39659079
0.40372728
0.40380287
0.40375652
0.40362057
0.40344866
0.403284
0.40315263
0.40307436
0.40305055
0.40304277
0.4030521
0.40313418
0.40348488
0.40415712
0.40488552
0.40512996
0.40569718
0.40590146
0.40603673
0.4061188
0.40491183
0.4049202
0.40550356
0.40435997
0.40276768
0.40259355
0.40147168
0.39945951
0.39796819
0.39678509
0.39611837
0.39911087
0.3991595
0.39917753
0.3991881
0.39921086
0.39924693
0.39929111
0.39934415
0.39941764
0.39953687
0.39974273
0.40013865
0.40075631
0.401276
0.40155644
0.40184685
0.40174675
0.4021186
0.40206099
0.40207864
0.40255575
0.40188973
0.40170082
0.40204268
0.4008826
0.4002184
0.39946417
0.39835346
0.39731384
0.39640839
0.39587073
0.3973597
0.39739362
0.39741455
0.39743487
0.39746339
0.39750034
0.39754444
0.39759779
0.39766841
0.39777028
0.39792105
0.3981247
0.3984202
0.39877485
0.39899331
0.39923477
0.39962001
0.39971362
0.3998081
0.39974923
0.39994996
0.40001604
0.39975929
0.39945792
0.39968443
0.39892605
0.39841398
0.39773059
0.3969288
0.39624468
0.39575219
0.39661502
0.39663632
0.39665623
0.39668096
0.39671343
0.39675295
0.39679855
0.39685213
0.39691966
0.39701176
0.39714336
0.39734824
0.3976309
0.39793393
0.39806253
0.3980476
0.39807989
0.39812494
0.39818064
0.39831403
0.39848735
0.39832417
0.39867055
0.39844918
0.39855639
0.39830548
0.3979179
0.39746107
0.3968234
0.39631915
0.39614021
0.39660675
0.39660046
0.39659981
0.39660665
0.3966212
0.39664307
0.3966721
0.3967092
0.39675732
0.39682365
0.39693119
0.39713268
0.39741121
0.39753081
0.39757734
0.39758444
0.39758793
0.39760613
0.39762986
0.39766295
0.39797825
0.39781172
0.39803966
0.39810869
0.3981067
0.39803506
0.39780766
0.39748404
0.39730122
0.39710485
0.39697175
77.220802
141.73066
224.66574
303.91365
364.82189
402.45546
416.82357
411.70622
391.94861
355.83317
312.15837
264.42609
215.69808
168.48776
124.64905
85.412367
51.600471
25.080633
9.1912793
2.980107
1.3444101
0.89782122
0.71119743
0.59318563
0.52293285
0.48057204
0.45340828
0.43587075
0.42339579
0.41537925
0.41108312
166.9425
255.46699
327.55885
379.31214
412.3792
427.09579
425.50173
412.29454
382.70461
343.43549
298.76589
251.44809
203.98002
158.43269
116.36519
78.832011
46.595461
21.79495
7.5861956
2.5502292
1.2315123
0.86239308
0.69560519
0.58469338
0.51857556
0.47844533
0.45226175
0.43525625
0.42305304
0.41518742
0.41100003
249.52731
316.97952
371.27797
410.30492
432.09225
437.29222
428.73726
406.56364
372.60451
331.6099
286.50622
239.72817
193.43058
149.37469
108.89083
72.89422
42.129875
19.013881
6.4441278
2.2113496
1.1621357
0.84606091
0.68812051
0.58049979
0.51635487
0.47731184
0.45158458
0.43486891
0.42281012
0.4150297
0.41089586
320.47935
374.51817
414.43195
438.80591
447.64116
443.47209
428.12044
399.41959
362.64067
320.43918
275.18053
229.02335
183.84025
141.14946
102.09984
67.50155
38.11025
16.623848
5.5086467
1.9903386
1.1094068
0.82372049
0.67651102
0.5739337
0.51291126
0.47560226
0.45062466
0.43433922
0.42250438
0.41484951
0.41078041
373.53767
414.70128
442.36916
456.09607
456.86325
446.48771
423.66962
391.55682
352.88199
309.88102
264.6807
219.20208
175.08414
133.65141
95.908293
62.584606
34.478274
14.530104
4.727387
1.7814706
1.0637839
0.80826316
0.66874839
0.56961962
0.5106432
0.47445815
0.44993376
0.43393993
0.4222557
0.41468774
0.41066329
415.03639
446.03529
463.80413
468.65655
463.18253
446.03486
418.50617
383.69018
343.53
299.99902
254.99191
210.20913
167.09434
126.81521
90.258684
58.086148
31.19745
12.684334
4.0808919
1.6392261
1.027578
0.79146253
0.65943095
0.56432428
0.50782257
0.47304224
0.44910662
0.4334695
0.42197539
0.41451403
0.41054382
447.50626
469.8008
479.37921
477.82591
466.00646
443.51011
412.86527
375.99222
334.71845
290.86055
246.12152
202.01629
159.82789
120.59529
85.107695
53.978898
28.236381
11.076819
3.5550359
1.5116049
0.99623481
0.77792711
0.65211793
0.56028931
0.5056817
0.47195851
0.4484405
0.43307634
0.42172921
0.41435086
0.41042348
473.11556
488.10665
491.07151
484.64637
466.93321
440.57733
407.28347
368.72241
326.58502
282.52495
238.07798
194.60378
153.25275
114.95642
80.420937
50.231542
25.563777
9.6906291
3.1347999
1.4196894
0.9701037
0.76458027
0.6443931
0.55593883
0.50333419
0.47076406
0.44771956
0.43265193
0.42146904
0.41418183
0.41030195
493.70045
502.52465
500.49701
488.79703
466.87063
437.44674
401.98488
362.05301
319.22908
275.03329
230.86452
187.95408
147.34272
109.87103
76.181216
46.822125
23.169965
8.5100277
2.8079459
1.3453947
0.94731814
0.75314455
0.63784322
0.55235165
0.50140614
0.46977393
0.44710183
0.43227585
0.42123046
0.41401917
0.41017953
510.84586
514.46271
508.27542
491.60481
466.44068
434.49371
397.21425
356.1284
312.72397
268.41213
224.47935
182.05042
142.07524
105.31637
72.377598
43.752843
21.035154
7.5158363
2.5387976
1.2891956
0.92775472
0.74241383
0.63138608
0.54875607
0.49944463
0.46875532
0.44647336
0.4318902
0.4209875
0.41385408
0.41005617
525.6974
524.95555
514.54117
494.02625
466.14846
432.00879
393.15038
351.05111
307.11969
262.67682
218.9171
176.87661
137.43015
101.27466
68.986788
41.00541
19.138678
6.6885747
2.3345138
1.2434009
0.91060523
0.73304717
0.62573073
0.54566693
0.49776423
0.46787129
0.44591755
0.43153742
0.42075925
0.41369321
0.40993196
538.66396
534.3896
519.93528
496.51027
466.257
430.17074
389.91936
346.89283
302.44978
257.83528
214.17049
172.41689
133.38812
97.737066
65.986221
38.560035
17.472055
6.0092575
2.1700801
1.2073831
0.89581216
0.72454902
0.6203917
0.54270593
0.49613359
0.46700052
0.44537434
0.43118683
0.42053174
0.41353192
0.40980691
550.57613
543.02049
525.26315
499.3187
466.82274
429.11656
387.61039
343.70581
298.73779
253.89136
210.23178
168.65787
129.93902
94.674252
63.352266
36.404224
16.020149
5.4578399
2.0467167
1.1784858
0.88298163
0.71716376
0.61568339
0.5401159
0.49470733
0.46622694
0.4448871
0.43086095
0.42031509
0.41337379
0.40968109
561.8435
551.21996
530.81606
502.63324
468.06915
428.98244
386.28412
341.5264
296.0057
250.85825
207.1036
165.60822
127.06757
92.061811
61.067673
34.51792
14.768266
5.0171931
1.9545708
1.1558144
0.87205506
0.71067333
0.61138676
0.53771417
0.4933671
0.46548836
0.44442396
0.43054368
0.42010185
0.41321638
0.40955454
573.14593
559.59239
536.89374
506.72354
470.51686
429.71836
386.04514
340.43254
294.30057
248.78379
204.81294
163.25615
124.76176
89.903677
59.134596
32.877564
13.700599
4.6723653
1.8890008
1.1382554
0.86284897
0.70515674
0.60763676
0.53561422
0.49218619
0.46482769
0.44400665
0.43024685
0.41989747
0.41306192
0.40942712
584.98666
568.86607
544.02007
511.95277
474.12302
431.96972
386.91746
340.51809
293.68783
247.64983
203.33969
161.58064
123.02097
88.198177
57.552993
31.475035
12.802559
4.4132701
1.8399078
1.1246709
0.85531401
0.70050593
0.60433182
0.53373035
0.49110405
0.4642137
0.44361786
0.42996203
0.41969814
0.41290933
0.40929856
596.92049
578.97887
552.30278
518.49275
479.06343
435.50462
389.20979
341.6333
294.02286
247.40608
202.64475
160.58723
121.84383
86.945221
56.322977
30.329251
12.078747
4.2028216
1.7955821
1.1142416
0.84936905
0.69672992
0.60152422
0.53211448
0.49015395
0.46366791
0.44326768
0.42969535
0.41950664
0.41275947
0.40916888
605.35286
586.88035
559.4959
524.80318
484.39529
439.79478
392.48864
343.9118
295.38172
247.98967
202.72568
160.27864
121.23413
86.147362
55.444606
29.448261
11.511095
4.0345692
1.7607677
1.1071647
0.84499511
0.69375917
0.59916447
0.53072684
0.48930566
0.4631748
0.44294649
0.42944245
0.4193211
0.41261182
0.40903814
612.77457
593.38348
565.54358
530.53021
489.6851
444.49346
396.47809
347.11123
297.76127
249.60494
203.64946
160.62094
121.19767
85.810455
54.919843
28.835367
11.085138
3.9006957
1.7324118
1.1030749
0.84218898
0.69157064
0.59727166
0.52959021
0.48857479
0.4627449
0.44265886
0.42920646
0.41914315
0.41246686
0.40890644
622.00099
601.30035
572.58413
537.01526
495.7152
450.01804
401.38393
351.27298
301.1014
252.12554
205.40651
161.73312
121.75277
85.920106
54.752669
28.492866
10.791296
3.7952823
1.7104759
1.1019506
0.84098094
0.69012273
0.59582768
0.52868849
0.4879491
0.46237104
0.44239996
0.42898523
0.41897198
0.41232431
0.40877386
631.10745
609.72132
580.43321
544.41457
502.69326
456.53386
407.31108
356.47049
305.44792
255.5867
208.0089
163.56474
122.91647
86.547121
54.943863
28.423341
10.62599
3.7116709
1.6935736
1.1036572
0.84140569
0.68942382
0.5948484
0.52803448
0.48743836
0.4620583
0.44217201
0.42878006
0.41880835
0.41218423
0.40864041
639.77416
618.22739
588.81466
552.63939
510.65607
464.10959
414.33437
362.75544
310.85215
260.03047
211.48812
166.1453
124.70352
87.672286
55.530726
28.643672
10.594365
3.6425024
1.680968
1.1084216
0.84348225
0.68951465
0.59432936
0.52762052
0.48703705
0.46180139
0.44197156
0.42858889
0.41865129
0.41204606
0.40850618
647.61372
626.15968
597.06973
561.22684
519.44989
472.73379
422.46626
370.16154
317.34896
265.49127
215.87598
169.5048
127.13608
89.316141
56.511315
29.171199
10.690983
3.5763508
1.6714727
1.1156627
0.84714748
0.69045177
0.59425111
0.52743641
0.48674156
0.46159655
0.44179672
0.42841053
0.41850024
0.41190951
0.40837118
653.28992
632.11419
603.52605
568.19932
526.8359
480.31329
429.9025
377.15087
323.66853
270.95146
220.374
173.03004
129.74855
91.132633
57.63916
29.822104
10.911212
3.4921554
1.6641122
1.1247482
0.85213015
0.69204156
0.59441206
0.52744033
0.48653101
0.46143119
0.44164193
0.42824243
0.41835437
0.41177461
0.40823549
77.013428
133.69661
210.92747
287.07361
348.55447
389.42192
408.22238
407.16436
390.58349
357.2109
315.39684
268.6544
220.20121
172.81026
128.51545
88.679408
54.180632
26.762568
9.9495394
3.1541776
1.3801037
0.91005127
0.71690145
0.59644333
0.52469991
0.48150254
0.45395232
0.43617576
0.42358595
0.4155018
0.41112724
77.444381
130.45385
204.18256
278.02808
338.78255
380.24273
400.56239
401.32753
386.63296
355.3368
314.57306
268.59404
220.76309
173.73586
129.59458
89.76341
55.197656
27.542371
10.357085
3.266596
1.4031051
0.91810504
0.72075761
0.59877807
0.52600964
0.48208287
0.45429777
0.43637677
0.42371534
0.41559364
0.41117205
78.367223
127.73473
197.29787
268.70662
328.64871
370.65789
392.46257
395.07171
381.953
352.6288
313.34965
268.42905
221.28355
174.66193
130.70063
90.888854
56.258657
28.366785
10.800868
3.3909128
1.4284577
0.92631005
0.72457689
0.60099934
0.52722313
0.48282549
0.45472703
0.43660992
0.42386151
0.41568456
0.41123548
79.77316
125.30251
190.56159
259.2887
318.27204
360.71963
383.93515
388.37916
376.92594
349.61201
311.90567
268.123
221.74103
175.57528
131.82657
92.053398
57.361569
29.241561
11.282184
3.5299203
1.4568199
0.93600664
0.72910784
0.60387095
0.52885513
0.48342008
0.45508621
0.43682719
0.42400401
0.41578945
0.41131189
82.01535
123.66012
184.29679
250.00837
307.78265
350.48547
374.99836
381.24496
371.52093
346.26228
310.21278
267.66013
222.11742
176.46415
132.96594
93.254719
58.503287
30.169508
11.801008
3.6841183
1.4880839
0.94460797
0.73300713
0.60608395
0.53007588
0.48431895
0.45559907
0.43710174
0.42417444
0.41589802
0.41137202
84.562623
122.26085
178.31294
240.82209
297.18943
339.98259
365.67315
373.67446
365.71999
342.55806
308.2448
267.01573
222.39282
177.31515
134.11068
94.48907
59.6849
31.151011
12.351998
3.8590949
1.5239933
0.95640948
0.73835322
0.60952268
0.53202452
0.48518194
0.45609614
0.43737794
0.42434879
0.41601353
0.41141731
88.287652
121.97882
173.07965
232.07948
286.72753
329.3494
356.0275
365.68737
359.49975
338.49031
305.97963
266.16835
222.54864
178.11806
135.25626
95.75608
60.919125
32.190533
12.949253
4.0519413
1.5636024
0.96755384
0.74331555
0.61263862
0.5338146
0.4861106
0.45663009
0.43767174
0.42453308
0.41613623
0.4114711
92.592556
122.31804
168.46243
223.70621
276.37175
318.58862
346.07584
357.30181
352.90959
334.02565
303.40677
265.10616
222.56561
178.86827
136.40322
97.058839
62.200311
33.285632
13.614353
4.2674725
1.6076028
0.97936408
0.74847669
0.61593506
0.53572853
0.48711304
0.45720187
0.4379854
0.4247297
0.41626587
0.41156017
97.937928
123.43346
164.80474
215.99973
266.33498
307.84244
335.90386
348.55488
345.92249
329.1636
300.49661
263.79985
222.4672
179.54518
137.53344
98.381781
63.524124
34.438936
14.335431
4.5083302
1.6566375
0.99186855
0.75387411
0.61937942
0.53777091
0.48818891
0.45781611
0.43831836
0.42493612
0.41640257
0.41168641
103.85762
125.37064
161.87356
208.94588
256.70161
297.20786
325.58664
339.48881
338.55596
323.89553
297.23156
262.22672
222.19439
180.13162
138.63547
99.717529
64.88651
35.657583
15.115958
4.7777752
1.7114165
1.0050622
0.7593773
0.62297986
0.53994008
0.48934792
0.45847445
0.4386748
0.42515756
0.41654609
0.4117995
110.53123
128.42088
160.13042
202.8058
247.64859
286.81557
315.21708
330.15802
330.85009
318.21741
293.5983
260.3646
221.70616
180.60842
139.69658
101.05819
66.282107
36.931
15.96209
5.079927
1.7727172
1.0189403
0.76515338
0.62672284
0.54226456
0.49059267
0.4591816
0.43905268
0.42538752
0.41669781
0.41190518
117.49773
132.15607
159.13831
197.47574
239.22453
276.76414
304.89146
320.63327
322.85129
312.14008
289.58994
258.19708
221.00392
180.95781
140.7031
102.395
67.705331
38.249219
16.850059
5.4158096
1.8413587
1.0335637
0.77083068
0.63052057
0.54468747
0.49192283
0.45993952
0.43945758
0.42563604
0.41685745
0.41201568
124.47207
136.49386
159.35753
193.34241
231.68713
267.23113
294.73607
311.01504
314.60275
305.69677
285.20998
255.71341
220.07038
181.16028
141.64054
103.71827
69.150296
39.610256
17.774693
5.7897441
1.9182733
1.0487336
0.77675997
0.63448773
0.54731365
0.49335953
0.46075078
0.439886
0.42589018
0.41702517
0.41213301
130.98834
140.7426
160.10106
190.05211
225.01592
258.32536
284.91221
301.39179
306.15834
298.93286
280.47823
252.91211
218.89133
181.18005
142.49354
105.0175
70.61039
41.00924
18.752407
6.20474
2.0046048
1.0648801
0.78241789
0.63830389
0.54995628
0.49487164
0.46162049
0.44034457
0.42616752
0.41720061
0.41225565
136.54811
144.90573
161.45447
187.78857
219.33976
250.19313
275.55637
291.91821
297.58521
291.93371
275.42658
249.80252
217.46637
181.07735
143.25406
106.28225
72.078178
42.439892
19.780831
6.6656843
2.1016591
1.0812935
0.7879216
0.64231382
0.55286466
0.49652405
0.46254455
0.44082871
0.42644566
0.41738239
0.41238374
141.09836
148.61221
163.35938
186.6617
214.82376
243.02563
266.84109
282.76689
289.01758
284.77774
270.11124
246.40748
215.7977
180.79657
143.91006
107.50229
73.545902
43.894914
20.867304
7.1669606
2.2108625
1.0990824
0.79353158
0.64601744
0.55568454
0.49823521
0.4635365
0.44134489
0.42675205
0.41757279
0.41251724
145.25147
152.43183
166.04892
186.77885
211.6234
236.97914
258.9307
274.11033
280.61378
277.57215
264.60631
242.7674
213.89509
180.30943
144.44934
108.66817
75.007332
45.37004
22.015571
7.7358094
2.3342967
1.1173677
0.79784113
0.64964248
0.55873705
0.50010643
0.46457646
0.44188729
0.42705338
0.41776657
0.41265467
150.00111
157.28864
169.71005
187.73668
209.59333
232.11035
251.97611
266.12006
272.55052
270.44934
259.00487
238.938
211.784
179.6466
144.86672
109.7719
76.457063
46.866942
23.236665
8.356884
2.4733668
1.1366544
0.80307444
0.65327844
0.56176239
0.50205508
0.46569493
0.44246169
0.42738722
0.4179719
0.4127944
157.08909
163.92744
174.90899
190.47143
209.44822
228.69909
246.15608
258.95519
265.00382
263.55238
253.41405
234.98591
209.49774
178.81849
145.15981
110.80522
77.884268
48.38502
24.510038
9.0054554
2.6305845
1.1588707
0.80690722
0.65600923
0.56462601
0.50407483
0.46683976
0.44305878
0.42771249
0.41817632
0.41293567
167.15753
172.68021
181.83877
194.67536
210.14772
226.46899
241.45768
252.69084
258.10884
257.01069
247.93837
230.98535
207.07939
177.84159
145.32919
111.75903
79.274804
49.900898
25.818466
9.7159525
2.8083174
1.1832792
0.80954025
0.65925018
0.56796351
0.5063111
0.46807054
0.44368733
0.42807131
0.41839624
0.4130776
179.9531
183.53957
190.20355
199.948
212.06043
225.37859
237.80993
247.32314
251.93414
250.91786
242.66764
227.0059
204.57155
176.73095
145.35326
112.62213
80.617652
51.406171
27.156363
10.493894
3.012877
1.2124267
0.81526627
0.66157704
0.57032828
0.50832242
0.46928317
0.44433115
0.42842652
0.41860804
0.41321918
194.97578
196.41684
200.22834
206.69667
215.46715
225.58239
235.27057
242.87699
246.51748
245.33134
237.66536
223.10226
202.01159
175.50951
145.28983
113.39242
81.903449
52.890607
28.506887
11.309853
3.2435573
1.2455917
0.81691574
0.66298299
0.57372919
0.51079256
0.47057506
0.44500453
0.42880628
0.41883328
0.41335886
212.11255
211.43474
212.15487
215.02736
220.08085
226.67891
233.6531
239.27304
241.82762
240.25954
232.95862
219.30487
199.42328
174.19007
145.1137
114.06485
83.124898
54.348522
29.866855
12.155276
3.5011093
1.2829648
0.81931343
0.6656892
0.5759633
0.5127206
0.47181211
0.44569405
0.42919794
0.41904201
0.41349511
229.74465
227.38619
225.69872
225.28123
226.53757
229.47264
233.51944
236.68265
237.88233
235.6861
228.53493
215.61002
196.8057
172.76463
144.7896
114.62556
84.273663
55.776294
31.245689
13.066616
3.795702
1.3276233
0.82714093
0.66632148
0.57829253
0.51503537
0.47307916
0.44638443
0.42958133
0.41925388
0.41362538
244.20535
241.72856
238.83592
236.14822
234.38701
233.86067
234.31799
235.07572
234.66884
231.58197
224.35256
211.9791
194.12833
171.21032
144.3206
115.06025
85.338336
57.167462
32.632623
14.062678
4.1436434
1.379758
0.83056618
0.66695321
0.58138068
0.5170175
0.47434946
0.44712152
0.42999062
0.41945405
0.41374729
250.74378
249.49582
247.213
244.19536
240.97411
238.12093
235.93408
234.22025
231.97767
227.82468
220.3206
208.33625
191.33047
169.48192
143.67388
115.34971
86.30315
58.512377
34.031779
15.119223
4.5429956
1.4430202
0.8361619
0.6700452
0.58240704
0.51847477
0.47547275
0.44775273
0.43034102
0.41963628
0.41385707
249.7821
249.66237
248.44187
246.12002
242.96981
239.44384
236.01922
232.88157
229.19658
224.05391
216.21414
204.5292
188.30259
167.49707
142.7759
115.3809
87.127233
59.79278
35.426397
16.22772
4.9927705
1.5213307
0.84484058
0.67091273
0.58467891
0.52050062
0.47680632
0.44846438
0.43071237
0.41983323
0.41395128
244.27259
245.7819
245.82091
244.38518
241.86457
238.4578
234.61818
230.358
225.60479
219.72078
211.65935
200.31102
184.88025
165.14738
141.57692
115.2592
87.802968
60.993045
36.809861
17.393409
5.5126782
1.6169027
0.85690337
0.67243507
0.58628657
0.52107257
0.47767022
0.44896228
0.43101679
0.41998179
0.41402544
230.73163
234.48057
237.07751
237.96385
236.85377
234.16335
230.26003
225.54942
220.38951
214.26707
206.29025
195.4449
180.90554
162.33098
140.01015
114.88507
88.302993
62.093765
38.16775
18.601876
6.0939093
1.7308609
0.87279319
0.6753598
0.58643246
0.52221387
0.47876902
0.44942715
0.43132438
0.42014384
0.41407627
214.188
218.1594
221.4585
223.6111
224.37472
223.54744
221.18374
217.63668
213.092
207.38063
199.8977
189.79301
176.28869
158.9755
137.99374
114.10458
88.555519
63.064185
39.482907
19.845822
6.7496785
1.8672532
0.89251784
0.67819306
0.58804341
0.52292614
0.4795337
0.44981729
0.43156209
0.42023747
0.41409911
199.59219
203.191
206.37041
208.81654
210.24129
210.5123
209.5462
207.36266
203.96734
199.15732
192.52529
183.38942
171.05647
155.08797
135.52738
112.97301
88.5305
63.87643
40.734833
21.109479
7.4893035
2.0301861
0.91647178
0.68546745
0.58828138
0.52248448
0.47965978
0.44992691
0.43176543
0.42032355
0.41409046
189.29271
192.08429
194.59781
196.65001
198.03704
198.60647
198.26902
196.90558
194.40839
190.52007
184.80171
176.66938
165.5046
150.87139
132.73242
111.55912
88.360324
64.545959
41.909996
22.373537
8.2981984
2.2221876
0.94449471
0.69113039
0.58772392
0.52237214
0.47967082
0.44992352
0.43186997
0.42036552
0.41404635
184.52657
186.48058
188.16452
189.45052
190.25018
190.45631
189.94637
188.62272
186.33895
182.8146
177.64768
170.27203
160.08561
146.63905
129.81397
109.96476
87.95615
65.067649
42.999908
23.622594
9.1666089
2.445474
0.97664072
0.69728769
0.5878379
0.52209597
0.47937559
0.44982308
0.43185195
0.4203543
0.41396504
184.21787
185.68603
186.83167
187.57001
187.8052
187.42207
186.30704
184.37323
181.49641
177.5361
172.19272
164.97958
155.32863
142.74827
127.01851
108.34921
87.444972
65.47819
44.010464
24.843094
10.090794
2.7027285
1.0123841
0.70463352
0.58763729
0.52020658
0.47831711
0.44953612
0.43178752
0.42031857
0.41384824
186.32678
187.356
188.08087
188.4683
188.42808
187.73103
186.29332
183.91932
180.46694
175.79586
169.68827
161.90769
152.08482
139.78651
124.72065
106.94629
86.989482
65.857694
44.967682
26.036613
11.064481
2.9977017
1.0511155
0.71064609
0.58610308
0.51832975
0.4777915
0.44925021
0.43164213
0.42021536
0.41370018
189.05677
190.24206
191.02714
191.36299
191.10316
190.13922
188.27115
185.40442
181.43082
176.26261
169.68696
161.34137
150.95586
138.35958
123.40947
106.0989
86.829101
66.301758
45.904702
27.205975
12.057783
3.3391354
1.0934693
0.71305471
0.5837039
0.51752462
0.47625381
0.44846976
0.43129093
0.42007609