/*--------------------------------*- C++ -*----------------------------------*\
| =========                 |                                                 |
| \\      /  F ield         | OpenFOAM: The Open Source CFD Toolbox           |
|  \\    /   O peration     | Version:  2406                                  |
|   \\  /    A nd           | Website:  www.openfoam.com                      |
|    \\/     M anipulation  |                                                 |
\*---------------------------------------------------------------------------*/
FoamFile
{
    version     2.0;
    format      ascii;
    arch        "LSB;label=32;scalar=64";
    class       volScalarField;
    location    "0.021";
    object      p;
}
// * * * * * * * * * * * * * * * * * * * * * * * * * * * * * * * * * * * * * //

dimensions      [1 -1 -2 0 0 0 0];

internalField   nonuniform List<scalar> 
8260
(
101042.77
100963.44
100917.7
100862.26
100811.68
100775.19
100755.13
100751.08
100761.76
100785.29
100822.05
100869.71
100925.52
100986.06
101047.55
101111.87
101152.26
101183.32
101208.97
101230.39
101248.98
101265.2
101279.32
101291.52
101302.01
101310.67
101318.17
101323.89
101328.65
101331.51
101333.5
101200.53
101130.81
101062.93
100990.38
100927.1
100878.77
100846.62
100831.16
100830.45
100843.49
100870.58
100909.91
100958.2
101012.98
101066.56
101124.58
101160.46
101191.49
101215.43
101235.49
101253.02
101268.42
101281.89
101293.58
101303.67
101312.02
101319.29
101324.82
101329.44
101332.21
101334.14
101306.82
101243.07
101168.66
101089.46
101019.79
100964.06
100923.46
100899.43
100890.52
100894.05
100913.28
100945.66
100988.03
101038.83
101086.83
101140.41
101170.97
101201.37
101223.01
101241.41
101257.72
101272.15
101284.87
101295.97
101305.6
101313.57
101320.57
101325.88
101330.35
101333.01
101334.87
101394.07
101334.24
101260.32
101179.45
101106.12
101044.98
100997.5
100965.29
100948.17
100944.48
100956.46
100982.23
101019.09
101066.06
101109.21
101157.9
101183.86
101212.53
101231.62
101248.16
101263.07
101276.42
101288.27
101298.7
101307.79
101315.35
101322.02
101327.1
101331.38
101333.92
101335.71
101469.36
101413.61
101343.21
101264.03
101189.87
101125.72
101073.34
101034.47
101009.98
100999.59
101004.47
101023.5
101054.65
101097
101134.87
101176.92
101199.55
101225.03
101241.41
101255.84
101269.17
101281.28
101292.15
101301.81
101310.29
101317.37
101323.68
101328.48
101332.56
101334.96
101336.65
101531.51
101479.6
101414.63
101340.25
101268.42
101204.12
101149.34
101106.06
101075.83
101059.35
101057.57
101070
101095.41
101132.31
101164.23
101197.71
101218.27
101239
101252.5
101264.57
101276.09
101286.81
101296.56
101305.36
101313.14
101319.68
101325.57
101330.06
101333.9
101336.14
101337.73
101580.32
101532.42
101473.55
101406.41
101339.82
101278.15
101223.6
101178.32
101144.28
101122.91
101115.32
101121.64
101141.59
101172.23
101197.24
101221.01
101239.75
101254.67
101265.04
101274.49
101283.94
101293.09
101301.57
101309.39
101316.38
101322.3
101327.71
101331.86
101335.42
101337.49
101338.95
101617.17
101573.97
101522.63
101463.86
101404.16
101347.26
101295.26
101250.29
101214.51
101189.77
101177.53
101178.55
101193.58
101216.7
101233.6
101248.36
101263.41
101272.25
101279.16
101285.74
101292.86
101300.2
101307.26
101313.98
101320.05
101325.3
101330.14
101333.9
101337.15
101339.02
101340.34
101646.66
101607.21
101563.29
101513.6
101462.13
101411.72
101364.23
101321.64
101286.1
101259.66
101244.06
101240.81
101251.43
101265.16
101273.35
101280.86
101288.77
101291.85
101294.95
101298.42
101302.98
101308.26
101313.71
101319.18
101324.23
101328.71
101332.92
101336.23
101339.11
101340.77
101341.92
101670.66
101637.6
101599.56
101558.39
101515.9
101473.1
101431.45
101392.78
101359.11
101332.48
101314.88
101308.37
101314.2
101318.13
101317.31
101317.06
101315.77
101313.54
101312.42
101312.6
101314.44
101317.41
101321.04
101325.08
101328.97
101332.6
101336.09
101338.89
101341.34
101342.76
101343.71
101689.71
101669.81
101641.65
101608.47
101572.39
101535.65
101499.49
101465.17
101434.28
101408.7
101390.56
101381.73
101381.64
101375.58
101364.66
101354.21
101344.84
101337.19
101331.55
101328.3
101327.26
101327.77
101329.39
101331.77
101334.35
101337.01
101339.7
101341.94
101343.89
101345.04
101345.76
101718.48
101704.65
101685.1
101658.8
101629.64
101599.67
101569.66
101540.44
101513.26
101489.94
101472.68
101461.57
101451.36
101433.89
101411.6
101391.64
101375.45
101362.38
101352.49
101345.5
101341.37
101339.37
101338.85
101339.37
101340.48
101342.02
101343.82
101345.42
101346.82
101347.64
101348.11
101759.8
101756.17
101745.03
101723.45
101698.77
101673.78
101648.91
101624.28
101600.39
101578.35
101558.7
101539.37
101515.18
101485.39
101455.29
101428.7
101406.67
101389.04
101375.02
101364.24
101356.75
101352.07
101349.37
101347.96
101347.42
101347.68
101348.5
101349.4
101350.2
101350.63
101350.82
101836.49
101826.09
101807.63
101784.72
101761.99
101741.78
101722.98
101703.03
101680.64
101655.79
101628.17
101597.27
101563.52
101528.46
101494.59
101464.21
101438.15
101416.39
101398.75
101384.41
101373.43
101365.82
101360.83
101357.5
101355.26
101354.07
101353.8
101353.9
101354.06
101354.05
101353.95
101867.67
101868.09
101865.29
101859.27
101845.22
101821.62
101794.97
101767.5
101737.55
101705.08
101671.05
101635.49
101599.41
101563.62
101529.28
101497.46
101468.78
101443.78
101422.93
101405.63
101391.44
101380.65
101373.12
101367.89
101363.99
101361.26
101359.75
101358.96
101358.44
101357.95
101357.57
101869.62
101860.95
101848.65
101833.59
101820.69
101810.76
101800.27
101788.08
101768.21
101738.42
101703.06
101665.51
101628.71
101593.17
101559.14
101527.16
101497.55
101470.43
101446.94
101427.24
101410.46
101396.69
101386.34
101379.02
101373.55
101369.29
101366.41
101364.58
101363.35
101362.34
101361.72
101861.68
101854.03
101844.49
101833.39
101821.49
101808.3
101791.74
101771.4
101752.33
101736.92
101716.74
101688.31
101654.18
101618.78
101584.7
101552.62
101523.11
101495.51
101470.15
101448.41
101429.84
101413.8
101400.67
101390.89
101383.8
101378.11
101373.81
101370.8
101368.77
101367.25
101366.42
101833.07
101827.03
101819.78
101811.48
101801.95
101790.93
101778.15
101763.51
101747.32
101728.98
101710.7
101694.37
101672.23
101641.03
101606.86
101574.21
101544.72
101517.72
101491.89
101468.53
101448.64
101431.25
101416.04
101403.73
101394.67
101387.59
101381.92
101377.67
101374.72
101372.68
101371.7
101807.17
101802.31
101796.45
101789.75
101782.1
101773.3
101763.19
101751.66
101738.61
101723.99
101707.09
101686.97
101667.83
101650.59
101625.12
101594.46
101563.82
101536.68
101511.33
101487.14
101466.12
101448.04
101431.86
101417.53
101406.19
101397.61
101390.68
101385.21
101381.24
101378.64
101377.55
101776.78
101772.96
101768.35
101763.11
101757.12
101750.24
101742.31
101733.21
101722.78
101710.82
101697.33
101682.4
101664.58
101645.72
101631.41
101612.65
101583.37
101554.33
101528.6
101504.17
101482.25
101463.54
101447
101431.79
101418.48
101408.13
101399.99
101393.43
101388.4
101385.16
101383.96
101749.69
101746.68
101743.04
101738.89
101734.16
101728.71
101722.44
101715.22
101706.91
101697.39
101686.47
101674.02
101660.77
101646.32
101627.32
101610.01
101595.52
101571.69
101545.26
101520.63
101497.79
101478
101460.91
101445.64
101431.33
101419.27
101409.82
101402.29
101396.27
101392.31
101390.92
101720.71
101718.36
101715.53
101712.32
101708.66
101704.44
101699.57
101693.97
101687.52
101680.13
101671.69
101662.13
101651.04
101638.63
101625.77
101609.72
101593.87
101580.18
101559.52
101536.55
101513.97
101492.86
101474.19
101458.54
101444.2
101431.07
101420.21
101411.73
101404.86
101400.13
101398.42
101694.86
101693.05
101690.87
101688.4
101685.57
101682.3
101678.53
101674.17
101669.12
101663.29
101656.57
101648.8
101640
101629.89
101618.55
101606.32
101591.23
101575.1
101563.26
101548.1
101527.93
101508.11
101488.14
101470.97
101456.49
101443.15
101431.22
101421.7
101414.08
101408.67
101406.5
101668.71
101667.35
101665.72
101663.88
101661.77
101659.33
101656.51
101653.22
101649.41
101645.02
101639.97
101634.15
101627.41
101619.71
101610.82
101600.91
101590.18
101577.83
101562.15
101546.98
101534.43
101519.28
101501.92
101483.81
101468.17
101454.87
101442.61
101432.1
101423.84
101417.91
101415.17
101645.57
101644.53
101643.29
101641.89
101640.29
101638.43
101636.28
101633.8
101630.93
101627.58
101623.67
101619.13
101613.91
101607.89
101601.09
101593.33
101584.49
101575.05
101565.42
101553.36
101537.96
101523.02
101509.82
101495.26
101479.76
101465.91
101453.77
101442.88
101434.07
101427.75
101424.46
101624.25
101623.52
101622.63
101621.64
101620.5
101619.17
101617.62
101615.81
101613.71
101611.28
101608.47
101605.21
101601.43
101597.03
101591.9
101585.96
101579.21
101571.27
101561.75
101553.83
101544.39
101529.55
101515.17
101502.64
101489.98
101476.48
101464.43
101453.76
101444.64
101438.07
101434.37
101606.36
101605.8
101605.13
101604.38
101603.51
101602.52
101601.38
101600.07
101598.54
101596.76
101594.67
101592.22
101589.37
101586.05
101582.21
101577.79
101572.63
101566.83
101560.37
101551.83
101544.05
101536.42
101523.14
101509.72
101498.42
101486.69
101474.81
101464.45
101455.48
101448.77
101444.81
101591.24
101590.84
101590.37
101589.83
101589.22
101588.5
101587.67
101586.7
101585.58
101584.27
101582.74
101580.98
101578.94
101576.57
101573.79
101570.51
101566.68
101562.1
101556.8
101551.02
101543.81
101536.78
101529.51
101517.63
101505.64
101495.52
101485.02
101474.97
101466.41
101459.7
101455.61
101580.39
101580.1
101579.77
101579.39
101578.95
101578.45
101577.86
101577.18
101576.38
101575.45
101574.34
101573.02
101571.44
101569.54
101567.29
101564.61
101561.44
101557.79
101553.6
101548.74
101543.08
101535.42
101528.25
101522.11
101513.16
101503.41
101494.28
101485.21
101477.14
101470.6
101466.57
101571.54
101571.27
101570.95
101570.58
101570.15
101569.65
101569.07
101568.38
101567.59
101566.66
101565.57
101564.3
101562.86
101561.21
101559.32
101557.18
101554.75
101551.93
101548.55
101544.56
101539.92
101534.94
101529.49
101524.66
101519.36
101511.14
101502.83
101494.73
101487.14
101480.94
101477.26
101562.87
101562.48
101562.07
101561.66
101561.22
101560.75
101560.24
101559.69
101559.08
101558.41
101557.66
101556.82
101555.86
101554.77
101553.57
101552.26
101550.78
101549
101546.85
101544.25
101541.22
101537.74
101533.85
101528.09
101521.25
101515.26
101508.35
101501.17
101494.33
101488.64
101485.17
100454.78
100441.35
100432.43
100422.81
100411.44
100403.15
100404.21
100416.67
100437.59
100471.18
100516.44
100571.84
100635.84
100705.9
100779.51
100859.85
100929.36
101003.63
101049.36
101096.37
101138.04
101173.23
101203.27
101228.53
101249.65
101266.94
101281.21
101292.26
101300.85
101306.33
101309.97
100467.27
100452.15
100431.65
100414.15
100400.46
100394.12
100399.65
100417.62
100446.06
100485.41
100534.6
100592.42
100657.41
100726.8
100798.88
100876.07
100944.08
101011.96
101052.56
101102.26
101143.01
101177.38
101206.66
101231.28
101251.89
101268.78
101282.73
101293.54
101301.97
101307.33
101310.84
100430.46
100405.28
100380.72
100365.41
100359.6
100363.42
100378.66
100405.94
100442.02
100487.68
100541.9
100603.32
100670.54
100740.66
100813.06
100888.13
100957.37
101019.77
101058.36
101108.78
101148.2
101181.64
101210.11
101234.08
101254.16
101270.64
101284.27
101294.84
101303.09
101308.33
101311.77
100369.68
100347.31
100329.39
100321.71
100323.82
100335.96
100359.35
100393.7
100436.54
100488
100546.78
100611.52
100680.87
100752
100825.88
100898.82
100969.11
101027.42
101065.58
101115.26
101153.34
101185.88
101213.56
101236.88
101256.44
101272.51
101285.83
101296.14
101304.22
101309.35
101312.71
100289.84
100275.18
100266.77
100269.66
100282.89
100306.06
100339.39
100381.96
100432.08
100489.35
100552.48
100620.27
100691.5
100763.55
100839.08
100910.63
100980.23
101034.58
101073.16
101121.67
101158.46
101190.1
101217.01
101239.69
101258.74
101274.4
101287.4
101297.45
101305.36
101310.37
101313.67
100194.82
100192.28
100197.72
100214.77
100241.47
100276.84
100320.57
100371.72
100429.06
100491.91
100559.12
100629.71
100702.57
100775.43
100852.45
100923.23
100989.77
101040.85
101080.89
101127.95
101163.54
101194.3
101220.44
101242.49
101261.03
101276.29
101288.97
101298.78
101306.51
101311.4
101314.63
100085.32
100101.36
100125.34
100159.23
100200.77
100248.89
100303.23
100363.04
100427.34
100495.44
100566.42
100639.56
100713.78
100787.26
100865.1
100934.96
100999.21
101046.93
101088.73
101134.13
101168.59
101198.46
101223.86
101245.29
101263.33
101278.19
101290.55
101300.11
101307.66
101312.44
101315.6
99973.559
100011.19
100055.04
100106.25
100162.72
100223.43
100288.14
100356.27
100427.07
100499.98
100574.35
100649.72
100725.03
100799.08
100876.63
100946.3
101009.89
101053.23
101096.59
101140.2
101173.59
101202.59
101227.26
101248.08
101265.63
101280.09
101292.14
101301.45
101308.83
101313.49
101316.58
99867.742
99926.969
99989.783
100057.9
100128.86
100201.49
100275.94
100351.75
100428.42
100505.61
100582.94
100660.21
100736.4
100811.71
100888.64
100957.37
101019.98
101060.22
101104.4
101146.18
101178.55
101206.69
101230.63
101250.86
101267.93
101282
101293.74
101302.8
101310
101314.54
101317.56
99773.415
99853.196
99932.61
100016.65
100100.96
100184.06
100267.19
100349.76
100431.52
100512.38
100592.19
100671.03
100748.14
100825.08
100900.59
100968.08
101029.09
101067.95
101112.09
101152.07
101183.46
101210.75
101233.98
101253.63
101270.22
101283.9
101295.33
101304.16
101311.18
101315.6
101318.55
99693.913
99791.028
99887.677
99985.157
100080.32
100171.92
100262.45
100350.57
100436.48
100520.31
100602.11
100682.36
100760.91
100838.8
100911.57
100978.57
101037.54
101076.06
101119.61
101157.88
101188.32
101214.77
101237.31
101256.38
101272.5
101285.8
101296.93
101305.51
101312.37
101316.66
101319.54
99637.009
99748.06
99856.957
99963.545
100066.57
100166.1
100262.38
100354.5
100443.45
100529.55
100612.99
100694.65
100774.53
100850.46
100921.55
100989.1
101045.65
101084.35
101126.98
101163.61
101193.13
101218.75
101240.61
101259.11
101274.77
101287.69
101298.53
101306.87
101313.55
101317.73
101320.53
99607.22
99726.488
99842.048
99954.193
100062.41
100166.46
100266.68
100362.31
100453.16
100540.84
100625.61
100708.25
100785.82
100859.72
100932.23
100999.2
101053.67
101092.69
101134.19
101169.28
101197.87
101222.68
101243.87
101261.82
101277.03
101289.58
101300.12
101308.23
101314.74
101318.8
101321.53
99604.842
99727.372
99844.4
99957.985
100068.1
100174.15
100276.61
100374.58
100466.96
100555.12
100639.62
100719.22
100795.31
100870.07
100942.57
101008.3
101061.82
101101.04
101141.24
101174.87
101202.56
101226.57
101247.1
101264.51
101279.27
101291.46
101301.71
101309.59
101315.94
101319.87
101322.53
99619.472
99745.542
99862.589
99975.198
100084.62
100190.59
100293.36
100390.49
100482.28
100568.18
100648.88
100728.1
100806.79
100880.64
100952.3
101017.57
101070.23
101109.39
101148.13
101180.38
101207.18
101230.41
101250.29
101267.16
101281.49
101293.32
101303.29
101310.94
101317.13
101320.95
101323.54
99639.121
99767.46
99886.304
99999.355
100107.69
100211.58
100311.72
100404.02
100491
100576.52
100660.62
100740.82
100818.82
100891.1
100961.87
101027.28
101078.76
101117.7
101154.85
101185.8
101211.73
101234.19
101253.44
101269.79
101283.7
101295.17
101304.86
101312.3
101318.32
101322.03
101324.55
99710.996
99819.506
99923.578
100027.53
100130.27
100229.33
100322.59
100414.74
100506.64
100592.34
100675.06
100754.37
100830.96
100901.49
100971.39
101036.98
101087.3
101125.89
101161.39
101191.13
101216.2
101237.91
101256.55
101272.39
101285.87
101297.01
101306.42
101313.64
101319.51
101323.11
101325.56
99849.375
99934.076
100013.08
100095.54
100181.77
100268.9
100354.26
100441.31
100528.51
100610.79
100690.64
100768.17
100843.21
100911.89
100980.84
101046.58
101095.78
101133.93
101167.78
101196.38
101220.61
101241.58
101259.61
101274.95
101288.03
101298.82
101307.97
101314.98
101320.69
101324.19
101326.57
99983.628
100053.68
100114.68
100178.87
100248.36
100321.22
100395.4
100473.59
100553.75
100630.93
100707.1
100782.32
100855.58
100922.36
100990.21
101056.11
101104.15
101141.8
101174.05
101201.53
101224.94
101245.19
101262.62
101277.48
101290.15
101300.61
101309.51
101316.31
101321.88
101325.26
101327.58
100135.84
100186.27
100226.45
100271.15
100322.9
100379.9
100441.52
100509.84
100581.53
100652.8
100724.46
100796.77
100867.97
100932.9
100999.46
101065.42
101112.37
101149.48
101180.19
101206.58
101229.17
101248.72
101265.57
101279.95
101292.24
101302.38
101311.02
101317.63
101323.05
101326.34
101328.6
100307.77
100334.91
100351.31
100373.83
100405.36
100444.33
100493.34
100550.05
100611.64
100676.37
100742.74
100811.46
100880.27
100943.49
101008.55
101074.31
101120.37
101156.82
101186.14
101211.47
101233.27
101252.14
101268.43
101282.36
101294.28
101304.11
101312.52
101318.94
101324.22
101327.42
101329.62
100499.64
100499.43
100489.99
100487.93
100496.56
100518.13
100552.73
100594.54
100645.54
100702.75
100762.86
100827.08
100892.96
100954.39
101017.55
101082.62
101127.93
101163.5
101191.79
101216.16
101237.2
101255.44
101271.2
101284.71
101296.27
101305.81
101313.99
101320.24
101325.38
101328.5
101330.64
100718.67
100690.92
100656.76
100627.67
100612.19
100612.46
100626.25
100651.89
100688.94
100736.02
100788.08
100846.24
100907.9
100966.79
101027.12
101090.43
101134.69
101169.27
101197.13
101220.7
101241.03
101258.66
101273.91
101287.02
101298.24
101307.5
101315.46
101321.53
101326.54
101329.57
101331.66
100947.6
100907.32
100864.17
100813.85
100769.69
100740.29
100727.58
100731.32
100750.01
100780.81
100821.58
100871.29
100926.88
100982.24
101038.63
101099.13
101141.28
101175.02
101202.68
101225.43
101244.98
101261.97
101276.69
101289.36
101300.23
101309.2
101316.93
101322.82
101327.71
101330.65
101332.69
100494.71
100489.76
100480.42
100469.8
100459.72
100452.46
100451.21
100458.97
100474.82
100502.8
100542.29
100592.16
100650.91
100716.23
100784.8
100859.43
100924.18
100992.79
101043.54
101090.38
101133.56
101169.61
101200.32
101226.13
101247.71
101265.35
101279.9
101291.18
101299.92
101305.5
101309.27
100504.17
100502.55
100494.1
100483.27
100473.18
100466.52
100465.29
100469.46
100483.22
100508.82
100545.83
100593.42
100650.23
100714.19
100782.06
100855.95
100922.9
100989.1
101042.16
101087.85
101131.19
101167.46
101198.46
101224.55
101246.38
101264.24
101278.95
101290.37
101299.22
101304.87
101308.63
100501.15
100500.38
100493.71
100486.78
100480.06
100475.43
100475.16
100479.58
100492.98
100517.08
100552.1
100597.55
100652.32
100714.58
100781.37
100853.85
100921.64
100987.42
101040.61
101085.67
101129.19
101165.59
101196.8
101223.1
101245.11
101263.15
101278
101289.55
101298.48
101304.2
101307.72
100499.02
100498.38
100494.89
100490.96
100487.24
100484.86
100485.9
100491.52
100504.87
100527.7
100560.8
100604.04
100656.56
100716.77
100782.02
100852.4
100920.12
100985.41
101038.47
101083.15
101126.97
101163.57
101195
101221.52
101243.75
101261.97
101276.98
101288.67
101297.69
101303.49
101306.73
100499.23
100499.96
100498.79
100496.71
100494.8
100494.18
100496.54
100503.26
100516.7
100538.58
100570.04
100611.23
100661.55
100719.66
100783.18
100851.14
100918.43
100983.18
101036.02
101080.38
101124.5
101161.32
101193.01
101219.79
101242.26
101260.69
101275.87
101287.71
101296.84
101302.72
101305.9
100498.97
100501.49
100501.95
100501.55
100501.27
100502.28
100506.03
100513.84
100527.6
100548.95
100579.14
100618.56
100666.85
100722.89
100784.63
100850.06
100916.67
100981.12
101033.51
101077.51
101121.91
101158.95
101190.89
101217.94
101240.65
101259.31
101274.68
101286.68
101295.93
101301.9
101305.24
100497.69
100501.31
100503.34
100504.63
100506.15
100508.95
100514.24
100523.28
100537.64
100558.82
100588.1
100626.03
100672.47
100726.53
100786.44
100849.38
100915.38
100979.31
101031.4
101074.58
101119.28
101156.5
101188.69
101216
101238.97
101257.86
101273.41
101285.58
101294.96
101301.03
101304.57
100495.92
100500.35
100503.51
100506.41
100509.76
100514.4
100521.37
100531.79
100546.99
100568.32
100597.02
100633.72
100678.5
100730.65
100788.72
100849.57
100914.67
100977.34
101029.75
101071.75
101116.64
101154
101186.42
101213.99
101237.21
101256.33
101272.08
101284.43
101293.93
101300.1
101303.5
100493.85
100498.82
100503.01
100507.35
100512.42
100518.88
100527.6
100539.53
100555.79
100577.55
100605.95
100641.7
100684.99
100735.33
100791.55
100850.72
100913.96
100975.08
101028.18
101069.09
101113.99
101151.47
101184.1
101211.9
101235.37
101254.73
101270.68
101283.2
101292.84
101299.11
101302.25
100491.17
100496.95
100502.14
100507.73
100514.38
100522.63
100533.15
100546.7
100564.19
100586.62
100614.99
100650.01
100691.99
100740.62
100795
100852.56
100913.48
100973.19
101026.51
101066.6
101111.36
101148.89
101181.71
101209.74
101233.46
101253.05
101269.2
101281.91
101291.68
101298.06
101301.11
100487.41
100494
100500.21
100507.12
100515.56
100525.78
100538.24
100553.54
100572.43
100595.72
100624.27
100658.76
100699.59
100746.6
100799.12
100855.02
100913.94
100972.04
101024.77
101064.32
101108.76
101146.3
101179.27
101207.5
101231.46
101251.29
101267.64
101280.54
101290.45
101296.94
101300.07
100483.48
100490.37
100497.06
100506.03
100516.53
100528.84
100543.33
100560.48
100580.86
100605.12
100633.99
100668.11
100707.9
100753.35
100803.99
100858.11
100915.12
100971.51
101023.26
101062.41
101106.23
101143.72
101176.79
101205.2
101229.39
101249.45
101266.01
101279.09
101289.14
101295.76
101299.01
100478.68
100487.78
100495.99
100504.94
100517.63
100532.3
100548.96
100568.02
100589.93
100615.21
100644.45
100678.27
100717.07
100760.99
100809.72
100861.94
100916.92
100971
101021.81
101061.07
101103.8
101141.17
101174.29
101202.85
101227.24
101247.53
101264.29
101277.56
101287.77
101294.51
101297.88
100474.22
100483.76
100494.79
100506.93
100521.25
100537.64
100556.17
100576.98
100600.29
100626.49
100656.05
100689.51
100727.31
100769.66
100816.41
100866.59
100919.38
100971.13
101020.5
101060.09
101101.51
101138.68
101171.8
101200.45
101225.03
101245.53
101262.5
101275.96
101286.31
101293.18
101296.65
100472.75
100482.73
100496.09
100511.3
100527.26
100545.53
100565.91
100588.25
100612.7
100639.57
100669.23
100702.17
100738.84
100779.52
100824.19
100872.17
100922.6
100972.14
101019.72
101059.42
101099.38
101136.29
101169.33
101198.03
101222.76
101243.46
101260.62
101274.27
101284.78
101291.78
101295.33
100479.57
100491.11
100503.53
100517.9
100536.78
100557.46
100579.46
100602.93
100628.07
100655.16
100684.55
100716.66
100751.96
100790.76
100833.18
100878.76
100926.61
100973.93
101019.52
101059.18
101097.47
101134.05
101166.91
101195.6
101220.45
101241.33
101258.67
101272.5
101283.17
101290.3
101293.93
100493.81
100505.75
100520.61
100537.74
100556.64
100577.12
100599.13
100622.58
100647.51
100674.07
100702.57
100733.38
100766.93
100803.59
100843.52
100886.46
100931.42
100976.25
101020.35
101059.47
101095.84
101132
101164.57
101193.18
101218.1
101239.13
101256.65
101270.66
101281.47
101288.73
101292.45
100523.7
100534.3
100548.75
100566.93
100585.25
100604.8
100625.8
100648.15
100671.81
100696.94
100723.79
100752.69
100784.03
100818.18
100855.35
100895.37
100937.18
100979.39
101023.01
101060.35
101094.63
101130.2
101162.32
101190.79
101215.74
101236.88
101254.56
101268.73
101279.69
101287.09
101290.89
100566.51
100577.73
100592.7
100607.86
100623.81
100641.22
100660.02
100680.08
100701.4
100724.15
100748.54
100774.85
100803.45
100834.68
100868.77
100905.63
100944.32
100983.89
101025.3
101061.32
101094.1
101128.7
101160.24
101188.48
101213.38
101234.6
101252.41
101266.73
101277.83
101285.36
101289.25
100622.3
100633.36
100645.58
100657.78
100670.96
100685.41
100701.08
100717.93
100736.04
100755.59
100776.79
100799.9
100825.23
100853.14
100883.85
100917.34
100952.93
100989.61
101027.81
101062.83
101094.07
101127.56
101158.3
101186.24
101211.05
101232.29
101250.2
101264.65
101275.89
101283.55
101287.53
100684.88
100693.55
100703.2
100713.02
100723.48
100734.82
100747.08
100760.35
100774.79
100790.64
100808.14
100827.56
100849.23
100873.48
100900.55
100930.48
100962.79
100996.52
101031.71
101065.08
101094.31
101126.8
101156.64
101184.17
101208.78
101229.97
101247.94
101262.52
101273.88
101281.65
101285.73
100748.13
100754.75
100762.57
100770.33
100778.3
100786.71
100795.7
100805.44
100816.17
100828.19
100841.8
100857.3
100875.06
100895.43
100918.69
100944.92
100973.77
101004.47
101036.98
101068.16
101095.56
101126.58
101155.17
101182.24
101206.58
101227.66
101245.66
101260.32
101271.79
101279.68
101283.84
100808.49
100813.78
100820.1
100826.2
100832.17
100838.18
100844.4
100851.05
100858.4
100866.81
100876.64
100888.28
100902.14
100918.61
100938
100960.46
100985.77
101013.24
101042.42
101070.19
101097.39
101127.12
101154.25
101180.61
101204.52
101225.39
101243.36
101258.07
101269.63
101277.63
101281.87
100864.54
100868.61
100873.65
100878.42
100882.86
100887.04
100891.09
100895.19
100899.68
100904.95
100911.4
100919.49
100929.68
100942.43
100958.09
100976.87
100998.65
101022.79
101048.29
101073.33
101100.3
101128.5
101153.84
101179.17
101202.6
101223.19
101241.06
101255.78
101267.41
101275.5
101279.81
100916.18
100918.82
100922.43
100925.86
100928.93
100931.62
100933.95
100936.09
100938.36
100941.11
100944.78
100949.85
100956.84
100966.24
100978.48
100993.82
101012.23
101033.14
101055.59
101079.2
101103.45
101129.18
101153.88
101178.29
101200.85
101221.08
101238.78
101253.47
101265.14
101273.31
101277.68
100961.86
100963.23
100965.47
100967.62
100969.41
100970.81
100971.81
100972.52
100973.17
100974.06
100975.62
100978.34
100982.75
100989.38
100998.67
101010.94
101026.26
101044.22
101064.15
101085.78
101106.83
101129.94
101154.42
101177.89
101199.4
101219.11
101236.56
101251.15
101262.82
101271.06
101275.48
101000.99
101002.2
101003.19
101004.03
101004.63
101004.87
101004.71
101004.25
101003.64
101003.16
101003.2
101004.22
101006.73
101011.23
101018.16
101027.87
101040.5
101055.81
101073.23
101092.4
101110.87
101132.1
101155.72
101177.56
101197.94
101217.32
101234.41
101248.85
101260.48
101268.76
101273.22
101027.37
101027.54
101029.23
101031.02
101032.4
101032.6
101031.64
101030.36
101028.99
101027.72
101026.91
101026.95
101028.28
101031.35
101036.57
101044.3
101054.69
101067.64
101082.68
101099.45
101116.08
101135.18
101156.74
101177.49
101197.08
101215.73
101232.36
101246.59
101258.13
101266.42
101270.9
101055.51
101054.14
101053.06
101051.96
101050.83
101050.26
101050.12
101049.61
101048.58
101047.32
101046.45
101046.3
101047.21
101049.56
101053.72
101060.01
101068.64
101079.58
101092.52
101107.19
101121.81
101138.5
101158.11
101177.85
101196.66
101214.37
101230.45
101244.4
101255.79
101264.06
101268.54
101071.91
101071.38
101070.78
101069.93
101068.76
101067.37
101065.93
101064.5
101063.37
101062.72
101062.48
101062.78
101063.86
101066.04
101069.65
101074.99
101082.27
101091.53
101102.56
101115.13
101127.86
101142.65
101160.42
101178.52
101196.49
101213.3
101228.7
101242.31
101253.49
101261.69
101266.15
101079.91
101079.53
101079.09
101078.56
101078.02
101077.53
101077.1
101076.8
101076.68
101076.72
101076.98
101077.73
101079.14
101081.4
101084.74
101089.42
101095.64
101103.49
101112.82
101123.54
101134.66
101147.45
101163.29
101180.2
101196.84
101212.22
101227.17
101240.34
101251.24
101259.34
101263.75
101087.96
101088.13
101088.21
101088.18
101088.18
101088.27
101088.56
101088.98
101089.02
101089.06
101090.08
101091.7
101093.68
101096.17
101099.38
101103.54
101108.88
101115.5
101123.35
101132.33
101141.95
101152.8
101166.71
101181.87
101196.86
101211.75
101226
101238.54
101249.09
101257.02
101261.35
101096.7
101097.26
101097.77
101098.25
101098.85
101099.65
101100.52
101101
101101.64
101103.25
101105.09
101106.86
101108.85
101111.23
101114.12
101117.68
101122.12
101127.55
101134.01
101141.39
101149.51
101158.47
101170.44
101183.66
101197.66
101212.03
101225.15
101236.92
101247.05
101254.77
101258.99
101109.02
101109.69
101110.4
101111.1
101111.96
101112.94
101113.73
101114.95
101117.23
101119.49
101121.2
101122.88
101124.7
101126.74
101129.09
101131.91
101135.37
101139.63
101144.73
101150.6
101157.22
101164.49
101174.69
101186.48
101199.53
101212.06
101224.18
101235.48
101245.16
101252.6
101256.69
101125.56
101126.1
101126.77
101127.41
101128.02
101128.75
101130.13
101132.19
101134.22
101135.91
101137.48
101139.07
101140.66
101142.27
101144
101146
101148.47
101151.57
101155.38
101159.86
101165.09
101170.81
101179.38
101189.73
101200.89
101212.32
101223.88
101234.27
101243.46
101250.56
101254.48
101144.68
101144.99
101145.39
101145.8
101146.56
101147.64
101148.79
101150.04
101151.28
101152.52
101153.77
101154.97
101156.11
101157.18
101158.26
101159.49
101161.05
101163.1
101165.74
101169
101172.94
101177.41
101184.34
101193.07
101202.82
101213.74
101223.93
101233.23
101241.97
101248.65
101252.39
101164.96
101164.83
101165.02
101165.62
101166.58
101167.36
101167.85
101168.32
101168.85
101169.39
101169.9
101170.35
101170.74
101171.08
101171.45
101171.94
101172.69
101173.85
101175.54
101177.8
101180.67
101184.17
101189.54
101196.94
101205.57
101214.86
101223.65
101232.66
101240.75
101246.94
101250.46
101181.58
101181.24
101181.21
101181.14
101180.88
101181.22
101182.39
101183.66
101184.22
101184.08
101183.85
101183.62
101183.35
101183.09
101182.89
101182.82
101182.97
101183.49
101184.49
101186.01
101188.07
101190.76
101194.87
101200.97
101208.2
101215.9
101224.3
101232.66
101239.79
101245.45
101248.72
101196.24
101195.8
101195.5
101195.15
101194.59
101193.76
101192.78
101191.96
101191.97
101192.72
101193.43
101193.53
101193.07
101192.55
101192.11
101191.77
101191.63
101191.81
101192.42
101193.48
101194.99
101197.06
101200.17
101205.13
101211.1
101217.89
101225.56
101232.52
101238.85
101244.18
101247.22
101206.42
101206.3
101205.95
101205.5
101205
101204.42
101203.72
101202.83
101201.74
101200.59
101199.63
101199.25
101199.18
101198.96
101198.75
101198.65
101198.68
101198.9
101199.41
101200.26
101201.45
101203.05
101205.38
101209.37
101214.32
101220.12
101226.42
101232.71
101238.55
101243.21
101245.99