/*--------------------------------*- C++ -*----------------------------------*\
| =========                 |                                                 |
| \\      /  F ield         | OpenFOAM: The Open Source CFD Toolbox           |
|  \\    /   O peration     | Version:  2406                                  |
|   \\  /    A nd           | Website:  www.openfoam.com                      |
|    \\/     M anipulation  |                                                 |
\*---------------------------------------------------------------------------*/
FoamFile
{
    version     2.0;
    format      ascii;
    arch        "LSB;label=32;scalar=64";
    class       volVectorField;
    location    "0.021";
    object      U;
}
// * * * * * * * * * * * * * * * * * * * * * * * * * * * * * * * * * * * * * //

dimensions      [0 1 -1 0 0 0 0];

internalField   nonuniform List<vector> 
8260
(
(40.443105 29.241452 0)
(41.831702 27.942803 -2.457727e-20)
(43.156397 26.64448 2.1235144e-20)
(44.438919 25.34307 -3.6321098e-20)
(45.676463 23.99921 1.5400585e-20)
(46.850786 22.630851 -2.5989756e-20)
(47.950639 21.274576 -1.0841161e-20)
(48.96786 19.963735 -1.4672245e-23)
(49.937697 18.722765 4.866663e-21)
(50.899897 17.552144 0)
(51.798161 16.467641 4.5809975e-20)
(52.653624 15.461759 0)
(53.458331 14.515155 0)
(54.176488 13.591424 -7.008525e-20)
(54.645366 12.631693 1.8556964e-23)
(54.700053 11.543557 0)
(54.085635 10.026226 0)
(53.178986 8.346813 6.7398577e-19)
(52.732608 7.1721375 5.681677e-21)
(52.492832 6.2172408 -6.9410843e-19)
(52.280167 5.3854882 -1.2680872e-18)
(52.079108 4.6461651 -1.1423662e-18)
(51.883581 3.9795149 -2.0703666e-18)
(51.716151 3.382916 1.8508731e-18)
(51.5712 2.8492489 1.6426095e-18)
(51.455045 2.3577829 0)
(51.347743 1.8995929 2.5807617e-18)
(51.263349 1.4650143 2.2770184e-18)
(51.192376 1.049235 4.0197223e-18)
(51.148837 0.63200827 0)
(51.118438 0.21572887 6.2388656e-18)
(39.437552 28.463817 2.4075234e-20)
(40.886597 27.289296 -1.7567211e-23)
(42.26359 26.175206 -1.8721882e-20)
(43.603543 25.026341 4.926111e-20)
(44.907535 23.819088 0)
(46.159666 22.570562 2.4523926e-20)
(47.346091 21.311231 4.205313e-20)
(48.460563 20.07239 2.6937503e-20)
(49.519371 18.879381 -3.0775004e-20)
(50.541865 17.738536 1.3245959e-20)
(51.503901 16.661331 -5.1920381e-20)
(52.410945 15.648975 0)
(53.252469 14.685706 0)
(53.98836 13.740221 1.4424859e-19)
(54.457653 12.72746 -1.5022543e-19)
(54.479854 11.599581 1.8555321e-19)
(53.845806 9.9952934 2.6586618e-24)
(52.989128 8.3198291 -2.1202911e-20)
(52.612421 7.1702991 2.2153122e-20)
(52.405539 6.2191931 -6.6506282e-19)
(52.212667 5.3874522 -9.532457e-21)
(52.025835 4.6470248 1.1059916e-18)
(51.841388 3.9804428 1.9873798e-18)
(51.682979 3.3837042 -3.4699398e-21)
(51.544801 2.8503685 6.2013021e-21)
(51.433496 2.3584098 -2.736683e-21)
(51.329934 1.9000956 -2.4821416e-18)
(51.248397 1.4652274 -2.1943393e-18)
(51.179541 1.0492212 -3.8814152e-18)
(51.137501 0.63162125 3.4269612e-18)
(51.108026 0.21538874 -6.0479194e-18)
(38.389871 27.410492 -2.0204391e-20)
(39.818937 26.463525 1.8134619e-20)
(41.241117 25.555423 0)
(42.645615 24.581804 -2.9971688e-20)
(44.022767 23.531152 2.6764633e-20)
(45.357429 22.420933 0)
(46.634961 21.27705 -4.1396557e-20)
(47.846454 20.127779 -9.0320871e-21)
(48.997717 18.998688 3.9354537e-20)
(50.097616 17.899846 0)
(51.132223 16.841595 4.8641697e-20)
(52.099484 15.83056 0)
(52.986285 14.854572 0)
(53.746904 13.887286 -7.3741699e-20)
(54.224931 12.824637 -5.1663629e-21)
(54.224872 11.649007 -2.0500955e-19)
(53.578166 9.9472023 2.7631949e-19)
(52.791401 8.3118098 -1.3512678e-18)
(52.482001 7.1936956 0)
(52.306732 6.2448185 6.2916453e-19)
(52.135774 5.4101941 0)
(51.965299 4.6653229 -8.0713554e-21)
(51.793545 3.9955564 1.445156e-20)
(51.645242 3.3955189 -1.2884241e-20)
(51.514685 2.859946 -1.4588784e-18)
(51.408882 2.3653608 0)
(51.309657 1.9053262 0)
(51.231363 1.468887 1.9820074e-21)
(51.164936 1.0516589 -1.7508647e-21)
(51.124613 0.6330762 -3.1660077e-18)
(51.096179 0.21593132 -4.2922475e-23)
(37.514776 26.217357 6.7266917e-20)
(38.897473 25.49246 -4.6436088e-20)
(40.315058 24.788295 2.9165927e-20)
(41.742926 24.002681 2.7049362e-20)
(43.162588 23.124785 -7.4336764e-20)
(44.556032 22.169454 -2.2428641e-20)
(45.906106 21.158638 2.0119302e-20)
(47.199651 20.116677 -1.7916033e-20)
(48.433978 19.067452 1.5914587e-20)
(49.610737 18.024264 0)
(50.716736 16.998074 5.0771667e-20)
(51.744966 15.997659 0)
(52.678472 15.014342 -8.6685338e-20)
(53.463303 14.026111 0)
(53.947635 12.915596 -1.8067863e-19)
(53.920085 11.681323 6.8035866e-21)
(53.267258 9.8784057 4.3325653e-23)
(52.570153 8.3088042 6.5519943e-19)
(52.332781 7.2149938 -6.4194776e-19)
(52.192953 6.2667499 0)
(52.046871 5.4286617 -1.0629222e-18)
(51.895152 4.679284 -7.45558e-21)
(51.738133 4.006873 6.6543135e-21)
(51.601629 3.4041298 -1.5155146e-18)
(51.479991 2.867038 0)
(51.380557 2.3703497 0)
(51.286381 1.9090714 0)
(51.211829 1.4714512 -1.8584654e-18)
(51.148248 1.0532802 0)
(51.109901 0.63385803 2.8976267e-18)
(51.082697 0.21613134 5.1129247e-18)
(36.82557 24.927307 -1.3881516e-20)
(38.141068 24.402257 0)
(39.517351 23.888123 -2.5313036e-20)
(40.930676 23.289553 2.414929e-20)
(42.359745 22.591694 2.2681781e-20)
(43.783779 21.803145 4.2021014e-20)
(45.182783 20.940347 1.9270482e-20)
(46.539465 20.022505 -1.7539451e-20)
(47.843448 19.070049 -1.5878899e-20)
(49.088779 18.097836 8.6285675e-20)
(50.26095 17.117712 -1.3070842e-20)
(51.347687 16.138679 0)
(52.326706 15.155039 1.7243682e-19)
(53.133295 14.147513 -4.5517999e-24)
(53.618049 12.989616 2.079275e-19)
(53.556676 11.680027 1.4712847e-20)
(52.908102 9.7891048 -3.1716301e-19)
(52.330542 8.3069057 6.1716043e-19)
(52.165427 7.2349976 6.3527674e-19)
(52.063906 6.2894346 2.3294285e-24)
(51.945798 5.4491124 9.6090994e-19)
(51.815348 4.6956465 8.7324141e-19)
(51.675171 4.020716 6.0746528e-21)
(51.552042 3.4149797 1.3753782e-18)
(51.440552 2.8760299 1.223052e-18)
(51.34831 2.3768199 0)
(51.259948 1.9139629 -3.7336507e-21)
(51.189601 1.4748888 1.6916405e-18)
(51.129286 1.0555107 -2.9812564e-18)
(51.093168 0.63506993 -2.6318831e-18)
(51.067364 0.21652822 5.667287e-22)
(36.337204 23.564213 2.2854834e-20)
(37.567336 23.217441 -2.1998216e-20)
(38.874449 22.875346 -2.1789197e-20)
(40.240423 22.453242 4.2574985e-20)
(41.645451 21.932992 -4.0951585e-20)
(43.068337 21.315569 0)
(44.487598 20.610274 0)
(45.882818 19.82995 0)
(47.237334 18.990053 3.1320866e-20)
(48.537739 18.104415 3.5165721e-23)
(49.766535 17.184616 -5.3484038e-20)
(50.905582 16.238645 1.1301211e-19)
(51.92577 15.262911 -2.0554366e-19)
(52.749142 14.237706 -1.0961049e-19)
(53.224744 13.031052 2.6264986e-20)
(53.125115 11.624253 -1.5653273e-20)
(52.500177 9.6799304 1.8572371e-20)
(52.071452 8.3042808 -6.1734411e-19)
(51.977191 7.2517569 -1.7211213e-20)
(51.917339 6.3102717 -4.9624278e-19)
(51.830727 5.4685733 -8.7513501e-19)
(51.724263 4.7112613 -1.5856303e-18)
(51.603282 4.0340533 -1.4200076e-18)
(51.495379 3.4253948 -8.017291e-25)
(51.395554 2.8846858 8.6688271e-21)
(51.311469 2.3830482 1.9537598e-18)
(51.229851 1.9186451 0)
(51.164251 1.4782011 1.5268582e-18)
(51.107713 1.0576141 2.6875457e-18)
(51.074109 0.63614172 0)
(51.049929 0.21684402 0)
(36.064751 22.150967 8.6383147e-21)
(37.196104 21.966087 -3.6812428e-20)
(38.412784 21.77648 3.7322172e-20)
(39.703182 21.51355 -1.862203e-20)
(41.051982 21.159438 -1.8342539e-20)
(42.44041 20.708491 0)
(43.847576 20.162473 0)
(45.251604 19.527099 0)
(46.631501 18.811577 -3.0530248e-20)
(47.967608 18.026106 -5.7377768e-20)
(49.237996 17.179942 0)
(50.418099 16.27859 -1.032009e-19)
(51.470401 15.319346 1.261029e-19)
(52.3014 14.276028 -3.5658604e-23)
(52.753357 13.017306 1.6757172e-19)
(52.613844 11.487515 3.2629671e-20)
(52.052054 9.5573678 -3.5955554e-20)
(51.791814 8.2966272 5.8873166e-19)
(51.766282 7.2631844 0)
(51.751192 6.3280203 4.5033586e-19)
(51.700091 5.4869946 8.0391259e-19)
(51.620803 4.7268331 1.4304096e-18)
(51.521578 4.0478769 -9.980637e-21)
(51.430882 3.4364507 8.7786747e-21)
(51.344372 2.8939226 3.3767612e-23)
(51.269466 2.3898737 -1.7552241e-18)
(51.195664 1.9237581 0)
(51.135411 1.4819009 2.5819319e-23)
(51.083223 1.0599642 0)
(51.052428 0.63737007 0)
(51.030126 0.21722605 1.8797685e-18)
(36.019981 20.756626 -2.4117997e-23)
(37.039919 20.694616 -2.3159894e-20)
(38.148853 20.627454 7.9752704e-21)
(39.340725 20.498539 1.6255949e-20)
(40.605354 20.289994 1.6331058e-20)
(41.927955 19.991148 0)
(43.290072 19.59696 0)
(44.670354 19.105896 0)
(46.045763 18.52003 0)
(47.39221 17.843768 -2.8296215e-20)
(48.682934 17.081651 2.7157415e-20)
(49.886473 16.234732 0)
(50.955084 15.299406 -2.614085e-20)
(51.77923 14.230776 2.695179e-20)
(52.186782 12.91688 -4.6986428e-19)
(52.007857 11.243777 3.3072344e-20)
(51.577325 9.4280695 -3.3984868e-20)
(51.489229 8.2790521 -5.0628995e-19)
(51.530531 7.2663149 0)
(51.563263 6.3400497 0)
(51.551591 5.5024074 0)
(51.503315 4.7408344 2.0106379e-20)
(51.42868 4.06085 1.1283586e-18)
(51.357467 3.4470393 4.979798e-25)
(51.286123 2.9027584 -1.7851682e-18)
(51.22153 2.3966351 1.563973e-18)
(51.156759 1.928741 1.391455e-18)
(51.102582 1.4855912 -2.4464289e-18)
(51.055426 1.0622662 0)
(51.027752 0.6385331 0)
(51.007665 0.21756746 -1.6801493e-18)
(36.188945 19.40072 -6.1515208e-21)
(37.092767 19.427769 2.6020776e-20)
(38.083426 19.454694 -3.4247986e-20)
(39.161097 19.431952 -1.4209177e-20)
(40.320372 19.343341 1.4563493e-20)
(41.550703 19.17509 -2.9441758e-20)
(42.837311 18.916821 2.9423527e-20)
(44.16126 18.560574 0)
(45.499759 18.101306 0)
(46.826392 17.536331 0)
(48.110123 16.863364 0)
(49.312098 16.076807 1.0715871e-19)
(50.371899 15.16921 -1.3494366e-19)
(51.17107 14.04997 2.7890121e-20)
(51.502743 12.691581 2.415595e-19)
(51.308873 10.880238 0)
(51.097763 9.2990113 0)
(51.162101 8.2461029 4.583489e-19)
(51.268628 7.2569433 2.5592262e-20)
(51.351773 6.3433095 -2.2771732e-20)
(51.382675 5.5129876 0)
(51.369871 4.7523656 -5.556885e-19)
(51.323127 4.0725991 8.548237e-25)
(51.274085 3.4571262 -8.9764874e-19)
(51.219919 2.9111895 -3.4156592e-23)
(51.166867 2.4035172 -1.410522e-18)
(51.112441 1.9337087 -1.2352181e-18)
(51.065189 1.4893888 1.0899513e-18)
(51.023879 1.0646172 -1.8782853e-21)
(50.999662 0.63972004 8.2854463e-22)
(50.982199 0.21791366 7.3086976e-22)
(36.54388 18.102499 0)
(37.336318 18.182789 -4.4259165e-20)
(38.207057 18.275528 4.7563456e-20)
(39.162109 18.331585 0)
(40.200889 18.334107 -7.8503345e-20)
(41.317695 18.269386 2.243678e-23)
(42.502401 18.123482 5.4819245e-20)
(43.739744 17.88355 2.7593042e-20)
(45.008833 17.538289 0)
(46.282723 17.077558 -2.3726401e-23)
(47.526965 16.490888 -6.6601352e-24)
(48.694507 15.764181 -1.6361682e-19)
(49.708864 14.880422 5.5676365e-20)
(50.445065 13.697512 5.8053186e-20)
(50.678379 12.241157 6.1451244e-20)
(50.569454 10.430018 2.4680579e-19)
(50.625981 9.1619231 -5.7011624e-20)
(50.807717 8.190532 9.1374509e-23)
(50.980455 7.229486 0)
(51.115663 6.3340667 -3.4477574e-19)
(51.191115 5.5159243 -5.5740664e-19)
(51.218033 4.7592452 0)
(51.202892 4.0815712 0)
(51.179309 3.4656242 7.8598222e-19)
(51.144638 2.9183532 7.1597619e-19)
(51.104543 2.4099906 1.2442993e-18)
(51.061834 1.9382254 -8.5776862e-21)
(51.02247 1.4929676 3.7837686e-21)
(50.987982 1.0668001 1.7125452e-18)
(50.967628 0.6407792 0)
(50.953278 0.21819032 1.3300786e-18)
(37.046161 16.854852 -3.0090647e-20)
(37.726639 16.973805 3.3972153e-20)
(38.480459 17.105365 -4.2443525e-20)
(39.313562 17.206199 -4.5417707e-20)
(40.226145 17.267326 1.2016621e-20)
(41.217339 17.27263 5.0200261e-20)
(42.281787 17.207379 0)
(43.408268 17.055966 -2.6552673e-20)
(44.578544 16.801845 0)
(45.766166 16.427299 -4.2228906e-23)
(46.933709 15.912872 0)
(48.024428 15.233489 -5.6116774e-20)
(48.941851 14.349925 5.7894107e-20)
(49.553294 13.06033 5.9706192e-20)
(49.7282 11.519606 -2.4045834e-19)
(49.875285 10.029062 -5.1012867e-19)
(50.141812 9.0583561 5.1303384e-20)
(50.435076 8.054788 -4.1451318e-19)
(50.667843 7.1766821 -2.86302e-19)
(50.852375 6.3312465 -3.6288196e-20)
(50.978082 5.4894797 4.8000138e-19)
(51.04581 4.757419 4.8075192e-19)
(51.065657 4.0862048 2.5049911e-20)
(51.07149 3.4716588 6.8657243e-19)
(51.058989 2.923795 0)
(51.033616 2.4157795 -2.2076751e-18)
(51.004 1.9421479 -7.6083953e-21)
(50.973555 1.4961991 6.7119459e-21)
(50.946955 1.0687642 4.084437e-23)
(50.931022 0.64169694 1.3058675e-21)
(50.9203 0.2183905 -1.1806464e-18)
(37.701149 15.607853 0)
(38.260646 15.730919 0)
(38.889976 15.87101 0)
(39.592321 15.994792 0)
(40.371126 16.086533 0)
(41.227375 16.13184 -1.0924814e-19)
(42.158053 16.116188 1.018358e-19)
(43.154085 16.022333 0)
(44.198382 15.829315 -1.0896618e-19)
(45.26373 15.512021 1.1170168e-19)
(46.307555 15.041121 5.7264192e-20)
(47.258606 14.373417 0)
(48.014506 13.426131 1.8082135e-19)
(48.479928 12.096412 -6.0092879e-20)
(48.841893 10.655791 1.694218e-19)
(49.241476 9.7538998 5.133344e-20)
(49.683611 8.7630568 -1.8483998e-19)
(50.031121 7.9429984 -3.6942386e-19)
(50.32853 7.0936919 6.1841481e-19)
(50.568591 6.2684478 5.1511246e-19)
(50.73864 5.4989891 0)
(50.85309 4.7399052 -2.5066593e-20)
(50.909724 4.0763102 2.2172064e-20)
(50.948896 3.4735811 -6.2721895e-19)
(50.961381 2.9266244 0)
(50.953109 2.4199634 1.9552959e-18)
(50.937933 1.9449724 0)
(50.917543 1.4986539 -5.9436046e-21)
(50.899816 1.0702475 -2.6791199e-18)
(50.889114 0.64229765 0)
(50.88249 0.2184314 0)
(38.369159 14.26068 0)
(38.821822 14.366135 0)
(39.339052 14.485193 0)
(39.918599 14.600755 8.7752718e-20)
(40.566261 14.690146 -1.775167e-19)
(41.285452 14.739929 2.1504366e-19)
(42.074339 14.736096 -1.3394995e-19)
(42.922987 14.660146 2.8102901e-20)
(43.811937 14.487063 1.4603137e-19)
(44.711481 14.185448 -7.4220946e-23)
(45.584135 13.709774 -6.1550279e-20)
(46.362223 13.003904 -2.4693852e-19)
(46.961627 12.014601 1.2053511e-19)
(47.482378 10.931533 0)
(48.102071 10.104086 0)
(48.711226 9.278192 9.2562507e-20)
(49.191505 8.5418738 3.2906736e-19)
(49.617788 7.7400034 7.2942059e-19)
(49.967071 6.9642355 -3.2281485e-19)
(50.258798 6.2038663 -5.7043044e-20)
(50.483231 5.4321645 5.0451795e-20)
(50.637436 4.7391944 -3.787481e-19)
(50.735912 4.0570218 1.9672112e-20)
(50.810115 3.4691794 0)
(50.850216 2.9239709 0)
(50.862007 2.4214609 -8.6412224e-19)
(50.862672 1.9462747 0)
(50.853649 1.4999993 0)
(50.845542 1.0710576 1.186999e-18)
(50.841124 0.64246132 -1.0471202e-18)
(50.838934 0.21826974 -9.2361633e-19)
(38.983721 12.488139 -2.2775256e-23)
(39.35574 12.547974 -1.7615451e-19)
(39.774879 12.638468 9.032868e-20)
(40.251019 12.718983 0)
(40.785417 12.787001 1.000746e-23)
(41.374087 12.830861 1.3452893e-19)
(42.014472 12.823989 -4.635221e-23)
(42.699075 12.746446 -3.2325469e-20)
(43.410379 12.573607 -3.2794322e-20)
(44.120923 12.28325 -6.5450637e-20)
(44.803303 11.835485 -6.4043835e-20)
(45.448745 11.249611 0)
(46.10693 10.586226 0)
(46.84009 10.009303 0)
(47.559324 9.439397 0)
(48.171331 8.8633974 -1.6473444e-19)
(48.726118 8.1650259 -1.4603399e-19)
(49.196957 7.496023 -2.5866467e-19)
(49.591121 6.7909962 0)
(49.928339 6.0770871 -2.0213832e-19)
(50.202966 5.383193 0)
(50.407744 4.6791018 3.152925e-19)
(50.545064 4.0421741 0)
(50.654907 3.4560666 0)
(50.724049 2.9219984 0)
(50.759071 2.4135241 0)
(50.77741 1.9452001 0)
(50.781219 1.4997018 -9.2874536e-21)
(50.783328 1.0708114 8.1939808e-21)
(50.786266 0.64192841 1.8521754e-18)
(50.788658 0.21781374 8.1445122e-19)
(39.488893 10.421499 2.6326479e-23)
(39.716204 10.487891 0)
(40.003371 10.574935 1.9789239e-21)
(40.361624 10.65233 1.1869518e-19)
(40.809139 10.672347 -2.5353132e-19)
(41.3003 10.683269 -3.5670202e-20)
(41.823889 10.639613 -2.1484093e-19)
(42.387997 10.546679 5.6286276e-19)
(42.990024 10.399738 -2.7330059e-19)
(43.606164 10.246806 -6.5784045e-20)
(44.245872 10.025457 -2.3051276e-23)
(44.921851 9.7848661 5.7495238e-20)
(45.660974 9.5217294 0)
(46.385209 9.2002626 0)
(47.064595 8.7934615 0)
(47.705225 8.2907451 2.9223771e-19)
(48.272867 7.7588827 0)
(48.790316 7.1737404 -2.290573e-19)
(49.215517 6.5608389 0)
(49.581785 5.9200125 0)
(49.903541 5.2602832 0)
(50.157272 4.6314178 -2.437264e-19)
(50.341902 3.9966151 -3.0727623e-20)
(50.485251 3.431503 -4.6085681e-19)
(50.583116 2.900791 2.3911862e-20)
(50.642454 2.4133453 0)
(50.681609 1.9387499 0)
(50.699805 1.4956316 5.2498786e-19)
(50.712823 1.0691053 9.3333899e-19)
(50.723842 0.64047954 -3.1577526e-21)
(50.730722 0.21701024 -2.814607e-21)
(40.419372 8.1260362 0)
(40.581732 8.2285384 -1.0632209e-20)
(40.753113 8.3683399 1.0838372e-20)
(40.941798 8.5140184 -1.0875645e-20)
(41.158314 8.7180548 -2.0835634e-20)
(41.457438 8.8532606 2.0182126e-20)
(41.822916 8.9873051 -3.8657902e-20)
(42.258549 9.0865224 -3.6273834e-20)
(42.789193 8.968403 0)
(43.347982 8.8928608 -2.4171732e-19)
(43.976649 8.7428149 4.9935648e-19)
(44.647945 8.6838131 -5.1442496e-20)
(45.338014 8.5547117 -9.2599516e-20)
(46.004297 8.3468272 1.6467754e-19)
(46.668723 8.0506255 -2.9216886e-19)
(47.288992 7.7012696 8.9120944e-24)
(47.862379 7.2542304 -1.1454879e-19)
(48.397677 6.7897726 4.0498689e-19)
(48.853353 6.2686101 0)
(49.234952 5.704935 0)
(49.58485 5.1244404 6.9688562e-20)
(49.888743 4.5191288 -7.378535e-24)
(50.122405 3.9439976 -2.7129571e-20)
(50.30368 3.3940741 -2.3972477e-20)
(50.427877 2.8786346 -3.3769481e-19)
(50.512368 2.3883459 0)
(50.574144 1.9308683 0)
(50.609178 1.4919909 -4.5604879e-19)
(50.633989 1.0653237 -1.6345468e-18)
(50.653369 0.63782327 -7.2652078e-19)
(50.664347 0.2157805 0)
(41.196703 6.5351742 0)
(41.368912 6.6107502 1.1917107e-20)
(41.561529 6.7137799 -4.0833281e-19)
(41.776446 6.8201873 4.4036169e-23)
(41.997647 6.9436037 3.8064929e-19)
(42.234426 7.067578 -2.0925774e-20)
(42.495137 7.1696841 3.8866541e-20)
(42.742284 7.2834165 3.5556584e-20)
(42.990932 7.6174026 0)
(43.382219 7.7557919 5.5633555e-20)
(43.912931 7.7195731 -4.8549844e-20)
(44.463466 7.63713 1.7642465e-19)
(45.059779 7.504732 -3.2213978e-19)
(45.695099 7.4389577 1.455437e-19)
(46.338791 7.290447 0)
(46.954398 7.0451238 1.1445555e-19)
(47.501624 6.7199715 2.2984117e-23)
(48.031295 6.3349533 -1.788438e-19)
(48.507844 5.9179317 2.3698825e-19)
(48.904102 5.4381524 6.9715253e-20)
(49.267045 4.9145701 -3.0762196e-19)
(49.598212 4.3959815 -2.1709975e-19)
(49.884653 3.8467416 0)
(50.111231 3.3390887 3.377765e-19)
(50.261473 2.8345279 2.6066654e-19)
(50.36821 2.370507 3.2843343e-20)
(50.454485 1.9127925 0)
(50.509194 1.4809296 0)
(50.546862 1.0588166 -5.672863e-21)
(50.574686 0.63374796 4.9684042e-21)
(50.589043 0.21409582 0)
(41.826803 5.6276187 -8.8501169e-19)
(41.932139 5.7067802 8.3890423e-19)
(42.055145 5.797359 7.8393121e-19)
(42.201099 5.8921131 -7.2366638e-19)
(42.376046 5.9915327 -6.8164865e-19)
(42.588466 6.0970051 6.454535e-19)
(42.853115 6.2061898 -6.0523147e-19)
(43.180845 6.3044685 5.1488415e-19)
(43.499846 6.4272946 -4.5843307e-19)
(43.809465 6.4592387 -5.131716e-20)
(44.049874 6.7682512 4.016707e-19)
(44.434543 6.8661 3.5709228e-19)
(44.934173 6.6776279 -4.157085e-19)
(45.478679 6.5283989 0)
(46.06362 6.4381374 2.2708449e-19)
(46.673038 6.341764 -4.0471155e-19)
(47.214874 6.1250993 8.9448725e-20)
(47.705988 5.8291657 0)
(48.186464 5.4895758 -2.0912684e-19)
(48.598352 5.1190108 1.3180863e-23)
(48.963988 4.680877 4.3424354e-19)
(49.307123 4.1983508 2.3937987e-19)
(49.628336 3.7252074 4.2226813e-20)
(49.902431 3.2598423 -3.7246013e-19)
(50.085521 2.785923 2.9562686e-19)
(50.213703 2.3262836 2.0277241e-19)
(50.322735 1.8877077 1.277328e-20)
(50.398567 1.4670773 3.7173266e-19)
(50.45146 1.0490065 6.4574957e-19)
(50.48781 0.62798339 5.5210268e-19)
(50.504697 0.21191405 0)
(42.5768 4.6612622 -6.5084722e-21)
(42.676349 4.7298256 -2.3980642e-20)
(42.790231 4.8087565 -7.2143427e-19)
(42.919075 4.8914496 1.3402938e-18)
(43.062665 4.9786801 -1.2322863e-18)
(43.219488 5.0695618 5.792852e-19)
(43.386235 5.1607592 0)
(43.563733 5.2490957 0)
(43.775432 5.3240318 -2.5679084e-20)
(44.048124 5.4149468 4.589301e-20)
(44.395849 5.4191144 2.8619023e-19)
(44.710406 5.4063955 -6.1777999e-19)
(44.97361 5.8790559 3.1279952e-19)
(45.397606 5.7542112 0)
(45.876546 5.5889454 0)
(46.42198 5.5221914 0)
(46.976376 5.4812303 -1.5781164e-19)
(47.445524 5.2938867 2.090802e-19)
(47.900247 5.0156995 0)
(48.323665 4.7362681 -1.0855344e-19)
(48.693243 4.3817977 9.577803e-20)
(49.035877 3.985585 -3.3783798e-19)
(49.368414 3.5625363 1.4897069e-19)
(49.675075 3.142925 -9.8570349e-20)
(49.900302 2.7088395 -2.0272864e-19)
(50.050417 2.27713 -2.0432149e-19)
(50.1805 1.8541375 3.378797e-19)
(50.276916 1.4409221 -2.979538e-19)
(50.347399 1.0347987 0)
(50.392743 0.62027661 -4.9450586e-19)
(50.411473 0.20922555 0)
(43.167526 3.9703059 7.6080053e-19)
(43.231331 4.0292122 2.9648592e-24)
(43.305053 4.0957727 1.0113265e-20)
(43.390994 4.1654349 0)
(43.492356 4.2399601 -1.7160682e-20)
(43.613581 4.3204114 4.996752e-19)
(43.760983 4.4076083 -4.5189627e-19)
(43.93874 4.5022221 0)
(44.140988 4.605438 2.2764016e-20)
(44.354593 4.7055597 3.4545889e-19)
(44.575085 4.819279 3.614034e-20)
(44.864265 4.9391983 -5.1407143e-19)
(45.220934 4.755086 5.7009474e-20)
(45.444323 5.113006 1.9637478e-19)
(45.807298 5.0424465 0)
(46.229623 4.8459812 0)
(46.737021 4.7244954 -6.8805902e-20)
(47.229636 4.7246272 1.0601896e-23)
(47.655445 4.5026371 1.0849025e-19)
(48.077434 4.3053769 -2.0786467e-23)
(48.452248 4.0543014 -2.5331619e-19)
(48.800263 3.7265435 7.4467269e-20)
(49.12965 3.3653294 6.5683027e-20)
(49.441492 3.000776 2.8956589e-19)
(49.701042 2.6086075 -6.0043039e-24)
(49.879925 2.2079422 -2.2522103e-20)
(50.029709 1.8009724 -6.3546557e-19)
(50.1447 1.4096372 -1.7513686e-20)
(50.233162 1.0144353 0)
(50.289281 0.61006411 0)
(50.309649 0.20601607 0)
(43.82964 3.2175614 1.3588448e-18)
(43.888877 3.2671779 1.2518339e-18)
(43.95672 3.3232113 -1.1680278e-18)
(44.034015 3.3819842 1.0703304e-18)
(44.121565 3.445202 -9.6460842e-19)
(44.219949 3.513715 8.7626723e-19)
(44.328389 3.5866525 -8.0344169e-19)
(44.446453 3.6620936 0)
(44.579585 3.7377466 0)
(44.739948 3.8143816 5.5723613e-19)
(44.93533 3.8867473 -4.7959631e-19)
(45.137254 3.9374725 0)
(45.348541 4.1247846 -5.0293136e-20)
(45.679112 3.9853723 0)
(45.888443 4.2926363 0)
(46.175209 4.3927445 -6.7876287e-20)
(46.553323 4.1448688 2.965212e-19)
(46.979572 4.0527158 -4.2731193e-19)
(47.404959 3.9498706 -9.4946624e-20)
(47.832058 3.828787 2.5249926e-19)
(48.229096 3.6655788 -2.7321142e-23)
(48.593056 3.4501892 -6.5669873e-20)
(48.928272 3.1497987 0)
(49.221161 2.8276839 0)
(49.489717 2.470204 0)
(49.700568 2.1175729 0)
(49.871182 1.7423695 3.150983e-19)
(50.002586 1.3648375 -1.5440372e-20)
(50.107551 0.98531331 -1.3616835e-20)
(50.176523 0.59633854 -6.0051706e-21)
(50.199532 0.20228119 3.4430409e-19)
(44.356754 2.6794261 1.2130011e-18)
(44.394198 2.7217945 -1.1140047e-18)
(44.437417 2.7690006 8.0919086e-21)
(44.487597 2.8185735 9.6121241e-19)
(44.546394 2.8724287 -8.7074734e-19)
(44.615867 2.9315718 7.8922586e-19)
(44.698724 2.9962648 -1.4225769e-18)
(44.798333 3.0667889 -1.990153e-20)
(44.916292 3.1433561 5.5253342e-19)
(45.050632 3.2245703 0)
(45.200979 3.3081627 -4.8001787e-19)
(45.38546 3.4025549 2.5091931e-20)
(45.602166 3.4201326 3.7730927e-19)
(45.801067 3.5755496 -3.142019e-19)
(46.090228 3.4590057 2.415049e-19)
(46.276109 3.5915147 1.0496851e-24)
(46.508182 3.7796817 2.120056e-19)
(46.83408 3.5704219 -2.3087295e-19)
(47.207743 3.4559391 3.279847e-19)
(47.589584 3.3367468 -7.3495865e-20)
(47.994843 3.2539415 6.5490332e-20)
(48.393781 3.1258809 1.8124538e-23)
(48.741919 2.9177034 1.021066e-19)
(49.023134 2.6388576 0)
(49.277979 2.311375 -1.5877735e-19)
(49.510025 1.9999673 1.4000952e-19)
(49.703594 1.6582589 3.0863229e-20)
(49.85218 1.3069739 -2.7220127e-20)
(49.970435 0.94854523 1.2002719e-20)
(50.053346 0.57807462 3.2292399e-19)
(50.081298 0.19759223 -2.9414487e-19)
(44.947598 2.0833591 2.1800369e-18)
(44.982858 2.1179006 -1.9826795e-18)
(45.02327 2.1561836 -1.4379489e-20)
(45.069362 2.1963665 -6.6112421e-21)
(45.121639 2.2400758 -6.0277405e-21)
(45.180505 2.2881218 1.4087433e-18)
(45.246244 2.3405226 -5.0136023e-23)
(45.319074 2.3968501 -1.1198951e-18)
(45.399785 2.4564446 2.945919e-24)
(45.491352 2.518611 0)
(45.596926 2.5832248 -2.4926543e-20)
(45.711341 2.6436949 -4.4219072e-20)
(45.840777 2.7341542 -1.9582711e-20)
(46.008166 2.7527623 2.771562e-19)
(46.181108 2.9086116 -2.4500991e-19)
(46.454411 2.8483031 2.6978947e-20)
(46.62133 2.9828532 0)
(46.822586 3.1789125 -4.1348438e-20)
(47.139002 3.0855041 -7.2944917e-20)
(47.473359 2.9511872 -6.4098534e-20)
(47.820918 2.883864 0)
(48.168312 2.7570236 -1.01665e-19)
(48.530468 2.6303891 0)
(48.830301 2.4258396 0)
(49.077914 2.1354227 1.3995011e-19)
(49.312481 1.8522318 -2.4682738e-19)
(49.525336 1.5550265 1.0883507e-19)
(49.694748 1.2364285 0)
(49.823877 0.89870661 -1.7987783e-19)
(49.91919 0.55385026 -2.8929706e-19)
(49.954806 0.1911368 0)
(45.38004 1.6812843 -1.9425852e-18)
(45.399848 1.7095509 3.4428337e-21)
(45.422718 1.7404314 1.2765343e-20)
(45.449274 1.7728531 1.5001723e-18)
(45.480406 1.8083163 -1.3611065e-18)
(45.517315 1.8476338 -2.090486e-24)
(45.56165 1.8910653 0)
(45.61573 1.9380878 1.5495473e-24)
(45.679733 1.9896566 8.8959995e-19)
(45.755071 2.0455496 -7.7993314e-19)
(45.844713 2.1039052 2.1996228e-20)
(45.952919 2.1665722 1.9505404e-20)
(46.079713 2.2184171 0)
(46.218952 2.2903947 0)
(46.378515 2.3063405 4.8610736e-19)
(46.542699 2.3885405 2.3816442e-20)
(46.777431 2.3730395 -3.3685679e-19)
(46.978905 2.2859811 3.7167907e-19)
(47.177272 2.5606938 -2.2759183e-19)
(47.452653 2.5614228 -5.7116883e-20)
(47.738962 2.5379916 0)
(48.0051 2.4118942 -8.9441763e-20)
(48.291824 2.2644205 7.9152299e-20)
(48.614581 2.1524674 -8.7382976e-24)
(48.890502 1.9348986 -6.1694762e-20)
(49.123299 1.6840625 1.0878671e-19)
(49.338956 1.4225645 -9.5929938e-20)
(49.531232 1.1428617 -1.6921433e-19)
(49.671079 0.84051728 1.8638692e-20)
(49.77447 0.52196493 -2.4680742e-20)
(49.820067 0.1823872 7.2563783e-21)
(45.883017 1.2644871 -1.7189828e-18)
(45.903198 1.2875037 -6.0783116e-21)
(45.926328 1.312644 1.439565e-18)
(45.952726 1.3392815 0)
(45.982702 1.3686735 -1.2071604e-18)
(46.016421 1.4014665 -8.5092308e-21)
(46.053671 1.4378215 2.2291705e-23)
(46.093731 1.4783473 1.7659132e-18)
(46.138127 1.5221276 -2.1732643e-23)
(46.187063 1.5692315 -7.0994732e-19)
(46.240307 1.620717 0)
(46.300573 1.674575 0)
(46.371844 1.7346101 0)
(46.46038 1.7923581 0)
(46.566021 1.8633678 -2.3814108e-20)
(46.697961 1.9313391 3.3650023e-19)
(46.8638 1.9591122 -2.5995425e-19)
(47.07053 2.0890257 -2.9491969e-19)
(47.259929 2.0154263 2.0084835e-19)
(47.473395 1.9905916 -1.7874419e-24)
(47.717795 2.0369901 0)
(47.938276 2.0631011 1.5829525e-19)
(48.163464 1.9399421 -1.3963682e-19)
(48.409176 1.812519 6.1587594e-20)
(48.702688 1.6860179 0)
(48.953872 1.4976066 -1.4386384e-19)
(49.159765 1.2686746 4.2288996e-20)
(49.361271 1.0315159 1.864443e-19)
(49.5127 0.76613762 9.8656946e-20)
(49.621482 0.48098558 0)
(49.677706 0.16985231 -2.04704e-19)
(46.234413 0.97577471 0)
(46.244397 0.99323407 2.6966626e-21)
(46.255936 1.0120952 0)
(46.269432 1.0320702 0)
(46.285629 1.0540234 -4.1643146e-21)
(46.305312 1.0782853 -1.9273511e-18)
(46.328758 1.1051944 1.7330996e-18)
(46.35685 1.1347778 6.061412e-21)
(46.390755 1.1672162 1.0820312e-20)
(46.43179 1.2028507 -1.2230051e-18)
(46.481133 1.2425866 2.1900597e-18)
(46.542134 1.2846732 -9.7083714e-19)
(46.612708 1.3287327 0)
(46.690338 1.3747502 0)
(46.777412 1.4179667 0)
(46.875052 1.4505612 0)
(46.993864 1.5207215 -1.6371807e-20)
(47.147349 1.4749382 2.6002087e-19)
(47.293181 1.5528591 -2.5491582e-20)
(47.459839 1.7109491 -1.5526905e-19)
(47.673829 1.4371105 1.5646897e-19)
(47.916315 1.5670652 -2.7888953e-19)
(48.106439 1.5613707 2.4668117e-19)
(48.304199 1.5067665 -1.0873477e-19)
(48.527615 1.3797933 1.4383367e-19)
(48.797948 1.2708506 8.4546519e-20)
(48.99964 1.1049413 0)
(49.188492 0.89931474 3.2874237e-20)
(49.350774 0.67923712 -2.2651028e-24)
(49.463315 0.43008882 -1.2787705e-19)
(49.528066 0.1530816 1.8044794e-19)
(46.617462 0.69156637 -2.70156e-18)
(46.629321 0.70483638 2.4379743e-18)
(46.642493 0.71917298 0)
(46.656838 0.73447724 0)
(46.672021 0.75153441 7.3496725e-21)
(46.687929 0.77080895 0)
(46.705404 0.7922252 0)
(46.725161 0.81595068 -1.3741795e-18)
(46.747807 0.84211547 1.2214867e-18)
(46.773876 0.87057307 -1.1342625e-24)
(46.803345 0.90016189 7.5438938e-21)
(46.832344 0.93250754 0)
(46.863275 0.96662621 0)
(46.903924 1.0018084 0)
(46.961427 1.0403381 0)
(47.036723 1.0880695 0)
(47.11847 1.1185859 -1.4434468e-20)
(47.221769 1.1983704 -1.2738153e-20)
(47.384493 1.1754932 -3.1445116e-19)
(47.488295 1.1711791 6.3433548e-19)
(47.63514 1.3239188 -3.1093189e-19)
(47.829853 1.1167893 -3.0380385e-20)
(48.058761 1.1624314 -1.0796336e-19)
(48.248388 1.1870312 9.5891775e-20)
(48.418851 1.1184292 -4.2270907e-20)
(48.640518 1.0197127 -7.4544258e-20)
(48.850279 0.9180863 6.2439813e-24)
(49.025056 0.7537918 5.7973752e-20)
(49.187468 0.57525242 2.5566653e-20)
(49.303006 0.37164958 1.1273476e-19)
(49.372629 0.13207891 7.955495e-20)
(46.86046 0.51702474 -2.3860312e-18)
(46.865603 0.52614075 2.1499437e-18)
(46.871715 0.53589459 -1.9430704e-21)
(46.878998 0.54628797 1.8238747e-18)
(46.887721 0.55781244 -1.6622005e-18)
(46.898166 0.57074894 -1.5022777e-18)
(46.910537 0.58528427 1.1872653e-23)
(46.925026 0.60159735 2.4139422e-18)
(46.941908 0.61988427 -1.0770066e-18)
(46.9617 0.64033097 -3.7446062e-21)
(46.985457 0.6632942 -6.7283034e-25)
(47.01524 0.68938722 5.896017e-21)
(47.052596 0.72038269 0)
(47.099902 0.75459612 9.2355871e-21)
(47.154782 0.79104802 -5.2236221e-19)
(47.216836 0.82478898 4.5415093e-19)
(47.287547 0.86361231 0)
(47.353618 0.88691817 -3.7061755e-19)
(47.433362 0.93316194 2.9725509e-19)
(47.567196 0.92113176 1.7478751e-20)
(47.655441 0.99417445 1.5414738e-20)
(47.789567 1.0173996 2.6898284e-20)
(47.965204 0.89667882 0)
(48.167378 0.85363475 1.679947e-19)
(48.350568 0.89394019 -1.8637925e-19)
(48.506154 0.78006875 -3.2867659e-20)
(48.703687 0.70851102 -5.7959969e-20)
(48.874468 0.60395555 0)
(49.024799 0.45988704 4.8136892e-24)
(49.143474 0.3003663 -7.9529466e-20)
(49.21575 0.10725441 7.5170803e-24)
(47.11153 0.30535489 -4.2196252e-18)
(47.11642 0.31169418 9.3808941e-22)