/*--------------------------------*- C++ -*----------------------------------*\
| =========                 |                                                 |
| \\      /  F ield         | OpenFOAM: The Open Source CFD Toolbox           |
|  \\    /   O peration     | Version:  2406                                  |
|   \\  /    A nd           | Website:  www.openfoam.com                      |
|    \\/     M anipulation  |                                                 |
\*---------------------------------------------------------------------------*/
FoamFile
{
    version     2.0;
    format      ascii;
    arch        "LSB;label=32;scalar=64";
    class       volScalarField;
    location    "0.08";
    object      nut;
}
// * * * * * * * * * * * * * * * * * * * * * * * * * * * * * * * * * * * * * //

dimensions      [0 2 -1 0 0 0 0];

internalField   nonuniform List<scalar> 
2065
(
0.0013954068
0.001661005
0.0019299509
0.0021964801
0.0024648552
0.00073008481
0.00087510774
0.0010462645
0.0012350522
0.001443603
0.0004936045
0.00057729142
0.00069085043
0.00083200479
0.0007347965
0.00087109475
0.0010132305
0.0014233713
0.0016170585
0.0018187489
0.0022413051
0.0025186176
0.0030125251
0.0036748963
0.0042174099
0.00465495
0.0042930744
0.0038378427
0.0032933429
0.0037844658
0.0026560023
0.0031107349
0.0019181579
0.0023050969
0.0026623532
0.0011360893
0.0014232597
0.0017180475
0.002014799
0.00053938169
0.00070757683
0.00091852299
0.0011478965
0.0013919064
0.0032350375
0.0054194184
0.0084831187
0.012016834
0.01522627
0.017181067
0.017295097
0.015901626
0.0137117
0.0034410811
0.0056483479
0.0086335906
0.012021933
0.015072574
0.01688154
0.01691277
0.015503268
0.013315967
0.0036581038
0.0058713044
0.0087944799
0.012055297
0.01494155
0.016571669
0.016520415
0.015090902
0.012921545
0.0038837659
0.006084693
0.0089383354
0.012069972
0.014790173
0.016248954
0.016116207
0.014668191
0.012527476
0.0041138032
0.0062927941
0.009069077
0.012067592
0.014621346
0.015915653
0.015698408
0.0043484954
0.011203395
0.0085680001
0.0059082177
0.0034153378
0.0013341347
0.00015597683
0.010881972
0.0083213738
0.0057335818
0.003314006
0.0012971976
0.00015310476
0.010547306
0.0080629357
0.0055553738
0.003214813
0.0012621132
0.00014995278
0.010214721
0.0078072521
0.0053821446
0.0031195314
0.0012262667
0.00014656186
0.033064279
0.023621886
0.014574845
0.006932041
0.0018640895
8.8157277e-05
0.029996502
0.021225641
0.013000555
0.0061943388
0.0017140632
9.1388963e-05
0.027235674
0.019170781
0.011729175
0.0056376555
0.0016098071
9.343931e-05
0.024804106
0.017427833
0.010695896
0.0052067485
0.0015359799
9.4544528e-05
0.022673914
0.015936617
0.0098272057
0.0048422237
0.0014650772
9.5560718e-05
0.020790623
0.014630382
0.0090660233
0.0045190593
0.0014039697
9.5832667e-05
0.019111159
0.013465421
0.0083765499
0.0042074708
0.0013223258
9.5794615e-05
0.017623155
0.012442561
0.0077797014
0.0039497916
0.0012717534
9.5489577e-05
0.016308923
0.011541889
0.0072516467
0.0037144615
0.00121415
9.5277876e-05
0.015157058
0.010762471
0.0068018975
0.0035212036
0.0011763074
9.5113241e-05
0.014146655
0.010077912
0.0064069238
0.0033481953
0.0011333495
9.5334338e-05
0.013295997
0.0094945768
0.006062714
0.003194837
0.0011017227
9.5788789e-05
0.012603535
0.0090290242
0.0057909038
0.0030711644
0.0010686891
9.6704593e-05
0.012011517
0.0086358564
0.0055658481
0.0029738915
0.0010490141
9.7990173e-05
0.01155333
0.0083436098
0.005405897
0.0029059385
0.0010371169
9.9939511e-05
0.011210587
0.0081326035
0.0052987781
0.0028751158
0.0010338194
0.00010259118
0.010966566
0.0079907762
0.0052414986
0.0028605695
0.0010388204
0.00010597014
0.010815662
0.0079268158
0.0052290575
0.0028761292
0.0010551727
0.00011013549
0.010745257
0.0079087532
0.0052433973
0.0029023783
0.001075668
0.00011508157
0.01075057
0.0079646907
0.0053197896
0.0029704259
0.0011119414
0.00012090459
0.010798019
0.0080398381
0.0053948951
0.0030293689
0.0011445137
0.00012754926
0.010934435
0.0082160572
0.0055709205
0.0031622455
0.0012061522
0.00013518028
0.011044378
0.0083304492
0.0056616011
0.0032197956
0.0012366276
0.00014351284
0.011460096
0.0087751903
0.006063278
0.0035084922
0.0013637876
0.0001535468
0.035648873
0.042718807
0.050305407
0.057280405
0.061972146
0.062746779
0.058882049
0.051477083
0.042410871
0.033382999
0.040302014
0.047699102
0.054390595
0.058730229
0.05915818
0.055098017
0.047733045
0.038898254
0.031289864
0.037962361
0.045085439
0.051456454
0.055448106
0.055552156
0.051390375
0.044126318
0.03561709
0.02930735
0.035700276
0.0425096
0.048535533
0.052181865
0.052008793
0.047809703
0.040729164
0.032623202
0.027433571
0.033517773
0.039989624
0.045658116
0.048971482
0.048577341
0.044400901
0.037578398
0.029926689
0.025687293
0.031428204
0.037534132
0.042849039
0.045848835
0.04529355
0.041193473
0.034680388
0.027499819
0.024009085
0.029450393
0.035170652
0.040119493
0.042842191
0.042184616
0.038202771
0.032028691
0.025315383
0.022407766
0.027547418
0.03294457
0.037517582
0.039968004
0.039263262
0.035437208
0.029617143
0.023356585
0.020914185
0.025741124
0.030823924
0.035105146
0.037299281
0.036532406
0.032889527
0.027436506
0.021611187
0.019459362
0.024017291
0.028800624
0.032831023
0.034867945
0.034073702
0.030588452
0.025471525
0.020057465
0.018204406
0.022464947
0.026939868
0.030704373
0.032620863
0.031869589
0.02857933
0.023766978
0.018703501
0.017036508
0.021026952
0.025226955
0.028757683
0.030552369
0.029863069
0.026806022
0.022307773
0.017561489
0.015893458
0.019640237
0.02360591
0.026957267
0.02868048
0.028059264
0.025216481
0.021035088
0.016600426
0.014770219
0.018310754
0.02208136
0.025302655
0.026997486
0.026476086
0.023848862
0.019935059
0.015771253
0.013717433
0.017070969
0.020671202
0.023800498
0.025501259
0.025102911
0.022697416
0.019042719
0.015114225
0.01270957
0.01589986
0.019357928
0.022434928
0.024173158
0.023916828
0.021727886
0.018327393
0.014605998
0.011728587
0.014774706
0.018121575
0.021170412
0.022983394
0.022888748
0.020914926
0.017758939
0.014223322
0.010742669
0.013665112
0.016929573
0.019974037
0.021904151
0.021992085
0.02023624
0.017317798
0.013954046
0.0097445039
0.012560461
0.015765987
0.018823645
0.020908615
0.021201437
0.019668778
0.016982182
0.013780898
0.0086710733
0.011388429
0.014558943
0.017667576
0.019940192
0.020484681
0.019187988
0.016732022
0.013695484
0.0075716288
0.010234912
0.013388139
0.016555889
0.018999676
0.019828911
0.018776312
0.016543894
0.013666457
0.0062496781
0.0087858218
0.011951475
0.015271325
0.01794743
0.019153475
0.018398019
0.016397256
0.01370752
0.0051989286
0.0077234519
0.010865565
0.014250025
0.017073761
0.018483013
0.018055018
0.016282419
0.013755362
0.0031779033
0.0054257703
0.0085980049
0.012249227
0.015538767
0.017602465
0.017722852
0.016280191
0.014052137
0.00032505217
0.0029299607
0.0077690033
0.013930544
0.020914218
0.028471033
0.00030980354
0.0027384152
0.0072285501
0.012966366
0.019500704
0.026605605
0.00029570681
0.0025563554
0.00673766
0.012091953
0.018209231
0.02485786
0.00028285627
0.0023860789
0.0062863542
0.011281489
0.017004801
0.023238021
0.00027121129
0.002230395
0.0058719889
0.010531656
0.015875762
0.021699343
0.00026060895
0.0020819565
0.0054805577
0.0098275422
0.014818716
0.020266863
0.00025127695
0.0019546146
0.0051417837
0.0091955825
0.013845678
0.01892546
0.00024270285
0.0017925523
0.0047615589
0.0085477045
0.012891929
0.017636429
0.00023536399
0.0016915508
0.0044905535
0.0080206793
0.012055133
0.016459697
0.00022820346
0.0015224258
0.0040933108
0.0073731742
0.011145411
0.015270583
0.0002220456
0.0014162126
0.0038326248
0.0069295162
0.010467064
0.01430557
0.00021751817
0.0013887812
0.0036911691
0.0065721036
0.0098510619
0.013408157
0.0002133952
0.0013067391
0.0034830605
0.0061699633
0.0092137623
0.012512874
0.00020938228
0.0011444872
0.0031567388
0.005673885
0.0085220617
0.011601593
0.00020488091
0.0010311008
0.0028915822
0.0052255464
0.0078768711
0.010746363
0.00020047377
0.00092984736
0.0026387154
0.004790011
0.0072489196
0.0099193008
0.00019685657
0.00082677429
0.0023864338
0.0043621246
0.0066305157
0.0091071428
0.00019072827
0.0007223702
0.0021167825
0.0039062587
0.0059862509
0.0082747062
0.00018236126
0.00060942564
0.0018382327
0.0034389648
0.0053244749
0.0074225912
0.00017053066
0.00048727553
0.0015062593
0.0029007215
0.0045868137
0.0064895945
0.00015739429
0.00035481479
0.0011188725
0.002309925
0.0037794637
0.0054894094
0.00012943752
0.00023539814
0.00067296307
0.0016158705
0.0028859226
0.0043630607
7.3545987e-05
0.00012992141
0.00032153041
0.00090229254
0.0018853414
0.0031802025
2.0298031e-05
7.1088098e-05
0.0001583412
0.0004060864
0.0010371942
0.0019400761
1.8197991e-05
6.6782203e-05
9.8826533e-05
0.0001779859
0.00041835382
0.0010455739
2.1143603e-05
0.00017599072
0.00024475158
0.00021339767
0.00024623385
0.00057209469
1.9550123e-05
0.00019587215
0.00042120584
0.00047052272
0.00040659575
0.00043412887
2.135428e-05
0.00023145647
0.00056047623
0.00078200573
0.00081796001
0.00063311438
2.4280487e-05
0.00024713542
0.00067490999
0.0010664891
0.001281657
0.001296751
2.9014378e-05
0.00031275347
0.00082049006
0.0013405556
0.0017569892
0.0020065365
3.4091578e-05
0.00038932384
0.0010057249
0.00165489
0.0022245848
0.0026545786
3.9511454e-05
0.00046425344
0.0012008744
0.0019804163
0.0026763193
0.0032301077
4.3985348e-05
0.00053152037
0.0013825998
0.0022805748
0.0030792815
0.0037180712
4.7524479e-05
0.00058827805
0.0015337667
0.0025283656
0.0034065352
0.0041044083
4.9652224e-05
0.00062848112
0.0016443865
0.0027093704
0.0036438761
0.0043814836
5.1323419e-05
0.00065608706
0.0017135769
0.0028186825
0.0037836852
0.004541861
5.2560223e-05
0.00066527263
0.001739224
0.0028497743
0.0038210374
0.0045855783
5.0674707e-05
0.00064603392
0.0016942894
0.0027916822
0.003756576
0.0045205769
4.9433079e-05
0.00061545049
0.0016105774
0.0026616052
0.003596549
0.0043477257
4.7125433e-05
0.00057135813
0.0014910956
0.0024692426
0.0033534503
0.0040793164
4.387165e-05
0.00051519853
0.00133717
0.0022210058
0.0030360432
0.0037223246
3.9002937e-05
0.0004442974
0.0011527623
0.0019273791
0.0026574473
0.0032861517
3.3993169e-05
0.00037413211
0.00096782176
0.0016213719
0.0022462398
0.0027888824
2.8756684e-05
0.00026823404
0.00075514476
0.0012968208
0.0018090011
0.0022346393
2.3779918e-05
0.00019531622
0.00057420748
0.00099755209
0.0013726341
0.0016150013
1.8266772e-05
0.00014765655
0.00045616885
0.00076647734
0.00094528463
0.00094686336
1.3983503e-05
0.00013754912
0.00038318022
0.00053290993
0.00058071879
0.00044594943
1.1274931e-05
9.2523528e-05
0.00022607613
0.00024841323
0.00033114214
0.0027950853
0.0074049718
0.013295763
0.00033161535
0.0028624072
0.0076139699
0.013698755
0.020643637
0.028221707
0.00033152301
0.0029190469
0.0077948728
0.014055753
0.021218142
0.029050981
0.00033110494
0.0029729819
0.0079615806
0.014376777
0.021727079
0.029778874
0.00033035534
0.0030219211
0.0081138203
0.014665157
0.022173497
0.030414544
0.00032942377
0.0030678979
0.0082553651
0.014927574
0.022570306
0.030959754
0.00032850323
0.0031132211
0.008388794
0.015165504
0.022919752
0.031424848
0.00032731875
0.0031575781
0.0085085485
0.015370969
0.023212891
0.031808399
0.00032379586
0.0031835444
0.0085898596
0.015522879
0.023438685
0.032108463
0.00032114189
0.0032092401
0.0086589922
0.01564368
0.023613485
0.03233809
0.00031810735
0.0032336136
0.0087196139
0.015738831
0.023745977
0.032502901
0.00031474795
0.0032517584
0.0087620962
0.015806404
0.023834908
0.032603252
0.00031250208
0.0032686814
0.0088031632
0.015859685
0.023885543
0.032639163
0.00031488729
0.0032863028
0.008851429
0.01589574
0.023891937
0.032607077
0.00030914608
0.003277055
0.0087994273
0.015824946
0.023803081
0.032485329
0.00031092207
0.0032559892
0.0087439074
0.015732801
0.023671065
0.032300706
0.00031385499
0.0032369897
0.0086951272
0.015642227
0.023526134
0.032083643
0.0003172263
0.0032159394
0.0086414911
0.015545732
0.023367511
0.031841052
0.00032040356
0.0031948102
0.0085839313
0.015439509
0.023195469
0.031574315
0.00032371237
0.0031786328
0.0085354571
0.015335146
0.023013116
0.031284689
0.00032776158
0.0031588122
0.0084754659
0.01521065
0.02279797
0.030943912
0.00033014452
0.0031292077
0.0083862318
0.015042351
0.022527271
0.030527053
0.0003319929
0.0030860804
0.0082631146
0.014826242
0.022207298
0.030061425
0.00033484244
0.0031040502
0.0082820711
0.014785734
0.02206467
0.029799396
7.748085e-06
5.0115267e-05
8.0124566e-06
0.00032903789
0.00033031445
0.0027277088
0.036418394
0.037090044
0.037931314
0.038682789
0.039319004
0.039877148
0.04038161
0.040831989
0.041223331
0.041538962
0.041751088
0.04185459
0.041848775
0.041731596
0.041504592
0.041168193
0.040719828
0.040151665
0.039460246
0.038643379
0.037688923
0.036585157
0.035319085
0.042797666
0.044229432
0.045577035
0.046737005
0.047742605
0.048644941
0.049454141
0.05016755
0.050776333
0.05125668
0.051590858
0.051782024
0.051817223
0.051690951
0.051405055
0.050957464
0.050344456
0.049568552
0.048623661
0.047499031
0.04618525
0.044664701
0.042891886
0.050149502
0.052181509
0.053965545
0.055511508
0.056888831
0.058130706
0.059239554
0.060212565
0.061037043
0.061686525
0.062154668
0.062443325
0.062534341
0.062420019
0.062100394
0.06157299
0.060834536
0.05987893
0.058714425
0.057326593
0.055696321
0.053802099
0.051584545
0.058310188
0.060803809
0.062970875
0.064889853
0.066622308
0.068181796
0.06957682
0.07080098
0.071834146
0.07265586
0.073267058
0.073664594
0.073828622
0.073750788
0.073428447
0.072857972
0.072036265
0.070957393
0.069617735
0.068021389
0.066141613
0.063947316
0.061372766
0.067070517
0.069917228
0.072424266
0.074682701
0.07672627
0.078574886
0.080231706
0.08168676
0.082915803
0.083906834
0.084664999
0.085183558
0.085441114
0.085430183
0.08514562
0.084582092
0.083734715
0.082597081
0.081160665
0.079424635
0.077374734
0.074972515
0.07215341
0.076132885
0.079251362
0.082046323
0.084580228
0.086886433
0.088978897
0.090855782
0.092506768
0.093911597
0.095061718
0.095966584
0.09661713
0.096991316
0.097082881
0.096884503
0.096389003
0.09558927
0.094477051
0.093041103
0.091267557
0.089148944
0.086653709
0.083719212
0.085096984
0.088412533
0.091408736
0.094139064
0.096631931
0.09889636
0.10093187
0.10272918
0.10427709
0.10556885
0.10661608
0.10740716
0.10792386
0.10815902
0.10810371
0.10774862
0.10708381
0.1060982
0.10477824
0.1031056
0.10105841
0.09861448
0.095721784
0.09340832
0.096799645
0.099869308
0.10267556
0.10524246
0.1075816
0.1096934
0.11157246
0.11321733
0.11462251
0.11580193
0.11674132
0.11742824
0.11785435
0.11800941
0.11788172
0.117458
0.11672313
0.1156595
0.11424532
0.11245308
0.11024949
0.10759423
0.10018899
0.10346436
0.10642927
0.10914795
0.11164346
0.11393188
0.11601213
0.11788928
0.11956717
0.12104573
0.12233968
0.12343318
0.12432031
0.12499222
0.12543738
0.1256415
0.12558739
0.12525487
0.12462053
0.123657
0.12233192
0.12060685
0.11843546
0.10406939
0.10697567
0.1095992
0.11201464
0.11424665
0.11631683
0.1182255
0.11999132
0.12161439
0.1231144
0.12449449
0.12574833
0.12687131
0.12785485
0.12868634
0.12934885
0.12982091
0.13007638
0.13008444
0.12980953
0.12921141
0.12824511
0.12685999
0.10294013
0.10512016
0.10708862
0.10891967
0.11064354
0.11228874
0.11385762
0.11537499
0.11685005
0.11830964
0.11975153
0.12117686
0.12258226
0.12395952
0.12529522
0.12657021
0.12775901
0.12882924
0.12974147
0.1304496
0.13090203
0.13104283
0.13081181
0.093397337
0.094423024
0.095365699
0.096294508
0.097249421
0.098258355
0.099323721
0.10046458
0.10171786
0.10308912
0.10458657
0.10621339
0.10796754
0.10984156
0.11182218
0.11388963
0.1160166
0.11816674
0.12029304
0.12233722
0.12423213
0.12590697
0.12728976
0.070433514
0.069942679
0.069527895
0.06928593
0.06925415
0.069466256
0.069905042
0.070614241
0.071609931
0.072897914
0.074486693
0.076380217
0.078576289
0.08106721
0.083840465
0.08687881
0.090159753
0.093653227
0.097316487
0.10108647
0.1048718
0.10855157
0.041054027
0.040004224
0.039297027
0.038894081
0.038755375
0.038852867
0.039152714
0.03966532
0.040377528
0.041297588
0.04243993
0.043823278
0.045463156
0.047375617
0.049578105
0.052088976
0.054931699
0.058138279
0.061749776
0.065812601
0.070361338
0.0753344
0.019188155
0.018840463
0.018667126
0.01861169
0.018665798
0.01880953
0.019038887
0.019359408
0.019775914
0.020296216
0.020931305
0.021694798
0.022598454
0.02365465
0.024880489
0.02628515
0.027885377
0.029706359
0.031785713
0.034188845
0.037066183
0.040711996
0.0091109471
0.0092638059
0.0093879247
0.0095117938
0.0096488163
0.0097961551
0.0099550598
0.010129865
0.010326894
0.01055389
0.01081989
0.011134891
0.011506295
0.011940567
0.012449594
0.013040551
0.013728748
0.014532665
0.015477416
0.016598514
0.017957424
0.019664989
0.005766157
0.0060351831
0.0062370071
0.0064038168
0.0065502056
0.0066779674
0.0067889538
0.0068868175
0.0069765821
0.0070645313
0.007157981
0.0072644787
0.0073868951
0.0075258567
0.0076712431
0.0078419128
0.0080479142
0.0082966976
0.008600989
0.0089836385
0.0094767284
0.01011712
0.0049710372
0.0052593257
0.0054869692
0.0056696146
0.0058184796
0.0059349685
0.0060200965
0.0060770299
0.0061104325
0.0061258477
0.0061294469
0.0061292119
0.006122286
0.006115952
0.0061191889
0.0061337424
0.0061594189
0.0061949181
0.0062443205
0.006331351
0.0064814418
0.0066867061
0.0047905092
0.0050694339
0.0052708615
0.0054158935
0.0055234433
0.0056019305
0.0056570999
0.0056942651
0.005718475
0.0057343873
0.0057413472
0.0057323234
0.0057188055
0.0057084929
0.0057050265
0.0057108234
0.0057266183
0.0057467399
0.0057694704
0.0057817039
0.0057592402
0.0057262504
0.004425759
0.0046287364
0.0047758556
0.0048861397
0.0049718294
0.0050321741
0.0050690993
0.0050864243
0.0050890017
0.005082515
0.0050733278
0.0050688979
0.0050733416
0.0050813385
0.0050875803
0.0050895048
0.0050899265
0.0050997046
0.0051190349
0.005148379
0.0051893839
0.0052377596
0.0042917154
0.0044921309
0.0046339377
0.0047304921
0.0047935444
0.0048326273
0.0048551118
0.0048663045
0.0048701671
0.004869517
0.0048662638
0.0048613537
0.0048554768
0.0048516029
0.0048530369
0.0048612068
0.0048748647
0.0048893459
0.0048981979
0.0048988173
0.0048979906
0.0049020608
0.0040912595
0.0042273579
0.0043198674
0.0043855254
0.0044313313
0.0044615812
0.0044803315
0.0044909628
0.0044963257
0.0044985703
0.0044992271
0.004499361
0.004499695
0.0045006833
0.0045025121
0.0045053043
0.0045092499
0.0045161452
0.0045267167
0.0045397482
0.0045496005
0.004558112
0.0040095506
0.0041432451
0.0042362727
0.0042953261
0.0043331241
0.0043566631
0.004370449
0.0043778751
0.004381449
0.0043829213
0.0043834652
0.0043838455
0.0043845453
0.0043858595
0.0043879747
0.0043906798
0.0043928942
0.0043923785
0.0043895713
0.0043863514
0.0043844873
0.0043852026
0.003936291
0.0040334951
0.004098869
0.0041443065
0.0041747618
0.004194015
0.0042054028
0.0042117023
0.0042149182
0.0042164377
0.0042171495
0.0042175694
0.0042179606
0.0042184646
0.0042194262
0.0042210824
0.0042233339
0.0042260488
0.0042279767
0.004228569
0.0042290837
0.0042301338
0.0039151686
0.0040049591
0.0040659114
0.0041034839
0.004126045
0.0041391614
0.004146503
0.0041505322
0.0041527289
0.0041540255
0.0041549589
0.0041558019
0.0041566479
0.0041574258
0.0041577704
0.0041573985
0.004156602
0.0041556118
0.004154721
0.0041540134
0.0041534977
0.0041533197
0.0039262603
0.0039934076
0.0040366619
0.0040633103
0.0040789641
0.0040876077
0.0040920529
0.004094052
0.0040947641
0.0040948661
0.0040946923
0.0040943975
0.0040940488
0.0040936699
0.004093272
0.0040929033
0.004092483
0.0040920783
0.0040918435
0.0040917942
0.0040919952
0.0040924714
0.0039609225
0.0040065814
0.0040339704
0.004049207
0.0040572625
0.0040613879
0.0040634617
0.0040644906
0.0040649388
0.0040651395
0.004065228
0.004065257
0.0040652542
0.0040652264
0.0040651566
0.0040650213
0.0040648335
0.0040646598
0.0040645761
0.0040646383
0.0040648575
0.0040651416
0.0039844592
0.004017186
0.0040337324
0.0040418717
0.0040458577
0.004047899
0.0040489304
0.0040494043
0.0040496704
0.0040498013
0.0040498629
0.0040498885
0.004049899
0.0040498976
0.0040498852
0.004049864
0.0040498385
0.0040498325
0.0040498733
0.0040499794
0.0040501497
0.0040503489
0.0040156095
0.004029313
0.0040362233
0.0040395715
0.0040415002
0.0040427446
0.0040435308
0.0040440181
0.0040443105
0.0040444939
0.0040446251
0.0040447344
0.0040448323
0.0040449136
0.0040449771
0.0040450204
0.004045039
0.0040450516
0.0040450924
0.0040451834
0.0040453276
0.0040454925
0.0040304978
0.0040361088
0.0040391374
0.0040407211
0.0040413332
0.0040412001
0.0040409476
0.0040408081
0.0040406965
0.0040406334
0.0040406189
0.0040406419
0.0040406906
0.0040407486
0.0040408016
0.0040408414
0.0040408638
0.0040408833
0.0040409337
0.0040410144
0.0040411289
0.0040412668
0.0040407649
0.0040419057
0.0040424991
0.0040427987
0.0040429481
0.0040430154
0.0040430292
0.0040430176
0.0040429957
0.0040429702
0.0040429458
0.0040429256
0.0040429113
0.004042903
0.0040428993
0.0040428976
0.0040428932
0.0040428764
0.0040428252
0.0040427336
0.004042665
0.0040426338
0.044651007
0.053896311
0.061542579
0.06557592
0.065043207
0.06056195
0.053719145
0.046369555
0.039915972
0.044976112
0.054645076
0.062899395
0.067746944
0.068215815
0.064784324
0.058926181
0.052307804
0.04603955
0.045303544
0.055370493
0.064252793
0.069982202
0.071534013
0.069244525
0.064434305
0.058630719
0.052888669
0.04547198
0.055953292
0.065496052
0.07217136
0.074893526
0.073852802
0.070208033
0.065373829
0.060404994
0.04527453
0.056215636
0.066472
0.0741664
0.078157173
0.078488409
0.076153201
0.072450995
0.068455064
0.044449155
0.055902166
0.066939573
0.075739157
0.081108227
0.082945672
0.082074024
0.079666642
0.076770512
0.04260108
0.054618464
0.066519932
0.076530782
0.083404524
0.086891681
0.087634578
0.086665941
0.084970431
0.038994543
0.051677074
0.064578948
0.075954346
0.084493158
0.089790918
0.092300292
0.092908428
0.092516615
0.032473695
0.045949035
0.060056182
0.07302633
0.083454767
0.090769126
0.0952256
0.097552426
0.098570078
0.021446951
0.035711815
0.05129856
0.066189303
0.07883775
0.088439441
0.095059779
0.099267995
0.10180543
0.0084949637
0.019836768
0.035760342
0.052777989
0.068169861
0.080461441
0.089566495
0.095901553
0.10014083
0.0023388985
0.0069587948
0.016739311
0.031607585
0.048034751
0.063036059
0.075064609
0.083936472
0.090157587
0.00061930393
0.0018910428
0.0057401226
0.013102173
0.024230396
0.037314705
0.049418241
0.059357105
0.066966742
0.0004781039
0.00087141537
0.0018872662
0.0046667063
0.0096840567
0.016467812
0.024048672
0.031520415
0.038027252
0.00048634548
0.00079534467
0.0013097224
0.0022859092
0.004041735
0.0068915357
0.010463264
0.014076415
0.017387189
0.00049789026
0.00082984589
0.0013193576
0.0019434861
0.0027915025
0.0040955409
0.0054563512
0.0068855821
0.008218943
0.0005178084
0.00083382912
0.001338604
0.0020312991
0.0027297252
0.0033963281
0.0041150077
0.0047819297
0.0053354533
0.00054109101
0.00087759998
0.0013522669
0.0019518433
0.0027008004
0.0034621205
0.0040504952
0.0044471136
0.0047161008
0.00056195478
0.00089001566
0.001386776
0.0020160012
0.0026489388
0.0032469721
0.0038057183
0.0042563949
0.0045384257
0.0005877266
0.00092613422
0.0013859324
0.0019567977
0.0026032241
0.0032134136
0.0037013023
0.0040386782
0.0042403508
0.00061030346
0.00094884054
0.0014301263
0.0020092177
0.0025878175
0.0031103347
0.0035530743
0.0038876079
0.0041005497
0.0006471789
0.00099783396
0.0014647612
0.0020196426
0.0026027212
0.0031235482
0.0035195993
0.0037925049
0.0039520762
0.00069668452
0.0010624583
0.0015489592
0.002106676
0.0026469341
0.0031071424
0.0034648602
0.0037161089
0.0038722327
0.00073273935
0.001106252
0.0015911004
0.0021407805
0.0026816243
0.0031365178
0.0034716303
0.0036939608
0.003826105
0.00081992731
0.001222463
0.0017320918
0.0022896722
0.0028022281
0.0032087401
0.0034994194
0.0036930448
0.0038130339
0.00087555815
0.0012966099
0.0018199305
0.0023821964
0.0028963009
0.0032974762
0.0035715717
0.003742497
0.0038430133
0.0010232045
0.0014880453
0.0020477539
0.0026185197
0.0031075955
0.0034628068
0.0036899679
0.0038240886
0.00389989
0.0011295794
0.0016250962
0.0022046881
0.0027766749
0.0032461528
0.0035700918
0.0037664708
0.0038768923
0.0039369596
0.0014728301
0.0020497357
0.0026646496
0.0031974406
0.003570121
0.0037900564
0.0039061158
0.00396455
0.0039936179
0.0018393943
0.0024598433
0.0030548175
0.0035048379
0.0037777336
0.0039171178
0.0039810183
0.0040088029
0.0040213556
0.0030359162
0.0034597166
0.0037403222
0.0038981581
0.0039766515
0.0040126289
0.0040284346
0.0040353449
0.0040384788
0.035052604
0.035092092
0.035206355
0.035150464
0.034690305
0.033568406
0.031413685
0.027466577
0.020609679
0.010255129
0.0029368254
0.00058276636
0.0002806692
0.00027002685
0.00027862758
0.00028451978
0.00030226283
0.00031560551
0.00033626659
0.00035235499
0.00037344733
0.00039741535
0.00043311574
0.00045836914
0.00051950162
0.00055721775
0.0006617024
0.00073558978
0.00098084574
0.0012722706
0.0024473109
0.025269439
0.025109629
0.025114284
0.024937109
0.024327238
0.023035961
0.020746554
0.01673347
0.0099715367
0.0032044579
0.00062384801
0.00015397487
0.00013419275
0.00013391062
0.00013917212
0.00014301123
0.00015338859
0.00016243961
0.00017541936
0.00018622123
0.00020029954
0.00021351418
0.00023573511
0.00025098768
0.00028736485
0.0003090723
0.00037034552
0.00041318566
0.00055506121
0.00074874457
0.0016347959
0.015800848
0.015498408
0.015460519
0.015222835
0.014554312
0.013208278
0.010953543
0.0070989306
0.0025822535
0.00054955991
7.7828208e-05
5.2197775e-05
5.1700551e-05
5.2155282e-05
5.4325094e-05
5.6840964e-05
6.1732606e-05
6.6358814e-05
7.2679022e-05
7.850945e-05
8.5155883e-05
9.2010292e-05
0.00010242565
0.00011053486
0.00012783731
0.00013883322
0.00016625389
0.00018766524
0.00025013379
0.00034937661
0.00081879224
0.0076349835
0.00731233
0.0072536504
0.0069832592
0.0063729321
0.005173886
0.0031921809
0.0011826042
0.00025306663
3.1459708e-05
1.3973037e-05
1.3429452e-05
1.3392106e-05
1.3463986e-05
1.3765752e-05
1.4394228e-05
1.521143e-05
1.6637147e-05
1.8197867e-05
2.040074e-05
2.2158623e-05
2.5024424e-05
2.7656119e-05
3.1621388e-05
3.6805181e-05
4.1854486e-05
4.9843832e-05
5.8309515e-05
7.6987502e-05
0.00010989925
0.00025405589
0.0020693841
0.0018809698
0.0018037191
0.0015262386
0.0011423187
0.00059097773
0.0002446894
5.0955713e-05
9.2614307e-06
5.7324185e-06
5.3516707e-06
5.0879875e-06
4.8388844e-06
4.5781579e-06
4.3088608e-06
4.0131317e-06
3.6084341e-06
3.3308726e-06
3.047441e-06
2.835056e-06
2.7018575e-06
2.6668063e-06
2.7433589e-06
2.9944756e-06
3.6882603e-06
4.3674326e-06
5.6127378e-06
7.1933964e-06
1.0435234e-05
1.63648e-05
3.540776e-05
7.9375034e-05
6.6942751e-05
5.4189436e-05
3.8299323e-05
2.3362338e-05
1.2275957e-05
8.641111e-06
7.9343671e-06
8.1175157e-06
8.3360541e-06
8.4570029e-06
8.454324e-06
8.3183625e-06
8.0658487e-06
7.6499693e-06
6.4830794e-06
5.4639876e-06
4.764606e-06
3.8497658e-06
2.9559396e-06
2.235205e-06
1.5390145e-06
9.5027331e-07
5.5985744e-07
3.7304369e-07
2.7572455e-07
1.9076773e-07
1.4827515e-07
1.6966062e-07
3.4025064e-07
1.0569846e-06
)
;

boundaryField
{
    Side1
    {
        type            empty;
    }
    Inlet
    {
        type            calculated;
        value           uniform 0.0040389652;
    }
    Side2
    {
        type            empty;
    }
    Outlet
    {
        type            zeroGradient;
    }
    Botwall
    {
        type            nutkWallFunction;
        blending        stepwise;
        value           nonuniform List<scalar> 
59
(
1.4661559e-05
1.4259015e-05
1.3816889e-05
1.3339841e-05
5.0831994e-06
5.5476077e-06
5.837766e-06
5.9931614e-06
6.1312089e-06
6.1677266e-06
6.149522e-06
6.0997831e-06
6.0581442e-06
6.0284684e-06
6.0507844e-06
6.1115013e-06
6.2381726e-06
6.4188974e-06
6.6972582e-06
7.077703e-06
7.5626015e-06
8.1600366e-06
8.8681856e-06
9.6997049e-06
1.0645911e-05
1.1728618e-05
1.2906942e-05
1.431937e-05
3.8025112e-06
1.9647119e-06
3.3528017e-08
0
0
0
0
0
0
0
0
0
0
0
0
0
0
0
0
0
0
0
0
0
0
0
0
0
0
0
0
)
;
    }
    Cyli
    {
        type            nutkWallFunction;
        blending        stepwise;
        value           nonuniform List<scalar> 
76
(
3.7773979e-05
3.5737922e-05
3.3843531e-05
3.2105824e-05
3.0521755e-05
2.907132e-05
2.7786379e-05
2.6604628e-05
2.558077e-05
2.4585685e-05
2.3732775e-05
2.3083073e-05
2.2507116e-05
2.1949012e-05
2.1327903e-05
2.0724064e-05
2.0227223e-05
1.9384813e-05
1.8238183e-05
1.6604424e-05
1.4788414e-05
1.0851237e-05
2.7935589e-06
0
0
0
0
0
0
0
0
0
0
0
0
0
0
0
0
0
0
0
0
0
0
0
0
0
3.8537574e-05
3.8617804e-05
3.8622752e-05
3.8584083e-05
3.8500858e-05
3.8392617e-05
3.8284213e-05
3.8138735e-05
3.7683158e-05
3.7341038e-05
3.6946966e-05
3.6508124e-05
3.6214393e-05
3.6530426e-05
3.5770771e-05
3.6003126e-05
3.6386574e-05
3.6826243e-05
3.7238479e-05
3.7665972e-05
3.8189827e-05
3.849238e-05
3.8722005e-05
3.9081202e-05
0
0
3.8223703e-05
3.8410453e-05
)
;
    }
    procBoundary0to1
    {
        type            processor;
        value           nonuniform List<scalar> 
44
(
0.0027323587
0.0027323587
0.0016667237
0.0010094425
0.0010094425
0.0011901122
0.0011901122
0.0020046198
0.0027577515
0.0027577515
0.0033617312
0.0033617312
0.0040640959
0.0046189547
0.0046375459
0.0046375459
0.0049333442
0.0051033808
0.0051522665
0.0050919635
0.0049226284
0.0049226284
0.0050880803
0.0047583396
0.0043307145
0.0043307145
0.0041827076
0.014236539
0.012131748
0.0064888048
0.0091794645
0.012042742
0.014426207
0.015574071
0.014236539
0.015274146
0.0064888048
0.0045869383
0.0098825869
0.0075523778
0.0052100342
0.0030257824
0.001194468
0.00014293394
)
;
    }
    procBoundary0to2
    {
        type            processor;
        value           nonuniform List<scalar> 
55
(
0.00038675302
0.00046426176
0.00056248594
0.00068225009
0.0008290096
0.00030890558
0.00031482092
8.9088947e-05
0.00030890558
0.00013282168
0.0071991116
0.020019366
0.012912971
0.020019366
0.027396009
8.9088947e-05
3.9658309e-05
3.9658309e-05
4.2379757e-05
0.00032721438
0.0026570924
0.0026570924
0.0071991116
0.034011591
0.040857764
0.048971701
0.058309255
0.06879772
0.080234545
0.092281408
0.10440219
0.11574483
0.12497967
0.13012684
0.12827949
0.11202517
0.11202517
0.080589567
0.045161661