/*--------------------------------*- C++ -*----------------------------------*\
| =========                 |                                                 |
| \\      /  F ield         | OpenFOAM: The Open Source CFD Toolbox           |
|  \\    /   O peration     | Version:  2406                                  |
|   \\  /    A nd           | Website:  www.openfoam.com                      |
|    \\/     M anipulation  |                                                 |
\*---------------------------------------------------------------------------*/
FoamFile
{
    version     2.0;
    format      ascii;
    arch        "LSB;label=32;scalar=64";
    class       volScalarField;
    location    "0.006";
    object      alphat;
}
// * * * * * * * * * * * * * * * * * * * * * * * * * * * * * * * * * * * * * //

dimensions      [1 -1 -1 0 0 0 0];

internalField   nonuniform List<scalar> 
23203
(
0.013192152
0.012516177
0.011739643
0.010854669
0.0098656455
0.008799165
0.0077157387
0.0067072763
0.0058802435
0.0053101694
0.0049971553
0.004872796
0.0048520731
0.0048714772
0.0048943658
0.0049042889
0.0048918538
0.0048533269
0.0047884378
0.0046933669
0.0045734622
0.0044362369
0.0042863014
0.013703502
0.012946112
0.01209245
0.011137417
0.010088187
0.0089739313
0.0078557199
0.0068240353
0.0059815929
0.0053990792
0.0050737112
0.0049371261
0.0049050915
0.0049144156
0.0049280892
0.0049296298
0.0049095629
0.0048636858
0.0047919909
0.0046920141
0.0045684597
0.0044282853
0.0042764112
0.014220027
0.013381094
0.012449336
0.011423756
0.010313299
0.0091499338
0.007995635
0.0069399949
0.0060819058
0.0054871165
0.0051497403
0.0050012099
0.004958006
0.0049572756
0.0049617734
0.0049549534
0.0049272216
0.0048740227
0.004795793
0.0046910545
0.004564058
0.004421208
0.0042675296
0.014746449
0.013825105
0.012814431
0.011717034
0.010543596
0.0093296817
0.0081376935
0.0070566483
0.0061819895
0.0055745913
0.005225264
0.0050649375
0.0050106666
0.0049999048
0.0049952551
0.0049800984
0.0049447017
0.0048842739
0.0047997743
0.0046904587
0.0045602639
0.0044151062
0.0042600236
0.015284682
0.014279704
0.013189297
0.012018094
0.01078064
0.0095144693
0.0082831723
0.0071751418
0.0062826747
0.005661989
0.0053005093
0.005128387
0.0050630827
0.0050422897
0.0050285132
0.0050050555
0.0049620319
0.0048945114
0.0048040177
0.0046903647
0.0045573773
0.004411187
0.01583736
0.014747973
0.01357669
0.012330365
0.011027282
0.0097066163
0.0084337987
0.0072967706
0.006384889
0.0057499149
0.0053758404
0.0051917743
0.0051154013
0.005084544
0.005061655
0.005029934
0.0049794176
0.0049049267
0.004808711
0.0046909431
0.0045553241
0.0044074473
0.016405949
0.01523145
0.013977859
0.012655376
0.011284885
0.0099078134
0.008591216
0.0074228966
0.0064896472
0.0058390637
0.0054517122
0.0052554091
0.005167848
0.0051268538
0.0050950534
0.0050549065
0.0049969389
0.0049159217
0.0048140792
0.0046923711
0.0045541307
0.0044042546
0.016993153
0.015733395
0.014396812
0.012996746
0.011556619
0.010120628
0.0087575095
0.0075551434
0.006598135
0.0059302521
0.005528684
0.0053197116
0.0052207677
0.0051695431
0.0051288795
0.0050802083
0.0050148323
0.0049277905
0.0048204236
0.0046948341
0.0045538813
0.0044017878
0.017603227
0.016257627
0.014836993
0.013357913
0.011846014
0.010348226
0.0089352751
0.0076954956
0.0067117699
0.0060244377
0.0056073929
0.0053851317
0.0052745258
0.0052129765
0.0051633501
0.0051062277
0.0050335833
0.004940732
0.0048279846
0.0046985132
0.0045547204
0.0044002788
0.018238115
0.016806341
0.015301205
0.013741752
0.012156067
0.010593606
0.0091272335
0.0078461727
0.0068321962
0.006122753
0.0056885971
0.0054521999
0.0053295461
0.0052575632
0.0051988353
0.0051333733
0.005053613
0.0049550116
0.0048370218
0.0047036252
0.0045568638
0.0044000167
0.018902055
0.017384592
0.015794355
0.014152957
0.012491055
0.010860598
0.0093366839
0.0080098306
0.0069613827
0.0062265578
0.0057732123
0.0055215664
0.0053863135
0.0053037025
0.0052357633
0.005162212
0.0050754301
0.0049708825
0.0048477809
0.0047104062
0.0045605911
0.0044013324
0.01959931
0.017996331
0.016320656
0.014596142
0.012855658
0.01115362
0.0095675248
0.008189654
0.007101718
0.0063375187
0.0058623745
0.0055940491
0.0054454872
0.0053519247
0.0052745686
0.0051929912
0.0050994816
0.0049889925
0.00486057
0.0047191451
0.0045662249
0.0044045769
0.020333515
0.018645794
0.01688464
0.015076045
0.013254765
0.011477488
0.0098241791
0.0083893716
0.0072560621
0.0064576564
0.0059574655
0.0056706363
0.0055078621
0.0054029023
0.0053159033
0.0052264204
0.0051254996
0.0050091334
0.0048762205
0.0047303155
0.0045742053
0.004410154
0.021110219
0.019338718
0.017492212
0.015598605
0.013694256
0.011837871
0.010111856
0.0086134227
0.007427857
0.0065894047
0.006060112
0.0057524211
0.0055742274
0.0054572608
0.0053603908
0.0052627258
0.0051544726
0.0050321988
0.004894687
0.0047443166
0.004584943
0.0044184632
0.021935546
0.020081354
0.018149788
0.016170379
0.014180745
0.012241273
0.010436657
0.0088671268
0.0076213184
0.0067357931
0.0061723546
0.0058407777
0.0056455792
0.0055158012
0.0054087343
0.0053025189
0.0051868996
0.0050588934
0.0049166096
0.0047615973
0.0045988563
0.0044298998
0.022814415
0.020879157
0.018863368
0.016797901
0.014721197
0.012694858
0.010805567
0.009156793
0.0078415994
0.0069006033
0.0062967615
0.0059374289
0.0057231426
0.0055795193
0.0054617345
0.0053465762
0.0052236564
0.0050893472
0.0049421168
0.0047830071
0.0046164836
0.004444937
0.023754535
0.021739568
0.019640374
0.017488814
0.01532357
0.013206814
0.011226705
0.0094899408
0.0080950103
0.0070885594
0.0064365545
0.0060445002
0.0058083717
0.0056495019
0.0055202757
0.0053958174
0.0052651961
0.0051241804
0.0049721059
0.004809088
0.004638362
0.0044640567
0.024764243
0.022670991
0.02048944
0.018252018
0.015997063
0.013786602
0.011709558
0.0098755671
0.0083893227
0.0073056263
0.0065958484
0.0061646892
0.005903079
0.0057270629
0.0055854033
0.0054511918
0.0053123734
0.0051644847
0.0050068715
0.0048399104
0.0046655463
0.0044878719
0.025853175
0.023683067
0.021420274
0.019097448
0.016751969
0.014444917
0.012265066
0.010324348
0.0087340819
0.007559363
0.0067799485
0.0063014598
0.0060095373
0.0058137956
0.0056583498
0.0055136673
0.005366183
0.0052110565
0.0050474459
0.0048760591
0.0046983714
0.0045172084
0.027032852
0.024787085
0.022444065
0.020036386
0.017599886
0.015193838
0.012905769
0.010848867
0.0091409694
0.0078593755
0.0069957678
0.0064593381
0.0061306575
0.0059116875
0.0057406232
0.0055844661
0.005427842
0.0052649806
0.0050947172
0.0049181046
0.0047372168
0.004553032
0.028317005
0.025996318
0.02357379
0.021081751
0.018553959
0.016047022
0.013645986
0.011463865
0.0096242111
0.008217888
0.0072524154
0.0066443626
0.0062702607
0.006023241
0.0058340106
0.0056650043
0.0054984517
0.0053274168
0.005150062
0.0049678528
0.0047819943
0.0045948946
0.029721863
0.027326385
0.024824601
0.022248467
0.019629206
0.017019966
0.014502033
0.012186487
0.010201003
0.0086504206
0.0075619886
0.0068647636
0.0064335513
0.0061517856
0.0059408157
0.0057570445
0.0055794729
0.0053995454
0.0052148307
0.005026379
0.0048350765
0.0046438472
0.031267071
0.02879614
0.026214641
0.023554173
0.020843106
0.018130466
0.015492555
0.013036559
0.010891913
0.0091765154
0.0079405576
0.0071318878
0.0066277671
0.0063018546
0.0060640521
0.0058627926
0.0056726545
0.0054828652
0.0052900555
0.0050946187
0.0048976481
0.0047017838
0.032976311
0.030428352
0.027765758
0.025019945
0.022216274
0.019399182
0.016638951
0.014036896
0.011721237
0.0098204505
0.0084093426
0.007461484
0.0068631743
0.0064797919
0.006207758
0.0059850517
0.0057801404
0.0055791358
0.0053772321
0.0051740524
0.0049707372
0.0047692873
0.034877945
0.032250443
0.029504327
0.026671159
0.023773316
0.020850421
0.017965989
0.015213706
0.012717305
0.010611848
0.0089959996
0.0078754152
0.0071545864
0.0066947812
0.006377597
0.0061275532
0.005904648
0.0056905155
0.0054782011
0.0052663028
0.0050556799
0.0048478095
0.037005721
0.034295339
0.031462223
0.028538553
0.025543916
0.02251317
0.01950269
0.016597198
0.013912809
0.011586077
0.009735803
0.0084037345
0.0075235561
0.0069604885
0.006581863
0.0062955077
0.0060497519
0.0058197101
0.0055951865
0.0053732574
0.0051541638
0.0049389535
0.039399311
0.036602234
0.033677789
0.030659373
0.027564116
0.024422406
0.021283523
0.018222489
0.015345251
0.01278443
0.010672433
0.0090868651
0.008001329
0.0072976194
0.0068331722
0.0064965698
0.0062203958
0.005970238
0.0057309412
0.0054972037
0.0052682081
0.005044489
0.042104096
0.039216611
0.03619619
0.033078068
0.029877304
0.026620306
0.023349695
0.020130733
0.01705759
0.014254125
0.011858059
0.0099773088
0.0086323693
0.0077377057
0.0071512935
0.0067425642
0.0064238385
0.0061469244
0.0058890087
0.0056409713
0.0054002217
0.0051664909
0.045170867
0.042190458
0.039069903
0.035846992
0.032535127
0.029157363
0.025750419
0.022370382
0.019099145
0.016048344
0.013352654
0.011140081
0.0094776803
0.0083281648
0.0075676876
0.0070525492
0.0066714282
0.0063568515
0.0060742185
0.0058081858
0.0055531505
0.0053074592
0.048653879
0.045580008
0.042356565
0.039024611
0.03559621
0.032091708
0.028542873
0.024997672
0.02152625
0.018226307
0.015222739
0.012651236
0.010616392
0.0091378403
0.0081321684
0.007458074
0.0069819191
0.0066112183
0.0062936733
0.0060037857
0.0057307627
0.0054704784
0.052604077
0.049439494
0.046113253
0.042670414
0.039121926
0.035485941
0.031790171
0.028075713
0.024402188
0.02085333
0.017540162
0.014594745
0.01214394
0.010260771
0.0089211306
0.008011517
0.0073874988
0.0069289818
0.0065587524
0.00623508
0.005938208
0.0056595132
0.057067894
0.053819188
0.050394417
0.046842823
0.04317436
0.039405311
0.035559995
0.031673777
0.027797264
0.024001375
0.020381885
0.017059411
0.014166753
0.011814961
0.010044523
0.0087974158
0.0079439925
0.0073438148
0.0068891987
0.0065139658
0.0061831806
0.005880015
0.062088967
0.05876776
0.055253304
0.051599864
0.047816295
0.043917098
0.039923616
0.035866361
0.031788354
0.02774937
0.02383054
0.020137304
0.016795786
0.013934492
0.011646153
0.0099434963
0.00874578
0.0079165443
0.0073212942
0.0068616495
0.006478462
0.0061402514
0.067706979
0.064329102
0.060738551
0.056995282
0.053106869
0.049085994
0.044951213
0.040728758
0.036455165
0.032180692
0.027973375
0.023922875
0.020141575
0.016757641
0.013892783
0.011623197
0.0099416378
0.0087543591
0.0079231573
0.0073185014
0.0068475682
0.0064543453
0.073950536
0.070535887
0.066886895
0.063070847
0.059093798
0.054966337
0.050704173
0.046329511
0.041873109
0.03737698
0.032897742
0.028510331
0.024310938
0.020416378
0.016954692
0.014041
0.011739726
0.010032235
0.0088192867
0.0079631795
0.0073369792
0.0068492795
0.080837493
0.077407209
0.073722388
0.069855973
0.06581224
0.061599723
0.05723127
0.052725179
0.048106865
0.043410991
0.038684164
0.033988134
0.029403071
0.025029665
0.020987206
0.01740287
0.014387448
0.011999853
0.010218317
0.0089439751
0.0080405187
0.0073805425
0.088377264
0.084957698
0.081261808
0.077369724
0.073284854
0.069013614
0.064565866
0.059956048
0.055204527
0.05033927
0.045397965
0.040430644
0.035502687
0.030697692
0.026118955
0.021886876
0.018128099
0.014952445
0.012419919
0.010513318
0.0091393869
0.0081638171
0.096575048
0.093189531
0.089506624
0.085616648
0.081519722
0.077219908
0.072724328
0.06804384
0.06319415
0.058197135
0.053082518
0.04788996
0.042671581
0.037494763
0.032444711
0.027625621
0.023158067
0.019168962
0.015770642
0.013030383
0.010942834
0.0094258418
0.10541916
0.10209411
0.098452055
0.094592931
0.090513367
0.086216399
0.081706705
0.076991768
0.072083006
0.066996823
0.061755892
0.05639079
0.050942024
0.045462423
0.040019761
0.034699164
0.029604217
0.024854325
0.020577822
0.016892598
0.013878198
0.011548148
0.11490019
0.1116613
0.1080835
0.10428107
0.10024989
0.095987878
0.09149851
0.086786542
0.081859545
0.076729067
0.07141166
0.06593011
0.060315003
0.054606637
0.048857281
0.043133637
0.037519139
0.032115201
0.027040147
0.022421913
0.01838614
0.01503046
0.12499692
0.12186759
0.11838133
0.11466196
0.11070533
0.10650992
0.10207517
0.097403034
0.092497958
0.087367502
0.082023107
0.076481065
0.070763711
0.064900903
0.058931809
0.052907016
0.046890864
0.040963726
0.035223619
0.029785921
0.024779997
0.020339314
0.13568349
0.13268553
0.12931269
0.12570249
0.12185024
0.11775158
0.11340256
0.1088044
0.1039591
0.098870778
0.093546593
0.087997513
0.082239161
0.076292918
0.070187291
0.063959559
0.057657737
0.051342792
0.045090975
0.038995928
0.033169946
0.027743155
0.1469293
0.1440843
0.14084751
0.1373707
0.13364424
0.12966699
0.12543514
0.12094369
0.11619367
0.1111868
0.10592677
0.10042023
0.094677418
0.088713008
0.082547062
0.076206289
0.069725557
0.063149707
0.056535696
0.049955046
0.043496509
0.037269328
0.15869827
0.15602548
0.15294405
0.14962154
0.14604743
0.14221576
0.13812544
0.13377167
0.12914933
0.12425931
0.11910296
0.11368347
0.10800681
0.10208238
0.095923675
0.089549194
0.082983582
0.076258994
0.069416795
0.062509662
0.05560424
0.048785535
0.1709532
0.16847051
0.16556281
0.16241384
0.15901241
0.15535122
0.15142539
0.1472335
0.14276963
0.13802861
0.13301114
0.12771815
0.12215226
0.11631871
0.11022594
0.10388616
0.097316228
0.090538598
0.083582637
0.076486232
0.069298025
0.062081744
0.18365349
0.18137726
0.17866006
0.17570225
0.17249217
0.16902232
0.16528544
0.161277
0.1569954
0.15243373
0.14758673
0.14245488
0.13703867
0.13134012
0.12536371
0.11911689
0.1126106
0.10586003
0.098885512
0.091713806
0.084379844
0.076930726
0.19675684
0.19470206
0.1921908
0.18944041
0.18643877
0.1831782
0.17965141
0.17585053
0.17177134
0.1674122
0.16276546
0.15782561
0.1525929
0.14706739
0.14125052
0.13514604
0.12876044
0.12210346
0.11518877
0.10803488
0.10066662
0.093118788
0.21021924
0.20839968
0.20610859
0.20358058
0.2008032
0.19776843
0.19446887
0.19089678
0.18704396
0.18290631
0.17848219
0.1737635
0.1687444
0.16342486
0.15780455
0.15188439
0.14566747
0.13915944
0.13236905
0.12530877
0.11799609
0.11045685
0.22399544
0.22242372
0.22036598
0.21807417
0.21553567
0.21274212
0.2096858
0.2063589
0.20275348
0.19886126
0.19467791
0.19020186
0.18542485
0.1803406
0.17494886
0.16924896
0.16324137
0.15692868
0.15031593
0.14341121
0.13622667
0.12878165
0.23803922
0.23672702
0.23491487
0.23287205
0.23058596
0.228048
0.22525003
0.22218395
0.21884179
0.21521555
0.21129694
0.20708125
0.20256691
0.19774577
0.19261113
0.18716253
0.18139906
0.17532094
0.16893043
0.16223237
0.155235
0.14795291
0.25230385
0.25126187
0.24970672
0.24792485
0.2459038
0.24363477
0.24110932
0.23831894
0.23525537
0.23191061
0.22827663
0.2243452
0.22011108
0.21557277
0.21072238
0.20555285
0.20006358
0.19425361
0.1881231
0.18167437
0.17491279
0.16784937
0.26674249
0.26598031
0.26469285
0.26318329
0.26143922
0.25945168
0.25721197
0.2547113
0.25194104
0.24889289
0.2455588
0.24193074
0.23800058
0.23376259
0.22921534
0.22435133
0.21916325
0.21365052
0.20781232
0.20164907
0.19516386
0.18836499
0.28130847
0.28083457
0.27982493
0.27859861
0.27714295
0.27544882
0.27350736
0.27130953
0.26884645
0.26610946
0.26309021
0.25978063
0.25617274
0.25225851
0.24803184
0.24349143
0.23863023
0.23344088
0.22792301
0.22207619
0.21590173
0.20940573
0.29595633
0.29577879
0.29505661
0.29412377
0.29296719
0.29157765
0.28994612
0.28806342
0.28592043
0.28350822
0.28081813
0.27784177
0.27457109
0.27099818
0.26711517
0.26291572
0.25839871
0.25355764
0.24838527
0.24288171
0.23704747
0.23088684
0.31064099
0.3107677
0.31034212
0.30971232
0.30886483
0.30779033
0.30647972
0.30492366
0.30311285
0.30103814
0.29869059
0.29606152
0.29314256
0.2899257
0.28640318
0.28256731
0.27841169
0.27393548
0.26913274
0.26399662
0.25852821
0.25273089
0.3253179
0.32575628
0.32563593
0.32531819
0.32478924
0.32403968
0.32306036
0.32184179
0.32037454
0.31864927
0.31665681
0.31438823
0.31183485
0.30898835
0.30584084
0.30238471
0.29861255
0.29451803
0.29010072
0.28535537
0.28027597
0.27486635
0.33994364
0.34070056
0.34089351
0.34089631
0.3406948
0.34027952
0.33964125
0.33877043
0.33765747
0.33629287
0.3346673
0.33277156
0.33059674
0.32813422
0.32537578
0.32231367
0.31894053
0.31524926
0.31123378
0.30689417
0.30222621
0.29722642
0.35447666
0.3555583
0.35607195
0.35640313
0.35653741
0.3564652
0.35617719
0.35566373
0.35491513
0.35392176
0.3526741
0.35116277
0.34937863
0.34731278
0.34495672
0.34230237
0.3393422
0.33606911
0.33247642
0.32855844
0.3243161
0.31974766
0.36887751
0.3702892
0.37113022
0.37179689
0.37227482
0.37255393
0.37262479
0.37247769
0.37210285
0.37149054
0.37063107
0.36951492
0.36813271
0.36647534
0.36453401
0.36230034
0.35976647
0.3569251
0.35376949
0.35029341
0.34649198
0.34236833
0.38310919
0.38485561
0.38602979
0.38703854
0.38786741
0.38850548
0.38894313
0.38917067
0.38917825
0.38895603
0.38849423
0.38778316
0.38681328
0.38557525
0.38406004
0.38225897
0.38016386
0.37776706
0.37506157
0.37204107
0.36870006
0.36503579
0.39713672
0.39922271
0.4007357
0.40209286
0.40327895
0.40428255
0.40509397
0.40570351
0.40610127
0.40627734
0.40622182
0.40592487
0.40537678
0.40456803
0.40348936
0.40213183
0.40048692
0.39854664
0.39630361
0.39375119
0.39088368
0.38769757
0.41092838
0.41335832
0.41521546
0.4169265
0.41847519
0.41985007
0.4210414
0.42203947
0.42283435
0.42341603
0.4237745
0.42389981
0.42378209
0.42341164
0.42277898
0.42187491
0.42069062
0.41921778
0.41744861
0.41537603
0.41299397
0.41029853
0.42445571
0.42723295
0.42943858
0.43150805
0.43342413
0.43517533
0.43675198
0.43814434
0.43934245
0.44033621
0.44111555
0.44167038
0.44199069
0.44206662
0.44188847
0.44144681
0.44073255
0.43973703
0.43845207
0.43687015
0.43498469
0.43279127
0.43769394
0.44082107
0.44337865
0.44581019
0.44809759
0.45022931
0.45219579
0.4539873
0.45559383
0.45700524
0.45821137
0.45920202
0.45996706
0.46049646
0.46078034
0.46080902
0.46057315
0.46006375
0.45927228
0.45819076
0.4568121
0.45513125
0.45062183
0.45410051
0.45701255
0.45980894
0.4624707
0.46498627
0.46734622
0.46954082
0.47156004
0.47339371
0.47503157
0.47646336
0.47767882
0.47866777
0.47942014
0.47992605
0.48017588
0.48016034
0.47987053
0.47929805
0.4784353
0.4772766
0.46322168
0.46705286
0.47032104
0.47348414
0.47652236
0.47942418
0.48218026
0.48478092
0.4872161
0.4894756
0.49154913
0.49342634
0.49509686
0.49655037
0.49777663
0.49876557
0.49950729
0.49999223
0.50021114
0.50015522
0.49981636
0.49918827
0.4754792
0.47966304
0.48328807
0.48681886
0.49023479
0.49352432
0.49667825
0.49968694
0.50254035
0.50522827
0.50774035
0.5100662
0.51219535
0.51411736
0.51582182
0.51729847
0.51853718
0.5195281
0.52026164
0.5207286
0.52092042
0.52083019
0.48738371
0.49192011
0.4959019
0.49980026
0.50359399
0.50727161
0.51082403
0.51424168
0.51751455
0.52063239
0.52358487
0.52636151
0.52895177
0.53134511
0.53353097
0.53549889
0.53723853
0.53873977
0.5399927
0.54098773
0.54171585
0.54216958
0.49892735
0.50381506
0.50815267
0.51241769
0.5165885
0.52065371
0.52460437
0.52843098
0.53212354
0.53567183
0.5390655
0.54229403
0.54534683
0.54821325
0.55088259
0.55334424
0.55558764
0.55760241
0.55937833
0.56090545
0.56217431
0.56317691
0.51010548
0.51534221
0.52003378
0.52466357
0.52920992
0.53366141
0.53800918
0.54224381
0.54635536
0.55033363
0.55416828
0.55784878
0.56136449
0.56470464
0.56785847
0.57081517
0.57356402
0.57609436
0.57839572
0.58045777
0.58227066
0.58382585
0.52091628
0.52649902
0.53154192
0.53653388
0.54145334
0.54628887
0.55103167
0.55567243
0.56020129
0.56460809
0.5688825
0.57301399
0.57699188
0.58080537
0.58444356
0.58789554
0.59115037
0.59419721
0.59702528
0.59962394
0.60198294
0.60409324
0.53136062
0.53728567
0.5426765
0.54802729
0.55331662
0.55853306
0.56366793
0.56871202
0.57365555
0.57848843
0.58320037
0.58778087
0.59221921
0.59650455
0.60062591
0.60457225
0.6083325
0.61189559
0.61525048
0.61838625
0.62129224
0.62395897
0.54144164
0.54770474
0.55343957
0.55914504
0.56480014
0.57039354
0.57591663
0.58136035
0.58671501
0.59197061
0.59711691
0.60214342
0.60703946
0.61179413
0.6163964
0.62083514
0.62509912
0.62917708
0.63305778
0.63672997
0.64018267
0.64340595
0.55116464
0.55776098
0.56383519
0.56989048
0.5759065
0.5818721
0.58777879
0.59361762
0.59937901
0.60505307
0.61062962
0.61609824
0.62144825
0.62666874
0.63174866
0.63667676
0.64144172
0.64603211
0.65043646
0.65464327
0.65864123
0.66241999
0.56053676
0.56746084
0.573869
0.58026863
0.58664009
0.59297247
0.5992574
0.60548605
0.611649
0.61773645
0.62373832
0.62964425
0.6354436
0.64112548
0.64667878
0.65209223
0.65735439
0.66245369
0.66737847
0.67211699
0.67665763
0.68098966
0.56956668
0.57681236
0.58354843
0.59028633
0.59700715
0.60370026
0.61035741
0.61696992
0.62352851
0.63002352
0.63644497
0.64278259
0.64902579
0.65516371
0.66118524
0.66707907
0.67283366
0.67843735
0.68387829
0.68914453
0.69422418
0.69910615
0.57826437
0.58582502
0.59288243
0.59995199
0.60701554
0.61406273
0.62108545
0.6280752
0.63502285
0.64191888
0.64875345
0.65551636
0.66219712
0.66878491
0.67526864
0.68163696
0.68787831
0.69398089
0.69993274
0.7057217
0.71133563
0.71676312
0.58664084
0.59450942
0.60188113
0.60927528
0.61667443
0.62406853
0.63144964
0.63880942
0.64613893
0.65342879
0.66066932
0.66785043
0.67496171
0.68199242
0.68893151
0.69576762
0.70248915
0.70908424
0.7155408
0.7218465
0.72798899
0.73395655
0.59470792
0.60287702
0.61055563
0.61826687
0.62599406
0.63372744
0.64145926
0.64918136
0.65688496
0.6645609
0.67219962
0.67979118
0.68732528
0.69479125
0.7021781
0.70947451
0.71666885
0.72374921
0.7307034
0.73751896
0.74418333
0.75068454
0.60247809
0.61094001
0.61891777
0.62693828
0.63498557
0.64305021
0.65112462
0.65920084
0.66727031
0.67532404
0.68335264
0.69134633
0.69929492
0.70718786
0.71501422
0.72276271
0.73042174
0.73797934
0.74542328
0.75274095
0.75991964
0.76694714
0.60996424
0.61871106
0.62697995
0.6353016
0.64366075
0.65204827
0.66045681
0.66887859
0.67730527
0.68572806
0.69413775
0.70252472
0.71087894
0.71918996
0.72744695
0.73563869
0.74375359
0.75177971
0.75970474
0.767516
0.77520062
0.78274621
0.61717957
0.62620317
0.63475497
0.64336941
0.6520319
0.66073367
0.66946755
0.67822599
0.68700086
0.69578359
0.70456517
0.71333615
0.72208665
0.73080637
0.73948457
0.74811013
0.7566715
0.76515674
0.77355354
0.78184913
0.79003055
0.79808522
0.62413742
0.63342953
0.64225586
0.65115456
0.6601117
0.66911885
0.67816904
0.68725496
0.69636873
0.70550196
0.71464587
0.72379119
0.73292822
0.7420468
0.75113633
0.76018576
0.76918363
0.77811805
0.78697666
0.79574669
0.80441508
0.81296909
0.63085114
0.64040343
0.6494958
0.65867008
0.66791303
0.67721652
0.68657381
0.69597784
0.70542094
0.71489497
0.72439136
0.73390104
0.7434145
0.75292173
0.76241228
0.77187522
0.78129916
0.79067227
0.79998222
0.80921621
0.81836111
0.82740407
0.63733402
0.64713809
0.65648795
0.66592908
0.67544889
0.68503956
0.69469461
0.70440719
0.7141699
0.72397482
0.73381361
0.74367742
0.75355692
0.76344228
0.7733232
0.78318889
0.79302806
0.80282895
0.81257927
0.82226622
0.83187665
0.8413976
0.64359918
0.65364665
0.66324541
0.67294462
0.68273229
0.69260092
0.70254428
0.71255577
0.72262822
0.73275398
0.74292491
0.75313241
0.76336733
0.77362004
0.78388041
0.79413779
0.804381
0.81459838
0.8247777
0.83490619
0.84497066
0.85495811
0.64965953
0.65994203
0.66978114
0.67972966
0.68977616
0.69991352
0.71013571
0.72043639
0.73080864
0.74124507
0.75173777
0.76227836
0.77285793
0.78346702
0.79409569
0.80473343
0.81536923
0.82599151
0.83658812
0.84714633
0.85765297
0.86809499
0.6555277
0.66603692
0.67610787
0.68629696
0.69659333
0.70699017
0.7174817
0.72806184
0.73872392
0.7494608
0.76026483
0.77112784
0.78204114
0.7929955
0.80398115
0.81498777
0.82600446
0.83701978
0.84802169
0.85899751
0.8699341
0.88081838
0.66121598
0.67194372
0.68223809
0.69265909
0.70319641
0.71384353
0.72459497
0.73544485
0.74638679
0.7574139
0.76851877
0.77969348
0.79092955
0.80221798
0.81354919
0.82491302
0.83629877
0.84769512
0.85909011
0.87047118
0.88182521
0.89313914
0.66673631
0.6776745
0.68818398
0.69882833
0.70959775
0.72048607
0.73148802
0.742598
0.75380988
0.76511703
0.77651228
0.78798795
0.79953581
0.81114707
0.82281234
0.83452168
0.84626454
0.85802973
0.86980545
0.88157921
0.89333798
0.90506869
0.67210026
0.68324095
0.69395736
0.70481663
0.71580947
0.72692999
0.73817318
0.7495337
0.76100568
0.77258272
0.78425795
0.7960239
0.80787259
0.81979543
0.83178328
0.84382636
0.85591432
0.86803612
0.88018011
0.89233389
0.90448451
0.91661897
0.67731897
0.6886544
0.69956972
0.71063563
0.72184332
0.73318719
0.74466248
0.7562641
0.76798645
0.77982338
0.79176826
0.80381388
0.81595249
0.82817574
0.84047469
0.85283978
0.86526082
0.87772697
0.8902267
0.90274775
0.91527727
0.92780231
0.68240317
0.69392575
0.70503214
0.7162966
0.72771074
0.73926927
0.75096768
0.76280112
0.77476425
0.78685117
0.79905551
0.8113703
0.82378804
0.83630059
0.84889924
0.86157465
0.8743168
0.88711505
0.89995801
0.91283356
0.92572897
0.93863135
0.68736317
0.69906551
0.71035532
0.72181041
0.73342279
0.74518749
0.7571002
0.76915636
0.78135084
0.79367803
0.80613179
0.8187054
0.83139159
0.84418246
0.85706954
0.87004366
0.88309504
0.8962132
0.90938692
0.92260423
0.93585252
0.949119
0.69220879
0.70408372
0.71554953
0.72718753
0.73899017
0.75095272
0.76307114
0.77534109
0.7877577
0.80031561
0.81300892
0.82583117
0.83877531
0.85183369
0.86499803
0.87825942
0.89160825
0.90503424
0.91852634
0.93207275
0.94566097
0.95927832
0.69694944
0.70899001
0.72062459
0.73243803
0.74442314
0.75657546
0.7688912
0.78136624
0.79399597
0.80677526
0.81969847
0.83275936
0.84595113
0.85926637
0.87269702
0.88623437
0.89986904
0.91359092
0.92738915
0.94125209
0.9551674
0.96912249
0.70159404
0.71379354
0.72558991
0.73757152
0.74973155
0.7620658
0.77457069
0.78724235
0.80007641
0.81306798
0.82621164
0.83950142
0.85293073
0.86649239
0.88017858
0.8939808
0.90788986
0.92189587
0.93598815
0.95015522
0.96438489
0.97866471
0.70615105
0.718503
0.73045441
0.74259718
0.75492483
0.76743339
0.78011953
0.79297959
0.80600943
0.81920441
0.83255934
0.84606847
0.85972546
0.87352334
0.88745453
0.90151073
0.91568298
0.92996156
0.94433599
0.95879497
0.97332647
0.98791816
0.71062845
0.72312663
0.73522658
0.74752375
0.76001195
0.77268748
0.7855472
0.79858769
0.81180503
0.82519481
0.83875206
0.85247128
0.86634634
0.8803705
0.89453639
0.90883595
0.92326039
0.93780022
0.95244515
0.96718404
0.98200503
0.99689594
0.71503376
0.72767219
0.73991444
0.75235949
0.76500145
0.77783684
0.79086276
0.80407597
0.81747279
0.83104903
0.84479995
0.85872025
0.87280404
0.88704481
0.90143538
0.91596791
0.93063384
0.94542386
0.96032786
0.97533491
0.99043329
1.005611
0.71937402
0.73214698
0.74452553
0.75711219
0.76990138
0.78288981
0.79607479
0.8094533
0.82302187
0.8367765
0.8507127
0.86482537
0.87910884
0.89355682
0.90816234
0.92291777
0.93781474
0.95284416
0.9679961
0.98325981
0.99862377
1.0140761
0.72365579
0.73655782
0.74906692
0.76178921
0.77471934
0.78785426
0.80119145
0.81472811
0.82846096
0.84238622
0.8564996
0.87079622
0.88527062
0.89991671
0.91472774
0.92969628
0.94481416
0.96007249
0.97546153
0.99097071
1.0065887
1.0223037
0.7278852
0.74091106
0.75354523
0.7663974
0.77946248
0.7927376
0.80622043
0.81990837
0.83379833
0.84788675
0.86216951
0.87664196
0.89129884
0.90613425
0.92114166
0.93631383
0.9516428
0.96711986
0.98273546
0.99847923
1.01434
1.0303062
0.73206788
0.74521261
0.75796663
0.77094321
0.78413748
0.79754678
0.81116897
0.8250016
0.8390418
0.85328619
0.86773084
0.88237131
0.89720252
0.91221878
0.92741376
0.9427804
0.95831096
0.97399689
0.98982885
1.0057966
1.0218893
1.0380953
0.73620906
0.74946796
0.76233683
0.77543259
0.7887506
0.80228834
0.81604385
0.83001489
0.84419874
0.8585922
0.87319156
0.88799254
0.90299025
0.91817921
0.93355326
0.94910556
0.96482852
0.9807138
0.99675226
1.0129338
1.0292478
1.0456827
0.74031356
0.75368213
0.76666113
0.77987112
0.79330763
0.80696834
0.82085145
0.83495487
0.84927607
0.86381202
0.87855919
0.89351348
0.90867019
0.92402401
0.93956898
0.95529842
0.97120496
0.98728042
1.0035158
1.0199013
1.0364263
1.0530796
0.74438578
0.75785979
0.77094442
0.78426391
0.79781397
0.81159244
0.82559768
0.83982775
0.85428029
0.86895244
0.88384083
0.89894154
0.91425005
0.92976122
0.94546927
0.9613677
0.97744931
0.9937061
1.0101293
1.0267092
1.0434353
1.0602968
0.74842978
0.76200522
0.77519123
0.78861574
0.80227464
0.81616592
0.83028807
0.84463933
0.85921748
0.87401982
0.88904315
0.90428369
0.91973712
0.93539845
0.95126206
0.96732165
0.98357017
0.99999981
1.0166019
1.033367
1.0502848
1.0673445
0.75244927
0.76612235
0.7794057
0.792931
0.80669427
0.82069366
0.83492779
0.84939504
0.86409334
0.87902014
0.8941724
0.9095465
0.92513826
0.94094287
0.95695487
0.97316811
0.98957572
1.00617
1.0229426
1.0398841
1.0569844
1.0742328
0.75644765
0.77021479
0.78359169
0.79721375
0.81107716
0.82518019
0.8395216
0.8540999
0.86891317
0.88395899
0.89923446
0.91473612
0.93045993
0.94640125
0.96255476
0.97891447
0.99547368
1.0122249
1.0291598
1.0462692
1.0635431
1.0809712
0.76042806
0.77428589
0.78775272
0.80146774
0.81542728
0.82962972
0.84407395
0.85875862
0.87368192
0.88884157
0.90423481
0.91985832
0.9357082
0.95177995
0.96806841
0.98456774
1.0012714
1.018172
1.0352614
1.0525306
1.0699698
1.0875686
0.76439337
0.7783387
0.79189205
0.80569643
0.8197483
0.83404614
0.84858897
0.86337555
0.87840419
0.89367275
0.90917858
0.92491849
0.94088874
0.95708494
0.97350209
0.99013448
1.0069757
1.0240185
1.041255
1.0586762
1.0762725
1.0940337
0.76834621
0.78237604
0.79601269
0.80990303
0.82404361
0.83843306
0.85307048
0.86795474
0.88308427
0.89845705
0.91407054
0.92992169
0.94600686
0.96232182
0.97886167
0.99562086
1.0125931
1.0297713
1.0471477
1.0647135
1.0824591
1.1003746
0.77228901
0.7864005
0.80011739
0.81409046
0.82831636
0.84279381
0.85752201
0.87249994
0.88772613
0.90319867
0.91891514
0.93487259
0.95106751
0.96749579
0.98415266
1.0010327
1.0181297
1.0354368
1.0529462
1.0706494
1.088537
1.1065991
0.77622399
0.79041445
0.8042087
0.81826144
0.83256942
0.84713144
0.86194681
0.8770146
0.89233344
0.9079015
0.92371649
0.93977555
0.9560753
0.97261172
0.98938016
1.0063753
1.0235912
1.0410209
1.0586569
1.0764907
1.0945131
1.1127143
0.78015315
0.79442004
0.80828891
0.82241842
0.83680541
0.85144876
0.86634788
0.8815019
0.89690956
0.91256913
0.92847839
0.94463461
0.96103448