/*--------------------------------*- C++ -*----------------------------------*\
| =========                 |                                                 |
| \\      /  F ield         | OpenFOAM: The Open Source CFD Toolbox           |
|  \\    /   O peration     | Version:  2406                                  |
|   \\  /    A nd           | Website:  www.openfoam.com                      |
|    \\/     M anipulation  |                                                 |
\*---------------------------------------------------------------------------*/
FoamFile
{
    version     2.0;
    format      ascii;
    arch        "LSB;label=32;scalar=64";
    class       volScalarField;
    location    "0.006";
    object      nut;
}
// * * * * * * * * * * * * * * * * * * * * * * * * * * * * * * * * * * * * * //

dimensions      [0 2 -1 0 0 0 0];

internalField   nonuniform List<scalar> 
23203
(
0.011106009
0.010533406
0.009876535
0.0091287834
0.00829377
0.0073939565
0.0064804129
0.0056304313
0.0049334318
0.004452711
0.0041881588
0.0040822015
0.0040634032
0.0040784323
0.0040965442
0.0041039771
0.0040927878
0.0040597976
0.0040048276
0.0039246865
0.0038238487
0.0037085969
0.0035827843
0.011532071
0.010891137
0.010169596
0.0093631851
0.0084778201
0.0075381839
0.0065957764
0.0057266216
0.0050169555
0.0045259904
0.0042512006
0.0041350698
0.0041068423
0.004113467
0.0041238972
0.0041243516
0.004106819
0.0040677234
0.0040071068
0.0039229109
0.0038190697
0.0037013996
0.0035740121
0.011962084
0.011252748
0.010465751
0.0096003837
0.0086639486
0.0076834019
0.0067110193
0.0058220734
0.0050995471
0.0045984826
0.0043137528
0.0041876907
0.0041501592
0.0041484062
0.0041511918
0.0041446895
0.0041207889
0.0040756148
0.0040095807
0.0039214525
0.003814783
0.0036949244
0.0035660747
0.012400136
0.011621787
0.010768764
0.0098432623
0.0088541915
0.0078316015
0.0068279584
0.0059180324
0.0051818854
0.0046704511
0.0043758368
0.0042399749
0.0041932316
0.0041831251
0.0041782942
0.0041648583
0.0041345924
0.0040834202
0.0040121927
0.0039202882
0.0038109952
0.0036892566
0.0035592799
0.01284771
0.011999335
0.011079678
0.010092509
0.0090500217
0.0079839435
0.0069476896
0.0060154703
0.0052646732
0.0047423074
0.0044376468
0.0042919916
0.0042360704
0.0042176159
0.0042051892
0.0041848521
0.0041482554
0.0040912022
0.004015014
0.003919535
0.0038079586
0.0036854059
0.013307195
0.01238823
0.01140087
0.010350927
0.0092537816
0.008142372
0.0070716695
0.0061154808
0.0053486944
0.0048145642
0.004499492
0.0043439253
0.0042788025
0.004251976
0.0042319691
0.0042047673
0.0041619501
0.0040991216
0.0040182036
0.0039193368
0.0038056119
0.003681699
0.013779689
0.012789577
0.011733411
0.010619909
0.0094666181
0.0083083011
0.007201277
0.006219209
0.0054348036
0.0048878074
0.0045617576
0.004396039
0.0043216198
0.0042863678
0.0042589586
0.004224732
0.004175735
0.004107527
0.0040219536
0.0039198437
0.0038039786
0.0036784443
0.014267416
0.01320612
0.012080725
0.010902534
0.0096912213
0.0084838982
0.0073382674
0.0063280201
0.0055239983
0.0049627252
0.004624915
0.0044486866
0.0043648107
0.0043210578
0.0042862895
0.0042449717
0.004189832
0.00411665
0.0040265119
0.00392121
0.0038031295
0.0036757918
0.014774204
0.013641168
0.012445597
0.011201571
0.0099305062
0.0086718019
0.0074848119
0.006443577
0.0056174677
0.005040122
0.0046895006
0.0045022475
0.0044086854
0.0043563564
0.0043141481
0.0042658068
0.0042046412
0.0041266625
0.0040320816
0.0039235884
0.0038031863
0.0036739364
0.015301398
0.014096478
0.012830467
0.011519481
0.010187
0.008874529
0.0076431898
0.0065677387
0.00571659
0.005120948
0.0047561514
0.0045571687
0.0044536009
0.0043926076
0.0043428452
0.0042875782
0.0042205158
0.0041377885
0.0040388806
0.0039271606
0.0038043299
0.0036731201
0.015852685
0.014576366
0.013239445
0.011860198
0.010464286
0.0090952856
0.0078161625
0.0067027287
0.005823014
0.0052063431
0.0048256362
0.0046139965
0.0044999646
0.0044301472
0.0043727415
0.0043107604
0.0042378794
0.0041502378
0.0040471159
0.0039321255
0.003806795
0.0036736199
0.016431662
0.015084052
0.013675981
0.012227549
0.010766263
0.0093377585
0.0080069862
0.0068512082
0.005938737
0.0052977017
0.0048989059
0.0046734159
0.0045483292
0.0044694199
0.0044042002
0.004335566
0.0042571012
0.0041645479
0.00405705
0.0039387255
0.0038108514
0.0036757293
0.017041288
0.015623142
0.014143908
0.012625505
0.01109702
0.0096059709
0.0082193553
0.0070162923
0.0060661491
0.0053967135
0.0049771168
0.0047362545
0.0045993598
0.0045109873
0.0044377658
0.0043625826
0.0042779666
0.0041805539
0.0040693679
0.003947356
0.0038168667
0.0036797854
0.017686271
0.016198416
0.014648151
0.013059025
0.011461464
0.0099046555
0.0084576182
0.0072016873
0.0062081246
0.0055054114
0.005061628
0.0048034252
0.0046537153
0.0045553711
0.004473962
0.0043920042
0.0043012993
0.004198999
0.0040840369
0.0039583485
0.0038251836
0.003686122
0.018371692
0.016815053
0.015194046
0.013533574
0.01186511
0.010239236
0.0087268637
0.0074118315
0.0063681819
0.0056263248
0.0051541439
0.0048760766
0.0047122291
0.0046032423
0.0045133758
0.0044243304
0.0043275155
0.004220484
0.0041015892
0.0039720753
0.0038361499
0.0036950681
0.019101633
0.017477617
0.015786606
0.0140546
0.012313764
0.010615685
0.0090329182
0.0076519873
0.0065506203
0.0057626096
0.0052568084
0.0049556475
0.0047759247
0.0046554327
0.0045566738
0.004460215
0.0043573625
0.0042450951
0.0041221151
0.003989254
0.0038502186
0.0037070192
0.019882595
0.018192371
0.016432042
0.014628484
0.012814064
0.01104083
0.009382549
0.0079284246
0.0067607024
0.005918206
0.0053723089
0.0050439106
0.0048460141
0.0047128471
0.0046045911
0.0045004244
0.0043911975
0.0042733644
0.0041463923
0.004010326
0.0038678303
0.0037223754
0.020721517
0.018966279
0.017137529
0.015262634
0.013373671
0.011522552
0.0097836623
0.0082486424
0.0070049073
0.006098088
0.0055040774
0.0051431162
0.0049240097
0.0047765824
0.0046580005
0.004545751
0.0044297363
0.0043062115
0.0041746446
0.0040353408
0.0038898722
0.0037416486
0.021626407
0.019807372
0.017911157
0.015965324
0.014001156
0.012069757
0.010245371
0.0086215369
0.0072911912
0.0063085573
0.0056565368
0.0052561519
0.0050118057
0.004847966
0.0047179273
0.0045969937
0.0044738034
0.0043442922
0.0042077603
0.0040647907
0.0039166023
0.0037655302
0.022606919
0.020725088
0.01876226
0.016745961
0.014706183
0.01269251
0.010778123
0.0090575933
0.0076292886
0.00655762
0.0058354496
0.0053867906
0.0051118284
0.0049286546
0.0047856296
0.00465517
0.0045244092
0.0043885021
0.0042464662
0.0040991663
0.0039483573
0.0037948128
0.023674475
0.021730481
0.01970165
0.017615302
0.015499697
0.013402179
0.011393841
0.0095690894
0.0080310524
0.0068554631
0.0060484074
0.005540065
0.0052272621
0.005020733
0.0048625971
0.0047214639
0.004582471
0.0044398028
0.0042919009
0.0041399771
0.0039850493
0.0038291187
0.024842632
0.022836584
0.020741961
0.018585785
0.016394208
0.014211673
0.012106113
0.010170305
0.008510808
0.0072150181
0.0063054908
0.0057228335
0.0053624432
0.0051269746
0.0049507476
0.004797343
0.0046492052
0.0044991688
0.0043451839
0.0041881122
0.0040286835
0.0038693276
0.026127791
0.024059132
0.021898323
0.01967211
0.017404276
0.015135809
0.012930465
0.010877752
0.0090856879
0.0076525655
0.0066200893
0.0059445505
0.0055234023
0.0052511558
0.0050525906
0.0048846436
0.0047260708
0.0045678572
0.0044071708
0.0042443241
0.0040802159
0.0039170419
0.02754972
0.025417123
0.023188959
0.020891847
0.018547078
0.016191796
0.013884716
0.011710428
0.0097759263
0.0081883291
0.0070098814
0.006218337
0.0057186924
0.0053985611
0.0051714887
0.0049856983
0.004814851
0.0046473321
0.0044791101
0.0043098538
0.0041405016
0.0039727151
0.029132091
0.026933442
0.024635873
0.022266156
0.019843119
0.017399881
0.014989491
0.012690157
0.010605117
0.0088469816
0.007497905
0.006562406
0.0059606544
0.0055768409
0.0053121586
0.0051036133
0.004917806
0.0047393875
0.0045625328
0.0043860543
0.0042106548
0.0040375577
0.030903074
0.028635569
0.026265656
0.02382067
0.021317144
0.018784217
0.016268962
0.013842095
0.011600483
0.0096579799
0.0081135412
0.0070017913
0.0062672416
0.0057973788
0.0054815082
0.005242727
0.0050379105
0.0048462737
0.0046592876
0.004474494
0.0042920791
0.0041129067
0.032895814
0.030556241
0.028110322
0.025586467
0.022999211
0.020373959
0.01775185
0.015195491
0.012793255
0.010655712
0.0088931698
0.0075701622
0.0066644798
0.0060774214
0.0056900457
0.0054094138
0.0051792796
0.0049709179
0.0047716637
0.0045770744
0.0043864522
0.0042002322
0.035148082
0.032733365
0.030207534
0.027600618
0.024925499
0.022204267
0.019472491
0.016784626
0.01421921
0.011879499
0.0098802395
0.0083112454
0.0071894021
0.0064432312
0.0059542365
0.0056135211
0.0053479572
0.0051173358
0.0049026087
0.0046961481
0.0044957766
0.004301258
0.037702594
0.035210509
0.032601185
0.029906861
0.027139121
0.024317263
0.02147192
0.018649879
0.015919433
0.013373634
0.011124695
0.0092791873
0.0078928136
0.0069342988
0.0063002819
0.0058709216
0.0055533929
0.0052914232
0.0050561409
0.0048347305
0.0046225014
0.0044180621
0.040604383
0.038034505
0.03533934
0.032553972
0.029688989
0.026761441
0.023797819
0.020838132
0.017940864
0.015187448
0.012681938
0.010537326
0.008840613
0.007607955
0.0067696658
0.0062078886
0.0058112043
0.0055025042
0.0052381723
0.00499693
0.0047697602
0.0045532087
0.043896062
0.041250538
0.038469543
0.035591559
0.032626311
0.029589036
0.026502845
0.023402016
0.02033626
0.017375363
0.014611818
0.012155599
0.010112279
0.00854251
0.0074260029
0.0066680386
0.006148195
0.0057663641
0.0054581762
0.0051888295
0.0049418367
0.0047099945
0.047616222
0.044900664
0.042037296
0.039068431
0.036002956
0.032854548
0.029643506
0.026399343
0.023164264
0.019997375
0.016978465
0.014207977
0.011796449
0.0098362315
0.008360846
0.0073217622
0.0066108483
0.006111041
0.0057325905
0.0054203322
0.0051451335
0.0048929538
0.051802185
0.049026045
0.046087517
0.043033342
0.039871527
0.036614265
0.033279377
0.029892341
0.026489049
0.023119328
0.01985077
0.01677118
0.013985548
0.011600784
0.0096939419
0.0082754064
0.0072777442
0.0065871792
0.0060916236
0.0057090931
0.0053902892
0.0051089657
0.05648703
0.053663358
0.050660857
0.047531251
0.044281506
0.040922302
0.037469139
0.033943938
0.0303772
0.026810833
0.023301531
0.019923963
0.016771687
0.013951352
0.011564167
0.0096733823
0.0082727477
0.0072840167
0.0065919861
0.0060887213
0.0056968797
0.0053697845
0.061693782
0.05883887
0.055787413
0.05259678
0.049272663
0.045824055
0.042264123
0.038611456
0.034891765
0.031140112
0.027403697
0.023744944
0.020243944
0.016997914
0.014113361
0.01168597
0.0097691694
0.0083472212
0.0073373196
0.0066246971
0.0061035973
0.0056978701
0.067438156
0.064571161
0.061488898
0.058255406
0.054874946
0.051354681
0.047705375
0.043942377
0.04008696
0.036168082
0.032224626
0.028308055
0.024485141
0.0208397
0.017470979
0.014484736
0.011973023
0.0099846608
0.0085013008
0.0074404597
0.0066885413
0.0061394104
0.073729448
0.070870493
0.067777713
0.064522282
0.061106959
0.05753703
0.053820815
0.049970484
0.046003135
0.041942168
0.037819066
0.033675562
0.029566139
0.025560415
0.021744356
0.018218115
0.01508698
0.012442173
0.010333407
0.0087461315
0.0076025341
0.0067906924
0.080568172
0.077738916
0.074657474
0.071402784
0.067976368
0.06438165
0.060624575
0.056714309
0.052664068
0.048492197
0.044223558
0.039891273
0.035538815
0.031222329
0.027012763
0.022996822
0.019274786
0.015952147
0.013122207
0.010840717
0.0091029825
0.0078404309
0.08794958
0.085171297
0.082122615
0.078892021
0.075479351
0.071886319
0.068116614
0.064176624
0.060076039
0.055828669
0.051453527
0.046976195
0.042430503
0.037860519
0.033322717
0.028887971
0.024642466
0.020685515
0.01712378
0.014055164
0.011545634
0.0096061867
0.095861354
0.093155127
0.090161103
0.08697777
0.08360356
0.080038761
0.07628516
0.072346642
0.068229718
0.063944189
0.059503987
0.054928224
0.050242493
0.045480458
0.040685721
0.035913866
0.031234363
0.026731597
0.022503963
0.018657808
0.015297477
0.012503971
0.10428813
0.10167399
0.098755433
0.095641698
0.092330349
0.088819834
0.085110433
0.081203873
0.077103964
0.072817126
0.068353027
0.063725369
0.058952885
0.054060563
0.049081123
0.044056772
0.039041132
0.034101133
0.029318343
0.024788716
0.020619776
0.016922404
0.1132085
0.11070528
0.10788156
0.10485863
0.10163255
0.098200928
0.094562337
0.090716767
0.086665745
0.082412878
0.077964322
0.073329363
0.068521157
0.063557653
0.058462717
0.05326751
0.048012102
0.042747319
0.037536671
0.032458091
0.027604982
0.023085516
0.12259512
0.12022048
0.11750974
0.11459709
0.11147757
0.1081476
0.10460453
0.10084685
0.096874352
0.092688305
0.088291973
0.083691068
0.078894286
0.073913983
0.068767012
0.063475751
0.058069356
0.052585267
0.047070977
0.04158607
0.036204424
0.031016937
0.13241897
0.13018915
0.12760816
0.12482368
0.12183015
0.11862276
0.11519792
0.11155284
0.10768578
0.10359629
0.099285308
0.094755695
0.090012616
0.085064047
0.079921376
0.074600164
0.069121071
0.063511001
0.057804507
0.052045528
0.046289602
0.040607537
0.14264834
0.14057813
0.13814221
0.1355023
0.13265219
0.12958655
0.12630053
0.12279038
0.11905314
0.11508688
0.11089084
0.1064656
0.10181356
0.096939272
0.091849922
0.086555845
0.081071214
0.075414883
0.069611439
0.063692542
0.057698787
0.051683336
0.15324937
0.15135231
0.14907553
0.14659517
0.14390447
0.14099761
0.13786912
0.13451405
0.13092851
0.12710939
0.12305449
0.11876277
0.11423442
0.10947135
0.10447751
0.099259246
0.093825828
0.088190053
0.082369017
0.076385127
0.070267598
0.064055797
0.16418661
0.16247507
0.16037035
0.15806328
0.15554663
0.15281408
0.14985973
0.14667801
0.14326385
0.13961321
0.13572278
0.13159017
0.12721399
0.12259411
0.11773195
0.11263083
0.10729633
0.10173671
0.095963503
0.089992281
0.083843866
0.077547402
0.17542319
0.17390849
0.17198775
0.1698666
0.1675374
0.16499341
0.16222831
0.15923611
0.15601111
0.15254812
0.14884298
0.1448922
0.14069316
0.1362442
0.13154485
0.12659608
0.12140069
0.11596355
0.11029208
0.10439683
0.098292524
0.092000871
0.18692122
0.18561374
0.183888
0.18196443
0.17983501
0.17749267
0.17493071
0.17214273
0.16912265
0.16586466
0.1623635
0.15861484
0.15461507
0.15036134
0.14585178
0.14108559
0.13606343
0.13078764
0.12526258
0.11949514
0.11349558
0.10728023
0.19864205
0.19755134
0.19603087
0.19431568
0.19239746
0.19026887
0.18792287
0.18535272
0.18255193
0.17951436
0.17623412
0.17270587
0.16892515
0.16488823
0.16059209
0.15603469
0.15121503
0.14613353
0.14079228
0.13519546
0.12935007
0.12326849
0.21054666
0.20968153
0.20837592
0.2068792
0.20518281
0.20327917
0.20116103
0.19882131
0.1962532
0.19345015
0.19040594
0.18711466
0.18357087
0.17977005
0.17570838
0.17138274
0.16679099
0.16193207
0.15680634
0.15141595
0.14576551
0.1398644
0.222596
0.22196462
0.22088286
0.21961408
0.21814948
0.21648131
0.2146021
0.21250454
0.21018152
0.20762616
0.20483186
0.20179236
0.19850172
0.19495448
0.19114609
0.1870727
0.18273118
0.17811942
0.17323645
0.16808287
0.16266145
0.1569793
0.2347515
0.23436144
0.23351202
0.23248009
0.23125666
0.22983383
0.22820394
0.22635949
0.22429314
0.22199772
0.2194663
0.21669225
0.21366929
0.21039149
0.20685343
0.20305058
0.19897915
0.19463615
0.19001964
0.18512898
0.17996549
0.1745345
0.24697503
0.24683341
0.24622438
0.24543773
0.24446432
0.24329609
0.24192526
0.24034419
0.2385453
0.23652121
0.2342647
0.23176885
0.22902701
0.22603293
0.22278073
0.21926507
0.21548152
0.2114265
0.20709724
0.2024922
0.19761151
0.19245903
0.25922872
0.25934222
0.25898123
0.25844787
0.25773283
0.25682798
0.25572542
0.25441734
0.25289604
0.25115393
0.24918357
0.24697776
0.24452956
0.24183237
0.23887999
0.23566669
0.23218727
0.22843749
0.22441405
0.22011458
0.21553839
0.21068801
0.2714752
0.2718501
0.27174439
0.27147189
0.27102318
0.27039
0.26956438
0.26853841
0.26730424
0.26585412
0.26418043
0.26227573
0.26013283
0.25774482
0.2551052
0.25220789
0.24904732
0.24561853
0.2419176
0.23794162
0.23368903
0.22916142
0.2836782
0.2843203
0.28447668
0.28447219
0.28429725
0.28394357
0.28340309
0.2826678
0.28172975
0.28058104
0.27921389
0.27762067
0.27579396
0.2737266
0.27141179
0.26884313
0.26601472
0.26292123
0.25955803
0.25592159
0.25200977
0.24782316
0.29580295
0.29671756
0.29714236
0.29741252
0.29751834
0.29745148
0.2972038
0.29676724
0.29613372
0.29529524
0.29424388
0.29297182
0.29147146
0.28973541
0.28775661
0.28552836
0.28304443
0.28029916
0.27728754
0.2740053
0.27044966
0.26662046
0.30781649
0.30900842
0.30970748
0.31025841
0.31065146
0.31087818
0.31093043
0.31080004
0.31047888
0.30995884
0.30923184
0.30828995
0.30712537
0.30573052
0.30409808
0.30222112
0.30009308
0.29770797
0.29506038
0.29214569
0.28896031
0.28550328
0.31968783
0.32116142
0.32214004
0.32297736
0.32366352
0.32419004
0.32454872
0.32473136
0.32472975
0.32453567
0.32414096
0.32353752
0.32271741
0.32167286
0.32039635
0.31888068
0.31711902
0.31510506
0.31283301
0.31029784
0.30749549
0.3044241
0.33138799
0.33314707
0.33441005
0.3355388
0.33652339
0.33735532
0.33802634
0.33852821
0.33885267
0.33899142
0.3389362
0.3386788
0.33821112
0.33752522
0.33661338
0.33546817
0.33408251
0.33244977
0.33056381
0.32841918
0.32601135
0.32333786
0.34289048
0.34493828
0.34648977
0.34791436
0.34920206
0.35034435
0.35133295
0.35215961
0.352816
0.35329377
0.35358455
0.35368003
0.35357199
0.35325232
0.35271311
0.35194673
0.35094583
0.34970348
0.34821323
0.34646922
0.34446644
0.34220182
0.3541717
0.3565108
0.35835427
0.36007841
0.3616732
0.36313009
0.36444082
0.36559709
0.36659054
0.36741276
0.36805531
0.36850977
0.3687678
0.36882114
0.36866172
0.36828168
0.36767344
0.3668298
0.36574397
0.3644097
0.36282154
0.36097579
0.36521097
0.36784332
0.36998152
0.3720082
0.37391331
0.37568832
0.37732495
0.3788149
0.38014976
0.38132109
0.38232037
0.3831391
0.38376882
0.38420114
0.38442781
0.38444077
0.38423223
0.3837947
0.38312109
0.38220477
0.38103984
0.37962202
0.37599056
0.37891746
0.38135243
0.3836839
0.38590184
0.3879977
0.38996323
0.39179012
0.39346994
0.39499421
0.39635436
0.39754181
0.39854798
0.39936436
0.39998255
0.4003943
0.40059159
0.40056668
0.40031215
0.39982104
0.39908701
0.39810523
0.38649567
0.38971775
0.39245082
0.39508861
0.39762109
0.40003978
0.40233641
0.40450268
0.40653018
0.40841039
0.41013468
0.41169442
0.41308092
0.41428557
0.41529981
0.41611521
0.41672355
0.41711682
0.41728732
0.41722773
0.41693131
0.41639268
0.39671437
0.40023162
0.40326337
0.40620824
0.40905624
0.41179892
0.41442804
0.41693534
0.41931239
0.42155066
0.42364151
0.42557623
0.42734605
0.42894226
0.43035615
0.43157914
0.43260279
0.43341886
0.43401936
0.43439664
0.43454356
0.43445421
0.40663749
0.41044921
0.4137795
0.41703146
0.42019518
0.42326223
0.42622444
0.42907357
0.43180122
0.43439884
0.43685778
0.43916928
0.44132451
0.44331465
0.44513088
0.44676445
0.44820673
0.44944926
0.45048377
0.45130228
0.45189726
0.45226233
0.4162586
0.42036342
0.42399135
0.42754967
0.43102852
0.43441955
0.43771464
0.4409056
0.44398404
0.44694145
0.44976915
0.45245835
0.45500018
0.45738572
0.45960604
0.46165225
0.46351553
0.4651872
0.46665875
0.46792187
0.46896868
0.4697923
0.42557397
0.42996987
0.43389382
0.43775701
0.44154966
0.44526348
0.44889044
0.45242239
0.45585101
0.45916779
0.46236405
0.465431
0.46835971
0.47114119
0.47376642
0.47622637
0.47851206
0.48061461
0.48252524
0.48423537
0.48573675
0.48702207
0.43458227
0.43926661
0.44348428
0.44765014
0.45175451
0.4557892
0.45974625
0.46361757
0.46739491
0.47106979
0.47463357
0.47807741
0.48139239
0.48456945
0.48759948
0.49047334
0.49318189
0.49571607
0.49806686
0.5002254
0.5021831
0.50393223
0.44328431
0.44825387
0.45276231
0.45722798
0.46164132
0.46599421
0.47027881
0.47448713
0.47861095
0.48264187
0.48657125
0.49039031
0.49409007
0.49766145
0.50109525
0.50438225
0.50751317
0.51047876
0.5132698
0.51587716
0.51829194
0.52050599
0.45168282
0.45693382
0.46172949
0.46649148
0.47121035
0.47587813
0.48048705
0.48502923
0.48949655
0.49388066
0.49817297
0.50236472
0.50644693
0.51041049
0.51424617
0.51794464
0.5214965
0.52489235
0.52812277
0.53117838
0.53404999
0.53672906
0.45978224
0.4653104
0.47038917
0.47544339
0.48046377
0.48544245
0.49037181
0.49524406
0.50005118
0.50478489
0.50943669
0.51399783
0.51845935
0.52281215
0.52704694
0.53115432
0.53512481
0.53894884
0.54261683
0.54611917
0.5494464
0.55258961
0.46758859
0.47338914
0.47874635
0.48408816
0.48940543
0.49469047
0.49993575
0.50513362
0.51027617
0.51535523
0.52036234
0.52528883
0.53012577
0.53486405
0.53949437
0.54400729
0.54839321
0.55264247
0.55674531
0.56069193
0.5644726
0.56807809
0.47510917
0.48117692
0.48680743
0.4924317
0.49804074
0.50362701
0.50918313
0.51470159
0.52017459
0.52559407
0.53095166
0.53623876
0.54144649
0.54656576
0.55158726
0.55650151
0.56129887
0.56596955
0.57050365
0.5748912
0.57912222
0.58318719
0.48235234
0.48868172
0.49458
0.50048115
0.50637636
0.51225826
0.51811962
0.52395308
0.52975098
0.53550537
0.54120799
0.54685031
0.55242353
0.55791859
0.56332619
0.56863683
0.57384082
0.5789283
0.58388924
0.5887135
0.59339091
0.59791164
0.48932734
0.49591245
0.50207259
0.50824465
0.51442004
0.52059152
0.52675208
0.53289447
0.5390112
0.54509444
0.55113606
0.55712763
0.56306041
0.5689254
0.57471334
0.58041473
0.58601983
0.59151873
0.5969013
0.60215725
0.60727622
0.61224815
0.49604409
0.50287875
0.50929453
0.5157312
0.52218039
0.52863505
0.53508832
0.54153315
0.54796218
0.55436774
0.56074184
0.56707613
0.57336198
0.57959047
0.58575236
0.59183819
0.5978382
0.60374243
0.60954067
0.61522252
0.62077745
0.62619517
0.50251302
0.50959082
0.51625574
0.52295044
0.52966676
0.53639784
0.54313702
0.5498774
0.55661181
0.56333274
0.57003231
0.57670232
0.58333426
0.58991925
0.59644816
0.60291152
0.60929961
0.61560243
0.62180971
0.62791095
0.63389549
0.63975281
0.50874492
0.51605926
0.52296662
0.52991253
0.53688905
0.54388953
0.55090748
0.55793622
0.56496874
0.57199769
0.57901535
0.58601367
0.59298423
0.59991827
0.60680673
0.61364019
0.62040896
0.62710302
0.63371208
0.64022555
0.64663264
0.65292269
0.51475083
0.52229496
0.52943786
0.53662797
0.54385756
0.55112018
0.55840955
0.56571917
0.57304223
0.58037155
0.58769957
0.59501839
0.60231973
0.60959494
0.61683503
0.62403068
0.63117222
0.63824965
0.64525265
0.65217058
0.65899256
0.66570776
0.5205419
0.52830894
0.5356804
0.54310754
0.5505829
0.55810022
0.56565343
0.57323625
0.58084203
0.5884638
0.59609416
0.60372538
0.6113493
0.61895742
0.62654086
0.63409035
0.6415963
0.64904873
0.65643732
0.6637514
0.67098001
0.6781122
0.52612927
0.5341123
0.54170521
0.54936215
0.55707584
0.5648403
0.57264963
0.58049777
0.58837827
0.59628434
0.60420879
0.61214403
0.62008207
0.62801454
0.63593266
0.6438273
0.6516889
0.65950754
0.66727293
0.67497436
0.68260084
0.6901413
0.53152405
0.53971611
0.54752333
0.55540272
0.56334727
0.57135119
0.57940881
0.58751426
0.59566133
0.60384341
0.61205349
0.62028416
0.62852761
0.63677559
0.64501948
0.65325024
0.6614584
0.66963411
0.67776709
0.68584666
0.69386178
0.70180131
0.53673719
0.54513131
0.55314569
0.5612402
0.56940806
0.57764371
0.58594171
0.5942964
0.60270178
0.61115143
0.61963855
0.62815591
0.63669586
0.64525033
0.65381083
0.66236842
0.67091377
0.67943707
0.68792812
0.69637624
0.70477038
0.71309936
0.54177948
0.55036872
0.55858311
0.56688539
0.57526902
0.58372867
0.59225911
0.6008549
0.60951025
0.61821897
0.62697443
0.63576961
0.64459704
0.6534488
0.66231656
0.67119152
0.68006444
0.68892562
0.69776491
0.70657169
0.7153349
0.72404331
0.54666143
0.55543892
0.56384623
0.57234897
0.58094085
0.58961676
0.59837171
0.60720046
0.61609744
0.62505666
0.63407172
0.64313578
0.65224155
0.6613813
0.67054684
0.67972953
0.68892023
0.69810937
0.70728686
0.71644213
0.72556417
0.73464171
0.55139332
0.56035224
0.56894545
0.57764141
0.58643409
0.59531858
0.60429012
0.61334371
0.62247397
0.63167515
0.64094104
0.650265
0.65963993
0.66905829
0.67851204
0.6879927
0.69749128
0.70699829
0.71650376
0.72599717
0.73546756
0.74490366
0.55598511
0.56511877
0.57389095
0.58277297
0.59175905
0.60084452
0.61002482
0.61929516
0.62865041
0.63808501
0.64759297
0.65716786
0.66680276
0.67649032
0.68622267
0.69599149
0.70578793
0.71560264
0.72542573
0.73524678
0.74505487
0.75483876
0.56044644
0.56974825
0.57869259
0.58775363
0.59692584
0.60620476
0.61558606
0.62506518
0.63463718
0.64429674
0.65403807
0.66385493
0.67374063
0.68368799
0.69368932
0.70373646
0.71382072
0.72393287
0.73406315
0.74420122
0.75433624
0.76445701
0.5647866
0.57425012
0.58335994
0.59259309
0.60194427
0.61140925
0.62098391
0.63066391
0.64044454
0.65032067
0.66028674
0.67033671
0.68046409
0.69066189
0.70092261
0.71123825
0.72160027
0.73199961
0.7424266
0.75287102
0.76332212
0.77376874
0.56901454
0.57863349
0.58790226
0.59730075
0.60682388
0.61646766
0.62622818
0.63610131
0.64608254
0.65616698
0.66634927
0.67662357
0.6869836
0.69742256
0.70793313
0.71850749
0.72913727
0.73981354
0.75052677
0.76126687
0.77202316
0.78278455
0.57313885
0.5829071
0.59232845
0.60188567
0.61157391
0.62138939
0.6313284
0.64138704
0.65156102
0.66184564
0.67223574
0.68272573
0.69330949
0.70398042
0.71473141
0.72555481
0.73644239
0.7473854
0.75837445
0.76939957
0.78045017
0.79151525
0.57716772
0.58707933
0.59664707
0.60635659
0.61620326
0.6261835
0.63629383
0.64653053
0.65688954
0.66736636
0.67795605
0.68865321
0.69945192
0.71034579
0.72132788
0.73239072
0.74352628
0.75472593
0.76598044
0.77727998
0.78861406
0.79997178
0.581109
0.59115821
0.60086633
0.61072189
0.62072049
0.63085875
0.64113339
0.65154089
0.6620774
0.67273863
0.68351984
0.69441582
0.70542087
0.71652878
0.7277328
0.73902565
0.75039946
0.76184578
0.77335552
0.78491897
0.79652579
0.80816517
0.58497012
0.59515136
0.60499406
0.61498961
0.62513383
0.63542355
0.64585569
0.65642693
0.6671336
0.67797163
0.68893647
0.70002312
0.71122607
0.7225393
0.73395627
0.74546985
0.75707236
0.76875551
0.78051037
0.79232737
0.80419631
0.81610645
0.58875814
0.59906604
0.60903769
0.61916738
0.62945114
0.63988597
0.650469
0.66119711
0.67206681
0.68307424
0.69421504
0.7054844
0.71687701
0.72838705
0.74000815
0.75173338
0.76355521
0.77546554
0.78745559
0.79951593
0.81163649
0.82380666
0.59247971
0.60290912
0.61300431
0.62326249
0.63367989
0.64425371
0.65498124
0.66585956
0.67688538
0.68805501
0.69936431
0.71080865
0.72238291
0.73408144
0.74589808
0.75782607
0.76985806
0.7819861
0.79420159
0.80649524
0.81885713
0.83127675
0.5961411
0.60668705
0.61690059
0.62728183
0.6378272
0.64853408
0.65939994
0.67042205
0.6815973
0.69292218
0.70439274
0.71600454
0.72775265
0.73963161
0.75163542
0.7637575
0.7759907
0.78832722
0.80075861
0.81327576
0.82586886
0.83852755
0.59974818
0.61040593
0.62073283
0.6312319
0.64189979
0.65273403
0.66373229
0.67489198
0.6862102
0.69768361
0.70930844
0.72108043
0.73299483
0.74504637
0.75722922
0.76953698
0.78196267
0.79449866
0.80713666
0.8198677
0.83268214
0.84556973
0.60330643
0.61407144
0.62450691
0.63511883
0.645904
0.65686014
0.66798507
0.67927639
0.69073136
0.70234682
0.71411916
0.72604431
0.73811769
0.75033422
0.76268823
0.7751735
0.78778322
0.80050992
0.81334547
0.82628106
0.83930719
0.85241374
0.60682094
0.61768889
0.62822837
0.63894834
0.64984579
0.66091858
0.67216471
0.68358193
0.69516767
0.70691892
0.71883227
0.73090381
0.74312913
0.75550331
0.76802086
0.78067574
0.79346128
0.80637019
0.8193945
0.83252555
0.84575398
0.85906982
0.61029644
0.6212632
0.63190234
0.6427258
0.65373073
0.66491517
0.67627724
0.68781487
0.69952564
0.71140671
0.72345482
0.73566622
0.74803668
0.76056144
0.77323518
0.78605202
0.79900546
0.81208836
0.82529291
0.8386106
0.85203222
0.86554794
0.61373728
0.62479893
0.63553359
0.64645618
0.65756404
0.66885533
0.68032834
0.69198113
0.70381143
0.71581657
0.72799344
0.74033844
0.75284752
0.76551605
0.7783389
0.79131034
0.80442401
0.81767295
0.8310495
0.84454529
0.85815128
0.87185774
0.61714748
0.62830031
0.63912653
0.65014413
0.66135056
0.67274414
0.68432329
0.69608623
0.70803082
0.72015453
0.73245441
0.74492702
0.75756844
0.77037422
0.78333937
0.7964583
0.80972484
0.82313216
0.83667275
0.85033841
0.86412021
0.87800859
0.62053072
0.6317712
0.64268526
0.65379393
0.66509479
0.67658632
0.68826707
0.70013537
0.71218923
0.72442626
0.73684366
0.74943813
0.76220589
0.77514265
0.78824356
0.80150319
0.8149155
0.82847383
0.8421708
0.85599836
0.86994774
0.88400949
0.62389038
0.63521519
0.64621355
0.65740954
0.66880092
0.68038628
0.69216427
0.70413338
0.71629174
0.72863709
0.74116676
0.75387759
0.76676596
0.7798277
0.7930581
0.80645189
0.82000317
0.83370541
0.8475514
0.86153321
0.87564221
0.8898691
0.62722957
0.63863555
0.64971485
0.66099465
0.67247282
0.68414808
0.6960192
0.70808479
0.72034309
0.73279199
0.74542893
0.75825089
0.77125437
0.78443535
0.79778925
0.81131094
0.82499467
0.83883403
0.85282195
0.86695064
0.88121162
0.89559571
0.63055113
0.64203532
0.65319239
0.66455263
0.67611407
0.68787551
0.69983585
0.7119938
0.72434773
0.73689563
0.74963507
0.76256316
0.77567652
0.78897126
0.80244293
0.81608654
0.82989645
0.84386641
0.85798947
0.87225799
0.8866636
0.90119726
0.63385768
0.64541727
0.6566491
0.66808663
0.67972799
0.69157209
0.70361793
0.71586433
0.72830977
0.74095235
0.75378976
0.76681921
0.78003746
0.79344073
0.80702471
0.82078451
0.83471463
0.84880895
0.86306064
0.87746221
0.89200539
0.9066813
0.63715162
0.64878396
0.66008772
0.67159954
0.68331764
0.69524106
0.70736889
0.71970003
0.73223307
0.74496622
0.75789728
0.77102357
0.78434195
0.79784876
0.81153981
0.82541034
0.83945496
0.85366766
0.86804177
0.88256988
0.89724388
0.912055
0.64043516
0.65213775
0.66351075
0.67509401
0.68688587
0.69888544
0.7110919
0.72350426
0.7361212
0.74894102
0.76196161
0.77518042
0.7885944
0.8022
0.81599315
0.82996918
0.84412284
0.85844823
0.87293878
0.88758723
0.90238558
0.91732515
0.64371032
0.6554808
0.6669205
0.67857252
0.69043529
0.702508
0.71478994
0.72728017
0.73997747
0.75288025
0.76598647
0.77929369
0.79279895
0.80649882
0.82038931
0.83446587
0.84872335
0.86315598
0.87775729
0.89252012
0.90743661
0.92249819
0.64697896
0.65881509
0.67031909
0.68203732
0.6939683
0.70611131
0.7184657
0.73103063
0.74380495
0.75678715
0.7699753
0.78336701
0.79695945
0.81074926
0.82473256
0.83890491
0.85326125
0.8677959
0.88250252
0.89737406
0.91240276
0.92758015
0.65024275