/*--------------------------------*- C++ -*----------------------------------*\
| =========                 |                                                 |
| \\      /  F ield         | OpenFOAM: The Open Source CFD Toolbox           |
|  \\    /   O peration     | Version:  2406                                  |
|   \\  /    A nd           | Website:  www.openfoam.com                      |
|    \\/     M anipulation  |                                                 |
\*---------------------------------------------------------------------------*/
FoamFile
{
    version     2.0;
    format      ascii;
    arch        "LSB;label=32;scalar=64";
    class       volScalarField;
    location    "0.05";
    object      alphat;
}
// * * * * * * * * * * * * * * * * * * * * * * * * * * * * * * * * * * * * * //

dimensions      [1 -1 -1 0 0 0 0];

internalField   nonuniform List<scalar> 
2065
(
0.052898795
0.060521352
0.069703688
0.080373764
0.092528655
0.10622165
0.12155839
0.13866342
0.15767263
0.17878593
0.20223022
0.22821326
0.25692523
0.28850099
0.32292746
0.35998523
0.3991328
0.43935387
0.47901145
0.51565103
0.54560749
0.56378134
0.56333006
0.5357736
0.47221836
0.36700937
0.22789264
0.11550453
0.078458654
0.062327861
0.050936029
0.062869195
0.070821993
0.079815565
0.09009097
0.10179683
0.11504319
0.12995178
0.14666033
0.16532183
0.18612699
0.20929439
0.23502789
0.26350333
0.29484424
0.32901974
0.36579049
0.40459564
0.44439951
0.48354282
0.51954298
0.54871546
0.56594423
0.56437758
0.53554814
0.47063528
0.36421603
0.22497256
0.11340552
0.078024254
0.062134259
0.050892633
0.07452582
0.082394984
0.091187296
0.10113737
0.11243327
0.12523158
0.13968522
0.15595642
0.17421768
0.19466087
0.21749917
0.2429275
0.27111344
0.30216368
0.33602888
0.37244695
0.41083553
0.45013768
0.4886706
0.52392003
0.55218153
0.56832247
0.5654814
0.53520755
0.46876008
0.36097801
0.22155781
0.11124164
0.07756689
0.061915058
0.050853382
0.088163744
0.09568911
0.10417509
0.11376599
0.12464405
0.13698338
0.1509598
0.16675808
0.18457008
0.20459563
0.22704418
0.2521072
0.27994008
0.31063078
0.34411391
0.380101
0.41798602
0.45668896
0.49450013
0.52886984
0.55607239
0.57095567
0.56664763
0.53471867
0.46652273
0.35721114
0.21756682
0.10899264
0.077075506
0.061668847
0.050820101
0.1040023
0.11104357
0.11912279
0.12828338
0.1386986
0.15054614
0.16401287
0.17929836
0.1966098
0.21615687
0.23814881
0.2627746
0.29017872
0.32042924
0.35344084
0.38890212
0.42617862
0.46416495
0.50112044
0.53445737
0.56042633
0.57385302
0.56785453
0.53402798
0.46384023
0.35281451
0.21291005
0.10663685
0.076542489
0.061391576
0.050792151
0.12218002
0.1287066
0.1363061
0.14497121
0.15487087
0.16618365
0.17910104
0.19383028
0.21058841
0.22959345
0.25105648
0.27516391
0.30205038
0.33176379
0.36419825
0.39901808
0.43555869
0.47268573
0.50862435
0.54074669
0.5652759
0.57701334
0.56906524
0.53306226
0.46060729
0.34766577
0.20748995
0.10415276
0.075961016
0.061078986
0.050766096
0.14283323
0.14885506
0.15594462
0.16407824
0.17342521
0.18416652
0.19649662
0.21062664
0.22677897
0.24517712
0.26603393
0.28953284
0.31579906
0.34486159
0.37659313
0.41063221
0.44628296
0.48237878
0.51710792
0.54779972
0.57064648
0.58042257
0.57022382
0.53172312
0.4566893
0.34161422
0.20120139
0.10152257
0.075325637
0.060729011
0.050723368
0.16607025
0.17162588
0.17821482
0.18581676
0.19460244
0.20475557
0.21647307
0.22996839
0.24546664
0.2631941
0.28336407
0.30615622
0.33168631
0.35996609
0.39084624
0.42393856
0.45851491
0.49337371
0.5266635
0.55566887
0.57654754
0.58404411
0.57124518
0.52987704
0.45191323
0.33447321
0.19393404
0.098735256
0.07463219
0.060339251
0.050680312
0.19197661
0.19713803
0.20326394
0.21036308
0.218608
0.22818191
0.23928198
0.25212228
0.26692855
0.28392725
0.30333008
0.32531173
0.34997823
0.37732525
0.40718159
0.43913182
0.47241488
0.50579198
0.53736962
0.56438626
0.58296121
0.58780672
0.57200232
0.52734228
0.44605538
0.32601021
0.18557798
0.095789186
0.073877688
0.059906454
0.050641951
0.22056957
0.22542484
0.2311602
0.23781875
0.24557633
0.25461135
0.26511741
0.27730621
0.29140113
0.30762581
0.32618764
0.34725447
0.37092195
0.39717023
0.42580679
0.45638901
0.48812269
0.51973027
0.5492746
0.57394716
0.58982535
0.59158708
0.5723084
0.52387091
0.43882481
0.31593353
0.17603455
0.092694033
0.073060454
0.059425989
0.050602063
0.25170982
0.25637693
0.26185045
0.26817388
0.27553011
0.28409993
0.29406914
0.30564138
0.31903273
0.33445952
0.35212111
0.37217573
0.39470708
0.41967966
0.44688005
0.47583892
0.50572906
0.53523343
0.56237045
0.58428432
0.59700794
0.59518408
0.57189101
0.51912381
0.42984123
0.30387457
0.16523638
0.08947276
0.072179533
0.058892156
0.050560532
0.28521437
0.28977381
0.29510438
0.30124039
0.30832478
0.31653832
0.32606369
0.33709018
0.34981942
0.36445401
0.38117978
0.4001411
0.42140678
0.44492411
0.47045844
0.49751393
0.52523066
0.55225215
0.57655247
0.59522901
0.60426908
0.59828145
0.57035568
0.51263617
0.41860543
0.28936412
0.15318251
0.086163323
0.071233098
0.058296632
0.050521085
0.32068685
0.32527438
0.33057607
0.33664795
0.34361303
0.35160693
0.36080616
0.37138639
0.38352681
0.39740723
0.41319186
0.43100449
0.45089359
0.47278521
0.49642104
0.5212776
0.54646208
0.57057885
0.59155844
0.60645283
0.61120495
0.60039369
0.56713404
0.5037701
0.40446091
0.27184608
0.13999429
0.082717227
0.070215737
0.057662744
0.050483133
0.35752986
0.36225995
0.36766421
0.37378805
0.380761
0.3886901
0.39769531
0.40794414
0.41959119
0.43278377
0.44765417
0.46429558
0.48272682
0.50284463
0.52436097
0.54672088
0.56899668
0.58975332
0.60687879
0.61738218
0.61716614
0.6007882
0.56141062
0.49164988
0.38654646
0.25072907
0.12599149
0.079162393
0.069114266
0.057009579
0.050436636
0.39478306
0.39975279
0.40537134
0.41167278
0.4187611
0.42673136
0.43568075
0.44572376
0.45698835
0.46958347
0.48359851
0.49908275
0.51601186
0.5342408
0.55344143
0.57301953
0.5920074
0.60892805
0.62162717
0.62707437
0.62113976
0.59837398
0.55201997
0.4750748
0.36374006
0.22543592
0.11253586
0.075675961
0.067903072
0.056369433
0.050385194
0.43107142
0.43633709
0.44223403
0.44878518
0.4560802
0.46421016
0.47323125
0.48318766
0.49416666
0.50624862
0.51947281
0.53383112
0.54923938
0.56549397
0.58221152
0.59874531
0.61407703
0.62668079
0.63435763
0.63404143
0.62158151
0.59154411
0.53730366
0.45240462
0.33460154
0.19562051
0.10074601
0.07237688
0.066545592
0.055769383
0.050332643
0.46460531
0.47017383
0.47636282
0.48318399
0.49070589
0.49898917
0.50809695
0.51806758
0.52887449
0.5405073
0.55297569
0.56622042
0.58008258
0.59428489
0.60836975
0.62161847
0.63294419
0.64075835
0.64281057
0.63600243
0.6161788
0.57795531
0.51491476
0.42141865
0.29735759
0.16171859
0.089764913
0.06934072
0.064831784
0.055251216
0.050270358
0.49286245
0.4986696
0.5050885
0.51212096
0.51982032
0.5282211
0.53734228
0.54719241
0.55776922
0.56899574
0.5807325
0.59284305
0.60510469
0.61715664
0.62845121
0.63817909
0.64516159
0.64772686
0.64356149
0.62953827
0.60152039
0.55422504
0.48155996
0.37917014
0.25009062
0.12644506
0.079595886
0.065853162
0.063945215
0.054868389
0.050202681
0.51212597
0.51803865
0.52454503
0.53163831
0.5393595
0.54771653
0.55670287
0.5662872
0.57641663
0.58701228
0.59791941
0.60883107
0.61937593
0.62912277
0.63741633
0.6433417
0.64562333
0.64248284
0.63152777
0.60960762
0.57263767
0.51552827
0.43268395
0.32192652
0.1917483
0.10223412
0.071448622
0.06263049
0.062374118
0.05462979
0.050164155
0.51630786
0.52215465
0.52856371
0.53551903
0.54304152
0.55112491
0.55973758
0.56881492
0.57824729
0.5878915
0.59753856
0.6069066
0.61556285
0.62281807
0.62786043
0.62965783
0.62682572
0.61751223
0.59923881
0.56884848
0.52236505
0.45510115
0.36215214
0.24563386
0.12840778
0.082313673
0.06523486
0.060719518
0.060446829
0.054500731
0.050111229
0.49467697
0.50027837
0.50639867
0.51300905
0.52011162
0.52767906
0.53565124
0.54393094
0.55237603
0.56078984
0.56886755
0.57625206
0.58244756
0.58677456
0.58827413
0.58569791
0.5774612
0.56159484
0.53563489
0.49649505
0.44041858
0.36377138
0.26216802
0.15373613
0.092230166
0.068362025
0.061834704
0.058626015
0.058617832
0.054112535
0.050121478
0.42834151
0.43372386
0.43957525
0.44584347
0.45250491
0.45950483
0.46675059
0.47410415
0.48137024
0.48828105
0.49448703
0.49952594
0.50277385
0.50352851
0.50079854
0.49330231
0.4793816
0.45705947
0.42363105
0.37621499
0.31170478
0.23081621
0.15494552
0.096425987
0.068615497
0.060642261
0.059109875
0.056549419
0.056608039
0.053572233
0.050108677
0.306415
0.31052716
0.31497761
0.31969147
0.32462393
0.32970373
0.3348244
0.33983002
0.34450559
0.34856916
0.35166211
0.35335349
0.35309114
0.35019895
0.34400028
0.33354512
0.31786918
0.29561675
0.26566989
0.227305
0.18078298
0.13016475
0.091709254
0.067983974
0.059660318
0.057851682
0.056484381
0.054525426
0.054712422
0.05301829
0.050049632
0.17250836
0.1751989
0.17810939
0.18117517
0.18434942
0.18756892
0.19075444
0.19377074
0.19644661
0.19858612
0.19995791
0.20028097
0.19925806
0.19646908
0.19154894
0.18404188
0.17358295
0.15969992
0.14236317
0.12187276
0.099500978
0.078398959
0.064157758
0.057358413
0.055606588
0.054657851
0.054022957
0.05258651
0.053016675
0.052375143
0.049879869
0.086672246
0.088464904
0.090373399
0.092371577
0.094414548
0.096432017
0.098311831
0.10001296
0.10151535
0.10276555
0.10367521
0.10410276
0.10392666
0.10296634
0.10095391
0.097742302
0.093270653
0.087439833
0.080504688
0.072746536
0.065015979
0.058401051
0.054536315
0.053494836
0.053277152
0.052632596
0.052149026
0.051189615
0.051671926
0.052072589
0.049535542
0.057014655
0.057526472
0.058066749
0.058627727
0.059205879
0.059795818
0.060389653
0.060977132
0.061546153
0.062081348
0.062559356
0.062946651
0.063192975
0.063236951
0.063020076
0.062484227
0.061464514
0.059837694
0.057903782
0.055757322
0.053667944
0.052026193
0.051608812
0.051764959
0.051352593
0.050951996
0.050716266
0.050168906
0.050575456
0.050552487
0.049306941
0.050234284
0.050444672
0.05065897
0.050874287
0.051088238
0.051297728
0.051499414
0.051689976
0.051866076
0.052023905
0.052158389
0.052262931
0.052327603
0.052341537
0.052294606
0.052176686
0.051956719
0.051611154
0.05117725
0.050725968
0.05032069
0.050128402
0.050102055
0.050215019
0.050289545
0.050062055
0.049856812
0.049338134
0.049318324
0.049608802
0.049213234
0.048768515
0.048852662
0.04893461
0.049012288
0.049084063
0.049148949
0.049206396
0.049256246
0.049298744
0.049334318
0.04936316
0.049384529
0.049398658
0.049409175
0.04941574
0.049413119
0.049399582
0.049376425
0.049351681
0.049325003
0.049272402
0.049241225
0.049203802
0.049375678
0.049390084
0.049267495
0.049110845
0.048668259
0.048666532
0.049195404
0.049311109
0.04848053
0.048506919
0.048531191
0.048552582
0.048570502
0.048584514
0.048594422
0.048600364
0.048602891
0.048602999
0.04860204
0.048601394
0.048601835
0.048604755
0.048611874
0.048623482
0.048639016
0.048660576
0.048694979
0.048750868
0.048793145
0.048766968
0.048720774
0.048800418
0.048747044
0.048590201
0.04851219
0.048322532
0.048340893
0.048591357
0.049552848
0.048287781
0.04829086
0.048292135
0.048291923
0.04829008
0.048286521
0.048281256
0.048274431
0.048266379
0.04825769
0.048249288
0.048242383
0.048238024
0.048237159
0.048240653
0.048249089
0.048263889
0.048291068
0.048346257
0.048435546
0.048525183
0.048518739
0.04849838
0.048519075
0.048468691
0.048316111
0.04829474
0.048205941
0.048145123
0.048448354
0.049693894
0.048156286
0.048156403
0.048155542
0.048153476
0.048150089
0.048145291
0.048139069
0.04813146
0.048122545
0.048112497
0.048101694
0.048091014
0.04808231
0.048076665
0.04807367
0.048073105
0.048075694
0.048084145
0.048105355
0.048146022
0.048216303
0.048312677
0.04829317
0.048293649
0.048234346
0.04820609
0.048208437
0.048149541
0.048003479
0.048343118
0.048074917
0.0042958556
0.0067256486
0.010158701
0.014625553
0.020236365
0.027170637
0.035656604
0.046068222
0.058261743
0.072838205
0.090089315
0.11028206
0.13369301
0.16065655
0.191472
0.22633398
0.26523697
0.30782053
0.35318785
0.39963897
0.44439317
0.48321769
0.50993826
0.51617322
0.49161321
0.42594144
0.31604499
0.18440479
0.097493395
0.068983065
0.052708535
0.007331061
0.010621333
0.014649703
0.019576481
0.025564797
0.032866922
0.041843598
0.05256559
0.065189692
0.0801517
0.097738362
0.11823413
0.14193356
0.16915136
0.20016006
0.23512503
0.27400101
0.31638126
0.36131891
0.407069
0.45080188
0.48824984
0.513222
0.51737383
0.49053024
0.42269551
0.31123702
0.18015291
0.096029201
0.068508672
0.052593747
0.009263915
0.012762803
0.017159145
0.022598636
0.029221447
0.037264383
0.04694339
0.058191112
0.071414263
0.086914844
0.1049694
0.1258721
0.14992707
0.17743829
0.2086634
0.24374232
0.2825943
0.32476937
0.36927469
0.41432379
0.45703832
0.49311968
0.51636255
0.51846031
0.48937143
0.4194096
0.30640635
0.17594594
0.094573571
0.068039164
0.052479192
0.011514592
0.015481283
0.020330015
0.026208298
0.033305352
0.0418604
0.051916489
0.063694404
0.077463204
0.09347619
0.11199925
0.13332132
0.15774201
0.18555467
0.21700002
0.25219247
0.29101731
0.33298352
0.37705505
0.42140484
0.46310942
0.49783907
0.51937541
0.51944883
0.48815105
0.41610187
0.30157404
0.17180911
0.093162812
0.06758997
0.052371486
0.013712914
0.018064642
0.023335677
0.029675892
0.037331084
0.046337278
0.056859347
0.069150275
0.083425302
0.099920467
0.11889222
0.14062128
0.16539992
0.19350765
0.22516678
0.26046644
0.29925738
0.34101015
0.3846481
0.42830268
0.46900966
0.50240711
0.52226451
0.5203483
0.48688201
0.41278637
0.29675664
0.16776543
0.091820848
0.067166992
0.052273925
0.01583415
0.020628365
0.026360579
0.033203517
0.041316847
0.050771332
0.061788966
0.074569734
0.089319496
0.10626775
0.12566302
0.14778041
0.17290118
0.20129086
0.23315341
0.26855043
0.30729892
0.34883552
0.39203955
0.43500711
0.47473264
0.50682187
0.52503311
0.52116758
0.48557772
0.40947835
0.29197136
0.16383661
0.090559465
0.066771583
0.052187764
0.017974
0.023198288
0.029380634
0.03673943
0.045269504
0.055195988
0.066690931
0.07993645
0.095135252
0.11251078
0.1323062
0.15479049
0.18023485
0.20889165
0.24094456
0.27642775
0.31512504
0.35644224
0.39921609
0.44150835
0.48027292
0.5110829
0.52768602
0.5219168
0.48425228
0.40619328
0.28723528
0.16003952
0.08938771
0.066403165
0.052112888
0.020057886
0.025716955
0.032369904
0.040189716
0.049182017
0.059577505
0.071534313
0.08522592
0.10085226
0.11863155
0.13880487
0.1616349
0.18738466
0.21629294
0.24852034
0.28407751
0.32271928
0.36381416
0.40616485
0.44779715
0.4856259
0.51519085
0.53022916
0.52260697
0.48292044
0.4029467
0.28256489
0.15638645
0.08830818
0.066060244
0.05204732
0.022113032
0.028204181
0.035336164
0.043569484
0.053033387
0.063890324
0.076292606
0.090412114
0.10644497
0.12460664
0.14513661
0.16829264
0.19433038
0.22347334
0.25585942
0.29147955
0.33006078
0.37093516
0.41287303
0.45386474
0.49078756
0.51914716
0.53266924
0.52324961
0.48159738
0.3997543
0.27797593
0.15288843
0.087314479
0.065741205
0.051988642
0.024134728
0.030653304
0.038236976
0.04689537
0.056813646
0.068112342
0.080940705
0.095467714
0.11188595
0.13040947
0.15127614
0.17473983
0.20104674
0.23040571
0.26293822
0.29861418
0.33712996
0.37778902
0.41932794
0.45970291
0.49575449
0.52295384
0.53501365
0.52385671
0.48029843
0.39663179
0.27348283
0.14955431
0.08639961
0.065444768
0.051955277
0.026122252
0.033064692
0.041057565
0.050152721
0.060500413
0.07221842
0.085451376
0.10036436
0.11714657
0.13601208
0.15719728
0.18094932
0.20750325
0.23706237
0.26973266
0.30545607
0.34390712
0.3843594
0.42551712
0.4653039
0.5005238
0.52661343
0.53727028
0.52444062
0.47903896
0.39359489
0.26909892
0.14639055
0.085558464
0.065168107
0.05193344
0.028077628
0.035421479
0.043804489
0.05331684
0.064069805
0.076182221
0.089796228
0.10507364
0.12220042
0.14138747
0.16287018
0.18688955
0.21367315
0.24341611
0.27621444
0.31198195
0.35037243
0.39062996
0.43142835
0.47066024
0.50509307
0.53012883
0.53944742
0.52501392
0.47783421
0.39065912
0.26483865
0.14340165
0.084785953
0.06490993
0.051886109
0.029988191
0.037708692
0.046469518
0.056368414
0.06750532
0.079984947
0.093953608
0.10957021
0.1270199
0.14650618
0.16826062
0.19252658
0.21952514
0.24944272
0.28235771
0.318169
0.35650591
0.39658448
0.43704966
0.47576461
0.5094602
0.53350323
0.54155349
0.5255892
0.47669918
0.38783965
0.26071647
0.14059031
0.084076912
0.064667406
0.051865804
0.031858632
0.039927027
0.049048578
0.059292663
0.07078372
0.083608787
0.097904158
0.11382752
0.13156901
0.15133192
0.17333492
0.19782813
0.22502961
0.25510924
0.28813646
0.32399401
0.36228757
0.40220683
0.44236931
0.48060991
0.51362321
0.5367399
0.5435969
0.52617893
0.47564848
0.38515121
0.25674473
0.13795523
0.083426038
0.064438226
0.051842852
0.033635465
0.042011089
0.051455175
0.062029234
0.073849241
0.08700871
0.10160604
0.11780913
0.13580926
0.15581822
0.17805994
0.20276317
0.23015159
0.26038597
0.29352449
0.32943352
0.36769742
0.40748102
0.44737572
0.48518915
0.51758016
0.53984201
0.54558584
0.52679524
0.47469626
0.38260805
0.25293477
0.13549402
0.082823914
0.064218848
0.051766269
0.035237911
0.043912383
0.05366303
0.064569414
0.076688227
0.090116138
0.10499082
0.12145975
0.13970348
0.15993563
0.18239129
0.20729357
0.23485953
0.26524449
0.29849544
0.33446406
0.37271554
0.41239113
0.45205736
0.4894954
0.52132892
0.54281246
0.54752808
0.5274498
0.47385601
0.38022394
0.24931138
0.1331772
0.082258668
0.064007475
0.0516691
0.036944247
0.045817108
0.055772108
0.066896363
0.079250733
0.092920899
0.10803379
0.12473725
0.14320237
0.16364454
0.18629809
0.21138756
0.23912382
0.26965634
0.30302299
0.33906225
0.377322
0.41692125
0.45640272
0.49352167
0.52486717
0.54565372
0.54943077
0.52815357
0.47314048
0.37801193
0.24589754
0.13097895
0.081724405
0.063801125
0.051553075
0.038608526
0.047638981
0.057752107
0.069023064
0.081543514
0.095397478
0.11070038
0.1275995
0.14626889
0.16691341
0.18975097
0.21501555
0.2429149
0.27359312
0.30708098
0.3432048
0.38149696
0.42105547
0.4604002
0.49726078
0.52819219
0.54836772
0.55130028
0.52891665
0.47256154
0.37598422
0.24271431
0.12887624
0.08121828
0.063595648
0.051440742
0.040253296
0.049382554
0.059594604
0.070969288
0.083591517
0.097560421
0.11299407
0.130037
0.14886281
0.16967095
0.19268414
0.21812332
0.24619107
0.277026
0.31064342
0.34686858
0.3852206
0.42477782
0.46403804
0.50070527
0.53130078
0.55095567
0.553142
0.52974812
0.47213002
0.37415199
0.23978077
0.12684804
0.080738964
0.063392721
0.051339829
0.041841476
0.051018478
0.061274784
0.0727023
0.08538543
0.099428278
0.11495163
0.13210077
0.15105045
0.17199447
0.19514814
0.22073272
0.24894786
0.27992837
0.31368378
0.35002611
0.38846436
0.42806119
0.46730296
0.50384725
0.53418921
0.553418
0.55496026
0.53065586
0.47185568
0.37252523
0.23711409
0.1248744
0.080285823
0.063194568
0.051254126
0.043377332
0.052533195
0.062770619
0.074192167
0.086882242
0.10094686
0.1165071
0.13371372
0.15274624
0.17379584
0.19707121
0.22278848
0.25114534
0.28227393
0.31617971
0.35266497
0.39122762
0.43091221
0.47018489
0.50667867
0.53684388
0.555754
0.55675815
0.5316464
0.47174699
0.3711126
0.23472967
0.12293569
0.079858593
0.063001196
0.05117752
0.044859337
0.053918982
0.064063742
0.075412915
0.08804863
0.10207596
0.11763573
0.13487757
0.15397001
0.17510025
0.19847365
0.22430189
0.2527828
0.28404868
0.31810609
0.35475697
0.39348036
0.43330284
0.47267081
0.50919099
0.5392792
0.5579624
0.55853752
0.53272475
0.47181107
0.36992135
0.23264171
0.12101201
0.079457301
0.062813248
0.051108238
0.04630558
0.055185168
0.065150051
0.076341667
0.088868673
0.10284895
0.11840148
0.13564833
0.15472244
0.17585769
0.19927669
0.22518788
0.25378643
0.28520514
0.31943867
0.35628386
0.3952141
0.43523751
0.4747562
0.51137492
0.54147899
0.56004086
0.56029594
0.53389417
0.47205361
0.36895742
0.23086367
0.11908277
0.079082111
0.062631738
0.051033009
0.047782022
0.056375617
0.066052684
0.076975051
0.089298454
0.10311724
0.11856017
0.13575313
0.15481881
0.17597104
0.19943845
0.22542966
0.25413966
0.28570429
0.32011699
0.35716847
0.39632709
0.43658883
0.47633553
0.51313829
0.54335218
0.56190516
0.5619842
0.53513945
0.47247853
0.36822586
0.22940906
0.11712621
0.078732884
0.062457966
0.050973403
0.004291399
0.0066604642
0.0099418741
0.014231107
0.019642221
0.026237346
0.034362796
0.044312798
0.056061343
0.07013222
0.086848034
0.10650786
0.12945068
0.15597386
0.18639793
0.22094214
0.2596276
0.30212904
0.34758798
0.39436815
0.43971198
0.47939968
0.50726897
0.51494967
0.4920641
0.42808838
0.31958556
0.18773378
0.09865056
0.069408878
0.052791603
0.0045583578
0.0069986965
0.010223983
0.014395329
0.019649953
0.026137334
0.03413821
0.043906757
0.055558898
0.069391759
0.085786487
0.10510395
0.1276948
0.15389111
0.18400882
0.21827135
0.25671506
0.29903728
0.34440661
0.3912162
0.43674664
0.47680543
0.50525974
0.51375213
0.49188279
0.42901904
0.32161111
0.18980223
0.0993872
0.069690126
0.052875943
0.0048434612
0.0073298788
0.010546816
0.014665992
0.019833917
0.026192601
0.03402368
0.043567674
0.054973606
0.068545328
0.084642489
0.10363846
0.12589264
0.15175058
0.18154018
0.21549739
0.25367572
0.29579663
0.34105745
0.38788447
0.43359871
0.47403781
0.50310175
0.51244763
0.49165449
0.42997781
0.32373866
0.19201484
0.10018627
0.069997462
0.052972383
0.005143492
0.0076591108
0.010866745
0.014934157
0.020014381
0.026248603
0.033907832
0.043233092
0.054396314
0.067696492
0.083488773
0.10215418
0.12405663
0.14955625
0.17899553
0.21262243
0.2505099
0.29240526
0.33753642
0.38436819
0.43026008
0.47108747
0.50078518
0.51102692
0.49137183
0.43096124
0.32596858
0.19437585
0.10104662
0.070331054
0.053084493
0.0054641063
0.0079934112
0.011186365
0.015201413
0.020193635
0.026305973
0.033793194
0.04290439
0.053824146
0.066850083
0.08233079
0.1006603
0.12219579
0.14731625
0.17638254
0.20965259
0.24722149
0.28886437
0.333843
0.38066265
0.42672271
0.46794504
0.49829971
0.50947993
0.49102662
0.43196575
0.32830163
0.19689208
0.0058006122
0.0083289116
0.011503101
0.015466906
0.020373182
0.026367349
0.033685137
0.042587407
0.053264775
0.066017819
0.081177761
0.0019658584
0.0023213513
0.0026711102
0.0030204017
0.003368727
0.00072330521
0.0014816561
0.028360977
0.039061813
0.00029955924
0.00071206229
0.0015789196
0.00265577
0.00026518745
0.00058835141
0.0014750718
0.0028965504
0.0046311672
0.00021666863
0.00039973281
0.0011162533
0.0025390982
0.0043524331
0.006463775
0.00024952577
0.00057589627
0.0017102364
0.0034818957
0.0056993633
0.008294294
0.00027731179
0.00075196967
0.0023246602
0.004510899
0.0071367631
0.010142074
0.0002999388
0.00094885226
0.0028791585
0.0054044894
0.0084121356
0.011847874
0.00032101419
0.0011458082
0.0034026242
0.0062960067
0.0097105513
0.013574688
0.00033125788
0.0013453596
0.0039036574
0.0071525098
0.01095589
0.015237211
0.00034566998
0.0015522076
0.004408507
0.0080004628
0.012183705
0.016873027
0.00035815861
0.0017548302
0.0048972059
0.0088309211
0.013388544
0.018479533
0.00036921417
0.0019719808
0.0054020799
0.009664142
0.014579939
0.020062201
0.00037845517
0.0022198383
0.0059292831
0.010502013
0.015760268
0.021625518
0.00038637741
0.0025011049
0.0064475584
0.011298311
0.01689515
0.023149073
0.0003930943
0.0026547655
0.0068133344
0.011996214
0.017970973
0.024636433
0.00039879061
0.0027028095
0.0070597185
0.012573669
0.018939569
0.026036602
0.00040527563
0.0028379715
0.0073484505
0.013092856
0.019794404
0.027298885
0.00041175371
0.0030294287
0.0078171551
0.013873093
0.020887525
0.028740476
0.00041721203
0.0031069745
0.0080900129
0.014469931
0.021863927
0.030134373
0.00042282652
0.003246244
0.0084718948
0.015159893
0.022900161
0.031561464
0.00042758814
0.0033520059
0.0087934122
0.015787661
0.023890773
0.032955823
0.00043212204
0.0034735023
0.0091353048
0.016425787
0.02487911
0.034339195
0.00043617237
0.003583428
0.0094621748
0.017042244
0.025842099
0.035698926
0.0036929215
0.0097829802
0.017638899
0.026772666
0.03703066
0.01008443
0.018199463
0.027627711
0.038293412
0.048860793
0.058985429
0.071127789
0.085407744
0.10192377
0.12075811
0.14200528
0.16572686
0.19197833
0.22075197
0.25190035
0.28521368
0.32315373
0.32028477
0.35817021
0.3565354
0.39321296
0.39302353
0.42703322
0.42842752
0.45797954
0.46101567
0.48366978
0.4883271
0.50046857
0.50670013
0.50218116
0.51002066
0.47783313
0.48747141
0.40820129
0.41998193
0.28657371
0.29839081
0.15853317
0.16674929
0.080033272
0.083789132
0.055262263
0.056249548
0.049543261
0.049936341
0.048489999
0.048652117
0.048386966
0.048442838
0.048270011
0.0482816
0.048149445
0.048153909
)
;

boundaryField
{
    Side1
    {
        type            empty;
    }
    Inlet
    {
        type            calculated;
        value           nonuniform List<scalar> 
92
(
0.047750896
0.047750971
0.047751062
0.047751156
0.047751311
0.0513292
0.047751819
0.047752151
0.047752546
0.047753037
0.047753593
0.047754187
0.047754813
0.047755412
0.047755919
0.047756435
0.047757052
0.047757781
0.050669197
0.047770989
0.047760341
0.050583656
0.0505226
0.050343435
0.047762915
0.047763834
0.049635787
0.047765648
0.049955521
0.050085217
0.047769987
0.047769987
0.047769987
0.047769987
0.047769987
0.047769987
0.047769987
0.047769987
0.047769987
0.047769987
0.047769987
0.047769987
0.047769987
0.047769987
0.047769987
0.047769987
0.047769987
0.047769987
0.047769987
0.047769987
0.047769987
0.047769987
0.047769987
0.047769987
0.047769987
0.047769987
0.047769987
0.047769987
0.047769987
0.047769987
0.047777616
0.047769987
0.053337215
0.053218896
0.053100907
0.052989892
0.052889158
0.052799978
0.052722267
0.052653986
0.052592359
0.047749945
0.052532562
0.052482833
0.047750143
0.052435537
0.052356714
0.052256946
0.052138017
0.052022175
0.047750453
0.047750528
0.047750598
0.051679688
0.04775077
0.047750851
0.053423148
0.053510804
0.053610806
0.05372627
0.047769987
0.047769987
)
;
    }
    Side2
    {
        type            empty;
    }
    Outlet
    {
        type            zeroGradient;
    }
    Botwall
    {
        type            compressible::alphatWallFunction;
        value           nonuniform List<scalar> 0();
    }
    Cyli
    {
        type            compressible::alphatWallFunction;
        value           nonuniform List<scalar> 
20
(
2.5601479e-05
3.0946925e-05
3.5414376e-05
3.9054719e-05
4.2402118e-05
4.4026714e-05
4.6301506e-05
4.8269936e-05
5.000771e-05
5.1456785e-05
5.2698536e-05
5.3751381e-05
5.463047e-05
5.5622879e-05
5.6632943e-05
5.7476805e-05
5.8341184e-05
5.9074266e-05
5.976967e-05
6.0390267e-05
)
;
    }
    procBoundary2to0
    {
        type            processor;
        value           nonuniform List<scalar> 
55
(
0.0010071691
0.0011839316
0.0013872929
0.0016219283
0.0018770343
0.00030939684
0.00081698297
0.00013527275
0.00031240704
0.00031240704
0.010373128
0.018726426
0.018726426
0.029210039
0.04013556
0.00013597402
0.00013597402
0.00016223609
0.00016223609
0.00043964092
0.00043964092
0.0037929473
0.0037929473
0.050529755
0.061641835
0.074638917
0.089611387
0.10665679
0.12588543
0.14739021
0.17121204
0.19738866
0.2258747
0.25651454
0.28907088
0.28907088
0.32492502
0.35868182
0.39228649
0.42456599
0.45394861
0.47812379
0.49347058
0.49370901
0.46771539
0.39608525
0.27471668
0.15064775
0.076417783
0.054259338
0.04911185
0.048296762
0.048316211
0.048250797
0.048143059
)
;
    }
    procBoundary2to3
    {
        type            processor;
        value           nonuniform List<scalar> 
35
(
0.10199533
0.070695702
0.053207825
0.099151698
0.12030127
0.14501945
0.17368671
0.2065705
0.24379042
0.28515135
0.32995193
0.37673951
0.42295956
0.46458305
0.49561823
0.5077832
0.49060265
0.43297282
0.33072528
0.10199533
0.19957391
0.0061717369
0.0037341177
0.008694006
0.011843944
0.015754495
0.020573642
0.026449082
0.033596769
0.042290668
0.052723021
0.065198424
0.099151698
0.080024695
0.0037341177
)
;
    }
}


// ************************************************************************* //
