/*--------------------------------*- C++ -*----------------------------------*\
| =========                 |                                                 |
| \\      /  F ield         | OpenFOAM: The Open Source CFD Toolbox           |
|  \\    /   O peration     | Version:  2406                                  |
|   \\  /    A nd           | Website:  www.openfoam.com                      |
|    \\/     M anipulation  |                                                 |
\*---------------------------------------------------------------------------*/
FoamFile
{
    version     2.0;
    format      ascii;
    arch        "LSB;label=32;scalar=64";
    class       volScalarField;
    location    "0.05";
    object      Ma;
}
// * * * * * * * * * * * * * * * * * * * * * * * * * * * * * * * * * * * * * //

dimensions      [0 0 0 0 0 0 0];

internalField   nonuniform List<scalar> 
2065
(
0.15787098
0.15961377
0.16124888
0.16274733
0.16402082
0.16502366
0.16571123
0.16608675
0.16619218
0.16605291
0.16572033
0.16526331
0.16474116
0.16421169
0.16372154
0.16330353
0.16298325
0.16278118
0.16270661
0.16274464
0.16289624
0.16313605
0.16341879
0.16365405
0.16368009
0.16325979
0.16200133
0.16013657
0.15881324
0.15652396
0.15171276
0.15316199
0.15520513
0.15725368
0.15914563
0.16082209
0.1622311
0.16331634
0.16407469
0.16453214
0.16470477
0.16464085
0.16440705
0.16406821
0.16368325
0.16330594
0.16297497
0.16272157
0.16257117
0.16253546
0.1626024
0.16277624
0.1630329
0.16332789
0.16357055
0.16359783
0.16317023
0.16189943
0.16004129
0.15874237
0.15648925
0.15169266
0.14783394
0.15022383
0.15273683
0.15509446
0.15722636
0.15908313
0.16061133
0.16179374
0.16264014
0.16316225
0.16340129
0.16342131
0.16329165
0.16307186
0.16282373
0.1625927
0.16241609
0.16232482
0.16233376
0.1624343
0.16263421
0.1629108
0.16322058
0.16347283
0.16350321
0.16306914
0.16178536
0.15993643
0.15866505
0.15645104
0.15166859
0.14281827
0.14549264
0.1483343
0.15105891
0.15357653
0.15582958
0.15776423
0.15934886
0.16057666
0.1614525
0.16200681
0.16230048
0.16239866
0.16236398
0.16226225
0.16214648
0.16205937
0.16203739
0.16209874
0.16223934
0.16247016
0.16277017
0.16309709
0.16336025
0.16339409
0.16295233
0.16165371
0.15981731
0.15857728
0.15640695
0.15164152
0.13832779
0.14117431
0.14420309
0.14716911
0.14997368
0.15254713
0.15482936
0.15677526
0.1583616
0.15958271
0.16045764
0.16103676
0.16137982
0.16154887
0.16161152
0.16162724
0.16164351
0.16170188
0.16182444
0.16201244
0.16227968
0.16260719
0.16295412
0.16322997
0.16326803
0.16281728
0.1615021
0.15968191
0.15847764
0.15635649
0.15160162
0.134519
0.13741223
0.14049295
0.14356626
0.14653785
0.14933109
0.15187872
0.15412386
0.15602768
0.15757103
0.15875933
0.15962797
0.16022775
0.16061646
0.16086151
0.16102517
0.16115952
0.16131032
0.16150415
0.161748
0.16205801
0.16241784
0.1627882
0.16307893
0.1631222
0.16266109
0.16132764
0.1595283
0.15836473
0.15629862
0.15156931
0.13150975
0.13432815
0.13733618
0.14038622
0.14339681
0.14629286
0.14900405
0.15146552
0.15362535
0.15544983
0.15692862
0.15807937
0.15893977
0.15955993
0.1600027
0.16033028
0.16059779
0.16085417
0.16113066
0.1614398
0.16179996
0.1621977
0.16259548
0.16290356
0.16295312
0.16248005
0.16112668
0.15935434
0.15823693
0.15623459
0.15147848
0.12934883
0.13199363
0.13482274
0.13773231
0.14065948
0.14353843
0.1463018
0.1488821
0.15121875
0.15326507
0.15499455
0.15640593
0.15752038
0.15837633
0.15902779
0.15953342
0.15994878
0.16032452
0.16069592
0.16108081
0.16149947
0.16194155
0.16237133
0.16269963
0.16275664
0.1622697
0.16089495
0.15915761
0.15809238
0.15616251
0.15139148
0.1280165
0.13040323
0.13297356
0.13565053
0.13839233
0.1411473
0.14385619
0.14645451
0.1488787
0.1510733
0.15299795
0.15463337
0.1559826
0.15706881
0.15793341
0.15862744
0.15920369
0.15971233
0.16019139
0.16066327
0.16114967
0.16164335
0.16211038
0.16246211
0.16252779
0.16202467
0.16062762
0.1589356
0.15792904
0.15608145
0.15128432
0.12737182
0.12945587
0.13172469
0.13411951
0.13661017
0.13916196
0.1417281
0.14425245
0.14667475
0.14893678
0.15098923
0.15279816
0.1543492
0.15564847
0.15672176
0.15760873
0.15835556
0.15900924
0.15960848
0.16017892
0.16074299
0.16129624
0.16180637
0.16218511
0.16226053
0.16173852
0.16031922
0.1586858
0.15774476
0.15598991
0.15115037
0.12729004
0.1290535
0.13100274
0.13309233
0.1352982
0.13759558
0.13995358
0.14232834
0.14466791
0.14691732
0.14902433
0.15094575
0.15265299
0.15413561
0.15540248
0.15647886
0.1574007
0.15820855
0.15893915
0.15961937
0.16027132
0.16089261
0.16145217
0.1618617
0.16194758
0.16140365
0.15996373
0.158406
0.15753731
0.1558863
0.15099682
0.12766539
0.12911707
0.13074037
0.13251304
0.13441805
0.13643553
0.13854399
0.1407139
0.14290488
0.14506985
0.14715942
0.14912718
0.15093543
0.15256009
0.15399393
0.1552464
0.15634032
0.15730665
0.15817698
0.15897678
0.15972636
0.16042422
0.1610397
0.1614838
0.16158009
0.16101093
0.15955482
0.1580946
0.1573046
0.15576882
0.15083294
0.12830795
0.12949455
0.13082796
0.13230035
0.13390934
0.13564363
0.13748582
0.13941811
0.14141383
0.14343687
0.14544509
0.14739444
0.14924385
0.15096045
0.15252384
0.15392838
0.15518238
0.15630462
0.1573184
0.15824478
0.15910024
0.1598825
0.16056008
0.16104209
0.16114741
0.16054888
0.15908605
0.15775096
0.15704479
0.1556359
0.1506615
0.12909482
0.13005851
0.13114808
0.13235873
0.13369573
0.13515829
0.13673928
0.13842542
0.14020187
0.14204472
0.14392179
0.14579574
0.14762771
0.14938164
0.15102876
0.15255113
0.15394309
0.15521004
0.15636439
0.15741972
0.15838639
0.15925907
0.16000374
0.1605258
0.16063661
0.16000411
0.15855072
0.15737528
0.15675625
0.15548455
0.15049429
0.12993369
0.13071412
0.13160118
0.13259436
0.13369923
0.13492235
0.13626243
0.13771372
0.13926662
0.14090894
0.14262034
0.1443732
0.14613516
0.14787221
0.14955248
0.1511501
0.15264798
0.15403862
0.1553222
0.15650226
0.15758068
0.15854645
0.15936075
0.15992255
0.16003203
0.15936187
0.15794467
0.15696871
0.15643737
0.15530458
0.15034738
0.13080699
0.13143725
0.13215651
0.13296622
0.1338731
0.13488602
0.13601318
0.13725182
0.13859559
0.14003537
0.14156191
0.14316113
0.14481023
0.14648111
0.1481436
0.14976876
0.15133206
0.1528154
0.15420705
0.1554991
0.15668287
0.15773906
0.1586212
0.15921798
0.15931468
0.15860629
0.15727372
0.15653267
0.15608661
0.15509836
0.15020288
0.13174813
0.13225449
0.1328343
0.13348983
0.13422752
0.13505454
0.13598029
0.13701569
0.1381608
0.13940948
0.14075409
0.1421855
0.14369205
0.14525605
0.14685335
0.14845675
0.15003897
0.15157505
0.15304332
0.15442446
0.15569808
0.15683422
0.15777551
0.1583953
0.1584622
0.15772035
0.15655399
0.1560678
0.15570103
0.1548595
0.15003526
0.13279567
0.13319588
0.13365591
0.13417858
0.13477028
0.13543849
0.13619047
0.13703447
0.13798259
0.13904218
0.14020775
0.14147028
0.14281974
0.14424568
0.14573515
0.14726806
0.14881921
0.15036094
0.15186465
0.153301
0.15463788
0.15583302
0.15681445
0.15743468
0.15744931
0.15668385
0.15580979
0.15557104
0.15528005
0.15459541
0.14983347
0.13401384
0.13432137
0.13467652
0.13508233
0.13554472
0.13607103
0.13666901
0.13734638
0.1381106
0.13897243
0.13994428
0.14102621
0.14221029
0.14348595
0.14483812
0.14625638
0.14772633
0.14922238
0.15071244
0.15215939
0.15352044
0.15474022
0.15572792
0.15631212
0.15624777
0.15554211
0.15507244
0.15503821
0.1548244
0.15427973
0.14971763
0.13544709
0.1356734
0.13593634
0.13623899
0.13658657
0.13698573
0.13744371
0.13796822
0.13856706
0.13924753
0.14001861
0.14089487
0.14188755
0.1429889
0.14418626
0.1454645
0.14681046
0.14821006
0.14963248
0.1510358
0.15236841
0.15356147
0.15450076
0.15499186
0.15481705
0.1544227
0.15435783
0.15447206
0.15433146
0.1538885
0.14942849
0.1370954
0.13724998
0.13743116
0.13764187
0.13788652
0.13817094
0.1385016
0.13888579
0.1393315
0.13984728
0.1404416
0.14112213
0.1418993
0.14279222
0.14380666
0.14492149
0.14611611
0.14737179
0.14866953
0.14996518
0.15120031
0.15229051
0.15308755
0.15341893
0.15331738
0.15341669
0.15364813
0.1538683
0.15380693
0.15346442
0.14912533
0.13894724
0.13903869
0.13914771
0.13927693
0.13942987
0.13961136
0.13982687
0.14008275
0.14038624
0.14074548
0.14116936
0.1416671
0.14224763
0.1429198
0.14370257
0.14461306
0.14562987
0.14672137
0.14783812
0.14894329
0.1499868
0.15088549
0.15149574
0.15176569
0.15210363
0.15255607
0.15292781
0.15321497
0.15324898
0.15307268
0.14893523
0.14100421
0.14103889
0.14108345
0.14114025
0.14121202
0.14130254
0.14141618
0.14155809
0.14173425
0.14195151
0.14221747
0.1425402
0.14292741
0.14338492
0.14391701
0.14454215
0.14528479
0.14611437
0.1470107
0.14791728
0.1487579
0.14946029
0.15003118
0.15058274
0.15120927
0.15175888
0.15218434
0.15251288
0.15263434
0.1526254
0.14881539
0.14313487
0.14313599
0.14314089
0.1431514
0.14316922
0.14319677
0.14323694
0.14329333
0.14337032
0.14347314
0.14360785
0.14378126
0.14400052
0.14427096
0.14459158
0.14495237
0.14535655
0.14585854
0.1464778
0.14715318
0.14783814
0.14849757
0.14916425
0.14987472
0.15047778
0.15100807
0.15144216
0.15178034
0.1519561
0.15202719
0.14870921
0.14478779
0.14479041
0.14479355
0.14479805
0.14480442
0.14481356
0.14482676
0.14484588
0.14487328
0.14491185
0.14496501
0.14504118
0.14515166
0.14530388
0.14550499
0.14575827
0.14605272
0.14635082
0.14664675
0.14702485
0.1475159
0.14807884
0.14868336
0.14929149
0.14983322
0.15032276
0.15073819
0.15105968
0.15122891
0.1513429
0.1484545
0.14576333
0.14576092
0.14575891
0.1457577
0.14575787
0.14576027
0.14576604
0.14577669
0.14579416
0.14582091
0.14586
0.14591502
0.1459895
0.14608772
0.14621524
0.14637937
0.1465895
0.14685364
0.14715287
0.14743607
0.14768172
0.14802305
0.14845095
0.14886446
0.14932912
0.14975507
0.15012206
0.15040205
0.15050914
0.15058186
0.14818833
0.14660927
0.14661098
0.14661378
0.14661793
0.14662376
0.14663172
0.14664232
0.14665619
0.14667406
0.14669687
0.14672572
0.14676197
0.14680727
0.14686342
0.14693235
0.14701606
0.14711735
0.14724142
0.14740003
0.14760986
0.14789025
0.14812833
0.14834362
0.14860651
0.14896593
0.14931282
0.14961383
0.14984436
0.14991112
0.15002277
0.14807802
0.14728794
0.14728812
0.14728869
0.14728975
0.14729149
0.14729418
0.14729818
0.14730399
0.14731233
0.14732417
0.14734077
0.14736368
0.14739468
0.14743547
0.14748729
0.14755034
0.14762353
0.14770494
0.14779087
0.14788326
0.14799368
0.14810617
0.14820704
0.1483968
0.14867422
0.14893118
0.14917063
0.14938629
0.14945561
0.14970618
0.14768696
0.14793045
0.14792913
0.14792759
0.14792565
0.1479232
0.14792013
0.14791633
0.14791179
0.14790661
0.14790114
0.14789602
0.14789228
0.14789129
0.1478946
0.14790361
0.14791894
0.14793978
0.14796362
0.1479868
0.14800629
0.14801762
0.14804245
0.14808986
0.14820913
0.14840844
0.1485282
0.14871082
0.14897509
0.14907095
0.14954968
0.14741411
0.14828774
0.14828356
0.14827797
0.14827059
0.14826114
0.14824938
0.14823516
0.14821843
0.14819935
0.14817828
0.14815586
0.14813301
0.14811098
0.14809158
0.14807637
0.14806699
0.14806401
0.1480623
0.14805963
0.14805594
0.14804648
0.14803249
0.14802634
0.1480973
0.14824341
0.14830216
0.14846231
0.14873754
0.14878986
0.1495096
0.14737547
0.14857638
0.14856783
0.1485566
0.14854234
0.14852492
0.14850441
0.14848111
0.14845551
0.14842829
0.14840029
0.14837241
0.14834561
0.14832096
0.1482998
0.14828417
0.14827776
0.1482869
0.14832014
0.14838316
0.1484698
0.14855247
0.1485865
0.14856545
0.14857782
0.14861378
0.14860666
0.14872595
0.14886452
0.14866752
0.14917279
0.14760816
0.1215197
0.12766799
0.1338575
0.13977864
0.14528699
0.15030211
0.15463482
0.1579488
0.16069551
0.16280133
0.16429377
0.16524775
0.16576385
0.16594862
0.16591403
0.16575499
0.16554145
0.1653386
0.16519365
0.16514103
0.16518415
0.16531394
0.16550053
0.16567812
0.16573876
0.16553269
0.16476638
0.16305291
0.16106032
0.15766648
0.15208355
0.12918317
0.13540023
0.14108727
0.1462316
0.15086128
0.1549112
0.15827376
0.1609206
0.16301469
0.16454248
0.16555239
0.16612326
0.16634752
0.16632296
0.16614757
0.16589105
0.16561219
0.16536782
0.16519865
0.16513327
0.16516732
0.1652885
0.16546664
0.16563413
0.16568209
0.16545572
0.16465918
0.1629259
0.16095356
0.1575963
0.15206729
0.13671092
0.14212234
0.14700651
0.15139175
0.1552722
0.15858182
0.16126641
0.16333878
0.16489263
0.16595501
0.16657794
0.1668387
0.16682766
0.16663781
0.16634347
0.16600193
0.16566489
0.16538361
0.16519442
0.16511641
0.16514159
0.16525478
0.16542539
0.16558421
0.1656213
0.16537641
0.16455137
0.16279975
0.16084802
0.15752738
0.15205419
0.14493005
0.14935876
0.15328493
0.15674087
0.15972899
0.16221299
0.16417053
0.1656176
0.16662881
0.16724019
0.16749362
0.16746804
0.16725035
0.16690945
0.16650609
0.16608618
0.16569672
0.16538686
0.16518053
0.16509076
0.16510861
0.16521495
0.16537896
0.16552996
0.1655569
0.16529398
0.16444078
0.16267209
0.16074389
0.15745998
0.15204097
0.15329557
0.15657215
0.15941087
0.16186762
0.16394136
0.16561111
0.16686365
0.16770567
0.16820344
0.16838819
0.16830301
0.16802468
0.16761832
0.16713976
0.16663528
0.16614358
0.16571119
0.16537906
0.16515634
0.16505638
0.16506824
0.16516883
0.16532713
0.16547125
0.16548887
0.16520843
0.16432749
0.16254385
0.16063949
0.15739409
0.15202777
0.16169458
0.16366131
0.165325
0.16674771
0.16789922
0.16876559
0.16933155
0.16959784
0.16960931
0.16940273
0.16901529
0.16850903
0.16793163
0.16732685
0.16672991
0.16617545
0.16571199
0.16535914
0.16512122
0.16501307
0.16502028
0.16511628
0.16526986
0.16540816
0.16541737
0.16512007
0.16421195
0.16241587
0.16053552
0.15732989
0.15201433
0.16963489
0.17028788
0.17085942
0.17128406
0.17154972
0.17163688
0.17155206
0.17129045
0.17085508
0.17028988
0.16963473
0.1689208
0.16818889
0.16746968
0.16678827
0.16618726
0.16569905
0.16532571
0.16507522
0.16496077
0.16496466
0.16505733
0.16520724
0.16534083
0.1653425
0.16502909
0.16409441
0.16228635
0.16043473
0.15726758
0.15200162
0.17692165
0.1764223
0.17593962
0.17541499
0.17484893
0.17421755
0.17352953
0.17277856
0.17194226
0.17105995
0.17015954
0.16926034
0.16838963
0.16756477
0.16681619
0.16618267
0.16567045
0.16527888
0.16501846
0.16489949
0.16490142
0.16499206
0.1651394
0.16526942
0.16526437
0.16493569
0.16397497
0.16215596
0.16033465
0.15720734
0.15199134
0.18356447
0.18195134
0.18046543
0.17907292
0.17775535
0.17648963
0.17526602
0.17406576
0.17287236
0.1717093
0.17059135
0.16952774
0.16852879
0.16761466
0.16682271
0.16616138
0.16562496
0.16521883
0.16495101
0.16482926
0.16483062
0.16492054
0.1650665
0.16519406
0.16518315
0.16484012
0.16385381
0.16202535
0.16023375
0.15714931
0.15197799
0.18928601
0.18671782
0.18437743
0.18223383
0.18026215
0.178441
0.17674604
0.17515159
0.17364655
0.17223848
0.17092988
0.16971702
0.16860722
0.1676331
0.16681011
0.16612008
0.16556294
0.16514577
0.164873
0.16475023
0.16475239
0.16484287
0.1649887
0.16511493
0.165099
0.16474263
0.16373053
0.16189479
0.16013355
0.15709403
0.15194615
0.19399668
0.19066551
0.18763284
0.1848678
0.18235017
0.18006028
0.17796361
0.1760341
0.17426449
0.17264411
0.17116475
0.16982708
0.16864136
0.16762831
0.16677362
0.16605714
0.16548475
0.16505993
0.16478463
0.1646626
0.16466684
0.1647592
0.1649062
0.16503223
0.16501213
0.16464348
0.16360573
0.16176456
0.16003454
0.15704099
0.1519337
0.19759293
0.19372338
0.19018326
0.18694905
0.18401132
0.18134778
0.17891687
0.17670457
0.17470831
0.1729095
0.17129816
0.16987537
0.16864489
0.16759789
0.1667098
0.16597351
0.16539079
0.1649616
0.16468617
0.16456659
0.16457413
0.16466973
0.16481921
0.16494616
0.1649228
0.16454297
0.16348129
0.161635
0.15993678
0.15698987
0.15192436
0.20024791
0.19595847
0.19204428
0.18846474
0.18521025
0.18225871
0.17956684
0.17713627
0.17497016
0.17304969
0.1713582
0.16988242
0.16861783
0.16753516
0.16661985
0.16587
0.16528146
0.16485114
0.16457796
0.16446244
0.16447447
0.16457469
0.16472796
0.16485696
0.16483125
0.1644414
0.1633574
0.16150639
0.15984036
0.15694128
0.15189736
0.20205878
0.19748063
0.19329317
0.18945627
0.18595606
0.18278206
0.17992247
0.17736952
0.17509801
0.17310603
0.17136873
0.16985281
0.1685502
0.16743663
0.16650442
0.16574715
0.1651572
0.16472893
0.16446039
0.16435045
0.16436813
0.16447435
0.16463268
0.16476488
0.16473776
0.1643391
0.16323414
0.16137905
0.15974532
0.1568946
0.15188257
0.20307451
0.19837567
0.19404356
0.19006723
0.18639285
0.18303305
0.18007243
0.17746912
0.17514273
0.17309931
0.17131801
0.16976754
0.16843396
0.16730373
0.16636408
0.16560552
0.1650185
0.16459542
0.16433388
0.16423098
0.16425544
0.16436897
0.16453364
0.16467019
0.16464262
0.16423638
0.16311182
0.16125326
0.15965178
0.1568498
0.15187391
0.2027091
0.19822885
0.19400754
0.19007357
0.18641122
0.18305099
0.1800619
0.17741744
0.1750667
0.17299327
0.171181
0.1696138
0.16827069
0.16713753
0.16619943
0.1654457
0.16486589
0.16445109
0.1641989
0.16410444
0.16413678
0.16425887
0.16443111
0.16457316
0.16454616
0.16413358
0.16299077
0.16112927
0.15955977
0.15680756
0.15186927
0.2008951
0.19679611
0.19289613
0.1892159
0.18579616
0.1826532
0.17976122
0.17714005
0.17481001
0.17275275
0.17095225
0.16939482
0.16806166
0.16693868
0.16601111
0.16526835
0.16469996
0.16429652
0.16405598
0.16397125
0.16401255
0.16414437
0.16432539
0.16447408
0.16444869
0.16403103
0.16287132
0.16100734
0.15946935
0.15676725
0.1518692
0.19838095
0.1946792
0.19115396
0.18782011
0.1846945
0.18178855
0.17908941
0.17660801
0.17437105
0.17238217
0.17063255
0.169112
0.16780748
0.16670779
0.16579983
0.16507417
0.16452136
0.16413232
0.16390567
0.16383189
0.16388322
0.16402585
0.16421678
0.16437324
0.16435054
0.16392903
0.16275375
0.16088769
0.15938056
0.15672877
0.1518594
0.19493099
0.1917804
0.18874535
0.18585214
0.18310636
0.18051962
0.17809239
0.17582992
0.17375329
0.17188317
0.1702218
0.16876538
0.16750855
0.16644548
0.16556631
0.16486392
0.1643308
0.16395916
0.16374854
0.16368686
0.16374927
0.16390369
0.16410561
0.16427091
0.16425206
0.16382793
0.16263832
0.16077052
0.1592934
0.15669295
0.15183179
0.19057087
0.18809587
0.18566901
0.18332232
0.1810517
0.17887082
0.17679022
0.17481434
0.17295836
0.17125542
0.16971946
0.16835482
0.16716521
0.16615238
0.16531131
0.16463839
0.16412905
0.16377779
0.16358517
0.16353669
0.16361123
0.16377831
0.1639922
0.16416737
0.16415358
0.16372802
0.16252517
0.16065601
0.15920788
0.15665951
0.15181058
0.18533498
0.18364221
0.18193473
0.18024081
0.17854112
0.17685074
0.17518989
0.17356554
0.17198728
0.17049838
0.1691248
0.16788007
0.16677777
0.1658291
0.16503566
0.16439849
0.16391697
0.16358895
0.16341615
0.16338192
0.16346962
0.16365012
0.16387684
0.1640629
0.16405541
0.16362964
0.16241446
0.16054433
0.15912402
0.15662806
0.15179012
0.17925984
0.17843973
0.17756241
0.17662158
0.17558303
0.17446255
0.173291
0.17208049
0.17083685
0.16960955
0.16843601
0.16734031
0.16634636
0.16547634
0.16474032
0.16414524
0.16369553
0.16339345
0.16324201
0.16322306
0.16332493
0.16351949
0.16375983
0.16395773
0.1639579
0.16353314
0.16230653
0.16043576
0.1590419
0.15659845
0.15177522
0.17226934
0.17238253
0.17246491
0.17239065
0.17212255
0.17166915
0.17106936
0.17033906
0.16949299
0.16858054
0.16764814
0.16673311
0.16587044
0.16509454
0.16442616
0.16387971
0.16346577
0.1631921
0.16306331
0.16306071
0.1631777
0.16338684
0.16364143
0.1638521
0.16386128
0.16343877
0.1622015
0.16033061
0.15896153
0.15657109
0.1517479
0.16454619
0.16527506
0.16622843
0.16709853
0.16776169
0.16816724
0.16830938
0.16819513
0.16786376
0.16735856
0.1667329
0.16604476
0.16534483
0.16468273
0.16409394
0.1636031
0.16322869
0.16298525
0.1628797
0.16289448
0.16302728
0.1632515
0.1635211
0.16374587
0.16376591
0.16334703
0.16209985
0.16022919
0.15888268
0.15654425
0.15172599
0.11861593
0.12482199
0.13081103
0.13670503
0.14235462
0.1475858
0.15222156
0.15599911
0.15909027
0.16151855
0.16330538
0.16451338
0.16523865
0.16558839
0.16567432
0.16560179
0.16545201
0.16529327
0.16517813
0.16514315
0.16519779
0.16533732
0.16553179
0.16571705
0.16578651
0.16559472
0.16484962
0.16315409
0.16114058
0.15772864
0.15209191
0.11893689
0.1251979
0.13095511
0.13648446
0.14176357
0.14672546
0.15120027
0.15498058
0.15811946
0.16064057
0.1625515
0.16389612
0.16475557
0.1652275
0.16541552
0.16542413
0.16533931
0.16522991
0.16515113
0.16514034
0.1652104
0.16536159
0.16556368
0.16575406
0.16582768
0.16564382
0.16490981
0.16322573
0.16119868
0.15776276
0.15209537
0.1194965
0.12553598
0.13093372
0.13613252
0.14109269
0.14581146
0.15014412
0.1539033
0.15708971
0.1597067
0.16174589
0.1632331
0.16423346
0.16483422
0.16513134
0.16522766
0.16521255
0.1651563
0.1651166
0.16513334
0.16522018
0.16538428
0.16559516
0.16579171
0.16587058
0.16569546
0.16497489
0.16330496
0.1612635
0.15780033
0.15209797
0.11982228
0.1256649
0.13081271
0.13570745
0.14042159
0.14493289
0.14912786
0.15284766
0.15606386
0.1587605
0.16091561
0.16253848
0.16367784
0.16440895
0.16481947
0.16500906
0.16506879
0.16507017
0.16507355
0.16512078
0.16522708
0.16540544
0.16562641
0.16583005
0.16591503
0.16574952
0.16504357
0.16338989
0.1613323
0.15784041
0.15210347
0.1201366
0.12580576
0.13072124
0.13535273
0.13983137
0.14413577
0.14818007
0.15183681
0.15505819
0.15781231
0.16006624
0.16181419
0.16308808
0.16394978
0.1644774
0.16476575
0.16490574
0.16496972
0.16501978
0.16510062
0.16523047
0.16542457
0.16565708
0.16586888
0.16596096
0.16580605
0.16511562
0.16347929
0.1204908
0.12598402
0.13070191
0.13509701
0.13933559
0.14342466
0.14730453
0.15087468
0.15407647
0.15686576
0.15920048
0.10721112
0.10868421
0.10997226
0.11097201
0.11183036
0.084320652
0.10292254
0.16010517
0.156919
0.06578116
0.093887542
0.10875002
0.11594435
0.070213342
0.099538376
0.11204139
0.11847107
0.12341853
0.08077318
0.10561844
0.11658991
0.12314066
0.12802748
0.13188097
0.10760687
0.12370211
0.13237232
0.13646533
0.13910679
0.14128295
0.13370732
0.14768315
0.14977851
0.14981532
0.1501399
0.15084891
0.15241539
0.16372671
0.1636371
0.16226108
0.1611381
0.16053617
0.17110885
0.18126679
0.17832382
0.17453226
0.1717764
0.16981764
0.18735275
0.19450547
0.18985051
0.18490491
0.18114786
0.178271
0.20231688
0.20684037
0.20043621
0.19432252
0.18961191
0.18591312
0.21593205
0.2163449
0.20889829
0.20222578
0.19685922
0.19250183
0.22907999
0.22504553
0.21570658
0.20857701
0.20274384
0.19789432
0.23899851
0.23255437
0.22121816
0.21333081
0.20711876
0.20195086
0.24388951
0.2371757
0.22597486
0.21747194
0.21066124
0.20504804
0.24549628
0.23926326
0.22888521
0.2201682
0.21308622
0.20717263
0.24598407
0.23930663
0.22945556
0.22122231
0.21426988
0.2082927
0.24693156
0.23883561
0.228316
0.22025235
0.21353359
0.20769972
0.24641034
0.23807115
0.22715988
0.21853083
0.21154451
0.20565748
0.24416502
0.23497102
0.22424982
0.21574872
0.20880257
0.20293037
0.24047916
0.23079793
0.22005886
0.2116758
0.2048609
0.19910393
0.23522961
0.22507118
0.21454608
0.20642586
0.19983858
0.19426877
0.22853813
0.21803883
0.20783223
0.20006077
0.19378274
0.18847141
0.22037389
0.20970299
0.19994211
0.19262311
0.18674636
0.18176881
0.20013078
0.19089222
0.18409372
0.17868747
0.17412803
0.18080253
0.17456123
0.16972309
0.16584191
0.15268219
0.14768545
0.14256835
0.13779386
0.13359509
0.13018875
0.12765753
0.12601229
0.12522813
0.12509288
0.12546589
0.12620978
0.12601226
0.12715101
0.12726628
0.12817166
0.12846911
0.12919467
0.12963901
0.13021712
0.1308309
0.13128222
0.1321017
0.13243818
0.13352052
0.13375269
0.13512946
0.13527016
0.13692897
0.13699145
0.13891042
0.13890628
0.14107899
0.14101834
0.14324791
0.1431726
0.14484287
0.14480616
0.14580315
0.14577854
0.14662863
0.14661627
0.14730184
0.1472936
0.14794065
0.14793523
0.14829768
0.14829329
0.14859395
0.14858683
)
;

boundaryField
{
    Side1
    {
        type            empty;
    }
    Inlet
    {
        type            calculated;
        value           nonuniform List<scalar> 
92
(
0.15076611
0.15075587
0.15074364
0.15072991
0.15070976
0.15035205
0.15064728
0.15060342
0.15054976
0.15048289
0.15040634
0.15032481
0.15023989
0.1501575
0.15008551
0.15001353
0.14992985
0.14983024
0.14943836
0.14962741
0.14947864
0.14905192
0.14898715
0.14892964
0.14912946
0.14900124
0.1486074
0.14875192
0.14827247
0.14825159
0.14977318
0.14977318
0.14977318
0.14977318
0.14977318
0.14977318
0.14977318
0.14977318
0.14977318
0.14977318
0.14977318
0.14977318
0.14977318
0.14977318
0.14977318
0.14977318
0.14977318
0.14977318
0.14977318
0.14977318
0.14977318
0.14977318
0.14977318
0.14977318
0.14977318
0.14977318
0.14977318
0.14977318
0.14977318
0.14977318
0.14868278
0.14977318
0.1506267
0.15061859
0.15061188
0.15060493
0.1505978
0.15059038
0.1505832
0.15057713
0.15056944
0.15089515
0.15054539
0.15053973
0.15086765
0.15051685
0.1505115
0.15050809
0.15050697
0.15050097
0.15082838
0.15081706
0.15080633
0.15045648
0.15078429
0.15077294
0.15063046
0.15063198
0.15063297
0.15063529
0.14977318
0.14977318
)
;
    }
    Side2
    {
        type            empty;
    }
    Outlet
    {
        type            calculated;
        value           nonuniform List<scalar> 0();
    }
    Botwall
    {
        type            calculated;
        value           nonuniform List<scalar> 0();
    }
    Cyli
    {
        type            calculated;
        value           uniform 0;
    }
    procBoundary2to0
    {
        type            processor;
        value           nonuniform List<scalar> 
55
(
0.082220217
0.085841246
0.089514639
0.092674881
0.095351322
0.046700757
0.075551092
0.033799625
0.057757208
0.057757208
0.16997725
0.16433258
0.16433258
0.14985425
0.14728844
0.035521229
0.035521229
0.036356901
0.036356901
0.21079786
0.21079786
0.18948294
0.18948294
0.14350564
0.13854822
0.13408
0.13017698
0.12696179
0.12454399
0.12295596
0.12218687
0.12214619
0.12267273
0.12359568
0.12475679
0.12475679
0.12491586
0.12638341
0.1277552
0.12906702
0.13038358
0.13176865
0.13329157
0.13499209
0.13687012
0.13891858
0.14114378
0.14332578
0.14487828
0.14582683
0.14664108
0.14730963
0.14794543
0.14830037
0.14859807
)
;
    }
    procBoundary2to3
    {
        type            processor;
        value           nonuniform List<scalar> 
35
(
0.16140446
0.15788257
0.15212041
0.16106125
0.16246364
0.16345503
0.16410285
0.16449518
0.16472101
0.16485293
0.16495427
0.1650729
0.16522956
0.16544124
0.16568689
0.16590802
0.16600831
0.16586504
0.16519091
0.16140446
0.16357288
0.12086623
0.11262946
0.12616031
0.13070085
0.13489145
0.13889939
0.14277612
0.14648673
0.14995389
0.15311597
0.155921
0.16106125
0.15831946
0.11262946
)
;
    }
}


// ************************************************************************* //
