/*--------------------------------*- C++ -*----------------------------------*\
| =========                 |                                                 |
| \\      /  F ield         | OpenFOAM: The Open Source CFD Toolbox           |
|  \\    /   O peration     | Version:  2406                                  |
|   \\  /    A nd           | Website:  www.openfoam.com                      |
|    \\/     M anipulation  |                                                 |
\*---------------------------------------------------------------------------*/
FoamFile
{
    version     2.0;
    format      ascii;
    arch        "LSB;label=32;scalar=64";
    class       volScalarField;
    location    "0.05";
    object      omega;
}
// * * * * * * * * * * * * * * * * * * * * * * * * * * * * * * * * * * * * * //

dimensions      [0 0 -1 0 0 0 0];

internalField   nonuniform List<scalar> 
2065
(
21822.908
18493.459
15380.578
12623.755
10253.621
8248.9069
6575.2108
5194.5209
4068.4238
3160.6121
2437.0962
1866.662
1421.5351
1077.4212
813.53502
612.5317
460.25735
345.38288
259.0102
194.23435
145.75774
109.56026
82.621237
62.678752
48.010667
37.112139
28.415003
20.241823
16.588429
13.217962
10.676015
17929.372
15363.532
13012.964
10889.383
9004.4715
7360.0105
5949.0057
4757.4139
3766.1216
2953.363
2296.2212
1771.6942
1357.986
1035.18
785.61792
594.17187
448.23293
337.53547
253.90227
190.91564
143.60386
108.16311
81.714774
62.089416
47.623614
36.846758
28.202081
20.076093
16.519215
13.175997
10.666638
14584.926
12701.206
10935.857
9304.4444
7819.2157
6489.3171
5319.3713
4308.4902
3450.2405
2733.7802
2145.2582
1668.9696
1288.7235
988.85676
754.84916
573.85262
434.87897
328.79458
248.1983
187.20104
141.18767
106.59245
80.693516
61.424091
47.185661
36.545506
27.95875
19.891087
16.44249
13.12827
10.658551
11717.058
10379.722
9082.0023
7850.7377
6700.9062
5645.3976
4694.1855
3853.3103
3124.1654
2503.6603
1985.0399
1558.7842
1213.7713
938.35242
721.09626
551.4478
420.0905
319.07916
241.8385
183.04788
138.47956
104.82806
79.543806
60.673533
46.690507
36.204146
27.679392
19.683748
16.356363
13.074517
10.65213
9295.4217
8369.1803
7437.0427
6528.8034
5658.4951
4839.4066
4083.2119
3399.0267
2792.5572
2265.7489
1817.0286
1441.8263
1133.3899
883.71421
684.30907
526.87723
403.7877
308.32118
234.76953
178.41633
135.45069
102.84943
78.251234
59.827627
46.130993
35.817236
27.358173
19.451494
16.259561
13.013838
10.647155
7283.0106
6652.8028
5998.7721
5345.1196
4702.7871
4083.0667
3496.8263
2953.6498
2460.993
2023.5945
1643.2996
1319.2041
1048.0993
825.14196
644.52514
500.10657
385.91293
296.46227
226.94124
173.26684
132.07139
100.63494
76.800261
58.875276
45.499142
35.378526
26.9884
19.191509
16.150828
12.94528
10.642844
5634.7169
5213.1887
4764.6092
4305.7812
3844.0719
3387.7567
2945.5018
2525.7065
2135.7772
1781.4835
1466.5455
1192.4821
958.73132
763.02775
601.89553
471.16461
366.44114
283.45964
218.30994
167.56197
128.31203
98.16214
75.174344
57.804394
44.786086
34.880766
26.562331
18.900977
16.028991
12.868391
10.633288
4304.3376
4027.5041
3726.7912
3412.7525
3089.7424
2763.1043
2438.9315
2123.6702
1823.5971
1544.2634
1290.0179
1063.6868
866.45677
697.99146
556.71228
440.16248
345.3925
269.29358
208.84284
161.26858
124.14416
95.408379
73.356142
56.601929
43.981966
34.315398
26.070936
18.577207
15.89292
12.782634
10.624276
3247.4773
3069.2488
2872.3055
2662.7649
2442.8647
2215.6541
1984.949
1755.1583
1530.9816
1317.0206
1117.3682
935.25058
772.78383
630.89981
509.43162
407.31293
322.84604
253.97632
198.52328
154.36091
119.54203
92.351457
71.327782
55.253903
43.075823
33.672101
25.503766
18.217849
15.741532
12.687264
10.616618
2422.0253
2309.6155
2183.6214
2047.2988
1901.578
1747.9642
1588.5686
1426.0803
1263.6411
1104.6293
952.37886
809.87903
679.50857
562.86086
460.68652
372.94627
298.95317
237.56178
187.35694
146.82412
114.48459
88.970635
69.071275
53.7455
42.05546
32.938047
24.848929
17.821248
15.573894
12.581227
10.608766
1788.3233
1718.7198
1640.0062
1553.5242
1459.4854
1358.479
1251.5052
1140.0054
1025.8489
911.24863
798.61128
690.33809
588.60761
495.18294
411.28038
337.51821
273.94874
220.15502
175.37871
138.65871
108.95797
85.247916
66.56909
52.06122
40.907243
32.096666
24.093392
17.386759
15.389261
12.463229
10.600701
1310.3156
1267.9766
1219.7632
1166.1026
1106.8676
1042.1423
972.27725
897.91537
820.02175
739.87833
659.03068
579.18635
502.07476
429.29123
362.15441
301.60393
248.15607
201.91993
162.65925
129.88517
102.95842
81.169672
63.804907
50.185093
39.615812
31.125502
23.223936
16.915071
15.187088
12.331388
10.593208
955.99587
930.52774
901.37527
868.59062
831.95075
791.32564
746.72599
698.34517
646.58285
592.07284
535.68598
478.49805
421.72107
366.60494
314.32457
265.8731
221.98203
183.0826
149.3104
120.54868
96.495576
76.728562
60.764581
48.100973
38.163677
29.997175
22.229198
16.42881
14.967253
12.19102
10.586368
697.27662
681.94386
664.34509
644.41364
621.9359
596.73613
568.69136
537.77516
504.08325
467.85771
429.51147
389.63423
348.97378
308.39093
268.79134
231.04357
195.8987
163.92759
135.48744
110.72283
89.595589
71.92564
57.437247
45.792884
36.530605
28.681322
21.102368
15.941901
14.73026
12.046435
10.576073
510.19184
500.80532
490.04165
477.81505
463.96324
448.32674
430.76873
411.18467
389.53268
365.85408
340.29337
313.11658
284.72016
255.62246
226.43535
197.81663
170.4101
144.78483
121.38655
100.51128
82.303738
66.772389
53.816474
43.245237
34.692175
27.138874
19.849362
15.44746
14.478206
11.904844
10.56445
375.07588
369.16407
362.41524
354.7593
346.08603
336.28085
325.22759
312.81892
298.97148
283.64096
266.83944
248.65
229.24128
208.8784
187.92085
166.80419
146.00676
126.00639
107.23573
90.046027
74.685486
61.29221
49.901146
40.442571
32.61634
25.322169
18.50435
14.94539
14.21506
11.771299
10.553723
276.61678
272.80108
268.47251
263.58075
258.05545
251.82189
244.8
236.9075
228.06266
218.19689
207.26698
195.26835
182.24611
168.30784
153.63082
138.4637
123.11573
107.93497
93.278611
79.481028
66.824999
55.520566
45.695453
37.367922
30.256091
23.180821
17.134022
14.406406
13.986727
11.653185
10.540501
203.61513
201.14687
198.36359
195.23059
191.70415
187.73657
183.27602
178.26649
172.6479
166.35948
159.34412
151.56212
142.99816
133.67343
123.65463
113.05935
102.05786
90.86988
79.752523
68.980444
58.819877
49.502591
41.206761
33.9976
27.534975
20.686168
15.837782
13.837716
13.69129
11.562471
10.524577
148.49571
146.9498
145.21351
143.2627
141.07041
138.60674
135.83806
132.72702
129.23334
125.31239
120.91852
116.00392
110.52904
104.47364
97.838908
90.663351
83.02402
75.037146
66.863267
58.701434
50.770608
43.286106
36.438273
30.285543
24.326066
18.003318
14.734996
13.36398
13.204043
11.510906
10.515971
106.3607
105.46299
104.45632
103.32368
102.04839
100.61176
98.992267
97.165077
95.102026
92.772188
90.141496
87.172128
83.825015
80.059793
75.848753
71.178763
66.067319
60.565821
54.757913
48.770485
42.761793
36.905419
31.366696
26.119609
20.474865
15.598463
13.871052
12.904942
12.881166
11.484845
10.500694
74.004357
73.550195
73.04085
72.464596
71.811482
71.070175
70.227191
69.266384
68.168522
66.910927
65.467433
63.809474
61.904936
59.715767
57.204472
54.337796
51.088599
47.459864
43.48902
39.245886
34.824538
30.339738
25.86558
21.24206
16.409096
13.932018
13.187129
12.438581
12.428799
11.4002
10.498461
49.123525
48.960117
48.776666
48.565321
48.320559
48.035878
47.703017
47.31144
46.847837
46.295568
45.634136
44.839088
43.882822
42.736637
41.361762
39.723491
37.788113
35.533574
32.93669
30.020476
26.822932
23.397926
19.766643
16.134161
13.89917
12.973867
12.553979
11.971604
11.992662
11.282508
10.497345
29.950052
29.952087
29.957216
29.960744
29.960271
29.952627
29.932956
29.894312
29.827055
29.718167
29.550499
29.302027
28.945487
28.450674
27.789899
26.92443
25.835687
24.480878
22.851802
20.944998
18.790018
16.7035
14.824975
13.3218
12.57269
12.21858
11.950778
11.504066
11.553706
11.157941
10.486241
18.021876
18.035739
18.056416
18.081708
18.111279
18.144767
18.181118
18.218211
18.252371
18.277741
18.285525
18.263415
18.196007
18.062379
17.835406
17.502897
17.059217
16.467299
15.766292
14.88064
13.96105
13.111002
12.41319
12.013569
11.840841
11.575813
11.401236
11.075257
11.165889
11.00696
10.449035
12.892614
12.878788
12.867011
12.857948
12.852927
12.853124
12.859287
12.871718
12.889786
12.911703
12.93409
12.949191
12.954073
12.942803
12.914428
12.853193
12.73433
12.56866
12.368136
12.097082
11.835349
11.541108
11.345186
11.353556
11.169339
11.038267
10.951839
10.738983
10.851863
10.933554
10.365633
11.277052
11.246571
11.218064
11.192761
11.171276
11.154257
11.142249
11.135574
11.134343
11.138173
11.146122
11.156006
11.165336
11.171138
11.170438
11.158711
11.133318
11.097532
11.034505
10.976187
10.923278
10.834357
10.800511
10.811656
10.772596
10.689322
10.632051
10.501281
10.593087
10.59737
10.311937
10.695834
10.670798
10.647064
10.624789
10.60454
10.586931
10.57251
10.561691
10.554736
10.551725
10.552487
10.556525
10.562958
10.57006
10.575332
10.575502
10.568919
10.555359
10.540685
10.522535
10.489092
10.467418
10.47116
10.504586
10.516181
10.465974
10.426172
10.31803
10.318239
10.37944
10.2929
10.369655
10.354198
10.339435
10.325525
10.312844
10.301661
10.292195
10.284656
10.279232
10.276079
10.275282
10.276764
10.280282
10.285161
10.290388
10.295265
10.29804
10.2967
10.290936
10.287132
10.278065
10.273562
10.268211
10.310047
10.317623
10.293873
10.260419
10.162387
10.163454
10.283787
10.303232
10.173104
10.166704
10.160378
10.154339
10.148691
10.143529
10.138927
10.134951
10.131655
10.12909
10.127288
10.126265
10.126115
10.127036
10.129077
10.132068
10.135942
10.141305
10.14998
10.164677
10.173329
10.168487
10.159639
10.17971
10.170225
10.137877
10.123513
10.083098
10.088317
10.144393
10.359487
10.065695
10.063637
10.061502
10.059446
10.057491
10.055645
10.053901
10.05224
10.050637
10.049079
10.047572
10.046179
10.045127
10.044825
10.045637
10.047784
10.05163
10.058495
10.071922
10.093329
10.114867
10.114137
10.110222
10.116518
10.106919
10.075075
10.073053
10.055476
10.044635
10.112346
10.388702
10.021128
10.020965
10.020783
10.020561
10.020268
10.019857
10.019277
10.018475
10.017419
10.01614
10.014797
10.013682
10.012993
10.012682
10.012691
10.013088
10.014104
10.016353
10.021094
10.030151
10.046798
10.069433
10.065689
10.067483
10.05626
10.051558
10.05402
10.043441
10.012309
10.091763
10.031099
95816.49
78808.491
63378.836
50178.838
39237.666
30298.737
23113.487
17421.406
12974.469
9548.5336
6952.529
5014.661
3587.4841
2549.1936
1802.0651
1269.498
892.81492
627.94465
442.403
312.684
221.99831
158.53853
114.0665
82.875835
61.010066
45.667097
34.79039
25.454361
18.821707
14.530246
11.043459
79422.587
64423.879
51931.17
41542.593
32904.232
25735.709
19866.395
15138.956
11389.27
8464.3928
6221.616
4528.3768
3267.9848
2341.7991
1668.9657
1184.9728
839.65105
594.78398
421.86645
300.03468
214.24313
153.8055
111.19162
81.139788
59.969526
45.046376
34.392252
25.166305
18.687998
14.444046
11.018909
72455.806
58817.544
47230.474
37523.41
29504.503
22966.663
17701.73
13504.607
10192.783
7612.4428
5628.9269
4124.1715
2997.1135
2163.079
1552.6545
1110.205
792.10704
564.83046
403.1398
288.39682
207.04875
149.38023
108.48363
79.492798
58.975385
44.447748
34.003379
24.881301
18.554464
14.358891
10.994813
65129.55
52589.285
42153.856
33505.155
26386.128
20582.161
15899.194
12160.314
9208.5996
6906.2698
5132.1478
3781.2266
2764.482
2007.7736
1450.4668
1043.8425
749.50349
537.74725
386.05771
277.69434
200.38179
145.24944
105.93817
77.934133
58.028124
43.872733
33.624935
24.599835
18.422773
14.276934
10.972454
59210.554
47676.032
38126.877
30259.508
23823.578
18598.128
14389.27
11031.47
8380.031
6309.0431
4709.3323
3487.035
2563.15
1872.1359
1360.4153
984.84675
711.31011
513.26197
370.48904
267.86559
194.21466
141.40161
103.551
76.462599
57.127662
43.321535
33.257243
24.322884
18.294819
14.199078
10.952364
54327.95
43508.948
34685.687
27492.685
21645.784
16912.891
13106.882
10072.364
7674.6849
5798.963
4346.4529
3232.968
2388.0575
1753.2953
1280.9073
932.36125
677.06605
491.13624
356.31615
258.85391
188.5213
137.82547
101.31771
75.0768
56.273751
42.794247
32.900568
24.051448
18.171547
14.125561
10.934729
50029.233
39917.74
31753.316
25143.712
19796.008
15479.06
12014.399
9253.6927
7071.1155
5361.0072
4033.4446
3012.6742
2235.3425
1648.9743
1210.6478
885.66603
646.37191
471.16351
343.43355
250.60735
183.27721
134.51013
99.233845
73.775195
55.466014
42.290881
32.555145
23.786102
18.054277
14.056336
10.919482
46412.741
36884.908
29266.247
23146.138
18219.153
14255.971
11081.511
8553.0442
6553.1189
4983.7553
3762.7306
2821.2567
2101.9464
1557.3366
1148.5695
844.13583
618.88883
453.16196
331.7467
243.0784
178.4595
131.44513
97.294964
72.556123
54.703981
41.811368
32.221152
23.527041
17.943526
13.991214
10.906151
43269.236
34266.549
27133.671
21438.537
16872.502
13211.285
10283.415
7952.4669
6107.8551
4658.3721
3528.349
2654.8098
1985.4058
1476.89
1093.7689
807.23641
594.32241
436.97129
321.17093
236.22377
174.04682
128.6205
95.4967
71.417844
53.987111
41.355592
31.898712
23.274575
17.838228
13.929998
10.894124
40536.302
32013.071
25306.516
19978.112
15721.972
12318.418
9600.4774
7437.5551
5725.0705
4377.7598
3325.4839
2510.1751
1883.7231
1406.3806
1045.46
774.5215
572.41709
422.45039
311.63053
230.00418
170.01937
126.0268
93.834808
70.358593
53.314794
40.923394
31.587848
23.028994
17.737402
13.87257
10.887495
38164.398
30072.022
23738.983
18728.143
14738.883
11555.64
9016.543
6996.5317
5396.4098
4136.1232
3150.2397
2384.8063
1795.2333
1344.7082
1002.979
745.60591
552.95098
409.47517
303.058
224.38404
166.35896
123.65518
92.305201
69.376608
52.686366
40.514603
31.288563
22.790518
17.640611
13.818447
10.884174
36101.514
28397.923
22393.961
17659.32
13899.905
10905.049
8518.2846
6619.7764
5115.1414
3928.838
2999.5019
2276.5987
1718.527
1290.9552
965.77961
720.15954
535.73196
397.93685
295.39335
219.33125
163.04893
121.49734
90.90398
68.470153
52.101134
40.129041
31.001086
22.559335
17.547502
13.767467
10.874831
34315.872
26957.728
21243.02
16748.693
13187.05
10352.897
8095.4738
6299.9012
4876.0732
3752.3029
2870.68
2183.7558
1652.378
1244.3829
933.39665
697.90058
520.59427
387.74039
288.58359
214.81697
160.07419
119.54563
89.62746
67.637541
51.558392
39.766518
30.725745
22.335611
17.457738
13.719094
10.871866
32783.055
25731.516
20269.205
15981.647
12588.448
9890.1722
7741.2509
6031.5575
4675.0217
3603.4227
2761.5426
2104.6814
1595.7634
1204.358
905.43645
678.5895
507.39554
378.80336
282.58219
210.81558
157.42107
117.79298
88.472186
66.877148
51.057434
39.426847
30.462731
22.119496
17.371012
13.672897
10.868078
31544.28
24734.739
19473.49
15352.595
12095.414
9508.669
7449.2673
5809.7616
4508.1303
3479.1329
2670.0455
2038.0592
1547.8767
1170.3536
881.57005
662.02428
496.01458
371.05483
277.34865
207.30449
155.07734
116.23298
87.434945
66.18743
50.597564
39.109854
30.212152
21.911124
17.287057
13.628215
10.852229
30426.385
23870.689
18802.502
14831.466
11691.603
9196.8877
7210.406
5628.3423
4371.3624
3376.8644
2594.4996
1982.8854
1508.0501
1141.9396
861.52598
648.0367
486.34952
364.43457
272.8482
204.26403
153.03217
114.85983
86.512776
65.566927
50.178111
38.815388
29.974133
21.710556
17.205652
13.584722
10.831774
29256.419
23026.833
18185.343
14374.976
11351.651
8941.0106
7016.6276
5482.0892
4261.4729
3294.8285
2533.752
1938.3573
1475.7552
1118.7725
845.08474
636.48942
478.31627
358.89228
269.05141
201.67732
151.27608
113.66836
85.702965
65.014276
49.798429
38.54333
29.748859
21.517732
17.126634
13.541774
10.80699
28294.364
22323.047
17669.313
13996.122
11072.818
8735.6278
6864.5075
5368.6629
4176.7705
3231.7051
2486.9181
1903.8711
1450.5882
1100.5866
832.07462
627.27374
471.84744
354.38708
265.93394
199.53015
149.80092
112.65403
85.003054
64.528207
49.457905
38.293591
29.536561
21.332518
17.049906
13.498452
10.782829
27429.609
21726.02
17249.264
13697.398
10858.796
8581.3666
6752.5499
5286.6015
4116.0868
3186.6067
2453.3673
1878.9947
1432.2577
1087.1885
822.36886
620.30802
466.89143
350.88705
263.47639
197.81093
148.59985
111.8129
84.410833
64.107547
49.15596
38.066109
29.337495
21.154738
16.975438
13.455165
10.758938
26665.622
21223.204
16914.912
13473.047
10706.799
8477.1383
6680.0405
5235.1961
4078.8066
3159.0572
2432.7471
1863.475
1420.5855
1078.4551
815.8838
615.5365
463.41174
348.36882
261.66409
196.5106
147.66734
111.14165
83.924343
63.751216
48.892042
37.860842
29.151918
20.984194
16.903235
13.412036
10.740346
25982.587
20802.394
16657.872
13317.799
10613.971
8421.6581
6646.4815
5214.208
4064.7402
3148.9005
2424.9316
1857.2153
1415.4974
1074.3306
812.57813
612.92909
461.387
346.81765
260.48704
195.62253
146.99902
110.6375
83.541863
63.458216
48.665629
37.677765
28.980076
20.820682
16.833342
13.369424
10.724636
25366.434
20452.926
16471.53
13227.842
10578.395
8414.183
6651.0596
5222.5628
4072.8872
3155.3919
2429.45
1859.9593
1416.8777
1074.7807
812.45043
612.4813
460.81083
346.22727
259.9398
195.14252
146.59183
110.29829
83.261899
63.227628
48.476217
37.516861
28.822238
20.664028
16.765847
13.327621
10.71149
24790.367
20159.464
16348.142
13199.813
10596.212
8449.1589
6689.6991
5258.2029
4103.4027
3179.5406
2447.3197
1872.4335
1425.1394
1079.9736
815.54757
614.20913
461.67933
346.58339
260.0169
195.06861
146.44385
110.12236
83.083167
63.058597
48.323308
37.378109
28.678689
20.51411
16.700857
13.287159
10.694878
24200.106
19891.472
16270.876
13221.613
10660.294
8525.7468
6763.2636
5321.8048
4154.3571
3218.5164
2476.0082
1892.7901
1439.0951
1089.2391
821.50505
617.91721
463.90335
347.85594
260.69355
195.38476
146.54864
110.10813
83.004408
62.950227
48.206416
37.261475
28.549746
20.370856
16.6384
13.248034
10.682768
92313.498
76485.439
62207.429
49771.948
39295.36
30714.298
23656.815
17968.685
13461.304
9945.9649
7259.9543
5242.692
3750.8486
2662.8132
1879.1059
1320.6273
926.13448
649.3348
455.96969
321.18978
227.29241
161.81674
116.08795
84.117048
61.768418
46.129386
35.093253
25.681428
18.93008
14.607569
11.062112
86322.096
71912.117
59392.064
48210.076
38499.55
30262.41
23431.613
17883.633
13456.512
9989.2327
7319.5759
5301.274
3800.8172
2702.0596
1908.2457
1341.3893
940.4619
658.97688
462.33123
325.32375
229.94937
163.50943
117.15961
84.792246
62.191734
46.39381
35.270955
25.826695
19.000666
14.660967
11.080802
80652.05
67700.848
56436.789
46287.74
37326.974
29603.717
23103.698
17755.407
13441.085
10026.795
7377.17
5360.0136
3852.0033
2742.8373
1938.8318
1363.3438
955.69604
669.27116
469.144
329.76036
232.80388
165.32923
118.31201
85.518187
62.646715
46.677981
35.461094
25.982048
19.076006
14.719047
11.102127
75347.117
63775.826
53632.432
44411.347
36151.314
28923.264
22751.996
17608.113
13411.491
10057.265
7431.8583
5418.3134
3904.0907
2785.0116
1970.8309
1386.5055
971.86851
680.25013
476.43449
334.5199
235.8701
167.28572
119.55137
86.298802
63.135805
46.983495
35.664455
26.147515
19.154713
14.781534
11.126746
70378.853
60090.983
50957.83
42577.307
34971.644
28220.387
22375.276
17440.134
13367.498
10079.147
7482.6002
5475.3393
3956.6313
2828.3726
2004.1692
1410.8699
989.0028
691.9438
484.22981
339.62329
239.16288
169.3891
120.88433
87.138331
63.661651
47.312118
35.881989
26.32339
65748.777
56629.371
48403.256
40784.899
33788.188
27494.277
21971.586
17249.058
13306.755
10090.069
7528.0321
117163.47
105944.64
96651.019
88592.278
81555.819
159395.62
133196.33
42329.044
30659.926
217565.47
183315.73
144991.58
115374.71
282347.9
219685.39
161757.91
123306.05
99016.495
416014.01
290906.25
195119.15
142720.14
111161.69
89374.992
470085.48
283583.4
184878.97
133470.97
102002.16
80827.457
516558.71
278137.74
172713.07
122508.46
93155.557
73585.905
556107.08
272586.12
164680.3
115599.08
86950.952
67980.723
592341.88
267812.79
157757.66
108855.83
80995.831
62903.945
610595.57
262895.94
151279.48
103033.59
76026.557
58657.082
635701.09
258328.54
145511.67
97888.779
71655.103
54954.391
657669.39
253569.63
139786.48
93084.208
67730.775
51696.106
676940.3
247568.81
134183.81
88745.499
64270.624
48846.547
692606.27
237117.23
128140.66
84710.317
61191.49
46343.658
704957.33
224310.92
122670.18
81269.349
58554.862
44175.362
714583.99
222032.81
120088.99
78810.484
56381.498
42315.178
722741.96
224793.01
119460.02
77298.726
54777.836
40841.619
731682.15
223126.37
117757.96
75612.474
53212.798
39457.964
740541.57
219344.79
114235.94
72956.62
51194.015
37882.532
747221.94
220137.22
113199.5
71475.903
49764.605
36639.344
753721.54
218963.84
110965.7
69591.455
48264.885
35444.277
758623.19
218161.73
109312.92
68033.508
46949.848
34371.62
762782.78
217002.63
107574.22
66526.369
45720.018
33381.069
765918.25
215783.75
105990.08
65172.889
44608.698
32472.903
214461.31
104543.66
63985.874
43632.833
31642.233
103245.02
62989.215
42838.964
30911.187
24107.455
19513.455
15603.35
12342.237
9663.2351
7488.1326
5740.83
4352.7309
3264.2251
2422.9318
1782.5675
1302.8632
910.98869
949.27248
667.60514
692.16865
491.42457
506.75035
363.56668
372.95624
269.60139
275.36314
199.19916
202.83513
145.51463
147.92841
104.17035
105.86996
72.285038
73.542268
47.713711
48.679868
28.898115
29.578045
17.529786
17.837988
12.802734
12.859281
11.331899
11.300991
10.761842
10.723196
10.413309
10.387518
10.191562
10.180572
10.07167
10.068087
10.021514
10.021193
)
;

boundaryField
{
    Side1
    {
        type            empty;
    }
    Inlet
    {
        type            inletOutlet;
        inletValue      uniform 10;
        value           nonuniform List<scalar> 
92
(
10
10
10
10
10
10.642844
10
10
10
10
10
10
10
10
10
10
10
10
10.515971
10
10
10.497345
10.486241
10.449035
10
10
10.2929
10
10.359487
10.388702
10
10
10
10
10
10
10
10
10
10
10
10
10
10
10
10
10
10
10
10
10
10
10
10
10
10
10
10
10
10
10
10
11.043459
11.018909
10.994813
10.972454
10.952364
10.934729
10.919482
10.906151
10.894124
10
10.884174
10.874831
10
10.868078
10.852229
10.831774
10.80699
10.782829
10
10
10
10.71149
10
10
11.062112
11.080802
11.102127
11.126746
10
10
)
;
    }
    Side2
    {
        type            empty;
    }
    Outlet
    {
        type            zeroGradient;
    }
    Botwall
    {
        type            omegaWallFunction;
        blending        binomial;
        n               2;
        value           nonuniform List<scalar> 0();
    }
    Cyli
    {
        type            omegaWallFunction;
        blending        binomial;
        n               2;
        value           nonuniform List<scalar> 
20
(
416014.01
470085.48
516558.71
556107.08
592341.88
610595.57
635701.09
657669.39
676940.3
692606.27
704957.33
714583.99
722741.96
731682.15
740541.57
747221.94
753721.54
758623.19
762782.78
765918.25
)
;
    }
    procBoundary2to0
    {
        type            processor;
        value           nonuniform List<scalar> 
55
(
125148.79
116413.01
108226.56
100336.12
92895.561
142927.81
134268.54
179743.79
172816.46
172816.46
101976.78
62128.691
62128.691
41660.391
30251.115
234279.06
234279.06
330859.81
330859.81
767948.05
767948.05
213073.22
213073.22
23583.703
18816.73
14919.992
11746.248
9172.9649
7098.6669
5439.4994
4125.2182
3096.5483
2302.2422
1697.8321
1245.0415
1245.0415
878.83257
647.08383
478.72367
355.8581
264.90289
196.22796
143.51084
102.7192
71.175046
46.833361
28.270912
17.256202
12.767851
11.376509
10.8115
10.446161
10.205053
10.075878
10.022103
)
;
    }
    procBoundary2to3
    {
        type            processor;
        value           nonuniform List<scalar> 
35
(
19.241238
14.84947
11.15242
5531.129
4009.8597
2873.1987
2039.1075
1436.6519
1007.2602
704.46457
492.60319
345.11501
242.70922
171.65415
122.31875
88.04078
64.226222
47.66301
36.11238
19.241238
26.510828
61381.525
75266.716
53308.793
45916.716
39005.924
32585.92
26736.778
21536.328
17032.257
13227.846
10089.712
5531.129
7568.2089
75266.716
)
;
    }
}


// ************************************************************************* //
