/*--------------------------------*- C++ -*----------------------------------*\
| =========                 |                                                 |
| \\      /  F ield         | OpenFOAM: The Open Source CFD Toolbox           |
|  \\    /   O peration     | Version:  2406                                  |
|   \\  /    A nd           | Website:  www.openfoam.com                      |
|    \\/     M anipulation  |                                                 |
\*---------------------------------------------------------------------------*/
FoamFile
{
    version     2.0;
    format      ascii;
    arch        "LSB;label=32;scalar=64";
    class       volScalarField;
    location    "0.04";
    object      Ma;
}
// * * * * * * * * * * * * * * * * * * * * * * * * * * * * * * * * * * * * * //

dimensions      [0 0 0 0 0 0 0];

internalField   nonuniform List<scalar> 
35803
(
0.15752961
0.15861459
0.15967836
0.16077388
0.16184094
0.16286719
0.16384185
0.1647592
0.16578782
0.16701965
0.16851698
0.17007696
0.17174932
0.17351644
0.17533092
0.1768387
0.17738399
0.17588893
0.17206677
0.16907427
0.16743906
0.16616449
0.16479437
0.16364561
0.16158035
0.16064704
0.15898149
0.15865352
0.15766559
0.15744288
0.15005283
0.15468909
0.15588611
0.15716595
0.15846207
0.15975061
0.16101968
0.16226214
0.16348117
0.16476979
0.16621222
0.16783383
0.16952392
0.17130244
0.17314411
0.17500004
0.17650656
0.17698728
0.17537349
0.1715471
0.16873158
0.16720709
0.16598314
0.16464951
0.16352634
0.16145799
0.16054725
0.15892157
0.1586094
0.15762309
0.15741719
0.15003902
0.15099232
0.15239579
0.15397491
0.15557277
0.15716371
0.15874078
0.16029671
0.1618395
0.16341993
0.16510924
0.16691938
0.16877722
0.17068976
0.17262898
0.17454493
0.17606604
0.1765005
0.17477618
0.17097834
0.16836965
0.16695584
0.1657858
0.16449496
0.16340216
0.16131925
0.16044439
0.15885713
0.15856143
0.15757539
0.15738716
0.15002389
0.14717903
0.14878173
0.15060936
0.15248819
0.15437628
0.15626238
0.15813756
0.16000104
0.16188385
0.16383388
0.16586086
0.167906
0.1699686
0.17201816
0.17400048
0.17553307
0.17591143
0.17406619
0.17032467
0.16795572
0.16666312
0.16555364
0.16431307
0.16324775
0.16116892
0.16033248
0.15878799
0.15849995
0.15752096
0.15735202
0.15000897
0.1433709
0.1451462
0.1471728
0.14929006
0.1514484
0.1536277
0.15581301
0.15799402
0.16018159
0.16240078
0.16465623
0.16690183
0.16912765
0.17129856
0.17335236
0.17489095
0.17519675
0.17321869
0.1695775
0.16749021
0.16632736
0.16528636
0.16410608
0.1630677
0.16102517
0.16021819
0.15871403
0.15842998
0.15745944
0.15731048
0.14999168
0.13967869
0.14158492
0.14375858
0.14606201
0.14844656
0.15088461
0.15335352
0.1558328
0.15831473
0.16080317
0.16329317
0.16574737
0.16814601
0.17044682
0.17257563
0.17411296
0.17432485
0.17220651
0.16873185
0.16696532
0.16594192
0.16497745
0.16386881
0.16285589
0.16087939
0.16009571
0.15863459
0.15835302
0.15738812
0.15726198
0.14996742
0.13622924
0.13821549
0.14048092
0.14291258
0.14546663
0.14811118
0.15081735
0.15355595
0.15630418
0.15904729
0.16176808
0.16443089
0.16700527
0.16943911
0.17164155
0.17316572
0.17325526
0.17099563
0.16779042
0.16637382
0.16550006
0.16462161
0.16359841
0.16261362
0.160718
0.15995889
0.15854847
0.15826958
0.15730668
0.15720412
0.14992566
0.13312747
0.13517081
0.13748024
0.13997776
0.14263241
0.14541364
0.14829036
0.15122835
0.15419421
0.15715807
0.16008947
0.16294781
0.16569017
0.16825098
0.17051637
0.17200845
0.17193557
0.1695376
0.16676567
0.16570497
0.16499351
0.16421265
0.16329024
0.16234365
0.16053918
0.15979296
0.15845223
0.15817943
0.15720939
0.15713425
0.14988941
0.13060641
0.13264217
0.13492847
0.1374149
0.14008491
0.14291488
0.14587607
0.14893311
0.15204649
0.15517526
0.15827634
0.16129952
0.16418705
0.16685546
0.16915978
0.17058621
0.17029525
0.16781677
0.16567565
0.16494857
0.16441246
0.16374414
0.16293935
0.16204975
0.16034877
0.15959319
0.15834189
0.15808784
0.15709735
0.15704501
0.14982712
0.12880476
0.1307528
0.13294134
0.13533837
0.13793807
0.14072518
0.14367629
0.14675872
0.14993182
0.15314862
0.15635605
0.15949229
0.16248258
0.16522026
0.16751918
0.16881537
0.16824023
0.16588617
0.16452341
0.16409648
0.16374644
0.16320874
0.16253883
0.16171571
0.16014035
0.15936523
0.15821036
0.15799059
0.15699233
0.15693672
0.14976208
0.12771516
0.12952819
0.13156812
0.13381433
0.13626929
0.13892766
0.1417743
0.14478289
0.14791656
0.15112773
0.15435736
0.15753241
0.16055923
0.16330115
0.16551442
0.16657018
0.1656599
0.16385274
0.16328899
0.16314126
0.16298639
0.16259829
0.16207977
0.16130804
0.15988322
0.15912168
0.15803836
0.15785958
0.15686412
0.15682679
0.14969744
0.12729238
0.12893312
0.13079066
0.1328452
0.13509848
0.13755335
0.14020765
0.14304577
0.14603868
0.14914223
0.15229487
0.15541347
0.15838272
0.16102549
0.16301381
0.16365147
0.16265324
0.16190336
0.16195308
0.16207947
0.16212742
0.16190391
0.16155171
0.16085219
0.15955006
0.15883987
0.15783229
0.15766088
0.15670908
0.15671954
0.14968157
0.12755934
0.1289456
0.13053575
0.13232467
0.13431646
0.13651224
0.13891098
0.14150465
0.14427118
0.14717057
0.15014044
0.15308749
0.15586867
0.15824874
0.15977459
0.15992442
0.15969246
0.16001886
0.16051719
0.16091604
0.16117096
0.16111522
0.16094504
0.16033862
0.15916608
0.15849509
0.15761242
0.15746559
0.15653637
0.15659852
0.14963977
0.1281422
0.12930321
0.13063404
0.13212957
0.13380783
0.13568752
0.13777397
0.14005887
0.14251889
0.14511248
0.14777137
0.15038449
0.15277405
0.15466749
0.15565617
0.15603899
0.15706638
0.15818147
0.15900275
0.15964786
0.16010314
0.16024508
0.16026011
0.15976
0.15872397
0.15809928
0.15735564
0.15722803
0.15634327
0.15645757
0.14959866
0.12868442
0.12961123
0.1307035
0.13195277
0.13335566
0.13491619
0.13664089
0.13853338
0.14057778
0.14273818
0.14495289
0.14710014
0.1489871
0.15038219
0.15150459
0.15315145
0.15490987
0.1563047
0.15741344
0.15829015
0.15894461
0.15928942
0.15950438
0.1591182
0.15822049
0.15764722
0.15702213
0.15692979
0.15609577
0.15628566
0.14955393
0.12863376
0.12924543
0.13000991
0.13095076
0.13208935
0.13341299
0.13486465
0.13645604
0.13814952
0.13991064
0.14168179
0.14345583
0.14520121
0.14692533
0.14895608
0.15109219
0.15289029
0.15446721
0.15579126
0.15687748
0.15770632
0.15826504
0.15866855
0.15841484
0.15765834
0.15714411
0.15664059
0.15659744
0.15581403
0.15605001
0.14950303
0.12957384
0.1300207
0.13053413
0.13111569
0.13179468
0.13263389
0.13366205
0.13487812
0.13626597
0.13775101
0.13933799
0.14107162
0.14293531
0.14494593
0.14709122
0.14917019
0.15108739
0.15272859
0.15419381
0.15544616
0.15642113
0.15717164
0.15776172
0.15764561
0.15703044
0.15660792
0.1561852
0.15620367
0.15548006
0.15574482
0.14944224
0.13157923
0.13198949
0.13245398
0.13297495
0.13354431
0.13414468
0.13475847
0.13538258
0.13612984
0.1371933
0.13854222
0.14009313
0.1417161
0.14353276
0.14533506
0.14733954
0.14938013
0.15114191
0.15266819
0.15403109
0.15510759
0.15602658
0.15677547
0.15681285
0.15634811
0.1560378
0.15569966
0.15578478
0.15511488
0.15538402
0.14935633
0.13291445
0.13321528
0.13357079
0.13399405
0.13450262
0.1351218
0.1358748
0.13673988
0.13755959
0.13836092
0.1392725
0.14022671
0.14135876
0.14287057
0.1443914
0.14599335
0.1478372
0.14968335
0.15128146
0.15267443
0.1538143
0.15485109
0.15572056
0.15592362
0.15560333
0.15544061
0.15517551
0.15532869
0.15469832
0.15497899
0.14914599
0.13545401
0.13566925
0.13591493
0.13619169
0.13650026
0.13684019
0.13721457
0.13764206
0.13816648
0.13881747
0.13962536
0.14070771
0.14182296
0.14281504
0.14400329
0.14524154
0.14673864
0.14838577
0.15003548
0.15143458
0.1525867
0.15369162
0.15464185
0.15498152
0.15480713
0.15479239
0.15464229
0.15485689
0.15424801
0.15455622
0.14909203
0.13702195
0.1371903
0.1373894
0.13762471
0.13790506
0.13824071
0.13864106
0.13910981
0.13964022
0.14022027
0.14083045
0.14141926
0.14209237
0.14300682
0.14402859
0.14498692
0.14611676
0.1473937
0.14890396
0.15031758
0.15150352
0.15261458
0.15356843
0.15401824
0.15395854
0.15409433
0.1540681
0.15434721
0.15375798
0.15414755
0.14907122
0.13938
0.13949672
0.13963024
0.13978111
0.13994989
0.14013723
0.14034505
0.14057836
0.14084936
0.14118102
0.14161055
0.1421756
0.14282089
0.14341757
0.14415693
0.14516633
0.14593112
0.14684922
0.14804745
0.14927861
0.15057567
0.1516699
0.15253815
0.15306241
0.15308153
0.15334196
0.15343169
0.15377607
0.15326376
0.1537554
0.14895756
0.14079934
0.14088988
0.14099734
0.14112473
0.14127667
0.14145881
0.1416771
0.14193679
0.14224001
0.14258174
0.14294525
0.14331153
0.14370988
0.14421855
0.14471705
0.14527314
0.14608857
0.14670713
0.14763551
0.14860071
0.14972937
0.15075944
0.1515654
0.15215829
0.15222017
0.15255281
0.15272539
0.15314431
0.15275399
0.15314268
0.14888842
0.14294778
0.14300931
0.14307871
0.1431563
0.14324238
0.14333679
0.14343938
0.14355104
0.14367579
0.14382327
0.14401165
0.14426471
0.14458611
0.14494779
0.14539615
0.14584545
0.146314
0.14707251
0.14759117
0.14829689
0.14912498
0.14987238
0.15068524
0.15132195
0.15144768
0.1517801
0.15205213
0.1524935
0.15220291
0.15250943
0.14884948
0.14417061
0.14421683
0.14427189
0.14433744
0.14441589
0.14451064
0.14462542
0.14476361
0.14492801
0.1451173
0.14532225
0.14552778
0.14572761
0.14593922
0.1461681
0.14649262
0.14688225
0.14728353
0.14779386
0.14823004
0.1487983
0.149314
0.15011175
0.15062184
0.15079983
0.15111807
0.15144917
0.15185927
0.1516422
0.15205056
0.14880549
0.14587667
0.14590464
0.14593658
0.14597303
0.14601445
0.14606055
0.14611028
0.14616135
0.14620949
0.14625307
0.14629924
0.1463643
0.14646504
0.14660547
0.14679104
0.14698274
0.14717422
0.14754878
0.14785021
0.14833953
0.1486792
0.14901777
0.14975062
0.15019262
0.15023915
0.15052353
0.15084431
0.15126101
0.15110952
0.15148751
0.14873585
0.14682561
0.14684133
0.1468606
0.14688398
0.14691236
0.14694688
0.14698913
0.14704129
0.14710597
0.14718434
0.14727302
0.14736273
0.14744215
0.14750697
0.14756246
0.14764467
0.1477876
0.14793246
0.14820691
0.14844228
0.14864147
0.14870685
0.14932761
0.14982331
0.14971477
0.14998791
0.15019999
0.15065807
0.1505698
0.15115061
0.14867647
0.14803284
0.14803826
0.14804496
0.14805318
0.14806343
0.14807632
0.14809248
0.14811246
0.14813645
0.14816388
0.14819304
0.14822194
0.14825102
0.14828547
0.14832512
0.14836965
0.14842985
0.14851149
0.14861618
0.14871068
0.14867081
0.14855859
0.14881777
0.14925807
0.14916517
0.14945097
0.14954062
0.14999259
0.15002453
0.15062344
0.14862365
0.14867533
0.14867236
0.14866892
0.1486652
0.14866155
0.14865843
0.14865647
0.14865639
0.1486587
0.14866326
0.14866911
0.14867465
0.14867844
0.14868273
0.14869181
0.14870783
0.14872953
0.14875834
0.14880836
0.14881909
0.14893988
0.14855527
0.14859195
0.14882436
0.1487027
0.14890281
0.1490261
0.14947347
0.14956922
0.15000244
0.14858528
0.14895253
0.14894311
0.14893223
0.14891992
0.14890652
0.14889263
0.14887908
0.14886666
0.14885591
0.14884706
0.14884008
0.1488343
0.14882852
0.14882395
0.14882318
0.1488249
0.14882875
0.14883872
0.14886632
0.14883773
0.14899757
0.14880855
0.14855826
0.14859758
0.14840463
0.14856492
0.14877855
0.14908534
0.14916711
0.14955928
0.14857427
0.1491257
0.14911232
0.14909737
0.14908135
0.14906477
0.1490481
0.14903166
0.14901568
0.14900016
0.14898489
0.14896937
0.14895313
0.14893635
0.14892107
0.14891414
0.1489259
0.14895602
0.14901224
0.14906912
0.14904934
0.1491145
0.14904907
0.14889927
0.1486297
0.14842042
0.14851081
0.14881391
0.1488482
0.14892367
0.14914796
0.14859634
0.016663248
0.031570462
0.057938332
0.091677076
0.11765325
0.13345726
0.14296376
0.14955036
0.15483765
0.15944449
0.1635963
0.1674014
0.17091725
0.17417489
0.17718746
0.17989689
0.18226077
0.18379576
0.18403888
0.18185063
0.1769389
0.17296868
0.17025621
0.16793778
0.1652129
0.16353694
0.16144026
0.16061284
0.15954245
0.15878535
0.15044166
0.025471629
0.047331834
0.07996342
0.11023634
0.12876831
0.13932319
0.14626683
0.15172358
0.15646026
0.1607307
0.16463852
0.16824967
0.17160329
0.17472346
0.17761555
0.18021791
0.18246978
0.18386938
0.18395799
0.18157547
0.17661777
0.17276103
0.17011112
0.16781783
0.1651147
0.1634649
0.16136102
0.16055807
0.15950588
0.15875482
0.15043282
0.037373546
0.064919503
0.097211541
0.12039888
0.13392519
0.14224651
0.14828014
0.15329323
0.15774244
0.16178988
0.1655135
0.16896789
0.1721859
0.17518894
0.17797696
0.18048549
0.18263536
0.1839141
0.18386469
0.18130801
0.17632192
0.17257587
0.16997922
0.1677094
0.16502523
0.1633986
0.16129458
0.16050627
0.1594697
0.15872366
0.15042082
0.053298184
0.084539217
0.11173484
0.12852136
0.1383469
0.1449521
0.15020115
0.15479675
0.15896899
0.16280218
0.16634934
0.16965309
0.17274078
0.17563136
0.17831915
0.18073634
0.18278356
0.18394249
0.18376264
0.18103016
0.1760274
0.17239167
0.16984525
0.16759854
0.16493381
0.16333088
0.16123561
0.16045973
0.15943311
0.1586927
0.15040837
0.073194145
0.10238371
0.12247979
0.13422548
0.14164752
0.14720241
0.15193492
0.15620919
0.16013951
0.16377392
0.16715291
0.17031114
0.17327261
0.1760542
0.17864449
0.18097198
0.18291615
0.18396146
0.18365134
0.18074105
0.17573518
0.17221144
0.16971247
0.16748876
0.16484327
0.16326369
0.16117746
0.16041777
0.15939601
0.15866153
0.15039594
0.093601449
0.11617371
0.12996666
0.13839739
0.14433904
0.14920613
0.15354969
0.15754924
0.1612577
0.16470461
0.16792216
0.1709396
0.17377896
0.17645513
0.17895086
0.18119064
0.18303273
0.18396965
0.18352754
0.180442
0.17544645
0.17203499
0.16958052
0.1673795
0.16475303
0.16319655
0.16111985
0.16037633
0.15935828
0.15863042
0.15038322
0.10988852
0.12571973
0.13521851
0.14161719
0.14664111
0.15103367
0.15506738
0.15882412
0.16232598
0.16559453
0.16865639
0.17153757
0.174259
0.17683345
0.17923772
0.18139201
0.18313392
0.18396756
0.18338957
0.18013393
0.17516225
0.17186227
0.1694495
0.167271
0.16466332
0.16312965
0.16106255
0.16033531
0.15931989
0.15859922
0.15037046
0.12164584
0.13222432
0.13907827
0.14426588
0.14869941
0.15273815
0.15650821
0.160042
0.16334836
0.16644557
0.16935652
0.17210564
0.17471319
0.17718951
0.17950535
0.18157652
0.18322124
0.18395689
0.18323579
0.17981773
0.17488331
0.17169304
0.16931936
0.16716325
0.16457412
0.16306295
0.16100553
0.16029436
0.15928079
0.158568
0.15035774
0.12933769
0.13673778
0.14210701
0.14657378
0.15059867
0.15435085
0.15788475
0.16120873
0.16432804
0.16725921
0.17002332
0.17264435
0.17514191
0.17752358
0.179754
0.1817446
0.18329538
0.18393547
0.18306716
0.17949329
0.17461037
0.1715271
0.16919009
0.16705629
0.16448546
0.16299648
0.16094876
0.16025341
0.15924089
0.15853673
0.15034502
0.13460618
0.14019781
0.14469178
0.14868018
0.15238885
0.15589153
0.15920559
0.16232877
0.16526714
0.16803639
0.17065732
0.17315408
0.17554542
0.17783582
0.17998383
0.18189659
0.18335569
0.18390092
0.18288329
0.17916181
0.1743441
0.17136418
0.16906168
0.16695017
0.16439737
0.16293027
0.16089225
0.16021232
0.15919996
0.15850539
0.1503323
0.13850923
0.14306485
0.14701133
0.15065336
0.15409828
0.15737303
0.16047678
0.16340532
0.16616709
0.16877774
0.1712589
0.17363511
0.17592391
0.17812638
0.18019503
0.18203273
0.18340143
0.18385252
0.18268492
0.17882606
0.17408488
0.17120405
0.16893415
0.16684492
0.16430988
0.16286433
0.160836
0.160171
0.15915754
0.15847381
0.1503196
0.14167608
0.14560801
0.14917501
0.15253817
0.15574665
0.15880443
0.16170279
0.1644408
0.16702888
0.16948369
0.17182838
0.17408768
0.17627755
0.17839538
0.18038777
0.18215286
0.18343165
0.18379152
0.18247323
0.17848879
0.17383277
0.17104646
0.16880749
0.16674057
0.164223
0.16279867
0.16078001
0.1601293
0.15911275
0.1584418
0.15030695
0.14445931
0.14797275
0.15124395
0.15436202
0.15734691
0.16019183
0.16288709
0.16543681
0.16785305
0.17015455
0.17236602
0.17451201
0.17660652
0.17864298
0.18056219
0.18225645
0.18344685
0.18371829
0.18224939
0.17815083
0.17358768
0.17089122
0.16868172
0.16663716
0.16413677
0.16273332
0.16072428
0.16008709
0.15906429
0.15840893
0.1502944
0.14704589
0.15024127
0.15325613
0.15614304
0.15890771
0.16153934
0.16403202
0.16639408
0.16863985
0.17079049
0.172872
0.17490826
0.17691096
0.17886929
0.18071844
0.18234324
0.18344796
0.18363394
0.18201421
0.17781298
0.17334951
0.17073812
0.16855686
0.16653471
0.1640512
0.16266831
0.16066881
0.16004429
0.15901002
0.15837443
0.15028201
0.14954111
0.15246249
0.15523511
0.15789263
0.16043433
0.16284954
0.16513863
0.16731283
0.16938933
0.17139161
0.17334643
0.17527656
0.17719096
0.17907445
0.18085665
0.18241322
0.18343544
0.18353881
0.18176831
0.17747631
0.17311811
0.170587
0.16843291
0.16643327
0.16396632
0.16260364
0.16061362
0.16000092
0.15895013
0.15833826
0.15026987
0.15200392
0.1546652
0.15719509
0.15961741
0.16192935
0.16412379
0.16620708
0.16819287
0.17010135
0.17195787
0.17378938
0.17561701
0.17744665
0.17925857
0.18097695
0.18246612
0.18340956
0.18343354
0.18151191
0.17714206
0.17289322
0.1704377
0.16830991
0.16633286
0.16388215
0.16253934
0.16055872
0.15995715
0.15889012
0.15830069
0.15025803
0.15446841
0.1568662
0.15914375
0.16132021
0.16339338
0.1653621
0.16723676
0.16903363
0.17077559
0.17248918
0.17420085
0.17592965
0.17767811
0.17942176
0.18107931
0.18250114
0.18336906
0.18331866
0.18124558
0.17681094
0.17267458
0.17029008
0.16818787
0.1662335
0.16379872
0.16247542
0.16050416
0.15991319
0.15883352
0.15826245
0.15024653
0.15695372
0.15907366
0.16108343
0.16300061
0.16482545
0.16656317
0.16822646
0.16983427
0.17141161
0.17298533
0.1745808
0.17621454
0.1778854
0.17956412
0.18116319
0.18251711
0.18331625
0.18319417
0.18097013
0.17648343
0.17246192
0.17014402
0.16806681
0.16613523
0.16371606
0.16241191
0.16044993
0.15986922
0.15878311
0.15822479
0.15023541
0.15946729
0.16128821
0.16301173
0.16465526
0.16622292
0.1677246
0.16917441
0.1705937
0.17200881
0.17344605
0.17492912
0.17647166
0.17806861
0.17968578
0.18122808
0.18251754
0.18325643
0.18305995
0.18068634
0.17616024
0.17225499
0.16999943
0.16794676
0.16603806
0.16363418
0.16234881
0.16039607
0.15982532
0.1587405
0.1581894
0.15022472
0.1620045
0.1635029
0.16492162
0.16627832
0.16758148
0.16884314
0.17007845
0.17131062
0.17256648
0.17387099
0.17524567
0.176701
0.1782278
0.1797869
0.18127502
0.18250555
0.1831885
0.18291623
0.18039505
0.17584195
0.17205351
0.16985621
0.16782772
0.16594203
0.16355311
0.16228615
0.16034258
0.15978151
0.15869907
0.15815888
0.15021448
0.16454872
0.16570369
0.16680192
0.16786186
0.16889536
0.16991483
0.17093607
0.17198356
0.17308382
0.17425976
0.17553027
0.17690252
0.17836309
0.17986747
0.18130454
0.18248172
0.18311123
0.18276271
0.1800971
0.17552908
0.17185719
0.1697143
0.16770973
0.16584714
0.16347289
0.16222392
0.16028949
0.15973784
0.15865828
0.15812979
0.15020469
0.16707327
0.1678706
0.16863821
0.16939617
0.17015775
0.17093518
0.17174451
0.17261086
0.17355991
0.17461189
0.1757827
0.17707619
0.17847451
0.17992684
0.18131653
0.182446
0.18302659
0.18259781
0.17979316
0.17522204
0.17166573
0.16957364
0.16759279
0.16575343
0.16339352
0.16216216
0.16023681
0.15969435
0.15861806
0.15810124
0.15019538
0.16954466
0.16997881
0.17041436
0.17087048
0.1713612
0.1718992
0.17250077
0.17319081
0.17399379
0.17492689
0.17600273
0.17722198
0.17856198
0.17996495
0.18131367
0.18239851
0.18293342
0.18242183
0.17948396
0.17492117
0.17147882
0.16943419
0.16747692
0.1656609
0.16331504
0.16210087
0.16018454
0.15965109
0.15857843
0.15807332
0.15018657
0.17192556
0.17200058
0.1721144
0.17227347
0.1724978
0.17280142
0.17320175
0.17372158
0.17438445
0.17520428
0.17619016
0.17733971
0.17862461
0.17998249
0.18129581
0.18233857
0.1828302
0.18223389
0.17917049
0.17462673
0.17129617
0.16929592
0.16736213
0.16556958
0.16323747
0.16204007
0.16013268
0.1596081
0.15853939
0.15804605
0.15017827
0.17418469
0.17391825
0.17371974
0.17359279
0.1735592
0.17363643
0.17384426
0.1742013
0.17473085
0.17544359
0.17634468
0.17742895
0.17866084
0.17998157
0.18126207
0.18226613
0.18271667
0.18203474
0.17885394
0.17433896
0.17111746
0.16915882
0.16724845
0.16547947
0.16316082
0.16197978
0.16008123
0.15956544
0.15850091
0.15801945
0.15017053
0.17629455
0.17570901
0.1752122
0.17481481
0.17453705
0.17440091
0.17442525
0.17462787
0.17503192
0.17564433
0.17646582
0.1774864
0.17867112
0.17996327
0.18121217
0.18218117
0.18259283
0.1818256
0.17853553
0.17405805
0.17094242
0.16902286
0.16713588
0.1653906
0.16308512
0.16192006
0.1600302
0.15952314
0.158463
0.15799355
0.15016339
0.17822399
0.17734763
0.17657721
0.17592856
0.17542518
0.17508974
0.17494108
0.17500052
0.17528616
0.1758054
0.17655074
0.17751115
0.17866177
0.17992645
0.18114639
0.18208374
0.18245854
0.18160718
0.1782165
0.17378412
0.17077079
0.16888808
0.16702443
0.16530299
0.16301033
0.16186096
0.15997969
0.15948125
0.15842575
0.15796843
0.15015692
0.17995044
0.1788167
0.17780131
0.17692494
0.17621576
0.17569812
0.17539115
0.17531685
0.17549183
0.17592298
0.17659479
0.17751041
0.17863204
0.17986926
0.1810648
0.18197398
0.18231395
0.18138053
0.17789835
0.17351716
0.17060233
0.1687545
0.16691407
0.16521666
0.16293646
0.16180246
0.15992992
0.15943973
0.1583893
0.15794443
0.15015091
0.18145634
0.18010168
0.17887266
0.1777953
0.17690267
0.17622172
0.17577198
0.17557454
0.17564311
0.17598789
0.17660436
0.17748755
0.1785783
0.17979196
0.18096745
0.1818521
0.18215935
0.18114672
0.17758217
0.17325706
0.17043679
0.16862217
0.16680481
0.16513157
0.16286366
0.16174432
0.15988105
0.15939851
0.15835364
0.15791946
0.1501453
0.1827271
0.1811903
0.17978123
0.17853215
0.17748012
0.17665445
0.17607756
0.17576372
0.17572816
0.17600836
0.17659062
0.17743922
0.17849992
0.17969467
0.18085439
0.18171834
0.18199509
0.18090668
0.17726888
0.17300368
0.17027401
0.16849105
0.16669674
0.16504776
0.16279197
0.16168682
0.15983277
0.15935766
0.15831872
0.15789409
0.1501402
0.18374883
0.18206996
0.18051648
0.17912696
0.17794021
0.17698434
0.17628545
0.17586298
0.17576068
0.1760028
0.1765485
0.17736074
0.17839712
0.17957736
0.18072565
0.18157299
0.18182163
0.18066138
0.17695926
0.17275691
0.17011384
0.16836114
0.1665899
0.16496525
0.16272132
0.16162982
0.15978513
0.15931721
0.15828453
0.15786852
0.15013577
0.18450752
0.18272207
0.18105978
0.17955802
0.17825588
0.17718526
0.17638621
0.17590136
0.17576432
0.17596679
0.17647012
0.17725261
0.17827001
0.17943995
0.18058125
0.18141618
0.18163941
0.18041176
0.17665397
0.17251664
0.16995613
0.16823254
0.16648425
0.16488404
0.16265158
0.16157275
0.15973811
0.15927722
0.15825103
0.1578408
0.15013217
0.18495621
0.18310621
0.1813771
0.1797985
0.17841452
0.17726701
0.17641975
0.1759041
0.17573093
0.17588909
0.17635652
0.17711518
0.17811844
0.17928235
0.18042129
0.18124748
0.18144891
0.18015879
0.17635335
0.17228268
0.16980073
0.16810529
0.16637982
0.16480415
0.16258267
0.16151604
0.15969171
0.1592377
0.15821824
0.15781313
0.1501295
0.18516619
0.18328875
0.18152145
0.17989993
0.17846827
0.17728798
0.17641817
0.17586148
0.17564609
0.17576676
0.17620756
0.1769483
0.17794228
0.17910448
0.18024564
0.18106991
0.18125057
0.17990318
0.17605777
0.17205488
0.16964756
0.16797944
0.16627663
0.16472559
0.16251501
0.16145973
0.1596459
0.15919871
0.15818615
0.15778716
0.15012777
0.18524871
0.18336408
0.18157629
0.17993259
0.17847764
0.17727465
0.17635803
0.17575248
0.17550351
0.17559946
0.17602247
0.17675171
0.17774145
0.17890628
0.18005443
0.18088064
0.18104524
0.17964567
0.17576756
0.17183314
0.16949652
0.16785504
0.16617468
0.16464838
0.16244858
0.16140395
0.15960066
0.15916024
0.15815468
0.15776194
0.15012684
0.18516214
0.1832965
0.18151431
0.17986712
0.17840468
0.17717314
0.17621028
0.17557323
0.175304
0.17538581
0.17580063
0.1765252
0.17751587
0.1786877
0.17984786
0.180682
0.18083326
0.17938701
0.17548301
0.17161729
0.16934755
0.16773213
0.166074
0.16457253
0.16238328
0.16134886
0.15955599
0.15912234
0.15812351
0.15773722
0.15012649
0.18474273
0.1829568
0.18123054
0.17962023
0.17817603
0.17694309
0.17597022
0.17532204
0.17504626
0.17512508
0.17554152
0.17626858
0.17726549
0.17844869
0.17962586
0.18047324
0.18061535
0.1791279
0.17520432
0.17140725
0.16920058
0.16761078
0.16597462
0.16449806
0.16231938
0.16129447
0.1595119
0.15908502
0.15809262
0.15771285
0.15012647
0.18398591
0.182334
0.18071136
0.17917885
0.17778831
0.17658895
0.17563482
0.17499665
0.17472927
0.17481653
0.17524466
0.17598168
0.17699027
0.17818922
0.17938841
0.18025461
0.1803922
0.178869
0.17493169
0.17120282
0.16905559
0.16749102
0.16587657
0.16442499
0.1622569
0.16124097
0.15946837
0.15904835
0.15806289
0.15768883
0.15012655
0.18298693
0.18148507
0.1799893
0.17856155
0.17725262
0.17611425
0.17520306
0.17459553
0.17435177
0.17445946
0.17490961
0.17566435
0.17669024
0.1779093
0.17913549
0.18002634
0.18016444
0.17861096
0.1746653
0.17100382
0.16891257
0.16737291
0.16577986
0.16435333
0.16219588
0.16118835
0.15942534
0.15901235
0.15803527
0.15766509
0.15012578
0.18178319
0.18043811
0.17908179
0.17777797
0.17657376
0.17552025
0.17467446
0.17411778
0.17391257
0.1740532
0.17453589
0.17531642
0.1763654
0.17760895
0.17886705
0.17978852
0.17993267
0.17835439
0.17440526
0.17081012
0.16877152
0.16725647
0.16568455
0.16428311
0.16213635
0.16113673
0.15938277
0.15897696
0.15800831
0.15764163
0.15012425
0.18038163
0.17919847
0.17799287
0.17683046
0.17575268
0.17480698
0.17404887
0.17356302
0.17341046
0.17359713
0.17412304
0.17493772
0.17601581
0.17728826
0.17858308
0.17954117
0.17969749
0.17809993
0.17415165
0.17062157
0.16863246
0.16714178
0.16559066
0.16421434
0.16207832
0.16108611
0.15934067
0.15894216
0.1579793
0.15761826
0.15012238
0.17876558
0.17775437
0.17671643
0.17571628
0.17478821
0.17397396
0.17332653
0.17293122
0.17284417
0.1730907
0.17367062
0.17452806
0.17564152
0.17694734
0.17828353
0.17928426
0.17945923
0.1778482
0.17390455
0.17043805
0.16849544
0.16702886
0.16549825
0.16414701
0.16202172
0.16103652
0.15929932
0.15890801
0.15794681
0.15759498
0.15012041
0.17690319
0.17608447
0.17524116
0.17443045
0.17367859
0.1730208
0.17250854
0.17222218
0.17221253
0.17253356
0.17317827
0.17408727
0.17524263
0.17658639
0.17796846
0.17901767
0.17921751
0.17759972
0.17366402
0.17025945
0.16836046
0.16691773
0.16540732
0.16408113
0.16196633
0.16098798
0.15925858
0.15887452
0.15791144
0.15757176
0.1501175
0.17476705
0.17417209
0.17355915
0.17297029
0.17242361
0.17194894
0.17159685
0.17143389
0.17151604
0.17192596
0.17264579
0.17361519
0.17481924
0.17620568
0.17763798
0.17874119
0.17897317
0.17735502
0.17343005
0.17008555
0.16822749
0.16680834
0.16531785
0.16401664
0.161912
0.16094058
0.15921877
0.15884169
0.157876
0.15754872
0.15011334
0.17235839
0.17202098
0.17167533
0.17134084
0.171027
0.17076319
0.17059125
0.17056498
0.17075748
0.17126823
0.17207311
0.17311164
0.17437144
0.17580551
0.17729229
0.17845453
0.17872596
0.1771147
0.1732025
0.16991611
0.16809647
0.16670068
0.16522985
0.16395356
0.16185871
0.16089445
0.15917961
0.15880949
0.15784053
0.15752625
0.15010761
0.16971616
0.16966169
0.16961208
0.1695567
0.16950034
0.16946855
0.16948879
0.16961715
0.16993908
0.17056064
0.17145983
0.17257603
0.1738989
0.17538588
0.17693139
0.17815733
0.1784761
0.17687959
0.1729814
0.16975118
0.1679677
0.16659502
0.16514358
0.16389202
0.16180716
0.16084969
0.15914148
0.15877785
0.15780602
0.15750501
0.15010005
0.16689477
0.16713131
0.16739353
0.16763302
0.16784852
0.16805763
0.16828643
0.16858798
0.16905383
0.16979969
0.170803
0.17200561
0.17339941
0.17494525
0.17655384
0.17784881
0.17822357
0.17665155
0.17276802
0.16959211
0.16784229
0.16649229
0.16505968
0.16383231
0.16175797
0.16080578
0.15910404
0.15874662
0.15777271
0.15748604
0.1500905
0.16391248
0.16442741
0.16500533
0.16555164
0.16604879
0.16651219
0.16696833
0.16746088
0.16807763
0.16897059
0.17009455
0.17139468
0.17286847
0.17448021
0.17615662
0.17752705
0.17796791
0.17643317
0.17256582
0.16944132
0.16772147
0.16639324
0.16497848
0.16377456
0.16170956
0.16076052
0.15906625
0.15871571
0.1577385
0.15747056
0.15007902
0.16081968
0.16148154
0.1623008
0.163149
0.16395686
0.16471625
0.16544078
0.16615298
0.16692838
0.16800651
0.16929063
0.17071001
0.17227892
0.17396815
0.17572118
0.17717917
0.17770463
0.17622391
0.17238149
0.16929827
0.16760325
0.16629553
0.16489794
0.1637177
0.16165638
0.16071
0.15902577
0.15868493
0.157701
0.15745846
0.150066
0.014552139
0.027273174
0.051622363
0.085424471
0.11319998
0.13065631
0.14126135
0.14838512
0.1539362
0.15869994
0.16297064
0.16687738
0.17048428
0.17382417
0.17691226
0.17969081
0.18212559
0.18374542
0.18410286
0.18203681
0.17716799
0.1731237
0.17036942
0.16802924
0.16528961
0.16359386
0.16150623
0.16066135
0.1595762
0.15881294
0.1504452
0.016755974
0.029576944
0.052597362
0.084548411
0.11219897
0.13004341
0.14087455
0.14811181
0.15370145
0.15847561
0.16275425
0.16667618
0.17030692
0.17367581
0.17679479
0.17960407
0.18206618
0.18372012
0.1841327
0.18213162
0.17730098
0.17321601
0.17044236
0.16808922
0.16534272
0.16363544
0.16155475
0.16069989
0.15960177
0.15883305
0.15044642
0.018417228
0.031055642
0.05300464
0.083533772
0.11111764
0.12929803
0.14035601
0.14772644
0.15337694
0.15817912
0.16247905
0.16642644
0.17008903
0.17349365
0.17664947
0.17949513
0.18198995
0.18369053
0.18415535
0.18223535
0.17744504
0.17331309
0.17051615
0.16814975
0.16539625
0.1636776
0.1615965
0.16073473
0.15962776
0.15885277
0.15044784
0.019830225
0.032125688
0.053044659
0.082345869
0.10986161
0.12841611
0.13976405
0.14730133
0.15303059
0.15786949
0.16219432
0.16616807
0.16986246
0.17330281
0.17649573
0.1793786
0.18190687
0.18365565
0.18417604
0.18233843
0.17759254
0.17341525
0.17059322
0.16821301
0.16545198
0.16372133
0.16163568
0.16076779
0.15965476
0.15887297
0.15044955
0.021185179
0.033213393
0.05315448
0.081213165
0.10854164
0.12747908
0.13915053
0.14687027
0.15268557
0.15756349
0.16191255
0.16591052
0.16963438
0.17310863
0.1763375
0.17925725
0.18181894
0.1836159
0.18419395
0.18243805
0.17773945
0.17351941
0.17067176
0.16827768
0.16550895
0.16376602
0.16167499
0.16080057
0.15968239
0.15889364
0.15045177
0.022521403
0.034307752
0.053391696
0.080225492
0.10724897
0.12653646
0.13853521
0.1464418
0.15234635
0.15726415
0.16163626
0.16565609
0.16940684
0.17291293
0.17617629
0.17913224
0.18172707
0.18357176
0.18420803
0.18253303
0.17788443
0.17362383
0.17075025
0.1683425
0.16556621
0.16381109
0.16171499
0.16083361
0.15971026
0.15891476
0.15045378
0.023793333