/*--------------------------------*- C++ -*----------------------------------*\
| =========                 |                                                 |
| \\      /  F ield         | OpenFOAM: The Open Source CFD Toolbox           |
|  \\    /   O peration     | Version:  2406                                  |
|   \\  /    A nd           | Website:  www.openfoam.com                      |
|    \\/     M anipulation  |                                                 |
\*---------------------------------------------------------------------------*/
FoamFile
{
    version     2.0;
    format      ascii;
    arch        "LSB;label=32;scalar=64";
    class       volScalarField;
    location    "0.04";
    object      p;
}
// * * * * * * * * * * * * * * * * * * * * * * * * * * * * * * * * * * * * * //

dimensions      [1 -1 -2 0 0 0 0];

internalField   nonuniform List<scalar> 
35803
(
101191.75
101114.88
101069.13
101011.15
100953.24
100904.6
100868.2
100845.07
100835.27
100835.11
100845
100870.69
100907.66
100958.17
101013.24
101082.44
101149.67
101221.37
101252.69
101283.42
101309.7
101331.89
101356.41
101366.28
101383.99
101391.52
101424.14
101419.8
101434.63
101414.93
101411.19
101348.15
101283.46
101217
101142.94
101073.43
101014.15
100967.32
100934.16
100916.29
100905.8
100905.91
100922.32
100951.66
100994.86
101043.64
101105.56
101164.68
101231.23
101259.95
101289.89
101314.63
101335.8
101359.56
101368.81
101387.11
101394.22
101426.75
101421.38
101435.75
101415.5
101410.74
101454.92
101398.11
101325.94
101245.3
101169.78
101103.76
101049.33
101009.05
100981.9
100963.96
100954.18
100962.55
100985.47
101022.81
101067.89
101126.29
101181.29
101242.55
101269.35
101297.61
101320.44
101340.41
101363.25
101371.91
101391.06
101397.38
101429.38
101423.03
101437.09
101416.12
101410.12
101553.2
101498.21
101425.55
101342.06
101261.98
101190.1
101128.38
101079.13
101042.42
101016.75
101000.93
101002.41
101019.14
101050.8
101092.64
101148.06
101199.96
101255.01
101280.69
101306.43
101327.11
101345.73
101367.49
101375.66
101395.4
101400.75
101431.86
101424.83
101438.63
101416.86
101410.25
101643.08
101590.94
101520.72
101437.32
101354.87
101278.79
101211.09
101154
101108.74
101075.31
101053.54
101048.09
101058.27
101083.79
101121.86
101173.31
101221.33
101268.8
101293.98
101316.5
101334.79
101351.88
101372.35
101380.15
101399.79
101404.2
101434.07
101426.74
101440.29
101417.73
101410.44
101720.46
101672.45
101606.56
101526.01
101444.11
101366.47
101295.23
101232.61
101180.56
101140.14
101112.12
101099.68
101103.1
101122.18
101156.13
101202.54
101245.72
101284.55
101309.37
101327.98
101343.59
101358.97
101377.91
101385.43
101404.21
101407.73
101435.95
101428.71
101442.08
101418.74
101411.1
101784.55
101740.28
101679.81
101604.51
101526.09
101449.84
101377.85
101312.34
101255.64
101209.6
101175.77
101156.73
101153.46
101166.05
101195.75
101235.99
101273.3
101303.13
101326.9
101341.1
101353.67
101367.13
101384.28
101391.49
101408.8
101411.5
101437.47
101430.65
101444.1
101419.93
101412.76
101836.02
101792.54
101737.38
101670.17
101598.58
101526.83
101457.04
101391.41
101332.48
101282.64
101244.03
101219.16
101209.57
101215.89
101241.25
101273.89
101304.3
101325.89
101346.54
101356.07
101365.22
101376.5
101391.54
101398.25
101413.65
101415.78
101438.76
101432.5
101446.41
101421.45
101414.82
101873.95
101833.46
101783.87
101725.38
101662.11
101596.96
101531.76
101468.58
101409.9
101358.34
101316.46
101286.88
101271.66
101272.15
101292.81
101317.18
101338.63
101353.77
101368.24
101373.1
101378.45
101387.21
101399.83
101405.7
101418.84
101420.72
101440.21
101434.14
101448.78
101423.41
101417.98
101905.79
101867.05
101823.66
101773.38
101718.46
101660.86
101601.89
101543.22
101487.05
101435.92
101392.55
101359.7
101339.87
101335.31
101351.05
101366.25
101376.44
101386.4
101392.23
101392.33
101393.58
101399.44
101409.31
101414.23
101424.73
101426.34
101442.21
101435.71
101450.73
101425.71
101422.35
101931.48
101896.3
101857.61
101814.26
101768.06
101719.26
101668.02
101615.55
101563.78
101515.04
101471.99
101437.45
101414.31
101405.81
101416.37
101420.76
101419.59
101422.36
101418.91
101413.87
101410.79
101413.37
101420.17
101424.19
101432.07
101432.62
101444.71
101438.06
101452.42
101427.95
101428.04
101942.69
101927.93
101899.77
101861.26
101820.49
101778.5
101734.13
101687.92
101641.31
101596.21
101554.95
101520.26
101495.38
101484.23
101488.26
101480.32
101468.32
101460.22
101448.51
101437.73
101430.19
101429.17
101432.6
101435.5
101441.29
101439.99
101447.4
101441.2
101454.19
101429.89
101432.96
101968.53
101957.51
101939.53
101913.7
101880.67
101843.23
101803.69
101762.82
101721.37
101680.62
101642.45
101609.3
101584.39
101570.92
101564.35
101543.42
101519.41
101499.7
101480.5
101463.81
101451.84
101446.99
101446.7
101447.93
101452.05
101448.86
101450.79
101444.66
101456.43
101431.56
101437.63
102010.55
102000.5
101980.05
101954.33
101928.56
101900.79
101870.56
101838.05
101803.91
101769.5
101736.71
101707.32
101682.88
101662.22
101637.93
101604.46
101570.14
101540.21
101514.02
101492.1
101475.72
101466.76
101462.45
101461.26
101463.64
101459.23
101455.91
101449.41
101459.73
101433.27
101442.72
102056.58
102053.17
102041.78
102019.49
101991.93
101966.96
101944.4
101920.38
101893.48
101864.55
101835.06
101805.61
101775.41
101740.89
101700.36
101657.87
101617.14
101580.79
101548.94
101522.13
101501.61
101488.3
101479.7
101475.27
101475.43
101470.74
101463.86
101456.07
101464.44
101436.39
101448.64
102127.05
102128.89
102127.6
102121.26
102105.6
102079.14
102048.52
102017.59
101985.4
101951.86
101917.06
101879.57
101838.78
101794.78
101748.55
101702.94
101659.9
101620.09
101583.94
101553.15
101529
101511.58
101498.53
101489.85
101486.99
101482.55
101475.04
101464.62
101470.56
101443.19
101456.11
102125.28
102119.15
102108.33
102094.12
102082.53
102074.88
102066.9
102056.59
102036.55
102004.43
101967.06
101927.92
101884.62
101837.49
101789.55
101742.67
101697.92
101656.31
101617.93
101584.35
101557.45
101536.41
101518.9
101505.34
101498.32
101493.55
101488.1
101474.11
101477.3
101454.18
101466.46
102119.95
102112.69
102103.41
102091.99
102079.01
102063.55
102044.8
102023.01
102003.16
101986.09
101966.81
101945.68
101915.41
101871.44
101823.78
101778.15
101732.42
101689.11
101649.64
101614.87
101586.35
101562.51
101540.97
101522.22
101510.04
101503.48
101500.5
101483.26
101484
101466.74
101481.8
102085.22
102079.67
102072.84
102064.76
102055.32
102044.26
102031.25
102016.15
101999.82
101982.51
101961.87
101934.69
101909.07
101883.8
101847.02
101805.99
101762.29
101718.85
101678.75
101643.94
101614.87
101589.22
101564.65
101541.16
101523.32
101513.45
101510.75
101491.61
101491.21
101478.05
101504.8
102043.46
102038.98
102033.55
102027.24
102019.97
102011.54
102001.78
101990.5
101977.42
101962.11
101944.12
101923.73
101898.98
101874.92
101855.03
101826.08
101786.23
101744.78
101705.58
101670.9
101641.91
101615.3
101589.09
101562.84
101540.08
101525.46
101519.79
101499.3
101500.02
101486.81
101528.19
102001.46
101998.08
101993.99
101989.24
101983.75
101977.39
101970.01
101961.43
101951.45
101939.81
101926.24
101910.45
101892.31
101872.24
101847.96
101823.68
101801.71
101768.81
101731.25
101696.16
101665.98
101638.64
101612.44
101586.22
101561.64
101541.01
101527.54
101506.64
101511.17
101494.53
101541.77
101963.85
101961.24
101958.07
101954.39
101950.14
101945.18
101939.41
101932.68
101924.84
101915.71
101905.09
101892.79
101878.68
101862.24
101844.34
101823.89
101802.62
101783.59
101754.18
101719.78
101687.44
101658.53
101632.17
101607.3
101584.37
101560.94
101539.82
101517.98
101522.72
101503.97
101557.52
101930.51
101928.5
101926.08
101923.26
101919.99
101916.18
101911.74
101906.56
101900.51
101893.47
101885.27
101875.76
101864.73
101852.08
101837.35
101821.13
101802.43
101782.78
101765.08
101737.32
101706.5
101677.02
101649.85
101624.66
101602.96
101580.81
101559.09
101534.37
101532.78
101511.23
101570.08
101898.73
101897.19
101895.31
101893.15
101890.65
101887.74
101884.34
101880.38
101875.75
101870.33
101864
101856.59
101847.93
101837.87
101826.3
101812.57
101797.39
101779.88
101760.69
101743.87
101719.91
101692.85
101666.63
101641.38
101617.75
101595.18
101574.26
101549.36
101544.48
101520.42
101561.92
101866.27
101865.07
101863.64
101861.98
101860.07
101857.86
101855.29
101852.29
101848.78
101844.68
101839.87
101834.25
101827.68
101819.99
101810.93
101800.59
101788.48
101774.53
101760.26
101746
101727.74
101702.92
101678.87
101654.65
101628.82
101604.27
101581.27
101561.37
101557.48
101528.36
101564.58
101841.77
101840.84
101839.72
101838.43
101836.93
101835.18
101833.12
101830.71
101827.9
101824.61
101820.76
101816.29
101811.08
101805.05
101798.09
101789.9
101780.65
101770.11
101757.76
101743.12
101726.57
101708.61
101687.38
101666.48
101642.74
101617.79
101592.27
101573.96
101568.36
101541.13
101575.28
101815.03
101814.32
101813.47
101812.49
101811.34
101810.01
101808.44
101806.6
101804.44
101801.92
101798.99
101795.59
101791.64
101787.01
101781.51
101775.14
101767.66
101758.92
101748.55
101736.35
101726.7
101714.63
101693.93
101674.18
101653.39
101630.44
101610.04
101592.57
101582.62
101554.49
101584.06
101789.88
101789.44
101788.92
101788.32
101787.62
101786.81
101785.86
101784.74
101783.41
101781.83
101779.94
101777.64
101774.88
101771.6
101767.8
101763.34
101758.08
101752.03
101745.1
101737.36
101725.04
101711.23
101697.27
101677.8
101658.81
101641.1
101624.59
101607.25
101594.23
101565.99
101591.73
101769.35
101768.78
101768.2
101767.61
101767.01
101766.38
101765.71
101764.98
101764.16
101763.26
101762.25
101761.11
101759.86
101758.46
101756.74
101754.48
101751.45
101747.38
101742.04
101735.39
101728.02
101720.47
101710.31
101692.42
101674.06
101655.05
101637.47
101621.44
101606.77
101584.33
101597.2
101774.68
101774.4
101774.07
101773.71
101773.29
101772.8
101772.23
101771.55
101770.73
101769.76
101768.63
101767.33
101765.84
101764.13
101762.08
101759.52
101756.33
101752.24
101747.26
101740.78
101732.79
101721.99
101709.9
101698.71
101684.25
101667.12
101649.92
101633.14
101611.48
101593.66
101598.22
101771.97
101771.41
101770.84
101770.25
101769.63
101768.96
101768.21
101767.35
101766.35
101765.18
101763.78
101762.1
101760.08
101757.65
101754.77
101751.45
101747.55
101743.14
101737.94
101731.57
101724.28
101715.26
101703.82
101685.78
101662.2
101654.88
101647.16
101627.66
101615.13
101601.41
101594.53
100140.96
100145.28
100157.36
100167.63
100180.25
100194.5
100211.46
100228.92
100251.16
100282.04
100323.88
100377.61
100443.01
100518.94
100604.82
100695.56
100793.09
100888.81
100983.84
101065.81
101122.28
101181.02
101229.84
101263.79
101297.86
101319.2
101331.21
101334.15
101358.57
101367.83
101401.13
100150.75
100164.96
100185.86
100197.41
100209.99
100220.79
100230.36
100243.38
100264.86
100296.75
100340.35
100395.59
100462.06
100538.43
100623.87
100712.94
100808.41
100897.72
100993.01
101067.67
101125.49
101184.21
101232.42
101265.83
101299.62
101320.58
101333.13
101335.47
101359.33
101368.77
101400.99
100163.03
100181.9
100191.84
100196.14
100204.63
100215.66
100227.26
100243.28
100267.64
100302.06
100347.89
100404.77
100472.38
100549.32
100634.78
100723.22
100818.66
100905.99
101001.24
101070.73
101129.52
101187.68
101235.14
101267.97
101301.45
101322
101335.1
101336.9
101360.1
101369.65
101400.87
100172.89
100189.57
100190.71
100193.99
100202.07
100211.91
100223.77
100241.51
100267.92
100304.48
100352.27
100410.69
100479.48
100557.16
100642.93
100731.26
100827.32
100914.66
101008.71
101074.11
101133.81
101191.14
101237.87
101270.11
101303.29
101323.44
101337.06
101338.35
101360.88
101370.5
101400.83
100175.95
100186.47
100185.99
100189.28
100197.1
100206.68
100219.78
100239.62
100268.22
100307.08
100356.83
100416.88
100486.91
100565.39
100651.49
100739.74
100836.25
100923.92
101015.18
101077.44
101138.16
101194.58
101240.59
101272.26
101305.14
101324.89
101339.03
101339.78
101361.7
101371.34
101400.92
100172.82
100177.59
100178.59
100183.33
100190.98
100200.99
100215.78
100237.84
100268.79
100310.07
100361.8
100423.51
100494.75
100573.99
100660.34
100748.49
100845.28
100932.98
101021.05
101080.77
101142.56
101198
101243.31
101274.42
101307
101326.35
101341.01
101341.22
101362.55
101372.15
101400.74
100167.57
100168.2
100170.26
100175.85
100183.58
100194.65
100211.47
100235.92
100269.42
100313.13
100366.86
100430.24
100502.65
100582.6
100669.16
100757.22
100854.1
100941.79
101027.22
101084.12
101147
101201.39
101246.03
101276.58
101308.88
101327.82
101343
101342.66
101363.44
101372.96
101400.57
100160.58
100159.41
100161.21
100166.74
100175.04
100187.73
100206.85
100233.85
100270.07
100316.2
100371.97
100437
100510.55
100591.19
100677.91
100765.88
100862.56
100950.61
101034.16
101087.5
101151.46
101204.76
101248.75
101278.75
101310.75
101329.3
101344.99
101344.11
101364.39
101373.76
101400.45
100149.91
100147.96
100149.83
100155.9
100165.52
100180.29
100201.96
100231.71
100270.75
100319.32
100377.16
100443.83
100518.48
100599.78
100686.63
100774.49
100870.93
100959.39
101041.28
101091.03
101155.94
101208.12
101251.47
101280.92
101312.64
101330.78
101346.98
101345.57
101365.41
101374.56
101400.4
100136.26
100134.24
100136.62
100143.74
100155.17
100172.38
100196.81
100229.55
100271.47
100322.51
100382.46
100450.74
100526.46
100608.38
100695.32
100783.05
100879.42
100967.43
101047.92
101094.92
101160.42
101211.45
101254.2
101283.09
101314.53
101332.27
101348.98
101347.04
101366.51
101375.38
101400.41
100119.57
100118.08
100121.57
100130.31
100144
100164
100191.48
100227.4
100272.23
100325.82
100387.87
100457.73
100534.48
100616.98
100703.97
100791.6
100887.93
100974.76
101054.04
101099.23
101164.87
101214.77
101256.92
101285.27
101316.43
101333.76
101350.97
101348.53
101367.72
101376.22
101400.51
100099.87
100099.61
100104.75
100115.64
100132.07
100155.2
100186.03
100225.29
100273.09
100329.27
100393.41
100464.81
100542.55
100625.6
100712.58
100800.24
100896.33
100981.99
101059.7
101103.83
101169.29
101218.07
101259.64
101287.45
101318.33
101335.26
101352.97
101350.05
101369.11
101377.12
101400.68
100077.24
100078.76
100086.15
100099.76
100119.41
100146.06
100180.53
100223.23
100274.09
100332.89
100399.09
100471.99
100550.67
100634.22
100721.16
100809
100904.26
100989.3
101064.98
101108.59
101173.67
101221.35
101262.36
101289.63
101320.23
101336.75
101354.96
101351.6
101370.74
101378.11
101400.94
100051.6
100055.52
100065.8
100082.75
100106.14
100136.67
100175.03
100221.28
100275.29
100336.7
100404.94
100479.28
100558.84
100642.86
100729.72
100817.78
100911.65
100996.67
101069.99
101113.47
101178.01
101224.62
101265.07
101291.82
101322.13
101338.25
101356.95
101353.2
101372.68
101379.24
101401.27
100022.92
100029.94
100043.83
100064.75
100092.35
100127.15
100169.59
100219.51
100276.71
100340.73
100410.95
100486.68
100567.07
100651.49
100738.26
100826.62
100918.75
101003.95
101074.81
101118.47
101182.3
101227.88
101267.79
101294
101324.03
101339.74
101358.93
101354.85
101374.95
101380.54
101401.68
99991.218
100002.14
100020.39
100045.92
100078.2
100117.61
100164.29
100217.99
100278.41
100345.01
100417.15
100494.2
100575.35
100660.14
100746.79
100835.59
100925.69
101011.1
101079.5
101123.57
101186.55
101231.13
101270.5
101296.19
101325.94
101341.23
101360.92
101356.54
101377.46
101382.04
101402.16
99956.615
99972.314
99995.702
100026.45
100063.88
100108.19
100159.26
100216.81
100280.44
100349.55
100423.56
100501.84
100583.7
100668.8
100755.39
100844.8
100932.81
101018.17
101084.14
101128.71
101190.76
101234.37
101273.21
101298.38
101327.83
101342.71
101362.9
101358.27
101380.1
101383.74
101402.71
99919.36
99940.781
99970.085
100006.64
100049.61
100099.02
100154.61
100216.04
100282.84
100354.4
100430.18
100509.62
100592.12
100677.46
100764.19
100853.96
100940.32
101025.17
101088.75
101133.88
101194.92
101237.6
101275.92
101300.56
101329.73
101344.19
101364.87
101360.05
101382.76
101385.56
101403.32
99879.908
99908.008
99943.946
99986.791
100035.63
100090.3
100150.47
100215.76
100285.66
100359.58
100437.04
100517.54
100600.6
100686.15
100773.04
100862.32
100947.81
101032.1
101093.35
101139.08
101199.04
101240.82
101278.62
101302.74
101331.62
101345.66
101366.85
101361.85
101385.38
101387.42
101403.98
99838.981
99874.632
99917.791
99967.302
100022.21
100082.22
100146.98
100216.06
100288.95
100365.11
100444.14
100525.61
100609.14
100694.85
100781.64
100870.15
100955.4
101038.82
101097.97
101144.29
101203.11
101244.03
101281.32
101304.92
101333.5
101347.12
101368.81
101363.69
101387.96
101389.21
101404.69
99797.57
99841.456
99892.21
99948.6
100009.65
100075.01
100144.26
100217.01
100292.77
100371.03
100451.5
100533.82
100617.76
100703.65
100790.34
100878
100963.36
101045.15
101102.62
101149.52
101207.13
101247.23
101284.01
101307.1
101335.38
101348.58
101370.78
101365.56
101390.51
101390.9
101405.43
99756.878
99809.429
99867.84
99931.123
99998.267
100068.89
100142.46
100218.7
100297.17
100377.37
100459.14
100542.19
100626.46
100712.66
100798.74
100885.59
100971.25
101051.35
101107.34
101154.75
101211.12
101250.42
101286.7
101309.27
101337.25
101350.02
101372.74
101367.46
101393.02
101392.45
101406.21
99718.255
99779.61
99845.312
99915.318
99988.41
100064.1
100141.71
100221.21
100302.19
100384.15
100467.05
100550.72
100635.34
100721.56
100806.88
100893.23
100978.46
101057.79
101112.14
101159.99
101215.06
101253.6
101289.37
101311.43
101339.11
101351.46
101374.7
101369.37
101395.48
101393.88
101407.02
99683.019
99752.86
99825.281
99901.678
99980.428
100060.88
100142.16
100224.64
100307.9
100391.4
100475.25
100559.5
100644.61
100730.26
100815.09
100900.81
100985.21
101064.6
101117.02
101165.22
101218.96
101256.77
101292.04
101313.59
101340.95
101352.88
101376.65
101371.3
101397.9
101395.16
101407.84
99651.659
99729.213
99808.894
99890.836
99974.655
100059.36
100143.96
100229.08
100314.33
100399.12
100483.81
100568.75
100654.15
100738.68
100823.44
100908.32
100991.91
101071.68
101121.99
101170.43
101222.82
101259.92
101294.71
101315.74
101342.79
101354.29
101378.61
101373.25
101400.27
101396.3
101408.67
99625.925
99710.607
99796.289
99883.233
99971.235
100059.56
100147.3
100234.65
100321.54
100407.39
100492.93
100578.88
100663.01
100746.87
100831.74
100915.76
100998.68
101078.76
101127.06
101175.62
101226.65
101263.07
101297.36
101317.88
101344.62
101355.68
101380.56
101375.2
101402.57
101397.3
101409.51
99606.726
99697.53
99787.991
99879.075
99970.626
100061.93
100152.04
100241.32
100329.69
100416.48
100503.11
100588.62
100671.15
100755.7
100840
100923.14
101005.47
101085.68
101132.25
101180.78
101230.44
101266.19
101300
101320.01
101346.43
101357.05
101382.51
101377.17
101404.81
101398.15
101410.33
99594.707
99690.48
99784.512
99878.725
99973.02
100066.6
100158.45
100249.15
100339.07
100427.1
100514.04
100597.23
100679.91
100764.59
100848.24
100930.44
101012.26
101092.43
101137.56
101185.9
101234.2
101269.3
101302.63
101322.13
101348.23
101358.4
101384.45
101379.14
101406.98
101398.87
101411.13
99590.393
99689.892
99786.228
99882.46
99978.585
100073.75
100166.75
100258.73
100350.43
100439.2
100522.97
100605.41
100689.37
100773.48
100856.46
100937.66
101019.02
101099.04
101142.97
101190.98
101237.92
101272.39
101305.26
101324.24
101350.01
101359.75
101386.37
101381.12
101409.06
101399.46
101411.9
99594.257
99696.177
99793.48
99890.557
99987.621
100083.95
100177.99
100271.54
100363.49
100448.88
100531.04
100615.47
100698.9
100782.4
100864.67
100944.79
101025.75
101105.54
101148.44
101196.02
101241.61
101275.47
101307.86
101326.34
101351.78
101361.09
101388.27
101383.1
101411.06
101399.94
101412.62
99606.916
99710.047
99806.943
99903.795
100001.14
100098.53
100194.3
100286.44
100372.53
100457.2
100541.8
100625.87
100708.47
100791.38
100872.88
100951.87
101032.41
101111.95
101153.95
101201.02
101245.28
101278.53
101310.46
101328.44
101353.52
101362.42
101390.15
101385.08
101412.98
101400.37
101413.27
99628.847
99732.551
99827.901
99923.962
100021.13
100117.83
100210.86
100297.07
100381.41
100468.62
100553.15
100636.37
100718.15
100800.41
100881.09
100958.94
101039.02
101118.27
101159.48
101205.96
101248.9
101281.56
101313.04
101330.52
101355.24
101363.76
101392.01
101387.06
101414.81
101400.78
101413.84
99657.92
99761.403
99854.459
99948.603
100043.85
100136.55
100222.27
100307.13
100394.24
100481.48
100564.79
100647.11
100727.96
100809.51
100889.29
100966.08
101045.59
101124.53
101165.01
101210.82
101252.5
101284.57
101315.6
101332.59
101356.94
101365.1
101393.85
101389.04
101416.54
101401.21
101414.32
99689.068
99791.503
99881.912
99972.147
100063.21
100149.39
100234.84
100322.93
100409.3
100495.07
100576.91
100658.12
100737.9
100818.66
100897.47
100972.89
101052.19
101130.72
101170.51
101215.62
101256.06
101287.56
101318.15
101334.66
101358.63
101366.47
101395.66
101391
101418.16
101401.68
101414.7
99724.528
99824.323
99909.61
99995.123
100080.35
100165.99
100255.32
100341.09
100425.47
100509.48
100589.58
100669.42
100747.97
100827.86
100905.54
100979.51
101058.83
101136.84
101175.99
101220.34
101259.59
101290.52
101320.68
101336.71
101360.3
101367.85
101397.45
101392.96
101419.69
101402.18
101415.03
99782.649
99876.345
99953.421
100031.58
100111.81
100194.66
100279.09
100360.82
100442.72
100524.75
100602.81
100681.02
100758.18
100837.12
100913.58
100986.38
101065.37
101142.88
101181.44
101224.99
101263.09
101293.46
101323.19
101338.75
101361.96
101369.26
101399.21
101394.91
101421.11
101402.71
101415.26
99858.785
99942.189
100008.49
100077.55
100150.69
100227.09
100305.29
100382.27
100461.21
100540.94
100616.63
100692.92
100768.53
100846.42
100921.59
100993.26
101071.76
101148.85
101186.84
101229.56
101266.57
101296.37
101325.69
101340.78
101363.59
101370.68
101400.95
101396.83
101422.43
101403.28
101415.37
99938.163
100011.76
100067.33
100127.11
100192.56
100262.03
100333.94
100405.58
100481.04
100558.02
100631.06
100705.15
100779.03
100855.77
100929.56
101000.12
101078.01
101154.73
101192.2
101234.05
101270.01
101299.25
101328.16
101342.8
101365.21
101372.13
101402.66
101398.75
101423.62
101403.89
101415.49
100019.34
100084.01
100129.23
100179.91
100237.51
100299.91
100365.14
100430.76
100502.27
100575.98
100646.11
100717.72
100789.68
100865.15
100937.49
101006.99
101084.12
101160.52
101197.52
101238.46
101273.42
101302.1
101330.62
101344.8
101366.81
101373.6
101404.36
101400.64
101424.65
101404.54
101415.79
100100.86
100158.44
100194.28
100236.33
100286.04
100341.02
100398.95
100457.84
100524.93
100594.81
100661.8
100730.64
100800.48
100874.56
100945.37
101013.87
101090.06
101166.2
101202.78
101242.79
101276.81
101304.92
101333.05
101346.79
101368.38
101375.09
101406.04
101402.51
101425.58
101405.25
101416.34
100183.06
100235.57
100263.24
100297.01
100338.59
100385.59
100435.41
100486.87
100549.12
100614.52
100678.14
100743.93
100811.44
100883.99
100953.18
101020.79
101095.82
101171.78
101207.97
101247.04
101280.16
101307.7
101335.45
101348.77
101369.93
101376.59
101407.76
101404.36
101426.45
101406.04
101416.5
100269.9
100318.13
100337.95
100363.09
100395.77
100433.85
100474.54
100517.97
100574.89
100635.07
100695.15
100757.61
100822.56
100893.41
100960.92
101027.76
101101.48
101177.22
101213.1
101251.21
101283.47
101310.45
101337.84
101350.74
101371.45
101378.1
101409.51
101406.19
101427.32
101406.9
101416.2
100367.69
100410.12
100420.84
100435.85
100458.15
100485.89
100516.31
100551.47
100602.12
100656.41
100712.81
100771.7
100833.85
100902.8
100968.55
101034.79
101107.2
101182.52
101218.15
101255.3
101286.76
101313.17
101340.19
101352.69
101372.95
101379.63
101411.27
101407.99
101428.21
101407.86
101415.69
100481.6
100514.56
100513.47
100515.87
100525.77
100541.33
100560.86
100587.9
100630.16
100678.42
100731.07
100786.19
100845.28
100912.14
100976.03
101041.92
101113
101187.69
101223.11
101259.31
101290.01
101315.86
101342.53
101354.64
101374.42
101381.16
101413.05
101409.76
101429.11
101408.92
101415.05
100611.61
100630.69
100614.86
100602.11
100597.62
100599.59
100608.7
100626.63
100658.4
100701.16
100749.92
100801.11
100856.92
100921.44
100983.34
101049.14
101118.75
101192.69
101227.99
101263.26
101293.24
101318.51
101344.83
101356.57
101375.87
101382.69
101414.81
101411.5
101430
101410.05
101414.32
100751.72
100753.25
100721.09
100692
100671.63
100661.29
100660.05
100666.78
100687.76
100724.77
100769.67
100816.79
100869.05
100930.91
100990.64
101056.5
101124.43
101197.44
101232.74
101267.11
101296.41
101321.11
101347.1
101358.47
101377.27
101384.2
101416.52
101413.21
101430.88
101411.23
101413.54
100894.83
100876.59
100829.32
100784.47
100750.37
100728.46
100715.02
100710.7
100722.14
100751.38
100791.68
100834.37
100882.66
100941.38
100998.66
101064.2
101130.08
101201.69
101237.2
101270.78
101299.49
101323.63
101349.31
101360.35
101378.62
101385.74
101418.13
101414.9
101431.73
101412.37
101412.8
101039.38
101002.5
100945.8
100887.97
100840.54
100805.44
100780.53
100765.53
100769.26
100786.71
100818.97
100855.88
100899.44
100954.23
101008.62
101072.8
101135.9
101205.33
101241.11
101274.21
101302.46
101326.08
101351.47
101362.2
101380.02
101387.38
101419.73
101416.56
101432.6
101413.35
101412.13
101168.72
101125.58
101074.26
101009.25
100947.79
100897.57
100859.9
100835.4
100828.99
100835.19
100852.66
100881.49
100919.36
100969.51
101020.76
101082.68
101142.43
101209.71
101244.87
101277.8
101305.55
101328.61
101353.7
101364.09
101381.68
101389.27
101421.68
101418.21
101433.58
101414.18
101411.6
100174.24
100188.3
100202.82
100214.41
100221.15
100228.78
100239.85
100254.12
100274.73
100304.42
100344.74
100396.5
100459.76
100533.35
100616.46
100704.31
100796.93
100890.92
100973.94
101058.79
101116.83
101177.44
101227.19
101261.7
101296.07
101317.79
101329.51
101333.01
101357.84
101366.84
101401.14
100165.71
100176.99
100192.32
100210.92
100221.39
100229.37
100239.66
100253.77
100274.27
100303.57
100343.26
100394.31
100456.88
100529.87
100612.49
100700.33
100792.64
100889.2
100969.64
101057.45
101114.97
101175.5
101225.44
101260.24
101294.73
101316.67
101328.29
101332.17
101357.29
101366.15
101401
100161.52
100170.64
100184.91
100204.21
100216.24
100225.78
100238.05
100253.59
100274.83
100304.24
100343.57
100393.95
100455.72
100527.94
100609.83
100697.39
100789.24
100886.73
100967.23
101055.85
101113.17
101173.76
101223.85
101258.9
101293.48
101315.57
101327.39
101331.52
101356.76
101365.52
101400.67
100162.27
100171.16
100184.48
100201.81
100214.06
100225.2
100239.1
100255.84
100277.74
100307.26
100346.21
100395.84
100456.66
100527.89
100608.79
100695.75
100786.83
100884.27
100964.84
101053.67
101111.01
101171.83
101222.17
101257.49
101292.18
101314.44
101326.63
101330.99
101356.19
101364.88
101400.24
100163.29
100172.27
100185.01
100201.21
100213.97
100226.2
100241.03
100258.63
100281.1
100310.77
100349.43
100398.39
100458.31
100528.57
100608.44
100694.7
100784.9
100881.95
100962.27
101051.3
101108.75
101169.8
101220.42
101256.02
101290.83
101313.28
101325.91
101330.5
101355.61
101364.22
101399.69
100163.47
100172.41
100184.59
100200.38
100213.99
100227.1
100242.6
100261.01
100284.09
100314
100352.48
100400.9
100460.04
100529.39
100608.28
100693.82
100783.17
100879.75
100959.66
101048.87
101106.53
101167.77
101218.66
101254.53
101289.48
101312.11
101325.19
101330.04
101355.02
101363.55
101398.81
100163.27
100172.04
100183.71
100199.13
100213.57
100227.53
100243.71
100262.96
100286.71
100316.93
100355.32
100403.31
100461.74
100530.26
100608.21
100693.04
100781.55
100877.63
100957.11
101046.37
101104.38
101165.75
101216.91
101253.06
101288.14
101310.94
101324.47
101329.59
101354.42
101362.86
101397.91
100162.89
100171.5
100182.77
100197.73
100212.9
100227.68
100244.54
100264.66
100289.09
100319.68
100358.06
100405.68
100463.48
100531.2
100608.24
100692.36
100780.05
100875.58
100954.64
101043.82
101102.26
101163.75
101215.18
101251.59
101286.8
101309.77
101323.75
101329.16
101353.81
101362.18
101396.97
100162.39
100170.89
100181.81
100196.33
100212.1
100227.7
100245.22
100266.2
100291.31
100322.3
100360.73
100408.06
100465.27
100532.24
100608.39
100691.78
100778.67
100873.61
100952.26
101041.26
101100.16
101161.76
101213.45
101250.13
101285.46
101308.6
101323.03
101328.74
101353.2
101361.5
101395.99
100161.86
100170.25
100180.85
100194.91
100211.24
100227.65
100245.81
100267.62
100293.42
100324.84
100363.37
100410.45
100467.13
100533.39
100608.67
100691.33
100777.41
100871.71
100950.01
101038.69
101098.07
101159.78
101211.74
101248.66
101284.13
101307.43
101322.32
101328.33
101352.59
101360.82
101394.96
100161.37
100169.59
100179.91
100193.55
100210.35
100227.54
100246.37
100268.96
100295.44
100327.3
100365.97
100412.87
100469.07
100534.64
100609.07
100690.99
100776.28
100869.89
100947.95
101036.1
101096.01
101157.81
101210.03
101247.2
101282.8
101306.26
101321.6
101327.93
101351.97
101360.15
101393.9
100160.95
100168.99
100179.06
100192.39
100209.54
100227.41
100246.93
100270.27
100297.41
100329.73
100368.57
100415.33
100471.08
100535.99
100609.61
100690.77
100775.28
100868.14
100945.97
101033.48
101093.97
101155.86
101208.33
101245.74
101281.48
101305.08
101320.89
101327.54
101351.35
101359.48
101392.78
100160.7
100168.57
100178.41
100191.6
100208.91
100227.3
100247.54
100271.58
100299.37
100332.15
100371.18
100417.83
100473.17
100537.46
100610.28
100690.68
100774.42
100866.59
100943.98
101030.8
101091.94
101153.92
101206.64
101244.29
101280.16
101303.91
101320.18
101327.15
101350.72
101358.83
101391.63
100160.7
100168.43
100178.1
100191.21
100208.53
100227.34
100248.26
100272.94
100301.35
100334.59
100373.83
100420.39
100475.36
100539.05
100611.08
100690.72
100773.68
100865.25
100942.27
101028.28
101089.91
101152
101204.96
101242.84
101278.85
101302.74
101319.47
101326.76
101350.08
101358.19
101390.43
100161
100168.63
100178.15
100191.14
100208.41
100227.63
100249.15
100274.41
100303.4
100337.08
100376.53
100423.03
100477.64
100540.75
100612.02
100690.88
100773.08
100863.88
100940.86
101026.21
101087.92
101150.09
101203.29
101241.39
101277.54
101301.58
101318.77
101326.37
101349.45
101357.57
101389.19
100161.62