/*--------------------------------*- C++ -*----------------------------------*\
| =========                 |                                                 |
| \\      /  F ield         | OpenFOAM: The Open Source CFD Toolbox           |
|  \\    /   O peration     | Version:  2406                                  |
|   \\  /    A nd           | Website:  www.openfoam.com                      |
|    \\/     M anipulation  |                                                 |
\*---------------------------------------------------------------------------*/
FoamFile
{
    version     2.0;
    format      ascii;
    arch        "LSB;label=32;scalar=64";
    class       volScalarField;
    location    "0.09";
    object      alphat;
}
// * * * * * * * * * * * * * * * * * * * * * * * * * * * * * * * * * * * * * //

dimensions      [1 -1 -1 0 0 0 0];

internalField   nonuniform List<scalar> 
2065
(
0.0015977942
0.0019026401
0.0022118714
0.0025182055
0.0028269756
0.00085688091
0.0010227115
0.0012222016
0.0014516925
0.0017032648
0.00066119371
0.00078119702
0.00092741914
0.001119909
0.0011018753
0.0013094194
0.0015170499
0.0020056863
0.0022942806
0.0025795139
0.0029679309
0.0033463659
0.0037867641
0.0044279939
0.0048991238
0.0044297101
0.0038376211
0.0030830361
0.0021780002
0.0024440954
0.0012545658
0.0014322327
0.00063244186
0.000744372
0.00085120421
0.00056093884
0.00065597715
0.00077556157
0.00093196627
0.00099012718
0.001162149
0.0013571025
0.0015805275
0.0018248452
0.0037407633
0.0064092992
0.010184942
0.014535292
0.018442519
0.020760195
0.020931151
0.019302759
0.016683187
0.0039837288
0.0066763919
0.010360009
0.014540253
0.018261774
0.020402965
0.020485403
0.018830828
0.016228123
0.0042413285
0.0069358914
0.010541641
0.014572854
0.018100261
0.020038106
0.020023208
0.018343974
0.015766028
0.0045038452
0.0071845128
0.010704395
0.014583525
0.017915392
0.019665752
0.019550335
0.017846974
0.015303494
0.0047736332
0.0074248728
0.010849391
0.014571092
0.017704315
0.019286956
0.019073058
0.0050464398
0.013689687
0.010545223
0.0073411009
0.0042961175
0.0017093141
0.00020629778
0.013320149
0.010255573
0.0071327199
0.0041750882
0.0016644798
0.00020240912
0.012931244
0.009952567
0.0069209435
0.004053829
0.0016179079
0.00019820185
0.012541331
0.0096499464
0.0067124506
0.0039350626
0.001575712
0.00019369411
0.035262511
0.025343761
0.015995077
0.0080337276
0.0024447856
0.00015417974
0.032889427
0.023580245
0.014877181
0.0075174867
0.0023422109
0.00015237382
0.030606973
0.02193219
0.013875478
0.0070837578
0.0022716129
0.00015070299
0.028443992
0.020389385
0.012940663
0.0066608842
0.0021705717
0.00014953247
0.026407459
0.018945742
0.012069227
0.0062707219
0.0020906666
0.00014785516
0.024509013
0.017602982
0.011249632
0.0058789275
0.001973345
0.00014672577
0.022747015
0.016356266
0.010486788
0.0055213398
0.0018890772
0.00014485716
0.0211167
0.015193907
0.0097572271
0.0051513474
0.0017663356
0.00014253438
0.019609607
0.014130879
0.0091057148
0.0048407311
0.0016858681
0.00014026154
0.018262029
0.013165174
0.0084987811
0.0045366088
0.0015905242
0.00013828474
0.017131479
0.012366186
0.0080044475
0.0042951595
0.0015227379
0.00013671416
0.016153844
0.011683857
0.0075845516
0.0040875029
0.001457743
0.00013585537
0.015328034
0.011130792
0.0072606065
0.0039375313
0.0014180306
0.00013587182
0.01460043
0.010627488
0.0069639362
0.0038043632
0.001386531
0.00013659924
0.014050562
0.010259859
0.006749967
0.0037085111
0.0013635564
0.00013833611
0.013644428
0.010000798
0.0066104928
0.0036529552
0.0013533245
0.00014104536
0.013354299
0.0098280933
0.0065253897
0.0036257382
0.001354412
0.00014476173
0.013181029
0.0097464609
0.006507874
0.0036400002
0.0013699008
0.00014956107
0.0130988
0.0097275275
0.0065256314
0.00366992
0.001392463
0.00015543785
0.013116843
0.0098019513
0.0066221178
0.0037526865
0.0014339309
0.0001624832
0.013181539
0.0098962349
0.0067147602
0.0038230235
0.001472957
0.00017063954
0.01336602
0.010121936
0.0069332548
0.0039854255
0.00154788
0.00018009865
0.013468288
0.01023624
0.007030795
0.0040568356
0.0015892826
0.00019059556
0.014008063
0.010808015
0.0075443968
0.0044236169
0.001748695
0.00020331265
0.042361365
0.050619053
0.059307593
0.066949043
0.071399967
0.070838116
0.065135166
0.055910441
0.045462089
0.039434065
0.047507451
0.055997137
0.063376781
0.067599604
0.066963359
0.061447981
0.052563565
0.042564723
0.036811786
0.044599901
0.052793973
0.059866576
0.063844072
0.063136343
0.057788862
0.049255077
0.039730673
0.034412336
0.041869241
0.04971544
0.056449661
0.060163552
0.059385741
0.054201291
0.046035185
0.037006903
0.032190339
0.039280685
0.046756829
0.053131782
0.056576218
0.055739387
0.050721442
0.042938804
0.034414958
0.030121229
0.036838151
0.043906631
0.049917917
0.053102331
0.052218709
0.047383496
0.039996987
0.031978978
0.028199234
0.034581416
0.041213992
0.046810671
0.049744879
0.0488448
0.044213436
0.037229238
0.029705056
0.026357224
0.032388649
0.038677244
0.043914246
0.046570076
0.045617324
0.041206906
0.034638707
0.027596801
0.024664194
0.030330155
0.036247683
0.04119462
0.043658948
0.042670237
0.038432999
0.032227151
0.025634176
0.022993381
0.028357867
0.033947366
0.03860075
0.04092699
0.039982014
0.035968394
0.030102374
0.023897279
0.021575268
0.026595323
0.03183532
0.036200661
0.038370692
0.037485059
0.033734755
0.028233877
0.022410586
0.020274047
0.024986403
0.029901287
0.034001839
0.036042037
0.035210636
0.031695176
0.026552109
0.021101516
0.018975887
0.023412351
0.02806679
0.031983569
0.03394811
0.033189059
0.02990614
0.025083754
0.019966404
0.017688048
0.021893645
0.026332391
0.030108575
0.032052993
0.031412151
0.028362762
0.023823364
0.018987653
0.016472929
0.020468667
0.02472185
0.028392794
0.030357181
0.029856995
0.027055507
0.022799071
0.01822036
0.015303426
0.019117259
0.023222481
0.026825715
0.0288513
0.028513729
0.02596135
0.02197645
0.017628341
0.014159756
0.017813308
0.021802109
0.025371377
0.027506312
0.027352884
0.025045548
0.021328115
0.017183944
0.012996689
0.016514552
0.02042043
0.023994211
0.026274079
0.026339648
0.024278202
0.020832435
0.016873785
0.011805651
0.01520563
0.019054602
0.0226721
0.025115202
0.025444049
0.023632372
0.020466837
0.016687959
0.010503147
0.013801629
0.017625157
0.021335032
0.023978996
0.024621423
0.02306465
0.02018249
0.016597464
0.0091358078
0.012384836
0.016214248
0.020029023
0.022872979
0.02386382
0.0225966
0.019981952
0.016576709
0.0075204989
0.010617784
0.014473552
0.018491641
0.02165796
0.023066386
0.022188308
0.019845067
0.01665452
0.0061779014
0.009300222
0.01315103
0.017267179
0.020636686
0.02225552
0.021803398
0.019700253
0.016683366
0.0036539648
0.00641837
0.010333547
0.01482288
0.018833283
0.021239691
0.021421984
0.019751879
0.017078312
0.00041136375
0.0035588757
0.0092986487
0.016586052
0.024851083
0.033823021
0.00038908154
0.0033026746
0.0086016918
0.01534858
0.023060157
0.03144726
0.00036889697
0.0030729635
0.0079898482
0.014252274
0.021434954
0.02926272
0.00035064602
0.0028475967
0.0074314552
0.013265062
0.019967119
0.027286269
0.00033443981
0.0026435361
0.0069311045
0.012379088
0.018637194
0.02548038
0.00031965564
0.0024304966
0.0064343522
0.011530499
0.017383286
0.023782992
0.00030679185
0.0022755691
0.0060359089
0.010801679
0.016265033
0.022237554
0.0002948188
0.0020694936
0.005563108
0.010023036
0.015145007
0.020740597
0.00028481015
0.0019717791
0.0052831832
0.0094534785
0.014217769
0.019416769
0.00027517936
0.0017671241
0.0047937177
0.0086740708
0.013149727
0.018040068
0.00026718832
0.0016706642
0.0045562254
0.0082286407
0.012419211
0.016965439
0.00026155707
0.0016538407
0.0043948038
0.0078264694
0.011731055
0.015964021
0.00025592469
0.0015394051
0.0041488602
0.007367764
0.011009944
0.014949351
0.00025078889
0.0013476109
0.0037604554
0.006786982
0.010209156
0.013900835
0.00024540993
0.0012249972
0.003460514
0.0062681862
0.0094604397
0.01291071
0.00024035171
0.0011086824
0.0031661686
0.005758287
0.0087259388
0.011946799
0.0002359535
0.00098917918
0.0028703365
0.0052568527
0.0080013227
0.010996215
0.00022920473
0.00086627878
0.0025538022
0.0047149113
0.0072351063
0.010010556
0.00021889509
0.00072332236
0.0022038816
0.0041480612
0.0064399118
0.0089886539
0.000204666
0.00057560616
0.0017922861
0.0034711164
0.0055200813
0.0078409128
0.00018713503
0.00040423349
0.0012899971
0.0027400545
0.0045184943
0.0065922654
0.00014782137
0.00026763712
0.0007419738
0.0018336034
0.0033911544
0.0052042228
7.2743933e-05
0.00013907834
0.00035739858
0.00099967905
0.0021141786
0.0036715289
2.1213881e-05
6.9956399e-05
0.00016456181
0.00044797819
0.0011681466
0.0021694003
2.1165387e-05
9.102687e-05
0.00012335871
0.00019866352
0.00048600847
0.0011915155
2.4832272e-05
0.0002141029
0.00032763121
0.00029737549
0.00030888125
0.00066152229
2.489074e-05
0.00023846144
0.00054026784
0.00064722009
0.00061137873
0.0005822711
2.8030374e-05
0.00028113553
0.00071407192
0.0010447014
0.0011381862
0.00093813327
3.2902172e-05
0.00031247705
0.00084556125
0.0013667017
0.0017049417
0.0017961183
3.8854302e-05
0.0004051901
0.0010449617
0.0017058476
0.0022588056
0.0026257885
4.5027201e-05
0.00049927944
0.0012695589
0.0020737727
0.0027806371
0.0033267575
5.1348519e-05
0.0005870262
0.0014974058
0.0024411318
0.0032666387
0.0039147526
5.6306191e-05
0.00066550026
0.0017048338
0.0027695825
0.0036816012
0.0043815707
6.0129479e-05
0.00072950499
0.0018708043
0.003028246
0.0039986445
0.0047240594
6.241305e-05
0.00077385664
0.0019864956
0.0032027973
0.004204038
0.0049340658
6.5328445e-05
0.00080049986
0.002046366
0.0032764328
0.0042806067
0.0050044579
6.2565567e-05
0.00078578913
0.0020097345
0.0032319329
0.0042279775
0.0049428797
6.0281529e-05
0.00074799783
0.0019165874
0.0030892764
0.0040525311
0.0047492378
5.7354496e-05
0.00069329796
0.0017698498
0.0028553821
0.0037588773
0.0044239048
5.2660737e-05
0.0006173657
0.0015713814
0.0025408914
0.0033612082
0.003977053
4.6184537e-05
0.00052426714
0.0013326313
0.0021627365
0.0028747143
0.003412608
3.9534814e-05
0.00043207588
0.0010958443
0.0017726108
0.0023424985
0.0027418018
3.3237793e-05
0.00032554081
0.0008584622
0.0013884803
0.0017785084
0.0019588918
2.7278076e-05
0.00024531801
0.00067853792
0.0010449397
0.0011952834
0.0011124331
2.1878686e-05
0.00018950994
0.0004703734
0.00063801039
0.00065125641
0.00054809079
1.7319588e-05
0.00013221432
0.00030880784
0.00030295975
0.0002879418
0.00047687602
1.3237802e-05
7.6941134e-05
0.0001336577
0.0001600746
0.00030475924
0.00080573234
1.4828452e-05
7.2805815e-05
0.00013376525
0.00030573855
0.00044408352
0.0038811785
0.010351232
0.018685431
0.0004460087
0.003979189
0.010649797
0.019249531
0.029151855
0.040051912
0.00044723112
0.0040639318
0.0109125
0.019752961
0.029940981
0.041182537
0.00044816039
0.0041470765
0.011162774
0.02021921
0.030656644
0.042186521
0.00044886781
0.0042278191
0.011399969
0.020646711
0.03129417
0.043054433
0.00044907837
0.0043075063
0.011616479
0.021022004
0.031837225
0.043773291
0.00044571956
0.0043584707
0.011771295
0.021306361
0.032258029
0.044337949
0.00044318629
0.0044060148
0.011899059
0.02153076
0.032582925
0.044765787
0.00043971506
0.0044482533
0.012006144
0.021702509
0.03282173
0.045063997
0.00043550785
0.0044779471
0.0120746
0.021811757
0.032963525
0.045222484
0.00043272387
0.004499066
0.012123625
0.021869367
0.033007173
0.045232936
0.00043632477
0.0045159649
0.012157659
0.021863559
0.032933044
0.045076372
0.00042541219
0.0044985742
0.012057022
0.021697707
0.032693346
0.044735897
0.00042663778
0.0044522683
0.011933675
0.021471407
0.032344258
0.044240463
0.00042892194
0.0044023603
0.01179368
0.021211027
0.031930616
0.043637951
0.00043105987
0.0043448377
0.011628455
0.02090126
0.03144338
0.042935206
0.000432233
0.0042799603
0.011439881
0.020545373
0.030886217
0.042143472
0.00043260424
0.0042130241
0.011246346
0.020174461
0.030294222
0.041286016
0.00043429053
0.004145771
0.011033087
0.019769609
0.029658272
0.040374219
0.00043280495
0.0040581213
0.010786408
0.019323044
0.02897443
0.039406984
0.00043100193
0.0039729746
0.010542364
0.018869788
0.028266872
0.038398501
0.00042965652
0.0039015913
0.010311741
0.018421225
0.027548229
0.037360537
0.00042776132
0.0038011658
0.010046975
0.01795194
0.026838442
0.036348809
0.00042735912
0.0038033063
0.010002221
0.017768379
0.026425915
0.035675252
7.4150965e-05
0.00013310351
0.00016058779
0.00043891069
0.00044173874
0.0037840875
0.043754159
0.045009603
0.04660173
0.048182222
0.049695897
0.051133258
0.052483856
0.053761076
0.054924029
0.055952343
0.056825395
0.05751699
0.05798509
0.058215346
0.058205198
0.057965842
0.057512222
0.056856499
0.056005309
0.054935305
0.053643446
0.052129471
0.050420957
0.051651516
0.053958737
0.056330223
0.05857974
0.060702713
0.062705204
0.064594614
0.066358137
0.067957394
0.069362575
0.070542654
0.071457095
0.072074507
0.07238398
0.072375454
0.072053189
0.071427715
0.070511984
0.069324166
0.06784952
0.066064856
0.063954942
0.061509017
0.060850127
0.064041436
0.067129001
0.070030003
0.072769594
0.075366119
0.077832179
0.080113013
0.082179711
0.083993872
0.085514446
0.086692811
0.087505101
0.08793847
0.087979814
0.08762674
0.086887263
0.085772374
0.084287433
0.082446347
0.080221385
0.077579162
0.074477887
0.071149989
0.075086219
0.078846299
0.082398759
0.085779432
0.089015521
0.092077247
0.094916346
0.097491575
0.09975711
0.10166399
0.10316011
0.10422387
0.10483998
0.10499246
0.10467231
0.10388341
0.10263483
0.10093262
0.09877405
0.096169664
0.093068157
0.089417041
0.082291563
0.086882153
0.09129488
0.095514952
0.099578012
0.10348257
0.10717733
0.11061769
0.11375052
0.11652294
0.11887811
0.12076158
0.12214963
0.12302583
0.12337
0.12316701
0.12241557
0.12111961
0.11928441
0.11691218
0.11400121
0.11052276
0.10642217
0.093932572
0.09913763
0.10420881
0.10912994
0.11391179
0.11851926
0.12290408
0.12700848
0.13076767
0.13412043
0.137008
0.13937049
0.14117381
0.14240692
0.14304357
0.14306251
0.14245727
0.14122681
0.1393733
0.13689815
0.13379243
0.13004149
0.12560334
0.10564548
0.11146758
0.11722864
0.1228984
0.12844843
0.13383253
0.13898694
0.14383911
0.14831504
0.15234557
0.15586874
0.15882369
0.16115738
0.16286598
0.16391768
0.16428461
0.16395468
0.16292142
0.16118271
0.15873809
0.1555809
0.15169296
0.14705412
0.11690073
0.12338891
0.12991357
0.13640929
0.14282157
0.1490818
0.15510922
0.16081887
0.16612746
0.17095842
0.17524342
0.17892355
0.18193291
0.18425686
0.1858681
0.18673118
0.18682821
0.1861469
0.18467967
0.18242219
0.1793689
0.17550608
0.17081563
0.12713193
0.13440166
0.14180254
0.14924347
0.15663866
0.16389954
0.17093031
0.17763341
0.18391708
0.18969653
0.19489664
0.19945276
0.20330362
0.20640423
0.20873943
0.21026585
0.21096057
0.21080613
0.20978951
0.20790045
0.20512914
0.20146799
0.19692583
0.13586239
0.14407174
0.15248545
0.16100784
0.16952967
0.17794016
0.18612835
0.19398568
0.20140909
0.20830513
0.21459124
0.22019607
0.22505921
0.22911315
0.23235018
0.2347195
0.23619453
0.23675425
0.236382
0.2350635
0.23278469
0.22953825
0.22534632
0.14280799
0.15209448
0.16168017
0.17144545
0.18125447
0.19097953
0.20049321
0.20967296
0.21840518
0.22658761
0.23413017
0.24095481
0.24699495
0.25219219
0.25650615
0.25989849
0.26233844
0.26380186
0.26426965
0.26372555
0.26215407
0.25954726
0.25592772
0.14798718
0.15853661
0.16946234
0.1806281
0.19187795
0.20306236
0.21403964
0.22467715
0.23485334
0.24445911
0.25339835
0.26158773
0.26895618
0.27544399
0.28099269
0.28557884
0.28916077
0.29171256
0.29321351
0.29364603
0.29299375
0.29124881
0.28843628
0.15214758
0.16410583
0.17647425
0.18911945
0.20187038
0.21456564
0.22705592
0.23920281
0.25087951
0.26197196
0.27237941
0.28201428
0.2908016
0.29867817
0.30559114
0.31149826
0.31636484
0.32016298
0.32287042
0.32446835
0.32493964
0.32427608
0.15664681
0.16998067
0.1837482
0.19780667
0.21198379
0.22611562
0.2400493
0.25364289
0.26676642
0.27930303
0.29114949
0.30221607
0.31242589
0.32171405
0.33002648
0.33731873
0.34355468
0.34870531
0.35274729
0.35566089
0.35742824
0.35804084
0.16267698
0.17723666
0.19224115
0.20753961
0.22296277
0.23834785
0.25354203
0.26840367
0.28280356
0.29662585
0.30976833
0.32214222
0.33367138
0.3442914
0.35394843
0.36259792
0.37020343
0.37673535
0.38216962
0.38648563
0.38966468
0.39169775
0.17076429
0.18635005
0.20237513
0.21868082
0.23510365
0.2514862
0.26768065
0.28355058
0.29897215
0.31383479
0.32804122
0.34150704
0.35415999
0.36593891
0.37679263
0.38667871
0.39556223
0.40341465
0.4102125
0.41593531
0.42056425
0.42409033
0.18044857
0.19683726
0.21364005
0.23069224
0.24783935
0.26493338
0.28183576
0.2984194
0.31456975
0.33018515
0.34517669
0.35946761
0.37299252
0.38569631
0.39753304
0.4084647
0.41846007
0.42749362
0.43554418
0.44259305
0.44862273
0.45362554
0.19005592
0.20696972
0.22425856
0.24175764
0.25932349
0.27681999
0.29412049
0.31110984
0.32768522
0.34375625
0.35924462
0.37408333
0.38821588
0.4015951
0.41418207
0.42594489
0.4368576
0.44689909
0.45605188
0.46430031
0.4716295
0.47803407
0.19588103
0.21297621
0.2304035
0.24800579
0.26565261
0.28322178
0.30060049
0.31768707
0.33439169
0.35063619
0.36635362
0.3814875
0.39599085
0.40982512
0.42295897
0.43536713
0.4470293
0.45792912
0.46805304
0.47738863
0.48592389
0.4936555
0.19147014
0.20820387
0.22526493
0.24250169
0.25979792
0.27704573
0.29414524
0.31100632
0.32754943
0.34370576
0.35941715
0.37463613
0.38932461
0.40345232
0.41699535
0.42993478
0.44225554
0.45394542
0.46499398
0.47539116
0.48512684
0.4941981
0.16361971
0.17936517
0.19551504
0.21193212
0.22851791
0.24516585
0.26177533
0.27825271
0.29451155
0.31047191
0.32605986
0.34125203
0.35603086
0.37038163
0.38429182
0.39775069
0.41074881
0.42327755
0.4353285
0.44689254
0.45795983
0.46852558
0.10643617
0.11920375
0.13251013
0.14618668
0.16013076
0.17428072
0.188588
0.20301468
0.21752971
0.23210075
0.24668858
0.26124693
0.27572873
0.29009221
0.30430064
0.31832177
0.33212817
0.34569658
0.35900737
0.37204399
0.38478841
0.39721421
0.051258565
0.059009001
0.067297759
0.075954236
0.084965682
0.094304321
0.10393561
0.11384127
0.12403711
0.13459146
0.14556664
0.1568572
0.16837783
0.18007334
0.19190274
0.20382186
0.21579868
0.22780447
0.23981327
0.25180128
0.26375217
0.27566895
0.022833304
0.026830139
0.031114814
0.035792337
0.040821179
0.046158835
0.051747502
0.057527949
0.063430212
0.069368976
0.075422829
0.081627849
0.087975366
0.094442458
0.10101092
0.10768474
0.11448449
0.12142358
0.12850765
0.13574727
0.14316282
0.15078976
0.017302243
0.019770576
0.022369991
0.02507028
0.027831425
0.030609896
0.033390109
0.036154602
0.038897613
0.041613151
0.044296712
0.046945985
0.049583229
0.052228749
0.05490203
0.057623944
0.060417461
0.063307592
0.066309787
0.069439067
0.072707842
0.076135626
0.01734312
0.019563277
0.021824725
0.024104062
0.026379627
0.028631199
0.030840157
0.032990065
0.035069186
0.037069801
0.038986282
0.040816614
0.042560343
0.044216694
0.045785442
0.047267479
0.048665306
0.049987039
0.051251271
0.052456642
0.053597889
0.054675824
0.019054917
0.02146546
0.02387929
0.026261663
0.028581376
0.030811866
0.032929235
0.034914347
0.036753646
0.038439173
0.039968517
0.041344597
0.042574893
0.04367047
0.044644891
0.04551313
0.046290581
0.046992112
0.047631206
0.048218413
0.048752532
0.049236657
0.021175564
0.023747528
0.026267938
0.028702558
0.031022919
0.033206649
0.035237672
0.037105857
0.03880616
0.040338006
0.0417046
0.042912318
0.043970106
0.044888948
0.045680187
0.046353763
0.0469211
0.047394355
0.04778579
0.04810808
0.048373611
0.04859306
0.025287642
0.028103648
0.030763508
0.033234321
0.03549406
0.037531116
0.039342993
0.040934904
0.042318133
0.043504858
0.044508403
0.045345739
0.046035427
0.04659609
0.047046562
0.047406364
0.047692191
0.047918243
0.048096679
0.048237154
0.048347433
0.048433768
0.031122672
0.034059724
0.036646294
0.038874996
0.040759069
0.042325166
0.043607224
0.044641878
0.045465284
0.046114385
0.046623958
0.047022556
0.047333339
0.047574914
0.047762114
0.047906711
0.048018042
0.048103585
0.048169537
0.048220085
0.048258464
0.048287219
0.042091715
0.04355236
0.044660357
0.045503155
0.046145879
0.046636956
0.047012555
0.047299874
0.047519549
0.047687438
0.04781579
0.047914022
0.047989358
0.048047319
0.048092104
0.048126869
0.04815392
0.04817482
0.048190398
0.048202028
0.048210499
0.04821638
0.047085838
0.057873535
0.067547683
0.073822582
0.074887928
0.070894122
0.063593667
0.055196235
0.047634529
0.046538695
0.057826591
0.068278742
0.075714764
0.078202942
0.075711868
0.069772525
0.062419573
0.055166595
0.045823687
0.057563626
0.068823628
0.077498829
0.081551196
0.080718452
0.076282263
0.070108212
0.063617357
0.044746339
0.05691872
0.069023694
0.079022533
0.084788001
0.085801087
0.083075443
0.078307296
0.072955178
0.043121776
0.055694351
0.068700221
0.0800853
0.087723493
0.090794389
0.090027071
0.086930489
0.082999012
0.040802384
0.053704568
0.067615538
0.080448332
0.090105371
0.095448751
0.096896464
0.095739138
0.09343498
0.037703124
0.050797551
0.065536646
0.079844577
0.091624204
0.099428911
0.10332779
0.10435149
0.10385357
0.033920871
0.046953769
0.062315195
0.07804618
0.0919495
0.10234305
0.10888349
0.11229629
0.11374504
0.029808155
0.042426344
0.058037236
0.074952323
0.090835422
0.10381835
0.11309862
0.11903638
0.12254714
0.026011926
0.037841288
0.05319054
0.070777544
0.088331588
0.10368293
0.115628
0.12409584
0.12973567
0.023154059
0.034031183
0.048683345
0.066307187
0.08492019
0.10217848
0.1164756
0.12732836
0.13508621
0.021372903
0.031453178
0.045306792
0.062532627
0.081538114
0.10006685
0.11621798
0.12908911
0.13871899
0.020710924
0.030381858
0.043708215
0.06050137
0.079495138
0.098646754
0.11598846
0.13034356
0.141455
0.02103034
0.030726707
0.043990828
0.060684455
0.079709489
0.099210736
0.11727143
0.13259687
0.14474176
0.021749364
0.031846501
0.045556917
0.062691766
0.082155919
0.10216165
0.12084775
0.13689817
0.14978347
0.022781758
0.033559795
0.048099826
0.066127642
0.086463981
0.107287
0.12674021
0.14350869
0.157039
0.023878347
0.035521243
0.051140618
0.070364166
0.091894195
0.11381476
0.13422552
0.15180426
0.16599696
0.02420316
0.036747558
0.05352296
0.074066542
0.096945062
0.12011999
0.14161992
0.16009579
0.17499508
0.021088892
0.034223058
0.05190484
0.073672677
0.097934587
0.12247182
0.14518308
0.16466033
0.180343
0.012213216
0.023865402
0.041323024
0.063749709
0.089168948
0.11495671
0.13881601
0.15926852
0.17572735
0.004405719
0.010094954
0.021118348
0.038581768
0.061179862
0.086120985
0.11010123
0.13104416
0.14805284
0.0015251648
0.0035228724
0.0079974581
0.015988227
0.028269492
0.044124711
0.061898477
0.078808945
0.093290151
0.001097653
0.0018908984
0.0034175752
0.0063246507
0.011362644
0.018565644
0.026982866
0.035630024
0.043551983
0.0011462191
0.0018541194
0.0029400582
0.0045394358
0.0067561846
0.0095741483
0.012796045
0.016156268
0.019323496
0.0012206177
0.0019736776
0.0031143345
0.0046832819
0.0066476071
0.0088730327
0.011171281
0.013333114
0.015214219
0.0013628887
0.0021896717
0.0034208773
0.0051027019
0.0071715322
0.0094525141
0.011709583
0.013744189
0.015445711
0.0015588817
0.0024911668
0.0038769939
0.0057554976
0.0080434772
0.010538165
0.012986733
0.015178032
0.016995061
0.0018197139
0.0029062234
0.0045070166
0.0066523713
0.0092319372
0.012002403
0.014677701
0.0170339
0.018961118
0.0024370408
0.0038420482
0.0058715927
0.0085335962
0.011660006
0.014936979
0.018025638
0.020684453
0.022815144
0.0035101759
0.0054454399
0.0081684651
0.011626362
0.015540731
0.019490623
0.023085659
0.026087056
0.028416633
0.0088633413
0.013044836
0.018240318
0.023878069
0.029182845
0.033555032
0.036788519
0.039010374
0.040494697
0.036568379
0.035781017
0.034936199
0.033763653
0.032102386
0.029847939
0.026966336
0.023634406
0.02024609
0.017377106
0.015393972
0.014220865
0.013805818
0.014031932
0.014419154
0.014923047
0.015361759
0.015043501
0.011732196
0.0053719947
0.0017159505
0.00070681863
0.00064558325
0.00068065641
0.00073092626
0.0008147082
0.00093946105
0.0010920405
0.0014750022
0.0021514147
0.0056274624
0.026343197
0.025486707
0.024701972
0.023631824
0.02215792
0.020220767
0.017823645
0.015191525
0.01270047
0.010778905
0.0095467401
0.0088270712
0.0085568665
0.0086587323
0.0087783515
0.0088749783
0.0088163391
0.0080596793
0.0050839748
0.0017776412
0.00052939859
0.00033057012
0.00034290777
0.00036052145
0.0003872034
0.00042893328
0.00049791441
0.00057231683
0.00077141599
0.001130099
0.0029757963
0.016697783
0.015897359
0.015307915
0.014474982
0.013353848
0.011920332
0.010207242
0.0084396093
0.0069159093
0.0058587534
0.0052126339
0.0048140362
0.0046328011
0.0046200731
0.0045596282
0.0043993302
0.0040439566
0.0030976375
0.0013198237
0.00037720946
0.00014611636
0.00013892297
0.00014942289
0.00015593829
0.00016748936
0.00018470079
0.00021573796
0.00024668488
0.00032809173
0.00047984692
0.0012293295
0.0084310296
0.0078384448
0.007502257
0.0069687437
0.0062981089
0.005457755
0.0045187047
0.0036244449
0.0029546958
0.0025304469
0.0022603364
0.0020659968
0.0019493031
0.0018654019
0.0017263051
0.001486465
0.0010742023
0.0004853913
0.00013319403
4.2042783e-05
3.4831869e-05
3.9182317e-05
4.1773857e-05
4.5148121e-05
4.8140379e-05
5.4222321e-05
6.3253017e-05
7.4711877e-05
9.7619491e-05
0.00014112063
0.00033547036
0.002562823
0.002301012
0.002186542
0.0019340654
0.0017050599
0.001398191
0.0011299675
0.00089372473
0.00074976166
0.00064666456
0.00057148919
0.00050148483
0.00045023734
0.00037800524
0.00026056574
0.00015179246
7.5021029e-05
1.9354637e-05
4.2748901e-06
2.9307596e-06
3.1097425e-06
3.4729067e-06
3.8484512e-06
4.3367702e-06
4.8540251e-06
5.7191481e-06
7.1226412e-06
9.1655665e-06
1.3089566e-05
2.0703478e-05
4.4258107e-05
0.00014886539
0.00013626229
0.00012401859
0.0001089105
9.4046715e-05
7.9008814e-05
6.6820592e-05
5.7665116e-05
5.1354335e-05
4.6113481e-05
4.1254563e-05
3.6178807e-05
3.0608376e-05
2.3775626e-05
1.5909922e-05
9.2714505e-06
4.8406114e-06
2.4572738e-06
1.5726239e-06
1.0038018e-06
6.5617338e-07
5.2202326e-07
4.6155629e-07
4.2418286e-07
3.810763e-07
3.2863962e-07
2.8115813e-07
2.6393238e-07
2.9601542e-07
5.3800013e-07
1.4494906e-06
)
;

boundaryField
{
    Side1
    {
        type            empty;
    }
    Inlet
    {
        type            calculated;
        value           uniform 0.047769987;
    }
    Side2
    {
        type            empty;
    }
    Outlet
    {
        type            zeroGradient;
    }
    Botwall
    {
        type            compressible::alphatWallFunction;
        value           nonuniform List<scalar> 
59
(
2.3946638e-05
2.3308166e-05
2.2615632e-05
2.1873742e-05
1.5305828e-05
1.5006717e-05
1.473454e-05
1.4537239e-05
1.4269155e-05
1.4075787e-05
1.3775839e-05
1.3383908e-05
1.3010628e-05
1.2678006e-05
1.2419738e-05
1.2274088e-05
1.2279621e-05
1.2401607e-05
1.2692711e-05
1.3146645e-05
1.376834e-05
1.4569881e-05
1.5549524e-05
1.6721422e-05
1.8074401e-05
1.9639077e-05
2.1369759e-05
2.3458546e-05
1.4413573e-05
1.2296184e-05
1.0226297e-05
7.652885e-06
5.0926643e-06
2.4612812e-06
2.8195409e-07
0
0
0
0
0
0
0
0
0
0
0
0
0
0
0
0
0
0
0
0
0
0
0
0
)
;
    }
    Cyli
    {
        type            compressible::alphatWallFunction;
        value           nonuniform List<scalar> 
76
(
5.6546009e-05
5.3094815e-05
4.9952184e-05
4.7096492e-05
4.4549511e-05
4.2215459e-05
4.0177298e-05
3.8272463e-05
3.6672525e-05
3.5132465e-05
3.3845086e-05
3.2921388e-05
3.2022076e-05
3.1192418e-05
3.0313524e-05
2.9485856e-05
2.8764714e-05
2.7653843e-05
2.5978895e-05
2.3622557e-05
2.0738244e-05
1.4199553e-05
1.3328835e-06
0
0
0
0
0
0
0
0
0
0
0
0
9.7824273e-09
0
0
0
0
0
0
0
0
0
0
0
0
6.1590661e-05
6.1882182e-05
6.2065873e-05
6.2205242e-05
6.231192e-05
6.2341663e-05
6.1817665e-05
6.1427197e-05
6.0893379e-05
6.02444e-05
5.9814295e-05
6.036757e-05
5.8687311e-05
5.8876549e-05
5.9229465e-05
5.9560141e-05
5.9742525e-05
5.9801791e-05
6.0063823e-05
5.9837634e-05
5.9563034e-05
5.9358875e-05
5.9070222e-05
5.9011408e-05
1.5946118e-06
1.6343092e-05
6.0803982e-05
6.1234613e-05
)
;
    }
    procBoundary0to1
    {
        type            processor;
        value           nonuniform List<scalar> 
44
(
0.0031355155
0.0031355155
0.0019719828
0.0013525419
0.0013525419
0.0017693739
0.0017693739
0.0028524219
0.0036719388
0.0036719388
0.0042186248
0.0042186248
0.0048636545
0.0053144712
0.0052332218
0.0052332218
0.0054271672
0.0054845318
0.005414534
0.0052141942
0.0048847525
0.0048847525
0.0047971378
0.0042073796
0.0034224173
0.0034224173
0.0026885871
0.017345957
0.014843183
0.0076511098
0.010972665
0.014533726
0.017470779
0.018899958
0.017345957
0.018586989
0.0076511098
0.0053231201
0.012154603
0.0093514916
0.0065103286
0.0038223104
0.0015316879
0.00018896645
)
;
    }
    procBoundary0to2
    {
        type            processor;
        value           nonuniform List<scalar> 
55
(
0.0019290053
0.0022747739
0.0026133367
0.0029487576
0.0032833633
0.00071285335
0.0014571324
0.00029584269
0.00071285335
0.00070234813
0.010061244
0.028297586
0.018157622
0.028297586
0.038972256
0.00029584269
0.00026189349
0.00026189349
0.00021532446
0.00043540704
0.0036839321
0.0036839321
0.010061244
0.048745804
0.05884703
0.070962145
0.085210026
0.10168788
0.12047694
0.14167202
0.16533504
0.19152069
0.22022763
0.25131447
0.28457839
0.32249863
0.32249863
0.3575192
0.39260714
0.42654053
0.45763624
0.48355854
0.50063691
0.50266478
0.47865968
0.40938824
0.287632
0.15872992
0.079738303
0.055724804
0.049678699
0.048775346
0.0484996
0.048307155
0.048220568
)
;
    }
    procBoundary0to3
    {
        type            processor;
        value           nonuniform List<scalar> 7(0.001616063 0.001616063 0.00097477746 0.00097477746 0.0011207319 0.0011207319 0.0021014598);
    }
}


// ************************************************************************* //
