/*--------------------------------*- C++ -*----------------------------------*\
| =========                 |                                                 |
| \\      /  F ield         | OpenFOAM: The Open Source CFD Toolbox           |
|  \\    /   O peration     | Version:  2406                                  |
|   \\  /    A nd           | Website:  www.openfoam.com                      |
|    \\/     M anipulation  |                                                 |
\*---------------------------------------------------------------------------*/
FoamFile
{
    version     2.0;
    format      ascii;
    arch        "LSB;label=32;scalar=64";
    class       volScalarField;
    location    "0.09";
    object      T;
}
// * * * * * * * * * * * * * * * * * * * * * * * * * * * * * * * * * * * * * //

dimensions      [0 0 0 1 0 0 0];

internalField   nonuniform List<scalar> 
2065
(
293.27263
293.21969
293.17117
293.13081
293.09521
293.50434
293.45187
293.39155
293.33278
293.28025
293.54929
293.52311
293.48771
293.44558
293.52546
293.5113
293.49286
293.51235
293.50363
293.49211
293.5089
293.50231
293.50909
293.51225
293.51783
293.57495
293.58323
293.59401
293.6111
293.6133
293.64796
293.64931
293.74646
293.74281
293.73615
293.8863
293.87397
293.85545
293.83059
293.89176
293.86279
293.82421
293.7884
293.7559
293.00893
292.81594
292.64146
292.48758
292.35968
292.25995
292.18616
292.13307
292.09505
292.98473
292.79286
292.62753
292.48508
292.36795
292.27672
292.20881
292.15964
292.12423
292.96073
292.77717
292.62118
292.48902
292.38084
292.29658
292.23379
292.18824
292.15535
292.93963
292.76654
292.61795
292.49424
292.39414
292.31647
292.25863
292.21664
292.18626
292.91892
292.75641
292.61547
292.49969
292.40727
292.33603
292.28307
292.89869
292.06402
292.03419
292.00469
291.97251
291.93018
291.85134
292.09522
292.06718
292.03941
292.00899
291.96838
291.8933
292.12821
292.10177
292.07535
292.04611
292.00674
291.93534
292.16102
292.13629
292.11138
292.08351
292.04573
291.97786
292.60729
292.6163
292.6297
292.65204
292.69888
292.8391
292.47997
292.48658
292.49659
292.51345
292.54784
292.64245
292.34571
292.34997
292.35732
292.37105
292.40113
292.48784
292.2052
292.20616
292.209
292.21575
292.23229
292.28516
292.06149
292.05901
292.0578
292.06005
292.0724
292.12501
291.92017
291.91489
291.91008
291.90649
291.90642
291.92615
291.78258
291.77363
291.76411
291.75407
291.74418
291.75026
291.65246
291.63911
291.62444
291.60863
291.59341
291.59922
291.53692
291.51961
291.50052
291.47981
291.45944
291.4601
291.44264
291.4223
291.40021
291.37648
291.35259
291.34318
291.37368
291.35005
291.32449
291.29674
291.2672
291.24576
291.33466
291.30827
291.28042
291.25087
291.21922
291.18661
291.32517
291.29496
291.26224
291.22614
291.18498
291.13249
291.34051
291.3118
291.28052
291.24533
291.20335
291.14058
291.37261
291.3446
291.31471
291.28119
291.23787
291.16605
291.42096
291.39104
291.3596
291.32456
291.28057
291.20726
291.48635
291.45507
291.42244
291.38608
291.34034
291.2629
291.56205
291.5297
291.49638
291.45964
291.41322
291.33227
291.64356
291.61039
291.57641
291.53897
291.49133
291.40857
291.72664
291.69322
291.65941
291.62255
291.57558
291.49081
291.80764
291.77406
291.74005
291.70263
291.65453
291.57045
291.88519
291.85223
291.81938
291.78377
291.73785
291.65277
291.9554
291.92256
291.88964
291.8535
291.80676
291.72451
292.02671
291.99516
291.96386
291.92978
291.88531
291.80214
292.4367
292.45423
292.47381
292.49612
292.51852
292.5396
292.5592
292.57761
292.59503
292.29633
292.32214
292.34978
292.37649
292.40057
292.42145
292.43943
292.45543
292.47007
292.1597
292.19172
292.22415
292.25366
292.27842
292.29819
292.31392
292.32702
292.33851
292.02272
292.05971
292.0957
292.12726
292.15232
292.17071
292.18386
292.19359
292.20133
291.88868
291.9296
291.96825
292.00092
292.02548
292.04191
292.05194
292.05778
292.06133
291.76223
291.80565
291.84563
291.87825
291.90136
291.91517
291.9217
291.92359
291.92322
291.64837
291.69229
291.73178
291.76298
291.78368
291.79417
291.79668
291.79421
291.78945
291.55088
291.59345
291.6309
291.65934
291.67661
291.68305
291.68098
291.67358
291.66384
291.47764
291.51492
291.54803
291.57238
291.58524
291.58689
291.57974
291.56723
291.55258
291.41403
291.45248
291.48563
291.50694
291.51501
291.5113
291.49873
291.48113
291.46195
291.43369
291.45979
291.47379
291.47923
291.47595
291.46354
291.44398
291.42069
291.39679
291.4544
291.47162
291.48297
291.48338
291.47048
291.44712
291.4192
291.38979
291.36126
291.50156
291.50522
291.5028
291.49189
291.47428
291.45093
291.42088
291.38752
291.35526
291.58577
291.57242
291.55296
291.52783
291.49827
291.46552
291.43207
291.39965
291.36904
291.71267
291.67831
291.63847
291.59572
291.55167
291.50871
291.46888
291.43295
291.40112
291.86585
291.80892
291.74802
291.68685
291.62875
291.57552
291.52812
291.48689
291.45177
292.03459
291.95442
291.87151
291.79145
291.71886
291.65557
291.60157
291.55627
291.51878
292.2106
292.10725
292.00249
291.90378
291.81686
291.74368
291.68356
291.63489
291.59567
292.38079
292.25669
292.13259
292.01716
291.91732
291.83537
291.76993
291.71846
291.67799
292.53347
292.39305
292.25405
292.12536
292.01501
291.92588
291.85617
291.80258
291.76139
292.66712
292.51306
292.3626
292.22415
292.106
292.01154
291.93882
291.88388
291.84244
292.77612
292.61516
292.45768
292.31254
292.1888
292.09053
292.01598
291.96054
291.91945
292.86927
292.69528
292.53308
292.38608
292.2605
292.16059
292.0852
292.02979
291.98925
293.00402
292.8231
292.64117
292.47668
292.34005
292.23399
292.15567
292.0995
292.05952
291.66268
291.90255
292.07025
292.19674
292.29979
292.38823
291.51233
291.75189
291.92218
292.05072
292.15505
292.24397
291.36753
291.60845
291.77961
291.90793
292.01267
292.10256
291.23352
291.47367
291.64233
291.76891
291.87287
291.96262
291.11445
291.35034
291.51403
291.63788
291.73947
291.8273
291.01553
291.24322
291.40103
291.51976
291.61734
291.70129
290.93642
291.15604
291.3076
291.41967
291.51111
291.58945
290.89118
291.10236
291.24126
291.3433
291.42619
291.49655
290.88389
291.06673
291.20664
291.30122
291.37323
291.43205
290.92781
291.12645
291.22025
291.2756
291.32538
291.37236
291.01057
291.11364
291.19958
291.27855
291.34365
291.39533
291.05316
291.14623
291.26851
291.34712
291.39917
291.43275
291.15195
291.31323
291.40869
291.45284
291.47786
291.49335
291.33638
291.505
291.55785
291.57973
291.59003
291.59237
291.7217
291.76243
291.77004
291.76528
291.75419
291.73832
292.07324
292.04255
292.02024
291.98685
291.95054
291.91315
292.40975
292.32318
292.27805
292.22187
292.16232
292.10343
292.74575
292.67468
292.57789
292.47696
292.38512
292.30176
293.11983
292.97859
292.85475
292.72387
292.60266
292.49346
293.39817
293.33104
293.13326
292.95559
292.8002
292.66487
293.55756
293.52092
293.35563
293.1573
292.97559
292.81539
293.74715
293.67894
293.46505
293.28573
293.10122
292.9318
293.61746
293.71084
293.61707
293.39813
293.22563
293.04466
293.5042
293.60059
293.66923
293.5722
293.32896
293.15173
293.53118
293.54618
293.59453
293.63829
293.58091
293.35913
293.51191
293.53194
293.54819
293.57947
293.58966
293.55506
293.52307
293.52541
293.53212
293.54241
293.55881
293.5601
293.52208
293.5222
293.52404
293.527
293.53122
293.53457
293.52122
293.521
293.52073
293.5205
293.51986
293.51769
293.5191
293.51966
293.51912
293.51804
293.51628
293.5134
293.51855
293.51939
293.51907
293.51797
293.51606
293.51316
293.51907
293.52088
293.52103
293.52021
293.51848
293.51576
293.52274
293.52449
293.52495
293.52445
293.52307
293.52076
293.52817
293.52987
293.5305
293.5303
293.52933
293.52756
293.53486
293.53647
293.53713
293.53721
293.53668
293.53554
293.54085
293.54343
293.54403
293.54435
293.54431
293.54389
293.54525
293.5479
293.54943
293.55054
293.5513
293.55176
293.546
293.5506
293.55357
293.55575
293.55746
293.55888
293.54663
293.55352
293.55774
293.5608
293.56333
293.56559
293.54857
293.55707
293.56222
293.56605
293.56936
293.57242
293.55242
293.56168
293.56745
293.57198
293.57607
293.58007
293.55767
293.56758
293.57394
293.57929
293.58455
293.58996
293.564
293.57439
293.58177
293.5888
293.59648
293.60523
293.57075
293.58138
293.59136
293.6024
293.61721
293.63879
293.57658
293.58914
293.60339
293.6238
293.66142
293.73369
293.58064
293.59556
293.62061
293.67069
293.76848
293.86976
293.58608
293.61818
293.71264
293.84109
293.94689
293.90981
293.57916
293.75279
293.91239
293.99235
291.34924
291.61661
291.80929
291.95807
291.55332
291.79069
291.96299
292.09563
292.20619
292.30162
291.76284
291.97109
292.12257
292.23913
292.3361
292.4199
291.97021
292.15288
292.28399
292.38443
292.46782
292.53993
292.17327
292.33413
292.44449
292.52839
292.598
292.65834
292.35982
292.50476
292.59619
292.66451
292.72163
292.77142
292.55195
292.65897
292.73094
292.78648
292.8334
292.8751
292.71817
292.79698
292.8529
292.89739
292.93581
292.96993
292.86083
292.91845
292.96067
292.99579
293.02634
293.0537
292.98101
293.01817
293.0503
293.07788
293.10215
293.12417
293.06984
293.0978
293.12135
293.14232
293.16159
293.17969
293.12152
293.1528
293.17032
293.18657
293.20274
293.21869
293.14292
293.16514
293.18561
293.20459
293.22234
293.23923
293.10833
293.14481
293.17333
293.19803
293.22006
293.24032
293.04857
293.10257
293.14088
293.17203
293.19942
293.22429
292.96325
293.03981
293.08992
293.12901
293.16253
293.19288
292.85742
292.95583
293.01986
293.069
293.11015
293.14661
292.73728
292.8576
292.93535
292.99458
293.04394
293.08763
292.59385
292.74598
292.83883
292.90775
292.96546
293.01666
292.4556
292.61945
292.72623
292.80676
292.87423
292.93372
292.30295
292.48078
292.60256
292.6952
292.77269
292.84064
292.14628
292.33975
292.47416
292.57737
292.66408
292.74024
291.97983
292.18965
292.3389
292.45355
292.5498
292.63416
291.8132
292.0528
292.21309
292.33647
292.44005
292.52926
293.84466
293.97785
294.00977
290.96891
291.15304
291.44767
292.61674
292.71746
292.81693
292.90942
292.99391
293.06831
293.13162
293.18302
293.22226
293.24784
293.25925
293.25513
293.23431
293.19783
293.14684
293.08257
293.00634
292.91997
292.82485
292.72208
292.61405
292.50369
292.39326
292.70949
292.81092
292.90235
292.98504
293.0591
293.12325
293.17704
293.21997
293.25128
293.2705
293.27723
293.27051
293.25008
293.21673
293.17114
293.11423
293.04697
292.97045
292.88567
292.79393
292.69694
292.59667
292.494
292.80775
292.90256
292.98404
293.05667
293.12054
293.17505
293.21961
293.25431
293.27846
293.29199
293.29464
293.28583
293.26582
293.23515
293.19429
293.14387
293.08456
293.01706
292.94225
292.8609
292.77439
292.68415
292.59087
292.90682
292.99112
293.06214
293.12446
293.17828
293.22329
293.25934
293.2861
293.30364
293.31201
293.31104
293.30057
293.281
293.25271
293.21605
293.17146
293.11938
293.06026
292.99462
292.92333
292.84681
292.76642
292.68264
293.00324
293.07546
293.13568
293.18761
293.23165
293.26757
293.29524
293.31476
293.32635
293.33013
293.32601
293.31423
293.29513
293.26896
293.23604
293.19666
293.1511
293.09968
293.04267
292.98042
292.91354
292.84282
292.76858
293.0945
293.1541
293.20344
293.24536
293.27997
293.30711
293.327
293.33994
293.34619
293.34586
293.33914
293.32634
293.3077
293.28347
293.25387
293.21909
293.17933
293.13475
293.08553
293.03182
292.97395
292.91244
292.84758
293.17832
293.22558
293.26458
293.29682
293.32229
293.34125
293.35409
293.36115
293.36264
293.35882
293.34999
293.3364
293.31828
293.29581
293.26916
293.23846
293.20382
293.16534
293.12309
293.07715
293.02761
292.97475
292.91874
293.25296
293.28898
293.318
293.34084
293.35784
293.36943
293.37601
293.37787
293.37531
293.36864
293.35814
293.34402
293.32646
293.30562
293.2816
293.25449
293.22436
293.19125
293.15518
293.11616
293.07418
293.02934
292.98171
293.31739
293.34298
293.36242
293.37659
293.38602
293.39113
293.39225
293.38974
293.38391
293.37502
293.36329
293.3489
293.33199
293.31266
293.29099
293.26704
293.24083
293.21239
293.18171
293.14876
293.11353
293.07595
293.03582
293.37057
293.38599
293.39667
293.40326
293.40619
293.40585
293.40258
293.39666
293.38836
293.37787
293.36537
293.35097
293.33479
293.31689
293.29733
293.27613
293.25331
293.22886
293.20276
293.17499
293.14551
293.11425
293.08093
293.41017
293.41679
293.4201
293.4205
293.41832
293.41384
293.40731
293.39895
293.38894
293.37745
293.36458
293.35043
293.33507
293.31854
293.30088
293.28209
293.26218
293.24113
293.21893
293.19553
293.1709
293.14499
293.11758
293.43522
293.43557
293.43358
293.4295
293.42361
293.41617
293.40737
293.39738
293.38634
293.37434
293.36147
293.34779
293.33332
293.31811
293.30216
293.28547
293.26805
293.24988
293.23093
293.21118
293.19059
293.16912
293.1466
293.44933
293.44495
293.43902
293.43171
293.42329
293.41392
293.40375
293.39289
293.38141
293.36937
293.35681
293.34377
293.33026
293.3163
293.30189
293.28703
293.27171
293.25593
293.23966
293.22288
293.20558
293.18771
293.45403
293.44639
293.43787
293.42862
293.41879
293.40848
293.39775
293.38665
293.37522
293.3635
293.35149
293.33923
293.32671
293.31394
293.30091
293.28763
293.2741
293.26029
293.2462
293.23181
293.21713
293.20211
293.45159
293.44224
293.43248
293.42239
293.41203
293.40146
293.39071
293.3798
293.36875
293.35757
293.34627
293.33486
293.32333
293.31168
293.29991
293.28802
293.276
293.26384
293.25154
293.2391
293.2265
293.21373
293.44379
293.43385
293.42377
293.4136
293.40335
293.39306
293.38274
293.37238
293.362
293.3516
293.34117
293.3307
293.32021
293.30967
293.29909
293.28846
293.27778
293.26705
293.25625
293.2454
293.23449
293.22351
293.43141
293.42171
293.41202
293.40237
293.39275
293.38317
293.37363
293.36414
293.35467
293.34523
293.33582
293.32642
293.31703
293.30764
293.29825
293.28885
293.27944
293.27002
293.26058
293.25113
293.24167
293.2322
293.41508
293.40611
293.39725
293.38849
293.37981
293.37123
293.36273
293.3543
293.34594
293.33763
293.32937
293.32114
293.31295
293.30477
293.29661
293.28845
293.2803
293.27215
293.264
293.25585
293.24772
293.23959
293.39408
293.38621
293.37849
293.3709
293.36344
293.35609
293.34884
293.34169
293.33461
293.3276
293.32065
293.31373
293.30685
293.29999
293.29315
293.28631
293.27948
293.27265
293.26582
293.259
293.25219
293.24538
293.36677
293.36035
293.35409
293.34798
293.342
293.33613
293.33037
293.32469
293.31909
293.31355
293.30804
293.30257
293.29712
293.29168
293.28625
293.28081
293.27536
293.2699
293.26444
293.25897
293.25349
293.24802
293.33099
293.32641
293.32198
293.31769
293.31351
293.30942
293.30541
293.30145
293.29754
293.29365
293.28978
293.28591
293.28203
293.27814
293.27422
293.27028
293.26632
293.26232
293.25829
293.25423
293.25015
293.24605
293.27893
293.27749
293.27603
293.27455
293.27302
293.27145
293.26983
293.26815
293.26641
293.26459
293.26271
293.26074
293.25871
293.2566
293.25442
293.25217
293.24986
293.24748
293.24505
293.24257
293.24003
293.23745
293.20484
293.20749
293.20991
293.21211
293.21409
293.21587
293.21745
293.21884
293.22003
293.22101
293.22179
293.22236
293.22273
293.22292
293.22294
293.22279
293.2225
293.22206
293.2215
293.22082
293.22004
293.21916
293.15393
293.15588
293.15775
293.15959
293.16141
293.16321
293.16499
293.16674
293.16846
293.17014
293.17179
293.17341
293.17499
293.17652
293.178
293.1794
293.1807
293.18188
293.18295
293.1839
293.18472
293.18542
293.1498
293.15008
293.15045
293.15089
293.15138
293.15192
293.15246
293.15301
293.15356
293.15412
293.15468
293.15522
293.15573
293.15622
293.15665
293.15705
293.1574
293.15773
293.15803
293.1583
293.15855
293.15879
293.1586
293.15893
293.15918
293.15935
293.15943
293.15943
293.15935
293.1592
293.15898
293.1587
293.15838
293.15801
293.15759
293.15715
293.15667
293.15618
293.15569
293.15521
293.15477
293.15436
293.15397
293.15361
293.14481
293.14443
293.14408
293.14378
293.14352
293.14328
293.14308
293.14289
293.14273
293.14257
293.14243
293.14229
293.14215
293.14202
293.14188
293.14173
293.14158
293.14141
293.14124
293.14105
293.14085
293.14064
293.11984
293.11961
293.1194
293.1192
293.11902
293.11886
293.1187
293.11856
293.11844
293.11832
293.11821
293.1181
293.11801
293.11791
293.11783
293.11774
293.11766
293.11758
293.1175
293.11741
293.11733
293.11724
293.09918
293.09945
293.09972
293.09999
293.10027
293.10052
293.10075
293.10095
293.10114
293.1013
293.10143
293.10154
293.10163
293.10169
293.10174
293.10177
293.10177
293.10176
293.10173
293.10167
293.10158
293.10147
293.11077
293.11089
293.11101
293.11113
293.11125
293.11137
293.11149
293.11159
293.11169
293.11177
293.11183
293.11186
293.11185
293.1118
293.1117
293.11154
293.11134
293.11109
293.11081
293.1105
293.11018
293.10985
293.11633
293.11595
293.11561
293.11528
293.11497
293.11468
293.11439
293.11411
293.11383
293.11356
293.11329
293.11303
293.11276
293.1125
293.11224
293.11198
293.11172
293.11146
293.11121
293.11095
293.11069
293.11043
292.69784
292.67894
292.65988
292.64095
292.62254
292.60476
292.5898
292.5822
292.581
292.7758
292.75737
292.73929
292.72233
292.70708
292.69353
292.68282
292.67785
292.67887
292.85793
292.8396
292.82242
292.80741
292.79488
292.78494
292.77802
292.77558
292.77764
292.94333
292.92519
292.90873
292.89514
292.88481
292.87775
292.87397
292.87397
292.87711
293.03128
293.01314
292.99713
292.98449
292.97574
292.97078
292.96927
292.97096
292.97491
293.12043
293.10207
293.08616
293.07399
293.06613
293.06242
293.06219
293.06467
293.06881
293.20887
293.19008
293.1739
293.16165
293.15394
293.15054
293.15058
293.15292
293.15648
293.29405
293.2747
293.25792
293.245
293.23666
293.23262
293.23188
293.23315
293.23541
293.3729
293.35275
293.33504
293.32104
293.31133
293.30563
293.30304
293.30272
293.30379
293.44228
293.42138
293.40235
293.38685
293.37538
293.3679
293.36384
293.36224
293.36193
293.50034
293.48022
293.46094
293.44421
293.43104
293.42159
293.4151
293.41047
293.40714
293.54302
293.52405
293.50447
293.48577
293.46978
293.45714
293.44772
293.44099
293.43622
293.56564
293.54703
293.52805
293.50989
293.49354
293.47969
293.46857
293.46005
293.45371
293.57898
293.56105
293.54228
293.52374
293.5065
293.49136
293.47873
293.46865
293.46091
293.57438
293.55823
293.54102
293.5236
293.5069
293.49177
293.47876
293.4681
293.45976
293.55865
293.54447
293.52912
293.51333
293.49788
293.48357
293.47104
293.46061
293.45234
293.53119
293.51989
293.50725
293.49387
293.4805
293.4679
293.45667
293.4472
293.43961
293.49639
293.48817
293.47852
293.46795
293.45708
293.4466
293.43712
293.42903
293.42249
293.44908
293.44601
293.44079
293.43408
293.42656
293.41893
293.41178
293.40552
293.40038
293.37998
293.38783
293.39041
293.38961
293.38678
293.38294
293.37883
293.37495
293.37161
293.2688
293.29606
293.31515
293.32665
293.33258
293.33498
293.33539
293.33483
293.33392
293.16584
293.18361
293.20724
293.23017
293.24869
293.26175
293.27013
293.27534
293.27853
293.14065
293.14153
293.14518
293.15284
293.16367
293.17544
293.18613
293.19459
293.20083
293.1416
293.14127
293.14098
293.14118
293.14223
293.14429
293.14695
293.14963
293.15185
293.14891
293.14997
293.15068
293.15095
293.15072
293.15023
293.14981
293.14962
293.14965
293.14987
293.15095
293.15238
293.15396
293.15534
293.15647
293.1573
293.15787
293.15826
293.14725
293.14692
293.14639
293.14587
293.14556
293.14535
293.14522
293.14514
293.1451
293.11729
293.11785
293.11843
293.11893
293.11932
293.1196
293.11979
293.11992
293.12001
293.09734
293.09741
293.09755
293.09775
293.098
293.09826
293.09851
293.09874
293.09895
293.11105
293.11081
293.11063
293.11052
293.11049
293.1105
293.11054
293.11059
293.11064
293.11933
293.11901
293.11866
293.11829
293.11792
293.11755
293.11721
293.11691
293.11665
292.71195
292.79018
292.87299
292.959
293.0477
293.13775
293.22724
293.31344
293.39337
293.46314
293.5198
293.56108
293.58379
293.59632
293.59001
293.57223
293.54173
293.50358
293.44965
293.36438
293.23597
293.15643
293.14082
293.14168
293.1477
293.14912
293.14731
293.11676
293.09735
293.11139
293.11964
292.724
292.80318
292.88726
292.97449
293.06464
293.15631
293.24752
293.33525
293.41636
293.48587
293.54037
293.58009
293.60322
293.61482
293.60674
293.58655
293.55232
293.50986
293.44479
293.33311
293.2018
293.15403
293.14108
293.14145
293.14655
293.14874
293.14705
293.11642
293.09747
293.1119
293.12005
292.74138
292.82193
292.90777
292.99656
293.08863
293.18237
293.27569
293.36493
293.44617
293.51344
293.56434
293.60217
293.62543
293.63576
293.62546
293.60184
293.56204
293.51216
293.42174
293.27676
293.18394
293.15601
293.14052
293.14109
293.14576
293.14869
293.14655
293.11641
293.09777
293.11261
293.12062
292.7687
292.85142
292.93976
293.03063
293.12542
293.2218
293.31762
293.40787
293.4861
293.54767
293.59326
293.62951
293.65135
293.66021
293.64672
293.61688
293.56485
293.49287
293.34747
293.22897
293.18588
293.15434
293.13932
293.14038
293.14549
293.14861
293.14641
293.11702
293.09838
293.11372
293.12146
292.82131
292.90826
293.00035
293.09488
293.1936
293.29266
293.38912
293.47689
293.54406
293.59413
293.63215
293.66449
293.67882
293.68671
293.6646
293.61389
293.50933
293.38062
293.29303
293.22599
293.17944
293.14993
293.13503
293.13626
293.14393
293.14732
293.14666
293.11825
293.0994
293.11528
293.12233
292.96766
293.0646
293.16733
293.27116
293.37202
293.46334
293.53666
293.59287
293.63363
293.66444
293.68159
293.6904
293.67695
293.63935
293.57348
293.49272
293.41189
293.3461
293.28476
293.21686
293.16621
293.13405
293.12035
293.12129
293.13041
293.13965
293.13494
293.11442
293.09797
293.11336
293.12237
)
;

boundaryField
{
    Side1
    {
        type            empty;
    }
    Inlet
    {
        type            totalTemperature;
        gamma           1.4;
        T0              uniform 294.31799;
        value           uniform 293.00245;
    }
    Side2
    {
        type            empty;
    }
    Outlet
    {
        type            zeroGradient;
    }
    Botwall
    {
        type            zeroGradient;
    }
    Cyli
    {
        type            zeroGradient;
    }
    procBoundary0to1
    {
        type            processor;
        value           nonuniform List<scalar> 
44
(
293.06216
293.06216
293.23281
293.40126
293.40126
293.47004
293.47004
293.47757
293.49353
293.49353
293.50357
293.50357
293.50773
293.5141
293.52528
293.52528
293.53397
293.54311
293.5519
293.55994
293.56745
293.56745
293.57665
293.58528
293.59622
293.59622
293.61511
292.24464
292.21672
292.74715
292.6144
292.50619
292.42089
292.3557
292.24464
292.30741
292.74715
292.88037
292.19342
292.17047
292.14723
292.12104
292.08531
292.02088
)
;
    }
    procBoundary0to2
    {
        type            processor;
        value           nonuniform List<scalar> 
55
(
293.75594
293.72339
293.69316
293.66791
293.64485
293.92266
293.80609
294.01498
293.92266
293.91089
291.65679
292.08283
291.81597
292.08283
292.18989
294.01498
294.03667
294.03667
293.88696
290.80572
291.28781
291.28781
291.65679
292.28833
292.38774
292.49065
292.59139
292.6873
292.77665
292.85787
292.93011
292.99255
293.04506
293.08829
293.12273
293.16915
293.16915
293.18666
293.20073
293.2124
293.22268
293.23143
293.23856
293.24252
293.24191
293.23481
293.2182
293.18599
293.15902
293.15328
293.14043
293.11716
293.10133
293.10952
293.11016
)
;
    }
    procBoundary0to3
    {
        type            processor;
        value           nonuniform List<scalar> 7(293.64956 293.64956 293.72826 293.72826 293.80183 293.80183 293.7258);
    }
}


// ************************************************************************* //
