/*--------------------------------*- C++ -*----------------------------------*\
| =========                 |                                                 |
| \\      /  F ield         | OpenFOAM: The Open Source CFD Toolbox           |
|  \\    /   O peration     | Version:  2406                                  |
|   \\  /    A nd           | Website:  www.openfoam.com                      |
|    \\/     M anipulation  |                                                 |
\*---------------------------------------------------------------------------*/
FoamFile
{
    version     2.0;
    format      ascii;
    arch        "LSB;label=32;scalar=64";
    class       volScalarField;
    location    "0.01";
    object      p;
}
// * * * * * * * * * * * * * * * * * * * * * * * * * * * * * * * * * * * * * //

dimensions      [1 -1 -2 0 0 0 0];

internalField   nonuniform List<scalar> 
2065
(
100416.21
100425.18
100430.63
100434.22
100435.9
100430.05
100433.71
100437.6
100439.09
100437.62
100439.53
100437.9
100436.97
100434.39
100435.18
100431.81
100428.07
100425.9
100422.86
100418.69
100419
100416.58
100415.95
100417.05
100420.86
100454.57
100455.63
100456.67
100457.74
100458.48
100459.74
100460.19
100463.06
100463.31
100463.31
100467.54
100467.12
100467.29
100467.44
100473.28
100472.45
100473.2
100473.78
100474.19
100406.88
100379.29
100345.79
100313.57
100287.75
100268.6
100252.74
100238.74
100226.24
100415.45
100389.37
100359.79
100332.14
100309.4
100291.22
100275.83
100262.28
100250.34
100416.91
100393.72
100370.13
100347.83
100328.68
100312.46
100298.27
100285.65
100274.55
100421.29
100402.84
100384.06
100365.42
100348.76
100334.22
100321.2
100309.52
100299.25
100426.03
100412.08
100397.34
100382.03
100367.85
100355.14
100343.51
100428.46
100212.57
100197.72
100183.58
100171.14
100161.81
100155.4
100237.47
100224.06
100211.42
100200.4
100192.35
100187.36
100262.69
100250.4
100238.88
100228.86
100221.39
100216.56
100288.35
100277.02
100266.36
100257.02
100249.91
100245.18
101468.04
101536.55
101606.93
101667.9
101706.41
101721.44
101329.73
101402.17
101473.82
101534.1
101571.88
101586.99
101184.89
101258.51
101329.15
101387.53
101424.12
101438.63
101030.75
101103.19
101170.94
101226.42
101261.92
101276.88
100869.55
100939.65
101004.18
101057.21
101092.62
101109.46
100706.04
100773.62
100835.24
100885.67
100919.41
100937.92
100538.99
100601.68
100658.04
100703.68
100733.66
100749.45
100373.62
100430.01
100479.99
100520.18
100546.54
100560.13
100217.34
100267
100310.34
100345.02
100368.03
100379.97
100075.89
100118.47
100155.02
100184.17
100203.85
100214.08
99955.664
99991.205
100021.23
100044.73
100060.33
100068.74
99861.133
99889.166
99912.432
99930.385
99942.09
99948.424
99796.476
99817.321
99834.105
99847.011
99855.331
99859.645
99766.265
99777.819
99786.309
99792.039
99795.456
99797.319
99752.792
99760.775
99766.385
99770.228
99772.612
99773.565
99766.43
99770.083
99771.32
99771.065
99770.382
99769.461
99797.791
99796.632
99793.864
99790.305
99786.947
99784.27
99841.54
99836.543
99830.698
99824.872
99820.006
99816.399
99894.813
99886.498
99877.835
99869.802
99863.458
99858.942
99952.982
99942.037
99931.148
99921.308
99913.672
99908.367
100012.46
99999.605
99987.158
99976.134
99967.689
99961.924
100070.03
100056.02
100042.6
100030.66
100021.39
100015.12
100124.95
100109.99
100095.85
100083.52
100074.1
100067.88
100172.06
100157.91
100144.3
100132.03
100122.21
100115.12
101986.19
101816.23
101641.62
101477.47
101356.26
101294.17
101291.09
101333.39
101399.09
101698.27
101542.72
101382.83
101247.24
101154.56
101115.2
101128.9
101183.03
101256.64
101375.38
101256.85
101129.66
101024.31
100957.3
100937.85
100965.89
101029.49
101108.78
101051.68
100968.99
100877.23
100801.93
100759.79
100759.1
100799.93
100871.08
100953.82
100726.96
100678.83
100619.91
100576.22
100560.96
100579.26
100632.09
100709.24
100793.48
100405.16
100390.96
100367.15
100354.31
100364.49
100401.95
100465.65
100547.22
100631.57
100097.74
100115.34
100125.54
100143.15
100177.08
100231.12
100303.44
100386.81
100468.58
99814.972
99861.287
99902.574
99948.319
100003.7
100071.32
100149.49
100232.04
100309.01
99564.033
99635.688
99704.455
99775.351
99849.215
99927.464
100008.87
100088.53
100159.35
99361.781
99449.213
99539.743
99630.651
99718.943
99804.791
99886.882
99961.768
100025.23
99145.598
99259.42
99391.116
99509.347
99613.526
99707.079
99788.357
99857.057
99912.52
99077.603
99202.382
99316.577
99428.829
99538.88
99639.365
99718.031
99779.312
99826.134
99033.625
99166.034
99299.717
99429.625
99535.341
99615.865
99678.981
99729.773
99768.959
99041.489
99170.642
99302.595
99427.892
99534.928
99619.159
99684.624
99726.296
99750.225
99101.635
99219.386
99341.209
99456.763
99556.306
99632.765
99686.325
99720.292
99740.426
99211.536
99313.058
99418.872
99521.546
99608.485
99673.117
99716.707
99743.721
99758.618
99358.632
99437.759
99523.257
99608.118
99680.643
99734.18
99768.651
99787.518
99795.551
99532.354
99585.356
99646.04
99709.601
99765.327
99806.107
99830.603
99841.659
99843.821
99719.866
99745.039
99778.29
99818.665
99856.455
99884.09
99899.083
99903.409
99900.816
99904.789
99903.412
99910.153
99927.823
99948.088
99963.232
99969.689
99968.331
99961.93
100069.81
100047.98
100032.86
100030.74
100035.35
100039.4
100038.62
100032.73
100023.53
100203.76
100168.85
100138.57
100121.67
100114.04
100109.22
100102.72
100093.45
100082.38
100301.5
100266.54
100229.35
100202.22
100184.77
100172.8
100161.99
100150.43
100138.18
100356
100317.76
100280.4
100252.2
100232.19
100218.54
100207.2
100196.01
100184.6
102293.87
102360.26
102348.08
102290.28
102222.9
102160.28
101812.47
101919.1
101933.67
101904.07
101867.22
101834.98
101322.38
101466.61
101504.81
101502.72
101493.6
101485.71
100835.4
101008.94
101068.8
101094.16
101113.25
101131.6
100357.46
100557.52
100635
100685.76
100730.71
100773.35
99897.766
100121.87
100213.55
100287.67
100355.87
100419.92
99467.467
99710.85
99818.577
99911.961
99999.801
100082.5
99078.236
99336.771
99458.328
99568.49
99673.133
99772.162
98745.327
99015.38
99147.422
99270.313
99387.452
99497.365
98468.218
98751.7
98898.536
99032.739
99160.355
99278.79
98262.207
98573.371
98721.206
98853.173
98954.616
99057.886
98142.342
98407.98
98488.695
98615.823
98781.205
98938.848
97948.499
98241.53
98398.83
98566.937
98737.318
98893.396
97884.92
98267.12
98450.95
98608.108
98759.813
98904.437
98046.728
98401.292
98543.234
98684.751
98832.18
98971.692
98279.02
98567.484
98691.728
98823.505
98962.348
99092.557
98535.505
98782.044
98899.8
99018.915
99143.548
99259.042
98839.302
99051.261
99154.521
99257.79
99362.253
99458.53
99202.365
99372.95
99447.91
99523.197
99600.97
99672.28
99595.744
99714.831
99754.982
99795.947
99841.904
99884.976
99981.094
100039.71
100040.7
100043.32
100056.22
100072.66
100251.72
100286.06
100262.93
100238.67
100226.63
100221.89
100386.12
100388.65
100370.4
100349.73
100332.59
100319.46
100399.84
100399.37
100403.48
100396.77
100389.83
100379.97
100373.14
100407.33
100409.75
100409.9
100407.92
100411.05
100399.43
100407.11
100409.95
100414.11
100419.43
100431.84
100406.87
100409.77
100412.56
100416.93
100422.95
100442.27
100410
100413.25
100415.08
100419.09
100425.45
100438.52
100410.87
100414.13
100416.11
100418.59
100422.2
100427.72
100412.56
100415.29
100416.63
100417.91
100419.27
100420.94
100416.94
100418.75
100418.91
100418.97
100418.78
100418.45
100424.58
100424.61
100423.75
100422.49
100421.31
100420.05
100434.67
100432.96
100430.41
100427.65
100425.22
100423.46
100446.81
100444.01
100439.63
100435.18
100431.5
100428.89
100459.99
100455.52
100449.41
100443.55
100438.82
100435.45
100471.48
100466.06
100458.85
100451.65
100446.06
100442.22
100478.44
100472.48
100464.74
100457.29
100451.66
100447.89
100483.04
100472.98
100466.41
100460.11
100455.24
100452
100480.31
100474.67
100468.57
100462.57
100458.05
100455.13
100474.35
100470.84
100466.14
100461.74
100458.39
100456.38
100467.83
100465.78
100462.9
100460.09
100458.04
100457.14
100462.24
100461.54
100460.32
100458.98
100458.21
100458.2
100457.68
100458.43
100458.31
100458.3
100458.45
100459.24
100454.56
100456.53
100457.25
100458.11
100459.06
100460.37
100452.8
100456.55
100457.62
100459.18
100461.24
100463.64
100451.98
100457.23
100457.92
100460.32
100464.5
100469.78
100453.35
100455.53
100455.92
100460.08
100466.55
100476.77
100451.81
100453.66
100454.83
100457.64
101175.3
101338.48
101405.56
101428.53
101626.29
101753.4
101796.57
101795.45
101771.86
101731.32
102074.71
102167.87
102186.41
102160.36
102112.32
102046.13
102514.14
102574.71
102568.3
102517.34
102444.89
102355.64
102938.69
102967.38
102935.75
102860.04
102764.15
102652.96
103342.55
103339.09
103281.77
103181.67
103064.04
102934.26
103711.39
103677.7
103595.7
103473.51
103337.23
103194.56
104023.45
103972.35
103870.66
103732.56
103580.6
103426.75
104297.56
104244
104123.92
103969.92
103806.09
103634.06
104544.05
104476.27
104342.4
104175.04
103993.71
103808.39
104745.29
104662.97
104519.22
104337.18
104143.66
103948.54
104903.37
104810.87
104656.23
104462.42
104258.67
104054.96
105012.91
104904.45
104741.53
104544.36
104337
104128.68
105066.98
104912.06
104746.99
104558.86
104358.01
104152.81
105044.24
104938.61
104771.36
104569.7
104358.88
104147.67
104983.35
104887.78
104728.37
104528.61
104317.65
104105.84
104857.28
104767.76
104614.96
104423.68
104220.41
104015.3
104688.3
104607.42
104461.25
104281.88
104087.59
103888.87
104475.04
104408.13
104272.05
104101.25
103919.09
103728.97
104213.49
104160.18
104038.57
103878.44
103704.73
103526.69
103918.81
103868.48
103763.69
103619.71
103457.92
103292.96
103586.7
103550.02
103462.96
103335.26
103190.29
103036.78
103196.93
103188.91
103124.38
103015.96
102888.47
102755.41
102759.33
102783.29
102741.3
102651.44
102540.63
102445.94
100451.45
100454.18
100448.56
100302.76
100732.8
100931.28
102568.61
102779.92
103009.42
103234.02
103430.68
103599.31
103732.59
103838.24
103910.72
103946
103951.8
103925.55
103860.03
103767.74
103645.97
103495.6
103316.42
103111.95
102886.8
102643.03
102384.6
102114.4
101846.44
102619.65
102756.62
102963.31
103161.17
103324.7
103464.15
103575.81
103662.82
103719.94
103749.03
103752.75
103724.95
103666.93
103586.75
103481
103349.9
103196.27
103022.49
102828.27
102613.82
102384.17
102140.27
101896.53
102639.84
102742.91
102925.58
103088.73
103220.53
103327.96
103418.01
103485.39
103527.88
103550.04
103550.02
103522.23
103472.13
103404.1
103315.29
103206.18
103079.1
102932.67
102769.93
102587.52
102391.44
102179.76
101961.21
102642.9
102726.05
102878.41
103005.83
103107.08
103190.41
103258.64
103307.92
103338.6
103354.24
103350.09
103323.42
103280.75
103223.56
103149.85
103060.04
102955.66
102836.75
102698.18
102548.75
102384.82
102206.17
102019.34
102635.29
102701.15
102817.47
102911.44
102987.65
103050.6
103100.04
103134.61
103156.61
103166.01
103157.53
103132.79
103096.8
103049.03
102988.34
102914.88
102829
102730.83
102621.61
102500.15
102365.2
102216.09
102061.62
102614.88
102655.91
102742.19
102810.68
102867.02
102912.66
102947.02
102970.48
102984.92
102988.03
102976.63
102954.36
102923.97
102884.21
102834.63
102775.37
102706.51
102628.12
102541.09
102444.51
102336.91
102214.44
102087.92
102583.37
102599.59
102653.84
102706.83
102749.46
102781.49
102804.14
102819.6
102827.34
102824.3
102811.33
102791.6
102765.65
102732.49
102692.05
102644.42
102589.66
102527.71
102458.77
102382.88
102299.22
102203.85
102101.68
102537.77
102539.55
102574.63
102613.4
102643.07
102663.49
102676.93
102685.2
102686.58
102679.2
102665.78
102648.03
102625.39
102597.45
102564.24
102525.84
102482.23
102433.34
102379.17
102319.69
102254.31
102181.37
102104.04
102498.51
102491.28
102509.73
102533.56
102551.21
102562.31
102569.07
102571.04
102566.36
102556.41
102543.28
102526.87
102506.68
102482.7
102454.98
102423.56
102388.39
102349.43
102306.68
102260.05
102208.78
102151.53
102093.21
102460.91
102444.96
102452.69
102466.81
102476.63
102481.86
102482.92
102478.84
102470.68
102460.09
102447.17
102431.54
102413.16
102392.09
102368.34
102341.92
102312.77
102280.86
102246.18
102208.67
102167.65
102121.81
102075.51
102427.25
102411.29
102413.98
102421.72
102426.03
102425.4
102420.88
102413.57
102404.41
102393.5
102380.62
102365.7
102348.76
102329.81
102308.84
102285.82
102260.73
102233.5
102204.12
102172.45
102137.96
102100.11
102062.81
102410.65
102398.16
102398.11
102399.44
102398.58
102394.74
102388.78
102381.17
102372.05
102361.5
102349.35
102335.51
102319.95
102302.64
102283.56
102262.72
102240.09
102215.67
102189.41
102161.02
102129.83
102096.61
102069.02
102411.78
102405.43
102402.32
102399.57
102395.83
102390.95
102384.99
102377.83
102369.4
102359.67
102348.62
102336.23
102322.43
102307.16
102290.37
102272.04
102252.17
102230.74
102207.72
102182.79
102155.23
102125.6
102400.95
102399.49
102396.39
102392.67
102388.29
102383.1
102376.96
102369.82
102361.85
102352.99
102343.27
102332.81
102321.41
102309
102295.57
102281.09
102265.54
102248.94
102231.29
102212.41
102191.67
102168.87
102373.99
102372.06
102367.95
102363.11
102357.76
102351.83
102345.32
102338.27
102330.71
102322.63
102314.06
102304.99
102295.39
102285.27
102274.61
102263.41
102251.66
102239.41
102226.72
102213.69
102200.3
102186.54
102336.42
102331.19
102324.93
102318.68
102312.38
102305.91
102299.28
102292.49
102285.55
102278.45
102271.18
102263.7
102255.96
102247.93
102239.54
102230.74
102221.48
102211.74
102201.51
102190.77
102179.58
102168.35
102286.52
102280.2
102273.34
102266.73
102260.24
102253.77
102247.3
102240.85
102234.42
102228.03
102221.68
102215.39
102209.14
102202.94
102196.75
102190.57
102184.35
102178.05
102171.61
102164.97
102158.03
102150.86
102234.04
102227.65
102220.88
102214.36
102207.99
102201.69
102195.43
102189.23
102183.09
102177.02
102171.01
102165.08
102159.21
102153.43
102147.73
102142.12
102136.62
102131.23
102125.96
102120.83
102115.84
102111
102180.34
102174.37
102168.14
102162.15
102156.36
102150.69
102145.13
102139.68
102134.36
102129.16
102124.07
102119.1
102114.24
102109.49
102104.83
102100.28
102095.83
102091.46
102087.19
102082.99
102078.88
102074.94
102126.86
102121.53
102116
102110.7
102105.56
102100.54
102095.61
102090.78
102086.06
102081.45
102076.96
102072.57
102068.31
102064.18
102060.17
102056.29
102052.55
102048.95
102045.49
102042.17
102038.99
102035.99
102075.41
102070.96
102066.37
102061.95
102057.69
102053.52
102049.45
102045.48
102041.61
102037.84
102034.17
102030.6
102027.13
102023.76
102020.49
102017.32
102014.26
102011.31
102008.47
102005.74
102003.14
102000.7
102025.75
102022.09
102018.31
102014.66
102011.14
102007.69
102004.32
102001.03
101997.82
101994.7
101991.66
101988.71
101985.84
101983.07
101980.39
101977.81
101975.32
101972.94
101970.66
101968.48
101966.42
101964.49
101980.59
101977.75
101974.82
101971.99
101969.24
101966.55
101963.92
101961.34
101958.83
101956.37
101953.97
101951.64
101949.36
101947.16
101945.02
101942.94
101940.95
101939.02
101937.17
101935.4
101933.72
101932.15
101938.28
101936.09
101933.82
101931.62
101929.47
101927.36
101925.29
101923.27
101921.28
101919.34
101917.44
101915.59
101913.78
101912.03
101910.33
101908.68
101907.09
101905.56
101904.09
101902.68
101901.33
101900.07
101901.79
101900.16
101898.48
101896.84
101895.23
101893.65
101892.09
101890.55
101889.04
101887.56
101886.11
101884.68
101883.29
101881.93
101880.6
101879.31
101878.05
101876.83
101875.66
101874.52
101873.44
101872.41
101867.2
101866.03
101864.81
101863.61
101862.43
101861.27
101860.12
101858.99
101857.87
101856.77
101855.7
101854.64
101853.61
101852.6
101851.61
101850.64
101849.7
101848.79
101847.9
101847.04
101846.22
101845.43
101839.28
101838.39
101837.53
101836.68
101835.83
101834.99
101834.16
101833.35
101832.54
101831.75
101830.97
101830.21
101829.46
101828.72
101828
101827.29
101826.59
101825.91
101825.25
101824.6
101823.97
101823.36
101809.6
101809.08
101808.55
101808.02
101807.51
101807.01
101806.51
101806.03
101805.55
101805.09
101804.63
101804.17
101803.73
101803.29
101802.85
101802.43
101802.01
101801.59
101801.18
101800.77
101800.38
101799.99
101782.66
101782.49
101782.32
101782.1
101781.88
101781.71
101781.55
101781.39
101781.23
101781.07
101780.91
101780.75
101780.6
101780.45
101780.29
101780.14
101779.98
101779.82
101779.67
101779.51
101779.37
101779.22
101780.27
101780.2
101780.12
101780.04
101779.96
101779.88
101779.66
101779.56
101779.42
101779.27
101779.09
101778.88
101778.65
101778.39
101778.11
101777.81
101777.48
101777.14
101776.79
101776.42
101776.05
101775.68
101770.45
101770.24
101770.02
101769.77
101769.49
101769.17
101768.8
101768.39
101767.94
101767.46
101766.98
101766.48
101766
101765.52
101765.04
101764.56
101764.07
101763.52
101762.71
101761.41
101760.9
101760.49
101505.3
101443.92
101402.3
101403.14
101460.11
101574.02
101726.53
101871.43
102016.45
101601.79
101544.08
101505.11
101506.99
101563.59
101676.57
101832.17
101990.64
102118.85
101700.27
101646.55
101609.25
101609.23
101660.27
101764.78
101911.28
102064.94
102180.94
101801.87
101752.3
101716.63
101713.94
101757.49
101849.97
101980.4
102117.51
102220.27
101903.75
101859.1
101825.56
101820.03
101854.9
101932.99
102043.95
102160.76
102249.89
102003.05
101963.92
101932.98
101924.67
101950.2
102012.52
102102.63
102198.45
102274.76
102097.11
102063.66
102035.58
102024.77
102041.2
102088.41
102160.37
102240.14
102303.06
102185.11
102156.3
102130.71
102118.12
102127.79
102164.78
102226.58
102294.9
102327.43
102260.7
102238.11
102217.08
102206.22
102213.46
102239.98
102274.26
102306.99
102324.57
102318.55
102302.35
102286.55
102276.75
102272.88
102276.5
102295.83
102324.74
102336.37
102358.81
102353.1
102340.68
102326.22
102317.8
102321.04
102333.24
102346.8
102348.09
102368.81
102371.67
102376.14
102378.77
102378.23
102377.32
102378.5
102379.02
102373.19
102368.85
102371
102374.67
102380.99
102389.52
102397.36
102402.41
102404.81
102403.63
102360.76
102363.57
102366.8
102370.78
102376.2
102382.86
102389.91
102396.79
102401.97
102342.21
102344.54
102347.99
102352.35
102357.05
102361.65
102366.2
102370.76
102374.76
102313.16
102315
102317.47
102320.66
102324.61
102328.87
102332.77
102336.04
102338.13
102275.4
102276.62
102278.27
102280.24
102282.31
102284.31
102286.28
102288.14
102289.22
102230.68
102231.58
102232.69
102233.85
102235.02
102236.04
102236.8
102237.42
102237.46
102181.43
102182
102182.67
102183.32
102183.79
102184
102184.07
102184.13
102183.78
102130.29
102130.7
102131.13
102131.43
102131.57
102131.47
102131.12
102130.76
102130.13
102078.95
102079.25
102079.56
102079.76
102079.75
102079.51
102079.14
102078.81
102078.23
102029.5
102029.7
102029.89
102029.96
102029.85
102029.54
102029.1
102028.68
102028.1
101983.51
101983.68
101983.84
101983.9
101983.82
101983.56
101983.22
101982.89
101982.45
101940.92
101941.02
101941.12
101941.13
101941.01
101940.76
101940.43
101940.12
101939.74
101903.81
101903.89
101903.96
101903.97
101903.87
101903.67
101903.42
101903.18
101902.9
101868.8
101868.84
101868.88
101868.87
101868.79
101868.63
101868.42
101868.23
101868.03
101840.57
101840.59
101840.6
101840.57
101840.48
101840.34
101840.17
101840.03
101839.88
101809.84
101809.9
101809.98
101810.04
101810.07
101810.07
101810.05
101810.04
101810
101783.57
101783.55
101783.52
101783.46
101783.37
101783.25
101783.12
101782.98
101782.85
101780.83
101780.78
101780.73
101780.67
101780.61
101780.56
101780.51
101780.45
101780.38
101771.44
101771.43
101771.4
101771.35
101771.29
101771.2
101771.09
101770.95
101770.77
101571.97
101666.32
101760.17
101856.5
101952.19
102044.71
102131.84
102213.57
102281.27
102330.43
102358.96
102367.59
102367.35
102359.03
102340.85
102312.12
102274.78
102230.27
102181.22
102130.17
102078.86
102029.45
101983.44
101940.88
101903.77
101868.77
101840.55
101809.77
101783.58
101780.88
101771.39
101636.42
101725.95
101815.05
101906.02
101995.64
102081.68
102162.3
102237.16
102296.18
102335.52
102357.77
102366.56
102366.16
102357.97
102340.06
102311.64
102274.62
102230.23
102181.33
102130.31
102079
102029.57
101983.52
101940.96
101903.82
101868.81
101840.59
101809.76
101783.6
101780.9
101771.36
101704.91
101789.36
101872.85
101957.47
102040.05
102118.73
102191.72
102256.72
102304.86
102336.08
102356.28
102365.4
102365.23
102357.14
102339.47
102311.29
102274.46
102230.19
102181.41
102130.41
102079.09
102029.66
101983.57
101941.01
101903.85
101868.83
101840.62
101809.74
101783.62
101780.94
101771.31
101765.41
101845.01
101923.3
102001.96
102077.5
102148.62
102212.79
102267.06
102306.9
102335.44
102354.99
102364.5
102364.52
102356.58
102339.1
102311.05
102274.33
102230.17
102181.44
102130.47
102079.16
102029.72
101983.61
101941.04
101903.86
101868.85
101840.64
101809.73
101783.64
101780.94
101771.27
101803.93
101879.33
101954.47
102029.04
102099.6
102164.53
102221.14
102269.53
102306.9
102334.85
102354.12
102363.68
102364
102356.34
102338.94
102310.91
102274.26
102230.16
102181.47
102130.52
102079.2
102029.76
101983.63
101941.06
101903.88
101868.87
101840.65
101809.72
101783.69
101781
101771.29
101818.47
101891.72
101965.99
102038.71
102106.94
102168.28
102222.74
102269.55
102306.67
102334.53
102353.78
102363.24
102363.58
102356.31
102338.89
102310.87
102274.23
102230.14
102181.47
102130.53
102079.21
102029.78
101983.64
101941.06
101903.88
101868.88
101840.66
101809.72
101783.69
101780.94
101770.63
)
;

boundaryField
{
    Side1
    {
        type            empty;
    }
    Inlet
    {
        type            totalPressure;
        rho             rho;
        psi             none;
        gamma           1;
        p0              uniform 102920.87;
        value           uniform 101328.54;
    }
    Side2
    {
        type            empty;
    }
    Outlet
    {
        type            freestreamPressure;
        freestreamValue nonuniform List<scalar> 0();
        value           nonuniform List<scalar> 0();
    }
    Botwall
    {
        type            zeroGradient;
    }
    Cyli
    {
        type            zeroGradient;
    }
    procBoundary0to1
    {
        type            processor;
        value           nonuniform List<scalar> 
44
(
100435.28
100435.28
100434.52
100429.54
100429.54
100423.02
100423.02
100413.3
100413.02
100413.02
100413.9
100413.9
100415.35
100419.31
100426.44
100426.44
100433.15
100439.71
100445.47
100449.8
100452.94
100452.94
100454.4
100455.85
100457.08
100457.08
100458.98
100332.92
100323.56
100418.77
100408.07
100396.45
100385.22
100374.75
100332.92
100364.84
100418.77
100429.88
100313.68
100303.37
100293.63
100285.08
100278.51
100274.1
)
;
    }
    procBoundary0to2
    {
        type            processor;
        value           nonuniform List<scalar> 
55
(
100475.34
100476.76
100477.97
100479.25
100480.74
100465.03
100475.47
100454.73
100465.03
100457.97
101019.86
101430.11
101070.16
101430.11
101426.13
100454.73
100452.94
100452.94
100439.27
99894.369
100535.43
100535.43
101019.86
101602.03
101708.97
101801.86
101887.03
101959.04
102012.75
102045.42
102062.38
102067.21
102057.72
102044.95
102059.14
102100.44
102100.44
102148.39
102173.83
102158.56
102143.9
102106.45
102071.31
102033.24
101998.5
101962.74
101930.72
101898.91
101871.45
101844.68
101822.77
101799.61
101779.08
101775.32
101760.11
)
;
    }
    procBoundary0to3
    {
        type            processor;
        value           nonuniform List<scalar> 7(100460.6 100460.6 100463.53 100463.53 100468 100468 100475.15);
    }
}


// ************************************************************************* //
