/*--------------------------------*- C++ -*----------------------------------*\
| =========                 |                                                 |
| \\      /  F ield         | OpenFOAM: The Open Source CFD Toolbox           |
|  \\    /   O peration     | Version:  2406                                  |
|   \\  /    A nd           | Website:  www.openfoam.com                      |
|    \\/     M anipulation  |                                                 |
\*---------------------------------------------------------------------------*/
FoamFile
{
    version     2.0;
    format      ascii;
    arch        "LSB;label=32;scalar=64";
    class       volScalarField;
    location    "0.00105933";
    object      T;
}
// * * * * * * * * * * * * * * * * * * * * * * * * * * * * * * * * * * * * * //

dimensions      [0 0 0 1 0 0 0];

internalField   nonuniform List<scalar> 
8951
(
293.87336
293.86608
293.85672
293.84539
293.83221
293.81742
293.80115
293.78355
293.76478
293.74497
293.72428
293.70281
293.68078
293.65827
293.6354
293.61232
293.58914
293.56601
293.54304
293.52037
293.49814
293.47646
293.45543
293.43513
293.41564
293.39701
293.37929
293.36251
293.3467
293.33187
293.31802
293.30516
293.29327
293.28235
293.27238
293.26335
293.25525
293.24805
293.24174
293.23629
293.23167
293.22786
293.22482
293.22251
293.22089
293.2199
293.2195
293.21964
293.22025
293.22129
293.22269
293.22439
293.22633
293.22847
293.23074
293.23307
293.23541
293.23769
293.23988
293.24197
293.24394
293.24575
293.2474
293.24888
293.25016
293.25116
293.25154
293.25075
293.24813
293.24158
293.22964
293.21617
293.20802
293.20702
293.21022
293.21632
293.2223
293.22728
293.23133
293.23476
293.23774
293.24061
293.24356
293.24682
293.25051
293.25472
293.25944
293.26464
293.27021
293.27596
293.28165
293.28704
293.29183
293.29584
293.29887
293.30085
293.30173
293.30164
293.30067
293.29884
293.29611
293.29246
293.28781
293.28209
293.27529
293.26742
293.25856
293.24881
293.23828
293.22709
293.21537
293.20323
293.19088
293.17855
293.16645
293.1548
293.14378
293.13352
293.12408
293.11546
293.10766
293.10067
293.09449
293.08913
293.08457
293.08077
293.07763
293.07504
293.07289
293.07108
293.06954
293.06819
293.06701
293.06593
293.06495
293.06405
293.06324
293.06255
293.06204
293.06173
293.06165
293.06181
293.06214
293.06258
293.06304
293.06346
293.06382
293.06407
293.06418
293.06403
293.06353
293.06264
293.06143
293.06008
293.05885
293.05818
293.05842
293.06087
293.06633
293.07598
293.09177
293.11564
293.1495
293.1944
293.25091
293.31679
293.38656
293.45061
293.49665
293.51059
293.48717
293.42287
293.3087
293.17963
293.07325
293.01313
292.9851
293.87113
293.86495
293.8567
293.84653
293.83446
293.82072
293.80553
293.78902
293.77134
293.75261
293.73297
293.71254
293.6914
293.66982
293.64782
293.62554
293.60309
293.58059
293.55818
293.53596
293.51404
293.49254
293.47159
293.45127
293.43164
293.41278
293.39474
293.37757
293.3613
293.34595
293.33153
293.31805
293.3055
293.2939
293.28322
293.27346
293.26461
293.25665
293.24957
293.24335
293.23796
293.23338
293.22958
293.22652
293.22417
293.22249
293.22142
293.22092
293.22094
293.22142
293.22231
293.22354
293.22507
293.22684
293.2288
293.23089
293.23305
293.23522
293.23735
293.2394
293.24138
293.2433
293.24511
293.24681
293.24838
293.24976
293.2509
293.25142
293.25072
293.24812
293.24145
293.22943
293.21603
293.20823
293.20739
293.21068
293.21674
293.22263
293.22755
293.23159
293.23496
293.23795
293.24082
293.24381
293.24711
293.25085
293.25509
293.25985
293.26508
293.27067
293.27641
293.28208
293.28741
293.29214
293.29607
293.29903
293.30094
293.30174
293.30161
293.30058
293.29869
293.29592
293.29221
293.28751
293.28173
293.27489
293.26698
293.25808
293.2483
293.23775
293.22654
293.21481
293.20268
293.19034
293.17803
293.16595
293.15435
293.14337
293.13315
293.12375
293.11517
293.10741
293.10045
293.09431
293.08898
293.08445
293.08068
293.07756
293.07499
293.07285
293.07105
293.06952
293.06818
293.06701
293.06593
293.06495
293.06406
293.06325
293.06257
293.06205
293.06175
293.06167
293.06183
293.06215
293.06258
293.06303
293.06344
293.06378
293.06402
293.06411
293.06394
293.06343
293.06253
293.06131
293.05996
293.05874
293.05808
293.05835
293.06086
293.06638
293.07608
293.09193
293.11586
293.14976
293.1947
293.25123
293.3171
293.38684
293.45081
293.49675
293.5107
293.4872
293.42287
293.30849
293.17939
293.07328
293.01337
292.98498
293.86345
293.85624
293.84714
293.83624
293.82357
293.80941
293.79393
293.77727
293.75958
293.74095
293.72151
293.70137
293.68061
293.65949
293.63801
293.6163
293.59448
293.57265
293.55094
293.52942
293.50821
293.48743
293.46716
293.4475
293.42851
293.41025
293.39277
293.37611
293.36031
293.34538
293.33135
293.31821
293.30597
293.29463
293.28418
293.27461
293.26592
293.2581
293.25112
293.24497
293.23963
293.23508
293.23128
293.22821
293.22581
293.22406
293.22291
293.22231
293.2222
293.22255
293.22329
293.22437
293.22573
293.22733
293.22911
293.23103
293.23302
293.23503
293.23702
293.23894
293.24081
293.2427
293.24452
293.24628
293.24793
293.24943
293.2507
293.25135
293.25074
293.24816
293.24136
293.22921
293.21591
293.20841
293.20773
293.21111
293.21713
293.22295
293.2278
293.23181
293.23515
293.23814
293.24104
293.24406
293.24739
293.25117
293.25547
293.26026
293.26552
293.27111
293.27684
293.28249
293.28778
293.29245
293.29631
293.29919
293.30103
293.30175
293.30158
293.3005
293.29856
293.29574
293.29198
293.28722
293.2814
293.2745
293.26655
293.25762
293.24781
293.23724
293.22601
293.21428
293.20214
293.18982
293.17752
293.16548
293.15391
293.14297
293.1328
293.12344
293.11489
293.10717
293.10024
293.09414
293.08884
293.08434
293.08059
293.0775
293.07494
293.07282
293.07103
293.06951
293.06818
293.06701
293.06594
293.06496
293.06407
293.06327
293.06258
293.06207
293.06177
293.0617
293.06185
293.06217
293.06258
293.06302
293.06342
293.06374
293.06397
293.06404
293.06385
293.06332
293.06241
293.06118
293.05984
293.05863
293.05797
293.05828
293.06086
293.06643
293.07618
293.09208
293.11607
293.15001
293.19497
293.25152
293.31738
293.38708
293.45098
293.49683
293.51078
293.48722
293.42286
293.30829
293.17919
293.07335
293.01366
292.9849
293.85547
293.84735
293.83749
293.82596
293.81283
293.79834
293.78267
293.76595
293.74831
293.72983
293.71062
293.69079
293.67042
293.64978
293.62881
293.60768
293.58647
293.56529
293.54424
293.5234
293.50287
293.48275
293.46313
293.4441
293.42571
293.40801
293.39105
293.37488
293.35952
293.34499
293.33131
293.31849
293.30654
293.29544
293.2852
293.27581
293.26727
293.25957
293.25268
293.2466
293.2413
293.23677
293.23296
293.22986
293.22742
293.2256
293.22436
293.22365
293.22343
293.22364
293.22423
293.22515
293.22635
293.22778
293.22939
293.23114
293.23297
293.23482
293.23667
293.23848
293.24028
293.24215
293.24399
293.24581
293.24754
293.24915
293.25055
293.25133
293.2508
293.24823
293.2413
293.22902
293.21581
293.20858
293.20804
293.21152
293.2175
293.22324
293.22804
293.232
293.23533
293.23833
293.24124
293.24429
293.24767
293.2515
293.25583
293.26066
293.26594
293.27154
293.27727
293.28289
293.28813
293.29274
293.29653
293.29934
293.30111
293.30176
293.30155
293.30041
293.29843
293.29556
293.29175
293.28694
293.28107
293.27413
293.26614
293.25717
293.24733
293.23675
293.22551
293.21377
293.20163
293.18932
293.17704
293.16503
293.15349
293.1426
293.13246
293.12314
293.11463
293.10694
293.10005
293.09397
293.08871
293.08424
293.08051
293.07744
293.0749
293.07279
293.07101
293.0695
293.06818
293.06701
293.06594
293.06497
293.06408
293.06328
293.0626
293.06209
293.06179
293.06172
293.06186
293.06218
293.06259
293.06301
293.06339
293.06371
293.06391
293.06396
293.06376
293.06321
293.06228
293.06105
293.05971
293.05851
293.05786
293.05821
293.06085
293.06648
293.07628
293.09223
293.11627
293.15024
293.19523
293.2518
293.31764
293.3873
293.45112
293.49688
293.51083
293.48725
293.42285
293.3081
293.17901
293.07344
293.01397
292.98486
293.85458
293.8473
293.83838
293.82787
293.81582
293.80232
293.78761
293.77183
293.75511
293.73755
293.71925
293.70031
293.68081
293.66086
293.64068
293.62023
293.59965
293.57904
293.55848
293.53806
293.51787
293.49797
293.47849
293.45949
293.44104
293.42321
293.40603
293.38957
293.37385
293.3589
293.34475
293.33141
293.31888
293.30719
293.29632
293.28628
293.27705
293.26865
293.26105
293.25425
293.24822
293.24296
293.23844
293.23462
293.23149
293.229
293.2271
293.22577
293.22496
293.22461
293.22469
293.22513
293.2259
293.22693
293.2282
293.22965
293.23124
293.2329
293.23462
293.23634
293.23805
293.2398
293.24165
293.24352
293.24539
293.2472
293.24893
293.25045
293.25135
293.25089
293.24834
293.24127
293.22886
293.21575
293.20872
293.20834
293.21191
293.21784
293.22351
293.22826
293.23219
293.23551
293.23851
293.24144
293.24452
293.24794
293.25181
293.25618
293.26105
293.26635
293.27196
293.27767
293.28326
293.28846
293.29302
293.29674
293.29949
293.30118
293.30177
293.30151
293.30032
293.2983
293.29538
293.29153
293.28667
293.28075
293.27377
293.26574
293.25674
293.24688
293.23628
293.22502
293.21328
293.20114
293.18884
293.17658
293.1646
293.1531
293.14224
293.13214
293.12285
293.11438
293.10673
293.09987
293.09382
293.08859
293.08414
293.08044
293.07738
293.07486
293.07277
293.071
293.06949
293.06818
293.06701
293.06595
293.06499
293.0641
293.0633
293.06263
293.06211
293.06182
293.06174
293.06188
293.06219
293.06259
293.063
293.06337
293.06366
293.06385
293.06389
293.06366
293.0631
293.06216
293.06092
293.05958
293.05839
293.05775
293.05813
293.06083
293.06652
293.07637
293.09237
293.11646
293.15046
293.19548
293.25205
293.31788
293.3875
293.45125
293.49692
293.51086
293.48727
293.42285
293.30791
293.17885
293.07356
293.0143
292.98485
293.84716
293.83906
293.82946
293.8184
293.80592
293.79214
293.77728
293.76145
293.74477
293.72734
293.70925
293.69059
293.67143
293.6519
293.63218
293.61223
293.5922
293.57216
293.55219
293.53238
293.51279
293.4935
293.47461
293.45619
293.4383
293.42099
293.40431
293.38831
293.37301
293.35845
293.34465
293.33162
293.31937
293.30792
293.29726
293.2874
293.27833
293.27005
293.26255
293.25582
293.24985
293.24461
293.24009
293.23626
293.23309
293.23054
293.22857
293.22715
293.22623
293.22576
293.2257
293.226
293.22661
293.22749
293.2286
293.22989
293.23132
293.23284
293.23441
293.23602
293.23764
293.23936
293.24121
293.24309
293.24502
293.24692
293.24875
293.2504
293.25142
293.25102
293.24849
293.24127
293.22873
293.2157
293.20886
293.20861
293.21227
293.21816
293.22376
293.22847
293.23236
293.23567
293.23868
293.24163
293.24475
293.2482
293.25211
293.25652
293.26142
293.26674
293.27236
293.27806
293.28362
293.28878
293.29328
293.29694
293.29962
293.30124
293.30178
293.30147
293.30024
293.29817
293.29521
293.29131
293.28641
293.28045
293.27342
293.26535
293.25632
293.24645
293.23583
293.22456
293.21281
293.20068
293.18839
293.17615
293.16419
293.15272
293.1419
293.13184
293.12259
293.11415
293.10653
293.0997
293.09368
293.08847
293.08405
293.08037
293.07733
293.07483
293.07275
293.07099
293.06949
293.06818
293.06702
293.06597
293.065
293.06412
293.06332
293.06265
293.06214
293.06184
293.06177
293.0619
293.0622
293.06259
293.06299
293.06334
293.06362
293.06379
293.0638
293.06356
293.06298
293.06202
293.06078
293.05944
293.05826
293.05763
293.05806
293.06082
293.06655
293.07645
293.09251
293.11664
293.15067
293.1957
293.25229
293.3181
293.38768
293.45136
293.49696
293.51088
293.4873
293.42285
293.30774
293.17872
293.07368
293.01463
292.98485
293.83967
293.83087
293.82069
293.80916
293.79634
293.78236
293.7674
293.75156
293.73496
293.71769
293.69982
293.68145
293.66265
293.64354
293.62426
293.60481
293.5853
293.56581
293.54641
293.52716
293.50815
293.48943
293.4711
293.45323
293.43586
293.41904
293.40283
293.38725
293.37235
293.35815
293.34467
293.33194
293.31995
293.30873
293.29826
293.28857
293.27964
293.27147
293.26406
293.25739
293.25146
293.24624
293.24172
293.23787
293.23466
293.23205
293.23001
293.22849
293.22746
293.22687
293.22668
293.22683
293.2273
293.22802
293.22898
293.23011
293.23139
293.23277
293.23422
293.23572
293.23728
293.23897
293.24081
293.24272
293.2447
293.24669
293.24863
293.25039
293.25152
293.25118
293.24866
293.24131
293.22863
293.21566
293.20899
293.20887
293.2126
293.21845
293.224
293.22866
293.23253
293.23583
293.23885
293.24182
293.24496
293.24846
293.25241
293.25685
293.26178
293.26713
293.27275
293.27844
293.28397
293.28908
293.29353
293.29712
293.29974
293.30129
293.30179
293.30142
293.30015
293.29804
293.29504
293.29111
293.28616
293.28015
293.27309
293.26499
293.25593
293.24603
293.2354
293.22412
293.21237
293.20024
293.18795
293.17574
293.16381
293.15237
293.14159
293.13156
293.12234
293.11394
293.10634
293.09954
293.09355
293.08837
293.08397
293.08031
293.07729
293.0748
293.07273
293.07098
293.06949
293.06819
293.06703
293.06598
293.06502
293.06414
293.06335
293.06268
293.06216
293.06187
293.06179
293.06192
293.06222
293.06259
293.06297
293.06331
293.06357
293.06372
293.06372
293.06345
293.06285
293.06188
293.06064
293.0593
293.05813
293.05752
293.05798
293.0608
293.06658
293.07654
293.09264
293.11681
293.15086
293.19591
293.2525
293.3183
293.38784
293.45146
293.49698
293.51088
293.48733
293.42286
293.30758
293.1786
293.07381
293.01496
292.98486
293.83225
293.82284
293.81216
293.80023
293.78714
293.77301
293.75799
293.74219
293.7257
293.7086
293.69097
293.6729
293.65445
293.63576
293.61691
293.59794
293.57893
293.55996
293.54109
293.52239
293.50391
293.48574
293.46794
293.45058
293.43369
293.41734
293.40156
293.38639
293.37186
293.35799
293.34482
293.33236
293.32061
293.3096
293.29931
293.28977
293.28097
293.2729
293.26557
293.25896
293.25307
293.24786
293.24334
293.23946
293.2362
293.23353
293.23141
293.2298
293.22866
293.22795
293.22762
293.22764
293.22796
293.22853
293.22934
293.23033
293.23146
293.23271
293.23404
293.23545
293.23695
293.23862
293.24046
293.2424
293.24443
293.24651
293.24856
293.25043
293.25166
293.25138
293.24887
293.24137
293.22856
293.21563
293.20911
293.2091
293.21292
293.21872
293.22421
293.22884
293.23268
293.23597
293.239
293.24199
293.24517
293.24871
293.25269
293.25718
293.26214
293.2675
293.27312
293.2788
293.2843
293.28937
293.29376
293.2973
293.29986
293.30134
293.3018
293.30138
293.30007
293.29792
293.29488
293.29091
293.28591
293.27987
293.27277
293.26464
293.25555
293.24564
293.235
293.22371
293.21195
293.19982
293.18755
293.17535
293.16345
293.15204
293.14129
293.13129
293.12211
293.11373
293.10616
293.09939
293.09342
293.08827
293.08389
293.08025
293.07725
293.07478
293.07272
293.07098
293.06949
293.0682
293.06705
293.066
293.06504
293.06416
293.06337
293.0627
293.06219
293.06189
293.06181
293.06194
293.06223
293.06259
293.06296
293.06328
293.06352
293.06365
293.06363
293.06334
293.06272
293.06174
293.06049
293.05915
293.05799
293.05739
293.0579
293.06077
293.06661
293.07661
293.09276
293.11698
293.15104
293.19611
293.2527
293.31848
293.38798
293.45154
293.497
293.51087
293.48737
293.42287
293.30742
293.17849
293.07395
293.01528
292.98488
293.83368
293.82499
293.81505
293.80393
293.79167
293.77837
293.76413
293.74909
293.73335
293.71698
293.70007
293.68269
293.66492
293.64683
293.62853
293.61011
293.59158
293.57306
293.55458
293.53622
293.51803
293.50007
293.48241
293.4651
293.44821
293.43179
293.41587
293.40049
293.3857
293.37152
293.35797
293.34508
293.33287
293.32135
293.31052
293.30041
293.29101
293.28232
293.27435
293.26709
293.26053
293.25466
293.24947
293.24493
293.24102
293.23771
293.23498
293.23278
293.23107
293.22982
293.22899
293.22854
293.22842
293.2286
293.22903
293.22969
293.23053
293.23153
293.23266
293.23388
293.23521
293.23667
293.23832
293.24016
293.24213
293.24422
293.24638
293.24853
293.25052
293.25184
293.25162
293.24909
293.24145
293.22852
293.2156
293.20923
293.20933
293.2132
293.21897
293.22441
293.229
293.23282
293.23611
293.23915
293.24216
293.24538
293.24894
293.25297
293.25749
293.26247
293.26785
293.27348
293.27914
293.28462
293.28965
293.29399
293.29747
293.29996
293.30138
293.30181
293.30134
293.29999
293.2978
293.29473
293.29071
293.28568
293.27961
293.27247
293.2643
293.25519
293.24527
293.23461
293.22331
293.21155
293.19943
293.18716
293.17498
293.1631
293.15173
293.14101
293.13104
293.12189
293.11354
293.106
293.09925
293.09331
293.08818
293.08383
293.0802
293.07722
293.07476
293.07271
293.07098
293.0695
293.06821
293.06706
293.06602
293.06507
293.06419
293.0634
293.06273
293.06222
293.06192
293.06184
293.06196
293.06224
293.06259
293.06294
293.06324
293.06347
293.06357
293.06353
293.06322
293.06258
293.06159
293.06033
293.059
293.05785
293.05727
293.05782
293.06074
293.06663
293.07668
293.09287
293.11713
293.1512
293.19629
293.25288
293.31864
293.3881
293.4516
293.497
293.51086
293.4874
293.42289
293.30728
293.17841
293.07409
293.01559
292.98491
293.82723
293.81796
293.80755
293.79605
293.78353
293.77005
293.75575
293.74071
293.72504
293.70881
293.6921
293.67497
293.65749
293.63975
293.62183
293.60382
293.58573
293.56766
293.54966
293.53177
293.51406
293.49659
293.4794
293.46256
293.44613
293.43013
293.41461
293.39962
293.38518
293.37132
293.35806
293.34544
293.33346
293.32215
293.31151
293.30155
293.29228
293.2837
293.27581
293.26861
293.26209
293.25625
293.25106
293.2465
293.24256
293.2392
293.2364
293.23412
293.23232
293.23096
293.23001
293.22943
293.22918
293.22922
293.22951
293.23003
293.23074
293.23161
293.23262
293.23375
293.23501
293.23642
293.23806
293.23991
293.24191
293.24405
293.2463
293.24855
293.25064
293.25205
293.25188
293.24934
293.24156
293.22849
293.21558
293.20935
293.20953
293.21347
293.2192
293.22459
293.22915
293.23295
293.23624
293.23929
293.24232
293.24557
293.24917
293.25323
293.25779
293.2628
293.26819
293.27382
293.27947
293.28492
293.28991
293.2942
293.29762
293.30006
293.30142
293.30181
293.3013
293.29992
293.29769
293.29458
293.29053
293.28546
293.27935
293.27218
293.26399
293.25485
293.24491
293.23425
293.22294
293.21118
293.19905
293.1868
293.17464
293.16278
293.15143
293.14074
293.13081
293.12169
293.11337
293.10585
293.09913
293.09321
293.0881
293.08376
293.08016
293.07719
293.07474
293.0727
293.07098
293.06951
293.06822
293.06708
293.06604
293.06509
293.06421
293.06343
293.06276
293.06225
293.06195
293.06186
293.06198
293.06225
293.06258
293.06292
293.0632
293.06341
293.06349
293.06343
293.0631
293.06244
293.06144
293.06017
293.05884
293.05771
293.05714
293.05774
293.06071
293.06665
293.07675
293.09298
293.11727
293.15135
293.19645
293.25304
293.31878
293.38821
293.45165
293.497
293.51083
293.48744
293.4229
293.30716
293.17833
293.07424
293.01591
292.98494
293.82099
293.81122
293.8004
293.78858
293.77582
293.76222
293.74787
293.73286
293.71728
293.70119
293.68468
293.6678
293.65062
293.63321
293.61566
293.59803
293.58036
293.56272
293.54516
293.52772
293.51047
293.49345
293.47671
293.46031
293.44429
293.4287
293.41356
293.39892
293.38481
293.37125
293.35827
293.34589
293.33413
293.32301
293.31254
293.30272
293.29357
293.28509
293.27728
293.27013
293.26365
293.25782
293.25263
293.24805
293.24408
293.24067
293.2378
293.23543
293.23354
293.23207
293.23101
293.2303
293.22992
293.22982
293.22998
293.23036
293.23095
293.2317
293.2326
293.23365
293.23484
293.23622
293.23785
293.2397
293.24174
293.24394
293.24626
293.24861
293.25079
293.25228
293.25216
293.24961
293.24169
293.22848
293.21557
293.20945
293.20972
293.2137
293.2194
293.22475
293.22928
293.23307
293.23635
293.23941
293.24248
293.24575
293.24939
293.25349
293.25807
293.26311
293.26852
293.27415
293.27979
293.28521
293.29016
293.2944
293.29777
293.30015
293.30146
293.30181
293.30126
293.29984
293.29759
293.29444
293.29036
293.28525
293.27911
293.27191
293.26369
293.25453
293.24458
293.23391
293.2226
293.21083
293.19871
293.18646
293.17432
293.16248
293.15116
293.1405
293.1306
293.1215
293.11321
293.10571
293.09901
293.09311
293.08802
293.08371
293.08012
293.07716
293.07473
293.0727
293.07099
293.06952
293.06824
293.0671
293.06607
293.06512
293.06424
293.06346
293.06279
293.06228
293.06198
293.06189
293.062
293.06225
293.06258
293.0629
293.06316
293.06334
293.06341
293.06332
293.06297
293.06229
293.06128
293.06001
293.05868
293.05756
293.05701
293.05765
293.06068
293.06666
293.0768
293.09308
293.1174
293.15149
293.19659
293.25318
293.31889
293.38829
293.45169
293.49699
293.5108
293.48747
293.42293
293.30704
293.17828
293.0744
293.01622
292.98499
293.81503
293.80482
293.79363
293.78154
293.76859
293.75488
293.7405
293.72553
293.71005
293.69411
293.6778
293.66116
293.64426
293.62717
293.60997
293.59271
293.57544
293.5582
293.54106
293.52405
293.50723
293.49063
293.47432
293.45832
293.4427
293.42748
293.41269
293.39838
293.38458
293.3713
293.35857
293.34643
293.33487
293.32393
293.31361
293.30393
293.29489
293.28649
293.27875
293.27166
293.2652
293.25938
293.25418
293.24959
293.24557
293.2421
293.23916
293.23672
293.23473
293.23316
293.23198
293.23115
293.23064
293.23041
293.23044
293.2307
293.23116
293.2318
293.23261
293.23357
293.23471
293.23607
293.23769
293.23955
293.24162
293.24387
293.24627
293.24871
293.25098
293.25254
293.25246
293.24989
293.24184
293.22849
293.21557
293.20955
293.20989
293.21391
293.21958
293.2249
293.2294
293.23317
293.23646
293.23953
293.24262
293.24593
293.24961
293.25373
293.25835
293.26341
293.26883
293.27446
293.28009
293.28548
293.29039
293.29459
293.29791
293.30024
293.3015
293.30181
293.30122
293.29977
293.29748
293.2943
293.29019
293.28505
293.27888
293.27165
293.2634
293.25423
293.24427
293.23359
293.22228
293.2105
293.19838
293.18615
293.17402
293.16221
293.15091
293.14028
293.13041
293.12133
293.11306
293.10559
293.0989
293.09302
293.08795
293.08366
293.08008
293.07714
293.07472
293.0727
293.07099
293.06953
293.06826
293.06712
293.06609
293.06515
293.06427
293.06349
293.06283
293.06231
293.062
293.06191
293.06201
293.06226
293.06257
293.06287
293.06311
293.06327
293.06332
293.06321
293.06284
293.06214
293.06111
293.05984
293.05851
293.0574
293.05688
293.05757
293.06064
293.06666
293.07686
293.09317
293.11752
293.15161
293.19672
293.2533
293.31899
293.38835
293.4517
293.49696
293.51077
293.4875
293.42295
293.30695
293.17824
293.07456
293.01652
292.98503
293.80941
293.7988
293.78728
293.77494
293.76184
293.74804
293.73365
293.71873
293.70334
293.68756
293.67144
293.65503
293.63841
293.62163
293.60476
293.58785
293.57094
293.5541
293.53735
293.52074
293.50432
293.48812
293.47219
293.45658
293.44133
293.42645
293.412
293.398
293.38448
293.37146
293.35898
293.34704
293.33568
293.3249
293.31472
293.30516
293.29622
293.28791
293.28023
293.27317
293.26675
293.26093
293.25572
293.2511
293.24704
293.24352
293.24051
293.23798
293.2359
293.23422
293.23293
293.23198
293.23135
293.231
293.2309
293.23104
293.23138
293.23192
293.23263
293.23353
293.23462
293.23595
293.23757
293.23944
293.24154
293.24385
293.24632
293.24884
293.2512
293.25282
293.25279
293.25019
293.242
293.2285
293.21558
293.20965
293.21004
293.2141
293.21974
293.22502
293.2295
293.23326
293.23656
293.23964
293.24276
293.2461
293.24981
293.25397
293.25861
293.2637
293.26913
293.27476
293.28037
293.28574
293.29061
293.29476
293.29803
293.30031
293.30153
293.30181
293.30118
293.2997
293.29738
293.29418
293.29004
293.28486
293.27867
293.27141
293.26314
293.25395
293.24399
293.23329
293.22198
293.2102
293.19809
293.18586
293.17374
293.16195
293.15068
293.14007
293.13023
293.12117
293.11292
293.10547
293.09881
293.09294
293.08789
293.08361
293.08005
293.07712
293.07471
293.0727
293.071
293.06954
293.06828
293.06715
293.06612
293.06518
293.06431
293.06353
293.06286
293.06235
293.06203
293.06193
293.06202
293.06226
293.06256
293.06284
293.06306
293.0632
293.06322
293.06309
293.0627
293.06198
293.06094
293.05966
293.05833
293.05724
293.05675
293.05749
293.06059
293.06666
293.0769
293.09325
293.11763
293.15171
293.19682
293.2534
293.31906
293.38839
293.45171
293.49693
293.51072
293.48753
293.42298
293.30687
293.17822
293.07473
293.01682
292.98509
293.80415
293.79318
293.78137
293.76881
293.75557
293.74171
293.72731
293.71244
293.69716
293.68152
293.66558
293.6494
293.63304
293.61655
293.59999
293.58342
293.56686
293.55037
293.53399
293.51776
293.50171
293.48589
293.47033
293.45508
293.44016
293.42562
293.41147
293.39776
293.3845
293.37173
293.35946
293.34773
293.33654
293.32592
293.31587
293.30642
293.29758
293.28934
293.28171
293.27469
293.26828
293.26247
293.25725
293.2526
293.24849
293.24491
293.24183
293.23922
293.23704
293.23527
293.23387
293.2328
293.23205
293.23158
293.23136
293.23138
293.23162
293.23206
293.23269
293.23351
293.23457
293.23588
293.23749
293.23937
293.2415
293.24387
293.24642
293.24901
293.25144
293.25313
293.25313
293.25051
293.24219
293.22853
293.2156
293.20973
293.21017
293.21426
293.21987
293.22513
293.22958
293.23334
293.23664
293.23974
293.24288
293.24625
293.24999
293.25419
293.25886
293.26396
293.26941
293.27504
293.28064
293.28598
293.29082
293.29492
293.29815
293.30038
293.30155
293.30181
293.30114
293.29963
293.29729
293.29406
293.28989
293.28468
293.27847
293.27118
293.2629
293.25369
293.24372
293.23301
293.2217
293.20992
293.19781
293.18559
293.17349
293.16172
293.15047
293.13989
293.13006
293.12103
293.1128
293.10537
293.09872
293.09287
293.08784
293.08357
293.08003
293.07711
293.07471
293.07271
293.07101
293.06956
293.0683
293.06717
293.06615
293.06521
293.06434
293.06356
293.06289
293.06238
293.06206
293.06195
293.06204
293.06226
293.06254
293.06281
293.06301
293.06312
293.06312
293.06297
293.06255
293.06181
293.06076
293.05948
293.05815
293.05708
293.05662
293.0574
293.06055
293.06666
293.07694
293.09332
293.11772
293.15179
293.19691
293.25348
293.31912
293.38842
293.45169
293.49689
293.51068
293.48755
293.42301
293.30681
293.17822
293.07491
293.01712
292.98515
293.80978
293.79929
293.78798
293.77591
293.76316
293.74979
293.73588
293.72148
293.70666
293.69147
293.67598
293.66022
293.64426
293.62814
293.61192
293.59566
293.57939
293.56316
293.54701
293.53098
293.5151
293.4994
293.48393
293.46871
293.45379
293.4392
293.42496
293.4111
293.39765
293.38464
293.3721
293.36004
293.34848
293.33746
293.32698
293.31706
293.30771
293.29894
293.29077
293.28319
293.2762
293.26981
293.264
293.25876
293.25407
293.24992
293.24629
293.24314
293.24044
293.23817
293.2363
293.23479
293.23361
293.23275
293.23216
293.23183
293.23174
293.23187
293.23221
293.23277
293.23354
293.23455
293.23585
293.23745
293.23935
293.24152
293.24393
293.24655
293.24921
293.25171
293.25345
293.25349
293.25084
293.24241
293.22857
293.21563
293.20981
293.21029
293.21439
293.21998
293.22521
293.22965
293.2334
293.23671
293.23983
293.243
293.2464
293.25017
293.25439
293.25909
293.26422
293.26967
293.2753
293.28088
293.2862
293.291
293.29507
293.29825
293.30044
293.30157
293.3018
293.3011
293.29957
293.2972
293.29394
293.28975
293.28452
293.27829
293.27097
293.26267
293.25345
293.24348
293.23276
293.22145
293.20967
293.19756
293.18535
293.17326
293.16151
293.15028
293.13972
293.12992
293.12091
293.1127
293.10528
293.09865
293.09281
293.08779
293.08354
293.08001
293.0771
293.07471
293.07271
293.07102
293.06958
293.06832
293.0672
293.06618
293.06524
293.06437
293.06359
293.06293
293.06241
293.06209
293.06198
293.06205
293.06226
293.06253
293.06277
293.06295
293.06304
293.06302
293.06284
293.0624
293.06164
293.06058
293.05929
293.05797
293.05691
293.05649
293.05731
293.0605
293.06665
293.07697
293.09338
293.1178
293.15186
293.19698
293.25354
293.31915
293.38842
293.45166
293.49684
293.51063
293.48757
293.42304
293.30676
293.17823
293.0751
293.01741
292.98522
293.80572
293.79483
293.78321
293.7709
293.75798
293.74451
293.73054
293.71614
293.70137
293.68628
293.67091
293.65533
293.63956
293.62368
293.60772
293.59173
293.57575
293.55983
293.544
293.52829
293.51273
293.49736
293.48222
293.46732
293.45271
293.43841
293.42446
293.41087
293.39767
293.38489
293.37255
293.36068
293.3493
293.33843
293.32808
293.31827
293.30902
293.30033
293.29221
293.28468
293.27772
293.27133
293.26551
293.26025
293.25554
293.25134
293.24764
293.24442
293.24164
293.23928
293.23731
293.2357
293.23441
293.23344
293.23274
293.2323
293.2321
293.23214
293.2324
293.23288
293.2336
293.23458
293.23586
293.23746
293.23937
293.24157
293.24404
293.24671
293.24944
293.252
293.25379
293.25387
293.25119
293.24264
293.22864
293.21567
293.20987
293.21038
293.21449
293.22006
293.22527
293.2297
293.23345
293.23677
293.23991
293.2431
293.24653
293.25033
293.25459
293.25931
293.26445
293.26992
293.27554
293.28112
293.28641
293.29118
293.29521
293.29835
293.3005
293.30159
293.30179
293.30106
293.29951
293.29712
293.29384
293.28962
293.28437
293.27812
293.27078
293.26246
293.25323
293.24325
293.23253
293.22123
293.20944
293.19734
293.18513
293.17306
293.16132
293.15011
293.13958
293.12979
293.1208
293.1126
293.1052
293.09858
293.09276
293.08775
293.08351
293.07999
293.07709
293.07471
293.07272
293.07104
293.0696
293.06834
293.06722
293.06621
293.06527
293.06441
293.06363
293.06296
293.06244
293.06211
293.062
293.06206
293.06226
293.06251
293.06273
293.06289
293.06296
293.06291
293.06271
293.06225
293.06147
293.06039
293.0591
293.05778
293.05673
293.05636
293.05722
293.06045
293.06663
293.07699
293.09344
293.11786
293.15191
293.19703
293.25358
293.31916
293.3884
293.45162
293.49678
293.51058
293.48759
293.42308
293.30674
293.17826
293.07529
293.0177
292.9853
293.80204
293.79079
293.77888
293.76636
293.75328
293.7397
293.72569
293.71129
293.69657
293.68156
293.66632
293.65089
293.63531
293.61964
293.60392
293.58819
293.57249
293.55685
293.54131
293.5259
293.51065
293.49559
293.48074
293.46615
293.45182
293.4378
293.42411
293.41077
293.3978
293.38524
293.3731
293.3614
293.35018
293.33944
293.32921
293.31951
293.31034
293.30173
293.29366
293.28616
293.27922
293.27284
293.26702
293.26174
293.25698
293.25274
293.24898
293.24569
293.24283
293.24038
293.23831
293.2366
293.23521
293.23412
293.23332
293.23278
293.23248
293.23243
293.23261
293.23302
293.23369
293.23465
293.23591
293.23751
293.23944
293.24167
293.24418
293.24691
293.2497
293.2523
293.25414
293.25425
293.25155
293.2429