/*--------------------------------*- C++ -*----------------------------------*\
| =========                 |                                                 |
| \\      /  F ield         | OpenFOAM: The Open Source CFD Toolbox           |
|  \\    /   O peration     | Version:  2406                                  |
|   \\  /    A nd           | Website:  www.openfoam.com                      |
|    \\/     M anipulation  |                                                 |
\*---------------------------------------------------------------------------*/
FoamFile
{
    version     2.0;
    format      ascii;
    arch        "LSB;label=32;scalar=64";
    class       volScalarField;
    location    "0.03";
    object      alphat;
}
// * * * * * * * * * * * * * * * * * * * * * * * * * * * * * * * * * * * * * //

dimensions      [1 -1 -1 0 0 0 0];

internalField   nonuniform List<scalar> 
2065
(
0.0016366324
0.0019520034
0.0022718257
0.0025899141
0.0029097249
0.00087171236
0.0010421123
0.0012528024
0.0014876684
0.0017445143
0.0006424359
0.00075666429
0.00089942457
0.0010896854
0.0010448465
0.0012440548
0.001447411
0.0019429382
0.0022227403
0.0025082534
0.0029230447
0.0033002106
0.0037535295
0.0043981049
0.0048665081
0.0043776044
0.0037696282
0.0029871968
0.0020471145
0.0023246542
0.0011274113
0.0013082791
0.00058188099
0.00067799903
0.00079110318
0.00059243142
0.00070473589
0.00084548564
0.0010189033
0.001053163
0.0012440145
0.0014672861
0.0017137928
0.0019869336
0.0038187551
0.0065094554
0.010305815
0.014678042
0.018603943
0.020931416
0.021091798
0.019439718
0.016794139
0.004070426
0.0067875177
0.01049175
0.014688497
0.018423207
0.020568273
0.02063819
0.018959904
0.016330663
0.0043363544
0.0070572588
0.010681845
0.014725924
0.018261519
0.020198837
0.02016875
0.018465171
0.015860544
0.0046098389
0.0073165758
0.010852776
0.014740381
0.018075859
0.019821345
0.01968881
0.017961403
0.01539179
0.0048904143
0.0075656242
0.011004582
0.014731532
0.017864123
0.019438553
0.019203841
0.0051746847
0.013772655
0.010601306
0.0073731135
0.0043093436
0.0017113451
0.0002071831
0.013396235
0.010306661
0.0071616183
0.0041868221
0.0016661587
0.00020323678
0.013000281
0.0099979871
0.0069456049
0.0040628235
0.0016182352
0.00019896999
0.012605528
0.0096922114
0.006735801
0.0039439577
0.0015762871
0.00019440685
0.035677165
0.025655939
0.016197798
0.0081320696
0.0024677957
0.00015348392
0.033285741
0.023876893
0.015068964
0.0076109915
0.0023652643
0.00015204175
0.030981416
0.022210383
0.014054367
0.0071714701
0.0022944618
0.00015089054
0.028790473
0.020643305
0.013101216
0.0067378924
0.0021899513
0.000150045
0.026724876
0.01917631
0.012214263
0.0063406653
0.0021088229
0.00014861713
0.024796643
0.017809045
0.011376725
0.0059381472
0.0019879282
0.00014766721
0.023002824
0.016535857
0.010594708
0.0055702304
0.0019009542
0.00014568544
0.021342429
0.015350245
0.0098496996
0.0051921812
0.0017753342
0.00014339128
0.019808671
0.014267738
0.0091867365
0.0048774329
0.0016950529
0.00014114886
0.018440317
0.013286766
0.0085702408
0.0045686514
0.0015983249
0.00013919802
0.017293533
0.0124764
0.0080691177
0.0043243104
0.0015301555
0.00013763936
0.016301236
0.011783846
0.0076429732
0.0041136116
0.0014641836
0.00013679053
0.015462819
0.011222244
0.0073143652
0.0039617189
0.001424094
0.00013681481
0.014725101
0.010711506
0.0070127897
0.0038263211
0.0013920684
0.00013754495
0.014167703
0.010338842
0.0067959695
0.0037290617
0.0013687432
0.00013928277
0.013755939
0.010076043
0.00665414
0.0036722294
0.0013581806
0.00014200406
0.013461225
0.009900399
0.0065676164
0.0036445736
0.0013589719
0.0001457308
0.013283847
0.0098161765
0.0065487949
0.0036584561
0.0013745257
0.00015053852
0.013198096
0.0097947329
0.0065648492
0.0036873373
0.0013965446
0.00015641799
0.013213025
0.0098674049
0.0066605104
0.0037699973
0.0014382281
0.00016346322
0.013274618
0.0099594536
0.0067515696
0.0038393248
0.0014765924
0.00017161238
0.01345733
0.010184403
0.0069699878
0.0040018261
0.0015512632
0.00018105124
0.013555681
0.010295169
0.0070645841
0.004070995
0.0015923272
0.00019152827
0.014096331
0.010868282
0.0075796213
0.0044389376
0.0017520025
0.00020421767
0.042671432
0.051001346
0.059771025
0.067492528
0.072007375
0.071479104
0.065764408
0.056489182
0.045965529
0.039723743
0.047868817
0.05643891
0.0638977
0.068184009
0.067581541
0.062055234
0.053122742
0.043049729
0.037083316
0.044941645
0.05321473
0.060364987
0.064405821
0.0637311
0.058372283
0.049790615
0.040192695
0.03466765
0.042192451
0.050115153
0.056925035
0.060700559
0.059953367
0.054757286
0.046542152
0.037439702
0.032429623
0.039585289
0.047134966
0.053583044
0.057086513
0.056277022
0.051246411
0.043413429
0.034815689
0.030346342
0.037123671
0.044261789
0.050342961
0.053583605
0.052724721
0.047874895
0.040437287
0.032346682
0.028409469
0.03484932
0.041548159
0.047210161
0.050195455
0.04931698
0.044669037
0.037633211
0.030037597
0.026552511
0.032639275
0.038990896
0.044289907
0.046992368
0.046055533
0.041624694
0.035004289
0.027894111
0.024847256
0.030564494
0.03654098
0.041545837
0.044053271
0.043078261
0.038817896
0.03255877
0.02589935
0.023162223
0.028574619
0.034219999
0.038927379
0.041292963
0.040360003
0.036322601
0.03040584
0.024137781
0.021730882
0.02679652
0.032088721
0.036504082
0.038710057
0.037833142
0.03405958
0.028511489
0.022629666
0.020418731
0.025173342
0.030136595
0.034283463
0.036356889
0.035532881
0.031994308
0.026805615
0.021301003
0.019108577
0.023584588
0.028284238
0.032245467
0.034241111
0.033488394
0.030183134
0.025318011
0.020149836
0.017811177
0.02205332
0.026534287
0.030352601
0.032325451
0.031691339
0.028621182
0.024041707
0.019157946
0.016587026
0.02061707
0.024909983
0.028621217
0.030612151
0.03011862
0.027297719
0.023003862
0.018380277
0.015408969
0.019255218
0.023398086
0.027040245
0.029091734
0.02876033
0.026189053
0.022170935
0.01778041
0.014257879
0.017941929
0.021966342
0.025573353
0.027733141
0.027586424
0.025261146
0.021513625
0.017329537
0.013089322
0.016635478
0.020574847
0.02418325
0.026489877
0.026561039
0.024483123
0.021010123
0.017013374
0.011893209
0.01532014
0.019200683
0.022850454
0.025320862
0.02565481
0.02382678
0.020636288
0.016822798
0.010585781
0.013908659
0.017762042
0.021502933
0.024174794
0.024822718
0.023251333
0.020343406
0.01672696
0.0092186996
0.012490509
0.016346134
0.020188676
0.023060649
0.024058743
0.022778468
0.020138431
0.016702008
0.0075938826
0.010715248
0.014598292
0.01864381
0.021834834
0.023255307
0.022365771
0.01999721
0.016776701
0.0062538336
0.009396349
0.013272233
0.017414941
0.020805798
0.022436552
0.02197634
0.019848559
0.016801786
0.0037267867
0.0065099811
0.010447674
0.014964631
0.018996698
0.021414344
0.02158938
0.019894958
0.01719588
0.00041394702
0.0035797348
0.0093563471
0.016694784
0.025021638
0.034063722
0.00039152673
0.0033219314
0.0086546976
0.01544884
0.023218147
0.031671535
0.00037121995
0.0030911374
0.0080395073
0.014345685
0.021581965
0.029471533
0.00035286171
0.0028640424
0.0074771309
0.013351509
0.020103608
0.02748053
0.00033655942
0.0026588337
0.0069738932
0.01246014
0.018765419
0.025663426
0.00032168753
0.0024442027
0.0064734286
0.011605545
0.017502769
0.023954067
0.00030876185
0.002289219
0.0060740458
0.010873316
0.016377578
0.022397587
0.00029671183
0.0020809001
0.00559599
0.010086924
0.015247569
0.020888075
0.00028666988
0.00198252
0.0053159789
0.0095164149
0.01431636
0.019556137
0.00027706613
0.0017827715
0.0048285799
0.0087338631
0.013240654
0.018168185
0.0002689145
0.0016769839
0.0045806252
0.0082780207
0.012499995
0.017082399
0.00026307699
0.0016636886
0.0044203667
0.007875162
0.011807727
0.016073052
0.00025754503
0.0015458091
0.0041696723
0.0074100906
0.011078895
0.015048834
0.00025245907
0.0013544094
0.0037814973
0.0068278588
0.010274133
0.013993453
0.00024710632
0.0012314095
0.0034792914
0.0063050002
0.0095198755
0.012996246
0.00024202831
0.0011145269
0.0031836171
0.0057922354
0.0087807128
0.012025721
0.00023770498
0.00099463883
0.0028871773
0.0052888393
0.0080523893
0.011069576
0.00023085008
0.00087139379
0.0025699787
0.0047459347
0.0072841599
0.010080235
0.00022063195
0.00072938087
0.0022210306
0.0041780704
0.006486235
0.009054473
0.00020628771
0.00058069363
0.0018078145
0.0035019681
0.0055669567
0.0079046923
0.00018907319
0.00041039206
0.0013080972
0.0027672609
0.0045620079
0.006655507
0.00015014725
0.0002717792
0.0007569835
0.0018672497
0.003434502
0.0052597296
7.4890907e-05
0.0001427134
0.00036617762
0.0010202483
0.0021602132
0.0037368638
2.2072784e-05
7.1318662e-05
0.00016945512
0.00046146578
0.0011932589
0.0022231602
2.1947521e-05
8.8071837e-05
0.00012274599
0.00020319867
0.00049458075
0.0012195996
2.5531412e-05
0.00021412908
0.00032553532
0.00028901956
0.00030656758
0.00067198175
2.5236032e-05
0.00024051442
0.0005349781
0.00062930066
0.00058454573
0.00056484221
2.8194431e-05
0.00028756848
0.00071037161
0.001026297
0.001103846
0.00088923324
3.3013303e-05
0.00031548735
0.00084363793
0.0013548996
0.001674917
0.0017454255
3.8856904e-05
0.00040212333
0.0010354829
0.0016884509
0.0022324925
0.0025878383
4.4973652e-05
0.00049582468
0.001257619
0.0020520441
0.002752044
0.0032941083
5.1080583e-05
0.00057940309
0.0014777116
0.0024104773
0.0032306722
0.0038795526
5.6223581e-05
0.00065728348
0.0016808464
0.0027316975
0.0036380162
0.0043408169
5.9895965e-05
0.00071962276
0.001842116
0.0029834102
0.0039479929
0.0046764594
6.1509622e-05
0.00075899826
0.0019479375
0.0031481284
0.0041444733
0.0048797228
6.2107065e-05
0.00077832737
0.0019940565
0.0032107456
0.0042131755
0.004944856
6.2538558e-05
0.00077677052
0.0019859744
0.0031819409
0.0041658747
0.0048837695
5.8527781e-05
0.00073471239
0.0018818141
0.0030313534
0.0039849988
0.0046869353
5.5141521e-05
0.00067747269
0.0017296651
0.0027931089
0.0036884164
0.0043605283
5.021152e-05
0.00060146639
0.0015312777
0.0024778927
0.0032877009
0.0039082888
4.3834125e-05
0.00051036521
0.0012968069
0.0021035714
0.002800147
0.0033350502
3.7057831e-05
0.00042243128
0.0010638756
0.0017149836
0.0022618772
0.0026461917
3.0605167e-05
0.00031575308
0.00082833941
0.0013312196
0.0016878526
0.0018350511
2.4666661e-05
0.0002383174
0.00065074349
0.00098470088
0.0010969087
0.00097395278
1.9133656e-05
0.00019258589
0.00045768764
0.0005896934
0.00057973761
0.00050715865
1.5575785e-05
0.00014412871
0.00028411073
0.00027550604
0.00026712024
0.00048973274
1.366737e-05
7.9301167e-05
0.00013004959
0.00016425818
0.0003259118
0.00084877897
1.6210105e-05
8.0919551e-05
0.00014301512
0.00032599763
0.0004463323
0.0039048155
0.010416855
0.018806392
0.00044826457
0.0040033475
0.010717557
0.01937453
0.02934342
0.040316538
0.00044948969
0.0040885441
0.010981897
0.019881647
0.030138962
0.041452925
0.00045042325
0.004172062
0.011233314
0.020350053
0.030858184
0.042462398
0.00045115324
0.0042532545
0.011471461
0.020779102
0.031498217
0.04333434
0.00045137056
0.004332979
0.011688057
0.021154992
0.032042974
0.044056212
0.00044798777
0.0043841174
0.011842754
0.0214393
0.03246392
0.044622798
0.00044535431
0.0044319751
0.011971865
0.021666243
0.032792622
0.04505583
0.00044192808
0.0044747382
0.012079913
0.021839271
0.033033511
0.045356775
0.00043769321
0.0045046767
0.012148985
0.021949831
0.033177358
0.04551828
0.000434949
0.0045256932
0.01219841
0.022008694
0.033223164
0.045531735
0.00043878441
0.0045428497
0.012233958
0.02200491
0.03315131
0.04537784
0.00042831042
0.0045244327
0.012131293
0.021837285
0.032910521
0.04503699
0.00042935885
0.0044777861
0.012007172
0.021609916
0.03256018
0.044540009
0.00043167887
0.004428199
0.011867174
0.021348897
0.032145033
0.043935022
0.00043385477
0.004370551
0.011701477
0.021038366
0.031657365
0.043231978
0.00043504487
0.0043053918
0.011511996
0.020680724
0.031097049
0.042436076
0.00043543024
0.0042381214
0.01131741
0.020307763
0.030501837
0.041573986
0.00043717369
0.0041704338
0.011102315
0.019899656
0.029861296
0.040656508
0.00043556654
0.0040817709
0.010853272
0.019449316
0.029172214
0.039683141
0.00043375158
0.0039962356
0.010607689
0.01899284
0.028459315
0.038666738
0.0004323947
0.0039245195
0.01037569
0.018541339
0.027735769
0.037622037
0.00043047495
0.0038233272
0.010108911
0.018068551
0.027020843
0.036603139
0.00043004442
0.0038254812
0.01006447
0.017885219
0.026607606
0.035928908
7.712773e-05
0.00013698009
0.00016549292
0.00044111232
0.00044397186
0.0038069048
0.044067963
0.04532988
0.046933649
0.048524974
0.050048441
0.051495233
0.052853712
0.054137241
0.055304941
0.056336079
0.057211939
0.057905873
0.058373675
0.058601033
0.058586311
0.058341915
0.057884219
0.057225795
0.056366376
0.055289642
0.053990235
0.052467627
0.050750351
0.052024699
0.054347244
0.05673555
0.059000024
0.061136422
0.063151586
0.06505043
0.066822111
0.068427846
0.069837982
0.071021797
0.071939036
0.072555997
0.072862293
0.072847976
0.072518406
0.071886063
0.070965893
0.069765221
0.0682809
0.066485269
0.064362833
0.06190378
0.061293095
0.064505866
0.067614261
0.070533443
0.073289094
0.075900097
0.078378278
0.080669391
0.082744577
0.084565233
0.08609064
0.087272315
0.08808454
0.088514845
0.088549921
0.088187832
0.087436593
0.086308179
0.084814019
0.082960161
0.080721366
0.078062986
0.074944929
0.07166914
0.075630438
0.079414137
0.082987242
0.086386142
0.08963823
0.092714694
0.09556649
0.098152136
0.10042549
0.10233925
0.10383925
0.10490377
0.1055173
0.10566378
0.10533447
0.10453299
0.10326834
0.10155086
0.099375806
0.096754082
0.093633394
0.089961814
0.082888769
0.08750578
0.091943869
0.096186429
0.1002696
0.10419268
0.10790425
0.11135952
0.11450471
0.11728693
0.11965024
0.12153904
0.12292912
0.12380359
0.12414239
0.12393046
0.12316627
0.12185356
0.11999956
0.11760705
0.11467414
0.11117305
0.10704872
0.094603597
0.099834937
0.10493252
0.10987757
0.11468164
0.11930983
0.12371369
0.12783514
0.13160902
0.13497405
0.1378713
0.14024095
0.14204808
0.1432809
0.14391337
0.1439242
0.14330673
0.14205971
0.14018604
0.13768786
0.13455664
0.13077882
0.12631349
0.10637894
0.11222626
0.11801423
0.12370939
0.12928364
0.13469078
0.13986677
0.14473868
0.14923216
0.15327772
0.1568131
0.1597774
0.16211722
0.16382766
0.16487702
0.16523743
0.1648966
0.16384791
0.16208936
0.15962068
0.15643559
0.15251706
0.14784598
0.11767679
0.12418834
0.13074067
0.13726364
0.14370265
0.1499889
0.15604111
0.16177391
0.16710353
0.17195297
0.17625357
0.17994601
0.1829643
0.18529296
0.1869044
0.18776319
0.1878513
0.18715638
0.18567087
0.18339029
0.1803086
0.17641287
0.17169161
0.12792059
0.13521278
0.14264343
0.15011477
0.15754037
0.16483103
0.17189076
0.17862125
0.1849302
0.19073238
0.19595218
0.2005245
0.2043877
0.20749665
0.20983531
0.21136035
0.21204864
0.21188267
0.21084955
0.20893937
0.20614276
0.20245233
0.19787607
0.13662776
0.14486141
0.15330873
0.16186588
0.17042265
0.17886792
0.18708997
0.19497965
0.2024333
0.20935689
0.21566736
0.22129289
0.22617266
0.23023921
0.23348371
0.2358554
0.23732738
0.23787832
0.23749139
0.23615236
0.23384749
0.23057005
0.22634337
0.14351627
0.15283143
0.1624557
0.17226069
0.18211005
0.19187527
0.20142817
0.21064554
0.2194131
0.22762806
0.2351998
0.24204986
0.24811127
0.25332521
0.25765111
0.26105019
0.26349139
0.26495032
0.26540762
0.26484683
0.26325225
0.260616
0.2569622
0.14861866
0.15920061
0.17016969
0.18138042
0.19267564
0.20390501
0.21492609
0.22560558
0.23582132
0.24546372
0.25443619
0.26265501
0.27004872
0.2765572
0.28212194
0.28671861
0.29030549
0.29285642
0.29435053
0.29477027
0.29409948
0.29233094
0.28948969
0.1527037
0.16469835
0.17711368
0.18980685
0.20260576
0.21534826
0.22788439
0.24007523
0.25179351
0.26292477
0.27336786
0.28303482
0.29185031
0.2997507
0.30668277
0.31260376
0.31747854
0.32127876
0.32398176
0.32556849
0.32602174
0.32533375
0.15715505
0.17052731
0.1843418
0.1984476
0.21267168
0.22684951
0.24082779
0.25446421
0.26762848
0.28020342
0.29208549
0.30318459
0.3134235
0.32273691
0.33107031
0.33837879
0.34462573
0.34978161
0.35382262
0.3567286
0.3584814
0.3590726
0.1631849
0.17778202
0.19283042
0.20817236
0.22363811
0.23906458
0.25429879
0.26919895
0.28363572
0.29749307
0.31066859
0.32307317
0.33463028
0.34527507
0.35495316
0.36361946
0.37123696
0.37777554
0.38321065
0.38752133
0.39068869
0.39270386
0.17133007
0.18694972
0.20301164
0.21935268
0.23580956
0.25222512
0.2684518
0.28435339
0.29980615
0.31469947
0.32893586
0.34243056
0.3551108
0.36691479
0.37779062
0.38769502
0.39659225
0.40445293
0.41125283
0.41697087
0.42158791
0.42509504
0.18111218
0.1975234
0.21434688
0.23141966
0.248588
0.26570449
0.28263097
0.2992406
0.31541883
0.33106379
0.34608615
0.36040857
0.37396491
0.38669921
0.39856454
0.40952185
0.41953883
0.42858883
0.43664966
0.44370165
0.44972665
0.45471668
0.19074295
0.20767264
0.22496997
0.24248141
0.26006416
0.27758241
0.29490956
0.31193022
0.32854114
0.34465128
0.36018147
0.37506377
0.3892406
0.40266369
0.41529291
0.42709516
0.43804324
0.4481148
0.45729121
0.46555571
0.47289265
0.47929614
0.19654418
0.21365798
0.23109536
0.24871625
0.26639032
0.28399505
0.301417
0.31855362
0.33531397
0.35161868
0.36739951
0.38259865
0.39716781
0.41106713
0.42426399
0.43673184
0.44844911
0.4593982
0.46956431
0.4789339
0.48749411
0.49524102
0.19225522
0.20902603
0.22611429
0.24339039
0.26073738
0.27804623
0.29521559
0.31215361
0.32877889
0.34502079
0.36081949
0.37612601
0.39090095
0.40511285
0.41873669
0.43175254
0.44414435
0.4558989
0.46700473
0.47745076
0.48722607
0.49632706
0.16487565
0.18068582
0.19688864
0.21337108
0.23003785
0.24678147
0.26349733
0.28008756
0.29646144
0.31253514
0.32823324
0.34353286
0.35841491
0.37286353
0.3868655
0.40040964
0.41348625
0.42608647
0.43820157
0.44982196
0.46093736
0.47154255
0.1077219
0.12060335
0.13403529
0.14787153
0.16199892
0.17634799
0.19086494
0.20550563
0.22023094
0.23499745
0.24977796
0.26451597
0.27916082
0.29366921
0.30800501
0.32213777
0.33604228
0.34969786
0.36308756
0.37619737
0.38900842
0.40149492
0.051918286
0.059757
0.068144337
0.076925799
0.08608491
0.095592392
0.10541443
0.1155358
0.12597879
0.13681204
0.14804326
0.15956424
0.17128671
0.18315017
0.19512099
0.20716172
0.21924386
0.23134327
0.24343794
0.25550618
0.26753711
0.27953499
0.022955441
0.027027796
0.031409305
0.036188862
0.041323415
0.046766782
0.052455514
0.05832417
0.064297329
0.070330457
0.076495984
0.082818496
0.089285317
0.095875466
0.1025575
0.10932871
0.11621067
0.12322347
0.13038513
0.13771477
0.14523552
0.15298243
0.017173931
0.019660174
0.022285994
0.025020225
0.027822718
0.030649153
0.033482335
0.036307076
0.039108293
0.041883441
0.044629106
0.047340121
0.050036817
0.052737008
0.055456409
0.05821155
0.061021536
0.063910826
0.066905309
0.070021973
0.07327942
0.076692468
0.017430398
0.019665294
0.021941801
0.024237146
0.026530565
0.028802249
0.03103208
0.033199354
0.035286285
0.037283204
0.039185671
0.040994532
0.04271152
0.044339177
0.045880693
0.047339209
0.04871622
0.050017409
0.051257801
0.052463457
0.053639193
0.054775606
0.019157878
0.021581029
0.024002686
0.026388795
0.028707898
0.030933049
0.033042652
0.035016328
0.036836444
0.038496855
0.0400011
0.041352918
0.042559212
0.043629756
0.044576409
0.045412627
0.046153014
0.046813064
0.04740891
0.04795697
0.048469446
0.048948169
0.021102718
0.023655071
0.026153476
0.028565901
0.030866642
0.033035572
0.035055976
0.036914825
0.038607953
0.040135218
0.041499798
0.042707591
0.043767015
0.044688281
0.045479683
0.046152179
0.04671782
0.047188748
0.047576623
0.047892304
0.04814931
0.04835929
0.025105326
0.02790147
0.030544085
0.03300034
0.035248457
0.037276455
0.039080952
0.040665981
0.042041757
0.043222899
0.044225282
0.045064323
0.045757635
0.046323661
0.046783323
0.047155182
0.047454913
0.047695656
0.047888394
0.048042287
0.048164849
0.048262183
0.031089707
0.034026056
0.03661232
0.038840953
0.040725486
0.042292897
0.043577591
0.04461631
0.04544601
0.046101063
0.04661398
0.047015349
0.047330945
0.04758087
0.047778344
0.047933499
0.048054713
0.048148898
0.048221692
0.048277649
0.048320359
0.048352546
0.042314043
0.043792785
0.044916442
0.045772153
0.046425021
0.046923644
0.047304439
0.047594886
0.047815808
0.047982945
0.04810815
0.048200119
0.048264831
0.048307245
0.048333759
0.048349114
0.04835688
0.048359767
0.048359645
0.048358563
0.048357424
0.04835675
0.04759469
0.058456978
0.068189197
0.074479189
0.075516977
0.071462934
0.064084532
0.055608541
0.047981907
0.047032434
0.058401505
0.068921357
0.076384522
0.078858591
0.076319967
0.070314047
0.062890546
0.055572796
0.046295218
0.058123286
0.069460813
0.078177074
0.082230389
0.081364364
0.076873869
0.070638493
0.064087976
0.045184466
0.057452456
0.069645278
0.079701567
0.08548498
0.086481082
0.08371532
0.078897308
0.073494015
0.043512373
0.056188805
0.069291173
0.080754139
0.088429128
0.091501718
0.090710839
0.08757803
0.08360752
0.041130203
0.054142088
0.068162362
0.081090215
0.090805795
0.096172206
0.097615478
0.096437942
0.094108645
0.03795709
0.051162162
0.066020846
0.080439296
0.092300349
0.10015148
0.10406727
0.1050888
0.10458086
0.034099777
0.047235137
0.062719105
0.078570067
0.092577399
0.10304118
0.10962124
0.11305121
0.11450608
0.029925727
0.042625606
0.058348741
0.07538782
0.091387763
0.10446265
0.11380514
0.11978037
0.12331296
0.026097633
0.037979677
0.053415892
0.07111536
0.088787309
0.10424463
0.11627102
0.12479457
0.13046999
0.023238939
0.034145165
0.048852856
0.066562602
0.085280094
0.10264257
0.11702882
0.12794962
0.1357552
0.021467685
0.031569773
0.045459379
0.062743003
0.081827912
0.10044632
0.11668168
0.12962192
0.13930366
0.020809958
0.030504973
0.043863507
0.060701421
0.079754631
0.098975787
0.11638737
0.13080394
0.1419644
0.021101344
0.030828981
0.044134846
0.060879362
0.079962327
0.099524654
0.11764408
0.13302093
0.14520722
0.021837531
0.03197443
0.045735218
0.062926606
0.082449152
0.10251068
0.12124629
0.13733767
0.15025486
0.022917223
0.033746427
0.048350308
0.066445355
0.086845208
0.10772301
0.12721996
0.14402137
0.15757542
0.024174122
0.035881029
0.051565383
0.070848907
0.092430162
0.11439181
0.13483386
0.15243533
0.16664397
0.024528897
0.037126601
0.053953674
0.074549785
0.097479143
0.12070032
0.14223944
0.16074663
0.17566989
0.021431661
0.034609521
0.052331583
0.074138854
0.098440766
0.12301887
0.14576976
0.16528209
0.18099365
0.012592643
0.02440524
0.041937361
0.064406911
0.089845742
0.11564453
0.13952869
0.1600099
0.1764955
0.0045501728
0.010395438
0.021686583
0.039356065
0.062117977
0.087184427
0.11123524
0.13222831
0.14927596
0.0015437986
0.0035973614
0.0081796481
0.016326287
0.028796982
0.044865592
0.062827194
0.079882469
0.094481991
0.0010860262
0.0018778632
0.0034221833
0.0063771844
0.011497509
0.018813888
0.027334219
0.036100246
0.044125397
0.0011415002
0.0018417022
0.0029144751
0.004495878
0.0066884603
0.0095030181
0.012751553
0.01615683
0.019379473
0.0012183642
0.0019683554
0.0031016613
0.0046590783
0.0066080759
0.0088026061
0.011067094
0.013209112
0.015080524
0.0013621026
0.002189586
0.0034224121
0.0051096998
0.0071931118
0.0094894557
0.011761216
0.01381003
0.015521583
0.001561096
0.0024964385
0.00388816
0.0057763734
0.0080783994
0.010590198
0.013055805
0.015260735
0.017087442
0.0018133933
0.002895644
0.0044915639
0.0066320536
0.0092052571
0.011969112
0.0146364
0.01698376
0.018902371
0.0024248296
0.0038220791
0.0058387701
0.0084813265
0.01158434
0.014835196
0.017899053
0.020536861
0.022651026
0.0034896725
0.0054162595
0.0081324169
0.01158801
0.015504024
0.019456791
0.023053424
0.026054585
0.028383364
0.0089198016
0.013128193
0.018350377
0.024009933
0.029331264
0.033717877
0.036966147
0.039202782
0.040699423
0.036985032
0.036180047
0.035310649
0.034102318
0.032391732
0.030075773
0.027127263
0.023736273
0.020310525
0.017434091
0.015463168
0.014299397
0.01388493
0.014079532
0.014474626
0.015016376
0.015595528
0.015317115
0.012005125
0.0055947333
0.0017883563
0.00070614323
0.00063823615
0.00067946944
0.00073024433
0.00081433664
0.00094041482
0.0010885789
0.0014675174
0.0021387306
0.0056602652
0.026658371
0.025784276
0.024976597
0.023873033
0.022353601
0.020362146
0.0179109
0.01523984
0.012734472
0.010821934
0.0096054239
0.0088903242
0.0086167411
0.008687811
0.0088064291
0.0089337813
0.0089872018
0.0082707475
0.0052648297
0.0018639783
0.00054700683
0.00032656808
0.0003396948
0.00036022566
0.00038735019
0.00042903579
0.00049836743
0.00057083133
0.00076713026
0.0011245428
0.0029887247
0.016902992
0.016087044
0.01547955
0.014619783
0.013462414
0.011987905
0.010239058
0.0084547124
0.0069354289
0.005893705
0.0052598018
0.0048608756
0.0046729278
0.0046345367
0.0045662701
0.0044320704
0.0041542946
0.0032329278
0.001390565
0.00040103524
0.00014828552
0.00013651296
0.00014769413
0.0001559373
0.00016768883
0.00018500171
0.00021593901
0.00024609507
0.00032587742
0.0004784113
0.0012318147
0.0085297863
0.0079263323
0.0075792147
0.007029384
0.0063370495
0.005474087
0.004520588
0.0036274637
0.0029697067
0.0025562977
0.0022923961
0.002095104
0.0019695398
0.0018686648
0.001719608
0.0015028461
0.0011351287
0.0005242912
0.00014139763
4.3436075e-05
3.4648704e-05
3.8557791e-05
4.11652e-05
4.5048295e-05
4.8267915e-05
5.4371305e-05
6.3289814e-05
7.4408657e-05
9.6966359e-05
0.00014113201
0.00033530629
0.002584094
0.0023179531
0.0021997775
0.0019410017
0.0017067025
0.001395047
0.0011284688
0.00089722486
0.00075963921
0.00065871194
0.00058491445
0.00051291145
0.00045351417
0.00037407311
0.00025424055
0.00015424476
8.0662304e-05
2.1356197e-05
4.348672e-06
2.8495302e-06
3.0256279e-06
3.4026369e-06
3.8664734e-06
4.3537558e-06
4.851241e-06
5.7274686e-06
7.1454523e-06
9.129173e-06
1.2935218e-05
2.0735242e-05
4.4207927e-05
0.00014791697
0.00013516195
0.00012282471
0.00010763329
9.283088e-05
7.8014704e-05
6.6228031e-05
5.747449e-05
5.1443039e-05
4.6331213e-05
4.1503271e-05
3.6296983e-05
3.029727e-05
2.3045089e-05
1.5281039e-05
9.0564988e-06
4.8460467e-06
2.4120589e-06
1.4233634e-06
6.8339343e-07
4.3980893e-07
3.5669431e-07
3.1291953e-07
2.8085959e-07
2.5286475e-07
2.2351628e-07
2.0219026e-07
1.9896095e-07
2.2994057e-07
5.0226862e-07
1.4145831e-06
)
;

boundaryField
{
    Side1
    {
        type            empty;
    }
    Inlet
    {
        type            calculated;
        value           uniform 0.047769987;
    }
    Side2
    {
        type            empty;
    }
    Outlet
    {
        type            zeroGradient;
    }
    Botwall
    {
        type            compressible::alphatWallFunction;
        value           nonuniform List<scalar> 
59
(
2.40886e-05
2.3440896e-05
2.2738833e-05
2.1988142e-05
1.5182642e-05
1.4945268e-05
1.4761398e-05
1.4618802e-05
1.4393982e-05
1.4230755e-05
1.3912724e-05
1.3525843e-05
1.3158487e-05
1.2830466e-05
1.2574772e-05
1.243089e-05
1.2437919e-05
1.2560394e-05
1.2851436e-05
1.3307192e-05
1.3930221e-05
1.473266e-05
1.5712135e-05
1.6883169e-05
1.8234199e-05
1.9794489e-05
2.1520906e-05
2.3603981e-05
1.4247098e-05
1.2103603e-05
1.0017138e-05
7.4282463e-06
4.8767469e-06
2.2817295e-06
1.7226594e-07
0
0
0
0
0
0
0
0
0
0
0
0
0
0
0
0
0
0
0
0
0
0
0
0
)
;
    }
    Cyli
    {
        type            compressible::alphatWallFunction;
        value           nonuniform List<scalar> 
76
(
5.694647e-05
5.3475915e-05
5.0316168e-05
4.7445617e-05
4.4884915e-05
4.2538844e-05
4.0491734e-05
3.8576155e-05
3.6973002e-05
3.5432651e-05
3.4132206e-05
3.3193589e-05
3.2292526e-05
3.1466928e-05
3.0591211e-05
2.976059e-05
2.9051723e-05
2.792564e-05
2.6269547e-05
2.3893982e-05
2.1068405e-05
1.4601728e-05
1.723454e-06
0
0
0
0
0
0
0
0
0
0
0
0
0
0
0
0
0
0
0
0
0
0
0
0
0
6.1935969e-05
6.2228796e-05
6.2413321e-05
6.2553488e-05
6.2662027e-05
6.2688873e-05
6.2166449e-05
6.1763612e-05
6.1234326e-05
6.0581082e-05
6.0157821e-05
6.0746641e-05
5.9135409e-05
5.9297407e-05
5.9655716e-05
5.9992089e-05
6.017703e-05
6.023844e-05
6.0509066e-05
6.0264285e-05
5.9987881e-05
5.9781919e-05
5.9489409e-05
5.9426065e-05
2.1092618e-06
1.7143638e-05
6.1141532e-05
6.1577222e-05
)
;
    }
    procBoundary0to1
    {
        type            processor;
        value           nonuniform List<scalar> 
44
(
0.0032315567
0.0032315567
0.0020234455
0.0013224211
0.0013224211
0.0016966465
0.0016966465
0.0027892513
0.0036284649
0.0036284649
0.0041893221
0.0041893221
0.0048408552
0.0052894373
0.0051944742
0.0051944742
0.0053835474
0.0054379922
0.0053674804
0.0051669702
0.0048376142
0.0048376142
0.004765799
0.0041601403
0.0033434603
0.0033434603
0.002581951
0.017448725
0.01492085
0.0078037112
0.011136332
0.014696544
0.01762643
0.019041999
0.017448725
0.018706303
0.0078037112
0.0054621886
0.012209933
0.0093869945
0.0065289432
0.0038281334
0.0015310854
0.00018958623
)
;
    }
    procBoundary0to2
    {
        type            processor;
        value           nonuniform List<scalar> 
55
(
0.0020458794
0.0024237094
0.0027942511
0.0031594842
0.0035225479
0.00075280951
0.0015331805
0.00030751505
0.00075280951
0.00073396209
0.010124765
0.028485229
0.018275901
0.028485229
0.039231924
0.00030751505
0.00027082784
0.00027082784
0.00022000362
0.00043759316
0.0037060859
0.0037060859
0.010124765
0.049068954
0.059232075
0.071416114
0.085738908
0.10229592
0.12116683
0.14244296
0.16618912
0.19244351
0.22120843
0.25233475
0.28562169
0.32354765
0.32354765
0.35854518
0.39360805
0.42753068
0.45870591
0.48479373
0.50219172
0.50475607
0.48161887
0.4135933
0.29143823
0.1609697
0.080271529
0.055871868
0.049386504
0.048526291
0.048338688
0.04837737
0.048356794
)
;
    }
    procBoundary0to3
    {
        type            processor;
        value           nonuniform List<scalar> 7(0.0014939079 0.0014939079 0.00091852402 0.00091852402 0.0012065268 0.0012065268 0.0022765975);
    }
}


// ************************************************************************* //
