/*--------------------------------*- C++ -*----------------------------------*\
| =========                 |                                                 |
| \\      /  F ield         | OpenFOAM: The Open Source CFD Toolbox           |
|  \\    /   O peration     | Version:  2406                                  |
|   \\  /    A nd           | Website:  www.openfoam.com                      |
|    \\/     M anipulation  |                                                 |
\*---------------------------------------------------------------------------*/
FoamFile
{
    version     2.0;
    format      ascii;
    arch        "LSB;label=32;scalar=64";
    class       volScalarField;
    location    "0.015";
    object      omega;
}
// * * * * * * * * * * * * * * * * * * * * * * * * * * * * * * * * * * * * * //

dimensions      [0 0 -1 0 0 0 0];

internalField   nonuniform List<scalar> 
92813
(
21143.271
19071.48
17204.87
15540.817
14058.77
12736.694
11554.756
10495.835
9545.2621
8690.4174
7920.3829
7225.6857
6598.0919
6030.4286
5516.4214
5050.5414
4627.9234
4244.2876
3895.8464
3578.496
3289.3229
3026.0388
2786.107
2567.243
2367.4109
2184.7953
2017.7793
1864.9137
1724.8984
1596.5688
1478.877
1370.879
1271.7224
1180.6372
1096.9265
1019.9586
949.16054
884.01168
824.03866
768.81059
717.9349
671.05363
627.84007
587.99586
551.24826
517.34781
486.06619
457.19429
430.54047
405.92902
383.19878
362.20182
342.80235
324.87566
308.30718
292.99163
278.83226
265.74014
253.63353
242.43733
232.08262
222.50618
213.64959
205.46076
197.89128
190.89806
184.44254
178.49126
173.01651
167.99764
163.42345
159.29668
155.64235
152.51182
149.83372
147.1465
144.19054
141.28049
138.66359
136.29293
134.03541
131.86944
129.72298
127.56154
125.60105
123.95336
122.34514
120.33937
117.29561
113.75578
111.41211
110.19772
109.33933
108.58423
107.88618
107.23661
106.6313
106.06702
105.54137
105.05168
104.59573
104.17104
103.77507
103.40529
103.05931
102.73477
102.42833
102.13798
101.86373
101.60579
101.36454
101.14106
100.93654
100.7507
100.58037
100.42189
100.27229
100.12989
99.997573
99.875176
99.77316
99.686816
99.613956
99.557793
99.524823
99.502062
99.465724
18538.212
16869.422
15345.206
13964.05
12715.076
11586.139
10565.443
9642.0584
8806.0662
8048.6
7361.7345
6738.382
6172.2222
5657.6297
5189.5754
4763.5689
4375.6059
4022.1177
3699.9092
3405.7029
3136.7812
2891.228
2666.8365
2461.619
2273.7917
2101.755
1944.0746
1799.4605
1666.7463
1544.8813
1432.9173
1329.9975
1235.3458
1148.2586
1068.0984
994.28574
926.29288
863.6392
805.88647
752.63476
703.51886
658.20497
616.38777
577.78783
542.14919
509.23729
478.83701
450.75098
424.79799
400.81162
378.63896
358.13944
339.18382
321.65323
305.4383
290.4384
276.56093
263.72066
251.83919
240.84438
230.67002
221.25549
212.5442
204.48593
197.03477
190.14909
183.79211
177.93219
172.54361
167.60812
163.1177
159.07974
155.52638
152.5063
149.88303
147.12009
144.08771
141.18304
138.59698
136.23567
133.97434
131.80261
129.63462
127.47188
125.54714
123.91588
122.27538
120.15403
116.95371
113.46901
111.29305
110.14373
109.30255
108.55378
107.85991
107.21391
106.61181
106.05043
105.52742
105.04013
104.58634
104.16359
103.76931
103.40097
103.05619
102.73258
102.42686
102.13706
101.86323
101.60565
101.36477
101.14169
100.93759
100.75208
100.58194
100.42357
100.27405
100.1318
99.999704
99.877513
99.775546
99.689016
99.615732
99.558834
99.524571
99.499832
99.462248
16249.489
14901.877
13655.031
12510.199
11461.734
10502.995
9627.1004
8827.2768
8097.0564
7430.4001
6821.7197
6265.8696
5758.139
5294.2333
4870.2384
4482.6
4128.1005
3803.8335
3507.1714
3235.4163
2986.2231
2757.9846
2548.8091
2356.9842
2180.9623
2019.3463
1870.8755
1734.4092
1608.9118
1493.4443
1387.1556
1289.2736
1199.0962
1115.9851
1039.3596
968.69059
903.4948
843.33071
787.79459
736.51701
689.15968
645.41266
604.99176
567.63626
533.10687
501.18376
471.66496
444.36476
419.11236
395.75059
374.13479
354.13175
335.61878
318.48288
302.61991
287.93391
274.33646
261.74607
250.08771
239.29225
229.29622
220.04151
211.47369
203.54442
196.21006
189.43064
183.17122
177.40195
172.09908
167.24663
162.83945
158.88871
155.4311
152.49963
149.86288
146.99257
143.92735
141.06164
138.51431
136.16223
133.89878
131.71909
129.52825
127.37244
125.48873
123.86729
122.18282
119.92362
116.57504
113.18653
111.18024
110.08959
109.26359
108.521
107.83152
107.1893
106.59062
106.03231
105.5121
105.02736
104.57587
104.15516
103.76266
103.39585
103.05235
102.72974
102.42478
102.1356
101.86226
101.6051
101.36464
101.14204
100.93841
100.75325
100.58333
100.42508
100.27566
100.13359
100.00173
99.879765
99.777853
99.691135
99.617422
99.559766
99.524173
99.497422
99.458582
14255.569
13161.593
12138.921
11189.674
10310.953
9499.2099
8750.5456
8060.8925
7426.1666
6842.382
6305.7129
5812.5263
5359.4039
4943.1509
4560.7957
4209.5895
3887.0029
3590.7176
3318.6135
3068.4766
2838.3418
2626.8797
2432.4886
2253.709
2089.2118
1937.7888
1798.3423
1669.8729
1551.4685
1442.2978
1341.603
1248.6932
1162.938
1083.7617
1010.6387
943.08834
880.6705
822.98163
769.6516
720.34072
674.73704
632.55395
593.52797
557.41681
523.99748
493.06473
464.42951
437.91764
413.36858
390.63433
369.57839
350.07484
332.00753
315.26924
299.76105
285.39165
272.07678
259.7387
248.30571
237.7117
227.89597
218.80279
210.38004
202.58132
195.36509
188.69312
182.53234
176.85472
171.6386
166.87044
162.54832
158.68791
155.33073
152.48289
149.81459
146.84843
143.76495
140.94077
138.42406
136.07657
133.81216
131.62135
129.40868
127.26837
125.42762
123.8086
122.06837
119.65359
116.17649
112.91875
111.07441
110.03561
109.22304
108.48647
107.80151
107.16324
106.56813
106.01302
105.49574
105.01364
104.56454
104.14597
103.75532
103.39012
103.04795
102.72638
102.42225
102.13372
101.86092
101.60424
101.36427
101.14219
100.93905
100.75427
100.58458
100.42647
100.27717
100.13531
100.0037
99.881973
99.780116
99.693204
99.619051
99.560604
99.523634
99.494825
99.454709
12525.152
11632.633
10791.021
10002.664
9266.1513
8579.6719
7941.1065
7348.1064
6798.1838
6288.7946
5817.3985
5381.5012
4978.6856
4606.6334
4263.14
3946.1253
3653.6415
3383.8753
3135.1461
2905.6565
2693.7874
2498.4598
2318.3331
2152.1766
1998.8608
1857.351
1726.7002
1606.0409
1494.5769
1391.578
1296.3751
1208.3547
1126.9547
1051.6593
981.99582
917.53017
857.86355
802.62911
751.48922
704.13302
660.27415
619.64874
582.01352
547.14417
514.8337
484.89113
457.1401
431.41778
407.57374
385.469
364.97514
345.97345
328.35421
312.01598
296.865
282.81457
269.78458
257.70101
246.4955
236.10494
226.47139
217.54144
209.26542
201.5989
194.5023
187.93923
181.87853
176.29411
171.16648
166.4848
162.25074
158.48516
155.23254
152.45408
149.72409
146.66519
143.59499
140.81554
138.32509
135.97913
133.71578
131.51044
129.27941
127.16333
125.36472
123.74015
121.93032
119.34428
115.76667
112.66957
110.9757
109.98222
109.18159
108.45089
107.77052
107.13629
106.54483
105.99301
105.47872
104.99933
104.55269
104.1363
103.74754
103.38397
103.04317
102.72268
102.4194
102.13158
101.85935
101.60318
101.36373
101.14222
100.93961
100.75522
100.58577
100.42781
100.27864
100.137
100.00566
99.884167
99.782359
99.695244
99.620634
99.561358
99.522961
99.492041
99.450625
11024.392
10292.986
9598.0468
8941.9031
8323.9981
7743.5107
7199.3785
6690.3259
6214.91
5771.573
5358.6874
4974.5933
4617.6288
4286.1548
3978.574
3693.3473
3429.0055
3184.158
2957.4968
2747.5821
2553.0977
2373.1848
2206.7345
2052.7202
1910.1918
1778.2722
1656.1522
1543.0855
1438.3831
1341.4092
1251.5777
1168.3482
1091.223
1019.7433
953.48652
892.06319
835.11397
782.30715
733.33634
687.91847
645.7919
606.71479
570.46349
536.83117
505.62645
476.67224
449.80465
424.87193
401.73359
380.25954
360.32928
341.83121
324.66198
308.72586
293.93417
280.20482
267.4618
255.63478
244.65874
234.47357
225.02406
216.25906
208.13143
200.59885
193.62353
187.17103
181.21215
175.72283
170.68592
166.09354
161.95136
158.28592
155.14014
152.40849
149.59003
146.46043
143.41779
140.68724
138.21721
135.87071
133.6092
131.38576
129.1423
127.05907
125.29905
123.66045
121.76478
118.99521
115.35273
112.44024
110.88346
109.92926
109.13932
108.41437
107.73866
107.10853
106.52081
105.97236
105.46112
104.98449
104.54034
104.12619
103.73936
103.37745
103.03805
102.71866
102.41625
102.12917
101.85755
101.60194
101.36306
101.14213
100.94008
100.7561
100.5869
100.42909
100.28007
100.13866
100.0076
99.886349
99.784585
99.697254
99.622169
99.562024
99.522147
99.489066
99.446326
9721.656
9119.9679
8544.3497
7997.0147
7477.9172
6986.8135
6523.2696
6086.6722
5676.251
5291.1088
4930.2515
4592.6174
4277.1018
3982.5796
3707.9242
3452.0239
3213.7956
2992.1951
2786.2239
2594.7468
2416.707
2251.4343
2098.0225
1955.6246
1823.4503
1700.7632
1586.879
1481.1615
1383.0199
1291.9053
1207.3085
1128.7574
1055.8146
988.07496
925.16326
866.7322
812.45998
762.04832
715.2207
671.72067
631.31038
593.76919
558.89242
526.49016
496.3862
468.41698
442.43071
418.28652
395.85361
375.01058
355.64474
337.65149
320.93373
305.40135
290.97073
277.5643
265.11013
253.54155
242.79684
232.81889
223.55524
214.95699
206.97944
199.58258
192.73033
186.39026
180.53519
175.1432
170.1997
165.70005
161.65438
158.09518
155.05515
152.33935
149.41449
146.24235
143.23386
140.55262
138.1008
135.75245
133.49148
131.24703
128.9991
126.95678
125.2293
123.56738
121.56714
118.60707
114.94182
112.23075
110.79687
109.87645
109.09621
108.37691
107.70592
107.07999
106.49607
105.95105
105.44292
104.96911
104.52751
104.11563
103.73076
103.37055
103.03257
102.7143
102.41281
102.12649
101.85552
101.6005
101.36223
101.14194
100.94046
100.75691
100.58796
100.43032
100.28146
100.1403
100.00952
99.888519
99.786793
99.699234
99.623653
99.562597
99.521187
99.485892
99.441807
8589.1191
8092.4275
7614.2782
7156.7133
6719.9801
6304.1694
5909.2191
5534.9207
5180.9297
4846.783
4531.9182
4235.6936
3957.4076
3696.3168
3451.652
3222.6334
3008.483
2808.4354
2621.7454
2447.5338
2284.9629
2133.5202
1992.474
1861.1343
1738.8504
1625.011
1519.0431
1420.41
1328.6095
1243.172
1163.659
1089.6615
1020.798
956.71331
897.07683
841.58086
789.93901
741.88471
697.16978
655.56314
616.84967
580.82909
547.31493
516.13363
487.12359
460.13438
435.026
411.66808
389.93934
369.72686
350.92558
333.43774
317.1724
302.045
287.97686
274.89491
262.73123
251.4228
240.91116
231.14218
222.06613
213.63638
205.81069
198.55135
191.82404
185.59842
179.84937
174.55727
169.7103
165.3074
161.36371
157.91718
154.97589
152.23779
149.20082
146.01172
143.05069
140.41225
137.97403
135.62564
133.36183
131.09477
128.85175
126.85703
125.15408
123.45824
121.33251
118.18225
114.541
112.04031
110.71511
109.82357
109.05221
108.33852
107.67232
107.05065
106.47061
105.92908
105.42413
104.95318
104.51418
104.10461
103.72173
103.36324
103.02671
102.7096
102.40904
102.12353
101.85325
101.59887
101.36126
101.14163
100.94076
100.75764
100.58896
100.43149
100.2828
100.14191
100.01144
99.890677
99.78898
99.701179
99.625082
99.563072
99.520073
99.482514
99.437062
7602.6751
7191.3879
6793.1861
6409.9014
6041.9342
5689.5607
5352.9339
5032.0876
4726.9422
4437.3146
4162.9309
3903.4392
3658.4242
3427.4207
3209.9265
3005.4147
2813.3447
2633.1716
2464.3539
2306.2262
2158.1332
2019.6908
1890.3164
1769.4545
1656.5761
1551.1793
1452.7895
1360.9585
1275.2637
1195.3072
1120.7148
1051.1349
986.23786
925.71466
869.27605
816.65141
767.58757
721.84779
679.21066
639.46916
602.42977
567.91163
535.74572
505.77413
477.84935
451.83363
427.59831
405.0233
383.99648
364.41322
346.1759
329.19347
313.38101
298.65938
284.9548
272.19859
260.32682
249.28004
239.00306
229.4447
220.55792
212.29838
204.62634
197.50637
190.90596
184.79693
179.1563
173.96694
169.22002
164.9185
161.08311
157.75497
154.89628
152.09469
148.95084
145.76836
142.86578
140.26689
137.83688
135.4903
133.21928
130.93017
128.70237
126.75945
125.07176
123.32951
121.05601
117.7251
114.15671
111.86755
110.63734
109.77039
109.00728
108.29917
107.63782
107.0205
106.44441
105.90644
105.40473
104.9367
104.50033
104.09312
103.71227
103.35553
103.02047
102.70454
102.40495
102.12028
101.85073
101.59703
101.36012
101.14121
100.94096
100.75829
100.58989
100.4326
100.2841
100.1435
100.01333
99.892822
99.791146
99.703087
99.62645
99.56344
99.518798
99.478925
99.432087
6741.7363
6400.2382
6067.8649
5746.2231
5435.7786
5136.8999
4849.8565
4574.8216
4311.8754
4061.0113
3822.1438
3595.1172
3379.7158
3175.6738
2982.6846
2800.4112
2628.4945
2466.5617
2314.2323
2171.0176
2036.4131
1910.1361
1791.7299
1680.7533
1576.7818
1479.4084
1388.2445
1302.9201
1223.0833
1148.4003
1078.5546
1013.2471
952.19525
895.13241
841.80759
791.98452
745.44102
701.96823
661.3699
623.46167
588.07048
555.03387
524.19944
495.42425
468.57429
443.52397
420.15559
398.35894
378.03081
359.07461
341.39995
324.9223
309.56265
295.24715
281.90682
269.47732
257.89862
247.11482
237.07393
227.72772
219.0318
210.94414
203.42752
196.44883
189.97734
183.98718
178.45758
173.3741
168.73122
164.53638
160.81637
157.60983
154.80579
151.90396
148.68331
145.52587
142.68031
140.11491
137.68873
135.34612
133.06276
130.75503
128.55328
126.66289
124.98036
123.17673
120.73327
117.24197
113.79434
111.71082
110.56274
109.71673
108.96137
108.25884
107.60242
106.98953
106.41745
105.88312
105.3847
104.91964
104.48596
104.08113
103.70235
103.34738
103.01382
102.6991
102.40051
102.11671
101.84794
101.59498
101.35882
101.14066
100.94107
100.75886
100.59075
100.43365
100.28536
100.14506
100.01522
99.89495
99.793286
99.704953
99.627752
99.563696
99.517354
99.475117
99.426876
5988.8645
5704.6225
5426.6343
5156.2833
4894.0472
4640.328
4395.4495
4159.6579
3933.1247
3715.95
3508.1677
3309.752
3120.6233
2940.6555
2769.6835
2607.51
2453.9126
2308.6501
2171.4681
2042.0228
1919.9322
1804.9925
1696.8512
1595.1636
1499.5937
1409.8161
1325.5169
1246.3941
1172.1581
1102.5319
1037.2507
976.06246
918.72715
865.01694
814.71581
767.61916
723.53348
682.27584
643.67346
607.56325
573.79136
542.21274
512.69073
485.09663
459.3093
435.21477
412.70587
391.68191
372.04826
353.7161
336.60206
320.62796
305.72051
291.81105
278.83531
266.73316
255.44844
244.92873
235.1252
225.99254
217.48896
209.57484
202.21544
195.37993
189.03949
183.1706
177.75487
172.78076
168.24644
164.16433
160.56728
157.48015
154.69005
151.66393
148.39201
145.28176
142.49329
139.95575
137.53074
135.19174
132.89119
130.5714
128.40673
126.56558
124.87749
122.99446
120.361
116.74107
113.45784
111.5684
110.49055
109.66242
108.91445
108.21753
107.5661
106.95772
106.38972
105.85909
105.36403
104.90199
104.47104
104.06864
103.69195
103.33879
103.00675
102.69327
102.39571
102.11283
101.84488
101.59271
101.35734
101.13997
100.94107
100.75935
100.59153
100.43464
100.28658
100.1466
100.01708
99.897062
99.7954
99.706775
99.628983
99.563831
99.515733
99.471085
99.421425
5329.2831
5092.1787
4859.2528
4631.679
4409.9152
4194.3611
3985.3549
3783.174
3588.0358
3400.1008
3219.4754
3046.216
2880.3336
2721.7981
2570.544
2426.475
2289.4699
2159.3867
2036.0676
1919.2873
1808.7625
1704.3478
1605.7768
1512.785
1425.1111
1342.4988
1264.6981
1191.4658
1122.5669
1057.774
996.86842
939.63973
885.88636
835.41539
788.04262
743.59246
701.89772
662.79944
626.14663
591.79601
559.61171
529.46505
501.2342
474.80392
450.06531
426.91547
405.25731
384.99923
366.05487
348.34288
331.7867
316.31429
301.85791
288.35396
275.74274
263.96827
252.97816
242.72343
233.15836
224.24057
215.93066
208.19169
200.99135
194.30095
188.09376
182.34873
177.04998
172.18915
167.76849
163.80601
160.33925
157.3599
154.53317
151.37824
148.08768
145.03704
142.30486
139.78759
137.36384
135.02553
132.70393
130.38147
128.26431
126.46538
124.76012
122.77636
119.93754
116.23206
113.14951
111.43853
110.42006
109.60734
108.86648
108.1752
107.52885
106.92506
106.36121
105.83434
105.34271
104.88375
104.45556
104.05562
103.68107
103.32974
102.99924
102.68703
102.39053
102.1086
101.84153
101.59021
101.35568
101.13915
100.94097
100.75975
100.59224
100.43557
100.28775
100.14811
100.01893
99.899154
99.797483
99.708547
99.630136
99.563839
99.513927
99.466822
99.415728
4750.4441
4552.2645
4356.7713
4164.9477
3977.2142
3793.947
3615.475
3442.0793
3273.9949
3111.4115
2954.4758
2803.2939
2657.9343
2518.4308
2384.7861
2256.9756
2134.9509
2018.6437
1907.969
1802.7973
1702.9244
1608.2463
1518.5668
1433.6872
1353.4083
1277.5319
1205.8622
1138.2068
1074.3773
1014.1899
957.46599
904.0323
853.72132
806.37149
761.82732
719.93952
680.56498
643.56673
608.81388
576.18149
545.55046
516.80737
489.8443
464.55873
440.85329
418.63561
397.81816
378.31803
360.0568
342.9603
326.95848
311.98525
297.97827
284.87883
272.63168
261.1849
250.48978
240.5007
231.17502
222.47327
214.35832
206.79602
199.75661
193.21327
187.14168
181.52328
176.34494
171.60178
167.30061
163.46553
160.13438
157.23721
154.32136
151.05493
147.77777
144.79409
142.11097
139.60735
137.18752
134.84523
132.50115
130.18765
128.12642
126.35988
124.62439
122.51541
119.46357
115.72539
112.87001
111.31948
110.35069
109.55136
108.81744
108.13186
107.49066
106.89154
106.3319
105.80887
105.32072
104.86489
104.43952
104.04207
103.66969
103.3202
102.99127
102.68035
102.38496
102.10403
101.83788
101.58746
101.35384
101.13819
100.94075
100.76005
100.59286
100.43643
100.28887
100.1496
100.02076
99.901226
99.799532
99.710265
99.631205
99.56371
99.511928
99.46232
99.409781
4241.6525
4075.7024
3911.3752
3749.4841
3590.4041
3434.4765
3282.0069
3133.2646
2988.4834
2847.8623
2711.5668
2579.73
2452.4546
2329.8147
2211.8583
2098.6098
1990.0723
1886.2305
1787.0531
1692.4884
1602.3941
1516.694
1435.248
1357.9113
1284.5356
1214.971
1149.0675
1086.6752
1027.6461
971.83383
919.09465
869.28783
822.27599
777.92542
736.10639
696.69331
659.56488
624.60419
591.69878
560.74061
531.62608
504.25596
478.53534
454.37359
431.68419
410.38473
390.39673
371.64556
354.06034
337.57378
322.12212
307.64495
294.08516
281.38876
269.50484
258.38542
247.98537
238.26239
229.17686
220.69217
212.77346
205.38931
198.51262
192.11841
186.18492
180.69617
175.64204
171.02152
166.84652
163.14726
159.95186
157.094
154.04728
150.70336
147.46591
144.55199
141.91242
139.41412
137.00008
134.64833
132.28394
129.99267
127.99215
126.24637
124.46538
122.20441
118.94266
115.23155
112.61865
111.20951
110.2819
109.49439
108.7673
108.08748
107.45151
106.85714
106.30179
105.78265
105.29805
104.84541
104.42288
104.02795
103.65778
103.31017
102.98283
102.67324
102.37898
102.09908
101.83392
101.58447
101.3518
101.13707
100.94042
100.76026
100.5934
100.43722
100.28995
100.15105
100.02257
99.903275
99.801545
99.711924
99.632182
99.563437
99.509725
99.457575
99.40358
3793.762
3654.5646
3516.2391
3379.4508
3244.5266
3111.7684
2981.4515
2853.8245
2729.1093
2607.5014
2489.1707
2374.262
2262.8959
2155.1701
2051.1608
1950.9244
1854.4991
1761.9068
1673.1546
1588.2536
1507.1097
1429.6629
1355.8181
1285.4733
1218.5219
1154.8537
1094.3565
1036.9165
982.41957
930.75142
881.79847
835.44822
791.58966
750.11369
710.91342
673.88448
638.92523
605.93693
574.82388
545.49352
517.85651
491.82674
467.32139
444.26089
422.56892
402.17239
383.00139
364.98912
348.07186
332.1889
317.28245
303.29761
290.18224
277.88697
266.36504
255.57231
245.46717
236.01051
227.1657
218.89895
211.17766
203.97317
197.26101
191.01809
185.22538
179.86959
174.94396
170.45175
166.41054
162.85537
159.7856
156.90799
153.71286
150.33273
147.156
144.30934
141.70422
139.20889
136.80001
134.43297
132.05425
129.79941
127.85953
126.12173
124.27689
121.83664
118.38157
114.76011
112.39374
111.10697
110.21328
109.43637
108.71603
108.04205
107.41139
106.82186
106.27084
105.75567
105.27469
104.82528
104.40564
104.01327
103.64532
103.29963
102.97389
102.66565
102.37257
102.09375
101.82963
101.58121
101.34955
101.13579
100.93996
100.76036
100.59385
100.43794
100.29099
100.15248
100.02436
99.905299
99.803517
99.713518
99.63306
99.563008
99.507312
99.452578
99.397119
3398.9351
3281.9925
3165.3986
3049.692
2935.153
2822.0435
2710.6064
2601.065
2493.6234
2388.466
2285.758
2185.6455
2088.2557
1993.698
1902.0646
1813.4312
1727.8588
1645.3941
1566.0711
1489.951
1416.9769
1347.0962
1280.2485
1216.3663
1155.3761
1097.2002
1041.7573
988.96369
938.7335
890.97973
845.6145
802.5496
761.69695
722.96897
686.27893
651.5413
618.67198
587.58858
558.21059
530.45952
504.25906
479.53519
456.21621
434.23285
413.51828
394.00813
375.64053
358.35608
342.09783
326.8113
312.44444
298.94755
286.27333
274.37679
263.21523
252.74819
242.93749
233.74716
225.14349
217.09545
209.57266
202.54932
196.00357
189.91425
184.26521
179.04608
174.25381
169.89642
165.99759
162.59268
159.62162
156.65777
153.3279
149.95165
146.84946
144.06445
141.48246
138.9904
136.58532
134.19833
131.81468
129.61019
127.72582
125.98221
124.05136
121.40676
117.79029
114.31897
112.19294
111.01024
110.14444
109.37723
108.66361
107.99556
107.3703
106.78567
106.23906
105.72793
105.25062
104.8045
104.38779
103.99799
103.6323
103.28854
102.96444
102.65758
102.36571
102.08801
101.825
101.57769
101.3471
101.13435
100.93937
100.76036
100.59421
100.43859
100.29197
100.15388
100.02613
99.907296
99.805445
99.715041
99.633829
99.562416
99.504677
99.447324
99.390395
3050.4284
2952.0314
2853.628
2755.6478
2658.3277
2561.8917
2466.5505
2372.501
2279.9263
2188.9955
2099.8635
2012.6709
1927.5442
1844.5962
1763.9261
1685.6202
1609.7525
1536.3856
1465.571
1397.4104
1331.8748
1268.9119
1208.4884
1150.5632
1095.0895
1042.0153
991.28461
942.83821
896.61396
852.54754
810.57281
770.62234
732.62774
696.5201
662.23034
629.68949
598.82905
569.58122
541.87912
515.65698
490.85037
467.39626
445.23322
424.30145
404.54292
385.9014
368.32252
351.75382
336.14476
321.44674
307.61312
294.59924
282.36235
270.8617
260.05847
249.91582
240.39884
231.47462
223.11235
215.28359
207.96037
201.11973
194.74232
188.80906
183.3069
178.22861
173.57525
169.3602
165.61295
162.35832
159.43669
156.33043
152.90568
149.56779
146.54585
143.81489
141.2461
138.75927
136.35319
133.94452
131.5685
129.42606
127.58766
125.82314
123.77996
120.91177
117.18163
113.91371
112.01362
110.91788
110.07508
109.31693
108.61002
107.94799
107.32822
106.74857
106.20643
105.6994
105.22584
104.78304
104.36929
103.98212
103.6187
103.2769
102.95446
102.64901
102.3584
102.08187
101.82001
101.57388
101.34442
101.13274
100.93864
100.76024
100.59448
100.43917
100.29291
100.15524
100.02787
99.909261
99.807323
99.716486
99.634482
99.561648
99.501811
99.441805
99.383405
2742.4031
2659.4884
2576.3356
2493.2793
2410.5178
2328.2403
2246.6273
2165.8499
2086.0694
2007.4376
1930.0959
1854.1756
1779.7976
1707.0722
1636.0998
1566.9705
1499.7651
1434.5546
1371.4013
1310.4394
1251.6605
1195.0074
1140.4671
1088.0191
1037.637
989.28929
942.94036
898.55071
856.07764
815.47563
776.69678
739.69116
704.4072
670.79204
638.79186
608.35221
579.4183
551.93525
525.84835
501.10327
477.64627
455.42436
434.38541
414.47838
395.65332
377.86154
361.05568
345.18974
330.2192
316.101
302.79365
290.25721
278.45332
267.34528
256.89799
247.07806
237.85381
229.19528
221.07454
213.46551
206.34289
199.6866
193.47953
187.70505
182.35334
177.42063
172.91264
168.84849
165.26159
162.14424
159.20057
155.92728
152.45917
149.18695
146.24361
143.55714
140.99459
138.51507
136.10047
133.67243
131.31963
129.24651
127.44122
125.63861
123.4531
120.35205
116.57026
113.54739
111.85293
110.82862
110.00496
109.25544
108.55524
107.89932
107.28514
106.71054
106.17294
105.6701
105.20033
104.76089
104.35014
103.96562
103.6045
103.26469
102.94393
102.63992
102.3506
102.07529
101.81466
101.56978
101.34152
101.13094
100.93777
100.76001
100.59464
100.43967
100.2938
100.15658
100.02958
99.911194
99.809147
99.717847
99.635008
99.560694
99.498705
99.436017
99.376143
2469.8022
2399.836
2329.4886
2259.0126
2188.5725
2118.3267
2048.4282
1979.0237
1910.2536
1842.2517
1775.1446
1709.0522
1644.0866
1580.3524
1517.9469
1456.9596
1397.4729
1339.5616
1283.2935
1228.8287
1176.174
1125.263
1076.098
1028.6738
982.9796
939.00004
896.7153
856.10179
817.13247
779.77726
744.00329
709.77529
677.05587
645.80584
615.98451
587.54998
560.45942
534.66934
510.13579
486.81466
464.66178
443.6332
423.68531
404.77497
386.85971
369.89777
353.84825
338.67121
324.32773
310.77996
297.99124
285.92612
274.55041
263.83124
253.73711
244.23795
235.30517
226.91172
219.03254
211.64353
204.72251
198.25239
192.21778
186.6051
181.4079
176.62629
172.2711
168.36745
164.94623
161.9311
158.88402
155.46213
151.9999
148.81173
145.94071
143.28698
140.72803
138.25585
135.82481
133.38432
131.07216
129.06958
127.28217
125.4211
123.06108
119.73234
115.9715
113.22067
111.70797
110.74138
109.93389
109.19271
108.49925
107.84954
107.24104
106.67156
106.13858
105.64
105.17408
104.73803
104.33031
103.94848
103.58967
103.25187
102.93283
102.63028
102.3423
102.06827
101.80893
101.56536
101.33838
101.12895
100.93675
100.75964
100.5947
100.4401
100.29463
100.15788
100.03126
99.91309
99.810911
99.719114
99.635396
99.559542
99.495348
99.429952
99.368608
2228.2504
2169.1308
2109.5494
2049.6901
1989.6875
1929.6734
1869.7759
1810.1196
1750.8251
1692.0088
1633.7825
1576.2534
1519.5234
1463.6894
1408.8428
1355.0698
1302.4507
1251.0607
1200.9691
1152.357
1105.2418
1059.5453
1015.2807
972.454
931.06622
891.11399
852.58991
815.48285
779.77828
745.45854
712.50306
680.88866
650.58979
621.57878
593.82611
567.30065
541.96993
517.80037
494.75752
472.80625
451.91098
432.03584
413.14488
395.20218
378.17204
362.01908
346.70837
332.20555
318.47691
305.48949
293.21116
281.61069
270.65784
260.32341
250.57931
241.39866
232.75586
224.62669
216.98887
209.82035
203.10196
196.8197
190.95999
185.51259
180.47456
175.85046
171.65672
167.92343
164.6638
161.6863
158.47148
154.95355
151.53813
148.44151
145.6343
143.0008
140.44677
137.97835
135.52549
133.08409
130.82947
128.8921
127.10552
125.16133
122.59531
119.06227
115.3998
112.93219
111.5758
110.65524
109.86172
109.12873
108.44205
107.79864
107.19591
106.63164
106.10336
105.60909
105.14707
104.71445
104.30979
103.9307
103.57421
103.23844
102.92114
102.62008
102.33348
102.06079
101.80281
101.56063
101.33499
101.12677
100.93556
100.75915
100.59465
100.44044
100.29542
100.15915
100.03292
99.914945
99.812609
99.720279
99.635636
99.558179
99.49173
99.423605
99.360796
2013.9536
1963.9329
1913.4146
1862.5237
1811.3703
1760.0626
1708.7072
1657.4086
1606.2694
1555.3896
1504.8666
1454.7949
1405.2657
1356.367
1308.1829
1260.794
1214.2769
1168.7042
1124.1441
1080.7948
1038.6809
997.71046
957.90411
919.27581
881.83516
845.58777
810.53556
776.67703
744.00742
712.51895
682.20095
653.04011
625.0206
598.12438
572.33131
547.61941
523.96512
501.34341
479.7281
459.09197
439.407
420.64456
402.77553
385.77052
369.59996
354.23428
339.64403
325.8
312.6733
300.23552
288.45875
277.31575
266.78
256.82576
247.42821
238.56353
230.20899
222.34314
214.9464
207.99873
201.48415
195.39165
189.70961
184.43145
179.55806
175.09898
171.07648
167.52155
164.39985
161.36856
157.96929
154.41858
151.08158
148.07402
145.32
142.69653
140.15046
137.67872
135.20349
132.77687
130.59338
128.70993
126.90527
124.84837
122.04973
118.35642
114.86735
112.67911
111.45362
110.56949
109.78836
109.06344
108.38362
107.74661
107.14974
106.59075
106.06726
105.57738
105.11929
104.69013
104.28857
103.91224
103.55809
103.22436
102.90884
102.6093
102.32412
102.05284
101.79628
101.55556
101.33134
101.12439
100.93421
100.75852
100.59449
100.4407
100.29615
100.16039
100.03454
99.916756
99.814236
99.721334
99.635713
99.556592
99.48784
99.41697
99.352704
1823.6275
1781.2457
1738.3645
1695.0554
1651.409
1607.5134
1563.4563
1519.3245
1475.2041
1431.1803
1387.337
1343.7563
1300.519
1257.7034
1215.3858
1173.6402
1132.5377
1092.1468
1052.533
1013.9082
976.30166
939.60658
903.84836
869.04633
835.21603
802.36952
770.51561
739.66002
709.80547
680.95189
653.09643
626.23369
600.35578
575.45254
551.51166
528.51885
506.45808
485.31168
465.06058
445.68448
427.16199
409.47085
392.58805
376.49002
361.15273
346.5519
332.66306
319.4617
306.9234
295.02394
283.73938
273.04619
262.92132
253.34236
244.28757
235.73607
227.66789
220.06429
212.90824
206.18173
199.87234
193.97183
188.47064
183.36635
178.66404
174.37875
170.53792
167.16217
164.12282
160.94307
157.39969
153.87169
150.63319
147.70663
144.99208
142.3738
139.83734
137.3536
134.86145
132.46852
130.36361
128.51796
126.67398
124.47021
121.42261
117.63354
114.38296
112.45755
111.33887
110.48355
109.7137
108.9968
108.32398
107.69347
107.10253
106.5489
106.03029
105.54484
105.09072
104.66505
104.26662
103.89308
103.54129
103.20963
102.8959
102.59791
102.3142
102.04441
101.78934
101.55013
101.32742
101.12179
100.93267
100.75774
100.59422
100.44088
100.29682
100.16158
100.03612
99.918518
99.815783
99.722266
99.635616
99.554768
99.483667
99.410042
99.344331
1654.4081
1618.4476
1582.0051
1545.1117
1507.8375
1470.2548
1432.4349
1394.4492
1356.3694
1318.2671
1280.2139
1242.2806
1204.5372
1167.0532
1129.8965
1093.1337
1056.8302
1021.0492
985.85196
951.46184
917.91077
885.07652
852.9873
821.66573
791.13123
761.40027
732.48653
704.40097
677.15193
650.74516
625.18391
600.46898
576.59884
553.56972
531.37572
510.00896
489.45971
469.71655
450.76649
432.59519
415.18703
398.52536
382.59254
367.37019
352.83927
338.98021
325.77307
313.19766
301.23365
289.86067
279.05846
268.80695
259.08638
249.87744
241.16134
232.91998
225.13608
217.79361
210.87767
204.37283
198.27039
192.56429
187.24776
182.32283
177.79923
173.69779
170.04782
166.83438
163.78387
160.40121
156.78712
153.32571
150.19145
147.33581
144.64519
142.03306
139.50407
137.00107
134.50356
132.16464
130.13769
128.31027
126.40223
124.01473
120.71824
116.91504
113.95156
112.26299
111.22928
110.39702
109.6377
108.92878
108.26314
107.63921
107.05425
106.50608
105.99245
105.51146
105.06133
104.63922
104.24395
103.87322
103.5238
103.19423
102.88231
102.5859
102.30371
102.03547
101.78197
101.54435
101.32322
101.11897
100.93095
100.7568
100.59383
100.44097
100.29743
100.16273
100.03765
99.920225
99.817243
99.723067
99.635329
99.552691
99.4792
99.402814
99.335674
1503.7947
1473.2384
1442.2307
1410.7694
1378.9076
1346.7033
1314.2148
1281.5002
1248.6187
1215.6299
1182.5941
1149.5715
1116.6228
1083.8081
1051.1875
1018.8203
986.76533
955.08017
923.82113
893.2211
863.31331