/*--------------------------------*- C++ -*----------------------------------*\
| =========                 |                                                 |
| \\      /  F ield         | OpenFOAM: The Open Source CFD Toolbox           |
|  \\    /   O peration     | Version:  2406                                  |
|   \\  /    A nd           | Website:  www.openfoam.com                      |
|    \\/     M anipulation  |                                                 |
\*---------------------------------------------------------------------------*/
FoamFile
{
    version     2.0;
    format      ascii;
    arch        "LSB;label=32;scalar=64";
    class       volScalarField;
    location    "0.005";
    object      nut;
}
// * * * * * * * * * * * * * * * * * * * * * * * * * * * * * * * * * * * * * //

dimensions      [0 2 -1 0 0 0 0];

internalField   nonuniform List<scalar> 
8260
(
0.034886049
0.039611031
0.04516113
0.051448091
0.058330337
0.065657479
0.073242993
0.080836847
0.088101382
0.094556428
0.099522089
0.10205779
0.10088303
0.094367282
0.08062961
0.058377036
0.031904639
0.014309001
0.0085382716
0.0068219607
0.0059680213
0.0054492122
0.005019592
0.0046957869
0.0044885285
0.0043613643
0.004287886
0.0042130266
0.0041670679
0.0041324067
0.0041085943
0.041253524
0.046116625
0.051466771
0.057372166
0.063795219
0.07062422
0.077683952
0.084724081
0.091401239
0.097227654
0.10149867
0.10325377
0.10119455
0.093693927
0.078907381
0.055900407
0.029404484
0.013340154
0.0082729357
0.0067254328
0.0059122435
0.0054151083
0.0050012647
0.0046854399
0.0044821875
0.0043566684
0.0042850152
0.0042112445
0.0041660066
0.0041317036
0.0041084093
0.048575144
0.053260385
0.058355334
0.063896062
0.069859932
0.076159074
0.082634599
0.08904355
0.095039063
0.10012304
0.10357679
0.10441833
0.10133148
0.09269868
0.076736047
0.052876777
0.026737668
0.012367886
0.0080605561
0.0066779613
0.0058828371
0.0053968738
0.0049917414
0.0046801196
0.0044788467
0.0043540109
0.004283199
0.004210114
0.0041651168
0.004131075
0.0041082105
0.056941713
0.061257553
0.065975638
0.071078065
0.076528347
0.082239451
0.088058282
0.093745988
0.098952283
0.10316877
0.1056651
0.10543976
0.10116069
0.091228635
0.073953804
0.049200737
0.023877428
0.011494839
0.0079040402
0.0066063359
0.0058320593
0.0053639976
0.0049745422
0.004670337
0.0044726429
0.0043489597
0.0042799696
0.0042081142
0.0041636758
0.004130159
0.0041079177
0.066355929
0.070160768
0.074393573
0.078957367
0.0838036
0.088838151
0.093904699
0.098761814
0.1030527
0.1062582
0.10763583
0.10616691
0.10050744
0.089089228
0.070362806
0.044758432
0.020854965
0.010653979
0.0077174243
0.006539421
0.0057871018
0.0053354945
0.0049600237
0.0046622841
0.0044676029
0.0043449599
0.0042772339
0.0042064033
0.0041623153
0.0041292836
0.0041074495
0.076654987
0.079889476
0.083537969
0.087460473
0.091598512
0.09584915
0.10004827
0.10394652
0.10717673
0.10920721
0.10928269
0.10636961
0.099118752
0.08601265
0.065709108
0.039451866
0.018020083
0.0098706069
0.0075511244
0.0064585822
0.0057283053
0.00529692
0.0049399205
0.0046510077
0.0044604284
0.004339223
0.0042733913
0.0042039888
0.0041606412
0.0041282199
0.0041066862
0.087541328
0.090170477
0.093158714
0.09634986
0.099677495
0.10303025
0.10623461
0.10903045
0.1110375
0.1117097
0.11027873
0.10569921
0.096628406
0.081630011
0.05967341
0.033263134
0.015465881
0.0091552032
0.0073716621
0.006375101
0.0056699067
0.0052588899
0.0049204458
0.0046404388
0.004453779
0.0043339993
0.0042696848
0.004201626
0.0041589476
0.004127056
0.0041056553
0.098521543
0.10051834
0.10278566
0.10516805
0.10759065
0.10993294
0.11201093
0.11355203
0.11416131
0.11327752
0.11012004
0.10363713
0.092513857
0.075441919
0.051884167
0.026393745
0.013103585
0.0085280972
0.0072011145
0.0062794276
0.0056001655
0.0052123567
0.0048958608
0.0046271435
0.0044452754
0.0043273197
0.0042649313
0.0041985861
0.0041569734
0.0041256859
0.0041046719
0.10880273
0.11014426
0.11163992
0.11314655
0.114579
0.11580555
0.11662975
0.11676452
0.11579892
0.11315692
0.10804906
0.099426693
0.086044844
0.066796227
0.042010801
0.019947557
0.011068105
0.008064682
0.0070180901
0.0061772809
0.0055285364
0.0051646912
0.0048706438
0.0046140371
0.0044370024
0.0043209314
0.0042600878
0.0041954503
0.004155131
0.0041240328
0.0041038879
0.11713308
0.11780804
0.11849178
0.11906857
0.11944055
0.11946216
0.11892087
0.11751181
0.11480683
0.11021813
0.102956
0.091990285
0.076234299
0.054912327
0.03014698
0.015216937
0.0094984706
0.0077106879
0.0068302371
0.0060629836
0.0054463941
0.005109169
0.0048402248
0.0045983546
0.0044269564
0.0043132387
0.0042542032
0.0041916096
0.0041528694
0.0041222665
0.0041031654
0.12162505
0.12163504
0.12148969
0.12110686
0.12037333
0.11912727
0.11713644
0.11407543
0.10950034
0.1028215
0.093270453
0.079853947
0.061827203
0.039165757
0.01969877
0.011576905
0.0083729796
0.0073706464
0.0066229228
0.0059416477
0.0053614557
0.0050520245
0.0048086251
0.0045825475
0.0044169894
0.0043056983
0.0042481649
0.0041875914
0.0041503374
0.0041203143
0.0041022779
0.11949282
0.11881908
0.11785576
0.11652829
0.11470147
0.1121863
0.10872356
0.10396737
0.097468597
0.088668561
0.076887434
0.061149119
0.041583379
0.023443403
0.013564375
0.0092951465
0.0079219741
0.0070466116
0.0064084959
0.0058051805
0.0052673192
0.0049891145
0.0047726355
0.0045640739
0.0044051539
0.0042967334
0.0042411204
0.0041828621
0.0041472105
0.0041181248
0.0041011454
0.10673418
0.10544957
0.10375297
0.10157007
0.098739191
0.095023225
0.090128899
0.083715136
0.075366981
0.064680944
0.051397925
0.036698675
0.023655154
0.014455859
0.0098495948
0.0081690073
0.0073417015
0.0067248592
0.0061764828
0.0056625041
0.0051681118
0.0049247205
0.0047355217
0.0045454874
0.0043933345
0.0042876853
0.0042338141
0.0041779864
0.0041436858
0.0041156982
0.00409982
0.078034579
0.076185567
0.073851271
0.071019649
0.067571795
0.063404948
0.058435604
0.052462605
0.04539612
0.037353424
0.028632014
0.020256247
0.013686037
0.0098762713
0.0082886227
0.0077509073
0.0070722631
0.0063666809
0.00592774
0.0054961912
0.005071541
0.004859692
0.0046950419
0.004523551
0.0043790517
0.004277153
0.0042251125
0.0041724609
0.0041394822
0.0041127681
0.004097664
0.045391043
0.044116324
0.042536903
0.040631205
0.038267523
0.035340334
0.031814352
0.027891665
0.023838978
0.019571291
0.015344423
0.011626134
0.0091460822
0.0080543344
0.0076029037
0.0070141798
0.0064755962
0.0060352102
0.0056814163
0.0053399074
0.0049732437
0.0047908886
0.0046549705
0.0045024059
0.0043642933
0.0042669955
0.00421537
0.0041668734
0.0041346834
0.0041095121
0.0040950679
0.022390207
0.021905201
0.02119737
0.020287758
0.019139756
0.01774221
0.016108054
0.014326098
0.012550185
0.010779035
0.0092717954
0.0080356708
0.0074231437
0.0073423067
0.0068334431
0.0065890912
0.0061834876
0.0057321437
0.0054329893
0.0051671276
0.0048912746
0.0047210439
0.0046121126
0.0044763237
0.0043475295
0.0042553611
0.0042035715
0.0041605812
0.0041290345
0.0041053068
0.0040921957
0.011326387
0.011213228
0.010976246
0.010633674
0.010197288
0.0096785589
0.0091048667
0.0085036778
0.0079093244
0.0073011896
0.0070136544
0.0068396249
0.0068637059
0.0064361426
0.0062330182
0.0059164324
0.0056778424
0.0054530526
0.0052190881
0.0050488121
0.0047985827
0.0046427037
0.004573883
0.0044491115
0.0043300411
0.0042454133
0.0041908232
0.0041540584
0.0041225777
0.0041007147
0.0040892585
0.0071779012
0.0071559557
0.0070882538
0.0069853705
0.0068537849
0.0066678954
0.0065060919
0.0063877263
0.0063203292
0.0063105884
0.0063235485
0.0062609338
0.0059121877
0.0057225144
0.0055830654
0.0055859405
0.0054047981
0.0052657576
0.0050125432
0.0048876714
0.0047337479
0.0045798591
0.0045244755
0.0044154438
0.0043107396
0.0042330461
0.0041776878
0.0041460484
0.0041155334
0.0040954858
0.004085052
0.0058190889
0.0057938072
0.0057696711
0.0057494974
0.0057425531
0.0057653118
0.0057824139
0.0057591644
0.0057370656
0.0057219917
0.0056540387
0.0055192553
0.0055233907
0.0053297874
0.0052336253
0.0050836127
0.0050441281
0.0049607194
0.0048380072
0.004768514
0.0046685665
0.0045154845
0.0044638901
0.004387905
0.0042867617
0.0042221084
0.0041659159
0.0041370725
0.0041081733
0.0040900069
0.00408073
0.0053417099
0.00533878
0.0053370758
0.0053437866
0.005361301
0.0053739738
0.005346758
0.0053349574
0.0052940553
0.0052028398
0.0051542343
0.0051321338
0.0050282143
0.0050227877
0.0048959576
0.0049259762
0.0048818543
0.0048213097
0.0047389476
0.0046172211
0.0045902416
0.0044611105
0.0043955817
0.0043489102
0.0042648853
0.0042040637
0.0041539416
0.0041269274
0.0041005565
0.0040843319
0.0040757859
0.0049710468
0.0049661299
0.0049548941
0.0049301682
0.0048965595
0.0048545633
0.0048665169
0.0048599618
0.0048521036
0.0048434017
0.0048424803
0.0048148511
0.0047732093
0.0047334913
0.00462834
0.0046253035
0.0046081114
0.0046016036
0.0045960141
0.0045082799
0.0044574952
0.0043930545
0.004326189
0.0042998258
0.0042427648
0.0041835691
0.0041417898
0.0041169953
0.0040922284
0.0040783647
0.0040704418
0.004623674
0.0046238371
0.0046213488
0.0046160106
0.0046139133
0.004628966
0.0046304633
0.0046276802
0.0046223799
0.0046079805
0.004584344
0.0045721078
0.0045706277
0.0045512386
0.0044933138
0.0045419127
0.0044766828
0.0044759371
0.00448711
0.0044370335
0.0043402812
0.0043142335
0.0042446779
0.0042429683
0.0042131144
0.0041574957
0.0041271733
0.0041065644
0.0040838065
0.0040721653
0.0040655804
0.0044374136
0.0044375047
0.0044348177
0.0044281106
0.0044175479
0.0044021863
0.0043953291
0.004390415
0.0043848224
0.0043798606
0.0043729732
0.0043634507
0.0043569516
0.0043426024
0.0043206262
0.0043168847
0.0042959021
0.0043010143
0.0042846507
0.0042982279
0.0042739094
0.0042527315
0.004199474
0.0041742543
0.0041742814
0.0041400121
0.0041126972
0.0040949328
0.0040761851
0.0040654435
0.0040581327
0.0042773267
0.0042787041
0.0042779937
0.0042757463
0.0042732627
0.0042715346
0.0042736825
0.0042767331
0.0042755739
0.0042723676
0.0042663269
0.0042544409
0.0042462999
0.0042440738
0.0042468556
0.004241172
0.004229527
0.0042246374
0.0042046261
0.0041966987
0.0042058756
0.0041928358
0.004168555
0.0041404784
0.0041379656
0.0041235362
0.0040981733
0.0040836878
0.0040698426
0.0040586064
0.0040522137
0.0041969188
0.0041984191
0.0041977097
0.004195407
0.0041926376
0.0041897882
0.0041859677
0.0041808544
0.004179398
0.004178781
0.0041783127
0.0041786334
0.0041810019
0.0041825011
0.0041873654
0.004186602
0.0041933411
0.004174101
0.0041647193
0.0041532265
0.0041498768
0.0041552546
0.0041491342
0.0041244885
0.0041106814
0.0041075192
0.004090002
0.0040734016
0.0040645497
0.0040541607
0.0040477432
0.0041184571
0.0041199555
0.0041203789
0.0041203709
0.0041205285
0.0041209607
0.0041216853
0.004123821
0.0041259854
0.004128721
0.0041325594
0.0041368017
0.0041401983
0.0041434569
0.0041385971
0.004136878
0.004132493
0.0041328336
0.0041266548
0.0041333981
0.0041256274
0.0041219082
0.0041211706
0.0041158138
0.004093548
0.0040916397
0.0040792623
0.0040659246
0.0040584239
0.0040500174
0.0040450153
0.0040817969
0.0040831792
0.0040837081
0.0040839035
0.0040842022
0.0040846734
0.0040852972
0.0040859232
0.0040866786
0.0040875621
0.0040888686
0.0040904174
0.0040912039
0.0040918126
0.0040957818
0.0040982515
0.0040991522
0.0041048504
0.0041078147
0.004109733
0.0041120999
0.0041015702
0.0040915528
0.0040948899
0.0040839801
0.0040764905
0.0040695801
0.0040592388
0.0040511059
0.0040455499
0.0040425501
0.0040553661
0.0040561265
0.0040565137
0.0040568662
0.0040574371
0.0040583468
0.0040596093
0.0040611174
0.00406272
0.0040642435
0.0040654316
0.0040663023
0.004066669
0.0040662643
0.0040665815
0.0040682274
0.004070583
0.0040730775
0.0040814846
0.0040762239
0.0040766356
0.0040777881
0.0040753065
0.0040681244
0.0040695585
0.0040611634
0.0040566224
0.0040521519
0.0040463529
0.0040425164
0.0040402494
0.0040455544
0.0040459897
0.0040461908
0.0040464317
0.0040468652
0.0040476645
0.0040487393
0.004049988
0.0040512895
0.0040523475
0.0040527944
0.004052678
0.004052571
0.0040530533
0.0040542398
0.0040561609
0.0040573101
0.0040597915
0.0040573631
0.0040576087
0.0040571068
0.004056148
0.0040564528
0.0040549077
0.0040538869
0.0040523255
0.0040500802
0.0040468976
0.0040436781
0.0040395126
0.0040356246
0.0040412905
0.0040415661
0.0040417489
0.0040420042
0.004042327
0.0040426298
0.0040429712
0.0040434947
0.0040442976
0.0040451251
0.0040458407
0.0040464251
0.0040471697
0.0040480602
0.0040479951
0.0040471078
0.0040467135
0.0040468606
0.0040476053
0.0040481511
0.0040484221
0.0040483296
0.0040479639
0.0040476091
0.0040476366
0.0040467728
0.0040463088
0.0040445212
0.0040400398
0.0040367407
0.004036468
0.0040358734
0.0040359339
0.0040360657
0.0040363042
0.0040366739
0.0040371949
0.0040378698
0.0040386866
0.0040397376
0.0040407792
0.0040415835
0.0040421845
0.0040425333
0.0040425214
0.0040423153
0.0040419652
0.0040417689
0.004042068
0.00404325
0.0040439446
0.0040442797
0.004044914
0.0040443246
0.004043904
0.004044227
0.0040436542
0.0040432615
0.0040412815
0.00403992
0.0040394588
0.0040392629
0.00076842284
0.0016600345
0.0033173346
0.0057989339
0.0090862745
0.013264822
0.018410149
0.024572872
0.031892508
0.039845875
0.048607482
0.057809258
0.066797391
0.074536192
0.079447217
0.079267275
0.071047282
0.053279002
0.031024428
0.014741788
0.0081697607
0.0062256785
0.0054054061
0.0049316909
0.0046520163
0.0044918251
0.0043591472
0.0042641515
0.0041949296
0.0041538211
0.0041173017
0.0018820302
0.0037708759
0.0062725474
0.0092656841
0.012922108
0.017350831
0.022625525
0.029014882
0.036134507
0.04404727
0.052651932
0.061526244
0.069971597
0.076897084
0.080671364
0.07900086
0.068999649
0.04980292
0.027505474
0.013147451
0.0076660838
0.0060768569
0.0053445748
0.0048997821
0.004634041
0.0044807588
0.0043534312
0.0042602515
0.004193182
0.0041527006
0.0041170193
0.0034752653
0.0055300464
0.008065768
0.011239773
0.015179545
0.019969576
0.025704792
0.03230959
0.039624928
0.047663582
0.05621147
0.064820825
0.072760381
0.078895196
0.08155228
0.078426436
0.066734969
0.046384327
0.024635298
0.011787404
0.0072837503
0.0060119314
0.0053167306
0.0048845316
0.004625245
0.0044748879
0.0043503881
0.004257898
0.0041920927
0.0041517553
0.0041167212
0.0050486828
0.007304332
0.010153834
0.013676687
0.0179167
0.022974165
0.02896653
0.035616797
0.043038963
0.051109118
0.05954446
0.067857184
0.075271505
0.080605069
0.082146114
0.077590058
0.064294966
0.0430655
0.022105694
0.010785329
0.0070639168
0.0059341736
0.0052746766
0.0048601751
0.0046105054
0.0044653633
0.004345536
0.0042544274
0.0041905818
0.0041506892
0.0041164196
0.0065872301
0.0091571852
0.012314549
0.016106593
0.020615802
0.025955956
0.03202391
0.038837188
0.04636026
0.054421604
0.0627052
0.07068811
0.077551357
0.08206759
0.082491129
0.076531195
0.061717851
0.039853793
0.019860613
0.0099294591
0.0068529047
0.0058794178
0.0052474906
0.0048443189
0.0046010826
0.0044589187
0.0043422593
0.0042518731
0.004189478
0.0041497408
0.0041161128
0.0082171051
0.01105606
0.014460193
0.018495719
0.023304741
0.028844556
0.035067268
0.042019512
0.049602757
0.057616097
0.065713681
0.073337
0.079625605
0.083310685
0.082618362
0.075283247
0.059044945
0.036761682
0.017874274
0.0092464104
0.0067096214
0.0058242711
0.0052146926
0.0048243424
0.0045887998
0.004450617
0.0043380221
0.0042487387
0.0041881225
0.0041487193
0.0041158001
0.0098037436
0.012897298
0.016566262
0.020893484
0.025944534
0.031655695
0.038065304
0.045137507
0.052753495
0.060690933
0.06857593
0.075815834
0.081511543
0.084356823
0.082555257
0.073874316
0.056320363
0.033811304
0.016144148
0.0086860937
0.0065798235
0.0057791735
0.0051900701
0.0048092052
0.0045795562
0.0044440799
0.0043346987
0.0042461387
0.0041870023
0.0041477708
0.0041154814
0.011341253
0.014715414
0.018661499
0.02329642
0.028534967
0.034442176
0.041011011
0.048177649
0.055803398
0.063642775
0.071294286
0.078132858
0.08322358
0.085226613
0.082328154
0.072342318
0.053584445
0.031053583
0.014674021
0.0082451141
0.0064831263
0.0057364472
0.0051639681
0.0047925483
0.0045690822
0.0044366819
0.0043308975
0.0042432705
0.0041857244
0.0041467805
0.0041151565
0.012876554
0.016515541
0.020742551
0.025616894
0.031069844
0.037169615
0.043882942
0.05112711
0.058744717
0.066468377
0.073870574
0.080295745
0.084775848
0.085940795
0.081963946
0.070717305
0.050872788
0.028518016
0.013489509
0.0078959809
0.0063967059
0.0056991137
0.0051427667
0.0047788986
0.0045604289
0.0044303435
0.0043276348
0.004240737
0.0041845617
0.0041458318
0.0041148252
0.01436532
0.018271945
0.022784974
0.02786549
0.033543662
0.039827511
0.046671165
0.053977326
0.061571443
0.069165496
0.076307428
0.082312985
0.086183489
0.086521553
0.081495582
0.069029847
0.048224205
0.026228977
0.012511958
0.0076254509
0.0063272829
0.0056645409
0.0051219051
0.0047650759
0.004551386
0.0044236833
0.0043241613
0.0042381165
0.0041832824
0.0041448578
0.0041144875
0.015838857
0.020004968
0.024766569
0.030061027
0.035955035
0.042407476
0.049366486
0.056720553
0.064278599
0.071733024
0.078608684
0.084194362
0.087463061
0.086992295
0.080953241
0.06732549
0.045675808
0.024202709
0.011716668
0.0074163293
0.0062652362
0.0056335711
0.0051042833
0.0047533518
0.0045435252
0.0044177096
0.0043210208
0.0042357334
0.0041820371
0.0041439019
0.0041141428
0.017271198
0.021699173
0.026678302
0.032198915
0.038292806
0.044898331
0.051959741
0.059349745
0.066862143
0.074170914
0.080779346
0.085950905
0.088632559
0.087383418
0.080369161
0.065640816
0.04325138
0.022446489
0.011079636
0.0072619064
0.0062128085
0.005605236
0.0050877207
0.004742128
0.0045357185
0.0044117012
0.0043178166
0.0042333689
0.0041806991
0.0041429273
0.0041137909
0.018677723
0.023344437
0.028536457
0.034269443
0.040536985
0.047290239
0.054442816
0.061858553
0.069318831
0.076479951
0.082825246
0.087594497
0.08971204
0.087718506
0.079779868
0.06401128
0.040981057
0.020959736
0.010585231
0.0071559379
0.00616589
0.0055797618
0.0050735152
0.0047325165
0.0045287778
0.0044061806
0.0043148374
0.0042311942
0.0041793659
0.0041419584
0.0041134313
0.020053594
0.024935575
0.030336284
0.036263694
0.042682546
0.049576986
0.056807147
0.064240776
0.071646235
0.078662846
0.084754295
0.08914163
0.090719756
0.088017157
0.079211856
0.062467529
0.038895083
0.019729522
0.01021391
0.0070673077
0.0061252781
0.0055567628
0.0050606243
0.0047237092
0.0045221419
0.0044007749
0.0043118774
0.0042290925
0.0041779913
0.0041409818
0.0041130638
0.021406322
0.026478219
0.032072414
0.038177251
0.044751836
0.051729527
0.059047497
0.066494471
0.073844911
0.080726682
0.08657797
0.090603466
0.091673854
0.088308682
0.078694208
0.061036068
0.037015117
0.018739587
0.0099547772
0.0070056286
0.0060896125
0.0055362905
0.0050496263
0.0047162458
0.0045162303
0.0043957513
0.0043090897
0.0042271464
0.0041766595
0.0041400232
0.0041126863
0.02271768
0.027969208
0.033738115
0.040000109
0.046709332
0.05379222
0.061138367
0.068613161
0.075914751
0.082666579
0.088296896
0.091987815
0.092593674
0.088619191
0.078259173
0.059743002
0.035357966
0.017984147
0.0097836125
0.0069512803
0.0060590178
0.0055181625
0.0050400212
0.004709745
0.0045107697
0.0043909213
0.0043063709
0.0042252883
0.0041753745
0.0041390891
0.0041122967
0.023933276
0.029363433
0.035298928
0.041707717
0.048537768
0.055711877
0.063107622
0.07056035
0.077818291
0.084473653
0.089909386
0.093307144
0.093496235
0.088972903
0.07793668
0.058627017
0.03397967
0.017366588
0.0095972891
0.0069014565
0.0060328779
0.005502363
0.0050320481
0.0047044881
0.0045059727
0.0043864218
0.004303802
0.0042235543
0.0041741967
0.0041382008
0.0041118956
0.025025888
0.030600782
0.036681205
0.043224678
0.050174233
0.0574423
0.0649025
0.072373443
0.079583754
0.086124149
0.091411967
0.09457024
0.094397127
0.089391921
0.077754374
0.057728554
0.03287727
0.016854526
0.0094437923
0.0068610193
0.0060110637
0.005488767
0.0050255052
0.0047002577
0.0045017106
0.0043821635
0.0043013332
0.0042219072
0.0041731194
0.0041373675
0.004111484
0.026172751
0.031811739
0.037969436
0.044600341
0.051635374
0.05897969
0.066498791
0.074001231
0.08120204
0.087680856
0.092831729
0.095761575
0.095308069
0.089895659
0.077737337
0.057082441
0.032036432
0.016427937
0.0093003698
0.006829081
0.0059932575
0.0054773239
0.0050205519
0.0046971167
0.0044980946
0.0043782219
0.0042990079
0.0042203647
0.0041721451
0.004136594
0.0041110637
0.027310012
0.032989486
0.039186509
0.045862098
0.052946901
0.06034258
0.067907224
0.075441191
0.082647639
0.089092958
0.09415681
0.09694106
0.096243354
0.090472518
0.077905559
0.056721333
0.031448714
0.016069848
0.0091701295
0.0068092017
0.0059794459
0.0054679675
0.0050171422
0.0046949272
0.0044950771
0.004374567
0.0042968039
0.0042189091
0.0041712374
0.0041358646
0.0041106367
0.028413023
0.034101824
0.040306417
0.046994747
0.054099617
0.061525237
0.069123119
0.076688972
0.083915645
0.090357203
0.095379783
0.098072876
0.097210896
0.091199657
0.078273039
0.056672792
0.031117499
0.01575975
0.0090438762
0.0068007819
0.0059698522
0.0054607267
0.0050153749
0.004693727
0.0044927219
0.0043712486
0.0042947432
0.0042175483
0.0041703717
0.0041351559
0.0041102061
0.029472478
0.035135549
0.041312678
0.047982242
0.055078609
0.062517678
0.070161295
0.077783337
0.08506206
0.091524821
0.09652729
0.09916959
0.098210519
0.092042465
0.078864283
0.056960797
0.031063511
0.015473694
0.0089226683
0.0067957578
0.0059648521
0.0054556364
0.0050152078
0.0046934764
0.0044909961
0.0043682542
0.004292807
0.004216266
0.0041695139
0.0041344418
0.004109777
0.03049608
0.03607217
0.042170257
0.048786556
0.055881662
0.063350814
0.071035841
0.078697676
0.08600382
0.092503478
0.097543303
0.10020515
0.09923626
0.093005083
0.079673266
0.057601804
0.031309675
0.015177489
0.0087993608
0.0067970704
0.0059643851
0.0054526084
0.0050159406
0.0046938398
0.0044898661
0.0043655825
0.0042909859
0.0042150542
0.004168651
0.0041337128
0.0041093607
0.031485057
0.03687995
0.042804395
0.049284884
0.056303962
0.06374745
0.071445751
0.07915846
0.086548134
0.093142535
0.098280168
0.10103014
0.10012307
0.093911524
0.080513449
0.058363126
0.031784995
0.01479047
0.0086749674
0.0068076993
0.0059661714
0.0054511449
0.0050178008
0.0046948332
0.0044891851
0.0043631734
0.0042892401
0.0042138944
0.0041677702
0.0041329736
0.0041089613
0.00078764382
0.0016031709
0.0031622097
0.0055095187
0.0086308098
0.01255531
0.017410868
0.023297312
0.030375827
0.038157234
0.046811151
0.055993526
0.065083404
0.073101334
0.078516521
0.079100241
0.071876932
0.054934081
0.032648643
0.015369018
0.0083141168
0.0062659417
0.0054228123
0.0049419371
0.004659118
0.0044964196
0.0043615189
0.0042659352
0.0041958252
0.0041545979
0.0041174179
0.00083460205
0.0016445316
0.0031771317
0.0054571844
0.0084928326
0.01235129
0.01713212
0.022925075
0.02987546
0.037579175
0.046099568
0.055171268
0.06423524
0.072312484
0.077903454
0.078810733
0.072095641
0.055682485
0.033504805
0.015768936
0.0084077241
0.0062896325
0.0054335954
0.0049485764
0.0046639675
0.0045004031
0.0043631233
0.0042673815
0.0041964741
0.00415509
0.004117539
0.00089217563
0.0016896729
0.0031997796
0.0054357881
0.0084108084
0.012190138
0.016870308
0.022545181
0.029337961
0.036931027
0.045340882
0.054328641
0.063357052
0.071487414
0.077251694
0.078487297
0.072291612
0.056445582
0.034411614
0.016215688
0.0085163309
0.0063146513
0.0054443549
0.0049554456
0.0046697545
0.0045036769
0.0043647822
0.0042686564
0.0041971152
0.0041557367
0.0041176604
0.00096068372
0.0017390362
0.0032218469
0.0054128474
0.0083258194
0.012025107
0.016604596
0.022162226
0.028796153
0.036271513
0.044565335
0.05346152
0.062448711
0.070625491
0.076559655
0.078127294
0.072461954
0.057218992
0.035362806
0.016710185
0.0086328656
0.0063428255
0.0054568563
0.0049628524
0.004674808
0.0045087912
0.0043665785
0.0042704488
0.0041978938
0.0041562838
0.0041177772
0.0010436598
0.0017965888
0.0032446656
0.0053883985
0.0082388712
0.011857669
0.016336043
0.021769517
0.028250541
0.035602436
0.043774418
0.052571622
0.061511109
0.069726992
0.075826499
0.0777284
0.072604354
0.057997945
0.03635176
0.017256859
0.0087763062
0.0063723692
0.0054689089
0.0049707486
0.0046823708
0.0045119051
0.0043684687
0.0042717569
0.0041987004
0.004156952
0.0041179134
0.0011433885
0.0018622687
0.0032743159
0.0053692466
0.008155899
0.011692641
0.016067906
0.021373441
0.02770223
0.034925433
0.042969613
0.051661446
0.060545418
0.068792581
0.075051748
0.077288209
0.072712555
0.058773801
0.037377918
0.017847701
0.0089175725
0.0064065687
0.0054834323
0.0049792055
0.004687609
0.0045165794
0.0043705021
0.0042734907
0.004199569
0.0041576584
0.0041180608
0.0012661058
0.0019488426
0.0033096656
0.0053509001
0.0080714564
0.011524825
0.015796424
0.020977255
0.027151179
0.0342409
0.042152453
0.050732638
0.059552429
0.067822063
0.074233268
0.076801829
0.072786774
0.05954591
0.038473767
0.018505321
0.0090990149
0.0064427666
0.005498078
0.0049881644
0.0046948216
0.0045214968
0.0043726461
0.0042753155
0.0042005042
0.0041584105
0.004118221
0.0014172496
0.0020502696
0.0033587686
0.0053429846
0.0079966575
0.01136687
0.015535162
0.020590856
0.02661071
0.033561981
0.041334636
0.049795287
0.058539444
0.066822508
0.073376399
0.076272204
0.072820023
0.060310103
0.039636495
0.019228204
0.0092842307
0.0064824369
0.0055132775
0.0049976107
0.0047023917
0.004526635
0.0043748918
0.0042772197
0.0042015104
0.0041591922
0.0041183946
0.001602238
0.0021733765
0.0034237903
0.005346736
0.007931599
0.011217865
0.015282434
0.020212935
0.026085171
0.032887338
0.040514525
0.0488483
0.057508383
0.065793169
0.072479072
0.075695368
0.072808105
0.06106067
0.040842777
0.020021901
0.0095099102
0.0065256715
0.0055296536
0.0050076055
0.0047105412
0.0045320207
0.0043772575
0.0042792174
0.0042025933
0.0041600123
0.0041185843
0.0018305645
0.0023329884
0.0035114078
0.005366592
0.0078797163
0.011081075
0.015041591
0.019845936
0.025561599
0.032218847
0.039696242
0.047896441
0.056470859
0.064737736
0.071542861
0.075070473
0.072746898
0.061783971
0.042084472
0.020891879
0.0097517459
0.0065737096
0.005546275
0.0050182298
0.0047189936
0.0045375755
0.0043797329
0.0042812717
0.004203752
0.0041608469
0.0041187929
0.0021062892
0.002530623
0.0036267544
0.0054059503
0.0078441711
0.01095972
0.014815906
0.019492772
0.025052386
0.031558747
0.038884098
0.046943899
0.05541712
0.063659166
0.070569923
0.074397217
0.072632581
0.062471267
0.04335118
0.021840038
0.010033515
0.006625675
0.0055645668
0.0050293497
0.0047280777
0.0045434142
0.0043823305
0.0042834192
0.0042050021
0.0041617115
0.0041190241
0.0024332223
0.0027770872
0.0037830034
0.0054717666
0.0078289463
0.010857187
0.014609114
0.019159384
0.024573029
0.030918022
0.038084216
0.045996059
0.054356388
0.062561555
0.069563104
0.073675994
0.072461772
0.063113819
0.044618794
0.022866584
0.010346065
0.0066848499
0.0055826214
0.005041346
0.0047374863
0.0045493026
0.004385054
0.0042855822
0.0042063466
0.0041625677
0.0041192822
0.0028091615
0.003073636
0.003968979
0.005565915
0.007837446
0.01077699
0.01442527
0.018850637
0.024120483
0.030306085
0.037304948
0.045059432
0.053296174
0.061449067
0.068525932
0.072908047
0.072231883
0.063701777
0.045885421
0.02397522
0.010701449
0.00674745
0.0056030076
0.0050535576
0.0047473412
0.0045555434
0.004387855
0.0042878366
0.00420781
0.0041634443
0.0041195721
0.0032293815
0.003424314
0.0042077356
0.0056991446
0.0078772275
0.010725081
0.014269809
0.018571571
0.023696578
0.029702938
0.03654682
0.044140064
0.052242445
0.060319751
0.067462519
0.072095643
0.071941699
0.064225857
0.047152181
0.025164108
0.011101553
0.0068215871
0.0056229008
0.0050668269
0.004757943
0.0045616534
0.0043908273
0.0042900477
0.0042094106
0.0041642964
0.0041198992
0.0036803155
0.0038226029
0.0045028902
0.0058774013
0.0079540074
0.01070703
0.014148401
0.018328292
0.023308974
0.029141566
0.035827418
0.04324783
0.051205259
0.059209871
0.066381408
0.071242488
0.071591245
0.064679486
0.048412376
0.026434611
0.011550324
0.0068980334
0.005645453
0.0050801913
0.0047682613
0.004568155
0.0043937428
0.0042923604
0.0042111596
0.0041651617
0.0041202702
0.0041498422
0.0042590278
0.0048471979
0.0061069333
0.008075528
0.010730656
0.014069623
0.018128768
0.022967171
0.028636132
0.035150739
0.042391302
0.050193286
0.058109363
0.065289251
0.070353441
0.071182133
0.065057927
0.049652683
0.027771053
0.012058576
0.0069912161
0.0056684276
0.0050937862
0.0047804427
0.0045744102
0.0043969591
0.004294563
0.0042130825
0.0041660142
0.0041206917
0.0046202231
0.0047236475
0.0052490458
0.0064041821
0.0082641519
0.010815904
0.014049308
0.017987578
0.022679857
0.028183294
0.034499098
0.041572088
0.049213391
0.057015783
0.064192387
0.069434292
0.07071738
0.065363893
0.050867246
0.029213066
0.012623601
0.0070966135
0.0056926171
0.0051092562
0.0047912166
0.0045808173
0.0043998397
0.0042969031
0.0042150923
0.0041668482
0.0041211709
0.0050597899
0.0051854162
0.0056851787
0.0067619356
0.0085250739
0.010975396
0.014101973
0.017919307
0.022461095
0.027798564
0.033928137
0.040837034
0.048284489
0.055951702
0.063099971
0.068491509
0.070198061
0.065598766
0.052050483
0.030709657
0.013264544
0.0072208738
0.0057208106
0.0051212316
0.0048046863
0.0045871659
0.004403304
0.0042990733
0.0042172009
0.0041677391
0.0041217139
0.0054663236
0.0056382701
0.006150302
0.0071892706
0.0088742273
0.011228977
0.01424808
0.017942793
0.02232878
0.02749822
0.033441411
0.040134752
0.047405982
0.054924923
0.062008492
0.067530656
0.0696255
0.065752372
0.053167722
0.03221544
0.013963471
0.0073651815
0.0057452928
0.0051407222
0.0048172995
0.004592865
0.0044059794
0.0043013997
0.0042191822
0.0041685169
0.0041223254
0.0058791932
0.0061217649
0.0066805197
0.0077180839
0.0093446627
0.011609357
0.014517574
0.018083067
0.022307764
0.027299156
0.033043831
0.03950857
0.04659974
0.053952218
0.060966087
0.066564849
0.069005309
0.065821397
0.054205681
0.033772299
0.014756804
0.0075162201
0.0057801133
0.005151568
0.0048296357
0.0045989418
0.0044097347
0.0043035018
0.0042211238
0.0041695241
0.0041230066
0.006389418
0.0067136581
0.0073358621
0.0083927858
0.0099771661
0.012155697
0.014945422
0.018368414
0.022421987
0.027222768
0.032760401
0.039011701
0.045892147
0.053049432
0.059966077
0.065604425
0.068345241
0.06580781
0.055152825