/*--------------------------------*- C++ -*----------------------------------*\
| =========                 |                                                 |
| \\      /  F ield         | OpenFOAM: The Open Source CFD Toolbox           |
|  \\    /   O peration     | Version:  2406                                  |
|   \\  /    A nd           | Website:  www.openfoam.com                      |
|    \\/     M anipulation  |                                                 |
\*---------------------------------------------------------------------------*/
FoamFile
{
    version     2.0;
    format      ascii;
    arch        "LSB;label=32;scalar=64";
    class       volScalarField;
    location    "0.005";
    object      rho;
}
// * * * * * * * * * * * * * * * * * * * * * * * * * * * * * * * * * * * * * //

dimensions      [1 -3 0 0 0 0 0];

internalField   nonuniform List<scalar> 
8260
(
1.2000656
1.1990299
1.1984146
1.1976535
1.196935
1.19638
1.1960316
1.1958941
1.1959593
1.1962055
1.1966429
1.1972401
1.1979907
1.1988051
1.199691
1.200576
1.2011245
1.2012227
1.2013242
1.2014935
1.2016725
1.2018431
1.2019888
1.2021133
1.202229
1.2023331
1.2024311
1.2025072
1.2025739
1.2026215
1.2026921
1.2017703
1.2008882
1.2000129
1.1990574
1.1982058
1.1975336
1.1970611
1.196804
1.1967469
1.1968792
1.1972096
1.197715
1.1983767
1.1991291
1.1999157
1.2007323
1.2011887
1.2012725
1.2013753
1.2015377
1.2017075
1.2018706
1.2020103
1.2021301
1.2022419
1.2023427
1.2024382
1.2025124
1.2025782
1.2026242
1.2026967
1.202794
1.2020103
1.2010778
1.2000666
1.1991641
1.1984292
1.1978799
1.1975415
1.1974042
1.1974365
1.197684
1.1981164
1.1987106
1.1994253
1.2001449
1.2009107
1.2012666
1.201341
1.2014396
1.2015909
1.2017489
1.2019028
1.2020355
1.2021498
1.2022569
1.202354
1.2024465
1.2025184
1.2025837
1.2026275
1.2026998
1.2035673
1.2028528
1.2019503
1.2009454
1.2000254
1.1992519
1.1986456
1.1982316
1.1980146
1.197977
1.1981509
1.1985158
1.1990491
1.1997287
1.2003925
1.2011009
1.2013559
1.2014212
1.2015134
1.2016511
1.2017957
1.2019393
1.202064
1.2021721
1.2022739
1.2023667
1.2024557
1.2025252
1.2025907
1.2026315
1.2027022
1.2041888
1.203541
1.2027033
1.2017442
1.2008404
1.2000569
1.1994175
1.1989474
1.1986623
1.1985624
1.1986663
1.1989636
1.1994355
1.2000713
1.2006749
1.2013021
1.2014614
1.2015137
1.2015981
1.2017196
1.201849
1.2019809
1.2020966
1.2021975
1.2022933
1.2023812
1.2024662
1.2025329
1.2025989
1.2026363
1.2027077
1.2046488
1.2040576
1.2033045
1.2024273
1.2015771
1.2008175
1.2001749
1.1996761
1.1993439
1.1991905
1.1992315
1.1994642
1.1998762
1.20046
1.200996
1.2015104
1.2015881
1.2016198
1.201695
1.2017975
1.2019093
1.2020282
1.2021335
1.2022265
1.2023153
1.2023978
1.202478
1.2025418
1.202608
1.2026419
1.2027157
1.204947
1.2044143
1.2037481
1.2029789
1.2022148
1.2015109
1.2008956
1.2003968
1.2000416
1.1998502
1.19984
1.2000151
1.2003721
1.2008967
1.201353
1.201721
1.2017365
1.2017426
1.2018053
1.2018859
1.2019777
1.2020819
1.2021755
1.2022593
1.2023403
1.2024166
1.2024915
1.202552
1.202617
1.2026486
1.2027247
1.2051076
1.2046381
1.2040767
1.2034241
1.2027613
1.2021353
1.2015726
1.2011002
1.2007463
1.2005358
1.2004891
1.2006172
1.2009269
1.2013823
1.2017379
1.2019375
1.2019023
1.2018857
1.2019299
1.201986
1.2020551
1.2021426
1.2022231
1.2022966
1.2023685
1.2024379
1.2025067
1.2025636
1.2026252
1.2026559
1.2027291
1.2051926
1.2047713
1.2043074
1.2037767
1.2032288
1.2026988
1.2022096
1.2017862
1.2014561
1.2012459
1.2011787
1.2012727
1.2015447
1.2019096
1.2021359
1.2021703
1.2020843
1.2020513
1.2020698
1.2020986
1.2021427
1.2022113
1.2022771
1.2023389
1.2024006
1.2024618
1.202524
1.2025767
1.2026329
1.2026632
1.20273
1.2052176
1.2048846
1.2045004
1.2040796
1.2036524
1.2032286
1.2028255
1.2024662
1.2021767
1.2019832
1.2019106
1.2019844
1.2022242
1.2024605
1.2025329
1.202418
1.2022895
1.2022393
1.2022252
1.2022242
1.2022416
1.2022888
1.2023384
1.2023868
1.2024369
1.2024887
1.2025434
1.2025914
1.2026403
1.2026705
1.202731
1.2051896
1.2050556
1.2048247
1.2045027
1.2041469
1.2037958
1.2034641
1.2031671
1.2029243
1.202758
1.202693
1.202756
1.2029453
1.203026
1.2029041
1.2026715
1.202526
1.2024465
1.2023957
1.2023631
1.2023522
1.2023756
1.2024075
1.202441
1.2024781
1.2025191
1.2025651
1.2026078
1.2026493
1.2026782
1.2027323
1.2054619
1.2053571
1.2051517
1.2049075
1.2046463
1.204386
1.2041373
1.2039116
1.2037244
1.2035953
1.2035478
1.2035933
1.2036683
1.2035365
1.2032129
1.2029533
1.2027899
1.2026673
1.2025798
1.2025152
1.2024742
1.2024712
1.2024854
1.2025022
1.2025248
1.2025539
1.2025894
1.202626
1.20266
1.2026868
1.2027343
1.2057277
1.2057308
1.2056769
1.2055062
1.2053051
1.205112
1.2049347
1.2047747
1.2046377
1.2045323
1.2044609
1.2043937
1.2042262
1.2038776
1.2035209
1.203261
1.2030581
1.2028999
1.2027775
1.2026798
1.2026063
1.2025765
1.2025717
1.2025711
1.2025776
1.202594
1.2026173
1.2026463
1.202673
1.2026963
1.2027366
1.2065956
1.2065573
1.2063958
1.2061768
1.2059758
1.2058293
1.2057226
1.2056199
1.2054998
1.2053515
1.2051546
1.2048819
1.2045243
1.204148
1.2038312
1.2035616
1.2033291
1.2031347
1.2029817
1.2028545
1.2027501
1.2026919
1.2026664
1.2026477
1.202637
1.20264
1.2026499
1.2026693
1.2026885
1.2027073
1.2027395
1.2069966
1.2070679
1.2071111
1.2071208
1.2070316
1.2068223
1.2065793
1.2063361
1.2060669
1.2057645
1.2054372
1.2050927
1.2047522
1.2044289
1.2041233
1.203841
1.2035835
1.2033642
1.2031859
1.2030348
1.2029048
1.2028172
1.2027686
1.2027324
1.202703
1.2026917
1.2026883
1.2026961
1.2027074
1.2027205
1.2027449
1.2069966
1.206927
1.2068105
1.2066619
1.2065547
1.2065075
1.20647
1.2064237
1.2062826
1.2060153
1.2056861
1.205341
1.2050084
1.2046767
1.2043685
1.2040838
1.2038184
1.203581
1.2033814
1.2032131
1.2030658
1.2029526
1.2028785
1.2028244
1.2027753
1.2027485
1.2027328
1.2027276
1.2027297
1.2027365
1.202753
1.2070095
1.2069485
1.2068674
1.2067695
1.2066632
1.2065373
1.2063654
1.2061439
1.2059592
1.2058659
1.2057496
1.2055305
1.2052276
1.2048932
1.2045876
1.2043011
1.2040319
1.2037837
1.2035667
1.203384
1.2032244
1.2030932
1.2029944
1.2029208
1.202855
1.2028094
1.2027822
1.2027641
1.2027554
1.2027556
1.202765
1.2066775
1.2066259
1.2065623
1.2064913
1.2064125
1.206324
1.2062257
1.2061153
1.2059831
1.2058069
1.2056248
1.2055065
1.2053471
1.2050774
1.2047752
1.2044897
1.2042244
1.2039728
1.2037431
1.2035487
1.2033761
1.2032303
1.2031123
1.2030202
1.20294
1.2028749
1.2028349
1.2028049
1.2027842
1.202777
1.2027792
1.206465
1.206425
1.2063747
1.2063168
1.2062498
1.2061708
1.2060774
1.2059693
1.2058502
1.2057275
1.2055874
1.2053876
1.2051915
1.2050785
1.2049035
1.2046496
1.2043893
1.2041449
1.2039116
1.2037115
1.2035244
1.2033577
1.2032275
1.2031201
1.203029
1.2029458
1.2028892
1.202848
1.2028152
1.2027991
1.2027946
1.2061332
1.2060995
1.2060581
1.206012
1.2059604
1.2059024
1.2058375
1.2057642
1.2056793
1.2055768
1.2054575
1.2053365
1.2051978
1.2050358
1.2049089
1.2047379
1.2045022
1.2042724
1.2040538
1.2038549
1.2036711
1.2034842
1.2033383
1.2032183
1.2031186
1.2030216
1.2029455
1.2028912
1.202847
1.2028207
1.2028085
1.2059042
1.2058798
1.205849
1.2058143
1.2057745
1.2057284
1.2056745
1.2056116
1.2055391
1.2054581
1.2053674
1.2052607
1.2051471
1.2050296
1.2048677
1.2046893
1.2045227
1.2043371
1.2041497
1.2039526
1.2037844
1.2036071
1.2034445
1.2033145
1.2032028
1.2030979
1.2030038
1.2029336
1.2028781
1.2028407
1.2028213
1.2055888
1.2055682
1.2055428
1.2055147
1.2054834
1.2054481
1.2054082
1.2053633
1.2053123
1.2052531
1.2051847
1.2051081
1.2050175
1.2049083
1.204809
1.2047309
1.2046037
1.2044041
1.2042101
1.2040157
1.2038488
1.2036936
1.2035355
1.2033986
1.2032765
1.2031662
1.2030615
1.2029735
1.2029062
1.202858
1.2028315
1.2053653
1.2053512
1.2053334
1.2053136
1.2052909
1.2052644
1.2052331
1.2051962
1.2051526
1.2051018
1.205043
1.2049743
1.204896
1.2048094
1.2047007
1.2045705
1.2044883
1.2044275
1.2042868
1.204103
1.2039062
1.2037441
1.2035946
1.2034573
1.2033345
1.2032197
1.2031104
1.2030074
1.2029267
1.2028686
1.2028365
1.2050529
1.2050405
1.2050254
1.205009
1.2049905
1.2049694
1.2049452
1.2049174
1.2048857
1.2048495
1.204808
1.2047619
1.2047094
1.2046471
1.2045844
1.2045152
1.2044114
1.2043087
1.2042493
1.204159
1.2039881
1.2037997
1.2036317
1.2034923
1.2033737
1.2032536
1.2031402
1.2030288
1.2029348
1.2028668
1.2028283
1.2048287
1.2048208
1.2048108
1.2047996
1.204787
1.2047724
1.2047556
1.204736
1.2047132
1.2046863
1.2046538
1.2046134
1.2045651
1.2045102
1.204443
1.2043737
1.2043091
1.2042147
1.204093
1.204027
1.2039819
1.2038428
1.2036672
1.2035071
1.2033827
1.203266
1.2031455
1.2030313
1.2029284
1.2028507
1.2028061
1.2045212
1.204514
1.2045054
1.204496
1.2044855
1.2044737
1.2044602
1.2044447
1.204427
1.2044068
1.204384
1.2043586
1.2043299
1.2042977
1.2042634
1.2042164
1.2041583
1.2041058
1.2040354
1.2039146
1.2038321
1.2037979
1.2036807
1.2035145
1.2033621
1.2032515
1.20313
1.2030148
1.2029104
1.2028258
1.2027761
1.2042842
1.2042792
1.2042733
1.204267
1.20426
1.204252
1.2042428
1.2042323
1.2042202
1.2042061
1.2041897
1.2041703
1.2041468
1.2041174
1.2040806
1.2040408
1.2039929
1.203932
1.2038763
1.2038186
1.2037012
1.2036065
1.2035943
1.2034947
1.2033395
1.2032087
1.2030962
1.2029842
1.2028826
1.2027986
1.2027463
1.2040021
1.2039985
1.2039944
1.2039901
1.2039853
1.2039798
1.2039735
1.2039661
1.2039575
1.2039474
1.2039356
1.203922
1.2039065
1.2038886
1.2038667
1.2038379
1.203803
1.2037624
1.2037089
1.2036544
1.2036101
1.2035255
1.2034302
1.2033822
1.2032686
1.2031456
1.2030394
1.2029369
1.2028416
1.2027642
1.2027127
1.2037896
1.2037868
1.2037837
1.2037803
1.2037766
1.2037723
1.2037673
1.2037615
1.2037546
1.2037464
1.2037363
1.2037236
1.2037074
1.2036872
1.2036633
1.2036361
1.2036057
1.2035709
1.2035333
1.2034877
1.2034337
1.2033819
1.2032985
1.2032182
1.2031721
1.2030715
1.2029631
1.2028674
1.2027816
1.2027113
1.2026625
1.2035396
1.2035365
1.2035331
1.2035294
1.2035252
1.2035205
1.2035151
1.2035089
1.2035019
1.2034939
1.2034849
1.2034749
1.2034638
1.2034512
1.2034356
1.203417
1.2033946
1.2033676
1.2033343
1.2032929
1.2032421
1.2031829
1.203128
1.2030685
1.2030048
1.2029398
1.2028651
1.2027819
1.2027037
1.20264
1.2025973
1.2032819
1.2032791
1.2032759
1.2032726
1.2032689
1.2032647
1.20326
1.2032547
1.2032488
1.2032422
1.2032348
1.2032264
1.2032166
1.2032052
1.2031921
1.2031769
1.2031589
1.2031373
1.2031113
1.2030804
1.2030444
1.2030019
1.2029531
1.2028986
1.2028398
1.2027798
1.2027135
1.2026481
1.2025846
1.2025312
1.2024972
1.1873469
1.1877569
1.1882078
1.1886039
1.1889193
1.1892236
1.189611
1.1901062
1.1906801
1.1913786
1.1921897
1.1930975
1.1940876
1.1951434
1.196234
1.1974101
1.1984745
1.1995881
1.2001931
1.200493
1.2007797
1.2010779
1.2013609
1.201607
1.2018258
1.202015
1.2021813
1.2023112
1.2024215
1.2024938
1.2025416
1.1883063
1.1886148
1.18877
1.188922
1.1891103
1.189386
1.1897886
1.1903235
1.1909623
1.1917055
1.192541
1.1934579
1.1944442
1.1954806
1.1965415
1.1976789
1.1987046
1.1997242
1.2002094
1.2005189
1.2008102
1.201111
1.2013893
1.20163
1.2018444
1.2020299
1.2021932
1.2023207
1.2024295
1.2025004
1.2025499
1.1881128
1.1882246
1.1883162
1.1885123
1.1888135
1.1892083
1.1897188
1.1903501
1.1910594
1.1918573
1.1927339
1.193678
1.1946783
1.1957141
1.196768
1.1978872
1.1989136
1.1998432
1.2002395
1.2005566
1.2008487
1.2011481
1.2014198
1.2016545
1.201864
1.2020454
1.2022055
1.2023303
1.2024375
1.2025069
1.2025586
1.1876556
1.1877964
1.1879629
1.188237
1.1886112
1.1890845
1.1896687
1.1903599
1.1911267
1.1919727
1.1928857
1.1938543
1.1948685
1.195907
1.1969641
1.198061
1.199091
1.1999508
1.2002858
1.2005961
1.2008873
1.2011846
1.2014497
1.2016785
1.2018832
1.2020607
1.2022176
1.2023399
1.2024453
1.2025133
1.2025672
1.1869937
1.1872113
1.1874734
1.1878545
1.188341
1.1889239
1.1896032
1.1903682
1.1911992
1.1920938
1.193041
1.1940316
1.1950574
1.1960979
1.1971658
1.1982299
1.1992544
1.20005
1.200339
1.2006359
1.2009273
1.2012212
1.2014795
1.2017025
1.2019024
1.2020759
1.2022296
1.2023494
1.202453
1.2025196
1.2025755
1.1861893
1.1865194
1.1869216
1.1874477
1.188069
1.1887704
1.1895469
1.1903885
1.191282
1.1922228
1.1932015
1.1942119
1.195247
1.1962894
1.1973705
1.1984072
1.1994069
1.200135
1.2003901
1.2006758
1.2009679
1.2012575
1.201509
1.2017262
1.2019214
1.202091
1.2022415
1.2023587
1.2024604
1.2025258
1.2025836
1.1852277
1.1857473
1.1863426
1.1870397
1.1878065
1.1886287
1.1895023
1.1904201
1.191373
1.1923562
1.1933634
1.194391
1.1954333
1.1964774
1.1975695
1.198588
1.1995355
1.2002039
1.2004389
1.2007165
1.2010091
1.2012935
1.2015382
1.2017497
1.2019402
1.2021059
1.2022533
1.202368
1.2024676
1.2025318
1.2025915
1.1842734
1.1850108
1.1858044
1.186668
1.1875749
1.1885122
1.1894778
1.190467
1.1914735
1.1924943
1.1935261
1.1945681
1.1956151
1.1966598
1.1977531
1.1987476
1.1996554
1.2002663
1.200486
1.2007583
1.2010507
1.2013291
1.2015672
1.201773
1.2019589
1.2021207
1.202265
1.2023772
1.2024745
1.2025377
1.2025992
1.1834324
1.1843693
1.1853352
1.1863512
1.1873893
1.1884316
1.1894799
1.1905327
1.1915856
1.1926382
1.1936902
1.1947431
1.1957921
1.1968374
1.197916
1.1988888
1.1997892
1.2003252
1.2005322
1.2008011
1.2010922
1.2013643
1.2015957
1.201796
1.2019773
1.2021353
1.2022765
1.2023862
1.2024812
1.2025435
1.2026067
1.1827266
1.1838498
1.1849577
1.1861125
1.1872686
1.1883974
1.1895143
1.19062
1.1917106
1.1927884
1.1938555
1.194916
1.1959659
1.1970162
1.1980698
1.1990244
1.1999217
1.2003828
1.2005785
1.2008451
1.2011336
1.201399
1.201624
1.2018187
1.2019955
1.2021497
1.2022879
1.202395
1.2024876
1.2025491
1.2026141
1.1821938
1.1834579
1.1847173
1.185985
1.1872268
1.188417
1.189587
1.1907322
1.1918497
1.1929451
1.1940223
1.1950888
1.1961418
1.1971873
1.198215
1.199165
1.2000417
1.2004417
1.2006257
1.20089
1.2011747
1.2014332
1.2016519
1.2018412
1.2020135
1.2021639
1.202299
1.2024037
1.2024939
1.2025546
1.2026213
1.1819234
1.1832913
1.1846394
1.185964
1.1872502
1.1884974
1.1897076
1.1908738
1.192005
1.1931103
1.194194
1.195267
1.1963282
1.1973499
1.1983444
1.1993025
1.2001479
1.2005012
1.2006742
1.2009356
1.2012152
1.2014668
1.2016793
1.2018633
1.2020311
1.2021779
1.20231
1.2024123
1.2025
1.2025601
1.2026283
1.1819583
1.1833638
1.1847333
1.1860726
1.1873762
1.1886404
1.189868
1.1910514
1.1921858
1.1932929
1.1943786
1.1954526
1.1964841
1.1974884
1.1984786
1.1994385
1.2002443
1.2005601
1.2007237
1.2009815
1.2012551
1.2014999
1.2017064
1.2018851
1.2020485
1.2021916
1.2023208
1.2024207
1.2025061
1.2025655
1.2026352
1.1822854
1.1836773
1.1850097
1.1863179
1.1876035
1.1888577
1.1900848
1.1912723
1.1924064
1.1935038
1.1945732
1.1956028
1.1966138
1.1976274
1.1986124
1.1995695
1.2003344
1.2006183
1.2007743
1.2010275
1.2012943
1.2015324
1.201733
1.2019065
1.2020656
1.2022051
1.2023314
1.2024289
1.2025122
1.2025708
1.2026419
1.1827029
1.1841125
1.1854202
1.1866888
1.1879366
1.1891621
1.1903684
1.1915234
1.1926318
1.19369
1.1947031
1.195721
1.1967606
1.1977622
1.1987405
1.1996927
1.2004204
1.2006761
1.2008257
1.2010732
1.2013327
1.2015643
1.2017592
1.2019276
1.2020824
1.2022183
1.2023418
1.202437
1.2025182
1.2025761
1.2026483
1.1831473
1.1845355
1.1858419
1.1870987
1.1883153
1.1894956
1.1906494
1.1917267
1.1927618
1.1938069
1.1948567
1.1958816
1.1969089
1.1978905
1.1988605
1.1998055
1.2005025
1.2007342
1.2008777
1.2011185
1.2013705
1.2015956
1.2017848
1.2019483
1.2020988
1.2022312
1.2023519
1.2024449
1.2025243
1.2025814
1.2026546
1.1842324
1.1853443
1.1864308
1.1875442
1.1886678
1.1897689
1.1908203
1.1918839
1.1929738
1.1940135
1.1950382
1.1960463
1.1970539
1.1980122
1.1989721
1.199904
1.2005805
1.2007926
1.2009291
1.2011631
1.2014074
1.2016261
1.2018099
1.2019685
1.2021148
1.2022438
1.2023618
1.2024526
1.2025304
1.2025866
1.2026605
1.1861402
1.186937
1.1876825
1.1884975
1.1893878
1.1903179
1.1912539
1.1922377
1.1932581
1.194246
1.1952274
1.1962077
1.1971951
1.1981281
1.1990745
1.1999929
1.2006549
1.2008507
1.2009802
1.2012069
1.2014434
1.2016559
1.2018345
1.2019883
1.2021305
1.2022561
1.2023714
1.2024601
1.2025363
1.2025917
1.2026661
1.1878693
1.1884983
1.1890217
1.1896024
1.190272
1.1910092
1.1917893
1.1926519
1.193579
1.1944906
1.1954206
1.1963672
1.1973324
1.1982392
1.1991698
1.2000811
1.2007262
1.2009085
1.2010309
1.20125
1.2014787
1.201685
1.2018584
1.2020077
1.2021458
1.2022681
1.2023808
1.2024675
1.2025421
1.2025966
1.2026712
1.1897566
1.1901555
1.19043
1.1907738
1.1912229
1.1917564
1.1923653
1.1931003
1.1939212
1.1947498
1.1956184
1.1965245
1.1974646
1.198346
1.19926
1.2001717
1.2007948
1.2009657
1.2010811
1.2012922
1.2015128
1.2017132
1.2018816
1.2020265
1.2021607
1.2022797
1.2023898
1.2024747
1.2025478
1.2026013
1.2026759
1.1918376
1.1919654
1.1919584
1.1920388
1.1922459
1.1925529
1.1929865
1.1935881
1.1942827
1.1950237
1.1958216
1.1966793
1.1975905
1.1984482
1.1993464
1.2002624
1.2008605
1.2010207
1.2011299
1.2013328
1.2015455
1.2017401
1.2019039
1.2020445
1.2021749
1.202291
1.2023986
1.2024817
1.2025534
1.2026059
1.20268
1.194114
1.1939289
1.1936215
1.1934162
1.1933551
1.1934302
1.1936979
1.1941322
1.1946768
1.1953247
1.1960427
1.1968417
1.197717
1.1985493
1.1994316
1.2003391
1.2009196
1.2010696
1.2011759
1.2013713
1.2015765
1.2017657
1.2019252
1.2020619
1.2021888
1.2023019
1.2024072
1.2024885
1.2025589
1.2026103
1.2026836
1.1966788
1.1961905
1.195609
1.1950842
1.1947328
1.1945702
1.1945993
1.1948094
1.1951824
1.1957056
1.1963234
1.1970454
1.1978688
1.1986655
1.1995221
1.2003923
1.2009672
1.2011094
1.2012197
1.2014091
1.2016069
1.2017908
1.2019462
1.2020792
1.2022025
1.2023128
1.2024157
1.2024954
1.2025645
1.2026147
1.2026864
1.1992854
1.1986878
1.198048
1.1972991
1.1966108
1.1961013
1.1958129
1.1957486
1.195896
1.1962196
1.1966989
1.1973166
1.1980653
1.1988154
1.1996333
1.2004532
1.2010159
1.2011525
1.2012686
1.2014504
1.2016397
1.2018175
1.2019684
1.2020972
1.2022167
1.2023239
1.2024243
1.2025022
1.2025699
1.2026188
1.2026885
1.1877879
1.1882486
1.1886892
1.1890871
1.1894387
1.1897655
1.1901293
1.1905763
1.1910896
1.1917228
1.192468
1.1933136
1.194245
1.1952462
1.1962808
1.1973836
1.1984096
1.1994321
1.2001181
1.2004387
1.2007386
1.2010424
1.2013317
1.2015835
1.201807
1.2020002
1.2021694
1.2023018
1.2024136
1.2024875
1.2025299
1.1879957
1.188495
1.1889289
1.1892998
1.1896315
1.189954
1.1903067
1.1906974
1.1911769
1.1917749
1.1924865
1.193303
1.1942114
1.1951967
1.1962245
1.1973164
1.1983821
1.1993699
1.2001035
1.2004228
1.2007187
1.2010221
1.2013139
1.201569
1.2017952
1.2019907
1.2021617
1.2022957
1.2024083
1.2024833
1.2025206
1.1880217
1.1885168
1.1889759
1.1893774
1.1897286
1.1900643
1.1904206
1.1908076
1.1912774
1.1918524
1.1925367
1.1933261
1.19421
1.1951754
1.196192
1.1972657
1.198346
1.199335
1.2000863
1.200414
1.2007058
1.2010069
1.2012999
1.2015569
1.2017851
1.2019823
1.2021546
1.2022899
1.2024031
1.2024789
1.2025124
1.1880476
1.1885303
1.1890136
1.1894478
1.1898302
1.1901863
1.1905512
1.1909462
1.1914094
1.1919634
1.19262
1.1933801
1.1942362
1.1951769
1.1961761
1.1972241
1.1983032
1.199298
1.2000584
1.200401
1.2006915
1.2009909
1.2012851
1.2015442
1.2017743
1.2019733
1.2021469
1.2022835
1.2023973
1.202474
1.2025045
1.1881026
1.1885752
1.1890827
1.1895371
1.18994
1.1903132
1.1906876
1.1910884
1.1915454
1.1920811
1.1927124
1.193444
1.1942719
1.1951866
1.1961659
1.1971869
1.1982612
1.1992562
1.2000241
1.2003844
1.2006748
1.2009726
1.2012683
1.2015299
1.2017622
1.2019631
1.2021382
1.2022762
1.2023908
1.2024686
1.2024966
1.1881743
1.1886348
1.1891534
1.1896246
1.1900436
1.1904317
1.1908161
1.1912217
1.191674
1.1921953
1.1928045
1.1935099
1.1943108
1.1951997
1.1961581
1.1971558
1.1982214
1.1992118
1.1999903
1.2003657
1.200657
1.2009528
1.20125
1.2015142
1.2017488
1.2019521
1.2021288
1.2022684
1.2023839
1.2024628
1.2024883
1.1882536
1.1886971
1.1892174
1.1897022
1.1901371
1.1905399
1.1909351
1.1913461
1.1917958
1.1923058
1.1928962
1.1935777
1.1943527
1.1952161
1.1961529
1.1971319
1.1981801
1.1991641
1.1999621
1.2003471
1.2006394
1.2009324
1.2012309
1.2014976
1.2017347
1.2019403
1.2021187
1.20226
1.2023763
1.2024564
1.2024795
1.188338
1.1887634
1.18928
1.1897749
1.1902245
1.1906416
1.1910475
1.1914642
1.1919129
1.1924142
1.1929883
1.193648
1.1943984
1.1952367
1.1961513
1.1971127
1.1981375
1.1991124
1.1999359
1.2003302
1.2006223
1.2009117
1.2012112
1.2014804
1.2017199
1.2019278
1.2021079
1.202251
1.2023683
1.2024495
1.2024704
1.1884361
1.1888445
1.1893507
1.1898502
1.1903112
1.1907403
1.1911559
1.1915781
1.1920266
1.1925211
1.1930812
1.1937212
1.1944484
1.1952621
1.1961538
1.197097
1.1981006
1.1990596
1.1999022
1.2003154
1.2006057
1.2008908
1.2011909
1.2014624
1.2017044
1.2019146
1.2020964
1.2022414
1.2023596
1.202442
1.2024608
1.1885539
1.1889413
1.1894322
1.1899317
1.1904001
1.1908385
1.1912622
1.1916892
1.1921378
1.1926268
1.193175
1.1937973
1.1945026
1.1952924
1.1961608
1.1970849
1.1980697
1.1990114
1.1998605
1.2003024
1.2005897
1.2008696
1.2011701
1.2014437
1.2016881
1.2019007
1.2020842
1.202231
1.2023503
1.2024338
1.2024508
1.1886909
1.1890558
1.1895273
1.1900212
1.190493
1.190938
1.1913678
1.1917987
1.1922477
1.1927323
1.1932702
1.1938765
1.1945614
1.1953281
1.1961731
1.1970771
1.1980434
1.1989722
1.199816
1.2002903
1.2005746
1.2008484
1.2011486
1.2014243
1.201671
1.2018859
1.2020712
1.2022199
1.2023402
1.202425
1.2024403
1.1888452
1.1891872
1.1896367
1.1901163
1.1905898
1.1910394
1.1914739
1.1919079
1.1923572
1.1928382
1.1933673
1.1939594
1.1946253
1.1953698
1.1961912
1.1970743
1.1980212
1.1989394
1.1997741
1.2002767
1.2005607
1.2008273
1.2011267
1.2014041
1.2016531
1.2018703
1.2020573
1.202208
1.2023294
1.2024154
1.2024292
1.1890116
1.1893292
1.1897509
1.1902214
1.1906911
1.1911428
1.1915809
1.1920176
1.1924674
1.1929454
1.193467
1.1940465
1.1946949
1.1954179
1.1962157
1.1970769
1.198002
1.1988982
1.1997327
1.2002654
1.2005482
1.2008066
1.2011046
1.2013833
1.2016343
1.2018539
1.2020425
1.2021952
1.2023178
1.202405
1.2024175
1.1891859
1.1894794
1.1898738
1.1903288
1.1907944
1.1912467
1.1916887
1.1921284
1.1925793
1.1930552
1.1935705
1.1941388
1.1947708
1.1954731
1.1962474
1.1970853
1.1979838
1.1988568
1.1996921
1.200254
1.2005372
1.2007866
1.2010822
1.201362
1.2016149
1.2018366
1.2020268
1.2021814
1.2023052
1.2023937
1.2024052
1.1893646
1.1896379
1.1900048
1.1904397
1.1908981
1.1913524
1.1917978
1.192241
1.1926938
1.1931687
1.193679
1.1942373
1.194854
1.1955364
1.196287
1.1971001
1.1979675
1.1988205
1.1996549
1.2002431
1.2005278
1.2007676
1.2010599
1.2013402
1.2015947
1.2018184
1.2020101
1.2021668
1.2022918
1.2023815
1.2023922
1.1895421
1.1897933
1.1901327
1.1905501
1.1910022
1.1914582
1.1919085
1.1923568
1.1928128
1.193288
1.1937944
1.1943436
1.194946
1.1956089
1.1963355
1.1971222
1.197954
1.1987876
1.1996212
1.200234
1.2005198
1.20075
1.2010379
1.2013182
1.2015739
1.2017994
1.2019924
1.2021511
1.2022774
1.2023683
1.2023784
1.1897174
1.1899571
1.1902742
1.1906675
1.1911084
1.1915659
1.1920226
1.1924778
1.1929389
1.1934157
1.1939191
1.1944601
1.1950486
1.195692
1.1963943
1.1971528
1.1979468
1.1987628
1.1995979
1.2002275
1.2005141
1.2007344
1.2010164
1.201296
1.2015527
1.2017796
1.2019737
1.2021344
1.202262
1.202354
1.2023636
1.1898978
1.1901306
1.1904312
1.1907978
1.1912307
1.1916879
1.1921493
1.1926111
1.1930773
1.193556
1.1940567
1.1945895
1.1951639
1.1957875
1.1964649
1.1971946
1.1979572
1.1987552
1.1995855
1.2002221
1.2005104
1.2007208
1.2009958
1.2012741
1.201531
1.201759
1.201954
1.2021166
1.2022457
1.2023386
1.2023479
1.1900774
1.190293
1.1905966
1.1909725
1.1913928
1.1918412
1.1923019
1.1927668
1.193236
1.1937149
1.1942118
1.1947355
1.1952948
1.1958976
1.1965493
1.1972499
1.1979859
1.1987585
1.1995582
1.2002103
1.2005119
1.2007108
1.2009762
1.2012521
1.2015092
1.2017377
1.2019333
1.2020977
1.2022285
1.2023221
1.2023312
1.1903313
1.1905393
1.1908252
1.19118
1.1915876
1.1920302
1.1924895
1.1929546
1.1934235
1.1938997
1.1943899
1.194902
1.1954443
1.1960246
1.1966489
1.1973192
1.1980273
1.198769
1.1995317
1.200196
1.2005179
1.2007027
1.2009585
1.2012315
1.2014872
1.2017157
1.2019117
1.2020776
1.2022102
1.2023044
1.2023136
1.1906887
1.1908884
1.1911584
1.1914884
1.1918724
1.1922966
1.1927411
1.1931948
1.193654
1.1941201
1.1945978
1.1950938
1.1956155
1.1961706
1.1967653
1.1974031
1.1980797
1.1987895
1.1995208
1.2001816
1.2005259
1.2007005
1.200942
1.2012106
1.2014656
1.2016934
1.201889
1.2020564
1.2021907
1.2022854
1.2022949
1.191182
1.1913705
1.1916103
1.1919041
1.1922602
1.1926537
1.19307
1.1934995
1.1939375
1.1943838
1.1948411
1.1953147
1.1958111
1.1963373
1.1968997
1.1975023
1.1981442
1.1988207
1.1995225
1.200174
1.2005335
1.2007006
1.2009288
1.2011921
1.2014443
1.2016701
1.2018657
1.2020341
1.2021701
1.2022652
1.202275
1.1917656
1.1919377
1.1921673
1.1924422
1.192756
1.1931044
1.1934791
1.1938717
1.1942769
1.1946933
1.1951219
1.1955664
1.1960321
1.1965253
1.1970522
1.1976172
1.1982214
1.198861
1.1995232
1.200145
1.2005474
1.2007079
1.200919
1.2011751
1.2014231
1.2016474
1.2018416
1.2020108
1.2021481
1.2022437
1.2022541
1.1924342
1.1925853
1.1927874
1.1930298
1.1933032
1.193609
1.1939414
1.1942937
1.1946612
1.195042
1.1954362
1.1958464
1.196277
1.1967336
1.197222
1.1977471
1.198311
1.1989103
1.1995282
1.2001366
1.2005714
1.2007263
1.2009111
1.2011558
1.2014043
1.2016241
1.2018169
1.2019864
1.202125
1.2022209
1.2022322
1.1931241
1.1932585
1.1934343
1.1936382
1.1938737
1.1941401
1.1944324
1.1947452
1.1950743
1.1954179
1.1957755
1.1961488
1.1965417
1.1969592
1.197407
1.1978906
1.1984127
1.1989714
1.1995539
1.2001526
1.2005996
1.2007345
1.2009046
1.2011465
1.2013835
1.2016007
1.2017921
1.2019612
1.2021003
1.202197
1.2022093
1.1938068
1.1939217
1.1940679
1.1942404
1.1944422
1.1946729
1.1949285
1.1952049
1.1954983
1.1958063
1.1961279
1.1964644
1.1968191
1.1971969
1.1976036
1.1980449
1.1985247
1.1990428
1.1995911
1.2001621
1.200607
1.2007475
1.2009081
1.2011386
1.2013677
1.2015799
1.2017667
1.201935
1.2020748
1.2021716
1.2021854
1.1944624
1.1945549
1.1946761
1.1948208
1.1949917
1.1951894
1.1954118
1.1956552
1.1959162
1.1961916
1.19648
1.1967819
1.1971003
1.1974399
1.1978064
1.1982062
1.198644
1.1991215
1.1996331
1.2001699
1.2006168
1.2007703
1.2009189
1.2011343
1.2013505
1.2015559
1.2017413
1.2019085
1.2020477
1.2021452
1.2021605
1.1950767
1.1951497
1.1952481
1.1953671
1.1955092
1.1956763
1.1958677
1.196081
1.1963125
1.1965589
1.1968179
1.1970893
1.197375
1.1976795
1.1980087
1.1983692
1.1987668
1.1992046
1.1996797
1.2001853
1.2006312
1.2007986
1.2009298
1.2011245
1.2013332
1.2015375
1.2017171
1.2018808
1.2020201
1.2021171
1.2021341
1.1956614
1.1957158
1.1957922
1.1958862
1.1959997
1.1961354
1.1962946
1.1964765
1.1966786
1.1968975
1.1971302
1.197375
1.1976328
1.197907
1.1982032
1.1985283
1.1988889
1.1992893
1.1997289
1.2002031
1.2006444
1.2008308
1.2009365
1.2011251
1.2013293
1.2015168
1.2016904
1.201853
1.2019909
1.2020878
1.2021069
1.1961966
1.1962381
1.1962967
1.1963694
1.1964573
1.1965635
1.1966906
1.1968402
1.1970117
1.1972027
1.19741
1.1976309
1.1978648
1.1981138
1.1983825
1.1986775
1.1990057
1.1993724
1.199779
1.2002223
1.2006559
1.2008615
1.2009565
1.2011341
1.2013129
1.20149
1.2016665
1.2018247
1.201961
1.2020568
1.2020777
1.1965881
1.1966388
1.1967071
1.1967785
1.1968509
1.1969364
1.1970394
1.1971626
1.1973068
1.1974709
1.1976531
1.1978515
1.1980648
1.1982935
1.1985407
1.1988118
1.1991131
1.199451
1.1998283
1.2002433
1.2006645
1.200896
1.2009836
1.2011313
1.2013003
1.2014768
1.2016435
1.2017946
1.2019291
1.2020234
1.2020469
1.1969
1.1969174
1.196949
1.1970025
1.197079
1.1971704
1.1972779
1.1974029
1.1975372
1.197681
1.1978439
1.1980258
1.1982246
1.1984397
1.1986723
1.1989265
1.1992078
1.1995225
1.1998747
1.2002644
1.2006751
1.2009315
1.2010032
1.2011393
1.201307
1.2014542
1.2016119
1.2017639
1.201896
1.2019888
1.202014
1.1971521
1.1971787
1.1972126
1.1972524
1.1972997
1.1973585
1.1974317
1.1975241
1.197646
1.1977971
1.1979627
1.1981412
1.1983363
1.1985471
1.1987737
1.1990188
1.1992873
1.199585
1.1999169
1.200285
1.2006817
1.2009629
1.2010296
1.2011453
1.2012915
1.2014366
1.2015891
1.2017334
1.2018602
1.2019504
1.201978
1.1972238
1.1972592
1.1972985
1.1973432
1.197396
1.1974594
1.1975357
1.197627
1.197737
1.1978693
1.1980275
1.1982095
1.1984082
1.1986214
1.1988484
1.1990907
1.1993522
1.1996381
1.1999541
1.200304
1.2006849
1.2009888
1.2010587
1.2011477
1.2012827
1.201429
1.2015635
1.2016955
1.2018217
1.2019092
1.2019381
1.1972177
1.197253
1.1972941
1.1973422
1.1973996
1.1974687
1.1975521
1.1976526
1.1977724
1.1979135
1.1980765
1.1982599
1.1984603
1.1986764
1.1989056
1.1991476
1.1994051
1.1996829
1.1999864
1.2003209
1.2006867
1.2010089
1.2010825
1.2011513
1.201273
1.2014054
1.2015339
1.2016566
1.2017816
1.2018649
1.2018918
1.1972394
1.1972752
1.1973159
1.1973642
1.1974227
1.1974938
1.1975801
1.1976841
1.1978083
1.1979535
1.1981143
1.1982911
1.1984939
1.1987169
1.1989509
1.1991943
1.1994495
1.1997209
1.2000138
1.2003342
1.2006845
1.2010144
1.2011006
1.2011544
1.2012581
1.2013746
1.2015084
1.2016241
1.2017357
1.2018148
1.2018396
1.1973408
1.1973724
1.1974086
1.1974514
1.1975041
1.1975695
1.1976501
1.1977483
1.1978651
1.1979982
1.1981554
1.198345
1.198553
1.1987712
1.1990008
1.1992407
1.199491
1.1997546
1.2000365
1.2003423
1.2006766
1.2010087
1.2011143
1.2011534
1.2012409
1.2013512
1.2014734
1.2015805
1.2016828
1.2017602
1.2017817
1.1975435
1.1975684
1.1975974
1.1976321
1.1976751
1.1977292
1.1977964
1.1978774
1.1979756
1.1981028
1.1982605
1.1984364
1.1986266
1.1988331
1.1990539
1.1992861
1.1995285
1.1997828
1.2000529
1.2003442
1.2006623
1.2009915
1.2011236
1.2011498
1.2012244
1.2013233
1.2014274
1.2015318
1.2016292
1.2017011
1.2017171
1.1978089
1.1978283
1.1978519
1.19788
1.1979143
1.1979568
1.1980096
1.1980782
1.1981665
1.1982725
1.198397
1.1985426
1.1987104
1.198899
1.1991051
1.1993252
1.1995573
1.1998014
1.2000601
1.200338
1.2006412
1.2009662
1.2011223
1.2011407
1.2012045
1.2012885
1.2013852
1.2014829
1.2015671
1.2016358
1.2016526
1.1980869
1.1981034
1.1981239
1.1981482
1.1981769
1.1982113
1.198254
1.198311
1.1983817
1.1984637
1.1985613
1.1986781
1.1988171
1.1989785
1.1991608
1.1993614
1.1995781
1.1998096
1.2000565
1.2003221
1.2006119
1.2009257
1.2011099
1.201127
1.2011812
1.2012568
1.2013418
1.2014236
1.2015036
1.2015707