/*--------------------------------*- C++ -*----------------------------------*\
| =========                 |                                                 |
| \\      /  F ield         | OpenFOAM: The Open Source CFD Toolbox           |
|  \\    /   O peration     | Version:  2406                                  |
|   \\  /    A nd           | Website:  www.openfoam.com                      |
|    \\/     M anipulation  |                                                 |
\*---------------------------------------------------------------------------*/
FoamFile
{
    version     2.0;
    format      ascii;
    arch        "LSB;label=32;scalar=64";
    class       volScalarField;
    location    "0.029";
    object      alphat;
}
// * * * * * * * * * * * * * * * * * * * * * * * * * * * * * * * * * * * * * //

dimensions      [1 -1 -1 0 0 0 0];

internalField   nonuniform List<scalar> 
35803
(
0.045294304
0.049767304
0.055013248
0.060976448
0.067651566
0.075010122
0.082986949
0.091475501
0.10031206
0.10922507
0.11774453
0.12517271
0.13045184
0.13203845
0.12771643
0.11463311
0.089712738
0.053611335
0.023863424
0.011558085
0.0085307463
0.0074442321
0.0065839096
0.0059197066
0.0056058322
0.005408275
0.0052839748
0.0050719953
0.0050092048
0.0048984681
0.0048543806
0.051083469
0.055601928
0.060698163
0.066433838
0.07283528
0.079885508
0.08752393
0.095641045
0.10407152
0.11253195
0.12055362
0.12741179
0.13203289
0.13285213
0.12764104
0.11355945
0.087713127
0.051443126
0.022265342
0.011261299
0.0084286664
0.0073924188
0.0065457355
0.0059005444
0.0055956364
0.0054033912
0.0052821407
0.0050708943
0.0050080811
0.004898389
0.00485448
0.057862068
0.062262519
0.067177278
0.072666883
0.07876577
0.085465426
0.092711458
0.10039711
0.10834804
0.11627463
0.12369682
0.12987868
0.13372295
0.13364177
0.1273952
0.11216169
0.085243873
0.048773699
0.020812525
0.010917484
0.0083724513
0.0073630938
0.0065234426
0.0058893125
0.0055887694
0.0053994503
0.0052814196
0.0050701639
0.0050074405
0.0048983709
0.0048545994
0.065779218
0.069947048
0.07460233
0.079787967
0.085531522
0.091823815
0.098611732
0.10578846
0.11317309
0.12046772
0.12718173
0.13256115
0.13548699
0.13434627
0.12688896
0.11032086
0.082178923
0.045554793
0.019381264
0.010596416
0.0082905737
0.0073142787
0.0064912835
0.0058726159
0.0055781355
0.0053934567
0.0052803661
0.0050695271
0.0050064597
0.0048984086
0.0048547225
0.074930016
0.078788912
0.083105259
0.087911385
0.093226853
0.099037224
0.10528598
0.11186236
0.11857788
0.1251233
0.13099605
0.13542237
0.1372607
0.13487108
0.12599608
0.1078804
0.078359254
0.041753973
0.017924874
0.010263998
0.0082113182
0.0072667733
0.0064631968
0.0058567759
0.0055671747
0.0053874021
0.0052798213
0.0050686777
0.0050056953
0.0048983866
0.0048548077
0.085354482
0.088833436
0.092741662
0.097091935
0.1018975
0.10713807
0.11275144
0.11861991
0.12454464
0.13020222
0.13507526
0.1383702
0.13892075
0.13505923
0.12452661
0.10462309
0.073584796
0.037385403
0.016439083
0.009931978
0.0081196378
0.0072075577
0.0064318888
0.0058353869
0.0055528301
0.0053796795
0.0052790022
0.0050676722
0.0050047081
0.0048983754
0.0048548051
0.097007651
0.10003194
0.10347211
0.10729437
0.11150597
0.11608086
0.12095011
0.12598697
0.13097977
0.13558843
0.13927762
0.14123258
0.14026054
0.13466694
0.12220265
0.10025021
0.067612568
0.032518603
0.014951302
0.0096215169
0.008023525
0.0071442125
0.0063975915
0.0058118006
0.0055377369
0.005371152
0.0052784701
0.0050664466
0.0050038032
0.0048983211
0.004854775
0.10967869
0.11221724
0.11512433
0.11834666
0.12187989
0.12568932
0.12969717
0.13376543
0.13766742
0.14104412
0.14333908
0.14371376
0.1409477
0.13332292
0.11862097
0.094356082
0.060172843
0.027324416
0.01350912
0.0093438677
0.0079153253
0.0070704651
0.0063528659
0.005782824
0.0055204793
0.0053613162
0.0052772896
0.0050653202
0.0050026144
0.0048982585
0.0048547576
0.12297395
0.12499559
0.12731513
0.1298676
0.13263741
0.1355788
0.13860201
0.14155477
0.14419277
0.14613533
0.14680136
0.1453253
0.14045868
0.13046785
0.11319932
0.086402846
0.051045896
0.02283324
0.012190758
0.0090551274
0.0077972702
0.0069903431
0.0063048264
0.0057505251
0.0055021612
0.0053504136
0.0052757457
0.0050645814
0.005001031
0.0048981669
0.0048547924
0.13617984
0.13764894
0.13932644
0.14114121
0.14306402
0.14503473
0.14694802
0.14863392
0.14982694
0.15012091
0.14890569
0.14528494
0.13798404
0.12527033
0.10511674
0.075699446
0.040251532
0.018734082
0.011016104
0.0087864756
0.0076645468
0.0068994371
0.0062502702
0.0057154489
0.0054807188
0.0053380915
0.0052728464
0.0050623791
0.004998812
0.0048980542
0.004854914
0.14803544
0.14892414
0.14991068
0.15092509
0.15192401
0.15282931
0.15351537
0.15379006
0.15336186
0.15179396
0.14844169
0.14237401
0.13229747
0.11651662
0.093241133
0.061464763
0.028851538
0.01508504
0.010050764
0.0085084669
0.0075163229
0.0067999028
0.0061918393
0.005682676
0.0054574009
0.0053249528
0.005267952
0.0050579059
0.0049960485
0.0048979011
0.0048550997
0.1564619
0.15677795
0.15705051
0.15721777
0.15722874
0.15698856
0.15634857
0.15508926
0.15288674
0.14926709
0.143544
0.13474684
0.12158691
0.10249222
0.076093683
0.043241254
0.021080285
0.01236531
0.0095189695
0.0082361134
0.0073503636
0.0066864985
0.0061270423
0.0056424867
0.0054313713
0.0053098979
0.0052608349
0.0050510149
0.0049929102
0.0048977314
0.0048552905
0.15824863
0.15795515
0.15749971
0.1568234
0.15583804
0.15442471
0.15241302
0.14955257
0.14548292
0.13968918
0.13143277
0.1196912
0.10326724
0.080947918
0.052070699
0.026430979
0.014982208
0.010357825
0.0089308941
0.0079308636
0.0071682055
0.0065589661
0.0060579507
0.0055971073
0.0054022554
0.0052920609
0.005252358
0.0050435644
0.0049882473
0.0048975511
0.0048554543
0.14831582
0.147428
0.14626204
0.14476583
0.14284013
0.14033169
0.13702953
0.13264343
0.12677545
0.11887478
0.10810559
0.093315571
0.073843305
0.049956187
0.029633021
0.016922736
0.011256629
0.0094526879
0.0084815349
0.0076479456
0.0069685847
0.0064114214
0.0059821786
0.0055502909
0.0053680853
0.0052703616
0.0052337065
0.0050355683
0.0049833975
0.0048973748
0.0048554778
0.11908989
0.11775636
0.11606412
0.11394519
0.11127204
0.1078758
0.10352551
0.097903315
0.0906258
0.081272619
0.069739824
0.056524681
0.041962359
0.02764773
0.01700118
0.011550201
0.0095448158
0.0087845437
0.0079597984
0.0073078757
0.0067441815
0.0062535156
0.0059005531
0.0055001131
0.0053325444
0.0052454183
0.0052005737
0.0050269127
0.0049773286
0.0048972578
0.0048554489
0.075598973
0.074395444
0.072939583
0.071184371
0.06899828
0.066226696
0.062730009
0.058334813
0.052871581
0.046212604
0.038432825
0.029982399
0.022205113
0.015403785
0.011134725
0.0094343378
0.0088293414
0.0080924877
0.0074731037
0.0070140292
0.0065067736
0.0060867032
0.0058135539
0.0054449933
0.0052932783
0.0052163413
0.0051745731
0.0050176237
0.004970573
0.0048972398
0.0048553862
0.038584473
0.038053976
0.037338649
0.036415351
0.035233342
0.033734313
0.031859814
0.029517944
0.026650113
0.023292994
0.019536016
0.015764784
0.012541179
0.0099977893
0.0088631103
0.0086620258
0.0078531265
0.0075145922
0.0071068715
0.0066570641
0.0062380173
0.0059269477
0.0057252497
0.0053895428
0.0052498419
0.0051840909
0.0051709305
0.0050069919
0.0049632434
0.0048973666
0.004855294
0.018392701
0.01827665
0.018033529
0.017656147
0.017147069
0.016506746
0.015732721
0.014790554
0.013663699
0.012422139
0.01100522
0.0097647213
0.0087123101
0.0082368069
0.0081966233
0.0076436553
0.0073456267
0.0068881307
0.0065981759
0.0062987021
0.0059995183
0.0057816533
0.0056204015
0.0053279412
0.0052033618
0.0051518761
0.0051514552
0.0049967053
0.0049554052
0.0048975109
0.0048552012
0.010034989
0.010013418
0.0099489495
0.0098385881
0.0096829882
0.0094636749
0.0091949826
0.0089041113
0.0085863899
0.0082898829
0.0078978346
0.0076845921
0.007453608
0.0073392773
0.0070765886
0.0069793415
0.0066415717
0.0065630787
0.0063286078
0.0060170368
0.0057763203
0.0056303042
0.0055087939
0.0052672966
0.0051584643
0.005121226
0.0051095546
0.004985462
0.0049479675
0.0048976189
0.0048549583
0.0071702178
0.0071523901
0.0071369
0.0071280703
0.0071268123
0.0071313509
0.0070984905
0.007033461
0.0069896642
0.0069031585
0.0068047478
0.0067831484
0.0066626338
0.0065569862
0.0064408466
0.0062953576
0.0062373941
0.006115269
0.005884352
0.0057925963
0.0055887403
0.0055070374
0.0054109648
0.0052062848
0.0051180833
0.0050875729
0.0050813271
0.0049743482
0.0049401495
0.0048965707
0.0048548691
0.006476135
0.0064665352
0.0064601606
0.0064445347
0.0064199231
0.0064016157
0.0063930684
0.0063871421
0.0063644709
0.0063108082
0.0062481423
0.0061715016
0.0061203879
0.0060857557
0.0060360721
0.0058997435
0.0058261988
0.0057146347
0.005671426
0.0055733888
0.0054645547
0.0053903945
0.0053073767
0.0051441024
0.0050775287
0.0050564294
0.0050519047
0.0049652145
0.0049333457
0.0048962046
0.00485354
0.0058875879
0.0058734992
0.0058603657
0.0058539064
0.0058573809
0.0058514461
0.0058401361
0.0058264927
0.0058123786
0.0057970451
0.0057692446
0.0057645483
0.0057366959
0.0056418698
0.0056179341
0.0055309085
0.0055753959
0.0054669572
0.0053846727
0.005394481
0.0053414115
0.0053022593
0.0052024668
0.0050907293
0.0050283714
0.0050215391
0.0050265309
0.0049562098
0.0049269583
0.0048986858
0.0048554181
0.0055285409
0.0055337802
0.0055412805
0.0055465402
0.0055440144
0.0055433804
0.005544228
0.0055437041
0.0055381127
0.0055202284
0.0054818581
0.0054272432
0.0053927871
0.0053741241
0.0053547606
0.0053390198
0.0052930522
0.0052497531
0.0052330834
0.0052114623
0.0052193846
0.0052053624
0.0051157945
0.0050274491
0.0049900233
0.0049880912
0.0049930566
0.0049432424
0.004919715
0.0049011123
0.004857889
0.005267702
0.0052638028
0.0052581216
0.0052511534
0.0052500108
0.0052477542
0.0052445572
0.0052406711
0.0052357172
0.0052293573
0.0052204346
0.0052179454
0.005207694
0.0051932303
0.0051619539
0.0051641454
0.0051411319
0.0051246954
0.0051442409
0.0051118212
0.0050713385
0.0051347779
0.0050606633
0.0049681034
0.0049572792
0.0049559183
0.0049632061
0.0049253435
0.0049093493
0.0048957827
0.0048679822
0.0050891449
0.0050892514
0.0050894421
0.0050905753
0.0050925615
0.0050951045
0.0050981004
0.0051004989
0.0050998355
0.0050942313
0.0050803286
0.0050564583
0.0050428066
0.0050334292
0.005034851
0.0050286201
0.0050398806
0.0050360682
0.0050299592
0.0050279108
0.00499542
0.005022005
0.004997533
0.0049359914
0.0049189859
0.0049307895
0.0049394216
0.0049094716
0.0048978905
0.0048913837
0.0048696028
0.0049865534
0.0049860171
0.0049850538
0.0049835674
0.0049816959
0.0049794077
0.0049766292
0.0049734845
0.0049707383
0.0049688232
0.0049659425
0.0049628764
0.0049606197
0.0049597543
0.0049584176
0.0049609709
0.0049637197
0.004964116
0.0049562707
0.0049402535
0.0049301945
0.004947478
0.0049634444
0.0049160167
0.0048992894
0.0049087288
0.0049141957
0.0048983308
0.0048919463
0.004880374
0.004864175
0.0049269952
0.0049269722
0.0049267819
0.0049263482
0.0049258452
0.0049253402
0.0049248726
0.0049245066
0.0049243387
0.0049249768
0.0049255394
0.0049244381
0.0049211098
0.0049197623
0.0049215073
0.0049228756
0.0049275695
0.0049227036
0.0049163048
0.0049065463
0.0049024494
0.0049114338
0.004935125
0.0049013655
0.0048885269
0.0048927684
0.0049010929
0.0048895116
0.0048881386
0.004876146
0.0048675656
0.0048992895
0.0048992834
0.0048991015
0.0048987799
0.004898432
0.0048980772
0.0048977144
0.0048973268
0.0048968419
0.004896193
0.0048958988
0.004895626
0.0048961827
0.0048979934
0.004899341
0.004902175
0.0049006078
0.0049009598
0.0048977938
0.004893127
0.0048923648
0.0048942427
0.0049105359
0.0048912923
0.0048829275
0.0048851569
0.0048868278
0.0048813796
0.0048780658
0.0048747423
0.0048696496
0.004885608
0.0048855038
0.0048853402
0.0048851688
0.0048850406
0.0048849899
0.0048850271
0.0048851537
0.0048853294
0.0048851347
0.0048847821
0.0048846547
0.0048851528
0.0048856066
0.0048863357
0.0048875215
0.0048884515
0.0048875781
0.0048898334
0.0048872589
0.0048872282
0.0048881171
0.0048918165
0.0048852859
0.0048804171
0.0048822259
0.0048801223
0.0048783557
0.0048755025
0.004871428
0.004871726
0.0048801619
0.0048800894
0.0048800083
0.0048799284
0.0048798738
0.0048798725
0.0048799576
0.0048801481
0.0048803902
0.0048805349
0.004880632
0.0048807363
0.0048808837
0.0048811936
0.0048817678
0.0048826808
0.0048835227
0.0048823754
0.0048818097
0.0048824575
0.0048820243
0.0048859181
0.0048826062
0.0048812603
0.0048774227
0.0048765543
0.0048779878
0.0048755852
0.0048723506
0.0048718557
0.0048700982
0.0048801343
0.0048800501
0.0048799429
0.0048798164
0.0048796775
0.0048795368
0.0048794065
0.0048792955
0.0048792062
0.004879142
0.0048790946
0.0048790523
0.0048790046
0.0048789333
0.0048788155
0.0048785709
0.0048777817
0.0048769999
0.0048773482
0.0048764101
0.0048800462
0.0048805638
0.0048769411
0.004875825
0.0048751816
0.004873838
0.0048727084
0.0048731619
0.0048716415
0.0048716728
0.0048706265
0.0025562563
0.0023023777
0.0023655963
0.002869664
0.0040947348
0.0070693199
0.011585721
0.017367148
0.024320227
0.032763013
0.042740357
0.05355566
0.065480026
0.077908066
0.089709251
0.099034256
0.10295637
0.097055401
0.077135198
0.047007034
0.022055579
0.010951659
0.0077123448
0.0065670097
0.0059995768
0.0056395878
0.0053939114
0.0051469105
0.0050620438
0.0049016385
0.0048508501
0.0022581542
0.0021522286
0.0025046052
0.0032321026
0.0054587948
0.0091863341
0.014015524
0.019853325
0.026846997
0.035437076
0.045296063
0.056062729
0.067881446
0.080086046
0.091509231
0.10024992
0.1033355
0.096330566
0.075339721
0.044912375
0.020776487
0.010572277
0.0075996134
0.0065274173
0.0059808685
0.0056301844
0.0053890094
0.0051443025
0.0050609216
0.0049012882
0.0048508665
0.0020333936
0.0021708026
0.0026160285
0.0039534561
0.0068217767
0.010879327
0.015918006
0.021935202
0.029136547
0.037908803
0.047683705
0.058461325
0.070191634
0.082176032
0.093217368
0.10136852
0.10361657
0.095518475
0.073500032
0.042880081
0.019649504
0.010227353
0.0075321728
0.0065016093
0.005967632
0.0056232705
0.0053855983
0.0051425113
0.0050598979
0.0049009206
0.004850882
0.001926041
0.0022466138
0.0029819668
0.0051091959
0.0084023304
0.012657771
0.017825121
0.023977289
0.031378351
0.040257708
0.049992898
0.060791826
0.072431517
0.084191049
0.094843597
0.10239859
0.10380661
0.094623488
0.071623079
0.040909726
0.018630098
0.0099303713
0.0074606255
0.0064718916
0.0059524136
0.0056151157
0.0053816716
0.0051404366
0.0050588296
0.0049005597
0.0048509054
0.0019503143
0.0023799799
0.0038613897
0.0064818288
0.010034446
0.014435239
0.019726118
0.026018036
0.033650511
0.042510172
0.052262459
0.063073268
0.074613013
0.086139677
0.096395042
0.10334665
0.10391153
0.093650719
0.069717516
0.039001284
0.017693897
0.0096673564
0.0073979488
0.0064450453
0.0059383522
0.0056073538
0.005378113
0.0051386068
0.0050577745
0.0049002102
0.0048509392
0.0019979997
0.0029749863
0.0050224959
0.0079620755
0.011689179
0.016218104
0.021632379
0.028080192
0.035883913
0.044702939
0.054505255
0.065313473
0.076741518
0.088025766
0.097874891
0.1042159
0.10393499
0.092604212
0.067792194
0.037156121
0.016829243
0.0094365646
0.007339302
0.0064184683
0.0059241853
0.0055992515
0.0053744587
0.0051367475
0.0050566978
0.0048998707
0.0048509837
0.0023492775
0.0039383679
0.006353112
0.0094955436
0.01335753
0.018008003
0.023544729
0.030166194
0.038078203
0.046874554
0.056726651
0.067515527
0.078819725
0.089851592
0.099285412
0.10500903
0.10388031
0.091488832
0.065854845
0.035376652
0.016030416
0.0092346827
0.007285327
0.0063931313
0.0059104636
0.0055911394
0.0053708907
0.0051349832
0.0050556145
0.0048995401
0.0048510391
0.0031634636
0.0051293164
0.0077627066
0.011046965
0.015031701
0.019802654
0.025466283
0.032278413
0.040203443
0.049034891
0.058926193
0.069680331
0.080849182
0.091618896
0.10062872
0.10572877
0.10375093
0.090309146
0.063912466
0.033665841
0.015293812
0.009053525
0.0072350507
0.0063686222
0.005896978
0.005582881
0.0053673426
0.0051332427
0.0050545142
0.0048992166
0.0048511054
0.0041703901
0.0063847673
0.0091879491
0.012605021
0.016710898
0.021600896
0.027404335
0.034364144
0.042284018
0.05118375
0.061101858
0.071807828
0.082830731
0.093328996
0.10190673
0.10637783
0.10355071
0.089069286
0.061970109
0.032026896
0.014616766
0.0088921802
0.0071882438
0.0063450861
0.0058838518
0.0055745682
0.0053638656
0.0051315561
0.0050533938
0.0048988998
0.004851183
0.005330122
0.007725026
0.010650123
0.014175279
0.01839332
0.023399513
0.029361877
0.036409661
0.044355455
0.053319894
0.063251294
0.073897486
0.084764763
0.094982909
0.10312119
0.10695886
0.10328357
0.087774678
0.060032522
0.030463774
0.013996708
0.008748216
0.0071444548
0.0063224425
0.0058710708
0.0055662032
0.0053604328
0.0051299067
0.0050522418
0.0048985894
0.0048512718
0.006567186
0.0090736758
0.012101974
0.015738283
0.02007263
0.025200761
0.031326002
0.038422598
0.046419899
0.055438756
0.065372111
0.07594858
0.086651432
0.096581503
0.1042738
0.1074746
0.10295316
0.086431839
0.058105582
0.028986162
0.013430894
0.0086197761
0.0071033993
0.0063007012
0.0058586874
0.0055578454
0.005357045
0.0051283048
0.0050510432
0.0048982852
0.0048513719
0.0078065344
0.010414361
0.013550494
0.017300283
0.021749904
0.027009042
0.033272149
0.04039364
0.048470724
0.057536411
0.067462288
0.077960345
0.088490791
0.098125605
0.1053663
0.10792796
0.10256347
0.085046331
0.056194468
0.02759367
0.012916046
0.0085050515
0.0070647978
0.0062798278
0.0058467261
0.0055495409
0.0053536763
0.0051267475
0.0050497785
0.004897989
0.0048514828
0.0090451112
0.011753086
0.014996802
0.018858568
0.023420804
0.028827049
0.03516617
0.042351304
0.050506672
0.059609991
0.069520104
0.079932045
0.090282885
0.099616067
0.10640049
0.10832183
0.10211888
0.083625643
0.054305875
0.026277429
0.012448966
0.0084025043
0.0070284299
0.0062597993
0.0058352208
0.0055413528
0.0053503065
0.0051252337
0.0050484278
0.0048977045
0.0048516043
0.010273839
0.013084206
0.016436294
0.020409606
0.025087486
0.030637458
0.037027951
0.04429948
0.052524007
0.061656873
0.071544055
0.081863012
0.092027799
0.10105381
0.1073783
0.10865909
0.10162358
0.082176346
0.052448361
0.02503589
0.012026679
0.0083110182
0.0069941009
0.0062405808
0.0058241916
0.0055333419
0.005346916
0.0051237492
0.0050469743
0.0048974329
0.0048517354
0.011492921
0.014406561
0.017866517
0.021950513
0.026752005
0.032424132
0.038873671
0.046232932
0.054519091
0.063674884
0.073532849
0.083752678
0.093725706
0.10243987
0.10830177
0.1089434
0.10108218
0.080704414
0.050629184
0.023869392
0.011646238
0.0082289766
0.0069616384
0.0062221388
0.00581365
0.0055255702
0.0053435012
0.0051222687
0.0050454121
0.0048971763
0.0048518751
0.012699583
0.015716559
0.019283924
0.023476973
0.028417702
0.034169236
0.04070673
0.04814741
0.056489159
0.065662235
0.075485373
0.085600584
0.095376883
0.10377538
0.10917313
0.10917794
0.10050023
0.079216449
0.048854997
0.022778334
0.011304683
0.0081548976
0.0069309228
0.0062044389
0.0058035944
0.0055180927
0.0053400794
0.005120755
0.0050437546
0.0048969371
0.0048520222
0.013890372
0.017010824
0.020685952
0.02499198
0.030063481
0.035886064
0.04252013
0.05003939
0.058432024
0.067617407
0.077400671
0.087406393
0.096981726
0.10506164
0.10999478
0.10936617
0.099883304
0.077719006
0.047131713
0.02176265
0.010999074
0.0080879108
0.0069018488
0.006187451
0.0057940123
0.0055109562
0.0053366921
0.0051191715
0.0050420408
0.0048967145
0.0048521749
0.015061549
0.018286219
0.022069626
0.026496002
0.031679152
0.037581199
0.04431232
0.051906692
0.06034591
0.069539079
0.079277924
0.089169891
0.098540757
0.10630007
0.11076927
0.10951172
0.099236904
0.076218818
0.045464409
0.020821708
0.010726503
0.008027119
0.0068743288
0.006171151
0.0057848818
0.0055041964
0.0053333991
0.005117498
0.0050403219
0.004896508
0.0048523316
0.016210017
0.019540401
0.023432504
0.027988555
0.03325769
0.039258583
0.046081801
0.053747433
0.062229252
0.071426085
0.081116439
0.090890981
0.10005462
0.10749221
0.11149881
0.10961803
0.098566112
0.074722646
0.043857409
0.019954259
0.010484134
0.0079717897
0.00684829
0.0061555227
0.0057761743
0.0054978387
0.005330262
0.0051157436
0.0050386081
0.0048963178
0.00485249
0.017334341
0.020772205
0.024776488
0.029455296
0.034810692
0.040914169
0.047826407
0.055559883
0.064080641
0.073277379
0.082915637
0.092569686
0.1015241
0.10863979
0.11218641
0.10968846
0.097874838
0.073236933
0.042314335
0.019158436
0.010269242
0.0079212772
0.0068236701
0.0061405579
0.0057678556
0.005491898
0.0053273202
0.0051139473
0.0050369151
0.0048961464
0.0048526484
0.018433391
0.021980087
0.026102335
0.030890608
0.03634118
0.042546007
0.049544411
0.0573425
0.065898797
0.075092024
0.084675043
0.09420613
0.10295007
0.10974476
0.11283506
0.10972695
0.097166993
0.071767606
0.040838175
0.018431836
0.010079245
0.0078750346
0.0068004156
0.0061262548
0.0057598868
0.0054863789
0.005324575
0.0051121572
0.0050352697
0.0048959965
0.0048528046
0.019507453
0.023163624
0.027408868
0.032293447
0.037849445
0.044152463
0.051234272
0.059093859
0.067682536
0.076869172
0.086394267
0.095800536
0.10433357
0.1108093
0.11344762
0.10973777
0.096446532
0.07032027
0.039431271
0.017771658
0.0099117366
0.0078325957
0.0067784781
0.0061126142
0.0057522262
0.0054812741
0.0053219919
0.0051103993
0.005033664
0.0048958702
0.0048529567
0.020557439
0.024324358
0.02868884
0.033670643
0.039332863
0.04573186
0.052894583
0.060812619
0.069430751
0.078608046
0.088072993
0.097353235
0.10567585
0.11183479
0.11402702
0.10972604
0.095717488
0.068900548
0.038095253
0.017180491
0.0097645315
0.0077935672
0.0067578131
0.0060996356
0.0057448317
0.005476563
0.0053195266
0.0051086618
0.0050320897
0.0048957676
0.0048531023
0.021584525
0.025463423
0.029940589
0.035023498
0.040790265
0.047282836
0.054524092
0.06249749
0.071142395
0.080307918
0.089710972
0.098864725
0.10697839
0.11282349
0.11457631
0.10969581
0.094985136
0.067513014
0.036831326
0.016651113
0.0096355391
0.0077576185
0.0067383775
0.0060873122
0.0057376639
0.0054722122
0.0053171473
0.0051069137
0.0050305472
0.0048956893
0.0048532388
0.022589564
0.026583762
0.031162346
0.036352325
0.04222066
0.048804064
0.056120544
0.064147206
0.072816464
0.081968102
0.091308066
0.10033575
0.10824188
0.11377742
0.11509935
0.10965139
0.094255949
0.066160775
0.035640604
0.016176464
0.0095229714
0.0077244741
0.006720129
0.006075629
0.0057306884
0.0054681788
0.0053148359
0.0051051376
0.0050290484
0.0048956255
0.0048533641
0.023574823
0.027680954
0.03235989
0.037655664
0.043623
0.050294217
0.057680386
0.065760648
0.074452005
0.083587994
0.092864363
0.10176707
0.10946737
0.1146989
0.11559915
0.10959721
0.093535727
0.064847294
0.034524198
0.015752469
0.0094255427
0.007693904
0.0067030258
0.0060645618
0.0057238761
0.0054644144
0.0053125832
0.0051033417
0.005027608
0.0048955837
0.0048534762
0.024541774
0.028755554
0.033534149
0.038932953
0.044996484
0.051752703
0.059205704
0.067337022
0.076048177
0.085167243
0.094380171
0.10315771
0.11065598
0.11559127
0.1160791
0.1095377
0.092829627
0.063575849
0.033482969
0.01537601
0.0093428575
0.0076657158
0.0066870274
0.0060540806
0.0057172047
0.0054608691
0.0053103922
0.0051015504
0.0050262379
0.0048955658
0.0048535739
0.025491964
0.029807947
0.034685548
0.040183678
0.046340111
0.053178657
0.060699435
0.068875472
0.077604306
0.086705885
0.095854485
0.10450813
0.1118105
0.11645622
0.11654265
0.10947727
0.092142466
0.062349315
0.032517275
0.015044211
0.0092732438
0.0076397465
0.0066720961
0.0060441522
0.0057106596
0.0054574938
0.005308269
0.0050997922
0.0050249478
0.004895564
0.0048536554
0.026427315
0.03083874
0.03581383
0.041407165
0.047652829
0.054570431
0.062155899
0.070372742
0.079119925
0.088203269
0.097286465
0.10581958
0.11293143
0.11729595
0.11699321
0.1094203
0.091478834
0.06117033
0.031626982
0.014754228
0.0092130101
0.0076158628
0.0066582005
0.0060347414
0.0057042382
0.0054542447
0.0053062241
0.0050980795
0.0050237349
0.0048955662
0.0048537204
0.027348617
0.031849684
0.036918325
0.042602703
0.048933691
0.05592702
0.063574055
0.071828166
0.080593753
0.089656157
0.098676076
0.10709402
0.11402
0.11811284
0.11743418
0.10937112
0.090843139
0.060041318
0.030811577
0.014503161
0.0091619259
0.0075939582
0.0066453599
0.0060257721
0.0056979445
0.0054510933
0.0053042413
0.0050964199
0.0050225964
0.0048955777
0.0048537695
0.028255952
0.032842201
0.03799924
0.043769951
0.050182064
0.057247924
0.064954837
0.073248299
0.082020723
0.09106423
0.10002554
0.10833082
0.11507762
0.11890919
0.11786888
0.10933406
0.090239657
0.058964496
0.030070261
0.014287598
0.0091163168
0.0075739558
0.0066335638
0.0060171954
0.0056917861
0.0054480199
0.0053022901
0.0050947983
0.0050215408
0.0048955995
0.0048538039
0.029150315
0.033816927
0.039056928
0.044909377
0.051398403
0.05853228
0.066293667
0.074621516
0.083400142
0.092429916
0.10133305
0.10953016
0.11610557
0.11968719
0.11830057
0.10931338
0.089672573
0.057942096
0.029412354
0.014100539
0.0090698819
0.0075557224
0.0066228166
0.0060090248
0.0056857761
0.0054450138
0.0053003491
0.0050931972
0.0050205577
0.0048956255
0.0048538252
0.030034923
0.034775957
0.040092458
0.046020961
0.052581446
0.059777094
0.067586347
0.075948061
0.084741269
0.093747459
0.10259786
0.11069245
0.11710503
0.12044894
0.11873238
0.10931329
0.089146325
0.056984865
0.028822574
0.013921193
0.0090247448
0.0075391471
0.0066131178
0.0060012485
0.0056799218
0.0054420745
0.0052984214
0.0050916063
0.0050196159
0.0048956539
0.0048538361
0.030907462
0.035717613
0.041104001
0.047100947
0.053725852
0.060977924
0.068834203
0.077229848
0.086034556
0.095022323
0.10382001
0.11181803
0.11807703
0.1211964
0.1191673
0.10933772
0.088665941
0.056099977
0.02829069
0.013749826
0.0089806574
0.0075241121
0.006604469
0.0059938575
0.0056742232
0.0054392041
0.0052965175
0.0050900155
0.005018712
0.0048956955
0.0048538394
0.031759867
0.036634542
0.042085187
0.048143629
0.054828103
0.06213684
0.070038361
0.078463368
0.087278441
0.096251106
0.10499564
0.11290693
0.11902249
0.12193139
0.11960809
0.10939065
0.088236771
0.055292362
0.027811852
0.01358564
0.008937952
0.0075105068
0.0065968577
0.0059868259
0.0056686807
0.0054364068
0.0052946431
0.0050884294
0.0050178597
0.0048957552
0.0048538381
0.032583042
0.037518705
0.043030568
0.049149843
0.05589136
0.063250558
0.071193885
0.079646399
0.088471922
0.097431721
0.10613208
0.11395432
0.11994202
0.12265555
0.12005744
0.10947599
0.087864075
0.054565431
0.027381126
0.013428
0.0088967376
0.0074982935
0.006590201
0.0059801231
0.005663276
0.005433684
0.0052928059
0.0050868642
0.0050170375
0.004895832
0.0048538348
0.033388871
0.038375556
0.043940779
0.050115001
0.056909594
0.064316183
0.07229843
0.080777503
0.089613875
0.098563055
0.10722415
0.11497147
0.12083097
0.12337015
0.12051782
0.10959714
0.087553065
0.053921696
0.026994088
0.013276299
0.0088571365
0.0074874319
0.0065844327
0.005973725
0.0056580035
0.005431035
0.0052910305
0.0050853385
0.0050162497
0.0048959284
0.0048538317
0.034188263
0.039214877
0.044822847
0.051042747
0.057883181
0.0653325
0.073350753
0.081855245
0.090702969
0.099643994
0.10827096
0.11595168
0.12170208
0.12407317
0.12099132
0.10975734
0.087308805
0.053363178
0.026646863
0.013129968
0.0088192319
0.0074778548
0.0065795484
0.0059676331
0.0056528765
0.005428459
0.0052893382
0.0050838476
0.0050155144
0.0048960405
0.0048538304
0.034981934
0.040039158
0.045679642
0.051935491
0.058813457
0.066299325
0.074349716
0.082878078
0.09173777
0.10067329
0.10927172
0.11689447
0.12254856
0.12477349
0.12147992
0.10995957
0.087136089
0.052891771
0.026336013
0.012988456
0.0087830957
0.0074694983
0.0065755767
0.0059618837
0.0056479001
0.0054259638
0.0052877485
0.0050823878
0.0050148384
0.0048961669
0.0048538322
0.035768498
0.040847845
0.046511376
0.052793708
0.059700583
0.067216084
0.075294008
0.083844393
0.092716766
0.10164957
0.11022551
0.11779943
0.12337045
0.12546737
0.12198561
0.11020647
0.087039383
0.052509491
0.026058373
0.012851213
0.008748797
0.0074623126
0.0065725605
0.0059565379
0.0056430813
0.005423575
0.0052862842
0.0050809618
0.0050142211
0.0048963069
0.0048538381
0.036546461
0.041639365
0.04731683
0.053616464
0.060543685
0.068081637
0.076182117
0.084752537
0.093638349
0.10257132
0.11113122
0.11866596
0.12416772
0.12615536
0.12250962
0.11049771
0.087022696
0.052218734
0.025810875
0.012717663
0.0087164129
0.0074562562
0.0065705366
0.0059516441
0.0056384343
0.0054213354
0.0052849725
0.0050795703
0.0050136271
0.0048964618
0.004853849
0.037314142
0.04241177
0.048094179
0.054402131
0.061341319
0.068894465
0.077012387
0.085600908
0.094500675
0.1034369
0.1119876
0.11949327
0.12494009
0.12683777
0.12305298
0.11084109
0.087089718
0.052022528
0.025590363
0.012587192
0.0086860379
0.0074512953
0.006569504
0.0059472023
0.0056339666
0.0054192923
0.0052838472
0.0050782251
0.0050130206
0.0048966316
0.0048538658
0.038069275
0.043162785
0.0488413
0.055148776
0.062091782
0.069652796
0.077783238
0.086388054
0.095301253
0.10424758
0.11279816
0.12028586
0.12569207
0.12751853
0.12361903
0.11123673
0.087244607
0.051924895
0.025393364
0.012459129
0.0086577936
0.0074474029
0.0065694108
0.0059431654
0.0056296737
0.0054174066
0.0052829353
0.0050769628
0.0050124052
0.0048968164
0.0048538894
0.038809286
0.043890017
0.04955598
0.05585438
0.062793287
0.070354727
0.078493675
0.087119183
0.096050961
0.10500391
0.11355352
0.12103092
0.12641225
0.12818912
0.12420228
0.11168147
0.087487606
0.051930265
0.025215769
0.012332715
0.0086318389
0.0074445546
0.0065699782
0.0059394746
0.0056255541
0.0054155789
0.005282263
0.0050758272
0.0050118094
0.0048970159
0.0048539211
0.039532558
0.044591572
0.050236212
0.056517021
0.063443991
0.071000253
0.079152406
0.087789742
0.096723479
0.10568984
0.11425262
0.12173348
0.12710548
0.1288535
0.12480592
0.11217831
0.087821514
0.052047297
0.025052858
0.012207072
0.0086083922
0.0074427351
0.006571579
0.0059360775
0.0056216289
0.0054138696
0.0052818372
0.0050748249
0.0050112557
0.0048972278
0.004853962
0.040240575
0.045267183
0.050880727
0.057135393
0.064041766
0.071594697
0.079749877
0.088381138
0.097326714
0.10631235
0.11489598
0.12239208
0.12777087
0.12951121
0.12542991
0.11272745
0.088246887
0.052283597
0.024897226
0.012081214
0.008587799
0.0074419661
0.00657374