/*--------------------------------*- C++ -*----------------------------------*\
| =========                 |                                                 |
| \\      /  F ield         | OpenFOAM: The Open Source CFD Toolbox           |
|  \\    /   O peration     | Version:  2406                                  |
|   \\  /    A nd           | Website:  www.openfoam.com                      |
|    \\/     M anipulation  |                                                 |
\*---------------------------------------------------------------------------*/
FoamFile
{
    version     2.0;
    format      ascii;
    arch        "LSB;label=32;scalar=64";
    class       volScalarField;
    location    "0.029";
    object      k;
}
// * * * * * * * * * * * * * * * * * * * * * * * * * * * * * * * * * * * * * //

dimensions      [0 2 -2 0 0 0 0];

internalField   nonuniform List<scalar> 
35803
(
821.27911
801.74135
775.88854
743.47428
704.3294
658.48027
606.40166
549.08238
487.97388
424.87531
361.4673
299.40718
240.19649
185.05644
134.88322
90.379873
52.142907
22.001833
6.4021752
2.1356348
1.254356
0.95482736
0.73796608
0.59015487
0.52886327
0.49057335
0.46704217
0.42914033
0.41829383
0.39879747
0.39227174
808.19328
786.65418
759.28084
726.0713
686.81873
641.48374
590.4256
534.48547
475.04088
413.72477
352.10639
291.67026
233.89302
179.98563
130.85613
87.234734
49.799232
20.607177
5.8083861
2.0402165
1.2262806
0.94128766
0.72910949
0.58621636
0.52688333
0.48962905
0.46659595
0.42892868
0.41809277
0.39878132
0.39228873
789.17398
766.35245
738.20875
704.74474
665.80289
621.3499
571.6766
517.51247
460.07772
400.84375
341.26065
282.71108
226.60508
174.13383
126.21843
83.620004
47.105155
18.998007
5.2718121
1.950094
1.2103982
0.93324576
0.72391761
0.58388063
0.52553023
0.48889282
0.46638408
0.42878738
0.41797626
0.39878615
0.39230709
762.56551
739.10134
710.96521
678.01812
640.08033
597.11805
549.37993
497.49968
442.5325
385.78974
328.60171
272.27051
218.13031
167.34526
120.85227
79.447324
44.003698
17.160642
4.750635
1.8598394
1.1872074
0.92037063
0.71649061
0.58046076
0.52346702
0.48774743
0.46607489
0.42865146
0.41779676
0.39879386
0.39232417
727.68521
704.37912
676.97618
645.26483
609.0313
568.21706
523.02152
473.98174
421.99534
368.21158
313.84445
260.11421
208.27865
159.46908
114.64085
74.626922
40.435971
15.104504
4.2318966
1.7681829
1.1645911
0.90770764
0.71002615
0.57721627
0.52131811
0.48659815
0.46587013
0.42847993
0.41764697
0.39880231
0.39233209
684.061
661.73229
635.80085
606.02732
572.18178
534.1765
492.15206
446.54062
398.0854
347.77326
296.69858
245.9964
196.84559
150.33946
107.45494
69.061314
36.344837
12.876393
3.7196805
1.6761901
1.1384558
0.89218646
0.7028747
0.5728695
0.5185305
0.48513372
0.46560279
0.42827217
0.41745988
0.39881292
0.39232139
631.61996
611.02038
587.24945
560.07059
529.25126
494.67881
456.43078
414.82917
370.46403
324.15893
276.87931
229.66631
183.61527
139.77652
99.153161
62.647863
31.685573
10.55172
3.2268175
1.5882057
1.1109243
0.87560239
0.69505473
0.56809622
0.51558468
0.48351502
0.46540109
0.42802964
0.41728847
0.39882494
0.39230171
570.78876
552.59818
531.55639
507.52671
480.27924
449.67764
415.73533
378.66528
338.90943
297.12843
254.14653
210.89542
168.37901
127.59865
89.590204
55.289498
26.449179
8.2435191
2.770516
1.5056421
1.0801685
0.8565848
0.68494206
0.56228128
0.51224736
0.48165123
0.46509612
0.42781463
0.4170754
0.39883896
0.39228042
502.91301
487.50639
469.58878
449.09105
425.79213
399.53603
370.27857
338.13304
303.4027
266.58737
228.35775
189.51649
150.96356
113.64366
78.631371
46.91558
20.718054
6.3056516
2.3717606
1.4212862
1.0468501
0.83608742
0.67411714
0.55583174
0.50870734
0.47958504
0.46475603
0.42767363
0.41679643
0.39885539
0.39226586
430.06839
417.5589
402.90144
386.06845
366.85144
345.08358
320.67592
293.65661
264.20256
232.65732
199.52894
165.47264
131.26993
97.801519
66.188999
37.510099
14.751209
4.6645353
2.0339386
1.3397875
1.0098778
0.8132551
0.66194346
0.54888394
0.50459882
0.47726432
0.46420581
0.42728472
0.41641193
0.39887335
0.39226504
354.60072
344.89823
333.41579
320.15259
304.92142
287.55703
267.94058
246.03194
221.89817
195.73821
167.89811
138.87574
109.32506
80.063199
52.268453
27.194449
9.2370041
3.355017
1.7634193
1.2565871
0.96938242
0.78863959
0.64898758
0.54239838
0.50013293
0.47480918
0.46332305
0.42651847
0.41593567
0.39889413
0.39227215
279.05
271.91163
263.35352
253.38501
241.84713
228.58985
213.4837
196.44001
177.4375
156.55171
133.98045
110.06758
85.348387
60.601564
37.054146
16.470996
5.6781332
2.4733766
1.5875314
1.1739262
0.92506323
0.76129979
0.63481125
0.53448857
0.49516349
0.4720356
0.46206429
0.42533967
0.41539719
0.39891979
0.39229711
205.97612
200.97157
194.93283
187.8584
179.60174
170.01747
158.9723
146.35041
132.0739
116.1303
98.595752
79.676154
59.845521
39.931705
21.146948
8.1331039
3.3604465
1.8951974
1.4099225
1.0868595
0.87783786
0.73130444
0.61984712
0.52556832
0.48960194
0.46878501
0.46071065
0.42405214
0.41459588
0.39895429
0.3923238
137.42923
134.14056
130.16251
125.48082
119.98289
113.54083
106.01687
97.277416
87.213613
75.763921
62.896839
48.686694
33.797977
19.493839
9.3220472
3.9896962
2.1894536
1.5941337
1.2577257
1.0060639
0.82778926
0.69774134
0.60371787
0.51644895
0.48309976
0.46482285
0.45824986
0.42272823
0.4137645
0.39899937
0.39233189
75.60388
73.671278
71.328723
68.555695
65.261479
61.345282
56.703165
51.22203
44.826069
37.517438
29.565843
21.569193
14.030564
7.8372946
3.966687
2.2486908
1.6527197
1.3594313
1.1123267
0.91685666
0.7738748
0.66283584
0.58656472
0.50675703
0.4763206
0.46020355
0.45393919
0.42131769
0.41273008
0.39906598
0.39233572
30.850643
29.970348
28.941459
27.755149
26.342842
24.628976
22.5664
20.110788
17.266973
14.110443
10.853219
7.7712433
5.2149058
3.2495932
2.1037393
1.6097389
1.3713243
1.1495643
0.96621567
0.83810122
0.71910353
0.62718269
0.56865202
0.4962495
0.46889627
0.45485636
0.44863189
0.41977293
0.41158341
0.39915131
0.39233943
10.140336
9.8992416
9.5950409
9.2255105
8.7757093
8.229526
7.5818341
6.8176797
5.9194357
4.9348098
3.9475283
3.0165585
2.2664336
1.7190345
1.4565246
1.2991244
1.0730569
0.96525026
0.86571963
0.75395518
0.66064409
0.59365265
0.55079886
0.48571865
0.46076029
0.44916118
0.44551635
0.41782052
0.41032852
0.39923236
0.39234202
3.3879293
3.3506036
3.2879617
3.1961822
3.0748507
2.9213425
2.7365063
2.5281278
2.2853785
2.0210083
1.7562877
1.5104417
1.3061011
1.1869185
1.1356646
1.0099342
0.91194113
0.82414286
0.74298298
0.67468175
0.6101891
0.56388292
0.53030209
0.47436914
0.45217899
0.44340998
0.44276424
0.41601823
0.40898864
0.3992656
0.39233238
1.4582033
1.4503144
1.4357555
1.4139596
1.3852431
1.3491091
1.3038821
1.2470296
1.1863372
1.1234473
1.0549609
1.01695
0.9612777
0.91749482
0.85087369
0.82775195
0.7594835
0.72062796
0.67659022
0.61494128
0.56432268
0.53350882
0.50890611
0.46328864
0.4439839
0.4378465
0.43631912
0.41410477
0.40772878
0.39926618
0.39226913
0.90183073
0.89664131
0.8909069
0.88382092
0.87510042
0.86495781
0.85324369
0.83961763
0.83083865
0.82428421
0.81118579
0.80124908
0.76651389
0.74742657
0.71253446
0.6703922
0.65885952
0.63603842
0.58832174
0.56326141
0.52503433
0.50872376
0.49025421
0.45232623
0.43675758
0.43194463
0.43073424
0.41214948
0.40641104
0.39915355
0.3923178
0.70631064
0.70417959
0.70272314
0.70127489
0.69989419
0.69919366
0.69882466
0.69725034
0.69087748
0.6750539
0.65523315
0.64127792
0.63081972
0.62284594
0.61752473
0.58914956
0.56944051
0.54709198
0.53812661
0.52430215
0.50096798
0.48649247
0.47082837
0.44130202
0.42968414
0.42645769
0.42543916
0.41052466
0.40518423
0.39914951
0.39220909
0.58874796
0.58626341
0.58337377
0.58021584
0.57739118
0.57464167
0.5718476
0.56899947
0.56620158
0.56328578
0.56117078
0.56006704
0.55383239
0.53344562
0.52752003
0.51135406
0.52040384
0.50011038
0.48416402
0.48575355
0.47648302
0.46917644
0.451371
0.43187337
0.42127269
0.42043374
0.42103489
0.40900289
0.40403253
0.39972079
0.3924953
0.51024307
0.51065025
0.51154487
0.5126233
0.51342666
0.51410742
0.51465619
0.51465663
0.51359287
0.51003623
0.50183039
0.49150785
0.48527499
0.48207295
0.47949539
0.47644939
0.46816274
0.45989669
0.45639794
0.45269956
0.45381878
0.4519042
0.4362515
0.42087595
0.41463961
0.41464516
0.41569211
0.40695473
0.4027961
0.40007376
0.39293724
0.46367345
0.46312843
0.4622335
0.46093199
0.45982484
0.45894129
0.45818644
0.45744951
0.45654901
0.45540527
0.45386906
0.45393414
0.45220213
0.44969365
0.4439156
0.44423116
0.43993924
0.43726901
0.44076385
0.43532929
0.42851548
0.43958503
0.42678624
0.41096035
0.40903098
0.4091506
0.41045092
0.40410171
0.40118809
0.39926502
0.3939278
0.43088848
0.43089405
0.43089023
0.43099358
0.43135689
0.43193729
0.43259207
0.43308377
0.43296964
0.43199913
0.42959891
0.42533729
0.4230514
0.42155152
0.42194643
0.42089832
0.42312437
0.42211683
0.42131531
0.42087437
0.41597447
0.42063575
0.41615991
0.40573024
0.40280637
0.40493087
0.40662605
0.4016654
0.39970466
0.39863749
0.39423772
0.41353684
0.41344761
0.41328577
0.413035
0.41272046
0.41233847
0.41187881
0.41136734
0.41094916
0.41063106
0.410144
0.40965838
0.40936482
0.40927688
0.40909318
0.40959784
0.41011141
0.40996062
0.40866968
0.40626245
0.40464005
0.40774593
0.41040397
0.40237899
0.39970661
0.40133976
0.40264429
0.4000493
0.39896385
0.39702916
0.39444872
0.40376661
0.40376445
0.40373349
0.40366118
0.40357847
0.40349838
0.40343026
0.40338851
0.40338529
0.40344913
0.40350479
0.40335437
0.40295372
0.40276614
0.40308508
0.40332848
0.40409881
0.40330009
0.40224007
0.40083827
0.40007443
0.401769
0.40581537
0.40019687
0.39817295
0.39893241
0.40048151
0.39872741
0.39852391
0.39642687
0.39521174
0.39941234
0.399411
0.39937928
0.39932431
0.39926614
0.39920987
0.39915863
0.39911479
0.39907356
0.39904317
0.39904797
0.39905098
0.39913704
0.39942887
0.39966885
0.40008679
0.39991959
0.40002116
0.39954833
0.39880423
0.39856783
0.39906529
0.40201387
0.39879013
0.39745661
0.39784227
0.39851777
0.397699
0.3971888
0.39629298
0.39563561
0.39747255
0.39745413
0.3974247
0.39739423
0.39737248
0.39736653
0.39738187
0.39742292
0.39748437
0.3975272
0.39756363
0.3976086
0.39769358
0.39779126
0.39792473
0.39812442
0.39829083
0.39830096
0.39858798
0.39803735
0.3980718
0.39835233
0.39925642
0.39802016
0.39714376
0.39741494
0.39758273
0.39724453
0.39679303
0.39641599
0.39616117
0.39706836
0.39706026
0.39705169
0.39704362
0.39703874
0.39703973
0.39704962
0.39707046
0.39709773
0.39711404
0.39712725
0.39714718
0.39717997
0.39724363
0.39735096
0.39752366
0.39768819
0.39770353
0.39780521
0.3978252
0.39792111
0.39853698
0.39815046
0.39788828
0.39748668
0.39739674
0.39740453
0.39720939
0.39687674
0.39692636
0.39675321
0.39762982
0.39762377
0.39761585
0.39760646
0.39759645
0.39758691
0.39757897
0.39757342
0.39757032
0.39756955
0.39757126
0.39757541
0.39758207
0.3975912
0.39760197
0.3976096
0.39757329
0.39751938
0.39751222
0.3974949
0.39790766
0.39817186
0.39761839
0.39748886
0.39759099
0.39749653
0.39744287
0.39751185
0.39734941
0.3973923
0.39726138
124.80553
163.13087
206.08047
242.50858
292.89068
358.53439
418.44565
458.18641
473.41118
469.16702
446.29708
402.98455
350.52384
293.09672
234.51431
178.08216
126.19445
80.151592
42.234509
16.710999
5.0174305
1.7792835
0.99561028
0.73219548
0.60844927
0.53561768
0.48752988
0.44188901
0.42699722
0.39934447
0.39140982
147.32457
192.58042
231.58906
270.26196
329.92292
392.93557
442.83642
471.86326
479.07328
470.31842
441.80752
396.50038
343.45077
286.2489
228.39512
172.91906
122.03084
76.935582
40.01849
15.515582
4.6083253
1.6903505
0.97214939
0.72374297
0.60461031
0.53378718
0.48658072
0.4414297
0.42681599
0.39928873
0.39142616
175.4487
216.03721
245.65911
293.91959
357.92099
417.427
460.17753
481.49416
483.09718
470.00272
436.63862
390.00146
336.56124
279.64224
222.50963
167.95723
118.03078
73.84708
37.906989
14.408229
4.2595095
1.6156004
0.95758452
0.71802805
0.60185804
0.53244403
0.48592073
0.44111586
0.4266624
0.39923082
0.39144245
202.64676
231.6241
267.24792
325.54917
388.25346
440.63223
475.07423
489.05198
485.90248
468.21597
431.1906
383.55593
329.85417
273.26345
216.8454
163.18684
114.18614
70.878837
35.895335
13.380764
3.9515556
1.5500924
0.94207904
0.71157131
0.59872293
0.53085628
0.48516296
0.44075317
0.42649447
0.39917344
0.39145868
221.60349
246.24544
295.27734
357.39322
415.90591
460.81002
487.45161
495.0388
488.30718
465.14802
425.64467
377.19232
323.32717
267.10252
211.39243
158.59957
110.48992
68.025501
33.980133
12.425629
3.6747523
1.4919817
0.92827005
0.70567753
0.59581834
0.5293462
0.48447557
0.44043465
0.42633288
0.39911734
0.39147519
232.20302
269.18143
327.86991
389.03103
441.2067
478.31257
497.67075
499.9215
489.26501
461.27386
420.06502
370.92967
316.98202
261.15397
206.14366
154.1888
106.93614
65.282368
32.158321
11.537239
3.4245058
1.4406571
0.91522831
0.69986184
0.59290029
0.52777066
0.48377231
0.44011237
0.42616639
0.3990624
0.3914921
248.8569
301.55909
362.27211
418.70373
463.6205
493.21851
505.98285
503.88744
488.97596
457.08058
414.50162
364.78444
310.82229
255.41437
201.09342
149.94877
103.51945
62.645452
30.425892
10.711449
3.1980757
1.3953483
0.90309566
0.69430513
0.5900751
0.52619412
0.4830859
0.43980802
0.42600035
0.39900879
0.39150944
278.29279
336.92312
395.29548
445.53824
483.16373
505.78651
512.76349
507.14515
487.29024
452.73216
408.97821
358.77109
304.8523
249.88147
196.23697
145.87437
100.235
60.110105
28.779038
9.9449418
2.9933752
1.3545886
0.89169951
0.68893381
0.58730341
0.52459077
0.48240479
0.43950911
0.4258313
0.3989566
0.39152725
314.42596
372.8232
426.08218
469.4318
500.04068
516.30649
518.42885
509.05921
484.74005
448.29521
403.5159
352.9037
299.07657
244.55364
191.57022
141.961
97.078421
57.672001
27.213347
9.2348648
2.8086492
1.3180543
0.88099998
0.68377427
0.58460929
0.52297846
0.4817377
0.43922079
0.42565952
0.39890591
0.39154557
352.07625
406.71463
453.77851
490.36211
514.49706
525.04775
523.25675
509.69176
481.89418
443.8277
398.13617
347.19565
293.49946
239.42958
187.08953
138.20452
94.045832
55.32963
25.72473
8.5787786
2.6422937
1.2852201
0.87092048
0.67881211
0.58199089
0.52135794
0.48108006
0.43894002
0.42548235
0.39885688
0.39156441
388.56984
437.68786
478.37877
508.60432
526.84368
532.3915
527.21277
509.39112
478.87892
439.35511
392.85957
341.65928
288.12488
234.5081
182.79154
134.6011
91.133692
53.081922
24.31013
7.9759149
2.4927893
1.2556698
0.86141163
0.67404805
0.57945887
0.5197405
0.4804321
0.43866851
0.42529728
0.3988097
0.3915838
422.15105
465.44269
500.07161
524.45511
537.36831
538.68308
530.0945
508.23409
475.71706
434.90534
387.70673
336.30573
282.95612
229.78797
178.67313
131.14724
88.339208
50.925826
22.966076
7.422797
2.3586201
1.2290153
0.85242532
0.66947454
0.57701877
0.51813489
0.47978955
0.43840565
0.4251004
0.39876465
0.39160371
452.5562
490.16062
519.15074
538.21241
546.31503
544.20839
531.60437
506.74747
472.48396
430.51039
382.6972
331.14477
277.99588
225.26788
174.73132
127.83969
85.660761
48.861056
21.690832
6.9140221
2.2383826
1.2049265
0.84392296
0.66508537
0.57467771
0.51655272
0.47914886
0.43815119
0.42488783
0.39872203
0.39162412
479.77875
512.07524
535.91559
550.16883
554.04979
548.84024
532.28801
505.09275
469.22104
426.19874
377.84859
326.18479
273.24621
220.94637
170.96323
124.67533
83.094768
46.886238
20.48438
6.4465329
2.1308088
1.1831498
0.83587036
0.66087201
0.57244008
0.51500508
0.47850665
0.43790255
0.4246563
0.39868191
0.39164501
504.06986
531.50337
550.67177
560.58754
560.87518
552.50251
532.55011
503.30765
465.96316
421.99704
373.17667
321.43292
268.7086
216.8219
167.36609
121.65124
80.638821
44.999732
19.3457
6.0179957
2.0347222
1.163374
0.82823736
0.65682588
0.57030844
0.51350309
0.47786247
0.43765513
0.42440448
0.39864456
0.39166637
525.73769
548.75752
563.69862
569.67503
567.07305
555.11167
532.56307
501.43434
462.74634
417.92997
368.69527
316.8951
264.38402
212.8928
163.9372
118.76465
78.292726
43.200129
18.273468
5.6262756
1.9490243
1.1453202
0.82100104
0.65293834
0.56828245
0.51205655
0.47721972
0.43740223
0.42413432
0.39861035
0.39168818
545.10401
564.13614
575.26405
577.78149
572.40899
557.085
532.3464
499.51535
459.60535
414.01978
364.41639
312.57625
260.27301
209.15732
160.67393
116.01282
76.054535
41.485958
17.266025
5.2692911
1.8726939
1.1288071
0.81414108
0.64920169
0.56635942
0.51067375
0.47658627
0.43713708
0.42385228
0.3985793
0.3917104
562.47665
577.90826
585.58443
585.14051
576.88932
558.67539
531.98384
497.59977
456.57258
410.28618
360.35036
308.48037
256.37573
205.61365
157.57375
113.39431
73.922485
39.85594
16.321401
4.9449794
1.8047854
1.1136583
0.80763992
0.6456097
0.56453448
0.50936102
0.47597348
0.43685556
0.4235668
0.39855144
0.39173299
578.13484
590.31456
594.85238
591.92535
580.57508
560.06152
531.54721
495.73179
453.67682
406.74635
356.50598
304.61066
252.69205
202.25993
154.63402
110.90619
71.894807
38.308873
15.437426
4.6512694
1.7444284
1.0997279
0.80148238
0.64215806
0.56280109
0.50812295
0.47539332
0.43655865
0.42327958
0.39852678
0.39175584
592.32916
601.57712
603.33438
597.99601
583.82946
561.2886
531.0892
493.94994
450.94336
403.41524
352.89073
300.96969
249.22157
199.09428
151.85223
108.54443
69.968027
36.843339
14.611804
4.3860686
1.690827
1.0868884
0.79565505
0.63884446
0.56115127
0.50696241
0.47485399
0.43625296
0.42299362
0.39850525
0.39177885
605.28113
611.8688
611.2224
603.40208
586.8248
562.42171
530.65867
492.28827
448.39428
400.30572
349.51093
297.55947
245.96376
196.1149
149.22597
106.30712
68.137909
35.457643
13.842181
4.1472928
1.6432585
1.0750314
0.79014602
0.6356683
0.55957588
0.50588062
0.47435658
0.43594734
0.42271407
0.39848675
0.39180197
617.19378
621.35452
618.62899
608.26786
589.66635
563.51902
530.29861
490.77648
446.04877
397.42891
346.37194
294.38159
242.91794
193.32007
146.75511
104.19249
66.401731
34.149622
13.12614
3.9329064
1.6010727
1.0640642
0.78494448
0.63263005
0.55806497
0.50487677
0.47389526
0.43564726
0.42243995
0.39847115
0.39182516
628.25227
630.2199
625.51132
612.83934
592.40036
564.62828
530.04651
489.44025
443.92345
394.79435
343.47824
291.43728
240.08338
190.70783
144.4371
102.1992
64.757138
32.917201
12.461165
3.7421973
1.563693
1.0539077
0.78004041
0.62973033
0.55660847
0.50394774
0.47346191
0.43535149
0.42217006
0.39845839
0.39184826
638.60568
638.60592
631.94326
617.23015
595.08455
565.79308
529.93542
488.30165
442.03267
392.41025
340.83365
288.72758
237.4593
188.27835
142.26772
100.32553
63.202634
31.757783
11.844839
3.5724137
1.5305912
1.0444947
0.77542434
0.62696903
0.55519691
0.50308805
0.47305056
0.43505489
0.42190461
0.39844851
0.39187102
648.36997
646.6765
637.9769
621.51817
597.76832
567.051
529.9836
487.37936
440.38883
390.28365
338.44139
286.2533
235.04504
186.02973
140.24643
98.569875
61.73811
30.667891
11.275025
3.4210193
1.5013161
1.0357677
0.77108719
0.62434467
0.55382202
0.50229036
0.47265774
0.43475429
0.4216459
0.39844162
0.39189313
657.6721
654.37014
643.80762
625.74145
600.49362
568.43285
530.19353
486.6903
439.00275
388.42061
336.30418
284.01499
232.84308
183.95868
138.37202
96.930869
60.362978
29.644959
10.74987
3.286272
1.4755202
1.0276776
0.76702021
0.62185423
0.55247701
0.50154622
0.47228136
0.43445111
0.42139677
0.39843751
0.39191442
666.59464
661.76269
649.51095
629.9473
603.29681
569.96943
530.61799
486.25197
437.88391
386.82648
334.42414
282.01607
230.85164
182.0655
136.64331
95.407307
59.076199
28.686559
10.267613
3.1667509
1.453015
1.0201817
0.76321502
0.61949352
0.55115675
0.50084669
0.47192137
0.43414968
0.42115951
0.39843588
0.39193478
675.21245
668.90867
655.13896
634.17183
606.2054
571.68757
531.30969
486.07843
437.04049
385.5058
332.80537
280.25567
229.06703
180.34939
135.05929
93.998134
57.876476
27.790133
9.8264441
3.0611842
1.4334291
1.0132424
0.75966387
0.6172575
0.54985812
0.50018263
0.47157804
0.43385501
0.4209359
0.39843606
0.39195402
683.59543
675.85575
660.7223
638.44165
609.24145
573.6007
532.24254
486.16139
436.47882
384.46577
331.45627
278.73133
227.49029
178.80947
133.61915
92.702456
56.762444
26.953262
9.4245111
2.9683897
1.416098
1.006827
0.75636012
0.61514029
0.54858082
0.49954569
0.47125214
0.43356941
0.42072571
0.39843686
0.39197206
691.77224
682.66645
666.27805
642.77722
612.42299
575.72338
533.42526
486.50641
436.20882
383.71923
330.37459
277.44669
226.12154
177.44523
132.32231
91.519558
55.732795
26.173713
9.0599835
2.8872526
1.4009103
1.0009069
0.7533074
0.61312914
0.5473261
0.49893006
0.47093922
0.43329445
0.42052869
0.3984387
0.39198888
699.74806
689.38682
671.83319
647.1975
615.76371
578.06699
534.87977
487.19665
436.24787
383.26283
329.55639
276.40225
224.96094
176.25642
131.16841
90.44893
54.786351
25.449435
8.7310955
2.8166701
1.3872144
0.99545756
0.75050588
0.61121534
0.54609626
0.4983313
0.47063208
0.43302734
0.42034657
0.39844154
0.39200452
707.54726
696.04044
677.41111
651.72962
619.29096
580.65811
536.62787
488.21169
436.58226
383.09197
329.00616
275.59808
224.00877
175.24299
130.15729
89.490282
53.922123
24.778646
8.4394026
2.7548052
1.3739476
0.99044816
0.74795257
0.60940048
0.5448948
0.49774657
0.47032511
0.43276461
0.42017766
0.39844529
0.392019
715.37453
702.78608
683.13078
656.46279
623.08004
583.5509
538.69722
489.52774
437.24495
383.20043
328.72494
275.03488
223.26549
174.4051
129.28903
88.643497
53.139542
24.16345
8.1794086
2.697201
1.3614224
0.98585137
0.74564534
0.60768174
0.54372401
0.49717502
0.47001739
0.43250398
0.42001681
0.39845014
0.3920324
723.47094
709.82026
689.14485
661.49377
627.19081
586.76904
541.07069
491.13782
438.21006
383.61754
328.71523
274.71375
222.73174
173.74312
128.5639
87.909136
52.438715
23.604629
7.9471399
2.6436988
1.3495716
0.98163986
0.74358082
0.60605607
0.54258462
0.49661656
0.46970962
0.43224315
0.41986355
0.39845679
0.39204486
731.68217
717.06633
695.41505
666.79601
631.5478
590.24561
543.72224
493.05426
439.47896
384.33385
328.96766
274.63569
222.4084
173.25762
127.98228
87.287521
51.820227
23.102222
7.7402786
2.5939671
1.3384236
0.97778848
0.7417534
0.604517
0.54147719
0.49607175
0.46940245
0.4319825
0.41972021
0.39846538
0.39205658
739.23915
723.93091
701.51763
672.10165
636.02413
593.92787
546.65209
495.2724
441.05348
385.34615
329.50874
274.79036
222.29627
172.94939
127.54482
86.778897
51.284904
22.655868
7.556603
2.5477278
1.3279737
0.97428304
0.74014895
0.60305691
0.54039844
0.49554096
0.46909696
0.43172468
0.4195831
0.39847562
0.39206783
746.06697
730.23561
707.2707
677.27164
640.5726
597.80521
549.84313
497.78878
442.93524
386.65627
330.32626
275.20712
222.38702
172.81922
127.2524
86.384235
50.833959
22.265093
7.3941508
2.5047252
1.318222
0.97111049
0.73875569
0.60166936
0.5393472
0.49502418
0.4687973
0.43147273
0.41945293
0.39848774
0.39207884
752.84631
736.43484
712.94164
682.4344
645.20678
601.86529
553.28846
500.60108
445.12557
388.26665
331.42224
275.87245
222.70506
172.86382
127.10596
86.104529
50.468876
21.929462
7.251218
2.4647275
1.3091648
0.96825575
0.73757081
0.60035309
0.53832579
0.49452149
0.46850719
0.43122578
0.41933277
0.39850145
0.39208987
759.69935
742.67101
718.64474
687.66248
649.96404
606.11818
556.98779
503.70868
447.62594
390.17979
332.7997
276.78865
223.2395
173.09575
127.10682
85.940927
50.191223
21.648744
7.1263139
2.4275217
1.3007989
0.96570539
0.73659897
0.59911425
0.53733458
0.49403451
0.46822905
0.43098304
0.41922367
0.39851667
0.39210111
766.57519
748.95471
724.41872
692.99621
654.87363
610.57742
560.94476
507.1124
450.43815
392.39839
334.46199
277.9589
223.99271
173.51054
127.25679
85.894749
50.00273
21.423002
7.018105
2.3929064
1.2931227
0.96344904
0.73584994
0.59796463
0.536374
0.49356824
0.4679663
0.4307445
0.41912508
0.39853328
0.39211272
773.38796
755.24777
730.26087
698.45014
659.95302
615.25481
565.16445
510.8141
453.56432
394.92537
336.41279
279.38681
224.96767
174.11039
127.55741
85.965362
49.905188
21.252702
6.9253587
2.3606854
1.2861383
0.96147869
0.7353325
0.59691434
0.53544603
0.49313064
0.46772217
0.43050971
0.41903025
0.39855126
0.39212485
780.0733
761.51247
736.15774
704.02703
665.21212
620.1596
569.65263
514.81608
457.00659
397.76407
338.65618
281.07638
226.16778
174.89782
128.01053
86.158954
49.900493
21.13883
6.8468865
2.3306637
1.2798518
0.95978874
0.73504664
0.59596364
0.53455172
0.4927303
0.46750117
0.4302802
0.41893238
0.3985706
0.39213761
786.60331
767.73078
742.10163
709.72765
670.65734
625.29947
574.41611
519.12004
460.76697
400.9184
341.19675
283.03223
227.59698
175.87582
128.61819
86.474602
49.99075
21.083079
6.7814772
2.3026423
1.2742744
0.95837563
0.73498143
0.59510266
0.53369009
0.49235977
0.4673059
0.43006193
0.41883172
0.39859143
0.39215114
792.97891
773.90134
748.09185
715.55328
676.29293
630.68118
579.46255
523.73023
464.84613
404.39292
344.03953
285.2593
229.25964
177.04773
129.38275
86.914102
50.178138
21.087076
6.7277957
2.27641
1.2694225
0.95723678
0.73507969
0.59431837
0.53286097
0.4920003
0.46714037
0.42986239
0.41873305
0.39861401
0.39216559
799.20967
780.02402
754.12625
721.50308
682.12005
636.31195
584.79703
528.65319
469.24668
408.19123
347.18959
287.763
231.16061
178.41741
130.30688
87.479281
50.46468
21.15645
6.6843199
2.2517347
1.2653203
0.95637204
0.73540918
0.59359901
0.53206843
0.49166342
0.46700806
0.4296833
0.41864053
0.39863848
0.39218108
805.28676
786.08267
760.18995
727.56885
688.1393
642.19572
590.4268
533.89067
473.97449
412.31777
350.65254
290.54932
233.30539
179.98928
131.39364
88.172034
50.852146
21.294601
6.6490948
2.228381
1.2620167
0.95579079
0.73587416
0.59293431
0.53132706
0.49137731
0.46692084
0.42952529
0.41855635
0.39866487
0.39219756
811.14911
792.02856
766.24626
733.72264
694.3437
648.33375
596.35043
539.44757
479.03509
416.77769
354.43388
293.62424
235.69969
181.76814
132.6463
88.994279
51.34195
21.508082
6.6197438
2.206188
1.259615
0.95552431
0.73652059
0.59231531
0.53065814
0.49115046
0.46689405
0.42938915
0.41848242
0.3986933
0.39221495
816.63738
797.74058
772.21581
739.90969
700.68579
654.6988
602.55864
545.32299
484.42593
421.57238
358.53725
296.99268
238.34872
183.75867
134.06812
89.947795
51.934832
21.805682
6.5934871
2.1850766
1.2582632
0.95557562
0.73720092
0.59173001
0.53007086
0.49096977
0.46690537
0.4292757
0.41841512
0.39872392
0.39223312
820.97541
802.28044
777.11515
745.1617
706.24155
660.43834
608.29671
550.85915
489.57395
426.22693
362.58055
300.35329
241.02011
185.78473
135.52616
90.931605
52.550513
22.131959
6.5663266
2.1647802
1.2580213
0.95584021
0.73781417
0.59115525
0.5295446
0.49080491
0.46697159
0.42918277
0.41835162
0.39875702
0.39225192
121.78381
158.95419
205.15798
242.52128
286.68785
348.67408
408.14477
449.91195
468.18834
465.8801
445.8045
404.38161
352.81279
295.76679
237.26594
180.6451
128.41525
81.978952
43.563712
17.43764
5.2139598
1.8123246
1.0040915
0.73607724
0.61043972
0.53652997
0.48800451
0.44210843
0.42710422
0.39937497
0.39139185
126.37871
161.33492
205.93614
242.63945
283.01226
342.45795
401.10744
443.38589
463.06022
462.37639
443.44166
403.35538
352.54919
296.05759
237.91493
181.46356
129.26394
82.791563
44.242853
17.859328
5.3481065
1.8377538
1.009774
0.73900881
0.61193821
0.53717116
0.4883469
0.44225718
0.42715895
0.39938249
0.39137189
131.63036
165.22418
207.58206
242.936
279.85883
336.56355
394.25453
436.94891
457.91994
458.48877
440.72195
402.04715
352.18536
296.3105
238.53843
182.26644
130.10497
83.600428
44.925086
18.287383
5.4875109
1.8636804
1.0155887
0.74197284
0.61342345
0.53779177
0.48871709
0.44241599
0.42721229
0.39939045
0.39135016
136.26322
168.87404
209.50719
243.56654
277.29327
331.05689
387.60875
430.60175
452.75234
454.48834
437.94867
400.66694
351.76452
296.5225
239.13449
183.0526
130.93764
84.405447
45.609888
18.720679
5.6316943
1.8904666
1.0215574
0.74497979
0.61490942
0.53840673
0.48912238
0.44258549
0.42726493
0.399399
0.39132753
140.63531
172.33464
211.40762
244.26107
275.22001
325.945
381.1798
424.34409
447.54374
450.45986
435.11708
399.21725
351.28504
296.69189
239.70186
183.82119
131.76138
85.206228
46.296887
19.158416
5.7804891
1.9182056
1.0276428
0.74800342
0.61638179
0.53901779
0.48956184
0.44276264
0.42731523
0.39940811
0.39130463
144.87993
175.64415
213.21895
244.9389
273.53546
321.21679
374.97626
418.177
442.21132
446.40125
432.22688
397.7013
350.74679
296.81779
240.23981
184.57162
132.57573
86.0027
46.985756
19.599579
5.9339279
1.9469298
1.0338223
0.75102638
0.61782908
0.5396276
0.49003464
0.44294485
0.42736174
0.39941757
0.39128144
149.04713
178.8342
214.93212
245.60853
272.19096
316.85964
369.00884
412.11635
436.95793
442.32291
429.28295
396.12035
350.15017
296.89969
240.74782
185.30344
133.38031
86.794538
47.67618
20.042537
6.0921027
1.9766771
1.0400946
0.75404601
0.61924999
0.54024338
0.49054129
0.44313029
0.42740367
0.39942745
0.39125794
153.1842
181.94161
216.55904
246.28053
271.14075
312.86415
363.28836
406.19181
432.03653
438.23895
426.29001
394.47594
349.49574
296.937
241.22545
186.0162
134.17473
87.581517
48.367866
20.486075
6.2550898
2.0074858
1.0464653
0.75706527
0.62064869
0.54087457
0.49108215
0.44331711
0.42744059
0.39943765
0.39123403
157.33574
185.01059
218.12615
246.97271
270.35208
309.21295
357.82097
400.40032
426.98643
434.1421
423.25141
392.77005
348.78412
296.93071
241.67227
186.70945
134.95862
88.363408
49.060558
20.929671
6.4229401
2.0393981
1.0529387
0.76008741
0.62203097
0.5415307
0.49165645
0.44350302
0.42747222
0.39944833
0.39120965
161.5274
188.08258
219.69657
247.68322
269.79474
305.88365
352.6089
394.74255
421.87519
430.03112
420.16908
391.00548
348.0161
296.88619
242.08787
187.38276
135.73159
89.139977
49.754061
21.372753
6.5956771
2.0724534
1.059518
0.76311515
0.62340311
0.54222051
0.49226217
0.44368548
0.42749847
0.39945979
0.39118473
165.77261
191.1903
221.31886
248.38519
269.43117
302.85801
347.65117
389.22558
416.80986
425.90989
417.04185
389.18691
347.19242
296.79227
242.47172
188.03569
136.49325
89.910977
50.448247
21.815284
6.7733013
2.1066917
1.0662061
0.76615159
0.62477198
0.54295188
0.49289631
0.4438619
0.42751951
0.39947233
0.39115928
170.07681
194.35434
223.01699
249.10168
269.26026
300.12837