/*--------------------------------*- C++ -*----------------------------------*\
| =========                 |                                                 |
| \\      /  F ield         | OpenFOAM: The Open Source CFD Toolbox           |
|  \\    /   O peration     | Version:  2406                                  |
|   \\  /    A nd           | Website:  www.openfoam.com                      |
|    \\/     M anipulation  |                                                 |
\*---------------------------------------------------------------------------*/
FoamFile
{
    version     2.0;
    format      ascii;
    arch        "LSB;label=32;scalar=64";
    class       volScalarField;
    location    "0.029";
    object      Ma;
}
// * * * * * * * * * * * * * * * * * * * * * * * * * * * * * * * * * * * * * //

dimensions      [0 0 0 0 0 0 0];

internalField   nonuniform List<scalar> 
35803
(
0.15706709
0.15812927
0.15919137
0.1602688
0.16132776
0.16235968
0.16335787
0.16429802
0.16536125
0.16665421
0.16820788
0.16979278
0.17150044
0.17330015
0.17513445
0.17664402
0.17718433
0.17570443
0.17190698
0.16894001
0.16730649
0.16606475
0.16477028
0.1636782
0.16158562
0.16068749
0.15907283
0.15890257
0.15795749
0.15762695
0.14988021
0.15411262
0.15533151
0.15661226
0.15791273
0.15921469
0.16050497
0.16177334
0.16302309
0.16435344
0.16585078
0.16752237
0.16924249
0.17105607
0.17292965
0.17480446
0.1763115
0.17678707
0.175189
0.17138653
0.16859645
0.16707499
0.16588123
0.16456963
0.16354871
0.16149056
0.16059837
0.15900843
0.1588615
0.15791238
0.15760176
0.14987025
0.15041981
0.15183147
0.15341475
0.15502456
0.15663393
0.15823468
0.15982013
0.16139275
0.16301345
0.16475351
0.16660972
0.16849891
0.17044606
0.17241664
0.1743507
0.17587103
0.17630001
0.17459145
0.17081587
0.16823314
0.16682384
0.16567966
0.16437078
0.16341715
0.1613895
0.16050212
0.15893527
0.15881372
0.15785954
0.15757379
0.14985797
0.14667813
0.14826831
0.15009265
0.15197565
0.15387575
0.1557803
0.15767936
0.15957105
0.16149081
0.16348595
0.16555542
0.16763197
0.16972863
0.17180891
0.17380841
0.17533865
0.17571119
0.17388149
0.1701598
0.16781751
0.16653126
0.16544192
0.16418621
0.16326821
0.16126569
0.16038504
0.15885366
0.15875864
0.15779642
0.15754277
0.14984123
0.14293246
0.14469074
0.1467078
0.14882211
0.15098526
0.15317633
0.15537966
0.15758454
0.15980403
0.16206242
0.16435652
0.16663355
0.16889285
0.17109378
0.17316365
0.17469798
0.17499753
0.17303431
0.16940925
0.16735055
0.16619592
0.16516742
0.16401323
0.16310899
0.16112017
0.16025152
0.15876321
0.15869483
0.15772504
0.15750798
0.14981806
0.13927095
0.14116517
0.14333059
0.14563072
0.14801782
0.15046411
0.15294689
0.155446
0.15795487
0.16047665
0.16300137
0.16548677
0.1679182
0.17024829
0.17239191
0.1739227
0.17412772
0.17202219
0.16855891
0.16682459
0.16581098
0.16485006
0.16383697
0.1629024
0.16094933
0.16010009
0.15866332
0.15862031
0.1576407
0.15746841
0.14978633
0.13583273
0.13781524
0.14007806
0.14251027
0.14506851
0.14772082
0.15043872
0.15319395
0.15596466
0.15873583
0.16148738
0.16418046
0.16678673
0.16924914
0.17146504
0.17298002
0.17306163
0.17081134
0.16761104
0.16623222
0.16536964
0.16448479
0.16357358
0.16266022
0.1607612
0.15993507
0.15855263
0.15853367
0.1575551
0.15742263
0.14974513
0.13273392
0.13479178
0.13710741
0.13960927
0.14226888
0.14505695
0.14794329
0.15089474
0.15387879
0.15686573
0.15982379
0.16271061
0.16548373
0.16807253
0.17035004
0.17182983
0.17174726
0.16935296
0.16657826
0.16556399
0.1648635
0.16406547
0.1632616
0.16237853
0.16056245
0.15976005
0.15842836
0.15843559
0.15746981
0.15736809
0.14969667
0.13028004
0.13231876
0.13460613
0.13709357
0.13976526
0.1425988
0.14556625
0.14863293
0.15175996
0.15490676
0.15803007
0.16107915
0.16399614
0.1666922
0.16900745
0.17041799
0.17011379
0.16762719
0.16547958
0.16480984
0.16428253
0.16358612
0.16290013
0.16205934
0.16035659
0.15957311
0.15828937
0.15827697
0.15736555
0.15729974
0.14964684
0.12853242
0.13048052
0.1326688
0.13506611
0.13766616
0.14045484
0.14340929
0.14649741
0.14967931
0.15290882
0.15613367
0.15929267
0.16231111
0.16507657
0.16738551
0.1686614
0.16806669
0.16568431
0.16431976
0.16396198
0.16361542
0.16303974
0.16248309
0.16171685
0.16013536
0.15937214
0.15812875
0.15809922
0.15722867
0.15721277
0.14960169
0.12750397
0.12931667
0.13135545
0.13360032
0.13605353
0.13871025
0.14155611
0.14456551
0.14770253
0.15092081
0.15416283
0.15735728
0.16041129
0.16318188
0.16540445
0.16643335
0.16548749
0.16363579
0.16308017
0.16301411
0.16285127
0.16241743
0.16200637
0.16134049
0.15988934
0.15914831
0.1579411
0.15790302
0.15707491
0.15711024
0.1495541
0.12715168
0.12878664
0.13063994
0.13269043
0.13493932
0.13738938
0.14003887
0.14287313
0.14586432
0.14896985
0.15213035
0.15526536
0.1582616
0.16093479
0.16293123
0.1635297
0.16246896
0.16167102
0.16174319
0.16195988
0.16198418
0.16170817
0.16146184
0.16087645
0.15960223
0.15888692
0.15773684
0.15768327
0.15691654
0.15700649
0.14953829
0.12745846
0.12884355
0.13043086
0.1322147
0.13420066
0.13638965
0.13878124
0.14136857
0.14413076
0.14702921
0.15000395
0.15296512
0.15577355
0.1581851
0.15971613
0.15981101
0.15949933
0.15977609
0.16029994
0.16080328
0.1610161
0.16090114
0.16083977
0.16035664
0.15924936
0.15855348
0.15751511
0.15744146
0.15673666
0.15686622
0.14950384
0.12809486
0.12924691
0.13056807
0.13205343
0.13372138
0.13559071
0.1376679
0.13994582
0.14240116
0.14499225
0.14765274
0.15027552
0.15269086
0.1546175
0.15561434
0.15593847
0.15687546
0.15794154
0.15877792
0.15953699
0.15993305
0.16000789
0.16013634
0.15975627
0.15881372
0.15814913
0.15728023
0.15719689
0.15651667
0.15669845
0.14946707
0.12865547
0.12957367
0.13065709
0.13189728
0.13328997
0.13483996
0.13655537
0.13843943
0.14047701
0.14263076
0.14484017
0.14698646
0.14889499
0.15032154
0.15146843
0.1530285
0.15472558
0.15609024
0.15719801
0.15818223
0.15875735
0.15902891
0.15934304
0.15908564
0.15829789
0.15768338
0.15698916
0.15694938
0.15625723
0.1565012
0.14942588
0.128567
0.12916038
0.12990281
0.1308228
0.13194507
0.13325799
0.13471647
0.13635836
0.13806908
0.139827
0.14159815
0.14337778
0.14517405
0.14692177
0.14889487
0.15090413
0.15267025
0.15428188
0.15560566
0.15676784
0.15750654
0.15798324
0.15847202
0.15834419
0.1576995
0.15716286
0.15665135
0.15665717
0.15595698
0.15626957
0.14937732
0.12954404
0.12997976
0.13048086
0.13104894
0.13171607
0.13254831
0.13357059
0.13477979
0.13614522
0.13759983
0.13914992
0.14090379
0.14286029
0.14499013
0.14713777
0.14906298
0.15088299
0.15258324
0.15406616
0.15534291
0.15621973
0.15687956
0.15752296
0.15755516
0.15702959
0.15659147
0.15624811
0.15628698
0.15560835
0.1559913
0.14931763
0.13150238
0.13190015
0.13235646
0.13287051
0.13342799
0.13400864
0.13460307
0.13521206
0.13595927
0.13700499
0.13828672
0.13984438
0.14146783
0.14334659
0.14540396
0.14759162
0.14939921
0.15104911
0.15260875
0.15394527
0.15491759
0.15574097
0.15651384
0.15672134
0.15630048
0.15596221
0.15575295
0.15587525
0.1552155
0.15564664
0.14923953
0.13285747
0.13315477
0.13350598
0.13392485
0.13442985
0.13504588
0.13579601
0.13666108
0.13748384
0.1382943
0.13920927
0.13995807
0.14105344
0.14258887
0.14421692
0.14610234
0.14804825
0.14969198
0.1512573
0.15260274
0.15363893
0.15460246
0.15548251
0.15582805
0.15553884
0.15527214
0.15514965
0.15535638
0.15476986
0.1552206
0.14907468
0.13540127
0.13561529
0.13586
0.13613621
0.13644486
0.13678561
0.13716141
0.13759042
0.13811771
0.13878436
0.1396617
0.14081774
0.14180516
0.14263815
0.14379282
0.14513771
0.14670739
0.14839141
0.15002532
0.15137015
0.15243816
0.15349809
0.15443958
0.15491241
0.15473702
0.15455866
0.1544695
0.15479899
0.1542758
0.15473594
0.14902104
0.13696593
0.1371333
0.13733125
0.13756525
0.13784409
0.13817811
0.13857703
0.13904539
0.13957722
0.1401593
0.14075785
0.14136303
0.14218847
0.14320146
0.14396851
0.1448428
0.14602127
0.14733903
0.14884355
0.15023546
0.15139439
0.1524437
0.15341299
0.15400409
0.15389438
0.15381138
0.15379214
0.15420014
0.15372327
0.1542878
0.14898167
0.13932241
0.13943724
0.13956858
0.13971701
0.13988324
0.14006815
0.1402739
0.14050554
0.140775
0.14110489
0.14153506
0.14210496
0.14274438
0.14339272
0.14430191
0.14509836
0.14583473
0.14681142
0.14795762
0.14913957
0.15047686
0.15153017
0.15242206
0.15305291
0.15304392
0.15303751
0.15312242
0.15355607
0.15311775
0.15366943
0.14884801
0.14074463
0.14083401
0.14093952
0.14106412
0.14121259
0.14139115
0.14160659
0.14186462
0.14216746
0.1425106
0.14287826
0.1432464
0.14363703
0.14410617
0.14460768
0.14529093
0.14604929
0.14668703
0.14752941
0.14842338
0.14957308
0.15072878
0.15150065
0.15206253
0.15218555
0.1522542
0.1524431
0.15287333
0.15248786
0.15286068
0.14880247
0.14286177
0.14292211
0.14299122
0.14306978
0.14315824
0.14325611
0.14336281
0.14347939
0.14360996
0.1437641
0.14396011
0.14422251
0.14455439
0.1449249
0.14536314
0.14582762
0.14630941
0.14699194
0.1474805
0.14814615
0.14899852
0.14990181
0.15072696
0.15115356
0.15133063
0.15150387
0.15175156
0.15218635
0.15186324
0.1522705
0.1486832
0.14413652
0.14417856
0.14422887
0.14428897
0.14436118
0.1444487
0.14455593
0.1446898
0.14485402
0.14504511
0.14525441
0.1454672
0.14567581
0.14589799
0.1461313
0.14643395
0.14682063
0.14716345
0.14771309
0.1481907
0.14875394
0.1492881
0.15015204
0.15049226
0.15055013
0.15081882
0.15110599
0.15155732
0.15127143
0.15149973
0.14854973
0.14591616
0.14593917
0.1459652
0.14599449
0.14602726
0.1460633
0.14610128
0.14613697
0.14616827
0.14619821
0.14623461
0.14629385
0.14639089
0.14652789
0.14671229
0.14690808
0.14710677
0.14749569
0.14783836
0.14830768
0.14860253
0.14897181
0.14969063
0.15004612
0.14997772
0.15019475
0.15054356
0.1509522
0.1507486
0.15102388
0.14849249
0.14684991
0.14686034
0.14687302
0.14688795
0.14690554
0.14692638
0.14695152
0.14698267
0.14702215
0.14707382
0.14713906
0.14721576
0.14729185
0.14735484
0.14741691
0.14753086
0.14771472
0.14789209
0.14818366
0.14825219
0.14840005
0.14855389
0.14922098
0.14966839
0.14958795
0.1496944
0.15001231
0.15034566
0.15024443
0.15049999
0.14846585
0.14804043
0.14804798
0.14805642
0.14806547
0.1480748
0.14808395
0.14809235
0.14809955
0.14810511
0.14810743
0.14810555
0.14809917
0.14809877
0.14812123
0.14817522
0.14823326
0.14829931
0.14837846
0.14841366
0.14849875
0.14838201
0.14826666
0.14865825
0.14914135
0.14908094
0.14920823
0.14941744
0.14972706
0.14968554
0.150048
0.1484518
0.14867093
0.14867396
0.14867785
0.14868252
0.14868785
0.14869357
0.14869927
0.14870454
0.14870882
0.14871193
0.14871407
0.14871502
0.14871397
0.14870918
0.14870452
0.14870377
0.14871355
0.14873225
0.14875315
0.14877949
0.14872307
0.14826954
0.14843396
0.14872158
0.14858909
0.14871202
0.14885812
0.14912799
0.14920235
0.14952328
0.14842585
0.14901407
0.14900848
0.1490027
0.14899735
0.14899294
0.14898944
0.14898677
0.14898479
0.14898325
0.14898212
0.14898117
0.14897849
0.14897179
0.14896028
0.14894617
0.14893525
0.14893319
0.1489422
0.14894466
0.14894274
0.14901164
0.14859467
0.14846147
0.14861749
0.14842759
0.14850285
0.14857553
0.1487835
0.14886591
0.14921945
0.14841975
0.14920833
0.14919909
0.14918925
0.14917963
0.14917115
0.1491647
0.14916083
0.14915951
0.14915986
0.14916064
0.14916094
0.14916076
0.1491608
0.14916202
0.14916445
0.14916659
0.14916765
0.14918359
0.14918618
0.14911247
0.14925381
0.14914683
0.14883067
0.14875754
0.14864232
0.14867599
0.14859878
0.14869794
0.14875145
0.1491047
0.14864525
0.016519011
0.031293507
0.05740186
0.091076099
0.11722205
0.13319388
0.14278473
0.14940879
0.15471403
0.1593326
0.16349514
0.16731142
0.17083965
0.17410986
0.17713623
0.17985984
0.18224008
0.18379227
0.18404502
0.18183912
0.17686716
0.17293994
0.1703141
0.16800544
0.16517933
0.16350555
0.16156321
0.16078799
0.15984822
0.15898771
0.15022597
0.02523786
0.046859906
0.079287181
0.10970272
0.12845048
0.13912699
0.1461192
0.1515958
0.15634292
0.16062174
0.16453838
0.16815961
0.1715249
0.17465712
0.17756269
0.18017892
0.18244698
0.18386369
0.18396041
0.18155876
0.17654261
0.17273299
0.17017124
0.16788582
0.1650816
0.16343441
0.16150718
0.16074918
0.15981036
0.1589586
0.15021242
0.03699613
0.064276426
0.096590069
0.11999839
0.13368678
0.14208394
0.14814636
0.15317166
0.157628
0.16168199
0.16541326
0.16887701
0.17210618
0.1751209
0.17792209
0.18044416
0.18261006
0.18390594
0.18386303
0.18128631
0.17624374
0.17254809
0.17004105
0.16777764
0.16499224
0.16336825
0.16145403
0.1607112
0.15977274
0.15892416
0.15019594
0.052724042
0.083822617
0.11123265
0.12822603
0.13816137
0.14481153
0.15007655
0.15467912
0.15885606
0.16269441
0.16624838
0.16956096
0.17265946
0.17556142
0.1782621
0.18069248
0.1827556
0.18393148
0.18375661
0.18100349
0.17594631
0.17236413
0.16990882
0.167667
0.16490107
0.16330093
0.16140015
0.16067289
0.15973488
0.15889267
0.15017878
0.072414588
0.10181582
0.12212087
0.13400649
0.14149423
0.14707428
0.15181532
0.15609343
0.16002685
0.16366544
0.16705066
0.17021742
0.17318943
0.17598215
0.17858508
0.1809254
0.18288532
0.1839473
0.18364092
0.18070938
0.17565135
0.17218413
0.16977776
0.16755746
0.16481086
0.16323416
0.16134651
0.16063448
0.15969682
0.15886127
0.15016156
0.092882076
0.11571727
0.12969914
0.13822297
0.1442036
0.14908465
0.15343244
0.15743384
0.16114428
0.16459472
0.16781815
0.17084395
0.17369369
0.17638079
0.17888892
0.18114114
0.18299885
0.18395239
0.18351283
0.18040532
0.17536009
0.17200789
0.16964749
0.16744844
0.1647211
0.16316758
0.16129283
0.16059588
0.15965851
0.15883056
0.15014448
0.10936701
0.12540417
0.13501928
0.14147071
0.14651583
0.1509154
0.1549506
0.15870781
0.16221094
0.16548262
0.1685502
0.1714397
0.1741714
0.17675663
0.17917306
0.18133936
0.18309684
0.18394721
0.18337032
0.18009228
0.17507355
0.17183535
0.1695181
0.16734016
0.16463198
0.16310136
0.16123924
0.16055709
0.15961999
0.15880146
0.15012758
0.12125927
0.13198869
0.13891438
0.14413336
0.14857883
0.15262059
0.15639039
0.15992378
0.16323093
0.1663311
0.16924777
0.17200526
0.17462306
0.17711004
0.1794378
0.18152052
0.18318081
0.18393303
0.18321169
0.17977117
0.17479245
0.17166627
0.16938953
0.16723259
0.1645435
0.16303549
0.1611857
0.16051811
0.15958126
0.15877273
0.15011091
0.12907058
0.13655831
0.14196638
0.14644945
0.1504798
0.15423224
0.1577647
0.1610877
0.16420757
0.16714172
0.16991169
0.17254124
0.17504906
0.1774413
0.17968339
0.18168501
0.18325146
0.1839081
0.18303809
0.17944196
0.17451754
0.1715004
0.16926174
0.16712576
0.16445568
0.16297003
0.16113226
0.16047894
0.15954233
0.15874418
0.1500945
0.13440501
0.14004574
0.14456161
0.14855866
0.15226919
0.15577043
0.15908229
0.16220416
0.16514307
0.16791546
0.1705425
0.17304801
0.17544966
0.17775059
0.17990999
0.18183318
0.18330817
0.18387012
0.18284907
0.17910573
0.17424949
0.17133749
0.16913472
0.16701969
0.16436855
0.16290501
0.16107894
0.16043958
0.1595032
0.15871603
0.1500784
0.13834633
0.14292878
0.14688676
0.15053221
0.15397629
0.15724831
0.16034935
0.16327645
0.1660389
0.168653
0.17114063
0.17352587
0.17582508
0.17803806
0.1801178
0.18196526
0.18335024
0.18381832
0.18264537
0.17876542
0.17398865
0.1711773
0.16900846
0.16691439
0.16428213
0.16284048
0.16102576
0.16040002
0.1594639
0.15868825
0.15006263
0.14153528
0.1454807
0.14905232
0.1524152
0.15562087
0.15867503
0.16157042
0.16430705
0.16689613
0.16935482
0.17170642
0.1739751
0.17617552
0.17830387
0.18030698
0.18208117
0.18337685
0.18375401
0.1824282
0.17842385
0.17373505
0.17101956
0.16888294
0.16680989
0.16419643
0.16277645
0.16097273
0.16036027
0.15942443
0.1586615
0.1500473
0.14433099
0.14784925
0.15112027
0.15423536
0.15721604
0.16005679
0.16274903
0.16529764
0.16771534
0.17002125
0.17224014
0.17439591
0.17650114
0.17854817
0.1804777
0.1821806
0.18338954
0.18367694
0.1821987
0.17808189
0.17348856
0.17086408
0.16875816
0.1667062
0.16411146
0.16271297
0.1609199
0.16032035
0.1593848
0.15863553
0.15003266
0.14692307
0.15011764
0.15312898
0.15601101
0.15877055
0.16139778
0.16388759
0.16624901
0.16849683
0.17065249
0.172742
0.17478849
0.17680212
0.1787711
0.18063014
0.1822639
0.18338879
0.18358789
0.18195791
0.1777403
0.17324906
0.17071065
0.16863413
0.16660334
0.16402724
0.16265006
0.16086727
0.16028025
0.15934503
0.15860878
0.15001862
0.14941872
0.15233553
0.15510233
0.1577537
0.16028977
0.16270064
0.16498726
0.16716144
0.16924067
0.17124866
0.17321213
0.17515298
0.17707858
0.17897281
0.18076445
0.18233072
0.18337295
0.18348725
0.18170642
0.17740016
0.17301635
0.1705591
0.16851085
0.16650132
0.16394378
0.16258772
0.16081489
0.16023999
0.15930513
0.15858392
0.15000527
0.15187787
0.15453213
0.15705472
0.15947017
0.16177636
0.16396678
0.16604821
0.16803475
0.16994675
0.17180976
0.17365062
0.17548949
0.17733065
0.17915343
0.18088072
0.18238001
0.18334264
0.18337647
0.18144452
0.17706274
0.17279016
0.17040927
0.16838832
0.16640018
0.16386109
0.16252597
0.16076281
0.16019959
0.15926517
0.15855805
0.14999265
0.1543354
0.15672464
0.15899406
0.16116339
0.16323105
0.1651963
0.16706991
0.16886842
0.17061478
0.1723357
0.17405748
0.17579809
0.17755841
0.17931309
0.18097889
0.18241107
0.1832982
0.18325606
0.18117284
0.17672869
0.17257022
0.17026102
0.16826657
0.16629994
0.16377918
0.1624648
0.16071105
0.16015911
0.15922524
0.15853108
0.14998084
0.15681105
0.15892162
0.16092292
0.1628331
0.16465293
0.16638797
0.16805119
0.16966166
0.17124433
0.1728263
0.17443268
0.17607883
0.17776197
0.17945192
0.18105845
0.18242385
0.18324125
0.18312603
0.18089222
0.17639849
0.17235625
0.17011425
0.16814559
0.16620062
0.16369805
0.16240421
0.16065959
0.16011862
0.15918469
0.15850427
0.14996989
0.15931283
0.16112403
0.16283912
0.16447606
0.16603946
0.16753946
0.16899034
0.17041341
0.17183485
0.1732813
0.17477613
0.17633173
0.17794142
0.17957009
0.1811198
0.18242196
0.18317626
0.18298619
0.18060346
0.17607284
0.17214799
0.16996885
0.16802542
0.16610225
0.16361772
0.16234418
0.16060833
0.16007815
0.15914162
0.15847755
0.14995986
0.16183665
0.16332526
0.16473583
0.16608659
0.16738644
0.16864757
0.16988523
0.1711224
0.17238563
0.17370038
0.17508771
0.17655676
0.17809685
0.17966776
0.18116361
0.18240597
0.18310217
0.18283653
0.18030743
0.17575231
0.17194516
0.16982474
0.16790606
0.16600486
0.16353819
0.1622847
0.16055721
0.16003764
0.15909817
0.15845053
0.14995079
0.16436635
0.16551159
0.16660209
0.16765688
0.16868817
0.16970842
0.17073342
0.17178719
0.17289589
0.17408316
0.17536725
0.17675393
0.17822835
0.17974478
0.18118882
0.18237675
0.18301909
0.18267734
0.18000501
0.1754374
0.17174748
0.16968184
0.16778754
0.1659085
0.16345949
0.16222574
0.16050623
0.159997
0.15905492
0.15842284
0.14994275
0.16687561
0.16766326
0.16842363
0.16917735
0.16993794
0.17071757
0.17153217
0.17240617
0.17336476
0.1744292
0.17561456
0.1769232
0.17833594
0.17979992
0.18119573
0.18233617
0.18292834
0.18250685
0.17969695
0.1751285
0.17155465
0.16954012
0.16766987
0.16581319
0.16338163
0.16216728
0.16045553
0.15995626
0.15901221
0.15839414
0.14993582
0.16933116
0.16975563
0.17018447
0.17063733
0.17112838
0.17167007
0.17227854
0.17297764
0.17379128
0.17473801
0.17582944
0.17706454
0.1784194
0.17983278
0.18118839
0.18228419
0.1828294
0.18232555
0.17938397
0.17482591
0.17136636
0.16939952
0.16755307
0.16571898
0.16330462
0.16210931
0.16040521
0.15991554
0.15897017
0.15836551
0.14993004
0.17169572
0.17176118
0.17186878
0.17202564
0.17225166
0.17256051
0.17296945
0.17349982
0.17417445
0.17500913
0.1760117
0.17717769
0.17847708
0.17984467
0.18116703
0.18221965
0.18272076
0.1821326
0.17906698
0.17452991
0.17118233
0.16926003
0.16743716
0.1656259
0.16322848
0.1620518
0.16035533
0.15987495
0.15892886
0.1583376
0.14992538
0.17393832
0.17366218
0.17345813
0.17333004
0.17329951
0.17338345
0.17360171
0.17397083
0.17451328
0.17524213
0.17616101
0.17726163
0.17850748
0.17983948
0.18112995
0.18214256
0.18260188
0.1819283
0.17874714
0.17424069
0.17100228
0.16912163
0.16732215
0.165534
0.16315324
0.16199475
0.16030589
0.15983457
0.1588883
0.15831051
0.14992183
0.17603139
0.17543625
0.17493458
0.1745371
0.17426362
0.17413567
0.17417212
0.17438854
0.17480672
0.17543653
0.17627649
0.17731277
0.17851336
0.17981773
0.18107638
0.18205295
0.18247286
0.18171425
0.17842568
0.17395839
0.17082593
0.16898432
0.16720807
0.16544332
0.16307889
0.16193818
0.1602568
0.1597944
0.15884849
0.15828429
0.14991935
0.1779444
0.17705849
0.17628382
0.17563605
0.17513799
0.17481182
0.17467717
0.17475199
0.17505334
0.17559121
0.17635449
0.17733185
0.17850052
0.17977728
0.18100674
0.18195089
0.18233349
0.18149096
0.17810378
0.17368311
0.17065302
0.1688481
0.16709492
0.16535394
0.16300544
0.16188208
0.16020805
0.15975442
0.15880931
0.15825884
0.14991791
0.1796554
0.17851189
0.17749268
0.17661802
0.17591493
0.17540717
0.1751157
0.17505876
0.17525113
0.17570189
0.17639182
0.17732769
0.17846694
0.17971638
0.18092123
0.18183652
0.18218389
0.18125956
0.17778296
0.17341485
0.17048334
0.168713
0.16698272
0.16526589
0.1629329
0.16182634
0.16015972
0.15971462
0.15877049
0.15823432
0.14991705
0.18114735
0.1797822
0.17854963
0.17747466
0.17658845
0.1759175
0.17548434
0.17530537
0.17539413
0.17575978
0.17639701
0.17730093
0.17840861
0.17963534
0.18081995
0.18171006
0.18202436
0.18102116
0.1774643
0.17315351
0.17031665
0.16857903
0.16687148
0.16517912
0.16286138
0.16177093
0.16011187
0.15967502
0.15873199
0.15821048
0.14991653
0.18240592
0.1808573
0.1794449
0.17819876
0.17715283
0.17633674
0.17577611
0.1754815
0.17547118
0.17577528
0.17637867
0.17724746
0.17832602
0.17953434
0.18070298
0.18157179
0.18185524
0.18077673
0.17714873
0.1728989
0.17015279
0.16844621
0.16676125
0.16509375
0.16279083
0.16171602
0.16006435
0.15963565
0.15869442
0.15818722
0.14991614
0.1834164
0.18172407
0.18016757
0.17878179
0.17760003
0.176652
0.17596829
0.17556879
0.17549902
0.17576592
0.17633162
0.17716419
0.17821927
0.17941336
0.18057039
0.181422
0.18167698
0.18052724
0.17683697
0.17265087
0.16999163
0.16831456
0.16665206
0.16500979
0.16272125
0.16166151
0.16001717
0.15959653
0.15865792
0.15816349
0.14991566
0.18415806
0.18236081
0.1806957
0.17919793
0.1779009
0.176839
0.17605702
0.1756014
0.17550012
0.17572413
0.17624811
0.17705143
0.17808818
0.17927234
0.18042224
0.1812609
0.18149005
0.18027364
0.17652971
0.17240934
0.16983301
0.16818413
0.16654393
0.16492729
0.16265261
0.16160743
0.1599703
0.15955772
0.158622
0.15813639
0.14991486
0.18457599
0.18272616
0.18099576
0.17942055
0.17804477
0.17691508
0.17608604
0.17560185
0.1754583
0.17563849
0.1761289
0.17690925
0.17793261
0.17911119
0.18025866
0.18108824
0.181295
0.18001692
0.17622723
0.17217411
0.16967679
0.16805495
0.1664369
0.16484629
0.16258469
0.1615538
0.15992384
0.15951919
0.15858601
0.1581086
0.14991353
0.18476087
0.18288932
0.18112468
0.17950564
0.17809138
0.17693628
0.17608224
0.17555146
0.17536095
0.17550825
0.17597405
0.17673749
0.17775247
0.17892985
0.18007959
0.18090647
0.18109262
0.17975779
0.17592988
0.17194502
0.16952288
0.16792708
0.16633099
0.1647668
0.16251744
0.16150061
0.15987765
0.15948086
0.15855059
0.15808201
0.14991147
0.18482607
0.18295065
0.18117152
0.17953442
0.17809804
0.1769125
0.1760132
0.17543197
0.17520835
0.17533308
0.17578301
0.17653595
0.17754765
0.17872827
0.17988514
0.1807135
0.18088336
0.17949696
0.17563796
0.17172196
0.16937118
0.16780054
0.16622626
0.16468885
0.16245105
0.16144789
0.15983225
0.15944271
0.15851523
0.15805462
0.14990847
0.18472134
0.18287447
0.18110422
0.17946639
0.17801269
0.17679174
0.17585283
0.17524249
0.17499978
0.17511208
0.17555526
0.17630444
0.17731811
0.17850642
0.1796755
0.18051128
0.18066752
0.1792351
0.17535173
0.17150477
0.16922164
0.16767538
0.16612275
0.16461246
0.1623853
0.16139564
0.15978638
0.15940487
0.15847904
0.15802642
0.14990515
0.18430133
0.18253183
0.18081221
0.1792059
0.17776556
0.17654548
0.17559904
0.17498082
0.17473373
0.17484436
0.17529032
0.17604278
0.17706379
0.17826424
0.1794506
0.18029925
0.18044605
0.17897289
0.17507139
0.1712933
0.16907417
0.16755165
0.16602051
0.16453763
0.16232054
0.1613439
0.15974179
0.15936746
0.15844312
0.15799755
0.14990176
0.18358084
0.18191785
0.18028397
0.17874648
0.17735863
0.17617471
0.1752489
0.17464476
0.17440859
0.17452909
0.17498775
0.17575085
0.17678467
0.17800172
0.17921044
0.18007765
0.18021941
0.17871101
0.17479708
0.17108745
0.16892875
0.16742939
0.16591957
0.16446437
0.16225675
0.16129265
0.15969657
0.15933041
0.15840722
0.15796827
0.14989853
0.18261458
0.18106885
0.17954371
0.17810449
0.17679979
0.17568063
0.17480155
0.1742328
0.17402293
0.17416554
0.17464711
0.1754285
0.17648074
0.17771885
0.17895498
0.17984666
0.17998834
0.17845009
0.17452893
0.17088705
0.16878533
0.16730864
0.16581997
0.16439264
0.16219385
0.16124196
0.15965202
0.1592935
0.15837135
0.15793892
0.14989563
0.18139553
0.1799891
0.17859929
0.17728681
0.17609347
0.1750658
0.17425728
0.17374433
0.17357544
0.17375302
0.17426798
0.1750756
0.17615204
0.17741568
0.1786842
0.17960638
0.17975352
0.17819077
0.17426708
0.17069191
0.16864392
0.16718945
0.16572173
0.16432241
0.16213179
0.16119181
0.15960667
0.15925644
0.15833482
0.15790957
0.14989318
0.17991116
0.1786776
0.17745518
0.17629893
0.17524419
0.17433292
0.17361746
0.17317944
0.17306475
0.17329092
0.1738499
0.17469199
0.17579861
0.17709227
0.17839806
0.17935682
0.1795154
0.17793368
0.17401159
0.17050191
0.16850452
0.16707187
0.1656249
0.16425365
0.16207078
0.16114167
0.15956011
0.15921892
0.15829713
0.15787875
0.14989122
0.17816682
0.17714312
0.17612055
0.17514852
0.17425739
0.1734852
0.17288437
0.17253835
0.17248943
0.17277867
0.17339247
0.1742775
0.17542048
0.17674873
0.17809652
0.17909793
0.17927389
0.17767937
0.17376254
0.17031692
0.16836716
0.16695595
0.16552949
0.16418633
0.16201106
0.16109132
0.1595115
0.15918084
0.15825929
0.1578447
0.14988975
0.1761914
0.175407
0.17461021
0.17384532
0.17313895
0.17252592
0.17206104
0.17181961
0.17184897
0.17221592
0.17289529
0.17383196
0.17501777
0.17638524
0.17777964
0.17882958
0.17902968
0.17742843
0.17351999
0.17013683
0.16823184
0.16684171
0.16543549
0.16412042
0.16195303
0.16103959
0.15945794
0.15914244
0.15822118
0.15781025
0.14988873
0.17402803
0.17349638
0.17294024
0.17239852
0.17189382
0.17145822
0.1711486
0.1710208
0.17114497
0.1716022
0.17235802
0.17335523
0.17459058
0.17600206
0.17744751
0.17855152
0.17878277
0.17718144
0.17328392
0.16996142
0.16809851
0.16672914
0.16534301
0.16405592
0.16189694
0.160987
0.15940054
0.15910409
0.15818303
0.15777763
0.14988809
0.17171494
0.17143222
0.17112171
0.17081356
0.17052418
0.17028564
0.17014388
0.17014262
0.17037948
0.17093739
0.1717803
0.17284711
0.17413901
0.1755995
0.17710035
0.17826349
0.17853336
0.17693895
0.17305422
0.16979042
0.16796709
0.16661821
0.16525245
0.16399297
0.16184305
0.16093549
0.15933576
0.15906499
0.15814516
0.157747
0.14988771
0.16926493
0.16921864
0.16915565
0.16909015
0.16903167
0.16900588
0.16904075
0.16918807
0.1695525
0.17022179
0.17116152
0.17230699
0.17366275
0.17517753
0.17673816
0.17796517
0.17828159
0.17670184
0.1728309
0.16962389
0.16783787
0.16650921
0.16516445
0.16393191
0.16179173
0.1608859
0.1592781
0.15902504
0.15810789
0.15771849
0.14988739
0.16664383
0.16682925
0.16702534
0.16721725
0.16740461
0.16760283
0.16783525
0.16815231
0.16865724
0.16945191
0.17049869
0.17173207
0.1731596
0.17473461
0.17635951
0.17765571
0.17802742
0.17647193
0.17261524
0.1694633
0.16771202
0.16640302
0.16507935
0.16387306
0.16174313
0.16083816
0.15922827
0.15899065
0.15807117
0.15769225
0.14988692
0.16377531
0.16418213
0.16467288
0.16515051
0.16560623
0.16605223
0.16651059
0.16701572
0.16767045
0.16861362
0.16978448
0.1711166
0.17262504
0.17426733
0.17596138
0.17733327
0.17777035
0.1762518
0.17241066
0.16931108
0.16759083
0.16630038
0.16499501
0.16381572
0.16169623
0.16079098
0.15918063
0.15896201
0.15803431
0.15766818
0.14988618
0.16063651
0.16114577
0.16191371
0.16270867
0.16348379
0.16423351
0.16496383
0.16569404
0.16651239
0.16764084
0.1689763
0.1704274
0.17203169
0.1737529
0.17552509
0.17698496
0.1775059
0.1760406
0.172224
0.16916652
0.16747206
0.16619901
0.16490292
0.16375689
0.1616482
0.16074249
0.15913114
0.15893328
0.1579964
0.15764607
0.14988555
0.014389106
0.027018117
0.051139814
0.084710393
0.11266341
0.13035173
0.14106073
0.14823231
0.15380705
0.1585858
0.16286902
0.16678813
0.17040812
0.17376106
0.17686331
0.17965643
0.18210781
0.18374488
0.18411281
0.18202952
0.17709941
0.17309606
0.17042676
0.16809698
0.16525719
0.16356459
0.16161118
0.16082361
0.1598824
0.15901525
0.15023035
0.016552795
0.029305173
0.052134914
0.083883686
0.11166401
0.12971597
0.14065718
0.1479487
0.15356678
0.15835935
0.16265293
0.16658879
0.17023356
0.17361603
0.17674946
0.17957352
0.18205234
0.1837234
0.18414632
0.18212782
0.17723561
0.17319015
0.1704992
0.16815586
0.16530936
0.16360664
0.16164697
0.16085172
0.15990993
0.15903312
0.15023396
0.01817417
0.030764333
0.052552402
0.082895482
0.11057161
0.12894159
0.14011803
0.14755066
0.15323531
0.15805983
0.16237737
0.16634044
0.17001813
0.17343699
0.17660761
0.17946829
0.18197992
0.18369741
0.18417274
0.18223518
0.17738289
0.1732889
0.17057247
0.16821534
0.16536182
0.16364907
0.1616833
0.16088039
0.15993792
0.15905119
0.15023762
0.019546295
0.031807372
0.052591673
0.08170974
0.10928692
0.12802555
0.13950229
0.14711084
0.15288072
0.15774637
0.1620918
0.16608316
0.16979386
0.17324916
0.17645728
0.17935543
0.18190062
0.18366611
0.1841972
0.18234195
0.17753376
0.17339276
0.17064906
0.16827782
0.16541684
0.1636933
0.16172109
0.16091015
0.15996663
0.15907023
0.15024221
0.020862777
0.032865865
0.052696408
0.080571987
0.10793609
0.12705285
0.1388627
0.14666326
0.15252625
0.15743577
0.16180872
0.16582645
0.16956793
0.17305795
0.17630247
0.17923776
0.18181651
0.18362994
0.18421884
0.18244525
0.17768416
0.17349865
0.17072713
0.16834187
0.16547339
0.16373861
0.16175976
0.16094052
0.15999576
0.1590898
0.15024649
0.022160515
0.033926487
0.052918165
0.079580251
0.10661578
0.12607447
0.13821959
0.14621664
0.15217639
0.15713108
0.16153067
0.16557261
0.16934245
0.17286519
0.1761447
0.17911646
0.18172848
0.18358944
0.18423661
0.182544
0.17783271
0.17360483
0.17080515
0.16840618
0.16553032
0.16378423
0.16179879
0.16097117
0.16002505
0.15910953
0.15025085
0.023395094
0.034947749