/*--------------------------------*- C++ -*----------------------------------*\
| =========                 |                                                 |
| \\      /  F ield         | OpenFOAM: The Open Source CFD Toolbox           |
|  \\    /   O peration     | Version:  2406                                  |
|   \\  /    A nd           | Website:  www.openfoam.com                      |
|    \\/     M anipulation  |                                                 |
\*---------------------------------------------------------------------------*/
FoamFile
{
    version     2.0;
    format      ascii;
    arch        "LSB;label=32;scalar=64";
    class       volVectorField;
    location    "0.029";
    object      U;
}
// * * * * * * * * * * * * * * * * * * * * * * * * * * * * * * * * * * * * * //

dimensions      [0 1 -1 0 0 0 0];

internalField   nonuniform List<vector> 
35803
(
(43.311595 32.139973 -1.0133481e-23)
(44.471804 31.154661 -2.9404739e-20)
(45.629222 30.101562 1.8844284e-20)
(46.786767 28.979206 -2.4348026e-20)
(47.939406 27.764797 0)
(49.067782 26.475576 5.7847809e-21)
(50.149734 25.141816 -2.2010782e-20)
(51.160488 23.795166 0)
(52.150526 22.481725 0)
(53.156891 21.21835 -2.617362e-22)
(54.196156 20.002704 -4.0157322e-20)
(55.182636 18.852721 3.1664376e-20)
(56.15676 17.766923 0)
(57.115293 16.737336 -4.3867069e-20)
(58.052688 15.726498 0)
(58.850071 14.7103 0)
(59.307245 13.584626 0)
(59.090581 12.184172 8.6081193e-22)
(58.164184 10.108077 6.7413938e-19)
(57.405847 8.4564403 -3.3227309e-21)
(57.014505 7.2104612 8.3312984e-19)
(56.710254 6.1689237 -7.5716408e-19)
(56.370164 5.1302304 -1.3702352e-18)
(56.067815 4.2734546 2.4545798e-18)
(55.405015 3.4789764 0)
(55.141164 2.6969384 0)
(54.610991 2.2024673 0)
(54.578754 1.4029172 -2.2515137e-18)
(54.260136 1.1933935 -2.9636708e-23)
(54.162126 0.07601944 -4.9845579e-19)
(51.515338 0.34178108 -1.5989342e-18)
(42.470144 31.580435 3.1528169e-20)
(43.678385 30.621536 -1.353742e-23)
(44.863102 29.66297 -1.778237e-20)
(46.052332 28.636353 2.3577381e-20)
(47.246535 27.520449 0)
(48.428563 26.32526 -4.692917e-20)
(49.577269 25.074923 2.4870867e-20)
(50.677127 23.800753 -4.1870836e-21)
(51.748979 22.542642 0)
(52.821044 21.318466 -1.4833642e-23)
(53.900537 20.126123 4.1607592e-20)
(54.939322 18.982362 -3.50475e-20)
(55.956802 17.894736 0)
(56.948288 16.856296 9.8341534e-20)
(57.90649 15.83409 0)
(58.711104 14.796685 0)
(59.158257 13.625906 -9.4474989e-20)
(58.909693 12.18828 2.4708493e-19)
(57.989335 10.076486 -2.737652e-21)
(57.288691 8.4469323 0)
(56.93511 7.2079572 0)
(56.647297 6.1678271 1.4274206e-18)
(56.301607 5.1271464 1.1552423e-18)
(56.023383 4.2736603 -2.2781803e-18)
(55.372381 3.4793148 0)
(55.110609 2.6980226 -9.6250108e-19)
(54.588991 2.203939 -3.5443531e-22)
(54.564659 1.4044246 2.0273983e-18)
(54.244724 1.1928278 2.3502967e-18)
(54.153511 0.073718695 3.9641306e-19)
(51.512014 0.33537432 1.4699949e-18)
(41.532072 30.725542 -1.8045428e-20)
(42.718756 29.905716 1.7417755e-20)
(43.935823 29.08354 -7.8753075e-24)
(45.173655 28.179797 0)
(46.423156 27.181197 -6.4997093e-21)
(47.669271 26.096814 2.2807854e-20)
(48.893613 24.946762 -1.4820604e-20)
(50.080501 23.759442 4.231206e-21)
(51.237405 22.569283 -3.6001586e-21)
(52.385408 21.394741 2.1340878e-20)
(53.526233 20.235648 -4.1334408e-20)
(54.626873 19.107324 3.9609613e-20)
(55.696429 18.023417 6.3200371e-25)
(56.728869 16.978861 -5.3437903e-20)
(57.715008 15.945327 -1.5245557e-21)
(58.533175 14.885459 0)
(58.977087 13.669466 -1.6186977e-21)
(58.703202 12.177613 -2.6153502e-19)
(57.798014 10.03996 -3.5895702e-19)
(57.163156 8.4481487 -3.0950614e-21)
(56.847495 7.2169413 -7.3890091e-19)
(56.576853 6.1785002 -6.6127263e-19)
(56.232876 5.1329987 8.0395862e-19)
(55.9776 4.2825232 1.0445854e-18)
(55.337275 3.4864915 0)
(55.077338 2.7047004 8.6723597e-19)
(54.563982 2.2059181 7.2760022e-19)
(54.548279 1.4059155 -1.8701171e-18)
(54.226657 1.1936289 2.123128e-18)
(54.143924 0.070804293 -3.0478144e-19)
(51.507882 0.32739562 -1.333962e-18)
(40.685838 29.71635 2.2805196e-20)
(41.83651 29.040767 -2.2621033e-20)
(43.050765 28.362635 0)
(44.308001 27.598165 0)
(45.5926 26.733734 0)
(46.888066 25.776656 0)
(48.175664 24.743636 9.6136776e-21)
(49.438965 23.658638 -8.4067309e-21)
(50.676912 22.550158 0)
(51.899936 21.436857 0)
(53.107849 20.322382 -5.3779026e-21)
(54.272945 19.220742 -3.7099099e-20)
(55.398121 18.147843 3.2310796e-20)
(56.475169 17.101145 -1.4273673e-24)
(57.49152 16.057158 3.2991483e-21)
(58.322682 14.973491 -3.2222242e-21)
(58.76011 13.712664 3.4572822e-21)
(58.461206 12.14903 4.3850672e-21)
(57.578533 9.9952373 -5.6107296e-21)
(57.019297 8.450987 0)
(56.745691 7.2251651 1.3597726e-18)
(56.493978 6.1890581 -6.0705565e-19)
(56.169329 5.1357836 -7.0761971e-19)
(55.925985 4.2895808 0)
(55.294449 3.4925889 0)
(55.036986 2.7103772 7.7310009e-19)
(54.536067 2.2082744 -7.213926e-19)
(54.529415 1.4073128 1.7249599e-18)
(54.205107 1.1942415 -1.7507896e-18)
(54.13328 0.067337186 2.1891217e-19)
(51.502222 0.31728843 2.3534251e-18)
(39.930013 28.575672 0)
(41.040854 28.039369 0)
(42.230833 27.50233 1.2455156e-20)
(43.48303 26.882922 -1.1870383e-20)
(44.781257 26.163888 -8.3381964e-24)
(46.108019 25.348079 -3.0542274e-20)
(47.444065 24.447702 0)
(48.771361 23.480819 2.4568229e-20)
(50.081617 22.469747 1.4450794e-20)
(51.375279 21.432241 1.6358711e-24)
(52.648442 20.375709 -3.8567407e-20)
(53.877866 19.313254 -1.8219318e-23)
(55.060293 18.260542 -6.7811413e-20)
(56.184307 17.217288 0)
(57.23225 16.165005 5.6394388e-20)
(58.075003 15.056054 3.4580304e-21)
(58.500255 13.751069 1.1551532e-19)
(58.175915 12.098522 -4.5692541e-21)
(57.32797 9.9410992 5.4267562e-21)
(56.857855 8.4527597 -3.4786524e-19)
(56.629279 7.232343 -6.0838423e-19)
(56.398371 6.2003976 5.426081e-19)
(56.109769 5.1384148 -7.0683581e-19)
(55.870805 4.2970952 3.3180214e-21)
(55.244118 3.4998654 -7.4576934e-19)
(54.990947 2.7171892 -6.7365639e-19)
(54.505112 2.2109738 -7.0494329e-19)
(54.50757 1.4086392 -7.7106563e-22)
(54.180748 1.1948386 1.4258851e-18)
(54.121328 0.063267749 1.4825075e-19)
(51.494358 0.30491375 -1.0018383e-18)
(39.291475 27.308991 1.5527933e-20)
(40.35135 26.906435 2.1513636e-20)
(41.499899 26.505486 -1.6038939e-20)
(42.725986 26.030791 1.0419532e-20)
(44.015867 25.462319 2.9862579e-20)
(45.352796 24.797387 -2.9312434e-23)
(46.717732 24.04226 -1.1537153e-23)
(48.091558 23.20826 -1.5689864e-20)
(49.460212 22.31114 -2.815982e-20)
(50.815655 21.366061 1.2532899e-20)
(52.149029 20.382548 2.2181716e-20)
(53.439885 19.372917 1.9635138e-20)
(54.678923 18.351363 2.6278352e-20)
(55.85062 17.31886 6.3535055e-20)
(56.930402 16.261904 -5.9336588e-20)
(57.782807 15.125456 1.1697645e-19)
(58.188229 13.77721 1.2551679e-19)
(57.839512 12.017409 0)
(57.044263 9.8788065 0)
(56.67636 8.4521721 6.2315766e-19)
(56.496008 7.2376326 0)
(56.288072 6.2112694 0)
(56.04903 5.141309 8.4317666e-19)
(55.799308 4.3053831 2.9561306e-21)
(55.185104 3.5074481 -2.6117649e-21)
(54.938754 2.7244043 1.109166e-21)
(54.470902 2.2139731 6.8104378e-19)
(54.48204 1.4099301 0)
(54.151946 1.1954658 -1.7517975e-18)
(54.107725 0.05851064 -1.047856e-19)
(51.483547 0.29034347 8.1425811e-19)
(38.810804 25.927254 2.0984302e-20)
(39.805067 25.651186 -2.2301319e-20)
(40.895035 25.379657 1.3565369e-20)
(42.074541 25.045249 -1.8017343e-20)
(43.332904 24.627097 0)
(44.655475 24.117248 -1.3022429e-23)
(46.024734 23.515478 0)
(47.421626 22.826078 -1.4754516e-20)
(48.828551 22.057901 1.3507483e-20)
(50.231077 21.221864 0)
(51.615135 20.327238 0)
(52.960511 19.38497 -2.3011189e-23)
(54.252113 18.406993 0)
(55.469416 17.39418 -6.5300033e-20)
(56.578877 16.337648 0)
(57.437764 15.169301 -1.2162056e-19)
(57.81263 13.779801 -1.2953539e-19)
(57.443151 11.891676 -9.2016023e-21)
(56.727819 9.8104784 3.1363499e-19)
(56.472514 8.44743 -2.7155161e-19)
(56.343669 7.2399421 -1.5520381e-20)
(56.161475 6.2204488 -1.1899596e-24)
(55.957935 5.1487817 1.1961401e-20)
(55.715557 4.3143428 -2.6184979e-21)
(55.120151 3.5153134 5.8502762e-19)
(54.881886 2.7319223 4.6208797e-19)
(54.432966 2.2172128 0)
(54.452346 1.4111546 1.308537e-18)
(54.122715 1.1957107 7.2203236e-19)
(54.091982 0.052987604 -1.0180482e-19)
(51.469465 0.27403308 -6.2173776e-19)
(38.520862 24.431605 0)
(39.44211 24.289212 3.6660973e-21)
(40.459809 24.142444 -3.7912446e-21)
(41.57262 23.940867 7.6969778e-21)
(42.774555 23.667237 -2.3043602e-20)
(44.055066 23.31001 3.0059141e-20)
(45.399752 22.863148 -4.9769265e-25)
(46.791082 22.324446 0)
(48.210178 21.695928 -2.5497268e-20)
(49.63853 20.982982 -1.1749434e-20)
(51.057499 20.19216 -5.365594e-20)
(52.445096 19.331742 3.907979e-20)
(53.780539 18.410462 0)
(55.037228 17.427524 6.6139429e-20)
(56.170192 16.3777 -5.4901727e-20)
(57.031064 15.167585 -1.5488924e-20)
(57.359021 13.743036 -1.223965e-19)
(56.973092 11.704948 0)
(56.382582 9.7385082 -2.7702937e-19)
(56.243403 8.4361343 -2.5006802e-19)
(56.169575 7.2376718 4.4065099e-19)
(56.016583 6.2269039 0)
(55.850293 5.1549919 -5.2825813e-21)
(55.618256 4.323318 4.6185621e-21)
(55.05156 3.5231379 -4.0276424e-21)
(54.821602 2.7389742 1.6414168e-21)
(54.390349 2.220547 -6.1744818e-19)
(54.418755 1.4124094 -1.2516992e-18)
(54.093582 1.1956201 7.0573498e-19)
(54.073222 0.046618682 3.7123754e-19)
(51.452867 0.25699968 4.3712255e-19)
(38.45849 22.933954 0)
(39.29556 22.890851 0)
(40.226655 22.845561 3.1577153e-21)
(41.253792 22.75717 0)
(42.375822 22.610433 -1.3264015e-20)
(43.587068 22.391915 2.6496962e-20)
(44.877246 22.09129 -1.2976294e-20)
(46.231744 21.700603 2.5010289e-20)
(47.632561 21.215174 -1.6676754e-23)
(49.059585 20.633907 2.2228162e-20)
(50.491051 19.958416 6.1917134e-20)
(51.902337 19.19254 3.8135936e-20)
(53.267099 18.340437 -3.5287404e-20)
(54.551488 17.397963 -6.59416e-20)
(55.69644 16.361509 6.2981264e-20)
(56.546454 15.109858 3.1121146e-20)
(56.814838 13.616122 1.1302045e-19)
(56.424036 11.448249 0)
(56.014949 9.6637276 0)
(55.985999 8.4152835 -3.9666996e-23)
(55.970547 7.2286079 -3.8896651e-19)
(55.851464 6.2294828 0)
(55.725843 5.159219 2.9746671e-19)
(55.508165 4.3315721 0)
(54.980537 3.530662 -4.4924507e-19)
(54.757242 2.7454495 -3.8562786e-19)
(54.342653 2.2240573 5.7013241e-19)
(54.364456 1.4138437 -3.4788833e-21)
(54.05793 1.1953266 -1.744751e-18)
(54.049716 0.03935001 -7.8869775e-19)
(51.435776 0.24056611 1.4450392e-23)
(38.618683 21.462252 1.2840655e-20)
(39.36576 21.490907 -8.3099832e-24)
(40.201308 21.523597 -1.8413153e-20)
(41.130396 21.525846 0)
(42.155805 21.483504 2.8558111e-24)
(43.276091 21.383097 -1.1598357e-20)
(44.48524 21.211844 0)
(45.77266 20.957506 1.133404e-20)
(47.123255 20.609659 -2.1900331e-20)
(48.517868 20.160712 0)
(49.933671 19.605981 -3.9250163e-20)
(51.343783 18.943122 0)
(52.716726 18.169938 0)
(54.010247 17.276931 0)
(55.148386 16.258395 -1.5600218e-20)
(55.966162 14.952902 -1.2307391e-19)
(56.156528 13.359129 -1.0942093e-19)
(55.809815 11.138367 0)
(55.627576 9.5799755 0)
(55.698205 8.3809488 2.0758806e-19)
(55.743066 7.2098548 7.3926876e-25)
(55.663918 6.226314 -3.082392e-19)
(55.582595 5.1603461 -2.6091836e-19)
(55.390231 4.3382407 -4.5533219e-19)
(54.904253 3.5377672 -2.1558508e-23)
(54.688084 2.7513399 0)
(54.287527 2.2271919 0)
(54.303648 1.41445 0)
(54.011082 1.1956139 8.7835747e-19)
(54.019836 0.031503341 7.0183582e-19)
(51.420266 0.22557177 -1.4481574e-19)
(38.983953 20.039012 2.7906219e-20)
(39.643666 20.114294 -3.4550046e-20)
(40.382803 20.201382 3.5185261e-20)
(41.207489 20.271395 4.6946567e-21)
(42.124597 20.30959 3.4464286e-20)
(43.13689 20.302672 -2.0323019e-20)
(44.242603 20.237692 0)
(45.435739 20.099875 5.1264419e-20)
(46.7054 19.874726 -6.0306226e-20)
(48.035314 19.549201 3.8853416e-20)
(49.4036 19.112125 0)
(50.782232 18.553765 3.5167858e-20)
(52.135257 17.863692 -3.3284108e-20)
(53.410593 17.024645 0)
(54.511334 16.022038 0)
(55.263331 14.628989 1.1972508e-19)
(55.355745 12.914093 1.1787779e-19)
(55.160187 10.819332 1.3739047e-20)
(55.215291 9.4794242 -1.2237707e-20)
(55.378677 8.3275787 0)
(55.483863 7.1776259 0)
(55.451157 6.2148711 5.2355544e-19)
(55.419401 5.1554346 0)
(55.260793 4.3434257 3.9821564e-19)
(54.819487 3.54456 3.4139339e-19)
(54.611091 2.7572512 2.8586267e-21)
(54.223112 2.2298612 1.5228807e-21)
(54.236534 1.4144676 -4.5964237e-19)
(53.958429 1.1966977 0)
(53.984646 0.023396976 5.0656561e-19)
(51.403908 0.20645571 0)
(39.52335 18.680348 -1.3000759e-20)
(40.091106 18.790843 2.9243078e-20)
(40.738156 18.907271 -3.3605372e-20)
(41.46134 19.01832 3.2290251e-20)
(42.267149 19.109451 -1.4040909e-23)
(43.162286 19.165921 -1.7978631e-20)
(44.149466 19.176767 -1.6025553e-23)
(45.227685 19.12691 -3.7287802e-20)
(46.390782 18.999834 -3.7033345e-20)
(47.626345 18.778502 0)
(48.914803 18.445715 -3.5045293e-20)
(50.228062 17.983708 1.6712551e-23)
(51.525953 17.372099 6.4116182e-20)
(52.744115 16.582769 1.3209156e-25)
(53.759381 15.577257 -5.9280361e-20)
(54.390816 14.038808 2.8622947e-20)
(54.451186 12.245623 -2.6991022e-20)
(54.529816 10.547918 4.8678948e-20)
(54.773646 9.3521287 -2.1426352e-20)
(55.026214 8.2485071 -1.8790783e-20)
(55.191336 7.1286216 -2.6213961e-19)
(55.210112 6.188753 -2.1430581e-19)
(55.233755 5.1412822 1.9956087e-19)
(55.101438 4.3465401 3.5323424e-19)
(54.720699 3.5506221 -3.0283291e-19)
(54.521196 2.7641322 4.984941e-25)
(54.153021 2.230951 -2.6680211e-21)
(54.16138 1.4137845 3.9959617e-19)
(53.904202 1.1972489 0)
(53.949036 0.016509778 -5.5047576e-19)
(51.398519 0.21360976 0)
(40.24874 17.337889 0)
(40.715997 17.453516 0)
(41.247277 17.595381 -6.0825758e-25)
(41.855861 17.727085 -3.5902692e-21)
(42.545343 17.844224 3.0841056e-20)
(43.31889 17.938701 -2.4416901e-20)
(44.181146 17.996841 0)
(45.133763 18.005112 0)
(46.17365 17.947188 3.4612511e-20)
(47.29151 17.803633 0)
(48.470157 17.552183 3.3357277e-20)
(49.681429 17.16713 -6.448571e-20)
(50.879695 16.616869 0)
(51.98399 15.856017 2.9735611e-20)
(52.840708 14.78574 -5.6949937e-20)
(53.312029 13.117385 2.6682464e-20)
(53.576693 11.501933 0)
(53.914021 10.323503 8.5776804e-20)
(54.311906 9.1247702 0)
(54.645585 8.1207422 1.643855e-20)
(54.864458 7.0758794 2.1465151e-19)
(54.939378 6.1272691 2.1210341e-19)
(55.022414 5.1168953 -1.7402205e-19)
(54.92399 4.3367586 -3.1267885e-19)
(54.599639 3.5536193 2.7236224e-19)
(54.406552 2.7733853 -7.1843886e-21)
(54.07694 2.2311464 3.916122e-19)
(54.078708 1.4121885 0)
(53.842693 1.1963885 1.1847966e-21)
(53.900935 0.0085814381 -4.8662751e-19)
(51.38664 0.19767682 7.1727654e-20)
(41.084075 15.877564 3.960686e-20)
(41.46678 15.982905 -8.9905875e-20)
(41.900938 16.115841 5.260911e-20)
(42.391854 16.257782 3.3913184e-21)
(42.954485 16.387045 0)
(43.596976 16.499731 -6.1928434e-20)
(44.325248 16.585339 6.4655418e-20)
(45.14106 16.630186 -6.6329625e-20)
(46.041058 16.616974 6.6957082e-20)
(47.016154 16.523651 1.662272e-20)
(48.049073 16.322856 6.5079194e-20)
(49.108724 15.980014 -6.3070085e-20)
(50.141885 15.453011 3.0225243e-20)
(51.064567 14.65962 -5.744139e-20)
(51.740771 13.478304 -5.351094e-20)
(52.208554 12.043294 4.8505249e-20)
(52.785945 10.90988 -1.2905209e-19)
(53.362745 9.8634945 -1.1313443e-19)
(53.818057 8.9237608 6.5842673e-20)
(54.23008 7.9715548 -2.8708798e-20)
(54.503379 6.9807072 -2.5015895e-20)
(54.640499 6.0519263 -1.5253065e-19)
(54.783612 5.0872625 9.4808416e-21)
(54.720417 4.3085868 -1.6514122e-20)
(54.450807 3.5497932 5.1487727e-25)
(54.267757 2.7812313 6.2608907e-21)
(53.996249 2.232641 1.1004715e-23)
(53.995102 1.4097869 -3.0361198e-19)
(53.767496 1.1937421 -2.0646135e-21)
(53.843427 0.00015082921 4.3011443e-19)
(51.37394 0.1781986 -6.8272728e-20)
(41.881128 14.251782 -4.2136627e-20)
(42.188446 14.325413 0)
(42.546167 14.426729 -1.6320141e-21)
(42.961545 14.525233 -3.5648605e-21)
(43.430395 14.62848 -6.1274071e-20)
(43.957892 14.725906 6.4982302e-20)
(44.551753 14.802639 0)
(45.217503 14.844424 6.0382221e-20)
(45.953792 14.836608 -6.9155235e-20)
(46.753905 14.754594 1.5955775e-23)
(47.605094 14.563298 6.5848877e-20)
(48.474603 14.219307 -1.3866955e-23)
(49.305985 13.684562 5.8541821e-20)
(50.027042 12.877343 5.3804245e-20)
(50.67429 11.89324 -2.6022212e-23)
(51.410645 11.057381 -4.3053158e-20)
(52.1626 10.286202 1.1324177e-19)
(52.780445 9.5298022 -3.2967896e-20)
(53.323181 8.6036817 -2.8735972e-20)
(53.794025 7.7519899 0)
(54.118881 6.8178318 -1.7449669e-19)
(54.313031 5.9679704 0)
(54.515704 5.0385314 0)
(54.493838 4.2665954 1.4382948e-20)
(54.275413 3.5344764 -2.5059055e-20)
(54.108281 2.7836436 1.090626e-20)
(53.896422 2.2312373 -2.9898874e-19)
(53.910426 1.4076712 2.6025253e-19)
(53.678848 1.1894267 0)
(53.77585 -0.009097362 0)
(51.359681 0.15510686 0)
(42.524612 12.090435 0)
(42.716049 12.159668 0)
(42.956452 12.243436 0)
(43.261615 12.322057 8.8294354e-22)
(43.64615 12.375183 -2.2517916e-21)
(44.09779 12.431108 -1.1229251e-19)
(44.607573 12.463981 1.2138621e-19)
(45.185958 12.483673 1.8567076e-20)
(45.803228 12.44832 -3.6059326e-20)
(46.448455 12.367141 1.3798071e-19)
(47.119795 12.19807 -1.2950549e-19)
(47.820578 11.914503 -2.9866529e-20)
(48.537803 11.570822 -2.7239383e-20)
(49.258896 11.112891 -4.871831e-20)
(50.053849 10.642839 4.3097231e-20)
(50.846537 10.204838 -2.8297497e-23)
(51.572158 9.635102 -6.5954655e-20)
(52.254551 8.9511143 5.7480845e-20)
(52.831228 8.230419 -1.0021806e-19)
(53.343718 7.483976 0)
(53.711639 6.6275814 1.7098508e-19)
(53.968238 5.8317123 -1.6544109e-20)
(54.222874 4.9699867 0)
(54.244366 4.205664 1.2520997e-20)
(54.072813 3.5026063 -1.8543143e-19)
(53.930552 2.7768264 3.0385619e-19)
(53.780861 2.2220063 2.6443666e-19)
(53.810386 1.4055497 0)
(53.576257 1.1844965 0)
(53.696526 -0.019668605 -1.2885825e-21)
(51.342836 0.12638046 -6.8022255e-20)
(43.493145 9.6340699 0)
(43.626602 9.7215697 2.6656428e-21)
(43.775159 9.8437803 1.7978898e-19)
(43.944648 9.9765208 -5.6554357e-21)
(44.141796 10.139206 -1.724039e-19)
(44.404101 10.269597 -1.7398758e-19)
(44.735988 10.38734 1.669406e-19)
(45.138935 10.481763 1.4754671e-19)
(45.630198 10.431449 -1.2599618e-19)
(46.153924 10.374205 1.1581965e-19)
(46.720691 10.271053 -1.2001959e-19)
(47.374384 10.091184 0)
(48.09661 9.9131163 0)
(48.869407 9.7723129 1.2879605e-19)
(49.654194 9.5909181 -1.1331761e-19)
(50.382723 9.2837314 6.592759e-20)
(51.0929 8.8486246 0)
(51.760788 8.3807283 5.0105056e-20)
(52.369111 7.7681321 -4.3224223e-23)
(52.899962 7.1348319 -3.8016288e-20)
(53.300481 6.3634981 0)
(53.60607 5.6691519 0)
(53.905621 4.873975 -1.0029368e-19)
(53.98032 4.1196719 -1.0903666e-20)
(53.846868 3.4501284 1.6132801e-19)
(53.736133 2.7560621 -2.6442519e-19)
(53.643244 2.2046758 -2.300865e-19)
(53.683715 1.4005147 0)
(53.457129 1.1777234 0)
(53.60125 -0.032017643 0)
(51.322112 0.088707563 8.5883123e-20)
(44.609905 7.3954395 -1.7275015e-21)
(44.73729 7.4603544 -4.0065171e-19)
(44.879452 7.5582353 4.3348381e-19)
(45.039578 7.6679919 -6.587358e-21)
(45.212735 7.7890994 6.2494249e-21)
(45.391297 7.9246541 5.8349031e-21)
(45.572132 8.0734388 1.0742601e-20)
(45.757596 8.2230578 0)
(45.964209 8.5170521 0)
(46.301119 8.6633015 0)
(46.715428 8.8329485 -1.3657145e-20)
(47.237148 8.9412992 -2.4130066e-20)
(47.844424 8.7120702 -8.3947731e-20)
(48.530412 8.5290607 7.3808565e-20)
(49.264287 8.4196501 3.2697779e-20)
(50.041011 8.3175695 -1.149788e-19)
(50.710959 8.0506215 4.7238024e-24)
(51.341406 7.6633199 -1.3329205e-23)
(51.943684 7.2248188 -1.5183199e-23)
(52.472095 6.7228338 -6.6190154e-20)
(52.888056 6.0567648 8.6435659e-20)
(53.237325 5.4507143 0)
(53.57354 4.7108011 8.7269047e-20)
(53.700978 4.0294691 1.8977615e-20)
(53.601827 3.3752274 1.1563446e-19)
(53.522929 2.7162902 2.301408e-19)
(53.474748 2.1788851 6.2566984e-21)
(53.543247 1.3842272 -5.4459082e-21)
(53.322934 1.1653263 0)
(53.483247 -0.04604412 -2.5121979e-19)
(51.29513 0.036790643 -4.3379642e-22)
(45.253145 6.2577694 -1.0141633e-18)
(45.347512 6.3184047 3.8406003e-21)
(45.458552 6.3926525 4.6027601e-19)
(45.59182 6.4745774 6.6851747e-21)
(45.753794 6.5634305 -1.5124205e-24)
(45.953156 6.6587105 -5.5677555e-21)
(46.19826 6.7579529 -3.3039133e-19)
(46.483408 6.855035 2.8591059e-19)
(46.748392 6.9883857 0)
(47.008258 7.1266881 0)
(47.322883 7.1438766 1.2269794e-20)
(47.538811 7.4279783 2.1557197e-20)
(47.86776 7.7444001 0)
(48.414432 7.6519489 -3.2386427e-20)
(49.006914 7.4674986 5.6142108e-20)
(49.688836 7.2683059 9.9361419e-20)
(50.374586 7.1790081 -4.9657007e-23)
(50.973151 6.9581683 -1.7235436e-23)
(51.557569 6.6249302 -1.8177592e-23)
(52.06974 6.2362087 -5.7638332e-20)
(52.491042 5.6707384 -5.0136659e-20)
(52.873314 5.1780106 0)
(53.235711 4.5209684 -5.6968887e-20)
(53.40439 3.8931099 9.9092685e-20)
(53.346465 3.2823948 -1.0059381e-19)
(53.290023 2.6544586 -2.0020078e-19)
(53.270245 2.1407199 0)
(53.366523 1.3620299 0)
(53.170702 1.1474908 4.1246282e-21)
(53.337436 -0.060254507 2.1629442e-19)
(51.238289 -0.071414424 4.7738138e-23)
(46.268108 5.1603668 4.9702224e-19)
(46.335567 5.2167291 0)
(46.412248 5.2845958 0)
(46.498907 5.359513 0)
(46.595823 5.441589 3.5706895e-19)
(46.702878 5.5305494 -6.4046264e-19)
(46.821192 5.625288 2.8530931e-19)
(46.957111 5.7248626 2.5279649e-19)
(47.126838 5.8240449 -2.8937708e-23)
(47.344597 5.9225495 -1.9614155e-19)
(47.629445 6.0638099 0)
(48.022121 6.1133702 1.8812973e-20)
(48.361435 6.1274486 0)
(48.606318 6.457652 2.8526253e-20)
(48.968696 6.7210463 -2.4663935e-20)
(49.472049 6.4236656 0)
(50.036361 6.2440302 3.7619805e-20)
(50.631893 6.1233115 6.6028425e-20)
(51.214754 5.956721 5.7575631e-20)
(51.709352 5.6784361 -1.5835111e-23)
(52.122312 5.2473687 -4.3628326e-20)
(52.525163 4.8487829 1.5188809e-19)
(52.896288 4.2956913 -2.0590199e-23)
(53.102706 3.7159289 -1.7240214e-19)
(53.079214 3.1532837 5.0017487e-20)
(53.050137 2.567126 -2.1775076e-20)
(53.040472 2.0820581 -9.4720315e-21)
(53.176798 1.3298959 8.2448928e-21)
(53.001912 1.1228279 -3.5883822e-21)
(53.171741 -0.065436999 3.025682e-21)
(51.220009 -0.012999403 0)
(46.893957 4.3022617 -8.8685641e-19)
(46.947398 4.3469108 0)
(47.010509 4.4002324 7.6632332e-19)
(47.085436 4.4591985 -1.3956123e-18)
(47.175103 4.5246336 6.2435503e-19)
(47.282962 4.5974787 0)
(47.412265 4.678446 7.8156972e-21)
(47.5645 4.7679947 -4.4238009e-19)
(47.737546 4.8664281 7.7947006e-19)
(47.926876 4.9731824 -6.9534894e-19)
(48.122496 5.0725112 3.0000238e-19)
(48.320306 5.1710818 -2.5071246e-24)
(48.592337 5.2826531 0)
(48.938838 5.3026746 -1.74004e-19)
(49.201626 5.3167399 3.486533e-19)
(49.45668 5.7282365 -1.6870458e-19)
(49.888413 5.4949571 0)
(50.363057 5.2969784 -8.5530604e-20)
(50.889931 5.2074182 5.0025198e-20)
(51.382496 5.0687371 4.3630297e-20)
(51.811088 4.7535306 -8.2579952e-24)
(52.196891 4.4682065 -9.9103457e-20)
(52.568688 3.9796786 2.8741845e-20)
(52.804752 3.5130122 2.5002787e-20)
(52.799229 2.9970817 -8.7033835e-20)
(52.79944 2.4558236 0)
(52.81183 2.0082538 0)
(52.973244 1.2783858 0)
(52.813407 1.0900925 -1.9981602e-19)
(53.018702 -0.058207539 0)
(51.20653 0.088956485 0)
(47.770451 3.4886699 7.9280001e-19)
(47.807069 3.5270236 -1.4783233e-18)
(47.848795 3.5725251 6.7816373e-19)
(47.895992 3.6228285 6.1760356e-19)
(47.948844 3.6784909 -5.5302216e-19)
(48.007598 3.739998 0)
(48.07297 3.8074448 -6.8423483e-21)
(48.146698 3.8804457 0)
(48.23292 3.958253 0)
(48.339493 4.0395424 3.0792008e-19)
(48.480022 4.1251512 -5.2293784e-19)
(48.667793 4.2181272 2.1430064e-19)
(48.882016 4.2804274 -1.2472629e-20)
(49.092719 4.4150151 -2.1762641e-20)
(49.40251 4.4427931 0)
(49.689768 4.2899587 1.6525547e-20)
(49.894523 4.8199754 0)
(50.250692 4.5986677 0)
(50.656663 4.460319 0)
(51.074078 4.3241916 -1.5123133e-19)
(51.542715 4.2129176 1.3213373e-19)
(51.919612 4.0222445 0)
(52.252946 3.6456983 5.0020945e-20)
(52.496245 3.2330373 -2.1747993e-20)
(52.517755 2.8130133 9.4635772e-20)
(52.540401 2.3194082 0)
(52.586092 1.9095272 1.433529e-20)
(52.754486 1.2130749 -1.248101e-20)
(52.607474 1.043336 1.737969e-19)
(52.807301 -0.049107057 0)
(51.160506 -0.088193226 5.517533e-21)
(48.302682 2.8176352 1.4063416e-18)
(48.33155 2.8480045 -1.2995662e-18)
(48.365598 2.8839454 -1.1910225e-18)
(48.405936 2.9237466 1.0760434e-18)
(48.454138 2.9682569 9.6759419e-19)
(48.512272 3.0183639 -8.5901993e-19)
(48.582612 3.0746849 -5.9703891e-21)
(48.667061 3.1377941 5.2684164e-21)
(48.766328 3.2081852 -2.9655524e-19)
(48.878826 3.2860844 2.601458e-19)
(48.999157 3.370891 0)
(49.119365 3.4578565 -1.9903226e-19)
(49.246198 3.5580835 1.737645e-19)
(49.401356 3.637571 -9.4703417e-21)
(49.568427 3.705035 0)
(49.785498 3.9293201 0)
(50.070837 3.5947152 1.0016895e-19)
(50.260521 3.9856812 -8.6336817e-20)
(50.558997 3.8631142 5.5900005e-20)
(50.877659 3.6957942 -2.1390628e-23)
(51.280309 3.580065 -5.7331302e-20)
(51.681037 3.5179579 -5.0004957e-20)
(51.962529 3.2561271 9.5587214e-24)
(52.175667 2.9051479 3.7860442e-20)
(52.235373 2.5822102 -4.4679685e-24)
(52.279399 2.1422235 -2.8673396e-20)
(52.357723 1.77716 -1.2475222e-20)
(52.522287 1.143748 2.1716112e-20)
(52.39343 0.97801037 -9.4511757e-21)
(52.530261 -0.032329136 1.357779e-19)
(51.144552 0.10031516 -2.3405876e-20)
(49.061202 2.1747492 -2.4794209e-18)
(49.080725 2.2003534 2.2857759e-18)
(49.103053 2.2301794 -1.0447076e-18)
(49.128465 2.2628915 0)
(49.15707 2.2993335 -3.3051522e-21)
(49.188667 2.3401905 -2.9431548e-21)
(49.223021 2.3857925 7.8175419e-21)
(49.260486 2.4361652 -4.596047e-21)
(49.302454 2.4912587 0)
(49.352205 2.5508706 4.5325817e-19)
(49.416013 2.6146366 -2.6596224e-23)
(49.502239 2.6831728 -6.9851904e-19)
(49.612059 2.7539633 3.119257e-19)
(49.734804 2.8282858 8.242979e-21)
(49.878882 2.9331079 -1.4364496e-20)
(50.040266 2.8959376 -1.2512303e-20)
(50.190098 3.1497273 0)
(50.433353 2.9939285 -1.8966002e-20)
(50.580948 3.312542 -9.8104212e-20)
(50.815857 3.2070521 1.7090051e-19)
(51.114685 3.0977543 -2.4945055e-20)
(51.432489 2.9520394 2.1735876e-20)
(51.723501 2.8021704 -3.7861038e-20)
(51.884069 2.520784 0)
(51.956101 2.2913662 0)
(52.03027 1.9365281 2.4943699e-20)
(52.125583 1.622565 -4.3418296e-20)
(52.288719 1.0591105 2.8339741e-20)
(52.180737 0.90828954 -1.0288014e-24)
(52.327932 -0.037024425 -1.2168859e-19)
(51.10264 -0.11170038 4.3363853e-21)
(49.517951 1.6462246 0)
(49.531688 1.6655351 0)
(49.548149 1.6877625 1.7827348e-21)
(49.567872 1.7121882 0)
(49.591616 1.7397147 7.4083626e-19)
(49.62045 1.7710345 -1.3130732e-18)
(49.655846 1.8067749 5.7661425e-19)
(49.700173 1.8470697 4.0022885e-21)
(49.754668 1.8922379 4.4666393e-19)
(49.818102 1.9430484 -1.7556689e-23)
(49.887484 1.9994853 5.3759883e-21)
(49.957772 2.0611488 4.6952808e-21)
(50.026357 2.1273511 -2.7146672e-19)
(50.099325 2.1979909 7.1720988e-21)
(50.176891 2.2490652 1.2502028e-20)
(50.274574 2.3766782 1.7420133e-19)
(50.40924 2.3276158 -1.516338e-19)
(50.517163 2.5260459 -1.1552567e-19)
(50.715879 2.3104861 1.0048864e-19)
(50.872132 2.4735643 -4.9620092e-20)
(51.060421 2.555253 8.7011753e-20)
(51.253493 2.3358874 -1.7022117e-19)
(51.550619 2.3134469 6.5881252e-20)
(51.676238 2.1065877 0)
(51.703381 1.9324104 0)
(51.803836 1.6924987 0)
(51.909724 1.4312547 1.8886055e-20)
(52.074651 0.96247336 -1.643844e-20)
(51.978698 0.83815376 -5.7230946e-20)
(52.063668 0.0080926503 -1.0277125e-19)
(51.05695 -0.11102194 -5.813867e-21)
(50.139627 1.1812085 0)
(50.147131 1.1968565 -8.5356644e-22)
(50.155606 1.2147976 1.5925615e-18)
(50.165142 1.234546 -2.8751886e-18)
(50.175803 1.2566527 1.2867146e-18)
(50.187502 1.2814172 1.1442933e-18)
(50.199787 1.3087967 -2.0231737e-18)
(50.211189 1.3390332 -3.4657251e-21)
(50.220987 1.3719994 7.8401787e-19)
(50.230242 1.4070141 0)
(50.241629 1.4439084 -4.6961727e-21)
(50.260765 1.482376 -4.1016396e-21)
(50.292759 1.5224054 7.1593525e-21)
(50.338356 1.5631803 -6.2422334e-21)
(50.399666 1.6184508 0)
(50.466421 1.6256374 -2.9368914e-19)
(50.530086 1.7550838 2.6398594e-19)
(50.666511 1.6584405 -2.2976987e-19)
(50.776636 1.8660838 1.9999748e-19)
(50.938037 1.8398233 2.1465136e-20)
(51.040529 1.7982202 0)
(51.166554 1.8104696 0)
(51.413422 1.7947885 2.8659601e-20)
(51.538794 1.6960231 -2.4932314e-20)
(51.519484 1.5689096 0)
(51.59888 1.3850987 0)
(51.722259 1.2169501 3.2865483e-20)
(51.86925 0.83615123 -2.8606514e-20)
(51.800818 0.74130693 9.9590252e-20)
(51.900315 0.088421343 8.6700066e-20)
(51.035313 0.40984431 0)
(50.466655 0.83555826 1.6613444e-18)
(50.470058 0.84591791 -1.5206564e-18)
(50.474196 0.85798652 -1.3894361e-18)
(50.479083 0.8712605 1.2525463e-18)
(50.484841 0.88627369 1.1207156e-18)
(50.491667 0.90341574 -9.9640748e-19)
(50.499908 0.9229879 0)
(50.510142 0.94534277 7.7668235e-19)
(50.523147 0.97109491 -6.82337e-19)
(50.540228 1.0007963 0)
(50.561836 1.0352454 -2.043164e-21)
(50.587235 1.0743266 3.5698406e-21)
(50.612298 1.117697 -3.9869324e-19)
(50.632723 1.1660986 1.4543143e-23)
(50.652921 1.2086875 2.9818311e-19)
(50.690149 1.2784033 -2.6381699e-19)
(50.752914 1.2822569 2.2971669e-19)
(50.809534 1.4314452 -6.2484862e-21)
(50.911728 1.3391769 0)
(50.93128 1.4822533 9.4101126e-21)
(50.981431 1.4908847 0)
(51.038124 1.3329251 -1.424695e-20)
(51.265163 1.387837 1.2446674e-20)
(51.420639 1.2950648 4.3393229e-20)
(51.394957 1.214338 -1.8877175e-20)
(51.434662 1.0748103 -3.2860765e-20)
(51.545634 0.96371758 3.7212453e-24)
(51.663853 0.69586474 2.4891063e-20)
(51.630025 0.60898916 -6.4995835e-20)
(51.72107 0.10593784 0)
(51.026486 0.33320814 0)
(50.877748 0.57172682 2.9011919e-18)
(50.880248 0.57947252 -2.650785e-18)
(50.88304 0.58819977 2.4182184e-18)
(50.886028 0.59766704 -2.1794329e-18)
(50.889098 0.60833521 -1.9500866e-18)
(50.89208 0.62044812 1.7342679e-18)
(50.894783 0.63410246 -1.5331149e-18)
(50.897045 0.64934006 1.3520312e-18)
(50.898722 0.66606259 3.4759587e-21)
(50.899261 0.68432992 0)
(50.898345 0.70329431 4.5576469e-19)
(50.895865 0.72309438 -3.9698511e-19)
(50.895418 0.74319245 0)
(50.902776 0.76435241 3.0186969e-19)
(50.920813 0.79270011 -2.592019e-19)
(50.940273 0.81721489 0)
(50.961859 0.87629317 0)
(50.989064 0.86893517 5.1086554e-25)
(50.999156 0.97584035 0)
(51.029865 0.89729719 -8.2337437e-21)
(50.986508 1.0703553 0)
(50.947429 1.0113036 1.2406707e-20)
(51.083156 0.92691846 -2.1556236e-20)
(51.248387 0.91578833 -2.8242206e-20)
(51.22888 0.83241726 1.6380979e-20)
(51.273478 0.78357211 2.8557719e-20)