/*--------------------------------*- C++ -*----------------------------------*\
| =========                 |                                                 |
| \\      /  F ield         | OpenFOAM: The Open Source CFD Toolbox           |
|  \\    /   O peration     | Version:  2406                                  |
|   \\  /    A nd           | Website:  www.openfoam.com                      |
|    \\/     M anipulation  |                                                 |
\*---------------------------------------------------------------------------*/
FoamFile
{
    version     2.0;
    format      ascii;
    arch        "LSB;label=32;scalar=64";
    class       volScalarField;
    location    "0.043";
    object      T;
}
// * * * * * * * * * * * * * * * * * * * * * * * * * * * * * * * * * * * * * //

dimensions      [0 0 0 1 0 0 0];

internalField   nonuniform List<scalar> 
8260
(
292.77325
292.77446
292.77663
292.78417
292.79566
292.80928
292.82337
292.83637
292.84657
292.85265
292.85346
292.84809
292.83622
292.81835
292.79713
292.77973
292.80084
292.8725
292.92033
292.94485
292.96265
292.97691
292.98939
292.99978
293.0081
293.01562
293.02234
293.02763
293.03193
293.03448
293.03609
292.83926
292.83406
292.83171
292.83361
292.83844
292.84521
292.85286
292.86005
292.86532
292.86726
292.86477
292.8568
292.84294
292.82352
292.80199
292.78622
292.81222
292.88378
292.92675
292.94908
292.96589
292.97947
292.99145
293.00138
293.00938
293.01666
293.02319
293.02834
293.03253
293.03501
293.03657
292.9101
292.90027
292.89271
292.88851
292.88665
292.88655
292.88751
292.88846
292.88817
292.8855
292.8791
292.86796
292.85162
292.83027
292.80807
292.79394
292.8259
292.89579
292.93343
292.95368
292.96946
292.98232
292.99378
293.00321
293.01084
293.01784
293.02417
293.02915
293.03323
293.03562
293.03713
292.98236
292.96856
292.95619
292.94632
292.93829
292.93173
292.9262
292.92094
292.91491
292.90711
292.89632
292.88157
292.86232
292.83873
292.81567
292.80365
292.84245
292.90893
292.94089
292.95898
292.97362
292.98564
292.99647
293.00533
293.01254
293.01922
293.0253
293.03008
293.03402
293.03631
293.03776
293.05407
293.03703
293.02066
293.00589
292.99235
292.97985
292.96816
292.9568
292.94498
292.93181
292.9163
292.89754
292.87502
292.84897
292.82507
292.81654
292.86245
292.92308
292.94921
292.96502
292.97834
292.98942
292.99954
293.00775
293.01447
293.02078
293.02658
293.03114
293.03492
293.03711
293.03849
293.12413
293.10479
293.08534
293.06654
293.04825
293.03043
293.01305
292.99584
292.97826
292.95964
292.93917
292.91609
292.88994
292.86129
292.83681
292.83382
292.88622
292.93811
292.95847
292.97186
292.98372
292.99373
293.00303
293.01049
293.01667
293.02257
293.02804
293.03235
293.03594
293.03801
293.03931
293.19141
293.17062
293.14904
293.12716
293.10501
293.08269
293.06026
293.03765
293.01457
292.99056
292.96503
292.9374
292.90737
292.87613
292.85184
292.85706
292.91347
292.95394
292.96876
292.97961
292.98981
292.99864
293.00699
293.01361
293.01917
293.0246
293.0297
293.03372
293.03711
293.03903
293.04024
293.25453
293.23303
293.21014
293.18619
293.16122
293.13536
293.10875
293.08144
293.05335
293.02425
292.99377
292.96156
292.92754
292.89414
292.87177
292.88823
292.94326
292.97054
292.98022
292.98839
292.99667
293.00424
293.01149
293.01715
293.02201
293.02691
293.03159
293.03529
293.03843
293.0402
293.0413
293.31207
293.29059
293.26721
293.24212
293.21533
293.18697
293.15717
293.12606
293.09372
293.06009
293.02507
292.98852
292.95075
292.91632
292.89922
292.92881
292.97351
292.98793
292.993
292.99832
293.00436
293.01061
293.0166
293.02119
293.02523
293.02955
293.03375
293.03708
293.03993
293.04153
293.04251
293.36294
293.3419
293.31873
293.29333
293.26564
293.23577
293.20384
293.17001
293.13441
293.09715
293.05832
293.01811
292.97758
292.94439
292.93919
292.97673
293.00234
293.00629
293.00726
293.0095
293.013
293.01781
293.02239
293.02578
293.02892
293.03255
293.0362
293.03912
293.04163
293.04304
293.04387
293.40618
293.38564
293.36287
293.33769
293.31
293.27971
293.24686
293.21155
293.17393
293.13421
293.0927
293.05014
293.00948
292.98398
292.99654
293.02385
293.02941
293.02583
293.02291
293.02183
293.02289
293.02587
293.02893
293.03098
293.03314
293.03597
293.03899
293.04145
293.04358
293.04476
293.04542
293.4399
293.42054
293.39875
293.37441
293.34732
293.31739
293.28459
293.24897
293.21068
293.17002
293.12775
293.08632
293.05312
293.04536
293.06077
293.06392
293.05537
293.04674
293.03984
293.03559
293.03393
293.03494
293.03621
293.03683
293.03795
293.03987
293.04214
293.0441
293.0458
293.04673
293.04718
293.46226
293.44399
293.42342
293.40055
293.37504
293.34669
293.31538
293.2812
293.2445
293.2061
293.16794
293.13567
293.12018
293.12094
293.11342
293.09667
293.08173
293.06851
293.05815
293.05071
293.04628
293.04505
293.04428
293.04333
293.04341
293.04429
293.04574
293.04709
293.04833
293.04898
293.04921
293.47318
293.45727
293.43956
293.41975
293.39739
293.37209
293.34392
293.3136
293.28236
293.2522
293.22628
293.20783
293.19492
293.17586
293.15064
293.12736
293.10759
293.09115
293.07759
293.06704
293.05973
293.05626
293.05319
293.05057
293.04945
293.04929
293.04983
293.05048
293.05121
293.05153
293.05155
293.48826
293.47393
293.4572
293.43821
293.41789
293.39734
293.37635
293.35445
293.33212
293.31024
293.28905
293.26675
293.23935
293.20979
293.18155
293.15517
293.13295
293.11385
293.09764
293.08429
293.07444
293.06849
293.06297
293.05853
293.05614
293.05492
293.05447
293.05432
293.05445
293.05442
293.05424
293.49277
293.48566
293.47818
293.46977
293.45858
293.44299
293.42325
293.3997
293.37462
293.34977
293.32367
293.2947
293.26462
293.23664
293.20847
293.18055
293.15625
293.13599
293.11785
293.10213
293.08986
293.08162
293.07364
293.06737
293.0636
293.0612
293.05969
293.05863
293.05809
293.05765
293.05734
293.47078
293.46258
293.4534
293.44352
293.43314
293.42271
293.41316
293.40518
293.39347
293.37184
293.34326
293.31513
293.28787
293.25937
293.23122
293.20354
293.17792
293.15661
293.13749
293.11989
293.10579
293.09528
293.08505
293.0772
293.07188
293.06809
293.0655
293.06343
293.06214
293.06126
293.06087
293.45773
293.45247
293.4464
293.43905
293.4302
293.41948
293.40605
293.38979
293.37369
293.361
293.34917
293.32892
293.30359
293.27719
293.25087
293.2249
293.19844
293.17561
293.15586
293.13708
293.12153
293.10903
293.09703
293.08781
293.08092
293.07556
293.07176
293.06872
293.06662
293.06525
293.06484
293.42864
293.4238
293.41832
293.41215
293.40527
293.39772
293.38958
293.3807
293.37013
293.35627
293.34035
293.32832
293.31444
293.28967
293.26517
293.24259
293.2179
293.19386
293.17294
293.15341
293.13681
293.12226
293.10894
293.09875
293.09051
293.08347
293.07842
293.07448
293.07157
293.06967
293.06924
293.40978
293.4066
293.40292
293.39859
293.39343
293.38724
293.37978
293.37087
293.36075
293.34998
293.33808
293.32211
293.30618
293.2958
293.27589
293.25488
293.23328
293.21063
293.18888
293.16902
293.15116
293.13461
293.12061
293.10937
293.10022
293.09193
293.08556
293.08069
293.077
293.07458
293.07408
293.38245
293.37953
293.37622
293.37242
293.36811
293.36322
293.35776
293.35169
293.34475
293.3365
293.32693
293.31734
293.30598
293.29197
293.28168
293.2628
293.24345
293.2237
293.20303
293.1834
293.16443
293.14637
293.13229
293.11994
293.11002
293.10089
293.09326
293.0874
293.08295
293.08002
293.07933
293.36359
293.36176
293.35963
293.35712
293.35413
293.35055
293.34625
293.34109
293.33496
293.32787
293.31968
293.30967
293.2985
293.2868
293.27287
293.26384
293.25197
293.23292
293.21338
293.19559
293.17686
293.1585
293.14439
293.13134
293.12018
293.11019
293.10151
293.0947
293.08944
293.08599
293.08496
293.33727
293.3355
293.33347
293.33113
293.32844
293.32539
293.32193
293.31806
293.31371
293.30877
293.30318
293.29707
293.29003
293.28152
293.27318
293.26154
293.24913
293.23615
293.21826
293.2038
293.18807
293.17134
293.15621
293.14306
293.13068
293.11956
293.11006
293.10245
293.0964
293.09246
293.09097
293.31973
293.31873
293.31755
293.31615
293.31447
293.31244
293.30998
293.30698
293.30335
293.29898
293.29372
293.28738
293.28008
293.27209
293.26238
293.25333
293.2437
293.23404
293.22591
293.21047
293.19535
293.18053
293.16525
293.15274
293.14036
293.12845
293.11841
293.11037
293.10381
293.09936
293.09736
293.29621
293.29513
293.2939
293.29248
293.29086
293.28902
293.28695
293.28465
293.28211
293.27934
293.27637
293.27316
293.26947
293.26494
293.25978
293.25201
293.24291
293.23574
293.22513
293.21092
293.198
293.18532
293.1716
293.1592
293.14789
293.1367
293.12658
293.11837
293.11155
293.10665
293.10416
293.2824
293.28187
293.28122
293.2804
293.27941
293.27822
293.27679
293.27509
293.27309
293.27072
293.26796
293.26473
293.26098
293.25651
293.25087
293.24519
293.23875
293.22988
293.22221
293.21368
293.20119
293.19003
293.17913
293.16612
293.15477
293.14502
293.13514
293.12652
293.11957
293.1143
293.11138
293.26033
293.25981
293.25924
293.25859
293.25785
293.257
293.256
293.25482
293.25342
293.25175
293.24975
293.24739
293.24464
293.24162
293.2383
293.23399
293.22891
293.22354
293.21637
293.21159
293.20626
293.19573
293.18556
293.17422
293.16336
293.15355
293.14393
293.13499
293.1278
293.12225
293.11896
293.24844
293.24826
293.24803
293.24772
293.24732
293.2468
293.24614
293.2453
293.24424
293.2429
293.24122
293.23907
293.23638
293.23324
293.22994
293.22664
293.22312
293.21918
293.21603
293.21121
293.20632
293.20123
293.19141
293.18034
293.17
293.16081
293.15196
293.14333
293.13592
293.13031
293.1268
293.23496
293.23466
293.23432
293.23393
293.23348
293.23298
293.23242
293.23178
293.23107
293.23027
293.22942
293.22855
293.22773
293.22684
293.22544
293.22347
293.22096
293.2177
293.21312
293.20763
293.20099
293.19511
293.1905
293.18412
293.17531
293.16679
293.15862
293.15083
293.14375
293.13824
293.13471
293.2291
293.22894
293.22873
293.22849
293.2282
293.22784
293.22742
293.22691
293.2263
293.22556
293.22464
293.22349
293.22203
293.22034
293.21843
293.21629
293.21376
293.21081
293.20746
293.20378
293.19983
293.19446
293.18806
293.18369
293.17866
293.17138
293.16396
293.15677
293.15018
293.14488
293.14155
293.22084
293.22068
293.22049
293.22027
293.22001
293.2197
293.21934
293.21891
293.21841
293.21783
293.21715
293.21637
293.21543
293.21421
293.21277
293.21101
293.209
293.20682
293.2043
293.20129
293.19775
293.19412
293.19034
293.18536
293.17969
293.17371
293.16714
293.16059
293.15452
293.14952
293.14635
293.86097
293.74024
293.61709
293.50367
293.40561
293.31908
293.24063
293.16977
293.10435
293.04544
292.99277
292.94577
292.9032
292.86362
292.82532
292.78561
292.74606
292.71661
292.73186
292.79913
292.8588
292.89607
292.92321
292.94542
292.96376
292.97889
292.99125
293.00101
293.00853
293.01343
293.01662
293.69247
293.58115
293.48849
293.40657
293.32947
293.25586
293.18651
293.1226
293.06373
293.01102
292.96412
292.92215
292.88372
292.84749
292.81169
292.77432
292.73683
292.71406
292.73819
292.8098
292.86589
292.90047
292.92646
292.94802
292.96584
292.98056
292.99263
293.00216
293.00953
293.01432
293.01725
293.62898
293.53263
293.44449
293.361
293.28197
293.20893
293.14248
293.08263
293.02911
292.98175
292.93976
292.90202
292.86707
292.83364
292.79984
292.76461
292.72911
292.71292
292.74548
292.81961
292.87187
292.9043
292.92942
292.95043
292.96777
292.98211
292.99392
293.00325
293.01047
293.01516
293.01802
293.55842
293.46479
293.37923
293.29962
293.22593
293.15878
293.09844
293.04467
292.99708
292.95513
292.91787
292.88409
292.85232
292.82139
292.7893
292.75607
292.72315
292.71277
292.75368
292.82921
292.87766
292.90818
292.93248
292.95291
292.96974
292.98371
292.99524
293.00436
293.01143
293.01601
293.01878
293.47889
293.39062
293.31113
293.23769
293.17033
293.1097
293.05589
293.00851
292.96694
292.93037
292.89771
292.8677
292.83893
292.8103
292.77981
292.74849
292.71899
292.71366
292.76329
292.83847
292.88307
292.91197
292.93549
292.95536
292.9717
292.98529
292.99656
293.00547
293.01239
293.01686
293.01958
293.38838
293.31014
293.23901
293.17334
293.11382
293.06096
293.01456
292.97406
292.93867
292.90744
292.87923
292.85279
292.82682
292.80032
292.77142
292.74199
292.71624
292.71562
292.77407
292.84722
292.8882
292.91571
292.9385
292.95781
292.97366
292.98688
292.99788
293.00658
293.01336
293.01773
293.02038
293.29288
293.22527
293.16361
293.10741
293.0573
293.01327
292.97493
292.9416
292.91242
292.88641
292.86245
292.83938
292.81602
292.79148
292.76419
292.73656
292.71414
292.71879
292.78564
292.85537
292.89306
292.91938
292.94149
292.96024
292.97561
292.98847
292.99921
293.00771
293.01433
293.01859
293.02118
293.18877
293.13453
293.08529
293.0409
293.0016
292.96721
292.93733
292.9113
292.88827
292.86731
292.84739
292.82746
292.80652
292.78373
292.75802
292.73219
292.7125
292.72372
292.79753
292.86287
292.89774
292.92302
292.94445
292.96266
292.97755
292.99006
293.00054
293.00883
293.01531
293.01946
293.02198
293.07971
293.0416
293.00701
292.97569
292.9478
292.9234
292.90212
292.88333
292.86628
292.85014
292.83403
292.81703
292.7983
292.77697
292.75286
292.72882
292.71166
292.73055
292.80919
292.86978
292.90226
292.9266
292.94739
292.96505
292.97948
292.99164
293.00187
293.00996
293.01629
293.02033
293.02279
292.97208
292.95074
292.93126
292.91308
292.89671
292.88238
292.86961
292.85785
292.84652
292.83494
292.82237
292.80808
292.79133
292.77129
292.7488
292.72634
292.71182
292.73898
292.82026
292.87616
292.90666
292.93015
292.95029
292.96743
292.98139
292.99322
293.0032
293.01109
293.01728
293.02121
293.02361
292.86887
292.86437
292.85927
292.85408
292.84919
292.84469
292.84005
292.83499
292.82905
292.82172
292.81243
292.8006
292.78555
292.76682
292.74599
292.72476
292.71307
292.74827
292.83059
292.88211
292.91095
292.93364
292.95317
292.96978
292.9833
292.99479
293.00453
293.01222
293.01826
293.02209
293.02442
292.77216
292.78345
292.79264
292.80022
292.80629
292.81077
292.81368
292.81486
292.81392
292.8105
292.80417
292.79454
292.78104
292.76382
292.74424
292.72405
292.71532
292.75821
292.84023
292.8877
292.91515
292.93709
292.95602
292.9721
292.98519
292.99636
293.00585
293.01335
293.01925
293.02297
293.02524
292.68565
292.71114
292.73329
292.7523
292.76822
292.78105
292.79083
292.79754
292.80112
292.80122
292.79756
292.78993
292.77807
292.76224
292.74313
292.72421
292.71848
292.76858
292.84917
292.893
292.91926
292.94049
292.95883
292.9744
292.98706
292.99791
293.00717
293.01448
293.02024
293.02385
293.02606
292.6133
292.64988
292.68264
292.71126
292.73561
292.75568
292.7715
292.78314
292.7907
292.79395
292.79277
292.78697
292.77659
292.76173
292.74295
292.7251
292.72247
292.77914
292.8574
292.89806
292.9233
292.94384
292.9616
292.97667
292.98892
292.99946
293.00848
293.0156
293.02122
293.02474
293.02688
292.55839
292.60273
292.64285
292.67848
292.70934
292.73525
292.75614
292.77221
292.78333
292.78933
292.79034
292.78587
292.77627
292.76201
292.74371
292.72654
292.72736
292.78961
292.86497
292.90293
292.92725
292.94714
292.96434
292.97891
292.99076
293.00099
293.00979
293.01672
293.02221
293.02563
293.02771
292.51848
292.56976
292.61505
292.65528
292.69066
292.72093
292.74579
292.76546
292.77954
292.78745
292.78938
292.78581
292.77698
292.7632
292.74535
292.7288
292.73317
292.79976
292.87192
292.90763
292.93112
292.95038
292.96703
292.98112
292.99258
293.00252
293.01109
293.01784
293.02319
293.02651
293.02854
292.47937
292.53987
292.59273
292.63866
292.67835
292.71222
292.74031
292.762
292.77726
292.78662
292.78979
292.78706
292.77878
292.76541
292.74788
292.73207
292.73982
292.80947
292.87845
292.91222
292.93493
292.95357
292.9697
292.98331
292.9944
293.00404
293.01239
293.01896
293.02418
293.0274
293.02937
292.45503
292.51559
292.57204
292.62272
292.66689
292.70442
292.73534
292.7594
292.77667
292.78751
292.79179
292.78973
292.78179
292.76868
292.75132
292.73611
292.74715
292.81874
292.88461
292.91669
292.93867
292.95671
292.97232
292.98549
292.99619
293.00554
293.01368
293.02007
293.02517
293.02829
293.0302
292.45944
292.51442
292.56758
292.61731
292.66219
292.70125
292.73394
292.7597
292.77843
292.79042
292.79549
292.79385
292.78603
292.773
292.75565
292.74084
292.75486
292.82754
292.89043
292.92106
292.94235
292.95981
292.97492
292.98763
292.99797
293.00704
293.01495
293.02117
293.02615
293.02918
293.03104
292.47733
292.52766
292.57662
292.62315
292.66611
292.70447
292.73726
292.7635
292.78285
292.79543
292.80094
292.79945
292.79155
292.77836
292.76087
292.74623
292.76273
292.8359
292.89598
292.92533
292.94596
292.96285
292.97747
292.98975
292.99973
293.00852
293.01622
293.02227
293.02712
293.03006
293.03187
292.50742
292.55186
292.5958
292.6381
292.67776
292.71386
292.7452
292.77081
292.79002
292.80257
292.80812
292.80654
292.79832
292.78476
292.76695
292.75226
292.77065
292.84387
292.90128
292.92948
292.94949
292.96581
292.97996
292.99183
293.00145
293.00997
293.01747
293.02336
293.02809
293.03095
293.03271
292.5496
292.58617
292.62357
292.6605
292.69586
292.72842
292.75717
292.78134
292.79974
292.8117
292.81691
292.81499
292.80629
292.79211
292.77382
292.75888
292.77851
292.85148
292.9063
292.93346
292.95288
292.96867
292.98237
292.99385
293.00314
293.0114
293.0187
293.02443
293.02906
293.03183
293.03355
292.60368
292.62968
292.65806
292.68801
292.71789
292.74632
292.77217
292.7942
292.81129
292.82237
292.82697
292.82456
292.81526
292.8003
292.78137
292.76592
292.78617
292.85852
292.91092
292.9372
292.9561
292.97139
292.9847
292.99582
293.00479
293.0128
293.01991
293.02551
293.03002
293.03272
293.0344
292.67476
292.68883
292.70474
292.72441
292.74662
292.76947
292.79123
292.8103
292.82525
292.83506
292.83871
292.83555
292.82548
292.80946
292.78959
292.77301
292.79293
292.86462
292.91511
292.94076
292.95922
292.97406
292.987
292.99778
293.00644
293.01422
293.02115
293.0266
293.03101
293.03364
293.03528
293.86018
293.75955
293.64018
293.52588
293.42495
293.33712
293.25831
293.1855
293.11963
293.0599
293.00596
292.95743
292.91333
292.87236
292.83299
292.79252
292.75226
292.72019
292.72994
292.79387
292.85527
292.89366
292.92134
292.94389
292.96252
292.97789
292.99043
293.00032
293.00794
293.01292
293.01614
293.83781
293.73706
293.62278
293.51557
293.4201
293.33596
293.26033
293.19046
293.12639
293.06762
293.01387
292.96496
292.92014
292.8783
292.83806
292.79691
292.756
292.72284
292.72887
292.79065
292.85321
292.89217
292.92009
292.94279
292.96157
292.97708
292.98972
292.9997
293.00738
293.01241
293.01556
293.81682
293.72136
293.61161
293.50981
293.41915
293.33838
293.26522
293.19737
293.1345
293.07632
293.0226
292.9732
292.9276
292.88483
292.84362
292.8017
292.75998
292.72542
292.72765
292.78676
292.85072
292.89043
292.91866
292.94155
292.9605
292.97617
292.98892
292.999
293.00675
293.01184
293.01499
293.79798
293.71015
293.60465
293.50669
293.41927
293.34106
293.26995
293.20374
293.14203
293.08459
293.03109
292.98142
292.9352
292.8916
292.84949
292.80688
292.76437
292.72829
292.72682
292.78265
292.84789
292.88843
292.91703
292.94015
292.9593
292.97515
292.98804
292.99823
293.00607
293.01122
293.01426
293.7796
293.69967
293.59857
293.504
293.41922
293.3433
293.27412
293.20956
293.14916
293.0926
293.03951
292.98975
292.94305
292.89873
292.85578
292.81254
292.76926
292.73153
292.72643
292.77848
292.84488
292.8863
292.91529
292.93864
292.95801
292.97404
292.98708
292.9974
293.00533
293.01056
293.01374
293.75986
293.68901
293.59267
293.50103
293.41894
293.34528
293.27802
293.21516
293.15613
293.10054
293.04798
292.99827
292.95121
292.90626
292.86254
292.81873
292.77466
292.73518
292.72646
292.77436
292.84172
292.88407
292.91345
292.93706
292.95664
292.97288
292.98607
292.99652
293.00454
293.00985
293.01322
293.73979
293.67778
293.58703
293.49865
293.41906
293.3475
293.28201
293.22079
293.1631
293.1085
293.05654
293.00699
292.95969
292.91421
292.86979
292.82544
292.78051
292.73935
292.72687
292.77027
292.83846
292.8818
292.91158
292.93542
292.95521
292.97166
292.98501
292.99559
293.00371
293.0091
293.01258
293.72056
293.66658
293.58204
293.4971
293.41983
293.35012
293.28624
293.22652
293.17012
293.11651
293.0652
293.01592
292.96849
292.92257
292.87753
292.83263
292.78689
292.74421
292.72769
292.76626
292.83508
292.87947
292.90967
292.93373
292.95373
292.97038
292.98388
292.9946
293.00282
293.0083
293.01165
293.70396
293.65643
293.57819
293.49683
293.42171
293.35359
293.29107
293.23265
293.1774
293.12471
293.07405
293.02509
292.97762
292.93136
292.88578
292.84026
292.79383
292.74988
292.72897
292.76241
292.83156
292.87709
292.9077
292.93197
292.95218
292.96903
292.9827
292.99356
293.00189
293.00745
293.01076
293.69056
293.64793
293.57578
293.49806
293.42497
293.3582
293.29678
293.23941
293.18512
293.13324
293.08319
293.03457
292.98713
292.9406
292.89453
292.84839
292.80129
292.7562
292.73089
292.75881
292.82793
292.87465
292.90568
292.93016
292.95057
292.96762
292.98145
292.99246
293.00089
293.00655
293.00986
293.68052
293.64168
293.57516
293.50101
293.42985
293.36419
293.30362
293.24702
293.19347
293.14224
293.09271
293.04441
292.99703
292.9503
292.9038
292.85705
292.80927
292.76301
292.73385
292.75558
292.82421
292.87216
292.90363
292.92829
292.94889
292.96614
292.98013
292.99129
292.99983
293.00559
293.00903
293.67425
293.63811
293.57672
293.50605
293.43663
293.37183
293.31179
293.2557
293.20262
293.15185
293.10271
293.05467
293.00737
292.96048
292.9136
292.86626
292.81777
292.77028
292.73775
292.75296
292.82038
292.86965
292.90155
292.92638
292.94715
292.96459
292.97874
292.99006
292.99872
293.00457
293.00813
293.67124
293.63748
293.58068
293.51329
293.44548
293.3813
293.3215
293.26558
293.21273
293.1622
293.1133
293.06545
293.01819
292.97116
292.92394
292.87604
292.82684
292.7782
292.74238
292.75116
292.81649
292.86714
292.89946
292.92443
292.94536
292.96298
292.97729
292.98876
292.99753
293.00349
293.00712
293.67084
293.63946
293.58693
293.52272
293.45642
293.39268
293.33285
293.2768
293.2239
293.17339
293.12457
293.0768
293.02954
292.98237
292.93484
292.8864
292.83653
292.78688
292.74786
292.75023
292.81258
292.86465
292.89739
292.92245
292.94352
292.96131
292.97577
292.9874
292.99629
293.00235
293.00603
293.67298
293.64389
293.59541
293.53429
293.46939
293.40592
293.34585
293.28942
293.2362
293.18551
293.1366
293.08879
293.04148
292.99416
292.94631
292.89738
292.84685
292.79636
292.75431
292.75037
292.80875
292.8622
292.89534
292.92046
292.94165
292.95958
292.97419
292.98596
292.99497
293.00114
293.00489
293.67694
293.65009
293.60554
293.54765
293.48422
293.42094
293.36045
293.30344
293.24968
293.19859
293.14945
293.10148
293.05405
293.00655
292.95841
292.90902
292.85793
292.80666
292.7619
292.75148
292.80508
292.85981
292.89335
292.91848
292.93974
292.9578
292.97254
292.98446
292.99359
292.99986
293.00368
293.6826
293.65766
293.61686
293.56231
293.50055
293.43752
293.37655
293.31881
293.26434
293.21268
293.16314
293.11493
293.06729
293.01958
292.97117
292.92141
292.86996
292.81804
292.77067
292.7535
292.80173
292.85755
292.89143
292.91651
292.93782
292.95597
292.97083
292.98289
292.99213
292.99851
293.0024
293.68993
293.66658
293.62916
293.57802
293.51818
293.45556
293.39409
293.33552
293.28021
293.22784
293.17774
293.12916
293.08127
293.03332
292.98465
292.93464
292.88306
292.83062
292.78064
292.75623
292.79868
292.85543
292.88959
292.91458
292.93588
292.95411
292.96906
292.98126
292.99061
292.99709
293.00106
293.69908
293.67693
293.64237
293.59454
293.53689
293.47492
293.41304
293.3536
293.29734
293.24412
293.19335
293.14425
293.09602
293.0478
292.99889
292.94867
292.89692
292.84399
292.79135
292.76036
292.79638
292.85352
292.88793
292.91273
292.93398
292.95222
292.96724
292.97956
292.98901
292.9956
292.99964
293.71028
293.68876
293.65641
293.61166
293.55645
293.49548
293.4334
293.37312
293.31582
293.26162
293.21003
293.1603
293.1116
293.06307
293.0139
292.96345
292.91135
292.8575
292.80308
292.76628
292.79502
292.85185
292.88629
292.9109
292.93207
292.95031
292.96538
292.9778
292.98735
292.99403
292.99814
293.72308
293.70193
293.67124
293.62919
293.57656
293.51702
293.4551
293.39413
293.33578
293.28048
293.22793
293.17742
293.12811
293.07914
293.02968
292.97897
292.92647
292.87186
292.8162
292.77389
292.794
292.85047
292.88501
292.90927
292.93026
292.94841
292.96349
292.97599
292.98562
292.99239
292.99656
293.73778
293.71652
293.68677
293.64673
293.59653
293.53887
293.47768
293.41642
293.35717
293.30075
293.24711
293.19566
293.14561
293.09608
293.04623
292.99521
292.9423
292.88704
292.83023
292.78339
292.79437
292.84935
292.88375
292.90763
292.92849
292.94651
292.96158
292.97411
292.98383
292.99069
292.99491
293.7526
293.73165
293.70264
293.66426
293.61644
293.56084
293.50078
293.43965
293.37977
293.32232
293.26754
293.21504
293.16411
293.11391
293.06354
293.01216
292.95886
292.90299
292.845
292.79397
292.79658
292.84864
292.88287
292.90626
292.9268
292.94467
292.95965
292.97223
292.98197
292.98891
292.99319
293.76426
293.74406
293.71641
293.67983
293.63416
293.58097
293.52283
293.46265
293.40278
293.34467
293.28892
293.23539
293.18352
293.13255
293.0816
293.02978
292.97612
292.91977
292.86093
292.80676
292.79995
292.84861
292.88231
292.90537
292.92544
292.94289
292.95775
292.97027
292.98006
292.98707
292.9914
293.76943
293.75036
293.72444
293.69045
293.64802
293.59808
293.54267
293.48431
293.42523
293.36706
293.31071
293.25633
293.20359
293.15186
293.10031
293.04803
292.99404
292.93742
292.87816
292.82096
292.80323
292.8478
292.88268
292.90491
292.92384
292.94113
292.95587
292.96836
292.97813
292.98516
292.98954
293.76666
293.74916
293.72558
293.69481
293.6563
293.61043
293.55867
293.50311
293.44579
293.38841
293.33208
293.27727
293.2239
293.17153
293.11945
293.06676
293.0125
292.95573
292.89618
292.83687
292.80804
292.84704
292.88266
292.90461
292.92305
292.93961
292.95406
292.96638
292.97612
292.9832
292.98761
293.75567
293.74013
293.71921
293.69189
293.65759
293.6164
293.56923
293.51757
293.46313
293.40754
293.35208
293.29746
293.2439
293.19117
293.13871
293.08574
293.03129
292.97441
292.9145
292.8535
292.81555
292.84762
292.88317
292.90466
292.92179
292.93801
292.9523
292.96448
292.97415
292.9812
292.98562
293.73678
293.7234
293.70548
293.68209
293.65248
293.61654
293.5746
293.52756
293.47681
293.42386
293.37005
293.31629
293.26305
293.21033
293.15776
293.10467
293.05017
292.99326
292.93316
292.87097
292.82504
292.849
292.8837
292.90419
292.92108
292.93668
292.95068
292.96259
292.9721
292.97915
292.98359
293.71208
293.70123
293.68664
293.66738
293.6427
293.61206
293.57547
293.53346
293.48697
293.43728
293.38572
293.33338
293.28092
293.22859
293.17621
293.12324
293.06887
293.01209
292.952
292.88904
292.83639
292.8506
292.88402
292.90458
292.9211
292.9359
292.94911
292.96069
292.97013
292.97711
292.98151
293.68353
293.67489
293.6633
293.64803
293.62822
293.60309
293.57217
293.53552
293.49377
293.4479
293.39912
293.34863
293.29734
293.24572
293.19379
293.14116
293.0871
293.03065
292.97079
292.90744
292.84974
292.85361
292.88568
292.90562
292.92068
292.93453
292.94778
292.95907
292.96815
292.97501
292.9794
293.65334
293.64667
293.63776
293.62595
293.61045
293.59041
293.5651
293.53409
293.49746
293.45587
293.41038
293.36217
293.31235
293.26166
293.21036
293.15823
293.10465
293.04869
292.98929
292.92606
292.86544
292.8575
292.88761
292.90611
292.92083
292.93451
292.94662
292.95721
292.96619
292.973
292.97729
293.62464
293.6188
293.6114
293.60192
293.58969
293.57385
293.55355
293.52808
293.49699
293.46038
293.41891
293.37365
293.32579
293.27634
293.22585
293.17434
293.12136
293.06602
293.00728
292.94449
292.88157
292.86243
292.8895
292.90709
292.9216
292.93439
292.9453
292.95586
292.96443
292.97093
292.97517
293.60345
293.59796
293.59104
293.58237
293.57154
293.55801
293.541
293.51968
293.49328
293.46145
293.42432
293.38259
293.33732
293.28958
293.24018
293.18946
293.13717
293.08256
293.0246
292.96242
292.89793
292.86862
292.89181
292.90936
292.92227
292.9342
292.94485
292.95445
292.96257
292.969
292.97314
293.58923
293.58389
293.57761
293.57005
293.56068
293.54881
293.53369
293.5143
293.49039
293.46203
293.42853
293.39009
293.34747
293.30166
293.25357
293.20374
293.15218
293.09833
293.04122
292.97983
292.91502
292.87633
292.89512
292.91177
292.92339
292.93434
292.94414
292.95301
292.96101
292.96711
292.97109
293.58524
293.57921
293.57231
293.56432
293.55493
293.54364
293.52986
293.5131
293.49221
293.466
293.43468
293.39848
293.35785
293.31363
293.26668
293.21764
293.16672
293.11355
293.05727
292.99677
292.93224
292.88524
292.89863
292.91459
292.92533
292.93449
292.9435
292.95244
292.95961
292.9653
292.96922
293.59132
293.58508
293.57791
293.5696
293.55989
293.54839
293.53458
293.51782
293.4974
293.47266
293.44309
293.40849
293.36926
293.32615
293.28002
293.23156
293.18112
293.1285
293.07294
293.01336
292.94947
292.89636
292.90227
292.91746
292.92644
292.93528
292.94387
292.95132
292.95806
292.96373
292.96735
293.59749
293.59175
293.58503
293.57711
293.56766
293.55632
293.54266
293.52617
293.50622
293.48216
293.45339
293.41976
293.38154
293.33924
293.29368
293.24566
293.19559
293.14336
293.08839
293.02968
292.96655
292.90865
292.90639
292.92055
292.92873
292.93659
292.94354
292.95048
292.95732
292.96219
292.96573
293.59693
293.59225
293.58664
293.57987
293.5716
293.56143
293.54887
293.53338
293.51439
293.49134
293.46382
293.43148
293.39416
293.35254
293.30748
293.2598
293.21001
293.15811
293.10366
293.04575
292.9834
292.92227
292.91077
292.92372
292.93098
292.937
292.94407
292.95076
292.95619
292.96086
292.96422
293.58416
293.58075
293.57659
293.57145
293.56501
293.55688
293.54654
293.5334
293.51678
293.496
293.47042
293.43971
293.40423
293.36428
293.32044
293.27347
293.22411
293.17261
293.11868
293.0615
292.99984
292.93565
292.91526
292.92673
292.93292
292.93838
292.94485
292.95028
292.95539
292.95995
292.96296
293.55905
293.55649
293.55338
293.54955
293.54473
293.53858
293.53066
293.52039
293.50708
293.48991
293.46834
293.44188
293.41014
293.3732
293.33162
293.2862
293.23776
293.18684
293.13342
293.07688
293.01583
292.95028
292.92043
292.92946
292.93531
292.94021
292.94531
292.95068