/*--------------------------------*- C++ -*----------------------------------*\
| =========                 |                                                 |
| \\      /  F ield         | OpenFOAM: The Open Source CFD Toolbox           |
|  \\    /   O peration     | Version:  2406                                  |
|   \\  /    A nd           | Website:  www.openfoam.com                      |
|    \\/     M anipulation  |                                                 |
\*---------------------------------------------------------------------------*/
FoamFile
{
    version     2.0;
    format      ascii;
    arch        "LSB;label=32;scalar=64";
    class       volScalarField;
    location    "0.1";
    object      alphat;
}
// * * * * * * * * * * * * * * * * * * * * * * * * * * * * * * * * * * * * * //

dimensions      [1 -1 -1 0 0 0 0];

internalField   nonuniform List<scalar> 
8260
(
0.039994661
0.045352281
0.051649843
0.058760901
0.066522417
0.074760328
0.083253178
0.091702211
0.099703073
0.10667694
0.11180901
0.11397785
0.11167614
0.10304647
0.086127201
0.060097084
0.031951924
0.015210318
0.0099783192
0.0082625625
0.0072445934
0.0065311673
0.0060152085
0.0056810909
0.005424322
0.0052547678
0.0051405366
0.0050584691
0.0050028732
0.0049642564
0.0049445404
0.047341613
0.052859611
0.05891436
0.065573721
0.072795477
0.080447885
0.088321326
0.096116544
0.10342079
0.10964646
0.11394833
0.11518064
0.11181581
0.10201157
0.083871085
0.057144117
0.029216071
0.014318293
0.0097223992
0.0081615044
0.0071876069
0.0064936793
0.0059909083
0.0056664539
0.0054161779
0.0052497226
0.0051375688
0.0050566122
0.0050016932
0.0049634812
0.0049440264
0.055759313
0.061068208
0.066817869
0.073045297
0.079726391
0.086755309
0.093940333
0.10099053
0.10748795
0.11283009
0.11615708
0.1162955
0.11169934
0.10055168
0.081063454
0.053580706
0.026524573
0.013422472
0.0095621209
0.008110128
0.0071566138
0.0064735435
0.005977934
0.0056585319
0.005411876
0.0052469509
0.0051359076
0.0050553869
0.0050007796
0.0049627804
0.0049434619
0.065356752
0.070233218
0.075537847
0.081247642
0.087323208
0.093659169
0.10006961
0.10626717
0.11182952
0.11614202
0.11832877
0.11719261
0.11117358
0.098494085
0.077530105
0.049333838
0.023751233
0.012638596
0.009393677
0.008028915
0.0071025374
0.0064372882
0.0059546001
0.0056439929
0.0054038827
0.005241769
0.0051327401
0.0050533388
0.0049994138
0.0049618436
0.0049427977
0.076129632
0.080407676
0.085142153
0.090218051
0.095582349
0.10112133
0.1066446
0.11186056
0.11633872
0.11945199
0.12030759
0.1176879
0.11002664
0.095605847
0.073046338
0.044323973
0.020935596
0.011883473
0.0092202429
0.0079497929
0.0070517619
0.0064043657
0.0059342044
0.005631522
0.0053970811
0.005237482
0.0051301075
0.0050515243
0.0049981074
0.0049608828
0.0049420407
0.087871036
0.091480291
0.095529781
0.099853257
0.10438555
0.1090024
0.11350375
0.11758773
0.12081094
0.12253119
0.12183874
0.11749861
0.10795138
0.091569281
0.067336374
0.038528387
0.01843898
0.011189712
0.0090404446
0.0078512598
0.0069851032
0.0063601215
0.0059064955
0.0056143186
0.0053875306
0.0052313999
0.0051263458
0.0050490726
0.0049964207
0.0049597029
0.0049411742
0.10021174
0.10311049
0.10638619
0.1098536
0.11343604
0.11699864
0.1203298
0.12311417
0.12489214
0.12500389
0.12252261
0.11620052
0.10450861
0.085955694
0.060080855
0.032065941
0.016099574
0.010577966
0.0088496131
0.0077439864
0.0069140484
0.0063142245
0.0058788125
0.0055974148
0.005378155
0.0052255798
0.005122719
0.0050466425
0.0049946693
0.0049584296
0.0049401883
0.11254576
0.11470316
0.1171359
0.11965841
0.12218214
0.1245606
0.12656917
0.12787705
0.12800657
0.12627901
0.12175122
0.11317054
0.099082191
0.078203668
0.050974747
0.025330202
0.013975859
0.010134642
0.0086448397
0.007616421
0.0068275597
0.0062579407
0.0058445284
0.0055763601
0.0053662581
0.005218108
0.0051180593
0.0050436188
0.004992532
0.0049569149
0.004939064
0.12391476
0.12530365
0.12683547
0.12833723
0.1297056
0.13077964
0.13131945
0.13097668
0.12925438
0.12545531
0.11862298
0.10751305
0.09083012
0.067626649
0.039943295
0.019836934
0.012196313
0.0096604013
0.0084121096
0.00747211
0.0067323004
0.0061975948
0.0058083978
0.0055545508
0.0053539851
0.0052104639
0.0051132813
0.0050404794
0.0049902284
0.0049552391
0.0049377826
0.13281534
0.13342774
0.13401182
0.13443185
0.13456643
0.13423591
0.13318141
0.13103442
0.12727846
0.12120135
0.11184109
0.097981913
0.078652442
0.05355333
0.027775401
0.015550744
0.010829181
0.0092662942
0.0081586069
0.0073029613
0.0066210788
0.0061274449
0.0057651322
0.005528467
0.0053393188
0.0052010423
0.005107426
0.0050367194
0.0049874829
0.0049532697
0.0049363189
0.13698628
0.13683529
0.13646147
0.13576922
0.13462005
0.13281756
0.13008149
0.12602181
0.12010666
0.11162161
0.099618998
0.082936204
0.061315326
0.035862621
0.01921235
0.012529099
0.010065824
0.0088258898
0.0078672712
0.0071111652
0.0064997328
0.0060528971
0.0057184725
0.0055005967
0.0053241727
0.0051910547
0.0051012366
0.0050327233
0.0049844693
0.0049510635
0.0049346456
0.13313758
0.13220487
0.13089968
0.12912155
0.1267114
0.12344822
0.11902791
0.11304496
0.10497227
0.094135592
0.079659292
0.060405977
0.038087576
0.022008527
0.013997337
0.010650052
0.0093881994
0.0083519298
0.0075615777
0.006888789
0.0063654917
0.0059704114
0.0056649536
0.0054678761
0.0053065505
0.0051791305
0.0050938069
0.0050280116
0.004980937
0.0049484993
0.0049322238
0.11664302
0.11507249
0.11293921
0.11015681
0.10656004
0.10191108
0.095888499
0.088109628
0.078132568
0.065500663
0.050172431
0.035206595
0.022511634
0.01462765
0.011081686
0.0098711635
0.0086949666
0.0078959431
0.0072207477
0.0066673644
0.0062213709
0.005880676
0.0056108739
0.0054330641
0.0052876384
0.0051666312
0.0050858345
0.0050229107
0.0049770617
0.0049456416
0.0049295151
0.082107789
0.079919725
0.077271806
0.074167267
0.07045651
0.065948724
0.060464494
0.053936545
0.046305694
0.037613757
0.028341832
0.019903832
0.014014189
0.010933147
0.0097679643
0.0088146136
0.0081079152
0.0074003483
0.0068969081
0.0064319179
0.0060784718
0.0057896194
0.0055515673
0.0053935239
0.005265034
0.0051524927
0.0050765487
0.0050169237
0.0049726191
0.0049423949
0.0049265593
0.046228225
0.044833158
0.043113688
0.041066449
0.038554228
0.035548833
0.032218664
0.028487431
0.024403343
0.020030357
0.015823477
0.012297726
0.010300041
0.009309301
0.0088661294
0.0082708261
0.0075370358
0.0070285968
0.0066003841
0.0062345074
0.0059346806
0.0057005298
0.0054933105
0.0053537052
0.0052414443
0.005137409
0.0050669599
0.0050103903
0.0049678062
0.0049388434
0.0049234134
0.022893789
0.022396902
0.021659459
0.020723858
0.019563325
0.018189945
0.016668465
0.015029914
0.013347673
0.011673492
0.010301894
0.009247125
0.0087103212
0.0086398436
0.0079970087
0.0075914465
0.007236356
0.0067367125
0.0063608456
0.0060409098
0.0058310269
0.0056162694
0.005431391
0.0053094553
0.0052149673
0.0051212319
0.0050560578
0.0050027932
0.0049624199
0.0049348834
0.0049201829
0.012164065
0.01204246
0.011794318
0.011452875
0.011032364
0.010553343
0.0100397
0.0094883466
0.0089227822
0.0084651847
0.0082482119
0.0080890225
0.0079026356
0.0075376622
0.0074401047
0.0071970627
0.0068037996
0.0065321808
0.006170151
0.0059437016
0.0057241629
0.0055345849
0.0053817077
0.0052682911
0.0051884974
0.0051032585
0.0050453282
0.0049948447
0.0049565541
0.004930555
0.0049167181
0.0082452125
0.0082133333
0.0081389992
0.0080405807
0.0079210785
0.0077783099
0.0076452411
0.0075364395
0.0074875815
0.0074945715
0.0075101311
0.0074312145
0.0071589792
0.0069763901
0.0067494054
0.0065535692
0.0065472112
0.0062855474
0.0060328536
0.0058194141
0.0056274058
0.005474338
0.0053282857
0.0052256975
0.0051593363
0.0050863234
0.0050325149
0.0049857401
0.0049501491
0.004925791
0.004912345
0.0069609763
0.0069164049
0.0068900313
0.0068807
0.0068819161
0.0068764703
0.0068952525
0.0068643232
0.0068294849
0.0068584811
0.0067831778
0.0067589595
0.006699017
0.0066013199
0.0063686165
0.0062983487
0.0061392366
0.0060695804
0.005877955
0.0057233555
0.0055374412
0.0054061925
0.0052887388
0.0051862606
0.0051336314
0.0050675077
0.0050197303
0.0049766711
0.0049432432
0.0049205636
0.0049081025
0.006383141
0.0063785972
0.0063708482
0.0063620966
0.0063740547
0.0064041789
0.0063995008
0.0063737838
0.0063219293
0.0061985604
0.0061429116
0.0060876173
0.0060826324
0.0060607766
0.0060394526
0.0058686873
0.0057916843
0.0057002188
0.0056705715
0.0055838139
0.0054377221
0.0053495143
0.005229869
0.0051552574
0.0051075934
0.0050480839
0.0050047256
0.0049662398
0.0049358933
0.0049147746
0.0049028904
0.0059594723
0.0059550489
0.0059466297
0.0059265798
0.005893807
0.0058459479
0.0058358086
0.0058292127
0.0058150043
0.0057983927
0.0057677589
0.0057158491
0.0056720229
0.0056473841
0.0056459896
0.0056745239
0.0055951532
0.0054872394
0.0054298635
0.0054035589
0.0053564227
0.005274028
0.0051976083
0.0051227
0.0050800363
0.005029076
0.004989977
0.0049559811
0.0049279872
0.0049084811
0.0048979134
0.0055588551
0.0055593935
0.005556991
0.0055513595
0.0055464177
0.0055532283
0.0055628654
0.0055544631
0.0055479902
0.0055322438
0.0055042102
0.005472925
0.0054376962
0.0054244374
0.0053950224
0.0053783982
0.0053793897
0.0053386987
0.0052980367
0.0052471778
0.0052183741
0.005219799
0.0051493758
0.0050834175
0.0050530896
0.005009869
0.004973223
0.0049440126
0.0049196177
0.0049016945
0.0048918262
0.0053435002
0.0053439272
0.0053419416
0.0053370108
0.0053288547
0.0053150807
0.0052924576
0.0052916795
0.0052881304
0.0052852522
0.0052839123
0.0052906204
0.0052920952
0.0052622029
0.0052484167
0.0052183226
0.0052041747
0.0051988654
0.0051999366
0.0051652742
0.0051306907
0.0051113098
0.005114968
0.0050569148
0.0050176859
0.0049918344
0.0049569582
0.0049329775
0.0049105655
0.0048946216
0.004886402
0.0051454784
0.0051472757
0.0051471816
0.0051459253
0.0051442846
0.0051438034
0.0051506995
0.0051556188
0.005158032
0.0051596553
0.0051582676
0.00515267
0.0051479707
0.0051491962
0.0051314721
0.0051302496
0.0051039904
0.005101923
0.0051112421
0.0051017307
0.0050791226
0.0050351275
0.0050483763
0.0050155963
0.0049872474
0.0049695896
0.0049404446
0.0049195229
0.0049014946
0.0048875048
0.0048795783
0.0050422037
0.0050440104
0.0050443062
0.0050434455
0.0050414998
0.005038068
0.0050322027
0.0050278623
0.0050264675
0.0050267941
0.0050274985
0.0050280704
0.0050279358
0.0050317485
0.0050406399
0.0050330001
0.0050322735
0.0050179801
0.0050089742
0.0050024503
0.0050158087
0.0049888895
0.0049836574
0.0049852469
0.0049503085
0.0049457674
0.0049263621
0.0049068507
0.0048924957
0.0048805314
0.0048744746
0.0049582165
0.0049591543
0.004959176
0.0049587242
0.0049582592
0.0049580777
0.0049582611
0.0049591374
0.0049615619
0.0049649402
0.0049681883
0.0049720064
0.004971295
0.0049641312
0.0049635174
0.0049664365
0.0049660137
0.0049595142
0.0049521427
0.0049541169
0.0049495671
0.0049517681
0.0049412773
0.0049405409
0.0049303261
0.0049218263
0.0049065848
0.0048956386
0.0048834982
0.0048737522
0.004867554
0.0049177208
0.0049182284
0.0049180071
0.0049174882
0.0049171909
0.0049172251
0.0049174944
0.0049178421
0.004917828
0.0049175646
0.0049187183
0.0049210973
0.0049236018
0.0049260459
0.0049284104
0.0049295905
0.0049315179
0.0049290667
0.0049241652
0.0049294096
0.0049211131
0.0049156147
0.0049164215
0.004918387
0.0049121167
0.0049000491
0.0048959995
0.0048850807
0.0048749272
0.0048678761
0.0048637865
0.0048846973
0.0048851125
0.0048854562
0.0048858281
0.0048862616
0.0048867967
0.0048874335
0.0048881856
0.0048890359
0.0048899841
0.0048911744
0.0048930531
0.0048967577
0.0049000369
0.004899538
0.0048970694
0.0048973312
0.0049036007
0.0049073472
0.0049032905
0.004904717
0.004895658
0.0048972455
0.0048936491
0.0048955879
0.0048887909
0.0048820203
0.0048757406
0.0048695221
0.0048644654
0.0048619377
0.0048728056
0.0048730089
0.0048731014
0.0048731999
0.0048733939
0.0048736986
0.0048740965
0.0048745954
0.0048751363
0.0048756597
0.0048760965
0.0048765277
0.004877953
0.004879329
0.0048794333
0.0048808474
0.0048817708
0.0048824416
0.0048839318
0.0048837252
0.0048847339
0.0048808888
0.0048828594
0.0048802612
0.0048811293
0.0048781224
0.0048748579
0.0048706204
0.0048664069
0.0048622059
0.0048580928
0.0048662991
0.0048664902
0.0048666487
0.0048668334
0.0048670689
0.0048673603
0.0048676969
0.0048680077
0.0048682937
0.0048686146
0.0048689642
0.0048695415
0.0048709147
0.0048718847
0.0048716385
0.0048714229
0.0048716824
0.0048722925
0.0048730128
0.0048740649
0.0048750223
0.0048756073
0.0048746083
0.0048746333
0.0048735267
0.004872361
0.0048707248
0.0048680622
0.0048625104
0.004858437
0.0048585934
0.0048594662
0.0048596167
0.004859798
0.0048600232
0.0048603125
0.004860671
0.0048611008
0.0048616111
0.0048622192
0.0048629584
0.0048638806
0.0048652704
0.0048667081
0.0048669923
0.0048667603
0.0048664604
0.0048670325
0.0048679076
0.0048687471
0.0048699921
0.0048694122
0.0048718437
0.004868725
0.0048706608
0.0048690207
0.0048684491
0.0048673788
0.0048644292
0.0048625613
0.0048617114
0.0048599709
0.00088413323
0.001907808
0.0038136511
0.0066472369
0.010391762
0.01514574
0.021004657
0.02802305
0.036301131
0.045297204
0.055161
0.06545229
0.07539256
0.083759744
0.088708176
0.087607368
0.07715684
0.0563047
0.031910611
0.015417108
0.0091256317
0.0072435694
0.0064573402
0.0059555123
0.0055987563
0.0053728246
0.0052122031
0.0051072316
0.0050353882
0.0049879954
0.004963816
0.0021697382
0.0043447956
0.0071822944
0.010586359
0.014748424
0.019789254
0.02578157
0.033056497
0.041107035
0.050040101
0.059708233
0.069604632
0.078898637
0.086304841
0.089919106
0.087080979
0.074606075
0.052276758
0.028112624
0.013932035
0.0086381882
0.0071021453
0.0063971538
0.0059211464
0.005577862
0.0053610486
0.0052054826
0.0051035076
0.0050333314
0.0049867986
0.0049632752
0.0039838791
0.006315072
0.009197623
0.012813712
0.017300579
0.022752027
0.029276526
0.036759607
0.045033674
0.054099243
0.063687293
0.073260812
0.081951834
0.088425079
0.090732001
0.086204345
0.071837388
0.048414216
0.025186285
0.012461879
0.00828881
0.0070410294
0.0063694809
0.0059049284
0.0055676571
0.0053549283
0.0052016902
0.0051011465
0.0050318771
0.0049857981
0.0049625484
0.0057510989
0.0083208337
0.011569607
0.015582141
0.020403797
0.026160831
0.032949301
0.040483964
0.048873402
0.05796155
0.067404066
0.076617595
0.084683237
0.090212443
0.091216908
0.085035832
0.068895381
0.044720739
0.022623808
0.011641425
0.008104215
0.0069664897
0.0063268591
0.0058789278
0.0055512014
0.0053452951
0.0051960762
0.0050979125
0.0050300277
0.0049846641
0.0049617999
0.0074983559
0.01042531
0.014016448
0.018326944
0.02345241
0.029520488
0.036395966
0.044110134
0.052605449
0.061670209
0.070922427
0.079738074
0.087149008
0.091716748
0.091419773
0.083619062
0.065824911
0.041172418
0.020353882
0.010731731
0.0079084806
0.006913331
0.0062985588
0.005861893
0.0055404564
0.0053388222
0.0051921342
0.0050954618
0.0050285213
0.0049836373
0.0049611065
0.0093367361
0.01256328
0.016431449
0.021018605
0.026486395
0.032766552
0.039823206
0.047690868
0.05624553
0.065242455
0.074265409
0.082649307
0.08937888
0.092970161
0.09137512
0.081984268
0.062672276
0.037777431
0.018370131
0.010184098
0.0077879691
0.0068599385
0.0062644993
0.005840713
0.0055268724
0.0053306679
0.0051873043
0.0050925702
0.0050268101
0.0049825405
0.0049603786
0.011122117
0.014636786
0.018804918
0.023727288
0.02945943
0.03593748
0.043200397
0.051196958
0.059779188
0.068676544
0.077439976
0.08536501
0.091392576
0.093998057
0.091112837
0.08017086
0.059482705
0.034589057
0.016685061
0.0096290018
0.0076733909
0.0068154531
0.0062378762
0.0058244811
0.0055165363
0.005324324
0.0051834603
0.0050901436
0.0050252998
0.0049815048
0.0049596162
0.01284986
0.016681527
0.02116334
0.026429798
0.032375068
0.039074936
0.046514927
0.05461263
0.063196641
0.071969225
0.080449252
0.087894956
0.09320683
0.094824321
0.090662821
0.078220285
0.056293296
0.031649387
0.015302318
0.0092756354
0.0075928603
0.0067735075
0.0062096705
0.0058068542
0.0055051091
0.0053172685
0.0051792396
0.0050875205
0.0050236933
0.0049804346
0.0049588353
0.014574379
0.018704723
0.023506743
0.029038271
0.035227859
0.04214485
0.049745246
0.057924779
0.066490018
0.07511754
0.08329596
0.090248469
0.094838443
0.095474515
0.090063156
0.076170819
0.0531727
0.02899384
0.014205085
0.0089688245
0.007519961
0.0067364489
0.0061857739
0.0057922097
0.0054956564
0.0053113083
0.0051756347
0.0050851882
0.0050222106
0.0049794014
0.0049580441
0.016245225
0.020678845
0.02580313
0.031568062
0.038012489
0.045136685
0.052881105
0.061124567
0.069653319
0.078119719
0.085983822
0.092435907
0.096305467
0.095974429
0.08935216
0.074069557
0.050142879
0.026639708
0.013267591
0.0087574734
0.0074635509
0.006702316
0.0061621255
0.0057774768
0.0054859869
0.005305138
0.0051719258
0.0050827928
0.0050206921
0.0049783538
0.0049572457
0.017900271
0.022628854
0.028031203
0.034041018
0.040728954
0.048041932
0.055913075
0.064204132
0.072681778
0.080975352
0.08851802
0.094469272
0.097627733
0.096351487
0.088561547
0.071957571
0.047249374
0.024595846
0.012552006
0.0086017238
0.0074129258
0.0066717152
0.0061413621
0.0057647508
0.0054776357
0.0052996862
0.0051686346
0.0050805942
0.0050192563
0.0049773307
0.0049564415
0.019511183
0.024536299
0.030185482
0.036451131
0.043365019
0.050848891
0.058831973
0.067156533
0.075571847
0.08368543
0.090905322
0.09636221
0.098825826
0.096637188
0.08772523
0.069877512
0.044536424
0.022861109
0.011968392
0.0084791825
0.0073711407
0.006644024
0.0061216337
0.0057525353
0.0054695041
0.0052942809
0.0051653831
0.0050784042
0.0050178183
0.0049763047
0.0049556314
0.021096836
0.026392742
0.03228367
0.038789378
0.045898662
0.05354708
0.061628943
0.069975848
0.078321327
0.086252457
0.093153951
0.098129612
0.099919429
0.096854538
0.086874746
0.067869152
0.042036104
0.021417006
0.011535937
0.0083897462
0.0073342455
0.0066194055
0.0061041154
0.0057418164
0.0054623565
0.0052893954
0.0051624426
0.0050763599
0.0050164415
0.0049752969
0.0049548161
0.022653523
0.028193648
0.034322257
0.041047477
0.048324878
0.056130902
0.064295896
0.072656152
0.080928982
0.088681246
0.0952738
0.099789525
0.10093481
0.097029562
0.086040897
0.065958582
0.039772506
0.020244438
0.011217864
0.0083216316
0.0073031509
0.0065976322
0.0060879525
0.0057318564
0.0054556505
0.0052846873
0.0051596153
0.005074362
0.005015081
0.0049742926
0.0049539954
0.024190907
0.029946439
0.036294922
0.043220499
0.050672721
0.058569007
0.066828689
0.075195727
0.083394377
0.09097747
0.097274708
0.10135261
0.10189539
0.097202344
0.085269272
0.064165086
0.037759874
0.01932327
0.011012097
0.0082733803
0.0072764364
0.0065787462
0.0060736619
0.005723102
0.0054497629
0.0052803956
0.0051570392
0.0050724821
0.0050137721
0.0049733043
0.0049531686
0.025684666
0.031644256
0.038191381
0.045295119
0.052898501
0.060910775
0.069196236
0.077584431
0.08571339
0.093133628
0.099164326
0.10283706
0.10281988
0.097402305
0.084600134
0.062527636
0.036009229
0.018639768
0.010863154
0.0082364681
0.0072544972
0.0065626295
0.0060608441
0.0057151795
0.005444429
0.0052763491
0.00515461
0.0050706681
0.0050124921
0.0049723248
0.0049523338
0.027087218
0.033246917
0.039978465
0.0472446
0.054981038
0.06309168
0.07142494
0.079780799
0.087854125
0.095152616
0.10094262
0.10425661
0.10373253
0.097658287
0.084069487
0.0611093
0.034569871
0.018068799
0.01070995
0.0082068122
0.0072368587
0.0065492686
0.0060497178
0.0057082711
0.0054398291
0.0052726684
0.0051523946
0.0050689571
0.0050112581
0.0049713599
0.0049514909
0.02836248
0.034690085
0.04158433
0.048998824
0.05686504
0.065075206
0.073474028
0.081842528
0.089851706
0.097004189
0.10260638
0.1056227
0.10465376
0.097997376
0.083708778
0.059961209
0.033418663
0.017595837
0.010583742
0.0081866878
0.0072236921
0.0065385743
0.0060400978
0.0057021783
0.0054358318
0.0052692727
0.0051503371
0.0050673227
0.0050100584
0.0049704063
0.004950641
0.029706693
0.036108953
0.043091342
0.050602577
0.058560954
0.066851259
0.075309086
0.083703719
0.091690728
0.098759777
0.10418752
0.10691859
0.10559925
0.098443626
0.083545301
0.059121953
0.032534418
0.017202616
0.010470282
0.0081746226
0.0072148604
0.0065305194
0.0060320885
0.0056969679
0.005432516
0.0052662265
0.005148469
0.0050657851
0.0050089021
0.0049694674
0.0049497872
0.031046194
0.037497788
0.044524614
0.052084275
0.060094878
0.068437353
0.076939295
0.085361017
0.093343178
0.10036217
0.10567396
0.10821708
0.10658743
0.098992653
0.083600859
0.058620065
0.031903239
0.016874628
0.010372694
0.0081712134
0.0072105292
0.0065250722
0.0060256478
0.0056925537
0.005429818
0.0052635009
0.0051467623
0.0050643323
0.0050077836
0.0049685414
0.0049489326
0.032357026
0.038821386
0.045856299
0.053427593
0.061456154
0.069826566
0.078359412
0.086809745
0.094804183
0.10180871
0.10705829
0.1094778
0.1076298
0.099720087
0.083877335
0.058475927
0.031522429
0.016591765
0.010287326
0.0081746606
0.0072108506
0.0065222907
0.0060208927
0.0056889907
0.0054277711
0.0052611358
0.005145231
0.0050629746
0.0050067064
0.0049676288
0.0049480745
0.033627457
0.040064646
0.04706809
0.054615286
0.06262834
0.071011511
0.079593395
0.08810005
0.096145705
0.10315489
0.10836484
0.11070528
0.10872639
0.10059984
0.084436734
0.058705923
0.031412449
0.016327329
0.010205606
0.0081902638
0.0072159055
0.006522314
0.0060178628
0.0056862603
0.0054263276
0.0052591153
0.005143854
0.0050617017
0.0050056638
0.0049667264
0.0049472044
0.034868856
0.041210158
0.048125861
0.055611211
0.063621861
0.072033101
0.080655023
0.089196671
0.097264207
0.10431017
0.10955009
0.11189585
0.10987854
0.10163966
0.085254733
0.059330927
0.031540897
0.016055212
0.010130527
0.0082121084
0.0072249943
0.0065239233
0.0060165242
0.005684327
0.0054254358
0.0052574289
0.0051426192
0.0050605088
0.0050046512
0.0049658325
0.0049463175
0.036075374
0.042217925
0.048945755
0.05628102
0.064202438
0.072577856
0.081206113
0.089799097
0.097953018
0.10509754
0.11043837
0.11286857
0.11089573
0.10264154
0.086130687
0.060114981
0.031949231
0.015686253
0.010066255
0.0082388435
0.0072357643
0.0065278762
0.0060165342
0.0056830093
0.005424955
0.0052560154
0.0051414921
0.0050593821
0.0050036628
0.004964948
0.0049454205
0.00090780013
0.0018487285
0.0036449041
0.0063287778
0.0098923534
0.014363211
0.019894801
0.026596835
0.034605598
0.043411641
0.053163437
0.063444156
0.073513895
0.082215192
0.087754912
0.087539574
0.078213719
0.058194876
0.033595369
0.015995643
0.0092563835
0.0072803547
0.006474757
0.0059659213
0.0056060075
0.0053775475
0.0052151544
0.0051090668
0.0050365139
0.0049887711
0.0049640941
0.00096342765
0.0019020109
0.0036684372
0.0062785833
0.0097446374
0.014142008
0.019588924
0.026184236
0.034054058
0.042768461
0.052368221
0.062523979
0.072568563
0.081343923
0.087093045
0.087258139
0.078524801
0.059062075
0.034485506
0.016382824
0.0093398554
0.0073016979
0.006485303
0.005972298
0.0056109055
0.0053806022
0.0052170855
0.0051102964
0.0050373019
0.0049893474
0.0049643718
0.0010312471
0.001959003
0.003702566
0.0062656242
0.0096643035
0.013973452
0.019306263
0.025766589
0.033459756
0.042045842
0.051520625
0.061583051
0.071591074
0.080433341
0.086388922
0.086939302
0.078811961
0.059943429
0.035432431
0.016805561
0.0094328287
0.0073252225
0.0064967798
0.0059792227
0.0056158839
0.0053841208
0.0052193326
0.0051116928
0.0050381597
0.0049899378
0.0049647235
0.0011113454
0.0020224049
0.0037387773
0.0062528778
0.0095826705
0.013802253
0.019020485
0.0253423
0.032861636
0.041311835
0.050655475
0.06061614
0.070580578
0.079481859
0.085639715
0.086579056
0.079068543
0.060835002
0.036435463
0.017272734
0.0095410754
0.0073499142
0.0065082844
0.005986056
0.0056215772
0.0053873875
0.0052214033
0.0051130224
0.0050390432
0.004990595
0.0049651463
0.0012049091
0.0020941308
0.0037764496
0.0062404411
0.0095011245
0.013630344
0.018733057
0.024910254
0.032259605
0.040567944
0.04977337
0.059623023
0.069536665
0.078488389
0.08484322
0.086173973
0.079287931
0.061735458
0.037491661
0.017789527
0.0096618472
0.0073798644
0.0065223845
0.0059944625
0.0056272075
0.0053915502
0.0052240639
0.0051146601
0.0050400381
0.0049912825
0.00496551
0.0013173482
0.0021781696
0.0038244917
0.0062362838
0.0094260953
0.013462883
0.018448123
0.024482232
0.031655975
0.039815861
0.048875568
0.058606267
0.068459748
0.077452613
0.083997829
0.085720754
0.079468357
0.062639235
0.03858543
0.018357776
0.0098024736
0.0074088387
0.0065353357
0.0060020989
0.0056338212
0.0053957081
0.0052267156
0.005116298
0.0050410725
0.004992014
0.0049658331
0.0014504313
0.002281783
0.0038793332
0.0062352932
0.0093527297
0.013296012
0.018163049
0.024053257
0.031050053
0.039058872
0.047965219
0.057569318
0.06735298
0.076377103
0.083104689
0.085218742
0.079613409
0.063544981
0.039730913
0.018985303
0.009956168
0.0074428625
0.0065500524
0.0060107637
0.0056405992
0.0054001446
0.0052295377
0.005118045
0.0050421712
0.0049927882
0.0049662007
0.0016136022
0.0024063137
0.0039535841
0.0062501282
0.0092935931
0.013142406
0.017890454
0.023635888
0.030459377
0.038304447
0.047052107
0.056520788
0.066222592
0.075267241
0.082167388
0.084669267
0.079714396
0.064440936
0.040954833
0.019676874
0.010135574
0.0074800548
0.0065658228
0.0060198547
0.0056477596
0.0054048432
0.0052325307
0.0051198736
0.005043329
0.0049936079
0.0049667594
0.0018117414
0.0025542446
0.0040479685
0.0062823289
0.0092499338
0.013002789
0.017630578
0.023230248
0.029881709
0.037555106
0.04613605
0.055460263
0.065065344
0.07412205
0.081183364
0.084066131
0.079764976
0.065321145
0.042242993
0.020438291
0.010334264
0.0075215394
0.0065822551
0.0060294762
0.0056554001
0.0054098697
0.0052357118
0.0051218345
0.0050445612
0.0049944674
0.0049675406
0.0020541254
0.0027419114
0.0041738056
0.0063387168
0.0092266151
0.01288147
0.017387467
0.022838843
0.029305924
0.036812494
0.04522128
0.054392934
0.063902602
0.072945632
0.080153899
0.083407607
0.079760916
0.066184706
0.043583113
0.021275483
0.010563064
0.0075669262
0.0066003026
0.0060397092
0.0056633958
0.0054151561
0.0052390613
0.0051238668
0.0050458513
0.0049953751
0.0049683144
0.0023444946
0.0029694142
0.0043271368
0.0064212309
0.0092273364
0.012782402
0.017165076
0.022466282
0.028754254
0.036081443
0.044312468
0.053323197
0.062723019
0.071741031
0.079080862
0.082692874
0.079697601
0.067017099
0.044972163
0.022196233
0.010820055
0.0076182562
0.0066185651
0.0060503735
0.0056719996
0.005420858
0.0052426323
0.0051260688
0.0050472295
0.0049963249
0.0049689944
0.0026887792
0.0032506719
0.0045362768
0.0065391467
0.0092565723
0.012709208
0.016967123
0.022117253
0.028231131
0.035369471
0.043414954
0.052255758
0.061528834
0.070511738
0.077966766
0.08192188
0.079570649
0.067802526
0.046371155
0.023199272
0.011112764
0.007674556
0.006639325
0.0060621144
0.0056808324
0.0054267554
0.0052463305
0.0051283169
0.0050486553
0.0049973295
0.0049696863
0.0030915327
0.0035875876
0.0047783565
0.0066936374
0.0093174808
0.012664896
0.016796871
0.021795946
0.027737043
0.034687982
0.042536418
0.051196596
0.060330834
0.069262129
0.076814801
0.081095358
0.079376701
0.068533787
0.047767579
0.024290222
0.011443144
0.007738495
0.0066599363
0.0060738828
0.0056905008
0.0054332051
0.0052503133
0.0051307831
0.0050501863
0.0049983773
0.0049704683
0.0035543599
0.003983147
0.0050698977
0.0068889094
0.0094129461
0.012651874
0.016657289
0.021504816
0.027271647
0.034013338
0.041677448
0.050150941
0.059134469
0.067993849
0.075628685
0.080214919
0.079113444
0.069202955
0.049174978
0.025473589
0.0118183
0.0078096603
0.0066831472
0.0060874056
0.0057001178
0.0054396853
0.0052543249
0.0051332545
0.0050517419
0.0049994819
0.0049713408
0.0040806352
0.0044447697
0.0054254877
0.0071269668
0.0095439026
0.012671508
0.016550298
0.021246165
0.026838259
0.033375195
0.040843298
0.049124378
0.057946148
0.06671725
0.074413894
0.079283298
0.078779334
0.069800262
0.050581599
0.026746125
0.012240684
0.007889681
0.0067082247
0.006100746
0.0057109783
0.0054469214
0.0052587393
0.0051359924
0.005053424
0.0050006334
0.0049722587
0.0046700523
0.004974405
0.0058461575
0.0074257257
0.0097166223
0.012726029
0.016477208
0.021023512
0.026441105
0.032784216
0.040058243
0.048127652
0.056775511
0.065458419
0.07317895
0.078304708
0.078374516
0.070315641
0.051984817
0.02811426
0.012718744
0.0079799687
0.0067321587
0.0061155096
0.0057212988
0.0054538978
0.0052630351
0.0051386849
0.0050550979
0.0050018341
0.0049732113
0.0053155048
0.0055672562
0.0063294548
0.0077687716
0.009933088
0.012818942
0.016440909
0.020840179
0.02608362
0.032234738
0.039294787
0.047162886
0.055628211
0.064196853
0.071929028
0.077284434
0.077901712
0.070744363
0.053371381
0.029555124
0.013257737
0.0080849731
0.0067649341
0.0061320833
0.0057334709
0.0054618647
0.0052678827
0.0051416554
0.0050569199
0.0050030924
0.0049741944
0.0059923125
0.006204628
0.0068690192
0.0081697235
0.010198481
0.0129549
0.016445706
0.020700355
0.025769915
0.031727885
0.038562947
0.046231248
0.054509781
0.06294615
0.070671344
0.076228725
0.07736559
0.071094515
0.054746208
0.031124741
0.013859454
0.0082061001
0.0067902569
0.0061464045
0.0057444518
0.0054692234
0.0052725019
0.0051445438
0.0050586998
0.0050043739
0.0049752055
0.0066747922
0.0068690231
0.0074588522
0.0086368815
0.010522818
0.01314305
0.016499672
0.020611264
0.025507936
0.031277064
0.037909331
0.045378126
0.053438499
0.061721553
0.069410381
0.075143623
0.076767072
0.07136652
0.056091965
0.032764643
0.014555297
0.0083580162
0.0068266637
0.0061677556
0.0057577319
0.0054776397
0.0052776844
0.0051476294
0.0050606362
0.005005737
0.0049762411
0.0073388439
0.0075422299
0.008090224
0.0091718599
0.010924624
0.013404929
0.016621879
0.020588406
0.025311361
0.030892517
0.037317302
0.044554685
0.05241355
0.060530851
0.068152858
0.074036146
0.076108477
0.071546291
0.057368909
0.0344405
0.015294124
0.0084998008
0.0068675526
0.006182954
0.0057697114
0.0054853714
0.0052827702
0.0051506662
0.0050625172
0.0050070723
0.004977298
0.0079667151
0.0082001708
0.0087402752
0.0097567474
0.011405088
0.013755853
0.016832458
0.020648891
0.025198911
0.030587137
0.036797015
0.043787367
0.051445441
0.059389337
0.066949128
0.0729216
0.075396564
0.0716348
0.058569658
0.036192527
0.01616677
0.0087016531
0.0068934562
0.006203585