/*--------------------------------*- C++ -*----------------------------------*\
| =========                 |                                                 |
| \\      /  F ield         | OpenFOAM: The Open Source CFD Toolbox           |
|  \\    /   O peration     | Version:  2406                                  |
|   \\  /    A nd           | Website:  www.openfoam.com                      |
|    \\/     M anipulation  |                                                 |
\*---------------------------------------------------------------------------*/
FoamFile
{
    version     2.0;
    format      ascii;
    arch        "LSB;label=32;scalar=64";
    class       volScalarField;
    location    "0.02";
    object      p;
}
// * * * * * * * * * * * * * * * * * * * * * * * * * * * * * * * * * * * * * //

dimensions      [1 -1 -2 0 0 0 0];

internalField   nonuniform List<scalar> 
2065
(
101937.96
101783.86
101670.47
101539.86
101411.79
101298.01
101209.86
101143.82
101093.52
101062.63
101051.04
101052.28
101061.92
101081.03
101104.66
101131.32
101161.17
101191.77
101220.78
101252.94
101285.88
101318.66
101349.41
101382.4
101413.06
101441.78
101457.04
101461.75
101450.74
101432.54
101360.43
102146.69
102010.47
101867.11
101712.83
101567.99
101439.45
101333.11
101248.13
101181.59
101135.2
101109
101098.17
101097.71
101109.08
101126.72
101148.85
101175.51
101203.73
101231.23
101262.05
101293.81
101325.39
101354.93
101386.3
101415.25
101442.62
101458.27
101462.5
101451.14
101432.5
101359.53
102273.11
102149.43
102001.24
101841.58
101691.4
101556.39
101440.06
101343.44
101265.58
101207.45
101170.14
101148.16
101138.8
101142.44
101153.62
101170.32
101192.64
101217.14
101241.83
101270.3
101300.06
101330.18
101358.8
101389.79
101417.96
101444.84
101460.87
101463.92
101451.84
101432.82
101358.36
102365.75
102251.54
102110.25
101954.59
101804.66
101666.98
101544.56
101439.41
101352.13
101283.81
101235.34
101203.05
101184.51
101179.67
101183.74
101194.43
101211.84
101232.16
101253.78
101279.72
101307.3
101335.85
101363.4
101393.81
101421.04
101447.45
101463.87
101465.62
101452.73
101433.28
101357.91
102437.36
102331.46
102201.88
102055.59
101910.49
101773.8
101648.59
101537.51
101442.36
101364.7
101305.54
101262.92
101234.81
101221.18
101217.16
101221.59
101233.49
101249.24
101267.56
101290.59
101315.76
101342.53
101368.82
101398.26
101424.55
101450.36
101466.97
101467.45
101453.76
101433.83
101359.04
102486.42
102390.1
102274.3
102140.89
102004.68
101872.82
101748.5
101634.68
101533.98
101448.58
101379.93
101327.4
101289.79
101266.76
101254.59
101252.17
101257.81
101268.66
101283.22
101302.87
101325.37
101350.11
101374.97
101403.24
101428.58
101453.69
101470.05
101469.32
101454.95
101434.45
101361.99
102515.95
102429.48
102328.06
102209.38
102084.93
101961.17
101841.18
101727.96
101624.54
101533.61
101457.17
101395.73
101348.95
101316.59
101296.07
101286.15
101285.15
101290.61
101300.86
101316.79
101336.29
101358.75
101381.97
101408.95
101433.2
101457.52
101473.04
101471.14
101456.32
101435.12
101364.31
102528.52
102452.16
102365.19
102261.91
102150.85
102037.51
101924.64
101815.02
101711.77
101617.84
101535.71
101466.79
101411.62
101370.34
101341.39
101323.67
101315.66
101315.23
101320.72
101332.53
101348.71
101368.59
101389.96
101415.47
101438.5
101461.89
101475.99
101472.92
101457.91
101435.92
101367.05
102531.26
102469.92
102393.28
102302.2
102203.75
102101.6
101997.57
101893.91
101793.44
101699.12
101613.66
101539.13
101476.81
101427.38
101390.24
101364.64
101349.37
101342.66
101342.96
101350.26
101362.78
101379.77
101399.08
101422.92
101444.6
101466.83
101478.97
101474.76
101459.75
101436.92
101374.79
102524.7
102480.06
102411.45
102329.75
102243.13
102152.64
102058.68
101962.82
101867.43
101775.23
101688.93
101610.93
101543.11
101486.73
101442.02
101408.77
101386.19
101372.94
101367.68
101370.11
101378.64
101392.46
101409.46
101431.41
101451.6
101472.37
101482.04
101476.83
101461.86
101438.1
101383.88
102495.57
102468.52
102416.95
102346.41
102269.82
102190.4
102107.07
102020.31
101931.85
101844
101759.26
101680.12
101608.8
101547.04
101495.81
101455.48
101425.81
101405.97
101394.91
101392.2
101396.44
101406.79
101421.25
101441.08
101459.63
101478.48
101485.33
101479.24
101464.27
101439.62
101394.45
102465.27
102440.95
102403.47
102350.51
102285.01
102215.17
102142.23
102065.31
101985.14
101903.46
101822.47
101744.5
101671.87
101606.62
101550.3
101503.88
101467.69
101441.46
101424.55
101416.54
101416.28
101422.92
101434.61
101452.08
101468.83
101485.19
101488.96
101482.08
101467.03
101441.71
101406.32
102429.73
102411.75
102379.78
102338.48
102288.11
102228.16
102164.58
102097.36
102026.17
101952.01
101876.56
101801.87
101730.13
101663.5
101603.88
101552.74
101510.97
101478.89
101456.34
101443.05
101438.19
101440.95
101449.69
101464.58
101479.33
101492.58
101493.12
101485.45
101470.2
101444.49
101419.58
102391.81
102379.19
102353.75
102317.65
102277.53
102230.64
102175.26
102116.52
102054.23
101988.35
101919.82
101850.2
101781.43
101715.57
101654.66
101600.51
101554.5
101517.49
101489.82
101471.54
101462.14
101460.97
101466.63
101478.75
101491.29
101500.67
101498.16
101489.39
101473.85
101448.01
101434.12
102348.83
102340.68
102321.13
102292.22
102258.89
102220.62
102174.65
102123.07
102068.96
102011.65
101950.97
101887.82
101823.79
101760.72
101700.62
101645.43
101596.86
101556.21
101524.32
101501.62
101487.99
101482.99
101485.56
101494.78
101504.78
101509.44
101504.49
101493.97
101478.09
101452.14
101448.09
102299.03
102294.65
102279.69
102255.62
102227.14
102198.19
102165.04
102121.99
102073.19
102022.47
101969.3
101913.38
101855.5
101797.05
101739.8
101685.66
101636.46
101593.82
101558.99
101532.78
101515.49
101507
101506.6
101512.82
101519.78
101518.92
101512.32
101499.27
101482.99
101456.69
101462.79
102239.59
102238.62
102227.89
102208.94
102185.49
102159.18
102133.04
102106.81
102071.38
102025.36
101976.24
101926.53
101875.43
101823.01
101770.49
101719.49
101671.75
101629.03
101592.85
101564.38
101544.32
101532.89
101529.83
101532.96
101536.03
101529.52
101521.5
101505.37
101488.56
101461.66
101468.77
102175.77
102177.98
102171
102156.7
102138.98
102118.79
102095.62
102069.74
102044.02
102014
101974.16
101929.42
101883.75
101837.73
101791.48
101745.65
101701.51
101660.73
101625.02
101595.8
101574.1
101560.55
101555.27
101555.11
101553.11
101542.36
101531.71
101512.38
101494.78
101467.31
101460.31
102102.52
102106.88
102102.73
102092.04
102078.54
102063.26
102045.72
102025.21
102002.02
101979.88
101958.77
101928.98
101887.96
101844.55
101803.61
101764.02
101725.24
101688.34
101654.95
101626.59
101604.53
101589.84
101582.77
101579.02
101570.83
101557.74
101542.63
101520.38
101501.61
101474.84
101471.37
102032.12
102038.06
102036.27
102028.83
102019.19
102008.27
101995.77
101981.29
101964.41
101944.78
101923.03
101902.75
101880.01
101848.16
101811.82
101776.72
101743.73
101712.1
101682.67
101656.7
101635.63
101620.91
101612.34
101604.14
101590.18
101574.09
101554.06
101529.38
101509.04
101483.43
101503.13
101964.79
101971.24
101970.91
101965.9
101959.25
101951.72
101943.03
101932.87
101921.02
101907.11
101890.68
101872.39
101856.65
101843.24
101821.09
101790.33
101760.48
101733.79
101709.36
101687.1
101668.18
101654.3
101644.02
101630.07
101610.95
101589.93
101565.94
101539.32
101517.05
101490.9
101530.52
101916.34
101922.31
101922.67
101919.44
101915.1
101910.22
101904.6
101897.99
101890.27
101881.33
101871.01
101859.13
101845.72
101831.89
101821.49
101807.03
101782.87
101758.96
101739.25
101721.17
101704.38
101689.64
101674.47
101654.29
101630.7
101605.28
101578.14
101549.9
101525.48
101495.45
101528.63
101887.44
101891.64
101892.06
101890.26
101887.82
101885.06
101881.8
101877.91
101873.29
101867.83
101861.43
101853.96
101845.15
101834.72
101823.55
101816.53
101813.81
101802.51
101781.66
101760.59
101740.64
101720.28
101698.43
101674.58
101648.5
101620.41
101590.65
101560.71
101534.23
101503.07
101517.37
101873.06
101874.51
101874.22
101873.25
101871.98
101870.56
101869.04
101867.32
101865.25
101862.64
101859.29
101855.08
101849.84
101843.33
101835.2
101825.16
101813.57
101805.73
101800.87
101788.17
101767.05
101742.59
101717.08
101692.05
101665.22
101635.55
101603.61
101571.72
101543.31
101512.02
101507.26
101879.67
101879.34
101878.86
101878.08
101877.05
101875.82
101874.39
101872.68
101870.61
101868.05
101864.84
101860.9
101856.12
101850.4
101843.53
101835.22
101825.14
101813
101798.46
101785.51
101774.98
101757.26
101732.38
101707.47
101680.73
101650.51
101617.39
101583.84
101553.24
101518.29
101475.42
101881.54
101880.87
101880.02
101878.98
101877.76
101876.4
101874.87
101873.07
101870.89
101868.2
101864.92
101861
101856.41
101851.12
101844.99
101837.78
101829.16
101818.9
101807.56
101795.27
101779.96
101761.65
101741.9
101720.08
101693.94
101663.81
101630.9
101597.44
101566.43
101533.32
101521.8
101888.75
101888.1
101887.29
101886.32
101885.17
101883.82
101882.23
101880.36
101878.15
101875.56
101872.52
101868.91
101864.6
101859.44
101853.28
101845.92
101837.15
101826.64
101814
101798.71
101781.75
101767.26
101751.95
101729.19
101702.51
101672.32
101640.31
101608.87
101579.53
101549.4
101539.51
101901.32
101900.55
101899.64
101898.56
101897.29
101895.81
101894.09
101892.07
101889.69
101886.9
101883.59
101879.68
101875.07
101869.63
101863.2
101855.55
101846.37
101835.47
101822.87
101809.1
101795.54
101779.45
101759
101734.99
101707.23
101675.53
101642.44
101612.03
101586.15
101561.86
101544.43
101914.14
101913.45
101912.68
101911.79
101910.77
101909.58
101908.2
101906.55
101904.59
101902.24
101899.44
101896.11
101892.17
101887.59
101882.28
101875.46
101866.76
101856.5
101844.49
101831.26
101815.32
101795.73
101772.82
101746.23
101715.52
101680.97
101644.38
101610.55
101584.05
101561.1
101603.05
101964.92
101963.1
101960.88
101958.2
101955.05
101951.46
101947.52
101943.3
101938.86
101934.22
101929.38
101924.28
101918.79
101912.7
101905.71
101898.02
101889.48
101879.38
101867.86
101854.47
101838.43
101819.31
101795.07
101765.38
101732.49
101697.83
101661.38
101625.55
101593.87
101567.87
101603.8
101974.25
101971.29
101967.95
101964.5
101960.95
101957.32
101953.62
101949.85
101946
101942.03
101937.87
101933.42
101928.55
101923.06
101916.71
101909.21
101900.25
101889.47
101876.38
101860.28
101840.26
101814.84
101784.7
101756.85
101731.49
101701.98
101669.72
101637.55
101607.77
101582.69
101583.44
100174.19
100132.01
100091.16
100062.16
100045.5
100045.79
100065.38
100101.81
100155.16
100223.56
100304.2
100393.41
100487.82
100583.81
100676.47
100766.46
100853.42
100934.37
101008.16
101077.7
101140.26
101198.51
101253.28
101302.31
101345.32
101387.78
101415.84
101440.86
101435.2
101425.94
101351.28
100096.08
100061.14
100029.33
100011.98
100009.48
100023.6
100054.94
100102.69
100164.88
100239.17
100323.25
100413.95
100508.32
100602.01
100692.34
100781.27
100866.62
100945.71
101017.95
101086.9
101148.39
101205.86
101259.56
101307.19
101348.78
101389.9
101416.88
101441.75
101435.56
101426.29
101350.89
99978.016
99949.725
99930.402
99929.559
99945.233
99977.023
100025.2
100087.41
100161.21
100244.3
100334.96
100429.89
100525.37
100618.38
100708.96
100797.39
100881.22
100957.82
101028.39
101096.02
101155.94
101212.14
101264.65
101311.28
101352.14
101392.52
101418.65
101442.87
101435.9
101426.43
101350.35
99839.377
99827.759
99828.636
99848.825
99884.727
99935.023
99998.949
100074.18
100158.67
100249.88
100346.85
100444.44
100540.62
100634.61
100725.51
100813.37
100894.96
100969.12
101038.69
101104.71
101163.12
101218.11
101269.51
101315.21
101355.43
101395.2
101420.61
101444.04
101436.29
101426.5
101349.86
99682.415
99697.159
99724.613
99769.48
99827.573
99897.402
99977.289
100065.39
100160.37
100258.97
100359.95
100459.13
100557.11
100651.72
100742.51
100829.16
100907.68
100980.42
101048.82
101113.25
101170.27
101224.11
101274.39
101319.17
101358.71
101397.81
101422.49
101445.19
101436.71
101426.54
101349.5
99529.331
99572.797
99626.983
99696.785
99776.989
99866.218
99961.521
100061.42
100166.33
100269.79
100373.78
100475.85
100574.87
100669.61
100760.1
100844.11
100919.87
100992.1
101058.81
101121.68
101177.34
101230.04
101279.19
101323.09
101361.97
101400.38
101424.32
101446.3
101437.13
101426.56
101349.25
99385.481
99458.261
99537.629
99632.928
99734.737
99842.93
99952.66
100061.41
100173.82
100282.97
100390.3
100494.02
100593.51
100688.47
100777.55
100857.9
100932.45
101003.7
101068.65
101129.96
101184.31
101235.87
101283.89
101326.94
101365.19
101402.9
101426.12
101447.38
101437.58
101426.55
101349.06
99252.225
99355.417
99465.683
99583.84
99704.593
99826.984
99948.106
100067.24
100185.52
100299.16
100408.74
100513.44
100613.58
100708.03
100793.47
100871.29
100945.66
101015.13
101078.34
101138.1
101191.16
101241.61
101288.5
101330.73
101368.39
101405.36
101427.89
101448.44
101438.05
101426.54
101348.91
99147.108
99277.087
99411.79
99549.252
99685.767
99820.383
99951.525
100078.55
100201.37
100318.09
100429.1
100534.84
100635.2
100726.78
100808.09
100885.34
100958.81
101026.42
101087.89
101146.1
101197.92
101247.25
101293
101334.46
101371.54
101407.76
101429.63
101449.46
101438.54
101426.52
101348.8
99073.371
99225.428
99378.947
99531.456
99680.256
99824.543
99963.229
100095.5
100221.39
100340.11
100452.28
100558.56
100656.48
100743.17
100823.25
100900.43
100971.84
101037.59
101097.28
101153.95
101204.56
101252.8
101297.41
101338.12
101374.65
101410.12
101431.34
101450.45
101439.06
101426.49
101348.7
99038.332
99205.187
99370.709
99532.649
99689.287
99839.929
99983.395
100118.68
100246.19
100366.23
100478.67
100582.63
100675.35
100759.63
100840.32
100915.52
100984.77
101048.63
101106.53
101161.65
101211.08
101258.25
101301.72
101341.71
101377.71
101412.46
101433.02
101451.39
101439.61
101426.46
101348.6
99043.831
99218.145
99388.612
99553.869
99713.369
99866.671
100012.13
100148.99
100277.29
100396.12
100505.28
100604.93
100693.58
100777.6
100857.58
100930.48
100997.63
101059.57
101115.63
101169.21
101217.49
101263.58
101305.92
101345.23
101380.71
101414.78
101434.66
101452.28
101440.18
101426.44
101348.48
99074.629
99255.923
99428.586
99594.176
99753.279
99906.1
100049.81
100184.76
100311.35
100425.96
100529.92
100625.28
100713.3
100797.7
100874.91
100945.45
101010.44
101070.38
101124.58
101176.6
101223.78
101268.79
101310.02
101348.66
101383.65
101417.06
101436.27
101453.1
101440.79
101426.42
101348.26
99110.489
99297.84
99473.493
99639.888
99801.252
99955.055
100093.43
100221.87
100343.53
100454.1
100554.21
100648.05
100736.88
100818.25
100892.42
100960.47
101023.19
101081.09
101133.38
101183.85
101229.94
101273.88
101314.02
101352.02
101386.53
101419.32
101437.85
101453.86
101441.44
101426.44
101348.13
99219.317
99386.605
99546.702
99701.237
99857.968
100006.78
100138.87
100262.49
100376.7
100484.22
100585.41
100676.76
100761.51
100839.11
100910.16
100975.53
101035.88
101091.7
101142.03
101190.93
101235.96
101278.85
101317.91
101355.3
101389.34
101421.55
101439.4
101454.55
101442.12
101426.56
101349.25
99440.726
99576.862
99706.13
99837.602
99960.714
100077.79
100201.99
100318.43
100425.35
100526.31
100620.8
100707.01
100786.79
100860.44
100928.13
100990.63
101048.53
101102.19
101150.53
101197.85
101241.84
101283.67
101321.69
101358.51
101392.08
101423.75
101440.91
101455.18
101442.83
101426.8
101352.11
99644.682
99761.893
99867.047
99972.306
100076.1
100179.4
100283.29
100384.75
100480.85
100572.33
100658.5
100738.41
100812.94
100882.3
100946.34
101005.78
101061.12
101112.58
101158.88
101204.6
101247.59
101288.35
101325.36
101361.63
101394.75
101425.91
101442.4
101455.77
101443.58
101427.12
101354.26
99881.171
99971.008
100046.94
100124.81
100206.11
100289.2
100373.43
100458.05
100540.73
100621.28
100698.52
100771.33
100840.05
100904.69
100964.79
101020.98
101073.67
101122.86
101167.07
101211.21
101253.19
101292.88
101328.92
101364.68
101397.35
101428.02
101443.87
101456.33
101444.37
101427.52
101356.04
100147.35
100205.55
100248.09
100295.19
100349.26
100408.42
100471.66
100537.96
100605.44
100673.72
100741.06
100805.91
100868.16
100927.64
100983.49
101036.23
101086.16
101133.01
101175.11
101217.66
101258.63
101297.24
101332.36
101367.64
101399.87
101430.06
101445.33
101456.88
101445.18
101428
101357.35
100441.11
100463.95
100469.63
100482.65
100506.04
100538.32
100578.35
100624.7
100675.19
100729.79
100786.17
100842.16
100897.26
100951.14
101002.44
101051.52
101098.58
101143.04
101183
101223.99
101263.9
101301.45
101335.68
101370.53
101402.29
101431.99
101446.78
101457.43
101446.03
101428.56
101358.39
100757.57
100741.99
100708.28
100685.08
100675.23
100678.13
100693.13
100718.21
100749.98
100789.47
100833.86
100880.09
100927.35
100975.18
101021.62
101066.82
101110.9
101152.92
101190.78
101230.24
101268.98
101305.52
101338.91
101373.34
101404.6
101433.76
101448.26
101457.97
101446.9
101429.18
101359.27
101095.24
101037.34
100962.11
100902.28
100857.59
100828.85
100817.06
100819.93
100831.01
100853.44
100884.51
100919.92
100958.47
100999.71
101040.97
101082.08
101123.1
101162.66
101198.5
101236.42
101273.91
101309.51
101342.07
101376.07
101406.79
101435.37
101449.76
101458.49
101447.78
101429.88
101360.07
101465.83
101363.84
101249.46
101152.2
101068.53
101002.27
100958.68
100936.05
100922.54
100924.22
100939.48
100962.37
100990.93
101024.84
101060.52
101097.31
101135.16
101172.26
101206.19
101242.55
101278.74
101313.43
101345.19
101378.7
101408.85
101436.89
101451.39
101459.08
101448.68
101430.7
101360.69
101830.54
101718.03
101595.1
101460.96
101333
101218.69
101133.55
101075.46
101030.39
101005.78
101001.29
101009.18
101025.93
101051.42
101080.88
101112.94
101147.39
101181.91
101213.96
101248.68
101283.49
101317.28
101348.28
101381.14
101410.87
101438.6
101453.4
101460.02
101449.67
101431.7
101361.06
100246.56
100218.5
100187.74
100159.12
100137.56
100128.76
100135.9
100158.42
100197.49
100252.38
100320.94
100400.11
100486.65
100577.41
100667.65
100756.17
100842.94
100924.87
101000.46
101071.4
101135.84
101195.29
101250.85
101300.15
101342.93
101384.54
101412.53
101438.29
101434.32
101425.38
101351.78
100259.91
100233.33
100207.29
100185.91
100168.25
100160.57
100165.05
100183.73
100218.38
100268.61
100332.64
100407.74
100490.77
100578.66
100667.11
100754.35
100840.05
100921.38
100996.92
101067.78
101132.71
101192.43
101248.35
101298.06
101341.31
101382.96
101411.8
101437.37
101434.38
101425.5
101352.45
100265.63
100244.55
100223.93
100206.2
100193.83
100188.72
100193.28
100210.26
100241.66
100287.69
100347.23
100418.01
100497.17
100581.79
100667.87
100753.52
100837.92
100918.44
100993.66
101064.59
101129.63
101189.63
101245.86
101295.94
101339.69
101381.46
101410.87
101436.29
101434.19
101425.38
101353.43
100274.87
100259.99
100245.25
100231.34
100221.81
100218.19
100222.86
100238.35
100266.62
100308.43
100363.25
100429.39
100504.37
100585.44
100668.89
100752.72
100835.79
100915.48
100990.3
101061.44
101126.44
101186.78
101243.3
101293.75
101338
101379.88
101409.69
101435.03
101433.76
101425.08
101354.78
100284.21
100274.59
100264.74
100255.15
100248.33
100246.31
100251.37
100265.78
100291.48
100329.54
100379.94
100441.54
100512.27
100589.67
100670.32
100752.13
100833.71
100912.53
100986.96
101058.21
101123.33
101183.84
101240.66
101291.49
101336.26
101378.22
101408.36
101433.6
100292.14
100286.53
100280.72
100275.16
100271.51
100271.67
100277.73
100291.74
100315.6
100350.59
100397.09
100263.32
100274.26
100282.06
100288.39
100293.34
100256.32
100256.57
102384.45
102334.13
100240.08
100224.51
100212.58
100199.36
100190.15
100161.32
100133.12
100117.18
100109.82
99941.857
99996.642
99978.925
99964.933
99968.682
99980.125
99584.593
99703.898
99727.161
99752.993
99787.8
99822.242
99207.884
99381.202
99446.409
99512.407
99577.685
99637.24
98806.391
99061.248
99162.462
99254.208
99354.644
99450.905
98443.271
98756.949
98890.398
99016.125
99150.397
99274.79
98147.918
98503.936
98656.897
98808.985
98969.501
99117.568
97887.785
98303.049
98465.341
98637.344
98820.337
98989.301
97642.54
98154.029
98328.329
98513.796
98712.486
98897.92
97436.095
98037.274
98255.034
98456.336
98661.059
98854.229
97344.153
97939.065
98207.031
98441.974
98659.594
98858.461
97457.399
97936.691
98154.667
98418.41
98665.109
98883.139
97686.804
98118.3
98247.777
98473.756
98701.953
98921.54
97869.041
98335.329
98536.382
98695.447
98875.659
99068.854
98085.955
98531.475
98734.863
98938.494
99132.933
99321.099
98376.011
98799.925
98990.087
99178.523
99363.954
99543.905
98719.642
99119.194
99303.871
99475.165
99644.703
99812.096
99121.347
99492.566
99667.427
99816.122
99964.67
100115.32
99571.164
99912.079
100072.03
100196.1
100320.52
100450.6
100065.12
100371.41
100511.66
100608.63
100705.94
100811.91
100598.46
100860.78
100978.31
101046.89
101115.47
101195.9
101373.91
101465.85
101506.74
101548.49
101606.79
101963.25
101976.37
101986.41
102010.5
102516.46
102619.77
102699.53
102764.46
102806.1
102821.16
102815.04
102786.05
102743.49
102694.18
102636.58
102583.01
102518.9
102528.87
102466.1
102477.02
102411.24
102423.92
102352.02
102366.82
102284.71
102301.5
102212.91
102231.26
102133.35
102151.45
102056.96
102073.58
101984.88
101998.43
101931.97
101941.58
101896.33
101902.27
101876.12
101878.18
101881.84
101881.43
101883.28
101882.51
101890.78
101889.75
101903.54
101902.37
101916.3
101915.17
101968.71
101966.84
101978.45
101976.68
)
;

boundaryField
{
    Side1
    {
        type            empty;
    }
    Inlet
    {
        type            totalPressure;
        rho             rho;
        psi             none;
        gamma           1;
        p0              uniform 102920.87;
        value           nonuniform List<scalar> 
92
(
101276.81
101277.09
102920.87
102920.87
102920.87
101278.06
101278.67
102920.87
101280.52
101281.8
101283.22
101284.87
101286.64
101288.5
101290.32
101292.36
101294.39
102920.87
102920.87
101300.56
101303.14
102920.87
102920.87
102920.87
101338.77
101333.69
102920.87
101316.66
101345.3
101321.27
101328.54
101328.54
101328.54
101328.54
101328.54
101328.54
101328.54
101328.54
101328.54
101328.54
101328.54
101328.54
101328.54
101328.54
101328.54
101328.54
101328.54
101328.54
101328.54
101328.54
101328.54
101328.54
101328.54
101328.54
101328.54
101328.54
101328.54
101328.54
101328.54
101328.54
101339.87
101328.54
102920.87
102920.87
102920.87
102920.87
102920.87
102920.87
102920.87
102920.87
102920.87
102920.87
102920.87
102920.87
102920.87
102920.87
102920.87
101274.03
101274.38
101274.69
101275.02
101275.37
101275.72
101276.06
101276.37
101276.67
102920.87
102920.87
102920.87
102920.87
101328.54
101328.54
)
;
    }
    Side2
    {
        type            empty;
    }
    Outlet
    {
        type            freestreamPressure;
        freestreamValue nonuniform List<scalar> 0();
        value           nonuniform List<scalar> 0();
    }
    Botwall
    {
        type            zeroGradient;
    }
    Cyli
    {
        type            zeroGradient;
    }
    procBoundary2to0
    {
        type            processor;
        value           nonuniform List<scalar> 
55
(
100282.99
100289.17
100294.59
100297.43
100298.26
100273.98
100281.06
100263.48
100260.55
100260.55
102455.93
102434.16
102434.16
102808.83
102711.35
100251.87
100251.87
100159.76
100159.76
101156.71
101156.71
101898.02
101898.02
102804.89
102827.08
102865.25
102894.37
102903.12
102894.09
102868.81
102818.52
102757.15
102693.92
102632.6
102573.83
102573.83
102535.57
102478.07
102418.96
102355.86
102285.16
102210.35
102129.13
102051.9
101980.23
101928.44
101893.68
101875.09
101882.23
101884.06
101891.81
101904.69
101917.42
101970.51
101980.03
)
;
    }
    procBoundary2to3
    {
        type            processor;
        value           nonuniform List<scalar> 
35
(
101433.14
101424.67
101356.95
100454.44
100521.02
100594.7
100672.39
100751.98
100831.89
100909.71
100983.67
101054.75
101120.21
101180.92
101237.93
101289.14
101334.46
101376.47
101406.95
101433.14
101432.02
100298.79
100297.53
100296.5
100294.24
100292.3
100291.91
100294.59
100302.1
100316.31
100339
100371.55
100454.44
100414.67
100297.53
)
;
    }
}


// ************************************************************************* //
