/*--------------------------------*- C++ -*----------------------------------*\
| =========                 |                                                 |
| \\      /  F ield         | OpenFOAM: The Open Source CFD Toolbox           |
|  \\    /   O peration     | Version:  2406                                  |
|   \\  /    A nd           | Website:  www.openfoam.com                      |
|    \\/     M anipulation  |                                                 |
\*---------------------------------------------------------------------------*/
FoamFile
{
    version     2.0;
    format      ascii;
    arch        "LSB;label=32;scalar=64";
    class       volVectorField;
    location    "0.018";
    object      U;
}
// * * * * * * * * * * * * * * * * * * * * * * * * * * * * * * * * * * * * * //

dimensions      [0 1 -1 0 0 0 0];

internalField   nonuniform List<vector> 
23203
(
(26.005201 -5.7202794 0)
(28.715023 -5.8165895 8.2523857e-21)
(31.441015 -5.8570174 -8.1795757e-21)
(34.167881 -5.8657606 0)
(36.883994 -5.8467126 8.0540763e-21)
(39.57952 -5.8007463 0)
(42.249395 -5.7251305 1.5978985e-20)
(44.893263 -5.619419 0)
(47.512587 -5.4820664 3.2157833e-20)
(50.109521 -5.311343 -8.1258428e-21)
(52.683415 -5.1055655 2.4773646e-20)
(55.220286 -4.8633856 1.6869785e-20)
(57.660282 -4.5848565 -1.7266788e-20)
(59.810935 -4.2808233 1.7560249e-20)
(61.229323 -4.0073194 1.7594671e-20)
(61.81407 -3.8020909 0)
(61.94722 -3.6447196 0)
(61.88695 -3.4824045 -1.6947509e-20)
(61.748544 -3.3376241 2.4958864e-20)
(61.585692 -3.1923349 -2.4497215e-20)
(61.4135 -3.0475714 0)
(61.236858 -2.9039155 3.1464616e-20)
(61.057382 -2.7615938 0)
(26.132743 -5.9247763 1.6316481e-20)
(28.799824 -6.0167122 -1.6303765e-20)
(31.483419 -6.0548495 8.0850341e-21)
(34.168577 -6.0620428 0)
(36.843368 -6.0426439 -7.9677675e-21)
(39.498534 -5.9962999 0)
(42.128816 -5.9217584 -7.9070922e-21)
(44.733018 -5.8182352 -7.9154872e-21)
(47.312275 -5.6844475 -1.5910933e-20)
(49.86859 -5.5188243 0)
(52.401539 -5.3197264 0)
(54.89894 -5.0857621 1.6654237e-20)
(57.308423 -4.8165013 1.7025949e-20)
(59.460163 -4.5190308 0)
(60.943781 -4.2415497 -8.6877369e-21)
(61.587382 -4.0274179 8.584375e-21)
(61.747978 -3.8650798 0)
(61.705216 -3.6955014 -1.6754814e-20)
(61.574883 -3.5458203 -8.2248449e-21)
(61.416989 -3.3955438 -1.024166e-24)
(61.249402 -3.2461171 -7.9224318e-21)
(61.077404 -3.097818 1.776484e-24)
(60.902637 -2.9509822 0)
(26.256748 -6.119235 0)
(28.881772 -6.2076408 0)
(31.523625 -6.2441822 -7.9929997e-21)
(34.16763 -6.2504574 7.9347975e-21)
(36.801865 -6.2309132 7.8860777e-21)
(39.417403 -6.1850967 0)
(42.008903 -6.1120026 0)
(44.57455 -6.0108745 -1.5675029e-20)
(47.115024 -5.8806385 7.8754466e-21)
(49.632048 -5.7198776 -8.211252e-25)
(52.125274 -5.5270146 8.0646405e-21)
(54.58385 -5.3006203 -1.6439773e-20)
(56.96131 -5.0399302 0)
(59.106778 -4.7495106 8.5447014e-21)
(60.647756 -4.4695962 1.1966997e-24)
(61.350581 -4.2473149 -2.5439938e-20)
(61.540423 -4.0793577 0)
(61.515582 -3.904442 2.4839751e-20)
(61.393057 -3.7492318 1.190851e-24)
(61.240861 -3.5948553 1.5959394e-20)
(61.078393 -3.4407721 -7.8313108e-21)
(60.911257 -3.2881182 -2.305961e-20)
(60.741389 -3.1370183 -2.2634406e-20)
(26.378487 -6.3037169 0)
(28.961924 -6.3893389 0)
(31.562516 -6.4249176 -5.807306e-25)
(34.165897 -6.4308561 5.6558902e-25)
(36.760288 -6.4116105 -1.5604968e-20)
(39.336906 -6.3667967 0)
(41.890294 -6.2954769 0)
(44.418208 -6.1969541 2.3274084e-20)
(46.920886 -6.0703019 -1.558492e-20)
(49.399703 -5.9142389 7.7560179e-25)
(51.854248 -5.727262 -2.3916441e-20)
(54.274656 -5.5079289 0)
(56.619296 -5.2552988 8.2856233e-21)
(58.753655 -4.9725528 -2.5287815e-20)
(60.344277 -4.6929852 -1.6934251e-20)
(61.101306 -4.4653533 1.674537e-20)
(61.321799 -4.2923976 1.6561994e-20)
(61.318157 -4.1027991 -8.1845499e-21)
(61.203792 -3.9480904 1.6070674e-20)
(61.057913 -3.7889826 7.8868073e-21)
(60.900653 -3.630968 0)
(60.738493 -3.4744722 0)
(60.573741 -3.319351 2.9826805e-20)
(26.499126 -6.4783975 7.8540322e-21)
(29.041311 -6.5618978 0)
(31.601029 -6.5970725 7.8113398e-21)
(34.164231 -6.6031811 -7.7645193e-21)
(36.71932 -6.5846558 0)
(39.257577 -6.5411965 0)
(41.773419 -6.4719139 7.6758038e-21)
(44.264266 -6.3761664 7.6801546e-21)
(46.729944 -6.2531347 -1.5428402e-20)
(49.171445 -6.1016557 -7.7791131e-21)
(51.588193 -5.9203086 3.9400721e-20)
(53.971038 -5.7076673 2.4052388e-20)
(56.282351 -5.4626967 1.6352471e-20)
(58.402125 -5.1876227 8.3144809e-21)
(60.036631 -4.908137 1.6709138e-20)
(60.838674 -4.6758247 -8.2694564e-21)
(61.092458 -4.4888936 -8.1354929e-21)
(61.110371 -4.30814 0)
(61.008233 -4.1414048 -1.5882648e-20)
(60.86855 -3.9783369 0)
(60.716355 -3.8168987 0)
(60.559305 -3.656656 -1.5021127e-20)
(26.619684 -6.6435326 -7.7564652e-21)
(29.12084 -6.7255018 -1.1567762e-24)
(31.639969 -6.7607576 0)
(34.163339 -6.7674651 7.6779432e-21)
(36.679529 -6.7500147 7.6401607e-21)
(39.179861 -6.7081819 7.6128783e-21)
(41.658624 -6.6411291 -1.5192063e-20)
(44.112948 -6.5482646 7.6029248e-21)
(46.542276 -6.4288528 7.632397e-21)
(48.947203 -6.2818314 0)
(51.326926 -6.1058628 -1.5578383e-20)
(53.672801 -5.8995599 -1.583467e-20)
(55.950454 -5.6618663 -2.4201517e-20)
(58.051815 -5.3944292 -8.2031367e-21)
(59.715968 -5.1153439 8.2501898e-21)
(60.570791 -4.8766171 -8.1739266e-21)
(60.856717 -4.6820109 0)
(60.894246 -4.5057754 -7.9473197e-21)
(60.805474 -4.3283179 7.8485046e-21)
(60.672366 -4.1627583 7.70531e-21)
(60.525565 -3.9980893 -2.2688296e-20)
(60.373862 -3.8341898 2.2267812e-20)
(26.741079 -6.7994887 1.5318707e-20)
(29.201321 -6.880438 -1.5354283e-20)
(31.680041 -6.9161764 -1.1176981e-24)
(34.163815 -6.9238275 7.5946921e-21)
(36.641394 -6.9077276 0)
(39.104127 -6.8677213 -3.0126461e-20)
(41.546174 -6.8030231 -7.5190517e-21)
(43.964402 -6.7130838 7.5242105e-21)
(46.357889 -6.5972349 7.5540989e-21)
(48.726838 -6.4544978 -1.522273e-20)
(51.070179 -6.2836079 2.3102994e-20)
(53.379622 -6.0832151 0)
(55.623541 -5.8522732 1.5921642e-20)
(57.704394 -5.5919945 1.6185787e-20)
(59.385737 -5.3149843 8.1441671e-21)
(60.294537 -5.0708703 -8.0784527e-21)
(60.614718 -4.8695182 1.5894659e-20)
(60.670851 -4.695058 7.8514878e-21)
(60.595361 -4.509581 -2.3270814e-20)
(60.469347 -4.3417154 1.522999e-20)
(60.328361 -4.1738267 2.2421608e-20)
(60.182267 -4.0064603 -7.3356143e-21)
(26.864105 -6.9467463 1.5124729e-20)
(29.28344 -7.0270939 -1.5167909e-20)
(31.721824 -7.0636193 1.5089552e-20)
(34.166138 -7.0724645 -7.5075208e-21)
(36.605294 -7.0579062 7.4760278e-21)
(39.030652 -7.0198586 7.4501529e-21)
(41.436243 -6.9575803 7.4403074e-21)
(43.818684 -6.8705541 -7.4455681e-21)
(46.176709 -6.7581626 -7.4739542e-21)
(48.510134 -6.6194973 7.5276433e-21)
(50.817589 -6.4533602 -1.5222169e-20)
(53.091008 -6.2584351 -1.5451309e-20)
(55.30103 -6.0336712 -1.5716525e-20)
(57.359074 -5.7798772 -2.394583e-20)
(59.049965 -5.5059916 1.6072781e-20)
(60.008713 -5.2578487 -1.5961394e-20)
(60.365982 -5.0501702 -7.8500648e-21)
(60.440675 -4.875587 -1.5512726e-20)
(60.378674 -4.6834428 -2.3976918e-24)
(60.259839 -4.513755 -2.2573103e-20)
(60.125098 -4.3430323 7.3856671e-21)
(59.984722 -4.172647 7.2505556e-21)
(26.989413 -7.0858767 1.0341444e-25)
(29.367743 -7.1659519 -7.4900999e-21)
(31.765763 -7.2034733 -4.260789e-25)
(34.170659 -7.2136631 1.4844616e-20)
(36.571507 -7.2007475 7.3926376e-21)
(38.959653 -7.1647221 -7.3702628e-21)
(41.328955 -7.1048774 0)
(43.675803 -7.0207033 0)
(45.998616 -6.9116153 2.2180769e-20)
(48.296833 -6.7767655 -2.2334287e-20)
(50.568764 -6.6150169 0)
(52.806454 -6.4250801 2.2888995e-20)
(54.982397 -6.2058729 3.8773713e-20)
(57.015597 -5.9578199 7.8742338e-21)
(58.709738 -5.687376 -1.5859751e-20)
(59.714998 -5.4360651 7.881563e-21)
(60.109523 -5.2228683 0)
(60.202288 -5.0475886 1.5320569e-20)
(60.155531 -4.8489909 7.5715252e-21)
(60.045189 -4.6782508 8.4709315e-25)
(59.916527 -4.5048187 -2.1896727e-20)
(59.78178 -4.332093 -1.4327749e-20)
(27.117535 -7.2175056 -7.618321e-25)
(29.454647 -7.2975768 0)
(31.812128 -7.3362297 0)
(34.177501 -7.3478045 -7.333449e-21)
(36.540086 -7.3365263 0)
(38.891165 -7.3025334 0)
(41.224251 -7.2451226 0)
(43.535584 -7.1636945 -7.2860747e-21)
(45.823324 -7.0576924 1.4626138e-20)
(48.086538 -6.9263411 7.3589743e-21)
(50.323177 -6.7685639 0)
(52.525298 -6.5830862 -7.5334057e-21)
(54.666882 -6.3687679 -2.2957801e-20)
(56.673377 -6.1256858 0)
(58.365317 -5.8585773 -1.5649785e-20)
(59.413766 -5.60441 0)
(59.846089 -5.3860342 0)
(59.957384 -5.2091584 -7.5669162e-21)
(59.926438 -5.008957 -3.2528801e-24)
(59.825131 -4.8347455 -7.3479429e-21)
(59.702685 -4.6593996 7.2102621e-21)
(59.573884 -4.4844083 2.123863e-20)
(27.248839 -7.3422581 -7.2678767e-21)
(29.544377 -7.4227105 -4.0145445e-25)
(31.860992 -7.4628 7.2712527e-21)
(34.186672 -7.4758838 7.2451885e-21)
(36.511488 -7.4662172 -1.4442864e-20)
(38.825908 -7.4339258 -7.206036e-21)
(41.122526 -7.3787755 0)
(43.398119 -7.299787 7.2042559e-21)
(45.650698 -7.1965006 -2.1685063e-20)
(47.878928 -7.0682536 -1.4552718e-20)
(50.08035 -6.9140124 0)
(52.246916 -6.7324943 -1.4883695e-20)
(54.353793 -6.522496 0)
(56.331962 -6.2838709 0)
(58.017171 -6.0203962 -2.9654687e-24)
(59.104982 -5.7643205 0)
(59.57524 -5.5419759 -7.5638805e-21)
(59.707146 -5.3634255 -2.2418266e-20)
(59.692953 -5.1563439 1.478266e-20)
(59.599065 -4.982601 1.4514641e-20)
(59.484068 -4.8055893 -7.1256083e-21)
(59.361392 -4.6288786 -6.9940528e-21)
(27.384795 -7.4607202 -9.6961825e-25)
(29.638918 -7.5420892 0)
(31.914767 -7.5844822 -7.1774583e-21)
(34.200019 -7.6004193 -7.1544792e-21)
(36.483365 -7.5981584 6.9574112e-21)
(38.760223 -7.5622811 -1.6494163e-24)
(41.020986 -7.5080725 7.1127767e-21)
(43.261593 -7.430272 7.120894e-21)
(45.479544 -7.3287654 -7.1449723e-21)
(47.673128 -7.2029184 1.4378365e-20)
(49.839544 -7.0516138 7.2576021e-21)
(51.970635 -6.8734821 7.3456873e-21)
(54.042584 -6.6672139 -7.4525751e-21)
(55.991286 -6.4324863 1.5109906e-20)
(57.666588 -6.1727377 -2.3279312e-24)
(58.79059 -5.9155336 -2.2758108e-20)
(59.296977 -5.688555 1.4931411e-20)
(59.446507 -5.5104149 1.4755987e-20)
(59.452886 -5.2942317 1.460449e-20)
(59.369819 -5.1225847 0)
(59.26206 -4.942794 0)
(59.144858 -4.7657408 0)
(27.524594 -7.5702712 7.059368e-21)
(29.736944 -7.6510746 0)
(31.971875 -7.6937392 7.0786123e-21)
(34.217284 -7.7100667 7.0598173e-21)
(36.46213 -7.7018361 6.8050921e-21)
(38.697866 -7.6764431 -7.0318933e-21)
(40.92147 -7.6251949 -2.1082229e-20)
(43.12665 -7.550462 0)
(45.309869 -7.45195 1.4121545e-20)
(47.468822 -7.3290241 -7.1035054e-21)
(49.600262 -7.1807139 7.1674428e-21)
(51.69585 -7.0057602 -7.2529895e-21)
(53.732627 -6.8028503 7.3522357e-21)
(55.650856 -6.5714817 1.4901767e-20)
(57.313196 -6.3148196 3.0041055e-20)
(58.469415 -6.0567156 -7.4899521e-21)
(59.011289 -5.8263273 1.4749338e-20)
(59.181431 -5.6345124 2.8955884e-20)
(59.204754 -5.4397651 -3.5810823e-20)
(59.137514 -5.2523881 0)
(59.036108 -5.0728317 0)
(58.924414 -4.8954781 6.8271476e-21)
(27.666799 -7.6739664 7.797132e-26)
(29.836294 -7.7547986 9.9962478e-25)
(32.029182 -7.79848 0)
(34.234029 -7.8161909 -6.9637839e-21)
(36.440992 -7.8095107 9.6872865e-25)
(38.640152 -7.785235 2.0819653e-20)
(40.826505 -7.7358935 -1.6070035e-24)
(42.995202 -7.663519 2.7796483e-20)
(45.142774 -7.5675256 -2.0917934e-20)
(47.266475 -7.447184 0)
(49.362532 -7.3015633 0)
(51.422304 -7.1294613 0)
(53.423488 -6.9295841 0)
(55.310142 -6.7013329 -2.2035916e-20)
(56.956406 -6.4475892 -1.4812864e-20)
(58.140775 -6.1884565 1.4777097e-20)
(58.717774 -5.9565121 -7.2849016e-21)
(58.914381 -5.7553051 -1.430508e-20)
(58.952762 -5.5708627 1.4142522e-20)
(58.899847 -5.3728898 0)
(58.80575 -5.1951443 0)
(58.700282 -5.0172128 -6.7437344e-21)
(27.812768 -7.772638 6.8428421e-21)
(29.939207 -7.8538986 1.9643738e-24)
(32.089995 -7.8989283 -6.8774688e-21)
(34.25408 -7.9181514 -9.7262556e-25)
(36.421708 -7.9147214 6.4127381e-25)
(38.583671 -7.8895287 0)
(40.733063 -7.8414865 -1.3698914e-20)
(42.865398 -7.7705919 -1.3718284e-20)
(44.977201 -7.6763105 -6.8849984e-21)
(47.065412 -7.5579202 6.9259426e-21)
(49.125831 -7.4144677 0)
(51.149555 -7.2447433 7.0632753e-21)
(53.11487 -7.0474637 -7.1528096e-21)
(54.969261 -6.8220452 0)
(56.596959 -6.5715371 -2.9278549e-24)
(57.80437 -6.3111007 0)
(58.417847 -6.0764908 -7.1969681e-21)
(58.64339 -5.869136 -7.0647634e-21)
(58.695996 -5.6900107 1.3964734e-20)
(58.657089 -5.4867292 -1.3815468e-20)
(58.571932 -5.3097748 0)
(58.472842 -5.1310563 0)
(27.96279 -7.8659552 1.3460673e-20)
(30.045863 -7.9474826 1.5873649e-24)
(32.154261 -7.9935835 0)
(34.277134 -8.013947 -6.7648939e-21)
(36.404609 -8.0118657 -6.7574552e-21)
(38.527907 -7.9876022 1.3507698e-20)
(40.640077 -7.9407341 6.7532896e-21)
(42.736094 -7.8710384 1.5205828e-24)
(44.81213 -7.7780902 2.7179923e-20)
(46.864764 -7.6612227 -6.8352213e-21)
(48.889414 -7.5194935 0)
(50.876951 -7.3517018 1.3936005e-20)
(52.806255 -7.156589 -1.410739e-20)
(54.62811 -6.9336512 1.4276197e-20)
(56.236811 -6.6860438 -2.8999211e-24)
(57.457431 -6.4254835 -1.4383931e-20)
(58.110955 -6.1868505 1.4217314e-20)
(58.368103 -5.9745954 1.3953135e-20)
(58.436377 -5.7971522 -6.8895142e-21)
(58.411245 -5.5928633 2.0458466e-20)
(58.3343 -5.415592 6.6982185e-21)
(58.242163 -5.2368233 1.0658704e-24)
(28.116548 -7.9538949 0)
(30.155689 -8.0355083 3.3383308e-25)
(32.221087 -8.0824752 -3.3325431e-20)
(34.302132 -8.1037972 1.9979298e-20)
(36.389037 -8.1026861 -1.531149e-24)
(38.473227 -8.0793531 -1.3309901e-20)
(40.547702 -8.0334377 1.3322476e-20)
(42.607065 -7.9647044 1.1978458e-24)
(44.647094 -7.8727928 -2.6810013e-20)
(46.66396 -7.7570872 0)
(48.652678 -7.6166819 1.36e-20)
(50.603909 -7.450413 -1.3739659e-20)
(52.497107 -7.257064 -2.9321424e-24)
(54.286145 -7.0361772 -1.4064576e-20)
(55.874544 -6.7908232 2.8363969e-20)
(57.103104 -6.5310561 2.1271501e-20)
(57.796937 -6.2891187 -2.1046502e-20)
(58.086264 -6.0730317 -1.377074e-20)
(58.171477 -5.8966061 -1.3602263e-20)
(58.163091 -5.6844815 1.3466869e-20)
(58.094282 -5.5116196 6.6134379e-21)
(58.00955 -5.3326297 -1.948362e-20)
(28.27381 -8.0364275 -6.4977457e-21)
(30.268422 -8.1179595 6.5532644e-21)
(32.29021 -8.1656169 1.3108828e-20)
(34.328858 -8.1877279 0)
(36.374741 -8.1873728 1.3106156e-20)
(38.419375 -8.1647703 1.3113154e-20)
(40.45567 -8.1195745 -1.3125814e-20)
(42.477951 -8.0515542 -1.7642052e-24)
(44.481628 -7.9603835 3.9651049e-20)
(46.46245 -7.8454886 6.1811867e-25)
(48.415021 -7.7060052 -5.3632312e-20)
(50.329791 -7.5408123 1.3545406e-20)
(52.186773 -7.3487274 1.3700988e-20)
(53.942725 -7.1292614 0)
(55.509573 -6.8852048 1.0377116e-24)
(56.742675 -6.6259987 1.011617e-24)
(57.47702 -6.3809955 0)
(57.798533 -6.1603572 2.7178333e-20)
(57.89812 -5.9840872 1.6074172e-24)
(57.909108 -5.771986 -1.3291051e-20)
(57.854224 -5.5980502 -1.3055965e-20)
(57.776356 -5.4192513 1.2824642e-20)
(28.434333 -8.1134704 1.2752675e-20)
(30.383821 -8.1947543 6.4376789e-21)
(32.361394 -8.2429307 6.4422212e-21)
(34.357063 -8.2656571 -2.5776101e-20)
(36.3614 -8.2658637 1.2895906e-20)
(38.365972 -8.2437797 -1.2905444e-20)
(40.363583 -8.1990731 -1.2927936e-20)
(42.348317 -8.1315137 1.296566e-20)
(44.315234 -8.040794 1.7343892e-24)
(46.259664 -7.9263738 1.7071554e-24)
(48.175795 -7.7874294 1.3213245e-20)
(50.053856 -7.6228829 -1.3349408e-20)
(51.87437 -7.4315851 -1.3498733e-20)
(53.596758 -7.2129964 1.3645884e-20)
(55.140596 -6.9694972 1.7224786e-24)
(56.374757 -6.7100085 -1.3772622e-20)
(57.148792 -6.4615049 0)
(57.505402 -6.2384658 -1.3417301e-20)
(57.625291 -6.0487663 -1.3158385e-20)
(57.650252 -5.8624631 -1.5181085e-24)
(57.612391 -5.6739182 1.4553241e-24)
(57.541639 -5.4982281 -7.4227347e-25)
(28.597846 -8.1849031 1.1521802e-25)
(30.501615 -8.2657716 -6.3166392e-21)
(32.434342 -8.3142903 6.3261206e-21)
(34.386406 -8.3374424 0)
(36.348624 -8.3380098 -1.9016895e-20)
(38.312609 -8.3162484 -1.6650499e-24)
(40.271001 -8.2718325 1.2727002e-20)
(42.217675 -8.204501 -1.2768224e-20)
(44.147372 -8.1139556 1.2828362e-20)
(46.055013 -7.9996926 -2.5822657e-20)
(47.934368 -7.8609354 0)
(49.775435 -7.6966594 2.629543e-20)
(51.5592 -7.5057721 0)
(53.247522 -7.2877451 0)
(54.766916 -7.0446984 0)
(55.998802 -6.7851745 -1.3568069e-20)
(56.810884 -6.532925 2.6937496e-20)
(57.205213 -6.308313 6.6574221e-25)
(57.353034 -6.109824 -1.2998722e-20)
(57.392253 -5.9336623 -1.2848918e-20)
(57.368022 -5.7393576 -1.2718551e-20)
(57.304751 -5.5667433 -1.2496643e-20)
(28.764018 -8.25059 1.2254421e-20)
(30.621465 -8.3309559 0)
(32.508699 -8.3797347 -6.206548e-21)
(34.416549 -8.4031741 -6.2183814e-21)
(36.336272 -8.4039008 -6.2291243e-21)
(38.259267 -8.3821673 1.2481411e-20)
(40.177784 -8.3378135 -1.2515841e-20)
(42.085747 -8.2704347 0)
(43.977652 -8.1797591 0)
(45.84802 -8.0653378 1.2711004e-20)
(47.69021 -7.9264423 1.2819616e-20)
(49.493996 -7.7621033 -1.2943309e-20)
(51.240824 -7.5713005 0)
(52.894883 -7.3535679 0)
(54.389144 -7.1109342 -2.6652086e-20)
(55.616463 -6.8521152 1.3361206e-20)
(56.463387 -6.5964065 -1.3281325e-20)
(56.897996 -6.3688129 1.3088475e-20)
(57.075911 -6.1645509 -2.5661554e-20)
(57.130436 -5.9928673 0)
(57.12184 -5.7917398 1.2547311e-20)
(57.067789 -5.6241603 1.2329706e-20)
(28.933092 -8.3103603 1.2000917e-20)
(30.743867 -8.3902316 -6.070981e-21)
(32.58511 -8.4394374 1.2173379e-20)
(34.447817 -8.4635152 6.1003753e-21)
(36.322991 -8.4663785 -5.9871967e-21)
(38.204136 -8.4427097 2.4528534e-20)
(40.082398 -8.3978482 -1.2305595e-20)
(41.95137 -8.329814 0)
(43.805176 -8.2384872 0)
(45.637948 -8.1234812 0)
(47.442676 -7.9840839 -1.2613603e-20)
(49.208958 -7.819358 1.0796848e-24)
(50.918732 -7.6283477 -1.2875601e-20)
(52.538482 -7.4106589 2.6011934e-20)
(54.007385 -7.1682596 1.3105938e-20)
(55.229827 -6.9095834 0)
(56.103709 -6.6514256 2.6161798e-20)
(56.583862 -6.4187302 -2.5816438e-20)
(56.793962 -6.2089198 5.0617183e-20)
(56.862549 -6.0390427 1.3370401e-24)
(56.871958 -5.8384181 1.237823e-20)
(56.832366 -5.6714843 -1.2165223e-20)
(29.104327 -8.3624708 -5.8707536e-21)
(30.867998 -8.4410825 -2.3781805e-20)
(32.662821 -8.4898546 1.1928554e-20)
(34.480165 -8.51366 1.1964804e-20)
(36.311331 -8.5140792 -1.7417183e-20)
(38.148506 -8.4931862 -2.4079514e-20)
(39.985341 -8.4483945 2.4172373e-20)
(41.814561 -8.3803051 -1.2144404e-20)
(43.629706 -8.288756 2.4430446e-20)
(45.424443 -8.1733622 -3.6909509e-20)
(47.191373 -8.0334986 2.4815908e-20)
(48.919933 -7.8683415 -2.5057158e-20)
(50.592561 -7.6770582 1.2659254e-20)
(52.177935 -7.4593674 -1.2786376e-20)
(53.620994 -7.2171598 1.2888399e-20)
(54.836699 -6.9581497 1.0233292e-24)
(55.732365 -6.6975962 1.2879012e-20)
(56.259687 -6.4593151 -1.2727788e-20)
(56.506049 -6.2465587 2.2257189e-24)
(56.595645 -6.0633474 -3.674592e-20)
(56.619338 -5.8863216 1.2120881e-20)
(56.596656 -5.7066295 0)
(29.276599 -8.4077645 0)
(30.99249 -8.4851471 -1.2049538e-24)
(32.740145 -8.5335653 0)
(34.511535 -8.5572177 5.8622644e-21)
(36.298684 -8.5571408 -5.8135722e-21)
(38.092843 -8.536218 2.3625542e-20)
(39.887653 -8.4911986 1.4373287e-24)
(41.676149 -8.4228829 -2.3856878e-20)
(43.451733 -8.3310011 1.2002237e-20)
(45.207721 -8.2151491 1.2090734e-20)
(46.936345 -8.0747655 0)
(48.626882 -7.9091319 0)
(50.262263 -7.7175448 0)
(51.813238 -7.4998496 0)
(53.230016 -7.2578769 -2.5329373e-20)
(54.436998 -6.9986252 -1.2708417e-20)
(55.34999 -6.736571 1.2674995e-20)
(55.924497 -6.4924166 0)
(56.210491 -6.2772747 -1.2338488e-20)
(56.327509 -6.0853712 2.4186871e-20)
(56.365268 -5.9184142 1.1949953e-20)
(56.358514 -5.7295441 1.1507733e-24)
(29.450201 -8.4462668 -5.6091317e-21)
(31.11804 -8.5224926 2.8444922e-20)
(32.818149 -8.5706548 -1.1429144e-20)
(34.542959 -8.594228 -5.7388336e-21)
(36.284774 -8.5947521 -5.7639996e-21)
(38.035588 -8.5725123 -4.6314313e-25)
(39.788021 -8.5269983 9.6010608e-25)
(41.535307 -8.4581098 1.1705088e-20)
(43.270776 -8.365593 -2.3572169e-20)
(44.987492 -8.2490784 0)
(46.677401 -8.1080506 -1.1982833e-20)
(48.329682 -7.9418689 -1.3506394e-24)
(49.927775 -7.7499435 -1.2225884e-20)
(51.444402 -7.5322395 0)
(52.834638 -7.2905502 1.2438423e-20)
(54.031523 -7.0312406 0)
(54.959167 -6.7680392 1.2466928e-20)
(55.576066 -6.5188362 -2.4716285e-20)
(55.907143 -6.2987722 -1.2169504e-20)
(56.055506 -6.1002153 -1.1926596e-20)
(56.107239 -5.9358412 -1.1397675e-24)
(56.117247 -5.7487821 -1.1664397e-20)
(29.62501 -8.4772126 -1.6431156e-20)
(31.244614 -8.5520705 1.6678192e-20)
(32.896866 -8.5997605 0)
(34.574605 -8.6230377 5.6163047e-21)
(36.270408 -8.6233911 -5.6432916e-21)
(37.976607 -8.6008055 0)
(39.685959 -8.5548676 0)
(41.391518 -8.4854098 -1.1485224e-20)
(43.086411 -8.3922368 2.3128084e-20)
(44.763448 -8.2750377 -1.1659458e-20)
(46.414341 -8.1333607 1.1765236e-20)
(48.028224 -7.9666554 1.187919e-20)
(49.589068 -7.7744529 1.2000622e-20)
(51.071471 -7.5568442 -2.4237028e-20)
(52.434972 -7.3156157 2.4423313e-20)
(53.62049 -7.0565889 -1.2261404e-20)
(54.560365 -6.7923051 0)
(55.213404 -6.5392805 0)
(55.593391 -6.3126203 -8.7708578e-25)
(55.777345 -6.1110807 -8.5611309e-25)
(55.849906 -5.9345251 1.1542701e-20)
(55.873193 -5.768342 1.1419322e-20)
(29.800453 -8.5001903 -5.3448806e-21)
(31.371561 -8.5735429 -1.0857486e-20)
(32.975522 -8.6206804 0)
(34.605652 -8.6436591 1.0478786e-24)
(36.2556 -8.6437101 0)
(37.916412 -8.620767 -8.2139304e-25)
(39.581865 -8.5744007 -1.1177882e-20)
(41.244996 -8.5044402 2.250815e-20)
(42.898729 -8.4107036 -2.2679682e-20)
(44.535635 -8.2929168 1.1433105e-20)
(46.147217 -8.1506939 -2.3082207e-20)
(47.722603 -7.9835853 -3.0728556e-25)
(49.246304 -7.7912532 1.1775123e-20)
(50.694694 -7.5739204 2.377574e-20)
(52.031391 -7.3333824 -2.3961213e-20)
(53.204399 -7.0749738 1.2032652e-20)
(54.153694 -6.8099132 1.2027869e-20)
(54.838414 -6.5540921 -1.1959379e-20)
(55.267075 -6.3206154 1.1818369e-20)
(55.491458 -6.115328 0)
(55.591351 -5.9306163 -8.1371036e-25)
(55.627147 -5.7729389 -2.2500555e-20)
(29.976335 -8.5149512 1.5633597e-20)
(31.498965 -8.5866752 -2.6765556e-25)
(33.054624 -8.6329766 -4.7819203e-25)
(34.636499 -8.6560244 1.0730739e-20)
(36.239436 -8.6557173 0)
(37.854169 -8.6319611 2.1734454e-20)
(39.475505 -8.5855277 -1.0941812e-20)
(41.09577 -8.5151731 0)
(42.707861 -8.4209944 0)
(44.304221 -8.3027651 1.1206645e-20)
(45.876227 -8.16016 1.1795018e-24)
(47.413053 -7.9928319 1.142972e-20)
(48.899768 -7.8005776 -1.1546088e-20)
(50.314417 -7.5837493 1.1655537e-20)
(51.624317 -7.3441518 -1.1746188e-20)
(52.783809 -7.0866964 0)
(53.739954 -6.8213869 1.180371e-20)
(54.453492 -6.5629288 0)
(54.925626 -6.3242788 -1.1629462e-20)
(55.196007 -6.1124492 0)
(55.328165 -5.9232405 1.1229408e-20)
(55.381225 -5.7572026 -9.793702e-25)
(30.152069 -8.5212081 0)
(31.626089 -8.5911976 5.1670967e-21)
(33.133091 -8.6365428 4.6821867e-25)
(34.667368 -8.6597002 1.370869e-24)
(36.222046 -8.6592134 4.2489224e-25)
(37.791277 -8.6346395 -2.1248232e-20)
(39.367593 -8.5882304 1.0702704e-20)
(40.944271 -8.5176233 0)
(42.514132 -8.4231807 -1.0879529e-20)
(44.069508 -8.3047093 2.1955289e-20)
(45.601685 -8.1619445 -2.2168723e-20)
(47.099921 -7.9946431 -1.1195947e-20)
(48.549848 -7.8027361 3.3933338e-20)
(49.931072 -7.5867009 -2.2837906e-20)
(51.21424 -7.3483512 2.3017223e-20)
(52.359306 -7.0922309 -2.3130793e-20)
(53.319796 -6.8272591 -2.3146524e-20)
(54.058718 -6.5666894 2.3055867e-20)
(54.570727 -6.3237653 -8.8881508e-25)
(54.887792 -6.1049943 0)
(55.057496 -5.9116589 -1.1088303e-20)
(55.135279 -5.7375594 1.0868991e-20)
(30.327589 -8.5189067 0)
(31.753227 -8.5870882 5.0354136e-21)
(33.211853 -8.6319989 0)
(34.697925 -8.6538571 -5.1106589e-21)
(36.203867 -8.6531193 0)
(37.72659 -8.629412 -1.0378431e-20)
(39.257793 -8.5824823 -1.0788701e-24)
(40.790552 -8.5118472 0)
(42.317791 -8.4173882 3.1927503e-20)
(43.831848 -8.2989313 -2.1484772e-20)
(45.324006 -8.1562886 1.0848855e-20)
(46.78367 -7.9893227 0)
(48.197045 -7.7980918 -2.21458e-20)
(49.545196 -7.5831896 3.35377e-20)
(50.801753 -7.346433 -1.1267401e-20)
(51.931604 -7.0920314 2.2651415e-20)
(52.894097 -6.8279481 0)
(53.654988 -6.5660254 1.1306333e-20)
(54.204317 -6.3189812 -1.1223028e-20)
(54.564674 -6.0947198 0)
(54.777081 -5.8946276 7.7336486e-25)
(54.885156 -5.7158811 -8.7796052e-25)
(30.502433 -8.5079712 9.626729e-21)
(31.879682 -8.5742885 -1.471048e-20)
(33.289572 -8.6183705 0)
(34.726981 -8.6397333 1.4950681e-20)
(36.186227 -8.6388192 -1.0047229e-20)
(37.661706 -8.615258 -5.0655457e-21)
(39.146951 -8.5684288 1.0215565e-20)
(40.635199 -8.498006 0)
(42.119365 -8.4038078 1.7160137e-24)
(43.591778 -8.2856822 0)
(45.043752 -8.1435077 -1.061222e-20)
(46.464888 -7.9772441 0)
(47.841969 -7.7870699 0)
(49.157419 -7.5736857 -1.0934431e-20)
(50.38752 -7.3389063 1.1023826e-20)
(51.501464 -7.0866348 -1.1082013e-20)
(52.463761 -6.8239916 -1.1104669e-20)
(53.243158 -6.5615269 -2.2155916e-20)
(53.826696 -6.3110579 2.2014124e-20)
(54.228476 -6.0814988 0)
(54.483106 -5.8752116 -2.1510714e-20)
(54.627305 -5.6912211 1.0575185e-20)
(30.676476 -8.4884285 -9.3630932e-21)
(32.005661 -8.5529004 9.5451391e-21)
(33.367136 -8.5961905 -4.8142486e-21)
(34.756229 -8.6172739 -4.8549126e-21)
(36.167731 -8.6162879 0)
(37.596096 -8.5928059 4.9398743e-21)
(39.035243 -8.5462709 9.9697604e-21)
(40.478672 -8.4763081 1.0063681e-20)
(41.919434 -8.3826876 -2.0319902e-20)
(43.349938 -8.2652617 -2.0525729e-20)
(44.761605 -8.123957 1.0368385e-20)
(46.14428 -7.958818 6.9468148e-25)
(47.485337 -7.7701308 1.0586566e-20)
(48.768457 -7.5586914 1.0689118e-20)
(49.972276 -7.3263078 9.4199198e-25)
(51.06971 -7.0766029 -1.0836567e-20)
(52.02979 -6.8159458 2.1725726e-20)
(52.824296 -6.5537185 1.0846875e-20)
(53.438619 -6.30076 -1.0788023e-20)
(53.880012 -6.0661306 1.0693719e-20)
(54.175196 -5.8542402 -1.5936041e-24)
(54.358432 -5.6637079 1.0417164e-20)
(30.849535 -8.4604893 9.1008317e-21)
(32.131046 -8.5231569 -9.2838822e-21)
(33.444412 -8.5656771 4.6840353e-21)
(34.785361 -8.5865074 4.7269441e-21)
(36.149075 -8.5855643 3.9475552e-25)
(37.530269 -8.5623636 -1.4444157e-20)
(38.923179 -8.5163522 0)
(40.32157 -8.4471226 -9.8147896e-21)
(41.718683 -8.3544135 9.9136331e-21)
(43.107082 -8.2380758 1.0016523e-20)
(44.478362 -8.0980705 0)
(45.822664 -7.934511 -1.0230793e-20)
(47.127963 -7.7477744 -1.0338163e-20)
(48.379109 -7.5387354 -2.087595e-20)
(49.556817 -7.3091881 -1.5133687e-25)
(50.637211 -7.062501 -1.2400109e-25)
(51.593237 -6.8043745 1.061972e-20)
(52.399593 -6.543131 -1.0610893e-20)
(53.04103 -6.2886349 -5.81038e-26)
(53.519599 -6.0497469 7.7051302e-25)
(53.854755 -5.8318857 1.0371149e-20)
(54.075659 -5.6358613 -1.0241161e-20)
(31.021529 -8.4244006 3.0940139e-25)
(32.255845 -8.4853203 -9.0236619e-21)
(33.52149 -8.5271097 0)
(34.814559 -8.5477529 9.1976837e-21)
(36.130602 -8.5469861 -4.6434974e-21)
(37.464663 -8.5242727 4.6881145e-21)
(38.811291 -8.4790391 0)
(40.164528 -8.410847 9.5669727e-21)
(41.517848 -8.3194089 0)
(42.864026 -8.2045711 9.7697363e-21)
(44.194891 -8.0663187 9.8748851e-21)
(45.500935 -7.9048178 -9.9813357e-21)
(46.770738 -7.720518 -6.1975518e-25)
(47.990239 -7.5143538 -6.6653283e-25)
(49.14199 -7.2880961 -6.6576158e-25)
(50.204867 -7.0448822 -1.0334062e-20)
(51.155177 -6.7898236 -1.0369069e-20)
(51.970327 -6.530289 1.0371377e-20)
(52.635115 -6.2751874 0)
(53.147845 -6.0330177 7.1350194e-25)
(53.521761 -5.8097014 2.0335535e-20)
(53.780355 -5.6075619 1.0051994e-20)
(31.192407 -8.3804888 3.1231855e-25)
(32.38009 -8.4397415 -8.7646868e-21)
(33.598493 -8.4808641 0)
(34.844059 -8.5014159 -4.4704017e-21)
(36.112691 -8.5009745 1.3547246e-20)
(37.399775 -8.4789566 -1.8247196e-20)
(38.700184 -8.4347648 -3.5393092e-25)
(40.008256 -8.3679299 9.3162279e-21)
(41.317735 -8.2781384 9.4158591e-21)
(42.621655 -8.1652271 -9.5174408e-21)
(43.912134 -8.0291949 9.6236646e-21)
(45.180053 -7.8702454 9.7290034e-21)
(46.41461 -7.6888806 1.966272e-20)
(47.602758 -7.4860742 -9.9286728e-21)
(48.728674 -7.2635632 1.0011871e-20)
(49.773592 -7.0242731 0)
(50.716683 -6.7728004 0)
(51.537805 -6.5156673 -1.0125695e-20)
(52.222242 -6.260862 1.0101343e-20)
(52.765722 -6.0163967 -1.0041947e-20)
(53.176466 -5.7884492 -9.9571678e-21)
(53.472591 -5.5802012 -9.85242e-21)
(31.362174 -8.3291529 8.3243619e-21)
(32.503869 -8.3868444 -1.2761065e-20)
(33.675604 -8.4273866 0)
(34.87415 -8.4479619 8.6857805e-21)
(36.095752 -8.4480071 -1.3164824e-20)
(37.336135 -8.4268987 1.3304605e-20)
(38.590504 -8.3840174 0)
(39.853511 -8.3188644 -9.0617603e-21)
(41.1192 -8.2310994 -9.1618637e-21)
(42.380906 -8.1205448 0)
(43.631079 -7.9872029 -1.873746e-20)
(44.861028 -7.8312995 -1.8945167e-20)
(46.060571 -7.6533688 -9.5727556e-21)
(47.217613 -7.4544028 2.9007025e-20)
(48.317771 -7.2360921 -9.7536681e-21)
(49.344302 -7.0011654 5.91617e-25)
(50.278811 -6.7537691 2.9591095e-20)
(51.103322 -6.4996853 6.3058524e-26)
(51.803861 -6.2460412 -9.8610693e-21)
(52.37447 -6.00027 9.8159836e-21)
(52.819456 -5.7686035 6.4727521e-25)
(53.152194 -5.5548436 9.6500564e-21)
(31.530897 -8.2708486 8.0691976e-21)
(32.627325 -8.3271069 4.1254222e-21)
(33.753056 -8.3671738 0)
(34.905166 -8.3879019 4.2154651e-21)
(36.080229 -8.3886039 -4.2607686e-21)
(37.274303 -8.3686228 5.2369423e-25)
(38.482926 -8.3273206 0)
(39.701077 -8.2641716 0)
(40.923128 -8.1788079 0)
(42.142743 -8.0710331 0)
(43.352744 -7.9408436 1.8224679e-20)
(44.544896 -7.788472 9.2144846e-21)
(45.709638 -7.6144651 1.8629654e-20)
(46.83577 -7.4198128 1.3759594e-24)
(47.910196 -7.2061463 9.4913423e-21)
(48.917909 -6.9760082 -9.5585536e-21)
(49.84258 -6.7331499 1.2428952e-24)
(50.668128 -6.4827114 0)
(51.381433 -6.2310389 6.5652808e-25)
(51.975516 -5.9849434 -1.9169305e-20)
(52.451707 -5.7505264 9.5249738e-21)
(52.819378 -5.5320238 0)
(31.698698 -8.2060691 -1.1725125e-20)
(32.750653 -8.2610406 3.9987964e-21)
(33.831125 -8.3007528 0)
(34.937477 -8.3217742 -1.2264206e-20)
(36.066594 -8.3233091 8.2676757e-21)
(37.214857 -8.3046734 4.181017e-21)
(38.378138 -8.2652146 -8.4562288e-21)
(39.551753 -8.2043824 8.5540254e-21)
(40.730412 -8.1217819 0)
(41.908141 -8.0171942 -8.7532016e-21)
(43.078157 -7.8906011 -8.8543922e-21)
(44.232703 -7.7422284 -8.9543273e-21)
(45.362839 -7.5726172 1.083431e-24)
(46.458208 -7.3827357 1.1038245e-24)
(47.506866 -7.1741422 6.4831476e-25)
(48.495314 -6.9492011 1.2551529e-25)
(49.408975 -6.7113141 -9.3452717e-21)
(50.233412 -6.4650653 -9.3733736e-21)
(50.956387 -6.2161065 9.3743292e-21)