/*--------------------------------*- C++ -*----------------------------------*\
| =========                 |                                                 |
| \\      /  F ield         | OpenFOAM: The Open Source CFD Toolbox           |
|  \\    /   O peration     | Version:  2406                                  |
|   \\  /    A nd           | Website:  www.openfoam.com                      |
|    \\/     M anipulation  |                                                 |
\*---------------------------------------------------------------------------*/
FoamFile
{
    version     2.0;
    format      ascii;
    arch        "LSB;label=32;scalar=64";
    class       surfaceScalarField;
    location    "0.063";
    object      phi;
}
// * * * * * * * * * * * * * * * * * * * * * * * * * * * * * * * * * * * * * //

dimensions      [1 0 -1 0 0 0 0];

oriented        oriented;

internalField   nonuniform List<scalar> 
16284
(
0.010486495
-0.014624438
0.015070066
-0.010932078
0.01004477
-0.017171622
0.017613394
0.0095816922
-0.020094425
0.020557537
0.0091005267
-0.02347212
0.023953311
0.0086085287
-0.027373831
0.027865843
0.0081159455
-0.031866031
0.032358605
0.0076345956
-0.037023793
0.037505137
0.0071742057
-0.04293671
0.043397134
0.0067407114
-0.049727051
0.050160575
0.0063364019
-0.057536215
0.057940535
0.0059617555
-0.066492516
0.066867198
0.0056122546
-0.076761187
0.077110777
0.0052776628
-0.088507723
0.088842447
0.0049403844
-0.1018557
0.10219311
0.0045714131
-0.11664115
0.1170102
0.0041028486
-0.13250647
0.13297505
0.0035216501
-0.14865519
0.1492364
0.0029991652
-0.16595768
0.16648021
0.0026102881
-0.18683218
0.1872211
0.0022830541
-0.2110839
0.21141123
0.001995439
-0.23865651
0.23894427
0.0017364294
-0.2698987
0.27015779
0.0015006653
-0.30539705
0.30563284
0.0012821721
-0.34563166
0.34585015
0.0010737861
-0.39111002
0.39131843
0.00087919015
-0.44281648
0.44301117
0.00069723238
-0.50152832
0.5017104
0.00052305932
-0.56831159
0.56848581
0.00035270955
-0.64412744
0.64429781
0.00018075474
-0.73044792
0.73061992
-0.82851063
0.82869136
0.011623318
-0.014233965
-0.012013759
0.011184699
-0.016732976
0.010719446
-0.019629151
0.010231345
-0.022984008
0.009725143
-0.02686763
0.0092100307
-0.031350931
0.0086977442
-0.036511514
0.0082001035
-0.042439049
0.0077235061
-0.049250438
0.0072711836
-0.057083877
0.0068457283
-0.066067004
0.0064439735
-0.076359316
0.0060556677
-0.088119259
0.0056574253
-0.10145731
0.005217928
-0.11620156
0.004660301
-0.13194883
0.0039815337
-0.14797641
0.0033962834
-0.16537238
0.0029609867
-0.18639682
0.0025908933
-0.21071369
0.0022650599
-0.23833053
0.001971176
-0.26960473
0.0017035086
-0.30512936
0.0014552414
-0.34538339
0.0012186244
-0.39087336
0.00099781457
-0.44259557
0.00079136591
-0.50132174
0.00059362304
-0.5681138
0.00040029163
-0.64393409
0.00020499632
-0.73025258
-0.82830565
0.012759015
-0.013892653
-0.013100315
0.012361002
-0.016334955
0.011919566
-0.019187713
0.011442752
-0.022507198
0.010937051
-0.026361943
0.010411487
-0.030825386
0.0098776053
-0.035977649
0.0093483511
-0.04190979
0.0088322551
-0.04873433
0.0083325545
-0.056584147
0.0078542629
-0.065588629
0.0073954258
-0.075900331
0.0069459966
-0.087669643
0.0064773735
-0.10098852
0.0059537186
-0.11567781
0.005288244
-0.13128335
0.0045005616
-0.14718872
0.0038560774
-0.16472784
0.0033695118
-0.18591019
0.0029500554
-0.2102941
0.002579696
-0.23796
0.0022448161
-0.26926975
0.0019394773
-0.30482399
0.0016561459
-0.34510005
0.0013864796
-0.39060364
0.0011350704
-0.44234404
0.00090012819
-0.50108665
0.00067508862
-0.5678887
0.00045529148
-0.64371428
0.00023311864
-0.73003035
-0.82807254
0.013910116
-0.013609414
-0.014193368
0.01356816
-0.015993015
0.013171563
-0.018791135
0.012726371
-0.022062031
0.012239272
-0.025874872
0.011718977
-0.03030512
0.011176696
-0.03543539
0.010625417
-0.041358517
0.010075335
-0.04818424
0.0095313818
-0.056040149
0.0089996453
-0.065056783
0.0084795368
-0.075380048
0.0079611681
-0.087151062
0.0074111145
-0.10043828
0.0067861149
-0.11505271
0.0059903691
-0.13048759
0.0050820474
-0.14628039
0.0043787466
-0.16402448
0.0038325313
-0.18536388
0.0033566076
-0.20981802
0.0029356158
-0.23753881
0.0025542386
-0.26888826
0.002206221
-0.30447595
0.0018831136
-0.34477693
0.0015761234
-0.39029658
0.001290204
-0.44205799
0.0010231046
-0.50081938
0.0007671908
-0.56763272
0.00051746769
-0.64346453
0.0002648279
-0.72977765
-0.8278077
0.015073034
-0.013392885
-0.0152896
0.014797869
-0.015717889
0.01446245
-0.018455757
0.01406855
-0.021668172
0.013620326
-0.025426689
0.013124588
-0.029809421
0.012591079
-0.034901911
0.01203177
-0.040799221
0.011457541
-0.047609995
0.010875384
-0.055457928
0.010291894
-0.064473158
0.0097075557
-0.074795506
0.0091122902
-0.086555555
0.0084676967
-0.099793475
0.0077187967
-0.11430371
0.0067676916
-0.12953647
0.0057327531
-0.14524544
0.0049713361
-0.16326299
0.0043583705
-0.18475081
0.003819387
-0.20927885
0.0033415511
-0.23706075
0.0029075372
-0.26845412
0.0025108145
-0.3040792
0.0021421142
-0.34440822
0.0017925366
-0.38994691
0.0014672512
-0.44173255
0.0011634457
-0.50051539
0.0008722616
-0.56734146
0.00058846833
-0.64318071
0.00030102267
-0.72949014
-0.82750666
0.01623795
-0.013250345
-0.016380543
0.016039524
-0.015519517
0.015779341
-0.018195626
0.015454763
-0.021343645
0.015065841
-0.025037816
0.014615776
-0.029359398
0.014111263
-0.034397427
0.013561925
-0.04024989
0.012977923
-0.047025967
0.012367242
-0.054847163
0.011736562
-0.063842319
0.011086694
-0.07414541
0.010406456
-0.085875051
0.0096513975
-0.099038188
0.0087498248
-0.11340204
0.007616038
-0.12840266
0.0064608787
-0.14409027
0.0056407662
-0.16244281
0.0049539594
-0.18406387
0.0043443872
-0.20866906
0.0038025097
-0.23651862
0.0033089921
-0.26796047
0.0028568491
-0.30362704
0.0024361053
-0.34398744
0.0020382202
-0.38954891
0.0016683169
-0.44136248
0.0013228506
-0.50016972
0.00099157882
-0.56701011
0.00066914374
-0.64285824
0.00034207354
-0.72916299
-0.82716454
0.017400692
-0.013186645
-0.01746445
0.017286323
-0.015405205
0.017112727
-0.018022081
0.016872624
-0.021103589
0.01656132
-0.024726555
0.016177412
-0.028975524
0.015723159
-0.033943194
0.015204265
-0.03973099
0.014628315
-0.046449975
0.014002367
-0.054221114
0.013331995
-0.063171772
0.012616905
-0.073430074
0.011842781
-0.085100639
0.010957076
-0.098152237
0.0098657142
-0.11231059
0.008526542
-0.12706348
0.007278038
-0.14284176
0.0063932483
-0.16155795
0.0056267254
-0.1832972
0.00493926
-0.20798134
0.0043257842
-0.23590486
0.0037655152
-0.26740004
0.0032504655
-0.30311196
0.0027703168
-0.34350724
0.0023176569
-0.38909611
0.0018971464
-0.44094178
0.0015043014
-0.49977665
0.0011273784
-0.5666331
0.00076105756
-0.64249189
0.00038879045
-0.72879065
-0.82677567
0.018573714
-0.013202098
-0.018558304
0.018545541
-0.015377073
0.018462709
-0.017939285
0.018315194
-0.020956105
0.018094127
-0.024505511
0.017792935
-0.028674346
0.017408224
-0.033558481
0.0169401
-0.039262844
0.016391388
-0.045901209
0.015765666
-0.053595285
0.015065149
-0.062471077
0.014285671
-0.072650341
0.013405593
-0.08422026
0.012362483
-0.09710887
0.01103674
-0.11098475
0.0094879553
-0.1255147
0.0081920568
-0.14154586
0.0072348481
-0.16060068
0.0063834354
-0.18244561
0.005611073
-0.20720868
0.0049178829
-0.23521137
0.004283114
-0.26676509
0.00369694
-0.30252574
0.0031491974
-0.34295943
0.0026346849
-0.38858143
0.0021569939
-0.44046389
0.0017103966
-0.4993298
0.0012816553
-0.56620426
0.00086555064
-0.64207575
0.00044181647
-0.72836683
-0.82633374
0.019766467
-0.013290061
-0.019678514
0.019820671
-0.015431281
0.019827619
-0.017946234
0.019774921
-0.020903402
0.019650378
-0.024380953
0.019442416
-0.02846636
0.019141491
-0.033257524
0.018740928
-0.038862239
0.018236743
-0.045396964
0.017626143
-0.052984587
0.016904685
-0.061749456
0.016059383
-0.071804793
0.015051372
-0.083211945
0.013814436
-0.095871669
0.012215888
-0.1093861
0.010499155
-0.123798
0.0092051359
-0.14025186
0.0081714296
-0.15956693
0.0072296739
-0.18150367
0.006366435
-0.20634512
0.0055860063
-0.23443061
0.0048685811
-0.26604747
0.0042025273
-0.30185962
0.0035782908
-0.34233509
0.0029941893
-0.38799712
0.0024520003
-0.43992148
0.0019444547
-0.498822
0.001456997
-0.5657167
0.00098438364
-0.64160309
0.00050210468
-0.72788445
-0.82583147
0.020989575
-0.013438784
-0.020840816
0.021114299
-0.015555964
0.021202644
-0.018034534
0.021240248
-0.020940953
0.021210623
-0.024351257
0.021097573
-0.028353226
0.020885839
-0.033045708
0.020561613
-0.038537945
0.020112527
-0.044947823
0.019526473
-0.052398462
0.018788253
-0.061011109
0.017869672
-0.070885991
0.016707272
-0.082049247
0.01520464
-0.094368772
0.013328218
-0.10750958
0.011572725
-0.12204256
0.010308469
-0.13898767
0.0092077493
-0.15846619
0.0081683139
-0.18046409
0.0072106851
-0.20538715
0.006337083
-0.23355664
0.005527749
-0.2652379
0.0047725362
-0.30110431
0.0040627691
-0.34162517
0.0034007552
-0.38733485
0.0027860575
-0.43930655
0.0022096234
-0.4982453
0.0016559536
-0.5651629
0.001119245
-0.64106632
0.00057055431
-0.72733566
-0.82526069
0.022243538
-0.013643099
-0.022039108
0.022428186
-0.015740536
0.022582485
-0.01818875
0.022691927
-0.021050301
0.022739919
-0.024399127
0.022707861
-0.02832102
0.022575722
-0.032913426
0.022322415
-0.038284533
0.021925475
-0.04455083
0.021359883
-0.051832833
0.020594568
-0.060245708
0.019575333
-0.069866555
0.018192764
-0.080666386
0.016357556
-0.092533299
0.014381714
-0.10553362
0.012789439
-0.1204504
0.01151807
-0.13771645
0.010307179
-0.15725537
0.0092105004
-0.17936733
0.0081549748
-0.20433132
0.0071640058
-0.23256531
0.0062610216
-0.26433464
0.0054116892
-0.30025484
0.0046082465
-0.34082149
0.0038594134
-0.3865857
0.0031634211
-0.43861033
0.0025094815
-0.49759109
0.0018814603
-0.56453473
0.0012721165
-0.64045689
0.0006483229
-0.72671176
-0.82461206
0.023417561
-0.013878567
-0.023181658
0.0236409
-0.015963897
0.023840996
-0.018389023
0.024002221
-0.021211665
0.024106915
-0.024503814
0.024134582
-0.028348538
0.024061258
-0.0328399
0.023858532
-0.038081652
0.023491736
-0.044183961
0.022917393
-0.051258461
0.022079598
-0.059407821
0.020890731
-0.068677451
0.01924407
-0.079019393
0.01723169
-0.090520608
0.01546356
-0.10376534
0.014064438
-0.11905142
0.012746739
-0.13639902
0.011526755
-0.1560356
0.010327481
-0.17816808
0.0091886619
-0.20319225
0.0081016925
-0.231478
0.0070741721
-0.26330684
0.0061233973
-0.29930388
0.0052194992
-0.33991725
0.0043744407
-0.38574024
0.0035877924
-0.43782346
0.0028473082
-0.49685033
0.0021362897
-0.56382354
0.001444913
-0.63976539
0.00073653532
-0.72600325
-0.82387512
0.02433746
-0.014114941
-0.024101251
0.024560331
-0.016189552
0.024761636
-0.018592369
0.024928531
-0.021379584
0.025043219
-0.024618883
0.025083209
-0.028388492
0.025020098
-0.032776624
0.024816839
-0.037878257
0.024423698
-0.043790758
0.023773235
-0.050607945
0.02278296
-0.05841737
0.021394811
-0.067288948
0.019705191
-0.077329376
0.018095361
-0.088910396
0.016690892
-0.10236061
0.015374977
-0.11773561
0.014091674
-0.13511611
0.012790741
-0.15473506
0.011539792
-0.17691732
0.010301717
-0.20195405
0.0091060188
-0.23028199
0.0079918101
-0.26219233
0.0069122311
-0.29822407
0.0058906763
-0.33889525
0.0049495992
-0.38479871
0.0040628583
-0.4369365
0.0032266568
-0.49601385
0.0024233291
-0.56302002
0.0016397413
-0.63898164
0.00083630456
-0.72519966
-0.82303828
0.024195718
-0.014314197
-0.023997292
0.024384984
-0.016375803
0.024551737
-0.018757122
0.02469149
-0.021518452
0.024794031
-0.024721212
0.024828896
-0.028423587
0.0247531
-0.032701148
0.024519678
-0.037645063
0.024082135
-0.043353327
0.023393736
-0.049919551
0.022438803
-0.057462304
0.02128878
-0.066138631
0.020134828
-0.076175116
0.019057492
-0.087832694
0.01793221
-0.10123503
0.016707911
-0.1165114
0.01541707
-0.13382577
0.014116184
-0.1534348
0.012806767
-0.17560834
0.011504015
-0.20065124
0.010211787
-0.22898944
0.0089624139
-0.26094265
0.0077785537
-0.29703996
0.0066461977
-0.33776233
0.0055801267
-0.38373209
0.0045916171
-0.43594775
0.0036517735
-0.49507372
0.0027454102
-0.56211343
0.0018585391
-0.63809453
0.00094749161
-0.72428842
-0.82209011
0.023107778
-0.014560497
-0.022860998
0.02334023
-0.016607899
0.02353638
-0.01895301
0.023665558
-0.021647497
0.023701473
-0.024757087
0.023642813
-0.028364883
0.023486544
-0.032544728
0.023237578
-0.037395779
0.022916074
-0.043031368
0.022502516
-0.049505532
0.022004537
-0.056964134
0.021464382
-0.065598344
0.020857883
-0.075568773
0.020100122
-0.087075155
0.019122299
-0.10025741
0.017992523
-0.11538219
0.016769853
-0.1326039
0.015462218
-0.15212805
0.014127388
-0.17427417
0.012745497
-0.19926932
0.011362952
-0.22760648
0.010033108
-0.25961246
0.0087119331
-0.29571849
0.0074549722
-0.3365047
0.0062852781
-0.38256175
0.0051732195
-0.4348354
0.0041277922
-0.49402804
0.0031058148
-0.56109113
0.002101474
-0.63708987
0.0010695758
-0.72325626
-0.82101967
0.020755723
-0.014865858
-0.020450393
0.021090405
-0.016942546
0.021455568
-0.01931813
0.021847574
-0.022039438
0.022240135
-0.025149525
0.022595669
-0.028720182
0.022865818
-0.032814453
0.022952845
-0.037482154
0.022825846
-0.042903501
0.022576438
-0.049254879
0.022260987
-0.056646833
0.021923923
-0.065259119
0.021498944
-0.075143452
0.020948353
-0.086525792
0.020183244
-0.099493609
0.019192914
-0.11439338
0.018046365
-0.13145885
0.01678571
-0.15086849
0.015440956
-0.17293016
0.014036184
-0.1978646
0.012573821
-0.22614361
0.011126296
-0.2581644
0.0097105143
-0.29430229
0.0083375174
-0.3351309
0.0070439882
-0.3812675
0.0058217915
-0.43361287
0.0046506163
-0.49285648
0.0035053311
-0.55994544
0.0023757049
-0.6359598
0.0012049619
-0.72208517
-0.81981361
0.019253064
-0.015109793
-0.019009088
0.019517291
-0.017206712
0.019802191
-0.01960294
0.02010587
-0.022342994
0.020433109
-0.025476603
0.020783379
-0.02907025
0.021182278
-0.033213152
0.021700908
-0.038000589
0.022229357
-0.043431632
0.022641311
-0.049666102
0.022768661
-0.05677262
0.022598101
-0.065086417
0.022229261
-0.07477362
0.021669395
-0.085964541
0.020995938
-0.098820111
0.02017953
-0.11357771
0.019179465
-0.13046044
0.018004719
-0.14969492
0.016692503
-0.17161847
0.015263804
-0.19643592
0.013764719
-0.22464408
0.012270519
-0.25666969
0.010751857
-0.29278302
0.0092706934
-0.33364868
0.0078750648
-0.37987102
0.0065176879
-0.43225501
0.0052238283
-0.49156209
0.0039476036
-0.55866865
0.002674813
-0.63468643
0.0013551494
-0.72076508
-0.81845712
0.018914131
-0.01535095
-0.018673072
0.019172806
-0.017465486
0.019448189
-0.01987842
0.01973927
-0.022634171
0.020047672
-0.025785064
0.020369702
-0.029392283
0.020682275
-0.033525582
0.020947899
-0.03826576
0.021210362
-0.043693117
0.021462659
-0.049916567
0.021835859
-0.057141045
0.022168832
-0.065422594
0.022330499
-0.074946707
0.022113295
-0.085750569
0.021597519
-0.098303254
0.020857881
-0.11283592
0.019958318
-0.12955968
0.018931817
-0.14866837
0.017734118
-0.17042053
0.016394791
-0.19509634
0.014905882
-0.223155
0.013373825
-0.25513758
0.011814206
-0.29122283
0.010245821
-0.33207889
0.0087388349
-0.37836292
0.0072675254
-0.43078307
0.005847417
-0.49014129
0.0044301263
-0.55725061
0.003007779
-0.63326332
0.0015213742
-0.71927821
-0.8169342
0.018101559
-0.015579631
-0.017873009
0.01835285
-0.01771693
0.018627165
-0.020152927
0.018923709
-0.02293097
0.019239181
-0.026100881
0.019566375
-0.029719967
0.019893978
-0.033853922
0.020205679
-0.038578638
0.020500935
-0.043990376
0.020785837
-0.05020512
0.020988621
-0.057352224
0.021069432
-0.065506389
0.021038317
-0.074908185
0.021203767
-0.085915456
0.021292356
-0.098392938
0.020995386
-0.11253823
0.020346773
-0.12890802
0.019456222
-0.14777487
0.018410412
-0.16937312
0.017232373
-0.19391786
0.015897785
-0.22182069
0.014427477
-0.25366802
0.012850356
-0.28964564
0.011225998
-0.33045301
0.0096516191
-0.37678723
0.0080642675
-0.42919486
0.0065036587
-0.48857984
0.0049493433
-0.55569545
0.0033668047
-0.63167987
0.0017046235
-0.71761565
-0.81522803
0.01767972
-0.015791677
-0.017467796
0.017911751
-0.017949103
0.018164322
-0.020405665
0.018437344
-0.02320417
0.018730431
-0.026394172
0.019043291
-0.03003304
0.019376456
-0.034187312
0.019731196
-0.038933604
0.020098988
-0.044358374
0.020453033
-0.05055937
0.020738768
-0.057637671
0.020960379
-0.065725737
0.020976162
-0.074919641
0.020632532
-0.085569251
0.020364979
-0.098127189
0.020363771
-0.11254228
0.020158403
-0.12870619
0.019600412
-0.14721565
0.018774455
-0.16854586
0.017816067
-0.19295978
0.016671477
-0.22067701
0.015316663
-0.25231469
0.013806524
-0.2881364
0.012186484
-0.32883198
0.010556009
-0.37515549
0.0088790495
-0.42751674
0.0072017516
-0.48690168
0.005496061
-0.55398894
0.0037515034
-0.62993431
0.0019055538
-0.71576961
-0.81332128
0.016751535
-0.015992451
-0.016550682
0.016974287
-0.018171766
0.017220077
-0.02065135
0.017489635
-0.023473603
0.017782745
-0.026687125
0.01809759
-0.030347687
0.018429521
-0.034518978
0.018770634
-0.039274362
0.01911297
-0.044700228
0.019453019
-0.050898765
0.019808327
-0.05799215
0.02020023
-0.066117047
0.020736483
-0.075455433
0.021171386
-0.086001917
0.02099155
-0.097944062
0.020379298
-0.11192808
0.019954847
-0.12828309
0.019639277
-0.14690348
0.019065396
-0.16797448
0.018232343
-0.19212945
0.017239348
-0.21968599
0.016044805
-0.25112182
0.014647584
-0.2867407
0.013079884
-0.32726437
0.011435282
-0.37351013
0.0097110282
-0.42579118
0.0079031123
-0.4850929
0.0060575904
-0.55214275
0.0041504994
-0.62802628
0.0021218366
-0.71374127
-0.81119896
0.016248444
-0.016180573
-0.016060273
0.016457199
-0.018380471
0.016688154
-0.020882258
0.016942734
-0.023728147
0.017222326
-0.026966697
0.017528267
-0.030653633
0.017862266
-0.034853013
0.018226269
-0.039638441
0.018619561
-0.045093643
0.01903381
-0.051313207
0.019446214
-0.058404881
0.019827389
-0.066498772
0.02011888
-0.075748309
0.020477437
-0.086363997
0.020970602
-0.098439324
0.021136205
-0.11208958
0.020674156
-0.12781638
0.019923341
-0.14615179
0.019320006
-0.16737017
0.018626274
-0.19143682
0.017728956
-0.21879059
0.016630206
-0.25002446
0.015342681
-0.28545395
0.013882148
-0.32580457
0.012248096
-0.37187627
0.010495312
-0.42403713
0.0086101551
-0.48320678
0.0066213037
-0.55015338
0.004548177
-0.62595248
0.0023454596
-0.71153918
-0.80885388
0.015074665
-0.016351683
-0.014903516
0.015265254
-0.018571021
0.015476591
-0.021093551
0.01570991
-0.023961423
0.015966192
-0.027222941
0.016245556
-0.030932976
0.016546477
-0.035153945
0.016865275
-0.039957298
0.017196802
-0.045425278
0.017536916
-0.051653435
0.017884647
-0.05875259
0.018237086
-0.066850766
0.018585943
-0.076095665
0.01888689
-0.086661733
0.019237157
-0.098787095
0.019795718
-0.11264935
0.020342611
-0.12836346
0.020321313
-0.14612669
0.019686785
-0.16673804
0.018961012
-0.19071325
0.018152421
-0.21798201
0.017182263
-0.24905519
0.015979053
-0.28425
0.014575881
-0.3244015
0.012964178
-0.37026503
0.011207033
-0.42227905
0.0092394298
-0.48123839
0.0071503274
-0.54806379
0.0049351477
-0.62373695
0.0025728821
-0.7091774
-0.80628191
0.014671732
-0.016512123
-0.014511425
0.014850521
-0.018749954
0.015049417
-0.021292609
0.015269787
-0.024181976
0.015512613
-0.027465978
0.015778815
-0.03119943
0.016069767
-0.035445211
0.016387562
-0.040275506
0.016734756
-0.045773036
0.017112516
-0.052031981
0.017517416
-0.059158541
0.017937903
-0.067272488
0.018355811
-0.076514872
0.018733448
-0.087040358
0.018993665
-0.09904732
0.019136556
-0.11279216
0.019357456
-0.12858725
0.019771046
-0.14654575
0.019812384
-0.16677789
0.019258265
-0.19015349
0.018490356
-0.21720997
0.01751306
-0.24807616
0.016446472
-0.28318242
0.015165907
-0.32312087
0.013563448
-0.36866235
0.011775015
-0.42049027
0.0098042087
-0.47926761
0.0076374505
-0.54589618
0.0052806611
-0.6213799
0.0027746898
-0.70667122
-0.80350809
0.013424781
-0.016654193
-0.013282853
0.013583842
-0.01890916
0.013761633
-0.021470561
0.013959753
-0.02438027
0.014179398
-0.027685817
0.014421548
-0.031441793
0.014686839
-0.035710733
0.014974818
-0.040563732
0.015283502
-0.046081981
0.01561001
-0.052358773
0.015953605
-0.059502472
0.016316699
-0.067636063
0.016695116
-0.076893898
0.01709814
-0.087444108
0.017514545
-0.099464565
0.017855728
-0.11313377
0.017983204
-0.12871341
0.018065536
-0.14662709
0.018429321
-0.16714299
0.018599213
-0.19032206
0.018170414
-0.21677789
0.017424367
-0.24732881
0.016549029
-0.28230669
0.015480203
-0.3220523
0.014015782
-0.36719808
0.012221405
-0.41869638
0.010202725
-0.47724966
0.0079953464
-0.54368741
0.0055665512
-0.61895082
0.0029471477
-0.7040508
-0.80056106
0.012880499
-0.016773038
-0.012761598
0.013013108
-0.019041716
0.013160677
-0.021618072
0.013324543
-0.024544075
0.013506368
-0.027867582
0.01370777
-0.031643139
0.013929995
-0.035932889
0.014173988
-0.040807635
0.014440259
-0.046348129
0.014728191
-0.052646528
0.015034324
-0.059808289
0.015354395
-0.067955738
0.015689379
-0.077228591
0.016028137
-0.087782726
0.01636592
-0.099802361
0.016739739
-0.11350798
0.017158852
-0.12913338
0.017431913
-0.14689909
0.017570811
-0.16727864
0.017829192
-0.19058146
0.017849148
-0.21680075
0.017162545
-0.24663795
0.016370435
-0.28151185
0.015428385
-0.32111201
0.014098881
-0.36587147
0.01237756
-0.41697672
0.010377975
-0.47525025
0.0081879017
-0.5414958
0.0057375483
-0.6165006
0.0030513551
-0.70136333
-0.79750853
0.01201221
-0.016881155
-0.011904099
0.012133748
-0.019163258
0.012270116
-0.021754439
0.012422767
-0.024696716
0.012593112
-0.028037898
0.0127823
-0.031832272
0.012991283
-0.036141806
0.013221164
-0.041037447
0.013473396
-0.046600304
0.013749968
-0.052923081
0.014052671
-0.060111102
0.014380317
-0.068283576
0.014730768
-0.077579165
0.015104274
-0.088156243
0.015495671
-0.10019359
0.015884289
-0.11389608
0.016234068
-0.12948218
0.016581494
-0.14724629
0.016658106
-0.16735498
0.016457963
-0.19037784
0.016473459
-0.21680921
0.016426047
-0.24657614
0.015745557
-0.28082543
0.014702541
-0.32008325
0.013483378
-0.36465602
0.012021675
-0.41551614
0.010207883
-0.47343522
0.0080908936
-0.53937852
0.0057244749
-0.6141355
0.0030663712
-0.69870415
-0.79444015
0.010931751
-0.016951449
-0.010861415
0.011010683
-0.019242147
0.011099157
-0.021842871
0.011198128
-0.024795646
0.011308608
-0.028148342
0.011431792
-0.03195543
0.011568966
-0.036278965
0.011721156
-0.041189632
0.011888845
-0.046767997
0.012071707
-0.053105948
0.01226886
-0.060308247
0.012479278
-0.068493962
0.01269835
-0.077798169
0.012917895
-0.088375649
0.013124453
-0.10039988
0.01329763
-0.11406877
0.013429155
-0.12961282
0.013505709
-0.14732129
0.013670411
-0.16751799
0.013709346
-0.19041132
0.013485938
-0.216575
0.013625836
-0.24671532
0.013667785
-0.28087436
0.01305858
-0.31948989
0.012181001
-0.36378782
0.011010743
-0.41434627
0.0095403361
-0.47196287
0.0076676072
-0.53750883
0.0054793449
-0.61194977
0.0029748849
-0.69619911
-0.79146365
0.010240973
-0.017002885
-0.010189406
0.010299352
-0.019300384
0.010365401
-0.021908766
0.010440067
-0.024870147
0.010524335
-0.028232435
0.010619142
-0.032050053
0.010725209
-0.036384841
0.010842795
-0.041307021
0.01097133
-0.04689633
0.011108947
-0.053243355
0.011251997
-0.060451075
0.011395123
-0.068636848
0.011532035
-0.07793481
0.011657033
-0.08850036
0.011772721
-0.10051531
0.011888295
-0.11418422
0.012015346
-0.12974008
0.012130959
-0.14743773
0.012195639
-0.16758476
0.012328387
-0.19055168
0.012461234
-0.21672405
0.012244287
-0.24651994
0.011773775
-0.28041388
0.011305678
-0.31899452
0.010660823
-0.3631284
0.0097093105
-0.41339294
0.0084640792
-0.47071962
0.0068750059
-0.53592237
0.0049382164
-0.61001305
0.0026964911
-0.693957
-0.78876565
0.0099707423
-0.01703317
-0.0099405127
0.010004067
-0.019333766
0.010040161
-0.021944919
0.010078949
-0.024908993
0.010120268
-0.028273808
0.010163883
-0.032093716
0.010209551
-0.036430546
0.010257147
-0.041354641
0.010306902
-0.046946092
0.010359763
-0.053296204
0.010417769
-0.06050905
0.010484386
-0.068703415
0.010565263
-0.078015618
0.010663133
-0.088598175
0.010772358
-0.10062451
0.010882043
-0.11429398
0.010977524
-0.12983581
0.011053435
-0.14751437
0.011107108
-0.16764053
0.011107345
-0.19055757
0.01101737
-0.21664998
0.010850598
-0.24637461
0.010548703
-0.28010888
0.010075783
-0.31849218
0.009348277
-0.36239602
0.0084386056
-0.41248696
0.0073078461
-0.46959289
0.0059424435
-0.53455737
0.0042791221
-0.60834616
0.0023055209
-0.69198274
-0.78645922
0.0095773199
-0.0095729963
0.0095823097
0.0095885707
0.0095964578
0.0096063904
0.0096188475
0.0096343348
0.0096533198
0.0096761122
0.0097026577
0.0097322766
0.0097634782
0.0097942777
0.0098232765
0.0098464923
0.0098602807
0.0098596849
0.0098363171
0.0097723493
0.0096471907
0.0094460228
0.0091388731
0.0087782826
0.0083987569
0.0079161492
0.0072495579
0.0063360987
0.0051646424
0.0037271522
0.0020074454
0.011451195
-0.011277305
0.0089248311
-0.009098645
0.013228511
-0.014524583
0.01274735
0.014554879
-0.017789937
0.016463659
0.015609907
-0.021391563
0.020336649
0.016534895
-0.025512831
0.024587973
0.017397351
-0.030270522
0.029408205
0.018199029
-0.035739098
0.034937572
0.018956051
-0.041993773
0.041236908
0.019668429
-0.049184906
0.048472684
0.020312489
-0.057426032
0.056782118
0.020868599
-0.066846545
0.066290554
0.021324934
-0.077604446
0.077148187
0.021671964
-0.089877976
0.089530974
0.021897666
-0.10384359
0.10361789
0.021984721
-0.1196778
0.11959076
0.021873528
-0.13741766
0.13752887
0.021502838
-0.15685561
0.15722628
0.020770531
-0.17753588
0.1782682
0.019596867
-0.19828081
0.1994545
0.018337939
-0.22000818
0.22126712
0.017199246
-0.24593981
0.24707854
0.01606206
-0.27627383
0.27741112
0.014871711
-0.31109319
0.31228371
0.013593059
-0.35085698
0.35213589
0.01219631
-0.3960378
0.39743474
0.010664135
-0.44732716
0.44885934
0.0089749279
-0.50561998
0.5073092
0.0071029873
-0.57205692
0.57392895
0.0050121377
-0.64765686
0.64974781
0.0026604011
-0.73391958
0.73627144
-0.83217721
0.83483748
0.012663141
-0.012753647
-0.01118671
0.013669882
-0.015531235
0.014500909
-0.018620858
0.015276956
-0.022167488
0.016044194
-0.026279932
0.016805243
-0.031031419
0.017541988
-0.036475685
0.018245891
-0.042697516
0.018897931
-0.049836784
0.019475568
-0.058003521
0.019967223
-0.067338081
0.020365105
-0.078002255
0.020660922
-0.090173766
0.020842956
-0.10402562
0.020892848
-0.11972766
0.020744779
-0.13726956
0.020344587
-0.15645544
0.019582198
-0.17677346
0.018408782
-0.19710737
0.017221181
-0.2188206
0.016154038
-0.24487261
0.015079981
-0.27519966
0.013954904
-0.30996794
0.012747233
-0.34964906
0.011429807
-0.39472021
0.0099877312
-0.44588509
0.0084008492
-0.50403308
0.0066453289
-0.57030131
0.0046869888
-0.64569842
0.002487274
-0.73171974
-0.82969008
0.012259129
-0.013573969
-0.011438703
0.012985174
-0.016257174
0.013721098
-0.019356673
0.014486583
-0.022932846
0.015258577
-0.027051786
0.01600566
-0.031778352
0.016712702
-0.037182567
0.017374439
-0.043359087
0.017972042
-0.050434223
0.018493955
-0.058525284
0.018932577
-0.067776588
0.0192822
-0.078351808
0.019535447
-0.090426986
0.019681228
-0.10417139
0.019700978
-0.11974738
0.0195238
-0.13709234
0.019102528
-0.15603419
0.018316388
-0.17598728
0.017162744
-0.19595371
0.016056985
-0.21771482
0.015058644
-0.2438742
0.014047858
-0.27418875
0.012990275
-0.30891018
0.011856871
-0.34851542
0.010622847
-0.39348605
0.0092755146
-0.44453777
0.0077963162
-0.50255386
0.006163261
-0.56866817
0.0043445347
-0.64387959
0.0023044383
-0.72967952
-0.82738579
0.011382899
-0.014314213
-0.010642558
0.01214755
-0.017021723
0.012921596
-0.020130606
0.013688516
-0.023699641
0.014432521
-0.02779565
0.015139104
-0.03248478
0.015799342
-0.03784264
0.016407158
-0.043966733
0.016948432
-0.050975329
0.017415294
-0.058991996
0.01780263
-0.06816381
0.01810619
-0.078655301
0.018319185
-0.090639954
0.018430574
-0.10428277
0.018415724
-0.1197325
0.018212676
-0.13688926
0.017780738
-0.15560227
0.01697912
-0.17518561
0.015859492
-0.19483407
0.014834977
-0.21669027
0.013904321
-0.24294346
0.012959723
-0.27324403
0.011973454
-0.30792373
0.010918714
-0.34746045
0.0097730535
-0.39234027
0.0085260014
-0.44329074
0.007160612
-0.50118844
0.005656757
-0.56716422
0.003985078
-0.64220782
0.0021128134
-0.72780713
-0.8252731
0.010488501
-0.015103604
-0.0096990451
0.011273522
-0.017806651
0.012044194
-0.020901169
0.012792389
-0.024447708
0.013506472
-0.028509588
0.014174797
-0.033152947
0.014789859
-0.038457532
0.015345298
-0.044521996
0.015832315
-0.051462175
0.016246472
-0.059406002
0.016584971
-0.068502194
0.016844845
-0.078915108
0.017019797
-0.090814878
0.017098492
-0.10436144
0.017050529
-0.11968449
0.016827543
-0.13666625
0.016388092
-0.15516281
0.015576877
-0.17437432
0.014503697
-0.19376087
0.013562284
-0.21574882
0.012700138
-0.24208123
0.011824305
-0.27236806
0.010912458
-0.3070117
0.0099400044
-0.34648779
0.0088868214
-0.391287
0.007744609
-0.44214855
0.0064980895
-0.49994187
0.0051290535
-0.56579509
0.0036106914
-0.64068937
0.0019132123
-0.72610954
-0.82336001
0.009558675
-0.015907171
-0.0087550175
0.010343429
-0.018591304
0.011102844
-0.021660467
0.011827621
-0.025172353
0.012506491
-0.02918831
0.013131109
-0.033777402
0.013696502
-0.039022747
0.014198183
-0.045023495
0.01463155
-0.051895366
0.014994699
-0.059768998
0.015286466
-0.068793849
0.015504849
-0.079133425
0.015644008
-0.090954008
0.015692482
-0.10440989
0.015615366
-0.11960731
0.01537862
-0.1364295
0.014931933
-0.15471611
0.014117193
-0.17355951
0.01310264
-0.19274629
0.012243667
-0.2148898
0.011450067
-0.24128753
0.010645087
-0.27156294
0.0098104488
-0.30617688
0.0089236383
-0.34560079
0.0079667876
-0.39033009
0.006933713
-0.44111549
0.0058108441
-0.49881895
0.0045819156
-0.56456606
0.0032227318
-0.6393301
0.0017065413
-0.72459323
-0.82165359
0.0085958528
-0.016718618
-0.0077842767
0.0093753657
-0.019370705
0.010114498
-0.022399477
0.010805063
-0.025862781
0.011440127
-0.02982322
0.012015066
-0.03435217
0.012527048
-0.039534545
0.012973995
-0.045470253
0.01335429
-0.052275481
0.013667825
-0.06008238
0.013914639
-0.06904055
0.01409348
-0.0793122
0.014199138
-0.091059635
0.014220608
-0.10443133
0.014121129
-0.11950778
0.013881358
-0.13618977
0.013427328
-0.15426207
0.01260855
-0.17274067
0.011662355
-0.19180007
0.010884372