/*--------------------------------*- C++ -*----------------------------------*\
| =========                 |                                                 |
| \\      /  F ield         | OpenFOAM: The Open Source CFD Toolbox           |
|  \\    /   O peration     | Version:  2406                                  |
|   \\  /    A nd           | Website:  www.openfoam.com                      |
|    \\/     M anipulation  |                                                 |
\*---------------------------------------------------------------------------*/
FoamFile
{
    version     2.0;
    format      ascii;
    arch        "LSB;label=32;scalar=64";
    class       volVectorField;
    location    "0.02";
    object      UMean;
}
// * * * * * * * * * * * * * * * * * * * * * * * * * * * * * * * * * * * * * //

dimensions      [0 1 -1 0 0 0 0];

internalField   nonuniform List<vector> 
23203
(
(52.295817 17.025118 -1.5109357e-20)
(52.431188 16.514021 0)
(52.551978 16.024652 0)
(52.660056 15.555856 0)
(52.756821 15.106688 7.2965081e-21)
(52.843494 14.676519 -1.4461462e-20)
(52.921287 14.264261 -7.1504596e-21)
(52.991183 13.869121 0)
(53.054272 13.490282 0)
(53.111409 13.126765 6.8473805e-21)
(53.163226 12.77786 -2.0208505e-20)
(53.210523 12.442677 -1.3253109e-20)
(53.253764 12.12042 6.5175747e-21)
(53.2934 11.810471 -1.9210893e-20)
(53.32994 11.51208 0)
(53.363638 11.224557 0)
(53.39489 10.947281 -1.8299106e-20)
(53.42395 10.679633 1.2038043e-20)
(53.451015 10.421137 -1.1917294e-20)
(53.476187 10.17112 1.1843712e-20)
(53.499418 9.9292013 -2.9449458e-20)
(53.520742 9.6948418 -4.1032372e-20)
(53.540154 9.4676718 1.1663238e-20)
(53.5578 9.2472768 2.900183e-20)
(53.573781 9.0332668 2.3068832e-20)
(53.588172 8.8253299 5.7329885e-21)
(53.60098 8.6231054 1.7107057e-20)
(53.61212 8.4263131 0)
(53.621526 8.2346197 0)
(53.62916 8.047787 0)
(53.634988 7.8655272 2.2306559e-20)
(53.638978 7.6875941 2.2174186e-20)
(53.6411 7.5137395 2.205464e-20)
(53.641262 7.3436855 5.4875049e-21)
(53.63936 7.1772011 -5.4644403e-21)
(53.635308 7.0140048 2.1784375e-20)
(53.629029 6.8538923 -2.7160775e-20)
(53.620561 6.6967209 -1.3554737e-20)
(53.610027 6.5424454 1.77716e-25)
(53.597544 6.3910084 -4.5980872e-20)
(53.583101 6.2422393 0)
(53.566754 6.0960585 4.0583275e-20)
(53.548748 5.9525351 -4.3349861e-20)
(53.529568 5.811906 2.7179865e-21)
(53.509956 5.6746567 4.6311669e-20)
(53.491003 5.5414643 4.0910152e-20)
(53.473999 5.413306 2.7227389e-21)
(53.459015 5.2900807 3.7961661e-20)
(53.444153 5.1700891 8.6338343e-20)
(53.427844 5.0521443 5.3714108e-21)
(53.409434 4.9357506 -2.6736515e-21)
(53.388631 4.8206361 4.5286403e-20)
(53.36524 4.7065749 -5.3115715e-21)
(53.339053 4.5933545 4.5033233e-20)
(53.30984 4.480738 4.4939877e-20)
(53.277359 4.3684674 1.1265533e-25)
(53.241334 4.2562848 8.4570967e-20)
(53.201462 4.1438956 -2.6462169e-21)
(53.157436 4.0310255 8.2204256e-20)
(53.108973 3.9173813 5.3241866e-21)
(53.055825 3.8027398 -2.6764627e-21)
(52.997903 3.6869379 -8.6194046e-20)
(52.935327 3.5699668 0)
(52.868348 3.4519356 -9.0576058e-20)
(52.797235 3.3329712 -8.6088062e-20)
(52.72225 3.2130834 1.1754372e-24)
(52.643664 3.0923777 0)
(52.561887 2.9710127 -8.9679817e-20)
(52.477399 2.8492262 -2.9357037e-21)
(52.39132 2.7276054 1.0898142e-24)
(52.309222 2.6079461 0)
(52.244526 2.500518 0)
(52.203527 2.4109615 -1.9383524e-19)
(52.171413 2.3271469 -1.8131625e-24)
(52.141816 2.2456672 -2.9190987e-21)
(52.113391 2.1658122 5.7290403e-21)
(52.086077 2.0876019 1.7426749e-19)
(52.059802 2.0109129 1.7650702e-19)
(52.034561 1.9356926 -1.7047856e-19)
(52.010346 1.8618461 0)
(51.987135 1.7892967 -1.6669627e-19)
(51.964914 1.7179533 0)
(51.943652 1.6477442 1.5790107e-19)
(51.923336 1.5785841 2.4577633e-21)
(51.903947 1.5104065 0)
(51.885458 1.4431255 -1.5136427e-19)
(51.867854 1.3766732 0)
(51.85112 1.3109689 1.4562996e-19)
(51.835241 1.2459396 -1.4393284e-19)
(51.820195 1.1815114 2.1892153e-21)
(51.805967 1.117615 -1.0735077e-21)
(51.792542 1.0541758 0)
(51.779894 0.99111825 0)
(51.76801 0.92836939 2.5825354e-19)
(51.75688 0.86585016 -7.9200605e-27)
(51.746487 0.80348591 -2.4838933e-19)
(51.736826 0.74119016 0)
(51.727878 0.67889611 1.0580332e-24)
(51.719652 0.6164923 0)
(51.712124 0.55393957 -2.3062418e-19)
(51.705329 0.49105866 -9.4777195e-25)
(51.699212 0.42789696 0)
(51.693869 0.36411356 -2.1726389e-19)
(51.689165 0.29996739 2.1302457e-19)
(51.685316 0.23477285 0)
(51.682095 0.16927218 0)
(51.679874 0.1020695 2.0104522e-19)
(51.678228 0.034748194 -1.9487018e-19)
(51.886862 17.025576 0)
(52.044652 16.526983 8.0950755e-21)
(52.186809 16.048376 1.6157113e-24)
(52.315339 15.588569 -7.8073089e-21)
(52.431527 15.146898 -7.6682046e-21)
(52.536612 14.722961 1.5070131e-20)
(52.631813 14.315763 -7.40892e-21)
(52.718148 13.924734 7.2848358e-21)
(52.796763 13.549152 1.4333261e-20)
(52.868451 13.188141 -7.0507465e-21)
(52.933899 12.841152 2.0817891e-20)
(52.993972 12.507334 -6.832111e-21)
(53.04914 12.185995 6.7284811e-21)
(53.099953 11.876581 -1.3253425e-20)
(53.146952 11.578332 6.5287232e-21)
(53.190384 11.290725 -1.9302028e-20)
(53.230711 11.013146 2.536938e-20)
(53.268223 10.744982 0)
(53.303122 10.485804 1.2339603e-20)
(53.335551 10.234934 6.0873493e-21)
(53.365553 9.9920443 2.4032771e-20)
(53.393204 9.7565817 -1.1854686e-20)
(53.418529 9.5282429 5.8396138e-21)
(53.441731 9.3066201 -1.7274167e-20)
(53.462946 9.091335 -5.683454e-21)
(53.482329 8.8820636 2.2537208e-20)
(53.499888 8.678444 0)
(53.515515 8.4801905 0)
(53.529146 8.2869949 1.6669245e-20)
(53.540758 8.0986335 2.7672096e-20)
(53.550326 7.9148166 -5.5134569e-21)
(53.557822 7.7353147 -1.6478474e-20)
(53.563225 7.5598665 -2.1891938e-20)
(53.56645 7.3881969 0)
(53.567407 7.2200791 0)
(53.566022 7.0552257 -2.1703945e-20)
(53.562259 6.8934593 1.6245744e-20)
(53.556206 6.7346702 2.7029231e-20)
(53.54801 6.5788313 0)
(53.53776 6.4258607 5.396036e-21)
(53.525447 6.2755788 -5.3961328e-21)
(53.511184 6.1279509 5.4006846e-21)
(53.49528 5.9830814 3.7854809e-20)
(53.478286 5.8412684 -4.6042314e-20)
(53.461047 5.7030396 2.7130653e-21)
(53.44471 5.5691365 -8.4048044e-20)
(53.430416 5.4404821 4.3267401e-20)
(53.417695 5.3165284 -8.6133436e-20)
(53.404502 5.1954683 -4.5522753e-20)
(53.389531 5.0763188 -4.2637332e-20)
(53.372296 4.9586827 4.5108256e-20)
(53.352556 4.8423153 -5.2872317e-21)
(53.330134 4.7269944 2.635594e-21)
(53.304825 4.6125071 0)
(53.276398 4.4986147 0)
(53.244606 4.3850566 -8.3972178e-20)
(53.209174 4.271571 -8.4010169e-20)
(53.169807 4.1578685 2.6296687e-21)
(53.126203 4.0436724 -8.7036564e-20)
(53.078086 3.9286962 8.477816e-20)
(53.025236 3.8127288 2.6648376e-21)
(52.967596 3.6956276 -2.6837195e-21)
(52.905315 3.5774128 0)
(52.838671 3.4581988 -9.0265933e-20)
(52.767912 3.3381027 8.8512775e-20)
(52.693293 3.2171488 -8.685114e-20)
(52.615105 3.095432 0)
(52.533777 2.97313 -1.1059664e-24)
(52.449846 2.8504898 0)
(52.364696 2.7281622 -9.5207343e-20)
(52.284672 2.6085873 0)
(52.223952 2.5028554 9.6946147e-20)
(52.185869 2.414381 9.55682e-20)
(52.154922 2.3304902 3.753636e-19)
(52.126046 2.2488084 2.87809e-21)
(52.098266 2.1687813 1.7793375e-19)
(52.071555 2.0904054 -3.5474e-19)
(52.04585 2.013559 2.7208358e-21)
(52.021149 1.938186 1.6543176e-19)
(51.997442 1.8641911 -1.6493211e-19)
(51.974711 1.7914993 1.6438356e-19)
(51.95294 1.7200194 0)
(51.932103 1.6496798 1.1017868e-24)
(51.912186 1.5803962 0)
(51.893174 1.5120987 0)
(51.875039 1.444702 0)
(51.857768 1.378139 1.4649843e-19)
(51.841345 1.3123271 1.1226107e-21)
(51.825757 1.2471976 -1.1009653e-21)
(51.810985 1.182675 1.3934416e-19)
(51.797015 1.1186872 -2.7228353e-19)
(51.783829 1.0551607 1.0385489e-21)
(51.771405 0.99202127 2.6088901e-19)
(51.759729 0.92919319 -9.9969078e-22)
(51.748793 0.86659936 0)
(51.738579 0.80416407 2.4714647e-19)
(51.729082 0.74180063 -1.8859388e-21)
(51.720286 0.67944144 -4.7256539e-19)
(51.712198 0.61697643 0)
(51.704794 0.55436361 -9.9063699e-25)
(51.698111 0.49142646 2.2379219e-19)
(51.692093 0.4282088 -4.2782313e-22)
(51.686836 0.36437294 2.1481749e-19)
(51.682204 0.30017334 -4.2128577e-19)
(51.678414 0.23493019 0)
(51.675243 0.16937388 0)
(51.673046 0.10211272 -4.7697706e-23)
(51.67141 0.034761738 4.70026e-23)
(51.442317 17.077888 -8.1337431e-21)
(51.625526 16.589848 -1.2332151e-24)
(51.791767 16.12023 -7.8427022e-21)
(51.94315 15.667682 7.7057069e-21)
(52.08091 15.231841 -1.5155864e-20)
(52.206354 14.812516 0)
(52.320726 14.408808 0)
(52.425072 14.020356 1.4423614e-20)
(52.520621 13.646515 -1.4193139e-20)
(52.608169 13.286503 -6.9881777e-21)
(52.688438 12.939974 -6.8811622e-21)
(52.762396 12.606083 1.355987e-20)
(52.830546 12.284211 -1.3364079e-20)
(52.893486 11.973993 1.9764333e-20)
(52.951841 11.674576 6.49914e-21)
(53.00587 11.385578 1.9231789e-20)
(53.056092 11.106409 2.3805229e-24)
(53.102841 10.836459 6.2488891e-21)
(53.146344 10.575375 -6.1705581e-21)
(53.186801 10.322456 -6.0987696e-21)
(53.224307 10.077444 -2.4110859e-20)
(53.259015 9.8397647 2.3828627e-20)
(53.29098 9.6091638 -2.3561076e-20)
(53.320418 9.3852507 2.3308063e-20)
(53.347479 9.167664 0)
(53.372293 8.9560888 2.8576314e-20)
(53.39491 8.7501512 4.2263734e-25)
(53.415297 8.5495624 2.2557981e-20)
(53.433406 8.3540291 -5.0412644e-20)
(53.449233 8.1633412 -3.8937893e-20)
(53.462772 7.9772084 3.8810826e-25)
(53.474005 7.7954047 -5.4954283e-21)
(53.482908 7.6176633 1.6393807e-20)
(53.489417 7.4437091 2.7195654e-20)
(53.493447 7.2733239 0)
(53.494953 7.1062229 2.159675e-20)
(53.493941 6.9422688 1.0557037e-24)
(53.490536 6.7813798 5.3758576e-21)
(53.48488 6.6235257 3.7584199e-20)
(53.477033 6.4685836 0)
(53.467014 6.3163895 0)
(53.455 6.1669645 5.370243e-21)
(53.441357 6.0204502 -5.3765895e-21)
(53.426713 5.8772149 8.075766e-20)
(53.411975 5.7378137 -3.7714108e-20)
(53.398322 5.603051 5.3818809e-21)
(53.386645 5.4736592 -5.3636935e-21)
(53.375989 5.348602 -1.211925e-24)
(53.364378 5.2261474 0)
(53.350765 5.1055309 -2.6425162e-21)
(53.334759 4.9864191 -3.9466803e-20)
(53.316145 4.8685813 -2.6216124e-21)
(53.294756 4.7517958 2.6137002e-21)
(53.270385 4.6358464 4.4335634e-20)
(53.242803 4.5204916 1.0924501e-25)
(53.211762 4.4054695 8.329951e-20)
(53.17699 4.2905176 -2.6045601e-21)
(53.138192 4.175346 -2.609117e-21)
(53.095077 4.0596807 2.6170005e-21)
(53.047379 3.943243 -8.4131798e-20)
(52.994905 3.8258345 0)
(52.937631 3.7073326 -2.666564e-21)
(52.875728 3.587792 -8.842731e-26)
(52.809484 3.4673244 2.718282e-21)
(52.739135 3.3460341 -8.5280585e-20)
(52.66493 3.2239508 -2.7852182e-21)
(52.587185 3.1011732 2.8226477e-21)
(52.506341 2.9778886 9.1639784e-20)
(52.422986 2.8543728 -5.8194949e-21)
(52.338823 2.7313464 -9.1690375e-20)
(52.261149 2.6120265 0)
(52.204152 2.5082946 -9.5758372e-20)
(52.1684 2.4204594 0)
(52.138404 2.3362824 -2.8918938e-21)
(52.110212 2.2542614 2.8398745e-21)
(52.083065 2.173934 -1.7835294e-19)
(52.056948 2.0952693 3.5000863e-19)
(52.031807 2.018148 -1.7440089e-19)
(52.007637 1.9425103 5.2652869e-21)
(51.984432 1.8682607 1.627259e-19)
(51.962173 1.7953249 -1.621843e-19)
(51.940848 1.7236111 -2.4861253e-21)
(51.920432 1.6530471 -1.5608006e-19)
(51.900911 1.5835491 -1.4827055e-19)
(51.882271 1.5150465 -4.6939785e-21)
(51.864487 1.4474542 2.3020586e-21)
(51.847545 1.3807047 -1.4451502e-19)
(51.831432 1.3147159 0)
(51.816136 1.2494174 1.0862518e-21)
(51.801637 1.1847321 -1.3746777e-19)
(51.787923 1.1205903 -1.4666628e-24)
(51.774976 1.0569166 0)
(51.762776 0.99363704 -2.5736286e-19)
(51.751308 0.930675 2.5245584e-19)
(51.740566 0.86795352 2.4762081e-19)
(51.730531 0.80539611 -2.4285876e-19)
(51.7212 0.74291603 -2.3721126e-19)
(51.712556 0.68044461 -1.0701756e-24)
(51.704607 0.61787244 -1.3423325e-21)
(51.697329 0.55515554 2.2466974e-19)
(51.690758 0.49211891 4.303397e-22)
(51.68484 0.42880353 0)
(51.67967 0.3648742 0)
(51.675111 0.30058094 2.0778691e-19)
(51.671381 0.23524913 2.0376473e-19)
(51.668261 0.16959835 0)
(51.666088 0.10224593 -3.9191648e-19)
(51.664464 0.034810746 0)
(51.013425 17.070551 8.0208465e-21)
(51.2191 16.5967 -1.344206e-24)
(51.406946 16.13972 0)
(51.579082 15.697817 -7.6133946e-21)
(51.736602 15.270946 7.4823621e-21)
(51.880838 14.859319 7.3669835e-21)
(52.01306 14.461898 7.2471094e-21)
(52.134292 14.078723 -2.8533845e-20)
(52.245823 13.709146 0)
(52.348424 13.352474 -6.917539e-21)
(52.442848 13.00862 6.8146904e-21)
(52.530146 12.676707 -2.0150002e-20)
(52.610824 12.356225 6.6207443e-21)
(52.685527 12.046993 0)
(52.754937 11.748069 -1.9322655e-20)
(52.819312 11.459234 -6.357779e-21)
(52.879239 11.179919 -6.2741989e-21)
(52.935069 10.909537 -2.4789882e-20)
(52.987059 10.647818 2.4494708e-20)
(53.035457 10.394043 4.4576095e-25)
(53.080408 10.148046 -2.9928009e-20)
(53.122128 9.9092176 0)
(53.160692 9.6773671 2.3442065e-20)
(53.19634 9.4521081 -2.3213559e-20)
(53.229232 9.2330953 0)
(53.2595 9.0200255 -2.8495778e-20)
(53.287217 8.8125309 5.6517452e-21)
(53.312394 8.610335 -2.803808e-20)
(53.335031 8.4131496 3.3398995e-20)
(53.35513 8.2207705 3.8700112e-20)
(53.372696 8.0329151 0)
(53.387711 7.8493527 1.638375e-20)
(53.400166 7.6698227 5.4327223e-21)
(53.410007 7.4940514 -5.4066347e-21)
(53.417161 7.3218303 5.3864083e-21)
(53.421615 7.1528867 5.3696224e-21)
(53.423417 6.9871267 -5.3549282e-21)
(53.422722 6.8244865 0)
(53.419661 6.6649184 2.0234404e-24)
(53.414273 6.5082744 5.3366684e-21)
(53.40662 6.3544348 -5.3366961e-21)
(53.39694 6.2034665 0)
(53.385662 6.0555569 5.3462136e-21)
(53.373486 5.9111396 -9.0971314e-20)
(53.361374 5.7707905 -5.3523345e-21)
(53.350502 5.6353659 5.3417044e-21)
(53.341425 5.5052774 -3.7251887e-20)
(53.332778 5.3791038 -5.2950733e-21)
(53.32275 5.255307 -4.2128995e-20)
(53.310516 5.1332958 0)
(53.295765 5.0127777 0)
(53.278302 4.8935325 0)
(53.257967 4.7753397 -3.8882871e-20)
(53.234555 4.6579801 1.0453318e-24)
(53.207835 4.5412104 -2.5830966e-21)
(53.17756 4.4247663 0)
(53.14346 4.308387 -8.2688373e-20)
(53.105245 4.1917795 -2.5888371e-21)
(53.062631 4.0746759 8.5707394e-20)
(53.015368 3.956806 -2.6096605e-21)
(52.963288 3.8379882 -8.1424804e-20)
(52.906398 3.7181229 -8.4720512e-20)
(52.844901 3.5972922 0)
(52.779085 3.4756014 1.7548355e-19)
(52.709178 3.3531476 8.1920607e-20)
(52.635427 3.2299588 2.7647148e-21)
(52.558167 3.1061537 -8.9658085e-20)
(52.477857 2.9819237 -9.0970869e-20)
(52.395148 2.8575871 0)
(52.31212 2.7339549 9.0944908e-20)
(52.237095 2.615162 2.967925e-21)
(52.183927 2.5135316 0)
(52.15036 2.4260575 9.0163538e-20)
(52.121323 2.3416092 -1.7701551e-19)
(52.093848 2.2592808 5.4443103e-26)
(52.067366 2.1786761 1.7595688e-19)
(52.041871 2.0997446 -3.479928e-19)
(52.017319 2.0223689 0)
(51.993705 1.9464865 1.6621812e-19)
(51.971025 1.8720014 0)
(51.94926 1.7988405 1.5749066e-19)
(51.928401 1.7269101 4.904935e-21)
(51.908424 1.6561391 -2.4057498e-21)
(51.889317 1.5864434 -1.0622427e-24)
(51.871067 1.5177516 -1.4816394e-19)
(51.853649 1.4499785 -1.4306087e-19)
(51.837051 1.3830565 -2.2271047e-21)
(51.821263 1.316903 0)
(51.80627 1.2514481 0)
(51.792056 1.1866138 -1.3454294e-19)
(51.778609 1.1223302 2.6392988e-19)
(51.765912 1.058521 0)
(51.753945 0.99511247 0)
(51.742694 0.93202713 -2.4999045e-19)
(51.732153 0.86918828 -4.8752865e-19)
(51.722305 0.8065186 9.3571037e-22)
(51.713146 0.7439315 4.6977679e-19)
(51.70466 0.68135705 4.5981129e-19)
(51.696856 0.61868676 -2.2595861e-19)
(51.689709 0.5558745 0)
(51.683255 0.49274689 -4.2445421e-22)
(51.67744 0.42934209 -2.1270914e-19)
(51.67236 0.36532738 0)
(51.667879 0.30094846 0)
(51.66421 0.23553581 -2.007742e-19)
(51.661143 0.16979866 -2.8864229e-22)
(51.658995 0.10236084 1.9335375e-19)
(51.657384 0.034853187 0)
(50.587252 17.057205 -7.9099387e-21)
(50.814123 16.597968 -1.5330672e-26)
(51.02263 16.154326 7.6467076e-21)
(51.214611 15.723601 -1.4669752e-25)
(51.391078 15.306303 2.2193224e-20)
(51.553481 14.902922 -2.1841024e-20)
(51.703049 14.512287 -1.4336745e-20)
(51.840762 14.134905 2.1169742e-20)
(51.967954 13.770011 0)
(52.08537 13.417049 0)
(52.19378 13.076246 2.0247802e-20)
(52.294307 12.746604 -6.6553829e-21)
(52.38745 12.427766 -6.56152e-21)
(52.473888 12.119757 -2.5886781e-20)
(52.554351 11.821494 6.3854826e-21)
(52.629094 11.532967 1.8909852e-20)
(52.698768 11.253619 6.2241574e-21)
(52.763738 10.982877 -1.2298351e-20)
(52.824287 10.720582 -6.0753936e-21)
(52.880711 10.465978 -2.4030575e-20)
(52.933195 10.219012 2.9707386e-20)
(52.982012 9.9790298 5.879643e-21)
(53.02726 9.7459149 -5.8201591e-21)
(53.069207 9.5192774 0)
(53.108017 9.2987886 5.7122233e-21)
(53.143831 9.0841637 -5.662438e-21)
(53.176748 8.8750525 0)
(53.206819 8.671194 2.2293191e-20)
(53.234071 8.4723059 -5.5329439e-21)
(53.258526 8.2781839 -1.0990002e-20)
(53.280195 8.0885537 -5.4608725e-21)
(53.299065 7.9031801 0)
(53.315139 7.7218155 -2.700997e-20)
(53.328378 7.5441815 -1.0754231e-20)
(53.338724 7.3700865 1.0714575e-20)
(53.346204 7.1992795 -1.6022024e-20)
(53.350907 7.0317076 -2.1309429e-20)
(53.353006 6.8673147 0)
(53.352611 6.706024 2.0451459e-24)
(53.349755 6.547681 5.3080949e-21)
(53.344559 6.3922203 -4.2465475e-20)
(53.337319 6.2397448 -5.310974e-21)
(53.328531 6.0905023 -4.2524917e-20)
(53.318966 5.9449738 4.2547052e-20)
(53.309627 5.8037609 -4.2528959e-20)
(53.301639 5.6677304 8.4844512e-20)
(53.295123 5.536864 -4.2227614e-20)
(53.288425 5.4094972 4.1996639e-20)
(53.279978 5.2843387 4.1774378e-20)
(53.269151 5.1609291 -3.6377879e-20)
(53.255686 5.0390027 -5.1747735e-21)
(53.239405 4.918348 -4.1251689e-20)
(53.220153 4.7987439 4.1132339e-20)
(53.197725 4.6799688 -4.6176932e-20)
(53.171889 4.561777 2.5620628e-21)
(53.1424 4.4439029 2.5614583e-21)
(53.108991 4.3260868 8.2032925e-20)
(53.071376 4.2080334 0)
(53.029279 4.0894828 -8.2475544e-20)
(52.982469 3.9701739 2.5902711e-21)
(52.930802 3.849944 8.3427881e-20)
(52.874322 3.7287168 8.4095542e-20)
(52.813259 3.6065996 -2.6520783e-21)
(52.747897 3.4836866 -1.7151318e-19)
(52.678454 3.3600741 8.6735757e-20)
(52.605184 3.2357825 0)
(52.528438 3.1109597 8.8979316e-20)
(52.448696 2.9857974 8.7442369e-20)
(52.366694 2.8606636 2.8640798e-21)
(52.284974 2.7364981 9.0165684e-20)
(52.21293 2.618504 2.9357628e-21)
(52.163641 2.5189817 0)
(52.13203 2.4316755 1.0302552e-24)
(52.103916 2.346954 2.8166015e-21)
(52.077168 2.2643268 -1.7965842e-19)
(52.051363 2.1834475 -3.4711941e-19)
(52.026502 2.1042511 1.7297483e-19)
(52.002549 2.0266222 -2.6108722e-21)
(51.979502 1.950496 -3.2790913e-19)
(51.957356 1.875776 1.5834175e-19)
(51.936096 1.8023903 4.9314812e-21)
(51.915711 1.7302431 3.4695079e-26)
(51.896183 1.6592647 3.2594298e-26)
(51.877497 1.5893707 1.4660327e-19)
(51.859644 1.5204891 1.4841009e-19)
(51.8426 1.4525346 -2.240601e-21)
(51.826354 1.3854388 1.4056889e-19)
(51.810895 1.3191206 -1.0775266e-21)
(51.796212 1.2535075 1.3738756e-19)
(51.782288 1.1885229 2.6331114e-19)
(51.769114 1.1240957 2.0336049e-21)
(51.756671 1.0601496 -1.993598e-21)
(51.744941 0.9966107 -8.2448157e-27)
(51.733913 0.9334006 -2.4558895e-19)
(51.723577 0.87044299 2.4181469e-19)
(51.71392 0.80765952 -2.3623865e-19)
(51.704937 0.74496402 -2.3165088e-19)
(51.696612 0.68228504 1.0880651e-24)
(51.688955 0.61951515 2.2283689e-19)
(51.681942 0.55660613 0)
(51.675608 0.49338608 2.1431997e-19)
(51.669899 0.42989044 2.1059238e-19)
(51.66491 0.36578898 1.4788976e-27)
(51.660507 0.30132303 -2.0250545e-19)
(51.6569 0.23582798 0)
(51.653888 0.17000355 -1.9431184e-19)
(51.651766 0.10247863 4.6528153e-23)
(51.650168 0.034897321 -4.5092067e-23)
(50.171828 17.012524 -1.5533528e-20)
(50.418183 16.569336 -7.6682793e-21)
(50.645586 16.141103 -7.5473519e-21)
(50.855587 15.723328 -1.4858786e-20)
(51.049524 15.317342 0)
(51.22891 14.923845 -7.1983178e-21)
(51.394792 14.541537 2.126365e-20)
(51.548077 14.171525 0)
(51.690159 13.812717 0)
(51.821758 13.464779 6.7799767e-21)
(51.943629 13.12834 -6.6806591e-21)
(52.056952 12.80214 1.3180091e-20)
(52.162204 12.486037 1.3000832e-20)
(52.26009 12.180307 -2.3384084e-24)
(52.351378 11.883634 0)
(52.436305 11.596305 -1.2501397e-20)
(52.515592 11.317746 0)
(52.589604 11.047398 1.8301584e-20)
(52.658646 10.785234 3.5493641e-25)
(52.723062 10.530447 -7.8341822e-25)
(52.783066 10.283124 2.9497436e-20)
(52.838985 10.042543 -2.3355148e-20)
(52.890934 9.8086879 -2.312453e-20)
(52.939208 9.5811497 0)
(52.983968 9.3596195 0)
(53.025372 9.1438405 0)
(53.063543 8.933484 -1.6745363e-20)
(53.098566 8.728305 -2.7694654e-20)
(53.130492 8.5280307 -5.4998215e-21)
(53.15936 8.3324544 -1.6390094e-20)
(53.185188 8.1413108 0)
(53.207969 7.9543631 0)
(53.227722 7.7713809 2.1485399e-20)
(53.244419 7.592078 0)
(53.258023 7.416292 -2.6640115e-20)
(53.268609 7.2438001 5.310693e-21)
(53.276299 7.0745855 5.2995082e-21)
(53.281271 6.908589 1.5869787e-20)
(53.28361 6.7456996 -4.2263994e-20)
(53.283365 6.5857837 4.2239974e-20)
(53.280724 6.4288324 3.6957109e-20)
(53.276036 6.2749831 5.2818708e-21)
(53.269872 6.1245554 4.7562893e-20)
(53.263061 5.9780566 4.2283316e-20)
(53.256636 5.8361306 -5.2804902e-21)
(53.251596 5.6995757 -4.2092293e-20)
(53.247571 5.5678773 8.3757778e-20)
(53.242772 5.4392949 4.6851843e-20)
(53.235914 5.3127948 -5.1779632e-21)
(53.226521 5.1880143 8.7606826e-20)
(53.214374 5.064705 2.2057912e-25)
(53.199304 4.9426624 3.0682e-20)
(53.181162 4.8216651 4.5894635e-20)
(53.159742 4.7014889 0)
(53.134814 4.581886 0)
(53.106133 4.4625902 0)
(53.073435 4.3433426 0)
(53.036438 4.223847 0)
(52.99488 4.1038537 0)
(52.948545 3.9831112 7.9702833e-20)
(52.897319 3.8614773 2.5880515e-21)
(52.841285 3.738901 8.3485287e-20)
(52.780691 3.6155115 0)
(52.715816 3.4913878 8.512726e-20)
(52.646868 3.3666285 1.3175186e-24)
(52.574112 3.2412475 2.7235178e-21)
(52.497915 3.1154245 -2.7592494e-21)
(52.418784 2.9893514 -9.2364908e-20)
(52.337559 2.8634554 5.6824985e-21)
(52.257363 2.7388586 -5.7654596e-21)
(52.188637 2.621982 5.8052927e-21)
(52.143244 2.5244689 -9.1957535e-20)
(52.113326 2.4372015 1.0937644e-24)
(52.086125 2.3522202 -2.7781652e-21)
(52.060117 2.2693063 1.7175057e-19)
(52.035005 2.188159 1.7386613e-19)
(52.010794 2.1087037 0)
(51.987456 2.0308265 1.6481482e-19)
(51.964989 1.9544609 1.5917441e-19)
(51.943391 1.8795106 2.480104e-21)
(51.922647 1.8059032 0)
(51.902748 1.7335428 -2.3856283e-21)
(51.883679 1.66236 -1.4743333e-19)
(51.865425 1.5922707 0)
(51.847979 1.5232018 -1.4635522e-19)
(51.831318 1.4550681 4.4163365e-21)
(51.815431 1.3878005 -2.815687e-19)
(51.800311 1.3213189 2.1251512e-21)
(51.785945 1.2555496 -1.334026e-19)
(51.772319 1.1904163 -1.3084939e-19)
(51.759424 1.1258472 -2.5668863e-19)
(51.747242 1.0617654 0)
(51.735756 0.99809718 0)
(51.724955 0.93476347 2.4122681e-19)
(51.71483 0.87168807 2.3845364e-19)
(51.705367 0.80879167 2.3386199e-19)
(51.696564 0.74598864 2.2664694e-19)
(51.688405 0.68320595 -2.231436e-19)
(51.680899 0.62033724 8.5835321e-22)
(51.674022 0.55733214 -4.2089169e-22)
(51.667811 0.49402038 -4.2267189e-19)
(51.66221 0.43043454 -4.0479488e-22)
(51.657315 0.36624692 -2.0325187e-19)
(51.652993 0.30169458 3.9837225e-19)
(51.649449 0.23611757 1.9561224e-19)
(51.646493 0.17020699 3.8317685e-19)
(51.644397 0.10259492 1.8797098e-19)
(51.642814 0.03494145 1.8209481e-19)
(49.767301 16.943926 7.6487102e-21)
(50.030655 16.522168 7.4926437e-21)
(50.274026 16.112883 7.3831132e-21)
(50.50038 15.708819 -1.4614215e-20)
(50.710814 15.314914 2.1654976e-20)
(50.906229 14.932112 7.1184055e-21)
(51.087518 14.558936 7.0111301e-21)
(51.255591 14.197244 0)
(51.411902 13.845248 0)
(51.557171 13.503042 2.0140247e-20)
(51.692067 13.171749 -1.9857742e-20)
(51.81782 12.849627 0)
(51.934897 12.536865 6.443805e-21)
(52.044002 12.234031 1.9074908e-20)
(52.145933 11.939442 0)
(52.240905 11.653815 -6.2002188e-21)
(52.329706 11.376497 -2.9646807e-25)
(52.412694 11.106945 1.8162052e-20)
(52.490194 10.845296 1.7956753e-20)
(52.562589 10.590658 -5.9196965e-21)
(52.630119 10.343297 2.9597162e-24)
(52.693161 10.102395 -2.7799029e-24)
(52.751838 9.8680618 2.2967243e-20)
(52.806468 9.6398549 0)
(52.857218 9.4174927 -5.6391042e-21)
(52.904262 9.2007555 2.7959863e-20)
(52.947748 8.9893363 5.545571e-21)
(52.987786 8.7830005 3.0735401e-25)
(53.024445 8.5814942 -5.4670789e-21)
(53.057782 8.3846014 2.7155946e-20)
(53.087823 8.1920688 2.9897371e-25)
(53.11457 8.0036644 -5.3683058e-21)
(53.138056 7.8191737 -2.1368668e-20)
(53.158267 7.6383008 2.1277154e-20)
(53.175196 7.4609294 2.1200472e-20)
(53.188966 7.2868631 4.2274244e-20)
(53.199722 7.1161137 0)
(53.207637 6.9486044 -2.1047835e-20)
(53.212773 6.7841967 0)
(53.215221 6.6228039 -8.4035053e-20)
(53.215232 6.4644637 -4.2014078e-20)
(53.21321 6.3093566 -5.2530552e-21)
(53.209807 6.1578738 5.2537757e-21)
(53.20589 6.0105318 -4.2010992e-20)
(53.202511 5.8680312 4.7170537e-20)
(53.200439 5.73098 -1.0439808e-20)
(53.198814 5.5983735 -3.6339212e-20)
(53.195876 5.4685565 -4.1295372e-20)
(53.190621 5.3407303 0)
(53.182689 5.2145993 -3.5771488e-20)
(53.171886 5.0899258 -4.5803343e-20)
(53.158056 4.966512 0)
(53.141049 4.8441345 -4.5517421e-20)
(53.120661 4.7225673 1.0095179e-20)
(53.09666 4.6015604 -5.0420708e-21)
(53.068805 4.4808481 0)
(53.036836 4.3601717 -8.0753055e-20)
(53.000474 4.2392356 -5.058714e-21)
(52.959472 4.1178024 5.0773636e-21)
(52.913635 3.9956305 -8.1660941e-20)
(52.862877 3.8726002 8.4780442e-20)
(52.807322 3.748688 1.528962e-24)
(52.74723 3.624039 -5.2269808e-21)
(52.682872 3.4987167 8.7146039e-20)
(52.614452 3.3728187 -8.5455639e-20)
(52.542241 3.2463643 0)
(52.466632 3.1195563 8.7626891e-20)
(52.388154 2.9925959 8.6092289e-20)
(52.307793 2.8659734 2.8179517e-21)
(52.229361 2.7410777 -9.1450737e-20)
(52.164289 2.6256654 8.8930222e-20)
(52.122691 2.5299674 9.6350228e-20)
(52.094265 2.4426418 -9.2132347e-20)
(52.067963 2.3574193 -2.7400029e-21)
(52.042709 2.2742302 2.6884354e-21)
(52.018305 2.1928211 -2.6380561e-21)
(51.994758 2.1131127 1.6824766e-19)
(51.972047 2.0349919 -1.6253229e-19)
(51.950174 1.9583913 2.4914797e-21)
(51.929136 1.8832148 -1.6132732e-19)
(51.908919 1.8093888 1.5347172e-19)
(51.889518 1.7368187 2.3524122e-21)
(51.870917 1.6654341 2.9537685e-19)
(51.853106 1.5951519 0)
(51.836075 1.525898 2.8417474e-19)
(51.819806 1.4575869 1.3937838e-19)
(51.804287 1.3901492 1.3454553e-19)
(51.789513 1.3235061 -2.1995345e-26)
(51.775471 1.2575816 4.1106378e-21)
(51.76215 1.1923009 -2.0158796e-21)
(51.74954 1.1275907 5.0618793e-19)
(51.737625 1.0633742 -2.4816371e-19)
(51.726388 0.99957744 -2.4243867e-19)
(51.715819 0.93612098 7.1638584e-27)
(51.705909 0.87292823 -1.8283994e-21)
(51.696647 0.80991953 -2.2878799e-19)
(51.688027 0.7470095 1.1452513e-24)
(51.680037 0.68412351 -2.2088111e-19)
(51.672685 0.62115642 -2.1580773e-19)
(51.665949 0.55805559 -8.2996577e-22)
(51.659862 0.49465246 2.083685e-19)
(51.654373 0.43097675 -3.9911078e-22)
(51.649573 0.36670321 2.0077757e-19)
(51.645333 0.30206474 8.9129134e-25)
(51.641855 0.23640592 -1.9267897e-19)
(51.638954 0.17041032 -1.8889787e-19)
(51.636887 0.1027102 -3.7056005e-19)
(51.635319 0.034985884 -3.5918373e-19)
(49.37087 16.86672 7.5909052e-21)
(49.650204 16.461395 0)
(49.911016 16.060192 0)
(50.153528 15.669574 3.6024624e-20)
(50.378548 15.291735 -2.123423e-20)
(50.587806 14.922814 -2.7946173e-20)
(50.783261 14.559937 6.9082443e-21)
(50.965145 14.207787 -1.365322e-20)
(51.134833 13.863477 -6.7410218e-21)
(51.293084 13.527913 -1.3292859e-20)
(51.440387 13.202815 6.557128e-21)
(51.578028 12.885599 -1.2939566e-20)
(51.706518 12.576983 -1.2769864e-20)
(51.826488 12.277892 -2.011608e-25)
(51.938757 11.98607 1.8677453e-20)
(52.043533 11.702852 0)
(52.141662 11.42742 -6.0774865e-21)
(52.233478 11.159248 -6.0069728e-21)
(52.319323 10.898675 -1.1881363e-20)
(52.39962 10.644686 0)
(52.474625 10.397775 -2.3265908e-20)
(52.544758 10.156981 1.7275845e-20)
(52.610144 9.9225772 -2.7907947e-25)
(52.671124 9.6940697 5.6523874e-21)
(52.72787 9.4712152 5.6037841e-21)
(52.780578 9.2538388 -2.2228785e-20)
(52.829415 9.0416507 1.6541571e-20)
(52.874507 8.8344236 0)
(52.915938 8.6319262 0)
(52.953785 8.4339377 -2.1602139e-20)
(52.988081 8.2402158 1.6104754e-20)
(53.018839 8.0505396 2.669504e-20)
(53.046103 7.8647078 2.6565277e-20)
(53.06988 7.68242 -4.7619128e-20)
(53.090202 7.503623 -1.5816429e-20)
(53.107235 7.328137 -2.6284343e-20)
(53.121134 7.1559954 0)
(53.132055 6.987091 0)
(53.140055 6.8212787 0)
(53.145285 6.658536 4.1797634e-20)
(53.148052 6.4989347 7.8355383e-20)
(53.148823 6.3427163 5.2236058e-21)
(53.148322 6.1903281 -4.1781229e-20)
(53.147441 6.0422932 0)
(53.147226 5.8993619 -4.1620595e-20)
(53.148096 5.7618067 4.142295e-20)
(53.148776 5.6282274 -5.1481909e-21)
(53.147679 5.4971779 -3.0712786e-20)
(53.144047 5.3680508 3.5642559e-20)
(53.137603 5.2405965 0)
(53.128174 5.1145836 4.0375551e-20)
(53.115611 4.98982 0)
(53.099766 4.8660798 0)
(53.080431 4.7431352 0)
(53.057379 4.6207355 5.0018512e-21)
(53.03037 4.4986148 -5.0018197e-21)
(52.999147 4.3765152 1.6024785e-19)
(52.96344 4.2541437 8.0320654e-20)
(52.923015 4.1312768 0)
(52.877698 4.007683 -8.6122226e-20)
(52.827439 3.8832677 -7.6511937e-20)
(52.772397 3.7580366 -5.1408705e-21)
(52.712843 3.6321432 8.8213495e-20)
(52.649033 3.5056369 -8.1262e-20)
(52.581171 3.378612 -2.6508103e-21)
(52.509543 3.2511034 8.5856667e-20)
(52.434562 3.123329 -1.7393208e-19)
(52.356786 2.9955081 2.7557184e-21)
(52.277398 2.8681961 8.66577e-20)
(52.201006 2.7431824 9.062911e-20)
(52.139908 2.6295841 -1.8140829e-19)
(52.101927 2.5354437 0)
(52.07483 2.4479943 -8.8106338e-20)
(52.049419 2.3625409 0)
(52.024933 2.2790877 0)
(52.001251 2.197424 -1.6647632e-19)
(51.978383 2.1174686 -1.6334803e-19)
(51.956315 2.0391096 2.5041286e-21)
(51.935048 1.9622789 -2.4565081e-21)
(51.914581 1.8868808 -1.5424974e-19)
(51.894904 1.8128399 -1.5131951e-19)
(51.876011 1.7400637 0)
(51.857891 1.6684807 -2.9123049e-19)
(51.840531 1.5980084 0)
(51.823926 1.528572 -1.4226777e-19)
(51.808057 1.4600857 4.2941924e-21)
(51.792915 1.3924803 -2.1055882e-21)
(51.778494 1.3256773 -2.0658787e-21)
(51.764785 1.2595994 2.0263862e-21)
(51.751775 1.1941726 -1.2719026e-19)
(51.739457 1.1293228 1.5112267e-24)
(51.727815 1.0649726 2.4467615e-19)
(51.716833 1.0010484 2.3993693e-19)
(51.706501 0.93747025 0)
(51.696812 0.87416088 9.031474e-22)
(51.687753 0.81104072 2.2555035e-19)
(51.679323 0.74802441 8.6853811e-22)
(51.671506 0.6850358 2.1691059e-19)
(51.664312 0.62197089 4.2717317e-19)