/*--------------------------------*- C++ -*----------------------------------*\
| =========                 |                                                 |
| \\      /  F ield         | OpenFOAM: The Open Source CFD Toolbox           |
|  \\    /   O peration     | Version:  2406                                  |
|   \\  /    A nd           | Website:  www.openfoam.com                      |
|    \\/     M anipulation  |                                                 |
\*---------------------------------------------------------------------------*/
FoamFile
{
    version     2.0;
    format      ascii;
    arch        "LSB;label=32;scalar=64";
    class       volScalarField;
    location    "0.009";
    object      alphat;
}
// * * * * * * * * * * * * * * * * * * * * * * * * * * * * * * * * * * * * * //

dimensions      [1 -1 -1 0 0 0 0];

internalField   nonuniform List<scalar> 
23203
(
0.056541104
0.061939146
0.067646106
0.073594428
0.079770598
0.086171659
0.0927983
0.099651522
0.10673569
0.1140581
0.12162376
0.12944761
0.1375448
0.14592178
0.15459368
0.16357972
0.17290199
0.18257726
0.19262005
0.063914373
0.069305047
0.074934691
0.080806554
0.086919909
0.093270952
0.099857267
0.10667923
0.11374026
0.12104605
0.12860329
0.1364242
0.14451917
0.15289961
0.16157724
0.17057146
0.17990182
0.18957752
0.19960663
0.07186574
0.077209743
0.08276754
0.088565273
0.094607974
0.10089468
0.10742431
0.11419802
0.12121911
0.12849283
0.13602608
0.14382839
0.15190985
0.16028191
0.1689568
0.17795087
0.18727826
0.19695037
0.20697665
0.080383682
0.085667474
0.091158314
0.096885628
0.1028574
0.10907598
0.11554265
0.12225994
0.12923181
0.13646365
0.14396228
0.15173623
0.15979527
0.1681503
0.17681326
0.18579777
0.19511703
0.20478315
0.21480703
0.089457166
0.094677565
0.10010162
0.10575958
0.11166089
0.11781038
0.12421139
0.13086787
0.1377847
0.14496775
0.15242398
0.16016165
0.16819015
0.17651992
0.18516236
0.19412988
0.20343511
0.21309024
0.22310718
0.09907446
0.1042314
0.10958892
0.11517846
0.12101031
0.12709104
0.1334256
0.14001921
0.14687767
0.15400747
0.16141592
0.16911126
0.17710271
0.18540041
0.19401533
0.20295924
0.21224429
0.22188263
0.23188665
0.10923512
0.11432856
0.11962025
0.12514264
0.13090633
0.13691925
0.14318758
0.14971757
0.15651586
0.16358958
0.17094642
0.17859481
0.18654395
0.19480382
0.20338511
0.21229919
0.22155786
0.23117317
0.2411576
0.11994434
0.1249745
0.13020124
0.13565775
0.14135464
0.14730082
0.15350347
0.15996965
0.16670672
0.17372236
0.1810247
0.18862242
0.19652479
0.20474173
0.2132838
0.2221621
0.23138819
0.24097392
0.25093167
0.1312116
0.13617926
0.14134181
0.14673337
0.15236442
0.15824466
0.16438202
0.17078422
0.17745918
0.18441509
0.19166045
0.1992042
0.20705578
0.2152251
0.22372265
0.23255935
0.24174658
0.25129596
0.26121965
0.143052
0.14795798
0.15305609
0.15838257
0.16394788
0.16976227
0.17583419
0.18217184
0.18878357
0.19567797
0.20286389
0.2103505
0.21814738
0.2262645
0.23471229
0.24350157
0.2526435
0.2621495
0.27203145
0.15548288
0.16032804
0.16536019
0.17062019
0.17611882
0.18186657
0.18787216
0.19414407
0.20069097
0.20752175
0.21464551
0.22207161
0.22980975
0.23786996
0.24626262
0.25499844
0.2640884
0.27354366
0.28337582
0.16851959
0.17330446
0.17826887
0.18346056
0.18889098
0.19457063
0.2005083
0.20671265
0.21319256
0.2199571
0.22701554
0.2343774
0.24205245
0.25005073
0.25838257
0.26705856
0.2760895
0.28548626
0.29526012
0.18217543
0.18690021
0.19179528
0.19691687
0.20227723
0.20788684
0.21375446
0.21988885
0.226299
0.23299411
0.23998357
0.24727695
0.25488407
0.26281495
0.27107984
0.27968918
0.28865354
0.29798354
0.30769007
0.1964629
0.20112747
0.20595158
0.21100114
0.21628932
0.22182651
0.22762142
0.23368286
0.2400199
0.2466418
0.253558
0.2607781
0.26831188
0.27616932
0.28436055
0.29289583
0.30178551
0.31103987
0.32066944
0.21139417
0.21599763
0.22074884
0.22572412
0.23093758
0.2363995
0.24211851
0.24810344
0.25436339
0.26090765
0.26774566
0.27488699
0.28234137
0.29011867
0.29822887
0.30668203
0.31548822
0.3246574
0.33419968
0.22698028
0.23152092
0.23619676
0.24109502
0.24623067
0.25161387
0.25725317
0.26315737
0.26933558
0.27579707
0.28255124
0.2896076
0.29697578
0.30466552
0.31268659
0.32104882
0.32976199
0.33883569
0.3482796
0.24323056
0.24770578
0.25230309
0.25712092
0.26217502
0.26747539
0.27303046
0.278849
0.28494007
0.29131291
0.29797683
0.30494124
0.31221565
0.31980958
0.32773263
0.33599433
0.34460413
0.35357125
0.3629049
0.26015131
0.26455768
0.26907267
0.27380607
0.27877417
0.28398687
0.28945246
0.29517964
0.30117742
0.30745492
0.31402136
0.32088602
0.32805822
0.33554729
0.34336256
0.35151328
0.36000853
0.36885711
0.37806778
0.27774567
0.28207789
0.28650655
0.29115111
0.29602815
0.30114758
0.30651766
0.31214699
0.31804447
0.32421911
0.33067999
0.33743622
0.34449692
0.35187119
0.35956806
0.36759646
0.3759651
0.38468234
0.39375642
0.29600943
0.30026488
0.30460323
0.30915345
0.31393316
0.31895273
0.32422036
0.32974446
0.33553376
0.34159712
0.34794347
0.35458171
0.36152072
0.36876935
0.37633632
0.38423019
0.39245927
0.40103148
0.40995454
0.31493412
0.31911309
0.32335835
0.32780642
0.33248083
0.33739269
0.34254987
0.3479604
0.35363272
0.35957551
0.36579746
0.37230724
0.3791135
0.38622477
0.39364945
0.40139571
0.40947144
0.41788409
0.42664085
0.33451404
0.33860391
0.34275318
0.34709538
0.35165615
0.35645159
0.36148942
0.36677716
0.37232288
0.37813493
0.38422175
0.39059178
0.39725336
0.40421471
0.41148387
0.41906862
0.4269764
0.43521416
0.44378855
0.35473445
0.35872534
0.36276384
0.36699614
0.37143864
0.37610777
0.38101596
0.38617061
0.39157915
0.39724944
0.4031896
0.40940776
0.41591195
0.42271005
0.42980971
0.43721828
0.44494276
0.45298958
0.46136484
0.37556384
0.37945232
0.3833693
0.38747485
0.39179315
0.39633083
0.40109874
0.40610897
0.4113689
0.41688566
0.42266689
0.42872038
0.43505379
0.44167463
0.44859014
0.45580725
0.46333245
0.47117167
0.47933044
0.39696571
0.40074309
0.40453323
0.40850132
0.41267756
0.41707623
0.42169806
0.42655238
0.43165144
0.43700213
0.44261153
0.44848695
0.45463564
0.46106468
0.46778089
0.47479072
0.48210017
0.48971466
0.49763912
0.418893
0.42255021
0.42620347
0.43002846
0.43405192
0.43829274
0.44275892
0.44745081
0.45237712
0.45754863
0.46297276
0.46865628
0.47460592
0.48082826
0.48732965
0.49411606
0.50119299
0.5085653
0.51623735
0.44128687
0.4448152
0.44832156
0.45199322
0.45585781
0.45993014
0.46422103
0.46874032
0.47348653
0.47846587
0.48369078
0.48916821
0.49490422
0.50090479
0.50717571
0.51372245
0.52054995
0.52766254
0.53506396
0.46407617
0.4674669
0.47081675
0.4743251
0.47802011
0.48191788
0.48602611
0.49034995
0.49490076
0.49968176
0.50469536
0.50995286
0.51546082
0.52122468
0.52724963
0.53354055
0.54010185
0.54693726
0.55404995
0.48717742
0.49042198
0.49360589
0.4969415
0.50045681
0.50416786
0.50808258
0.51220682
0.51654649
0.52111201
0.5259062
0.53093097
0.53619677
0.54170928
0.54747308
0.55349243
0.55977112
0.56631228
0.57311845
0.51049423
0.51358461
0.51659371
0.51974772
0.52307429
0.52658933
0.53030056
0.53421402
0.53833544
0.54267044
0.54722886
0.55201291
0.55702384
0.562271
0.56775906
0.5734917
0.57947201
0.58570241
0.59218477
0.53391746
0.53684649
0.53967277
0.54263735
0.54576708
0.54907756
0.55257629
0.55626903
0.56016161
0.56425948
0.5685677
0.57309536
0.57784389
0.58281335
0.588012
0.59344378
0.5991109
0.60501486
0.61115679
0.5573253
0.56008696
0.56272368
0.56549223
0.56841816
0.57151661
0.57479492
0.57825861
0.58191318
0.58576412
0.58981634
0.59407421
0.5985459
0.60323079
0.60812824
0.61324657
0.61858708
0.62415004
0.62993563
0.58058449
0.58317413
0.58561645
0.58818367
0.59090003
0.59378025
0.59683149
0.60005911
0.6034683
0.60706419
0.61085173
0.61483517
0.61901803
0.6234048
0.62799628
0.63279165
0.63779434
0.64300326
0.64841707
0.60355115
0.60596569
0.60821028
0.61057232
0.61307485
0.61573218
0.61855132
0.62153741
0.62469542
0.62803017
0.63154617
0.63524722
0.63913647
0.64322053
0.64749953
0.65196748
0.656624
0.66146828
0.66649466
0.62607204
0.62830991
0.63035516
0.6325099
0.63479602
0.63722751
0.63981123
0.64255217
0.64545512
0.64852474
0.65176546
0.65518131
0.65877547
0.6625498
0.66650884
0.67065095
0.67496592
0.67944431
0.68406931
0.64798632
0.65004748
0.65189354
0.65384054
0.65590939
0.65811376
0.66046037
0.66295409
0.66559955
0.66840134
0.67136385
0.67449122
0.67778736
0.68125549
0.68489759
0.68871796
0.69271224
0.69685964
0.7011016
0.66912753
0.67101348
0.67266225
0.67440285
0.67625528
0.67823295
0.68034243
0.68258844
0.68497546
0.68750798
0.69019042
0.69302712
0.69602252
0.6991816
0.70251045
0.70601818
0.70972714
0.71367987
0.68932601
0.69103969
0.69249482
0.69403206
0.69567063
0.69742368
0.69929762
0.70129694
0.70342587
0.70568866
0.70808946
0.71063236
0.71332143
0.71616087
0.7191553
0.72230962
0.72562825
0.72911559
0.70841132
0.70995709
0.71122387
0.71256247
0.71399145
0.71552371
0.71716541
0.71892076
0.72079364
0.72278787
0.72490715
0.72715495
0.72953449
0.73204864
0.73469984
0.73748978
0.74041821
0.74348082
0.72621494
0.72759842
0.72868371
0.72983003
0.73105536
0.73237237
0.73378697
0.73530298
0.73692386
0.73865297
0.74049344
0.74244807
0.74451923
0.74670875
0.74901772
0.75144623
0.75399301
0.75665437
0.74257276
0.74380071
0.74471276
0.74567462
0.74670387
0.74781292
0.74900737
0.75029063
0.75166572
0.75313552
0.7547026
0.75636916
0.7581369
0.76000689
0.76197946
0.764054
0.76622879
0.76850064
0.75732751
0.75840762
0.75915581
0.75994238
0.76078458
0.76169454
0.7626775
0.76373645
0.76487397
0.76609245
0.76739398
0.76878022
0.77025233
0.77181081
0.77345547
0.77518527
0.77699824
0.77889109
0.77033084
0.77127153
0.77186605
0.77248764
0.77315313
0.77387426
0.77465586
0.77550052
0.77641039
0.7773874
0.77843318
0.77954893
0.78073532
0.78199239
0.78331951
0.78471525
0.78617735
0.78770229
0.78144519
0.7822555
0.78270741
0.78317521
0.78367519
0.78421871
0.78481019
0.78545181
0.78614527
0.7868921
0.78769348
0.78855016
0.78946238
0.79042976
0.79145125
0.79252508
0.79364865
0.79481818
0.79054556
0.79123486
0.79155574
0.79188133
0.79222754
0.79260531
0.79301866
0.79346935
0.79395864
0.79448763
0.79505707
0.7956673
0.79631811
0.79700872
0.79773768
0.79850283
0.79930123
0.80012876
0.79752036
0.79809809
0.79829951
0.79849464
0.79869905
0.7989233
0.79917096
0.79944334
0.7997413
0.80006548
0.80041622
0.80079343
0.80119649
0.8016242
0.80207471
0.80254547
0.80303315
0.80353327
0.80227199
0.80274734
0.80284063
0.80291687
0.80299139
0.80307435
0.80316885
0.80327575
0.80339546
0.80352822
0.80367392
0.80383206
0.80400159
0.8041809
0.80436774
0.80455913
0.80475138
0.80493961
0.80471687
0.80509857
0.80509444
0.80506291
0.80501911
0.80497272
0.80492639
0.8048805
0.80483502
0.80478977
0.80474421
0.80469742
0.80464793
0.8045937
0.80453207
0.80445968
0.8043724
0.80426497
0.80478495
0.80508105
0.8049894
0.80486051
0.80470931
0.80454499
0.80436968
0.80418328
0.80398535
0.80377524
0.80355204
0.80331437
0.80306035
0.80278755
0.80249286
0.80217252
0.801822
0.80143564
0.80241873
0.80263644
0.80246612
0.80224935
0.80200086
0.80172925
0.8014361
0.80112084
0.80078259
0.80042031
0.80003264
0.79961781
0.79917353
0.79869693
0.79818452
0.79763211
0.7970348
0.79638651
0.79757176
0.79771736
0.79747601
0.79717978
0.79684309
0.79647388
0.79607312
0.7956398
0.79517261
0.79467011
0.79413054
0.79355172
0.79293096
0.79226497
0.79154988
0.79078109
0.78995332
0.78906008
0.79020669
0.79028547
0.78997943
0.78961096
0.78919405
0.78873584
0.78823668
0.78769511
0.78710943
0.7864778
0.78579809
0.78506772
0.7842836
0.78344208
0.78253887
0.78156901
0.78052682
0.77940545
0.78029293
0.78030917
0.77994344
0.77950871
0.77901837
0.7784786
0.77788912
0.77724803
0.77655327
0.77580263
0.77499362
0.77412328
0.77318816
0.77218423
0.77110685
0.76995069
0.76870972
0.76737672
0.76780402
0.76776101
0.76733924
0.766843
0.76628481
0.76566974
0.76499685
0.76426384
0.76346831
0.76260774
0.76167927
0.76067961
0.75960496
0.75845097
0.75721263
0.75588431
0.75445962
0.75293105
0.75271469
0.7526148
0.75213938
0.7515852
0.75096357
0.75027827
0.74952772
0.74870926
0.74782019
0.74685768
0.74581856
0.74469924
0.74349561
0.742203
0.74081613
0.73932906
0.73773512
0.7360265
0.73499789
0.73484257
0.73431491
0.73370528
0.73302349
0.73227192
0.73144836
0.73054982
0.72957334
0.72851582
0.72737382
0.72614348
0.72482043
0.72339976
0.72187593
0.72024277
0.71849336
0.71661965
0.71462171
0.71441095
0.71383179
0.71316844
0.71242894
0.71161415
0.71072125
0.70974699
0.70868821
0.70754158
0.70630344
0.70496974
0.7035359
0.70199682
0.70034679
0.69857944
0.69668768
0.69466326
0.69154329
0.69127633
0.69064589
0.68993076
0.68913597
0.68826067
0.68730154
0.68625521
0.68511842
0.68388772
0.68255933
0.68112906
0.67959224
0.67794365
0.67617746
0.67428719
0.6722656
0.67010434
0.66571278
0.66539116
0.66470982
0.66394367
0.66309466
0.6621603
0.66113691
0.66002115
0.65880972
0.65749915
0.65608561
0.65456488
0.65293225
0.65118245
0.6493096
0.64730716
0.64516781
0.6428831
0.63706911
0.63669432
0.63596229
0.63514589
0.63424352
0.63325115
0.63216508
0.6309821
0.62969903
0.62831244
0.62681855
0.62521318
0.62349163
0.62164867
0.61967839
0.61757424
0.61532885
0.6129337
0.60554507
0.60512097
0.60434019
0.60347353
0.60251721
0.60146683
0.60031895
0.59907059
0.59771865
0.59625981
0.59469035
0.59300618
0.59120265
0.58927456
0.58721602
0.58502045
0.58268045
0.58018743
0.57107023
0.57060055
0.5697762
0.56885936
0.56784811
0.56673971
0.56553126
0.56421984
0.56280237
0.56127559
0.55963588
0.55787919
0.55600095
0.55399596
0.55185837
0.54958157
0.5471581
0.54457928
0.53358195
0.53306843
0.53220483
0.53123888
0.5301738
0.5290096
0.5277438
0.52637336
0.5248952
0.52330609
0.52160249
0.5197804
0.51783529
0.51576204
0.51355478
0.51120689
0.50871084
0.50605783
0.49303381
0.49247937
0.49157881
0.49056698
0.48945283
0.48823845
0.4869214
0.48549847
0.48396656
0.48232249
0.48056279
0.47868353
0.47668028
0.47454797
0.47228082
0.4698722
0.46731452
0.46459883
0.44940505
0.44881203
0.44787938
0.44683035
0.44567725
0.44442284
0.44306449
0.44159893
0.44002309
0.4383339
0.43652798
0.43460156
0.43255037
0.43036952
0.42805337
0.42559541
0.42298805
0.42022221
0.40272058
0.40209042
0.40113505
0.40006392
0.39888777
0.39760856
0.39622358
0.39472965
0.39312381
0.39140311
0.38956434
0.38760395
0.38551795
0.38330178
0.38095013
0.37845679
0.37581432
0.37301365
0.35307573
0.35242174
0.35146086
0.35038615
0.34920594
0.34792112
0.34652878
0.34502571
0.34340892
0.34167547
0.33982223
0.33784588
0.33574281
0.33350892
0.33113951
0.32862895
0.32597032
0.32315487
0.30068775
0.30002812
0.29908571
0.29803229
0.29687353
0.29560911
0.29423577
0.29275003
0.29114861
0.28942835
0.28758606
0.28561855
0.28352257
0.28129468
0.27893106
0.27642714
0.27377707
0.27097295
0.24598318
0.24534259
0.24444974
0.24344969
0.24234535
0.2411352
0.23981545
0.23838212
0.23683139
0.23515959
0.23336318
0.23143887
0.22938362
0.22719467
0.22486935
0.22240471
0.21979675
0.21703922
0.18975781
0.18916741
0.18836258
0.18745556
0.18644672
0.18533342
0.18411142
0.1827762
0.18132334
0.17974848
0.17804751
0.17621668
0.17425287
0.17215373
0.16991785
0.16754448
0.1650327
0.16237959
0.13353754
0.1330359
0.13236372
0.13159545
0.13072965
0.12976334
0.1286924
0.12751236
0.12621869
0.1248068
0.12327228
0.12161101
0.11981958
0.11789566
0.11583857
0.11364958
0.11133172
0.10888773
0.080356275
0.079973731
0.079467252
0.078874913
0.0781956
0.077427498
0.07656773
0.075612902
0.074559527
0.073404204
0.072143717
0.070775163
0.069296145
0.06770514
0.066002037
0.064188975
0.062271628
0.060260305
0.036266911
0.03600978
0.035697282
0.0353327
0.034912197
0.034431348
0.033886737
0.033276499
0.032599929
0.031857074
0.031048515
0.030175327
0.029239028
0.028241747
0.027186367
0.026076637
0.024917528
0.023716672
0.010945533
0.010883441
0.010794642
0.010684857
0.010555808
0.010408057
0.010242311
0.010057449
0.0098537355
0.0096323316
0.0093948721
0.0091432677
0.0088797763
0.0086065572
0.0083262131
0.0080412508
0.0077545976
0.007469324
0.0050525961
0.0050559638
0.005055292
0.0050536515
0.0050511162
0.0050469844
0.0050410478
0.00503346
0.0050244241
0.005014132
0.0050027982
0.0049906687
0.0049780099
0.0049650775
0.0049520968
0.0049392074
0.0049266763
0.004914963
0.0045601112
0.0045689139
0.004577509
0.0045857065
0.0045940925
0.004602634
0.0046112243
0.0046198006
0.0046283347
0.0046368211
0.0046452706
0.0046537038
0.0046621448
0.0046706161
0.0046791396
0.0046877544
0.0046965592
0.0044967948
0.0045065142
0.0045149608
0.0045227047
0.0045306186
0.00453882
0.0045472601
0.0045559117
0.0045647641
0.0045737981
0.004582982
0.0045922748
0.0046016313
0.0046110064
0.0046203643
0.004629694
0.0046390406
0.0044585239
0.0044678114
0.0044760316
0.004483692
0.0044915417
0.0044996321
0.0045078933
0.0045162892
0.0045248072
0.0045334362
0.004542163
0.0045509715
0.0045598431
0.0045687567
0.0045776931
0.0045866468
0.0045956534
0.0044301053
0.0044387397
0.0044464451
0.0044535945
0.0044608301
0.0044682495
0.0044758282
0.0044835588
0.0044914463
0.0044994901
0.0045076791
0.0045159934
0.0045244068
0.0045328885
0.0045414081
0.0045499454
0.0045585095
0.0044060199
0.00441382
0.0044209102
0.004427598
0.0044344406
0.0044415081
0.0044487634
0.0044561837
0.0044637587
0.0044714759
0.0044793178
0.0044872631
0.0044952874
0.0045033643
0.0045114684
0.0045195823
0.0045277098
0.0043870366
0.0043943279
0.0044009724
0.00440728
0.0044137038
0.0044203076
0.0044270672
0.0044339719
0.004441021
0.0044482115
0.0044555335
0.0044629711
0.004470503
0.0044781037
0.0044857458
0.0044934064
0.0045010766
0.0043718251
0.004378464
0.0043845648
0.0043904132
0.0043964022
0.0044025873
0.0044089459
0.0044154647
0.0044221377
0.0044289557
0.004435904
0.0044429632
0.00445011
0.0044573181
0.0044645603
0.0044718123
0.004479059
0.0043597139
0.0043658746
0.004371574
0.0043770789
0.0043827152
0.0043885286
0.0043944992
0.0044006161
0.0044068752
0.0044132701
0.0044197895
0.0044264171
0.0044331328
0.0044399127
0.0044467306
0.0044535614
0.0044603846
0.0043505161
0.0043561771
0.0043614427
0.0043665602
0.0043718118
0.0043772389
0.0043828254
0.0043885616
0.0043944429
0.0044004616
0.0044066051
0.0044128562
0.0044191939
0.0044255937
0.0044320289
0.0044384728
0.0044448999
0.0043434169
0.0043486678
0.0043535853
0.0043583965
0.0043633401
0.0043684503
0.0043737121
0.004379116
0.0043846568
0.0043903266
0.0043961135
0.0044020016
0.0044079714
0.0044140001
0.0044200624
0.0044261317
0.0044321801
0.0043384684
0.0043433267
0.0043478977
0.0043523918
0.0043570158
0.0043617998
0.0043667311
0.0043718012
0.0043770051
0.004382335
0.0043877793
0.0043933224
0.0043989453
0.0044046256
0.004410338
0.0044160554
0.0044217466
0.0043351232
0.0043396379
0.004343916
0.0043481468
0.0043525059
0.0043570183
0.0043616718
0.0043664575
0.0043713698
0.0043764008
0.0043815388
0.0043867691
0.0043920734
0.0043974305
0.0044028161
0.0044082032
0.0044135595
0.0043333894
0.0043375834
0.0043415822
0.004345559
0.0043496601
0.0043539057
0.0043582845
0.004362789
0.0043674139
0.0043721517
0.0043769918
0.00438192
0.0043869188
0.0043919679
0.0043970436
0.0044021188
0.0044071598
0.0043329745
0.0043369059
0.004340673
0.0043444281
0.0043483023
0.0043523134
0.0043564511
0.0043607083
0.0043650795
0.0043695576
0.0043741317
0.0043787881
0.0043835098
0.004388277
0.004393067
0.004397853
0.0044026005
0.004333892
0.0043375749
0.0043411248
0.0043446712
0.0043483308
0.0043521194
0.004356028
0.0043600499
0.0043641797
0.0043684104
0.0043727314
0.0043771294
0.0043815881
0.0043860885
0.0043906086
0.0043951225
0.004399595
0.0043360635
0.0043395239
0.0043428789
0.0043462384
0.0043497059
0.0043532957
0.0043569991
0.0043608096
0.0043647221
0.0043687291
0.0043728204
0.0043769827
0.0043812001
0.0043854543
0.0043897242
0.0043939849
0.004398201
0.0043394936
0.0043427529
0.0043459301
0.0043491178
0.0043524083
0.0043558142
0.0043593275
0.004362942
0.0043666524
0.0043704514
0.0043743286
0.0043782709
0.0043822626
0.0043862862
0.0043903218
0.0043943455
0.004398323
0.0043442513
0.0043473292
0.0043503452
0.0043533766
0.0043565059
0.004359744
0.0043630836
0.0043665187
0.0043700437
0.0043736512
0.0043773306
0.0043810687
0.0043848499
0.004388657
0.0043924716
0.0043962718
0.004400025
0.0043504249
0.0043533387
0.0043562078
0.0043590964
0.004362078
0.0043651624
0.0043683426
0.0043716126
0.0043749668
0.0043783973
0.0043818935
0.0043854416
0.0043890258
0.0043926291
0.0043962342
0.0043998229
0.0044033666
0.0043581848
0.004360948
0.0043636814
0.0043664373
0.0043692816
0.004372223
0.0043752545
0.0043783703
0.0043815645
0.0043848289
0.0043881522
0.0043915203
0.0043949166
0.0043983233
0.0044017245
0.0044051065
0.0044084504
0.0043677224
0.0043703456
0.0043729522
0.0043755838
0.0043782996
0.0043811068
0.0043839988
0.0043869696
0.0043900131
0.0043931205
0.0043962802
0.0043994768
0.0044026924
0.0044059077
0.0044091063
0.0044122805
0.004415431
0.0043792798
0.0043817692
0.0043842539
0.0043867655
0.004389357
0.0043920346
0.0043947917
0.0043976222
0.0044005195
0.0044034744
0.0044064744
0.0044095033
0.004412541
0.0044155649
0.0044185548
0.0044215065
0.0044244542
0.0043931159
0.0043954742
0.0043978387
0.0044002316
0.0044027003
0.0044052498
0.0044078735
0.0044105651
0.0044133176
0.0044161212
0.0044189627
0.0044218247
0.0044246847
0.0044275151
0.0044302863
0.004432982
0.0044356666
0.0044094921
0.0044117179
0.0044139599
0.0044162314
0.0044185747
0.0044209934
0.0044234811
0.004426031
0.0044286356
0.0044312847
0.0044339643
0.0044366561
0.0044393357
0.0044419705
0.0044445167
0.0044469128
0.0044286468
0.0044307351
0.0044328492
0.0044349934
0.0044372052
0.0044394871
0.0044418325
0.0044442344
0.0044466845
0.0044491722
0.0044516829
0.0044541975
0.0044566909
0.0044591291
0.0044614663
0.0044636393
0.0044507588
0.0044527019
0.0044546797
0.0044566879
0.0044587592
0.0044608953
0.0044630893
0.0044653337
0.0044676197
0.004469936
0.0044722676
0.0044745946
0.0044768912
0.004479122
0.0044812391
0.0044831761
0.0044759142
0.004477703
0.0044795344
0.0044813958
0.0044833159
0.0044852953
0.0044873268
0.0044894024
0.0044915128
0.004493646
0.0044957866
0.0044979142
0.0045000021
0.0045020141
0.0045039004
0.0045055916
0.0045040663
0.0045056911
0.0045073656
0.0045090691
0.0045108267
0.004512638
0.0045144954
0.0045163906
0.0045183135
0.0045202519
0.0045221897
0.0045241063
0.0045259747
0.0045277579
0.0045294048
0.0045308439
0.0045350002
0.0045364532
0.0045379611
0.0045394967
0.0045410815
0.0045427145
0.0045443876
0.0045460919
0.0045478171
0.0045495504
0.0045512757
0.0045529722
0.004554613
0.0045561609
0.0045575641
0.0045587501
0.0045683051
0.004569581
0.0045709154
0.0045722758
0.0045736805
0.0045751276
0.0045766089
0.0045781151
0.0045796356
0.0045811573
0.0045826642
0.0045841359
0.0045855457
0.0045868573
0.004588019
0.0045889586
0.0046033602
0.004604458
0.0046056161
0.004606798
0.0046080193
0.0046092774
0.0046105639
0.0046118692
0.0046131828
0.0046144915
0.0046157796
0.0046170275
0.0046182096
0.0046192909
0.0046202212
0.00462093
0.0046393429
0.0046402669
0.0046412507
0.0046422559
0.0046432956
0.0046443667
0.0046454608
0.0046465684
0.0046476787
0.0046487791
0.0046498546
0.0046508867
0.0046518514
0.0046527161
0.0046534336
0.0046539366
0.0046752656
0.0046760254
0.0046768423
0.0046776782
0.0046785438
0.0046794357
0.0046803457
0.0046812644
0.0046821815
0.004683085
0.0046839606
0.0046847917
0.0046855566
0.0046862258
0.0046867567
0.0046870868
0.0047100449
0.004710655
0.0047113177
0.0047119966
0.0047127009
0.0047134269
0.0047141666
0.0047149113
0.0047156511
0.0047163748
0.0047170695
0.0047177204
0.0047183089
0.0047188097
0.0047191859
0.0047193821
0.0047425982
0.0047430773
0.0047436028
0.0047441419
0.0047447022
0.00474528
0.0047458681
0.0047464582
0.0047470415
0.0047476075
0.004748145
0.0047486411
0.0047490806
0.0047494432
0.0047496995
0.0047498032
0.0047719583
0.0047723281
0.0047727367
0.0047731563
0.0047735933
0.0047740443
0.0047745028
0.0047749614
0.0047754122
0.004775846
0.0047762528
0.004776622
0.0047769414
0.0047771968
0.0047773672
0.004777418
0.004797384
0.0047976672
0.0047979811
0.0047983037
0.0047986402
0.0047989876
0.0047993404
0.0047996924
0.0048000365
0.0048003649
0.004800669
0.0048009396
0.0048011676
0.0048013439
0.0048014578
0.0048014898
0.0048184407
0.0048186601
0.0048189021
0.0048191505
0.0048194098
0.0048196775
0.0048199491
0.0048202194
0.0048204828
0.0048207325
0.0048209612
0.0048211609
0.004821324
0.0048214451
0.0048215229
0.0048215599
0.0048350342
0.0048352108
0.0048354027
0.0048355989
0.0048358033
0.004836014
0.0048362276
0.0048364401
0.004836647
0.004836843
0.0048370218
0.0048371765
0.0048372993
0.0048373846
0.0048374342
0.0048374749
0.0048473885
0.0048475401
0.0048477009
0.0048478642
0.0048480335
0.0048482075
0.0048483836
0.004848559
0.0048487305
0.0048488942
0.0048490454
0.0048491781
0.0048492845
0.0048493546
0.0048493752
0.0048559796
0.0048561194
0.0048562639
0.0048564095
0.0048565593
0.0048567126
0.0048568675
0.0048570222
0.0048571746
0.0048573222
0.0048574621
0.0048575904
0.0048577025
0.0048577922
0.004857852
0.004861446
0.0048615817
0.004861719
0.0048618567
0.0048619974
0.0048621406
0.0048622852
0.00486243
0.0048625738
0.0048627153
0.0048628526
0.0048629838
0.0048631061
0.0048632162
0.0048633103
0.0048644978
0.0048646315
0.0048647651
0.0048648988
0.0048650347
0.0048651727
0.004865312
0.004865452
0.0048655921
0.0048657316
0.0048658696
0.0048660052
0.0048661373
0.0048662644
0.0048663849
0.0048658359
0.0048659651
0.0048660935
0.0048662222
0.0048663527
0.0048664852
0.004866619
0.004866754
0.0048668899
0.0048670264
0.0048671634
0.0048673006
0.0048674377
0.0048675745
0.0048677111
0.0048660836
0.004866203
0.0048663221
0.0048664417
0.0048665631
0.0048666863
0.004866811
0.0048669372
0.0048670649
0.0048671941
0.004867325
0.0048674576
0.0048675923
0.0048677295
0.0048678702
0.0048657307
0.0048658369
0.0048659426
0.0048660488
0.0048661565
0.0048662659
0.0048663768
0.0048664892
0.0048666035
0.0048667197
0.0048668382
0.0048669592
0.0048670834
0.0048672116
0.0048673449
0.004865119
0.0048652081
0.0048652969
0.0048653862
0.0048654768
0.0048655688
0.0048656621
0.004865757
0.0048658537
0.0048659524
0.0048660535
0.0048661573
0.0048662645
0.004866376
0.004866493
0.0048644532
0.0048645243
0.0048645951
0.0048646664
0.0048647385
0.0048648118
0.0048648862
0.0048649619
0.0048650392
0.0048651183
0.0048651995
0.0048652833
0.0048653701
0.0048654607
0.0048655563
0.0048638441
0.0048638977
0.004863951
0.0048640047
0.004864059
0.0048641141
0.0048641701
0.0048642272
0.0048642855
0.0048643454
0.0048644071
0.0048644707
0.0048645369
0.004864606
0.0048646789
0.0048633599
0.0048633972
0.0048634343
0.0048634716
0.0048635094
0.0048635477
0.0048635868
0.0048636268
0.0048636678
0.0048637099
0.0048637535
0.0048637985
0.0048638454
0.0048638945
0.0048639461
0.0048629846
0.0048630074
0.0048630302
0.0048630531
0.0048630763
0.0048630998
0.0048631236
0.0048631479
0.0048631728
0.0048631983
0.0048632246
0.0048632518
0.0048632802
0.0048633102
0.0048627836
0.004862794
0.0048628048
0.0048628158
0.0048628266
0.0048628372
0.0048628478
0.0048628585
0.0048628693
0.0048628804
0.0048628918
0.0048629038
0.0048629163
0.0048629296
0.0058030328
0.0068927226
0.008165605
0.009623822
0.011271794
0.013115098
0.015159808
0.017412273
0.01987908
0.022567038
0.025482891
0.028632997
0.0320232
0.035658832
0.039544542
0.043683668
0.048077351
0.052723897
0.057631615
0.0062881894
0.0075656954
0.009018593
0.010653361
0.012475899
0.014491851
0.016707143
0.019128107
0.021761474
0.024614172
0.027692937
0.03100403
0.034553057
0.038344956
0.042383772
0.046671841
0.051208355
0.05599025
0.0069983836
0.0084542418
0.010085832
0.011897858
0.013895425
0.016083795
0.018468831
0.021056953
0.023854994
0.026869876
0.030108237
0.033576153
0.03727911
0.041221907
0.045408172
0.049839342
0.054513632
0.059438784
0.0078799155
0.009508334
0.011313612
0.013298136
0.015466344
0.017823254
0.020374705
0.023127119
0.026087246
0.029261832
0.032657308
0.036279713
0.040134536
0.04422642
0.048558459
0.053131047
0.057942129
0.0088937711
0.010688275
0.01266056
0.014811325
0.017144689
0.019665588
0.022379815
0.02529367
0.028413679
0.031746342
0.035297937
0.039074417
0.043081139
0.04732244
0.051800866
0.056516516
0.061475843
0.010004878
0.011959347
0.014092404
0.016403829
0.018897638
0.021578726
0.024452777
0.027525875
0.030804267
0.034294197
0.038001756
0.041932717
0.046092179
0.050484072
0.055110297
0.059970533
0.01118157
0.013291207
0.015580368
0.01804852
0.020699613
0.023538452
0.026570532
0.029801659
0.033237783
0.03688488
0.040748817
0.04483514
0.049148636
0.053692896
0.05846963
0.063483866
0.012396996
0.014658924
0.017101554
0.0197244
0.022531279
0.025526816
0.028716252
0.032105085
0.035698975
0.039503641
0.043524725
0.047767552
0.052236578
0.056935031
0.061863762
0.013630338
0.016043638
0.018638989
0.021416127
0.02437863
0.027530865
0.030877793
0.034424609
0.038176722
0.042139628
0.046318801
0.050719393
0.055345586
0.060200793
0.065287934
0.01486691
0.017432212
0.020180937
0.023113078
0.026231886
0.02954144
0.033046435
0.036751801
0.04066277
0.044784664
0.04912291
0.053682532
0.058467286
0.063480632
0.016097313
0.018816214
0.021719781
0.024808207
0.02808438
0.031552106
0.035215877
0.039080388
0.043150871
0.047432463
0.05193062
0.056650471
0.061595455
0.066770616
0.017316169
0.020190693
0.023250848
0.026496952
0.029931564
0.033558318
0.037381543
0.041405631
0.045636207
0.05007812
0.054735986
0.059616104
0.064722817
0.070059626
0.018520908
0.021553135
0.02477138
0.028176388
0.031770285
0.035556772
0.03954003
0.043723786
0.04811398
0.052715921
0.057534388
0.062575196
0.067843094
0.019710871
0.022902287
0.026279818
0.029844786
0.033598394
0.037544481
0.041687366
0.046031048
0.050581042
0.055342651
0.060321233
0.065522435
0.070950183
0.02088578
0.024237413
0.027775138
0.03150004
0.035413595
0.039519409
0.043821547
0.048324473
0.053033537
0.057954213
0.063092314
0.06845404
0.074042248
0.022045638
0.025558109
0.029256362
0.033141195
0.037214348
0.041479223
0.045939893
0.050601077
0.055468163
0.060546879
0.065843424
0.071364966
0.023191054
0.026864455
0.030722941
0.034767233
0.03899913
0.043421982
0.048039991
0.052858058
0.057881709
0.063116871
0.068569583