/*--------------------------------*- C++ -*----------------------------------*\
| =========                 |                                                 |
| \\      /  F ield         | OpenFOAM: The Open Source CFD Toolbox           |
|  \\    /   O peration     | Version:  2406                                  |
|   \\  /    A nd           | Website:  www.openfoam.com                      |
|    \\/     M anipulation  |                                                 |
\*---------------------------------------------------------------------------*/
FoamFile
{
    version     2.0;
    format      ascii;
    arch        "LSB;label=32;scalar=64";
    class       volScalarField;
    location    "0.03";
    object      k;
}
// * * * * * * * * * * * * * * * * * * * * * * * * * * * * * * * * * * * * * //

dimensions      [0 2 -2 0 0 0 0];

internalField   nonuniform List<scalar> 
2065
(
1.7449232
0.85206493
0.48130748
457.75505
402.41755
347.46352
295.27711
247.40502
204.71444
167.47156
135.5077
108.38824
85.557804
66.435648
50.471386
37.186512
26.140463
17.168536
9.9572562
4.4979923
1.7778822
0.86387697
0.48472073
323.08931
392.96564
459.31663
517.58647
563.55369
593.48082
606.47146
603.143
583.41435
549.81096
505.78926
455.08745
401.25427
347.34716
295.77031
248.20893
205.61411
168.33645
136.2723
109.03134
86.082922
66.858358
50.810481
37.459037
26.362624
17.345866
10.102311
4.5987417
1.8139255
0.87695671
0.48876657
319.81673
385.07378
447.59361
503.13613
547.72076
577.77455
591.75914
590.36203
573.12922
542.19608
500.66703
452.06148
399.83754
347.05969
296.17714
248.9798
206.51443
169.22027
137.0635
109.70222
86.634019
67.303155
51.168215
37.747034
26.598181
17.533785
10.256131
4.7067873
1.8533508
0.891534
0.49341382
316.53003
377.20612
435.9258
488.70307
531.79231
561.80416
576.67674
577.10263
562.31641
534.05474
495.07476
448.65744
398.14525
346.58548
296.48146
249.7069
207.40875
170.11942
137.87976
110.40047
87.210861
67.770451
51.545139
38.051025
26.847646
17.732731
10.41907
4.8225348
1.896476
0.90788192
0.49870276
313.32928
369.52498
424.45009
474.40483
515.86621
545.64512
561.33897
563.41058
551.00304
525.39623
489.00617
444.85852
396.15689
345.91196
296.66619
250.37857
208.28956
171.02966
138.71906
111.12547
87.813556
68.260523
51.941765
38.371509
27.111425
17.943129
10.591469
4.946379
1.9436339
0.92631126
0.5046836
310.27422
362.10522
413.26441
460.34568
500.0519
529.42726
545.80804
549.35639
539.2287
516.23837
482.46053
440.6517
393.85358
345.01974
296.71185
250.98247
209.14855
171.94608
139.57894
111.87633
88.442116
68.774338
52.358547
38.708959
27.389831
18.165375
10.773649
5.0786941
1.9951726
0.94715025
0.51137751
307.49123
355.08583
402.50307
446.66095
484.50161
513.2543
530.16481
535.01717
527.04453
506.6081
475.44478
436.02867
391.21887
343.89146
296.62541
251.50618
209.97655
172.86307
140.45645
112.65182
89.096322
69.312483
52.795802
39.063836
27.682951
18.399813
10.965902
5.219827
2.0514454
0.9706889
0.51872163
305.21241
348.62829
392.3297
433.50639
469.35509
497.25847
514.51058
520.48066
514.51393
496.54372
467.97319
430.98577
388.23911
342.50896
296.37263
251.93518
210.76352
173.7743
141.34808
113.45035
89.775699
69.874422
53.253715
39.436702
27.991019
18.64673
11.168473
5.3700882
2.1127983
0.99707723
0.52650219
303.3688
342.78594
382.82566
420.9877
454.7245
481.57816
498.96042
505.8459
501.71202
486.09347
460.0684
425.52617
384.90431
340.85458
295.91998
252.25327
211.49852
174.6727
142.24977
114.26996
90.479538
70.459963
53.732261
39.828058
28.314417
18.90631
11.381553
5.5297438
2.1795526
1.0261909
0.53429838
302.25261
337.75164
374.1457
409.24239
440.74196
466.35287
483.63985
491.22361
488.72548
475.31623
451.76387
419.66108
381.2094
338.91478
295.26624
252.44429
212.16994
175.55047
143.15689
115.10827
91.206898
71.069015
54.232374
40.238227
28.653515
19.17884
11.605267
5.6990117
2.2519875
1.0574941
0.54094249
302.14333
333.71694
366.45371
398.42124
427.55211
451.72644
468.68117
476.73373
475.65127
464.28238
443.1023
413.40897
377.15463
336.67891
294.39603
252.48871
212.76586
176.39916
144.06417
115.96244
91.956562
71.701278
54.754905
40.667126
29.008649
19.464629
11.839677
5.8780641
2.3303336
1.0899712
0.54421083
302.59275
330.55942
359.76136
388.59702
415.25918
437.81929
454.20415
462.50102
462.59052
453.06962
434.13503
406.79511
372.74474
334.13957
293.29806
252.40194
213.2754
177.20967
144.96572
116.82921
92.72698
72.356171
55.299079
41.114614
29.380081
19.763971
12.084794
6.0670388
2.4147971
1.1222696
0.54361043
303.93647
328.3535
354.08086
379.78998
403.90872
424.69658
440.28403
448.67753
449.63657
441.75682
424.91779
399.84977
367.98947
331.29245
291.95958
252.14944
213.68496
177.9721
145.85502
117.70476
93.516261
73.03293
55.864253
41.580216
29.767972
20.07713
12.340608
6.2660646
2.5056145
1.1529723
0.54356666
305.88367
326.88558
349.26101
371.90745
393.4667
412.38423
427.00196
435.30199
436.88363
430.4206
415.50663
392.60863
362.90453
328.13654
290.36753
251.69751
213.9787
178.67565
146.72481
118.58479
94.322173
73.73066
56.450362
42.064758
30.172281
20.404231
12.607158
6.4753018
2.6031607
1.1833532
0.54304508
308.08484
325.91121
345.12052
364.82549
383.87
400.88341
414.35799
422.39698
424.39448
419.1267
405.95655
385.10858
357.50774
324.67389
288.5137
251.05036
214.14121
179.30879
147.56719
119.46442
95.142107
74.448273
57.057235
42.569864
30.592507
20.745774
12.884686
6.6949979
2.7080847
1.2145073
0.5431298
310.29395
325.19431
341.45699
358.38245
374.99916
390.10853
402.34451
409.96933
412.20609
407.92523
396.31557
377.38558
351.81843
320.90812
286.3912
250.1944
214.14992
179.85968
148.37359
120.33816
95.973031
75.18439
57.684358
43.094935
31.028687
21.103459
13.173689
6.9255427
2.8215663
1.2512878
0.54519858
312.29558
324.54594
338.10378
352.43459
366.73676
379.97441
390.9219
398.00744
400.33448
396.85053
386.62271
369.47216
345.85465
316.84343
283.99494
249.12321
214.04141
180.32006
149.135
121.1999
96.811448
75.937319
58.331087
43.63884
31.481658
21.478163
13.474768
7.1674796
2.9454552
1.2978842
0.55025188
313.79584
323.73194
334.87296
346.83021
358.96242
370.39199
380.03535
386.48564
388.77922
385.92236
376.90625
361.39364
339.63477
312.48738
281.32079
247.8224
213.75533
180.6744
149.84118
122.04281
97.653349
76.70506
58.996697
44.201545
31.950973
21.870419
13.788503
7.4214448
3.0821591
1.3564196
0.55920713
314.32981
322.35681
331.44141
341.31603
351.48563
361.22566
369.5969
375.35576
377.52148
375.14658
367.18562
353.17261
333.1752
307.84583
278.36455
246.27787
213.27056
180.90545
150.48067
122.85926
98.494171
77.485258
59.680255
44.782949
32.437449
22.280891
14.115139
7.6880137
3.2343987
1.4278053
0.57280053
313.83247
320.34026
327.72175
335.80616
344.22913
352.41204
359.56064
364.59157
366.55103
364.52985
357.47824
344.82926
326.49132
302.92651
275.12437
244.48045
212.58916
180.9929
151.04127
123.64094
99.328767
78.275147
60.38051
45.3826
32.942191
22.70959
14.455456
7.9675686
3.4048446
1.5122693
0.59083154
312.13914
317.48688
323.52187
330.13479
337.06348
343.85888
349.86743
354.16259
355.85652
354.07812
347.80117
336.38479
319.60193
297.73718
271.59737
242.42186
211.70074
180.94427
151.51348
124.37918
100.15143
79.071524
61.095832
45.999428
33.464377
23.154104
14.809737
8.2602196
3.5957794
1.6104357
0.61500398
309.16346
313.66732
318.68095
324.13185
329.83278
335.44092
340.42961
344.01934
345.41593
343.79251
338.16987
327.85989
312.52455
292.28957
267.78719
240.09734
210.59683
180.75747
151.8873
125.06483
100.95589
79.870804
61.824431
46.63261
34.002174
23.611375
15.178193
8.5658357
3.8088534
1.7222685
0.6446459
304.7404
308.72516
313.04808
317.6549
322.41001
327.05468
331.17303
334.1201
335.21267
333.67816
328.60358
319.27958
305.28265
286.60102
263.7015
237.50373
209.2605
180.3691
152.14404
125.68723
101.73528
80.669062
62.56452
47.281791
34.556121
24.081595
15.561031
8.884094
4.0447895
1.8473289
0.68183123
298.96392
302.65589
306.54822
310.58791
314.66587
318.58051
322.00341
324.40557
325.2183
323.73424
319.1207
310.67206
297.90556
280.69398
259.35221
234.64265
207.68639
179.7964
152.2681
126.23527
102.48223
81.462016
63.314228
47.946806
35.126922
24.566514
15.95772
9.2160034
4.3034428
1.984668
0.72751926
291.96535
295.52583
299.18523
302.88242
306.51841
309.92504
312.83613
314.8159
315.40077
313.95675
309.73911
302.06785
290.42672
274.5968
254.7589
231.52281
205.87357
179.03062
152.24965
126.69933
103.18925
82.244992
64.0714
48.627346
35.715168
25.066199
16.369925
9.5617027
4.581765
2.1362522
0.78610088
283.89398
287.43151
291.00269
294.53271
297.92237
301.02023
303.59953
305.29411
305.72623
304.33871
300.47548
293.49962
282.88536
268.34659
249.94727
228.15735
203.82701
178.07512
152.12202
127.07656
103.84942
83.012843
64.83331
49.322616
36.321217
25.580962
16.80069
9.9222749
4.8871338
2.3018364
0.86813913
274.98328
278.54187
282.1099
285.59303
288.88273
291.83382
294.24222
295.78999
296.15975
294.8688
291.34295
284.99921
275.32255
261.98339
244.95106
224.56898
201.55547
176.92128
151.82186
127.35191
104.45431
83.759605
65.596295
50.030885
36.944761
26.111308
17.251577
10.298184
5.2111107
2.4817264
0.92691311
265.56137
269.13907
272.72476
276.21846
279.49838
282.41418
284.77394
286.29279
286.68842
285.54496
282.35726
276.59957
267.7821
255.55343
239.81095
220.78715
199.07472
175.5728
151.35958
127.51701
104.99543
84.478508
66.355507
50.749001
37.584105
26.658653
17.721294
10.688519
5.5489293
2.6652928
1.0142622
255.96667
259.53718
263.12534
266.63306
269.93613
272.87795
275.26621
276.83916
277.33112
276.38263
273.54195
268.33688
260.31065
249.10711
234.57255
216.84644
196.40628
174.03968
150.74114
127.5537
105.46292
85.162132
67.105223
51.472646
38.235485
27.222429
18.209594
11.090913
5.8946438
2.8510004
1.1077431
246.46067
249.98976
253.55259
257.0554
260.37594
263.35898
265.81332
267.48865
268.12274
267.40297
264.9171
260.23881
252.94565
242.68796
229.27879
212.78406
193.57711
172.3376
149.97567
127.49664
105.85609
85.804387
67.839847
52.197653
38.895917
27.799224
18.710547
11.499172
6.2436629
3.0446502
1.2127996
237.15638
240.61777
244.13161
247.60994
250.93438
253.95445
256.48227
258.28151
259.08447
258.61601
256.49077
252.31911
245.71059
236.32845
223.96627
208.63183
190.61029
170.48134
149.06863
127.32845
106.17048
86.399734
68.554318
52.920618
39.564036
28.387506
19.21998
11.91455
6.5963989
3.2542483
1.3295913
227.97155
231.35456
234.81034
238.25646
241.58062
244.63848
247.24996
249.18937
250.18162
249.98446
248.23013
244.55611
238.59855
230.03561
218.65106
204.40908
187.52228
168.47954
148.0159
127.02095
106.39493
86.941469
69.243593
53.638266
40.238463
28.986688
19.738152
12.341902
6.9548274
3.4904844
1.4587015
218.76272
222.0639
225.45942
228.87207
232.19718
235.29813
238.0026
240.09949
241.30967
241.40454
240.03932
236.86915
231.54987
223.77238
213.31584
200.11345
184.31723
166.33542
146.81951
126.59232
106.52692
87.423796
69.902489
54.347023
40.917344
29.596222
20.266503
12.783485
7.3201856
3.7682649
1.6284443
209.50654
212.71467
216.03781
219.40503
222.72071
225.85791
228.65424
230.90892
232.36049
232.76264
231.80792
229.15664
224.47898
217.4744
207.91827
195.71981
180.9823
164.04211
145.47165
126.02586
106.5335
87.832489
70.523522
55.042496
41.598434
30.215829
20.807392
13.244414
7.7046461
4.0796411
1.8190578
200.36108
203.45311
206.67691
209.96983
213.24634
216.39076
219.25271
221.64361
223.32395
224.02984
223.48815
221.36047
217.32529
211.08675
202.41523
191.19867
177.49754
161.58615
143.96526
125.32607
106.46615
88.17138
71.10153
55.719844
42.278907
30.845143
21.363768
13.733021
8.118259
4.4184062
2.0980779
191.56113
194.51048
197.60257
200.78428
203.98051
207.08772
209.96902
212.45011
214.31341
215.28834
215.13161
213.50491
210.09444
204.60468
196.79798
186.54121
173.85569
158.96166
142.29463
124.48267
106.28046
88.429657
71.629319
56.373098
42.954669
31.482449
21.936927
14.247095
8.5562006
4.7804295
2.4258459
183.26528
186.0561
188.99534
192.03887
195.12142
198.15144
201.00587
203.5257
205.51275
206.70742
206.87764
205.70485
202.87334
198.09054
191.11032
181.77823
170.0798
156.18363
140.46389
123.48635
105.95154
88.593347
72.097841
56.995099
43.620174
32.123876
22.524239
14.783452
9.012116
5.1574992
2.7823395
175.38734
178.02135
180.80671
183.70638
186.66392
189.59878
192.40113
194.92707
196.99484
198.36902
198.81068
198.03769
195.73504
191.60804
185.40402
176.95035
166.20009
153.27533
138.48999
122.34795
105.49868
88.648644
72.49769
57.578619
44.269558
32.764606
23.12009
15.331048
9.4804307
5.5407852
3.1579786
167.80994
170.29452
172.93206
175.69111
178.52309
181.3574
184.09649
186.61082
188.73466
190.25615
190.93305
190.51661
188.69404
185.17495
179.70128
172.08271
162.24187
150.25622
136.38571
121.07615
104.92567
88.6139
72.826307
58.11796
44.897711
33.400495
23.720418
15.880229
9.9546502
5.9411217
3.5796414
160.47106
162.80899
165.29995
167.91761
170.62052
173.34733
176.01195
178.49858
180.65715
182.29832
183.18011
183.08508
181.70792
178.76057
173.97854
167.15842
158.19496
147.12345
134.15345
119.67619
104.24066
88.498349
73.088185
58.611887
45.501837
34.028973
24.32334
16.433022
10.432911
6.354528
4.0421468
153.48075
155.67082
158.01178
160.48204
163.04654
165.65238
168.22418
170.65923
172.82275
174.54423
175.59859
175.77532
174.79455
172.37048
168.23724
162.17624
154.05621
143.87438
131.79095
118.14325
103.4298
88.260137
73.270415
59.055971
46.079766
34.649016
24.929245
16.992902
10.921281
6.7791551
4.5591418
146.76685
148.8135
151.00747
153.33132
155.75558
158.23487
160.70354
163.07101
165.21697
166.98736
168.18098
168.58579
167.95484
166.00652
162.4745
157.12935
149.81784
140.50124
129.29306
116.47577
102.49586
87.923927
73.379651
59.451397
46.630793
35.259814
25.538349
17.563453
11.426636
7.2285611
5.2779427
140.41477
142.32238
144.3726
146.55133
148.83394
151.18162
153.53741
155.82172
157.92766
159.71683
161.01052
161.59896
161.26568
159.73599
156.74791
152.06609
145.51712
137.02978
126.67205
114.67527
101.43351
87.471139
73.378213
59.780937
47.147345
35.857504
26.14854
18.145002
11.953387
7.7211325
6.0211717
134.23519
136.01143
137.92517
139.96518
142.11106
144.32983
146.57227
148.76878
150.82481
152.61656
153.98621
154.72851
154.65563
153.50224
151.01405
146.95223
141.1273
133.43908
123.91301
112.73021
100.23398
86.906328
73.318826
60.052065
47.625767
36.43777
26.75677
18.735915
12.50102
8.2540898
6.6380159
128.44447
130.09175
131.8703
133.7714
135.77825
137.86292
139.9831
142.07812
144.06472
145.83272
147.24134
148.10246
148.2374
147.40533
145.35748
141.856
136.70072
129.76611
121.04014
110.65678
98.90697
86.227626
73.160387
60.254958
48.059822
36.995404
27.359745
19.335531
13.071778
8.8035585
7.1400475
122.77938
124.30513
125.95575
127.7247
129.59827
131.55302
133.5527
135.54469
137.45599
139.18898
140.61764
141.57533
141.88548
141.337
139.68782
136.70424
132.17904
125.96613
118.01932
108.42641
97.427733
85.411874
72.88071
60.380969
48.44487
37.525662
27.953328
19.941519
13.665218
9.3776432
7.5931453
117.57848
118.98648
120.5122
122.15082
123.89118
125.71358
127.58697
129.46574
131.28597
132.9614
134.37962
135.39355
135.83179
135.50988
134.19553
131.66196
127.69979
122.14823
114.93168
106.0954
95.830853
84.477054
72.492489
60.399827
48.764934
38.020459
28.532071
20.54985
14.276921
9.9725393
8.0361201
112.35731
113.65604
115.06581
116.58322
118.19938
119.8979
121.6524
123.42357
125.15571
126.77294
128.17545
129.23425
129.78414
129.66555
128.65735
126.54207
123.11079
118.19122
111.68297
103.59294
94.064932
83.388617
71.98286
60.353676
49.023637
38.474156
29.089809
21.153356
14.895245
10.584681
8.4664217
107.6921
108.88678
110.18533
111.58538
113.07978
114.65482
116.28794
117.94516
119.57782
121.11916
122.48059
123.54844
124.16809
124.19769
123.43174
121.66265
118.68559
114.32278
108.45514
101.05778
92.231736
82.217139
71.388833
60.224329
49.22059
38.884925
29.622525
21.745035
15.506668
11.174777
8.8964684
102.76434
103.86343
105.05997
106.35257
107.73572
109.19814
110.72087
112.27478
113.81777
115.29146
116.61775
117.69549
118.38851
118.5581
118.02504
116.58985
114.05408
110.23655
105.00266
98.298607
90.183262
80.851719
70.634202
59.968391
49.344984
39.25284
30.130855
22.324551
16.113777
11.750118
9.275293
98.595751
99.605268
100.70547
101.89552
103.17105
104.52263
105.93402
107.38002
108.82385
110.21415
111.48177
112.53655
113.25817
113.51385
113.1463
111.96626
109.78326
106.41821
101.72822
95.636876
88.168512
79.47375
69.836447
59.654098
49.394495
39.578122
30.623061
22.903577
16.724017
12.313083
9.6148748
93.795174
94.724085
95.738036
96.83673
98.016961
99.271132
100.58569
101.93921
103.30001
104.62344
105.8489
106.89667
107.66201
108.0172
107.82719
106.91388
105.09731
102.20037
98.071646
92.616422
85.827118
77.81242
68.80967
59.177445
49.363322
39.845585
31.084972
23.471443
17.321493
12.84267
9.9218668
90.039295
90.894941
91.829867
92.844048
93.934982
95.096273
96.316246
97.576283
98.848656
100.09401
101.25856
102.27115
103.0392
103.44196
103.36094
102.62875
101.07483
98.529027
94.840686
89.902208
83.682013
76.254101
67.813724
58.678454
49.262548
40.055042
31.496979
23.995526
17.874276
13.32366
10.200239
85.187284
85.972529
86.831719
87.76531
88.771723
89.846025
90.978699
92.154103
93.348574
94.528188
95.646201
96.640306
97.429943
97.905595
97.960419
97.445181
96.200385
94.061234
90.873319
86.518177
80.94172
74.182626
66.397283
57.864238
48.968698
40.124127
31.817252
24.460185
18.381681
13.764087
10.479162
82.009637
82.737312
83.534047
84.400448
85.335377
86.334708
87.390217
88.48819
89.607697
90.718513
91.778748
92.732214
93.505778
94.000889
94.11462
93.712846
92.644773
90.755136
87.895215
83.942711
78.827039
72.560127
65.26433
57.182007
48.662446
40.122351
32.053038
24.834472
18.803586
14.156224
10.79069
76.874128
77.543356
78.277493
79.077453
79.94285
80.870741
81.854647
82.883319
83.939212
84.996655
86.01974
86.959996
87.753919
88.317917
88.553
88.346109
87.556129
86.036116
83.639168
80.236957
75.745531
70.151185
63.535652
56.095256
48.138489
40.062445
32.281176
25.246725
19.286227
14.597456
11.099242
74.322913
74.959505
75.658282
76.420545
77.246212
78.13285
79.074767
80.061873
81.078278
82.100594
83.095943
84.019704
84.81309
85.399511
85.683397
85.559592
84.893284
83.542919
81.365912
78.234604
74.058741
68.811918
62.55655
55.463997
47.819761
40.002542
32.435955
25.507555
19.596196
14.910878
11.368695
68.26922
68.844172
69.475026
70.163658
70.91052
71.714174
72.570537
73.472066
74.40645
75.354967
76.291193
77.17921
77.970852
78.603585
78.998432
79.059737
78.669745
77.699292
76.014199
73.487706
70.020067
65.560063
60.131229
53.852697
46.957535
39.773178
32.676315
26.072399
20.290613
15.521753
11.633639
39.191156
46.035995
54.652833
65.090162
76.973143
89.999359
103.79709
117.96678
132.04875
145.69353
159.13113
171.37521
183.16594
194.91684
207.29757
221.11859
235.33493
249.2132
261.64506
271.6594
278.67861
282.44765
282.99562
281.70272
278.36985
272.91052
266.07959
258.21003
249.62609
240.68372
231.75666
223.10857
214.83025
206.83231
198.89949
190.90801
182.94629
175.25133
168.02452
161.29148
51.545741
60.452506
72.380549
85.676955
99.665745
113.99547
128.07656
142.00887
154.77311
166.79373
177.69114
188.23599
199.34959
211.47541
225.08708
238.85322
252.46467
264.85748
275.2204
282.91946
287.66297
289.22002
288.57977
286.16466
281.27996
274.8489
267.20854
258.684
249.63563
240.4573
231.45654
222.77936
214.3863
206.0853
197.73835
189.40574
181.31051
173.66779
166.53558
159.73149
153.14327
146.76009
140.70646
134.87838
129.36319
123.96589
118.92937
113.96907
109.43744
104.83661
100.74958
96.358203
92.678601
88.326459
84.96547
80.506172
77.631405
72.825889
70.43318
64.738504
93.671104
104.39517
115.58824
127.09443
138.67945
150.03005
161.07713
171.7395
182.21141
192.31669
202.60388
213.3742
224.85013
236.8829
248.99051
260.85644
271.75119
281.10852
288.32883
293.07282
295.03353
294.69879
292.79232
288.40226
282.34376
274.9659
266.57344
257.5161
248.19171
238.93828
229.94918
221.2334
212.62647
203.98246
195.33624
186.89554
178.88579
171.39514
164.26546
157.3782
150.70684
144.37311
138.28229
132.52018
126.89271
121.63534
116.46943
111.74357
106.96284
102.70914
98.162724
94.342974
89.861409
86.387743
81.815112
78.854229
73.952843
71.514032
65.71841
162.28352
170.67974
178.5885
186.18104
193.55946
200.75198
207.82915
215.11381
222.27593
229.97817
238.14863
246.80605
255.84456
265.02865
273.9932
282.33047
289.64899
295.44334
299.30833
300.96181
300.5913
298.7208
294.58743
288.81793
281.6715
273.42902
264.41667
255.02038
245.59349
236.3663
227.392
218.5358
209.64884
200.74297
192.00936
183.6803
175.87166
168.45034
161.29502
154.36501
147.77853
141.44942
135.4627
129.62556
124.16642
118.81223
113.90792
108.96188
104.55441
99.865235
95.915702
91.31484
87.736519
83.059402
80.018417
75.02902
72.548365
66.658565
242.49475
245.88344
248.57278
250.844
252.93825
254.97875
257.04334
259.48952
262.1777
265.47227
269.45797
274.02522
279.22983
284.76194
290.32558
295.60742
300.33665
304.12253
306.51667
307.29645
306.51582
304.25644
300.14658
294.50112
287.51288
279.39848
270.44863
261.02535
251.48274
242.07639
232.89756
223.84117
214.75914
205.64241
196.66452
188.0612
179.97342
172.29333
164.89992
157.73982
150.92722
144.38369
138.19422
132.16743
126.52524
120.99974
115.93256
110.83548
106.287
101.46708
97.398027
92.687793
89.012729
84.239842
81.124713
76.055009
73.536631
67.559187
)
;

boundaryField
{
    Side1
    {
        type            empty;
    }
    Inlet
    {
        type            inletOutlet;
        inletValue      uniform 0.39740317;
        value           nonuniform List<scalar> 
59
(
0.39740317
0.39740317
0.39740317
0.39740317
0.39740317
0.39740317
0.39740317
0.39740317
0.39740317
0.39740317
0.39740317
0.39740317
0.39740317
0.54356666
0.39740317
0.39740317
0.39740317
0.39740317
0.39740317
0.57280053
0.39740317
0.39740317
0.39740317
0.39740317
0.72751926
0.39740317
0.86813913
0.39740317
0.39740317
0.39740317
0.39740317
0.39740317
0.39740317
0.39740317
0.39740317
0.39740317
0.39740317
0.39740317
0.39740317
0.39740317
0.39740317
0.39740317
0.39740317
0.39740317
0.39740317
0.39740317
0.39740317
0.39740317
0.39740317
0.39740317
0.39740317
0.39740317
0.39740317
0.39740317
0.39740317
0.39740317
0.39740317
0.39740317
0.39740317
)
;
    }
    Side2
    {
        type            empty;
    }
    Outlet
    {
        type            zeroGradient;
    }
    Botwall
    {
        type            kqRWallFunction;
        value           nonuniform List<scalar> 0();
    }
    Cyli
    {
        type            kqRWallFunction;
        value           nonuniform List<scalar> 0();
    }
    procBoundary3to0
    {
        type            processor;
        value           nonuniform List<scalar> 7(34.005317 44.449124 44.449124 83.009933 83.009933 153.37151 153.37151);
    }
    procBoundary3to1
    {
        type            processor;
        value           nonuniform List<scalar> 
62
(
41.620503
47.546417
54.623759
63.003439
72.72957
83.794869
96.022186
109.16935
122.99418
137.36683
152.33129
166.61799
180.72383
194.33682
207.86261
221.9771
235.94718
249.14232
260.398
268.90892
274.24377
276.26953
275.68427
273.31625
268.96662
262.97842
255.83001
247.84783
239.33612
230.63156
222.07584
213.88369
206.09235
198.5677
191.07626
183.50916
175.97965
168.73608
161.96686
155.66897
154.84702
154.84702
148.59073
142.52575
136.77904
131.23795
125.99214
120.84562
116.04857
111.31089
106.9889
102.58253
98.675118
94.451271
90.92243
86.710436
83.470384
79.133271
76.350757
71.649599
69.306522
63.718585
)
;
    }
    procBoundary3to2
    {
        type            processor;
        value           nonuniform List<scalar> 
35
(
1.714624
0.84078112
0.47818213
460.08772
403.34449
347.45071
294.6999
246.56512
203.81033
166.62031
134.7654
107.77006
85.057581
66.035128
50.151772
36.930446
25.932233
17.003922
9.8220317
4.4044722
4.4044722
326.39265
326.39265
400.95563
471.14547
532.10501
579.3226
608.94894
620.81286
615.47054
593.19532
556.9238
510.46488
510.46488
238.2344
)
;
    }
}


// ************************************************************************* //
