/*--------------------------------*- C++ -*----------------------------------*\
| =========                 |                                                 |
| \\      /  F ield         | OpenFOAM: The Open Source CFD Toolbox           |
|  \\    /   O peration     | Version:  2406                                  |
|   \\  /    A nd           | Website:  www.openfoam.com                      |
|    \\/     M anipulation  |                                                 |
\*---------------------------------------------------------------------------*/
FoamFile
{
    version     2.0;
    format      ascii;
    arch        "LSB;label=32;scalar=64";
    class       volVectorField;
    location    "0.03";
    object      U;
}
// * * * * * * * * * * * * * * * * * * * * * * * * * * * * * * * * * * * * * //

dimensions      [0 1 -1 0 0 0 0];

internalField   nonuniform List<vector> 
2065
(
(54.8299 0.66890261 -3.9429916e-19)
(53.766707 0.15874425 -2.8702079e-23)
(51.944812 0.12915819 -1.8843925e-24)
(55.793344 0.23009557 5.226698e-20)
(56.246204 0.9141359 1.2642377e-21)
(56.54658 1.5369152 -1.9485592e-21)
(56.721822 2.0750753 -4.7213963e-20)
(56.805555 2.5160546 -3.6868891e-20)
(56.831667 2.8550632 2.7931296e-20)
(56.825495 3.0948067 -4.3469524e-20)
(56.80994 3.240468 -2.6597325e-22)
(56.80161 3.3032009 2.0837619e-22)
(56.809515 3.2918128 -1.6058516e-22)
(56.833425 3.2189 -3.4186263e-20)
(56.864432 3.0907626 0)
(56.890481 2.9116124 0)
(56.881333 2.673437 0)
(56.763118 2.3758012 8.8742198e-20)
(56.440075 1.9910904 -4.8964585e-23)
(55.747333 1.4096678 1.3751274e-19)
(54.858359 0.66297738 -9.9081032e-23)
(53.780081 0.14203187 5.8641626e-23)
(51.949736 0.11198871 1.0764661e-19)
(41.65339 -3.5482153 6.8933865e-20)
(43.485243 -3.5916659 -5.1617072e-20)
(45.081025 -3.5782654 2.3389089e-20)
(46.561098 -3.5281282 -9.6731581e-21)
(47.984533 -3.4082094 -2.3913051e-20)
(49.363718 -3.1965223 -6.5326445e-20)
(50.684556 -2.8784546 5.3174334e-21)
(51.919879 -2.4514494 4.2935041e-21)
(53.04309 -1.9243025 -3.4393755e-20)
(54.030044 -1.314886 4.648955e-20)
(54.860684 -0.65069855 -3.4535502e-20)
(55.524044 0.033948695 0)
(56.02209 0.70270023 -1.3187654e-21)
(56.369252 1.3233629 3.4764438e-20)
(56.588583 1.8700755 4.9795231e-20)
(56.710844 2.326359 0)
(56.768664 2.6848263 -1.8265368e-25)
(56.787441 2.9456511 4.7026247e-20)
(56.790562 3.1123322 -2.835154e-22)
(56.795657 3.1943825 2.2261556e-22)
(56.81273 3.2027222 -1.7379436e-22)
(56.842737 3.1421547 0)
(56.877812 3.0269866 1.1885753e-22)
(56.907094 2.858758 5.2234705e-20)
(56.90042 2.630964 9.0943309e-23)
(56.785214 2.3440321 -4.7953255e-23)
(56.467862 1.9688967 -5.1409785e-23)
(55.78131 1.4002619 -2.8495521e-19)
(54.889027 0.65665736 4.1621143e-19)
(53.794685 0.12462763 8.955895e-23)
(51.955431 0.091669279 -3.4960238e-24)
(41.715851 -3.4577166 -1.5989773e-20)
(43.497988 -3.4871423 -2.4284649e-20)
(45.043302 -3.4818762 2.2091311e-20)
(46.467543 -3.4339759 -9.2241609e-21)
(47.827713 -3.3264113 2.3023303e-20)
(49.143375 -3.1399055 3.1772151e-20)
(50.409806 -2.8593373 -5.227391e-21)
(51.607105 -2.4783506 -6.7299861e-25)
(52.711468 -2.0006061 3.4506292e-21)
(53.699163 -1.4387908 -2.7710196e-21)
(54.548552 -0.8152887 2.2061315e-21)
(55.245096 -0.16049508 0)
(55.785433 0.49127663 0)
(56.178415 1.1075227 2.7685186e-24)
(56.442476 1.6605482 0)
(56.604936 2.1306396 0)
(56.696536 2.5077002 -3.2439125e-20)
(56.742396 2.7893008 3.8718277e-22)
(56.766166 2.9771335 3.8949495e-20)
(56.786209 3.0789764 -4.7440429e-22)
(56.81395 3.1048597 1.8841602e-22)
(56.851057 3.0600216 0)
(56.890826 2.9585768 -6.4691152e-20)
(56.923862 2.801844 -2.1925383e-22)
(56.919955 2.585792 9.6142114e-23)
(56.808158 2.3097641 -9.9117265e-20)
(56.496959 1.9446542 -5.3845591e-23)
(55.8173 1.3897004 2.2058983e-24)
(54.922077 0.6499282 -4.2515036e-19)
(53.810602 0.10668315 0)
(51.962322 0.068197384 0)
(41.766989 -3.4345438 0)
(43.496237 -3.4642323 -2.6735235e-24)
(44.998006 -3.4466686 0)
(46.371738 -3.3954341 -1.7542646e-20)
(47.674692 -3.2926439 -2.5844753e-24)
(48.931807 -3.1217318 -3.694275e-20)
(50.145868 -2.8678491 0)
(51.303804 -2.5225128 -3.3709699e-20)
(52.385527 -2.0855548 0)
(53.368833 -1.5651962 0)
(54.231618 -0.97906641 4.4874158e-21)
(54.956736 -0.3533726 -6.0801487e-20)
(55.5363 0.28033577 -4.5274039e-20)
(55.97382 0.89013926 -3.6695939e-20)
(56.282948 1.4472672 8.6935502e-22)
(56.487078 1.9294806 0)
(56.614477 2.3240365 -3.4272438e-20)
(56.6896 2.625896 8.2102774e-22)
(56.736088 2.8348407 -4.1378997e-20)
(56.772857 2.9568386 -2.5245767e-22)
(56.812688 3.0007755 -5.1209684e-20)
(56.858019 2.9722476 0)
(56.903264 2.8853026 6.8972402e-20)
(56.940629 2.7406812 -5.9090847e-20)
(56.939977 2.5373014 6.1942614e-26)
(56.83193 2.27283 -1.0209995e-22)
(56.527372 1.9182077 5.6350098e-23)
(55.855372 1.3778596 1.5179155e-19)
(54.957669 0.64271826 -4.3262652e-19)
(53.827971 0.088319405 1.8315848e-22)
(51.970397 0.041686898 6.1337789e-20)
(41.805778 -3.4751649 2.7415657e-20)
(43.483185 -3.4958678 2.2096227e-20)
(44.939931 -3.4719732 0)
(46.266769 -3.4128794 -1.6635057e-20)
(47.517952 -3.3081978 4.2270455e-20)
(48.721622 -3.1440361 1.1879077e-20)
(49.886405 -2.9066756 1.9921042e-20)
(51.005324 -2.5868359 2.484978e-20)
(52.062373 -2.181747 0)
(53.037588 -1.6960536 0)
(53.909387 -1.1431217 -3.6289076e-20)
(54.658945 -0.54490388 5.8348911e-20)
(55.274687 0.070305939 9.0175702e-20)
(55.755247 0.67198606 2.3027316e-21)
(56.10949 1.2310867 0)
(56.356539 1.7235835 4.5464005e-20)
(56.521676 2.1343082 1.1103307e-21)
(56.628262 2.4556846 5.4669133e-20)
(56.699625 2.6855162 -4.3512447e-20)
(56.755053 2.8279061 3.456823e-20)
(56.808587 2.8904835 5.4431116e-20)
(56.863331 2.8786025 4.3574168e-20)
(56.914889 2.8069708 7.313679e-20)
(56.957251 2.6751114 -6.2806779e-20)
(56.960336 2.4852292 0)
(56.856487 2.2330661 -1.1010386e-19)
(56.559089 1.8893891 0)
(55.895579 1.3645714 1.5622558e-19)
(54.995959 0.6350014 4.3847699e-19)
(53.846984 0.069712741 0)
(51.979763 0.012349465 -6.1909087e-20)
(41.824764 -3.5774667 -5.0637563e-20)
(43.451717 -3.5905966 -2.104678e-20)
(44.86359 -3.5569331 -1.2105102e-24)
(46.145126 -3.4862006 4.719395e-20)
(47.34882 -3.3734119 0)
(48.504215 -3.2077952 1.1422916e-20)
(49.623879 -2.9774584 -9.6570562e-21)
(50.705827 -2.6733362 -8.1056945e-21)
(51.738026 -2.2911928 6.7473804e-21)
(52.703144 -1.8329909 0)
(53.580777 -1.3083931 3.6472014e-20)
(54.351348 -0.73527618 0)
(55.000455 -0.13836581 -9.2208495e-20)
(55.522475 0.45389503 -4.0350715e-20)
(55.921644 1.0129591 0)
(56.212643 1.5137795 -4.7454627e-20)
(56.417344 1.9391194 3.8446572e-20)
(56.557584 2.2790246 -5.9422333e-20)
(56.656046 2.5293007 4.5268763e-20)
(56.732181 2.6921619 -3.5765601e-20)
(56.801026 2.7738782 0)
(56.866499 2.7833199 3.5665973e-22)
(56.925562 2.7233355 -1.5575728e-19)
(56.973503 2.6049235 6.6649315e-20)
(56.980825 2.4292687 -1.1581882e-22)
(56.881773 2.1902313 1.1569677e-19)
(56.592088 1.8579876 1.2247113e-22)
(55.937961 1.3496788 -1.6030574e-19)
(55.037105 0.6267583 -4.4267447e-19)
(53.867851 0.05108793 1.225594e-22)
(51.990514 -0.019560284 0)
(41.806733 -3.7934151 2.1901014e-20)
(43.383846 -3.7670493 -3.9541411e-20)
(44.752823 -3.7130988 1.7185393e-20)
(45.993497 -3.6201768 -5.9338879e-20)
(47.155543 -3.4896536 0)
(48.269055 -3.3133113 2.1882051e-20)
(49.349304 -3.0805785 0)
(50.398236 -2.7827957 -7.892836e-21)
(51.407424 -2.4149269 6.6271186e-21)
(52.362281 -1.9769602 0)
(53.244064 -1.4754645 4.5581986e-21)
(54.033164 -0.92450633 -3.7285334e-21)
(54.713282 -0.34514642 5.1413848e-20)
(55.275243 0.23678043 3.6487114e-20)
(55.718993 0.79394464 -1.9425738e-21)
(56.054761 1.3010345 -9.2332516e-25)
(56.300716 1.7392192 1.2169412e-21)
(56.476759 2.096406 9.5993717e-22)
(56.604585 2.3664424 4.7692994e-20)
(56.703564 2.5496354 5.9986347e-22)
(56.789359 2.6507887 2.9325671e-25)
(56.867315 2.6788881 -4.94873e-20)
(56.935096 2.6340863 1.6424148e-19)
(56.989272 2.5301548 -2.7477609e-22)
(57.001364 2.3688462 -6.2803316e-20)
(56.907704 2.1440555 1.1843067e-22)
(56.62633 1.8237732 -1.2720618e-22)
(55.982546 1.3330129 1.5976616e-22)
(55.081259 0.61797996 4.4485043e-19)
(53.890827 0.032745591 0)
(52.002792 -0.053774209 0)
(41.745474 -4.027054 -1.9942784e-20)
(43.256221 -4.0119117 9.3521213e-25)
(44.585806 -3.9262211 -2.5227059e-24)
(45.79353 -3.805249 2.7898117e-20)
(46.922952 -3.6510522 2.419066e-20)
(48.003536 -3.456857 -1.0437586e-20)
(49.052326 -3.213734 -8.966328e-21)
(50.074402 -2.9140205 -2.2953628e-20)
(51.064577 -2.5525306 1.9436006e-20)
(52.010988 -2.12794 5.4411454e-21)
(52.896886 -1.6442837 -4.5295459e-21)
(53.70321 -1.1122365 0)
(54.412648 -0.54931153 0)
(55.013254 0.021678281 2.4798562e-21)
(55.501175 0.57522722 -1.9937255e-21)
(55.882339 1.0864632 -1.5937166e-21)
(56.171077 1.5355117 1.2659077e-21)
(56.384998 1.9084642 6.4215356e-20)
(56.544462 2.1973115 -1.0093521e-19)
(56.668496 2.4004584 3.8476969e-25)
(56.773129 2.521157 -5.0544111e-22)
(56.865213 2.5673386 0)
(56.943048 2.5388511 -8.6910536e-20)
(57.004368 2.4507434 0)
(57.021793 2.3039724 6.602834e-20)
(56.934152 2.0943119 1.2381572e-22)
(56.661755 1.7864952 1.316948e-22)
(56.029338 1.3143925 0)
(55.128561 0.60867177 -4.4525966e-19)
(53.916107 0.015111181 0)
(52.016713 -0.089743565 0)
(41.602214 -4.3345262 -1.9395846e-20)
(43.059548 -4.2919041 -1.7000358e-20)
(44.353364 -4.1778345 2.9866112e-20)
(45.533526 -4.0281934 -2.6166484e-20)
(46.638538 -3.8473015 -2.2840342e-20)
(47.695796 -3.6306103 -1.2068795e-24)
(48.722524 -3.3713312 1.718568e-20)
(49.725787 -3.0632503 2.9531393e-20)
(50.702979 -2.7016293 -2.5198395e-20)
(51.644711 -2.2844699 -3.2009555e-20)
(52.536352 -1.8138375 2.6876887e-20)
(53.359956 -1.2975769 -7.4550164e-21)
(54.09786 -0.74982958 4.9178564e-20)
(54.736177 -0.19019009 5.0235787e-21)
(55.267876 0.35813741 2.0370611e-21)
(55.694913 0.8713381 -1.6383367e-21)
(56.027791 1.3290652 0)
(56.281553 1.7159921 -6.6844549e-20)
(56.474903 2.0224155 5.4022979e-20)
(56.626252 2.2448812 -6.625461e-22)
(56.751774 2.3850411 -5.320548e-22)
(56.859796 2.4495837 4.3187619e-22)
(56.948987 2.4373076 8.9222456e-20)
(57.017962 2.3668136 -1.8608698e-25)
(57.041876 2.2345546 5.4331032e-22)
(56.961006 2.0405962 1.5969487e-25)
(56.69828 1.7458801 -4.0819943e-22)
(56.07831 1.293624 1.6519013e-22)
(55.179127 0.59885348 1.0014829e-23)
(53.943851 -0.0012102285 0)
(52.032427 -0.12639064 0)
(41.360441 -4.7023024 -1.797375e-20)
(42.771736 -4.6166594 -3.6219169e-24)
(44.037072 -4.4666019 -2.7722919e-20)
(45.198389 -4.2818466 2.445328e-20)
(46.289241 -4.0688598 2.1510105e-20)
(47.334265 -3.8250405 3.7651574e-20)
(48.349866 -3.5451612 -8.1984999e-20)
(49.344082 -3.224098 -2.8394374e-20)
(50.316163 -2.8576125 -1.2202315e-20)
(51.258804 -2.4433665 5.2035876e-20)
(52.159464 -1.9819724 8.6103663e-24)
(53.001706 -1.478919 0)
(53.768139 -0.94524107 -9.8286707e-20)
(54.443693 -0.39733811 0)
(55.01887 0.14419121 7.0312639e-20)
(55.492141 0.65709815 -3.35181e-21)
(55.870331 1.1211203 2.7007071e-21)
(56.165746 1.5199497 6.4925685e-20)
(56.39516 1.8424122 1.7302612e-21)
(56.576096 2.0832809 0)
(56.724642 2.242607 5.5780292e-22)
(56.850347 2.3256822 -4.5354263e-22)
(56.952301 2.3354586 -1.8561936e-19)
(57.030204 2.2761224 -3.1991197e-22)
(57.061334 2.1601859 -7.2771556e-20)
(56.988149 1.9822974 -2.6921894e-22)
(56.735783 1.7016683 2.8020978e-22)
(56.129401 1.2705009 0)
(55.233043 0.58856595 8.8093851e-19)
(53.974317 -0.015382682 -4.7932043e-19)
(52.049962 -0.1618779 4.7380512e-20)
(40.989532 -5.0595108 -3.2710288e-20)
(42.363898 -4.938324 -3.2226108e-24)
(43.613738 -4.7556924 7.6937334e-20)
(44.770517 -4.5378393 -2.2805569e-20)
(45.861566 -4.2937896 -3.2508325e-25)
(46.90823 -4.0230934 -1.7788055e-20)
(47.925617 -3.7220563 -9.8365358e-24)
(48.922176 -3.3866406 2.7180607e-20)
(49.898527 -3.0132636 0)
(50.84914 -2.5995725 0)
(51.763518 -2.1451939 8.9406783e-24)
(52.626922 -1.6537418 -5.8273404e-20)
(53.422772 -1.1335293 4.2719813e-20)
(54.135576 -0.59794427 -1.9083988e-24)
(54.754071 -0.064873262 -6.261736e-20)
(55.273835 0.44536515 -5.4561345e-20)
(55.69831 0.91309364 2.7661234e-21)
(56.037001 1.3214718 -7.3609856e-20)
(56.304541 1.6581204 -1.7942046e-21)
(56.517303 1.9161697 4.6157632e-20)
(56.691044 2.0940731 7.6876723e-20)
(56.836052 2.1955852 -9.493056e-22)
(56.952838 2.2253457 3.0934178e-24)
(57.041081 2.1795194 0)
(57.079847 2.0804712 7.5930654e-20)
(57.015365 1.9188742 2.7931376e-22)
(56.774088 1.653616 1.7801963e-25)
(56.182498 1.2448059 -3.3695983e-22)
(55.290342 0.57787166 -2.2424343e-22)
(54.007711 -0.026324822 4.6957715e-19)
(52.069169 -0.19328543 -3.9814176e-20)
(40.492194 -5.3698039 1.4829234e-20)
(41.838291 -5.2174013 2.6269464e-20)
(43.083004 -5.0082735 -2.3647035e-20)
(44.247439 -4.7641252 2.1195946e-20)
(45.351911 -4.4953982 1.8889447e-20)
(46.413646 -4.2031375 -1.6761032e-20)
(47.445688 -3.8849503 2.9564743e-20)
(48.456206 -3.5378113 -2.5940491e-20)
(49.446706 -3.1589158 -1.1297522e-20)
(50.413049 -2.7461555 9.770089e-21)
(51.346638 -2.2986303 -3.3547055e-20)
(52.234557 -1.8185581 6.4277224e-20)
(53.06136 -1.3120201 -6.0301991e-21)
(53.811822 -0.78979206 4.0390819e-20)
(54.473609 -0.26706416 -6.7033802e-20)
(55.040019 0.23795184 5.5160579e-20)
(55.511529 0.70657667 2.8170155e-21)
(55.894883 1.1218698 -2.2862091e-21)
(56.202443 1.4705282 0)
(56.449191 1.7442083 -4.9322355e-20)
(56.650306 1.9397758 -1.5384916e-19)
(56.816478 2.0593512 -6.3359347e-20)
(56.949997 2.1062209 3.1057446e-24)
(57.050028 2.0766778 -8.8706465e-20)
(57.097081 1.9949649 -3.0819284e-22)
(57.04239 1.8497463 -1.4813602e-19)
(56.81296 1.6015073 0)
(56.237436 1.2163141 -3.3869791e-22)
(55.35099 0.56685385 -4.2855889e-19)
(54.043604 -0.032767872 0)
(52.090022 -0.21507879 -3.0388327e-20)
(39.878317 -5.5836724 2.6809946e-20)
(41.207213 -5.410087 0)
(42.456731 -5.1865091 -1.0872408e-20)
(43.638884 -4.9283605 -5.8918731e-20)
(44.7674 -4.6463188 1.763135e-20)
(45.855183 -4.3424126 1.5738152e-20)
(46.912735 -4.0153306 0)
(47.947328 -3.662997 1.2322676e-20)
(48.960894 -3.2833903 -1.0806962e-20)
(49.950293 -2.8748106 0)
(50.908521 -2.4362549 3.2520802e-20)
(51.824466 -1.9689714 0)
(52.684102 -1.477451 -5.9283684e-21)
(53.47285 -0.97028373 -7.9978259e-20)
(54.177936 -0.4601553 7.1041822e-20)
(54.791009 0.036850446 0)
(55.310023 0.50333638 0)
(55.73914 0.92262894 7.459901e-20)
(56.088385 1.2807953 0)
(56.371143 1.568218 1.5413424e-21)
(56.601782 1.780222 -1.2531561e-21)
(56.791198 1.917275 6.5780386e-20)
(56.94343 1.9812991 2.1946406e-19)
(57.056571 1.9672591 8.9881981e-20)
(57.112684 1.9031514 0)
(57.068876 1.7741855 1.5238027e-19)
(56.852077 1.5451897 0)
(56.293982 1.1847964 -3.3905797e-22)
(55.414848 0.55557694 6.1643846e-22)
(54.082581 -0.032775286 -2.172246e-22)
(52.113704 -0.18719471 3.9153701e-20)
(39.193564 -5.6608324 -2.4161747e-20)
(40.509899 -5.4808296 1.0882139e-20)
(41.767642 -5.2586535 -2.9919672e-20)
(42.971258 -5.0025972 3.6299352e-20)
(44.128528 -4.7223163 -1.641803e-20)
(45.248083 -4.4202618 0)
(46.337589 -4.095944 2.6340885e-20)
(47.402897 -3.7481077 -3.2533325e-24)
(48.445847 -3.3754614 0)
(49.463864 -2.9768503 0)
(50.451108 -2.551478 9.6533725e-24)
(51.398027 -2.100125 0)
(52.292129 -1.6262097 0)
(53.119702 -1.1365571 4.4296112e-20)
(53.867957 -0.64173515 -4.1447883e-21)
(54.52746 -0.15579553 0)
(55.094125 0.30528998 0)
(55.569754 0.72539426 -7.3234589e-20)
(55.962051 1.0902496 -1.9343362e-21)
(56.282644 1.3891852 -5.0571704e-20)
(56.544863 1.6160774 1.6537061e-19)
(56.759602 1.7698084 6.7981694e-20)
(56.932345 1.8509347 -3.3007347e-24)
(57.060103 1.8596116 0)
(57.126576 1.804352 -8.5181643e-20)
(57.094588 1.6912189 1.5540252e-19)
(56.890994 1.4846511 0)
(56.351836 1.1500277 3.382143e-22)
(55.481655 0.54396722 -4.0163719e-22)
(54.12277 -0.023618084 0)
(52.138752 -0.22720141 0)
(38.487071 -5.6092153 -7.6071509e-20)
(39.791044 -5.4337447 1.9733374e-20)
(41.055076 -5.2239846 4.6430866e-24)
(42.278116 -4.9819545 3.349237e-20)
(43.462999 -4.7155811 1.5243217e-20)
(44.614429 -4.4272269 -2.7571075e-20)
(45.737249 -4.1167902 7.4294015e-20)
(46.83556 -3.7834688 -2.209872e-20)
(47.910648 -3.4264227 -1.9593846e-20)
(48.960105 -3.0448885 5.1750796e-20)
(49.978812 -2.6383301 -4.523813e-20)
(50.958452 -2.2073373 -1.3093538e-20)
(51.887838 -1.754615 1.1279097e-20)
(52.754243 -1.2856605 4.8222727e-20)
(53.545154 -0.80929389 5.7253858e-20)
(54.250474 -0.33774973 6.8808063e-21)
(54.864522 0.11445452 -5.741729e-21)
(55.386992 0.53194147 0)
(55.823338 0.90037199 -5.8858434e-20)
(56.183314 1.2082577 9.8318876e-20)
(56.479005 1.4481563 -8.3411959e-20)
(56.721041 1.6174407 -6.991752e-20)
(56.915607 1.71531 -1.1661894e-19)
(57.060665 1.7476151 0)
(57.13935 1.6983424 8.5569437e-20)
(57.118785 1.6029926 -1.5396553e-19)
(56.929221 1.4200864 1.5808335e-19)
(56.410632 1.1118038 0)
(55.550966 0.53202636 3.9142359e-22)
(54.161608 -0.0021602387 -7.1423634e-23)
(52.171589 -0.22585245 0)
(37.796503 -5.4381207 0)
(39.086067 -5.2766003 1.7872265e-20)
(40.352287 -5.0877044 -1.6679997e-20)
(41.590018 -4.868864 -1.5417071e-20)
(42.798066 -4.6260493 -1.4139789e-20)
(43.977721 -4.3611863 -2.572003e-20)
(45.131239 -4.0742129 2.323945e-20)
(46.260966 -3.7644701 4.1686142e-20)
(47.367421 -3.4312728 -2.9765367e-24)
(48.448127 -3.0740297 1.1620539e-23)
(49.498345 -2.6923654 2.8895712e-20)
(50.510653 -2.2867582 -1.2610699e-20)
(51.474925 -1.8594183 5.46452e-20)
(52.379283 -1.4147998 8.8194324e-24)
(53.211692 -0.96038083 -6.4185557e-20)
(53.961678 -0.50678264 0)
(54.622308 -0.067109806 -4.5700215e-20)
(55.191454 0.34413142 -7.6279691e-20)
(55.672398 0.71276919 6.3283332e-20)
(56.072953 1.0267324 1.7668933e-24)
(56.403768 1.2774176 -8.6362139e-20)
(56.674939 1.4607248 -6.930002e-20)
(56.892758 1.5745613 -1.2147098e-19)
(57.057538 1.6232534 1.0155018e-19)
(57.150253 1.591691 0)
(57.140653 1.5134197 -1.5408909e-19)
(56.966461 1.3517853 -1.5877347e-19)
(56.46995 1.0699227 -6.6558325e-22)
(55.622166 0.51964813 3.7997804e-22)
(54.20354 0.026969933 -1.0485667e-22)
(52.2045 -0.22152656 3.3052663e-20)
(37.152262 -5.1799192 0)
(38.423141 -5.0374949 2.4263286e-20)
(39.685767 -4.8733181 -2.2839136e-20)
(40.931853 -4.6818432 -4.2550827e-20)
(42.15682 -4.4673339 6.54382e-20)
(43.358935 -4.2312744 -3.5928153e-20)
(44.538094 -3.973535 -2.1751591e-20)
(45.694985 -3.6934133 4.4834407e-24)
(46.829321 -3.3901271 -3.5121758e-20)
(47.93848 -3.0629875 -3.122332e-20)
(49.017936 -2.7115432 9.0288924e-24)
(50.06091 -2.3360577 4.8411793e-20)
(51.058161 -1.9382076 -8.435251e-20)
(51.998546 -1.5216751 -2.7359821e-20)
(52.87046 -1.0928193 -7.8325991e-21)
(53.66327 -0.66080034 5.341988e-20)
(54.369059 -0.23740312 -6.2513377e-24)
(54.984118 0.16383849 7.5934543e-20)
(55.509679 0.52913246 3.9641647e-21)
(55.951577 0.84603418 3.6409858e-24)
(56.318862 1.1049694 8.4784607e-20)
(56.62083 1.3004385 1.4332067e-19)
(56.863662 1.4292357 3.815951e-21)
(57.049698 1.4934552 -2.0940293e-19)
(57.158079 1.4861443 8.5885178e-20)
(57.160812 1.4202352 1.5558759e-19)
(57.002524 1.2798315 6.2507469e-22)
(56.529332 1.0241273 0)
(55.694548 0.50648056 -3.6767133e-22)
(54.252615 0.05699486 -1.692828e-19)
(52.244628 -0.21967357 -5.9130121e-20)
(36.579533 -4.850971 0)
(37.824585 -4.7325508 0)
(39.075699 -4.5964076 6.9459638e-21)
(40.322224 -4.4354559 1.3029555e-20)
(41.556634 -4.252495 -1.2106867e-20)
(42.774339 -4.0485873 1.1142593e-20)
(43.972905 -3.8235568 -2.034045e-20)
(45.151336 -3.5766817 1.84222e-20)
(46.308495 -3.3070758 1.6565935e-20)
(47.441589 -3.013888 0)
(48.546275 -2.6964714 -3.9389653e-20)
(49.616311 -2.3547715 -6.9445255e-20)
(50.643172 -1.989939 9.1214056e-20)
(51.616477 -1.6049333 -2.6444994e-20)
(52.524995 -1.2050117 -6.0896792e-20)
(53.358007 -0.79807096 -5.2205056e-20)
(54.106837 -0.39461332 3.3333912e-20)
(54.766369 -0.0071090964 7.9869623e-20)
(55.33596 0.35118563 3.9487986e-21)
(55.819458 0.66768414 -5.6136988e-20)
(56.224172 0.93205365 -2.7561995e-21)
(56.558345 1.137523 -7.1366699e-20)
(56.827852 1.2799574 1.2387284e-19)
(57.036052 1.3591 1.0556768e-19)
(57.161813 1.3774844 -8.5726087e-20)
(57.179053 1.3238054 1.5678337e-19)
(57.037097 1.2043056 -1.6010194e-19)
(56.588287 0.97409526 0)
(55.767481 0.49193259 3.62713e-19)
(54.309171 0.086914675 2.9786282e-19)
(52.292432 -0.21100238 8.4729806e-20)
(36.101588 -4.4961549 5.6716096e-20)
(37.312116 -4.4008874 -5.2998825e-20)
(38.5417 -4.2907455 9.5032512e-20)
(39.77846 -4.1583171 -1.5710906e-26)
(41.012716 -4.0052798 -3.3563067e-20)
(42.237393 -3.8323751 4.1406507e-20)
(43.447765 -3.6394385 -5.6970594e-20)
(44.641027 -3.4257794 3.4557882e-20)
(45.814981 -3.1904335 -3.1212159e-20)
(46.966508 -2.9323582 2.7993734e-20)
(48.091366 -2.6506147 -2.493969e-20)
(49.183781 -2.3447275 -6.3878565e-24)
(50.235895 -2.0152511 -3.8829052e-20)
(51.237999 -1.6643107 3.3929192e-20)
(52.179322 -1.2961414 5.890363e-20)
(53.04911 -0.91736975 0)
(53.838111 -0.53722247 5.4371515e-21)
(54.539986 -0.16703842 -8.3239099e-20)
(55.152369 0.18061695 7.8203421e-21)
(55.677151 0.49325383 -6.5798394e-21)
(56.119792 0.76001803 8.8324257e-20)
(56.487241 0.97304487 2.3158178e-21)
(56.784817 1.1273972 -1.9542431e-21)
(57.015751 1.2206444 1.6669293e-21)
(57.160639 1.2634303 0)
(57.194928 1.2234107 1.2518142e-21)
(57.069943 1.1241716 -1.2390278e-21)
(56.646287 0.91942335 0)
(55.840477 0.4752319 -3.4990881e-19)
(54.370983 0.11512721 6.8335502e-22)
(52.341992 -0.20177071 -2.0514055e-19)
(35.703474 -4.1437358 -3.1940765e-21)
(36.873299 -4.0689908 0)
(38.074455 -3.9814006 5.7818598e-21)
(39.294457 -3.8736763 -4.3977417e-20)
(40.521968 -3.7467767 1.7752152e-25)
(41.747658 -3.6012911 1.6544525e-25)
(42.964487 -3.437192 5.3138087e-20)
(44.167656 -3.2539687 3.2371947e-20)
(45.353668 -3.0507362 -2.9352924e-20)
(46.518903 -2.8263708 2.6425661e-20)
(47.659171 -2.5796691 -2.3631544e-20)
(48.769178 -2.3096979 2.099617e-20)
(49.841795 -2.0163367 0)
(50.868019 -1.700856 -1.6273886e-20)
(51.837642 -1.3663251 -4.2581054e-20)
(52.7401 -1.0181141 6.1490776e-20)
(53.565705 -0.6641436 -2.1173793e-20)
(54.307108 -0.31453559 9.0558231e-21)
(54.960379 0.018997192 0)
(55.525512 0.32430783 0)
(56.006056 0.5902784 -9.0702154e-20)
(56.40745 0.80816509 2.3167768e-21)
(56.73416 0.97226553 0)
(56.988224 1.0782885 0)
(57.154546 1.1431636 0)
(57.207974 1.1153445 -1.6532775e-19)
(57.100614 1.0378362 1.5697952e-19)
(56.702664 0.85976868 6.1867954e-22)
(55.913118 0.45551611 6.5412746e-22)
(54.434999 0.14054631 3.2488252e-22)
(52.392767 -0.21683984 6.5822484e-21)
(35.39498 -3.7805302 -4.3232892e-20)
(36.5158 -3.72643 4.9002021e-20)
(37.679687 -3.6613408 -4.7500609e-20)
(38.874264 -3.578106 2.2328835e-25)
(40.087166 -3.4769649 3.8174665e-20)
(41.307167 -3.3582349 0)
(42.524918 -3.2219293 -1.6513409e-20)
(43.733374 -3.0677251 3.0293327e-20)
(44.927323 -2.8949467 -2.7568559e-20)
(46.102245 -2.7026012 -3.0643865e-24)
(47.253752 -2.4894539 -4.4697841e-20)
(48.376914 -2.2543229 -5.5040927e-25)
(49.465338 -1.9965691 1.7661785e-20)
(50.510923 -1.7166391 1.556063e-20)
(51.504069 -1.4165184 4.0873379e-20)
(52.434593 -1.100404 -4.7438788e-20)
(53.292676 -0.77479996 0)
(54.070165 -0.44853631 8.8254429e-21)
(54.761777 -0.13231033 -6.7909439e-20)
(55.365699 0.1623381 -5.1359189e-20)
(55.88356 0.42427719 -5.4439392e-21)
(56.319129 0.64412344 8.29801e-20)
(56.675766 0.81532752 -1.9562685e-21)
(56.953914 0.93197071 1.0563748e-19)
(57.143001 1.0053413 0)
(57.217028 0.99333598 1.673495e-19)
(57.127843 0.94445807 -1.5508936e-19)
(56.756592 0.79489828 -6.0264423e-22)
(55.984939 0.43195574 -6.2594951e-22)
(54.500847 0.16406071 3.0823503e-22)
(52.44255 -0.18637775 -1.9532333e-19)
(35.180722 -3.4360111 8.3393957e-20)
(36.247454 -3.3996144 -4.9447552e-21)
(37.366554 -3.3538648 -1.701188e-25)
(38.526817 -3.2920302 -3.711371e-20)
(39.715959 -3.2136297 0)
(40.92179 -3.1186284 8.2768117e-21)
(42.133217 -3.0070055 1.5379372e-20)
(43.341082 -2.8786032 2.8324972e-20)
(44.538214 -2.7330129 -5.1729236e-20)
(45.718741 -2.5695024 7.0319948e-20)
(46.877631 -2.3869793 -4.2200823e-20)
(48.009967 -2.1841967 1.8874068e-20)
(49.109912 -1.9601557 -1.6782776e-20)
(50.170228 -1.7145941 2.9673098e-20)
(51.182156 -1.4485914 -6.5209986e-20)
(52.136026 -1.1650912 4.5594887e-20)
(53.02213 -0.8692148 0)
(53.831793 -0.56842917 6.8469422e-20)
(54.558609 -0.27221924 1.1767347e-19)
(55.199151 0.0086995751 5.6606182e-20)
(55.753171 0.26344355 -5.3584839e-21)
(56.222682 0.48226419 -7.2954767e-20)
(56.609783 0.65780011 6.6073005e-20)
(56.913667 0.78288876 -1.1342329e-19)
(57.127185 0.86395667 2.9039412e-21)
(57.220832 0.86235556 -5.1149507e-24)
(57.150009 0.84392252 1.538247e-19)
(56.807072 0.72488196 1.1718111e-21)
(56.05533 0.40376729 -1.1953513e-21)
(54.565012 0.18339408 0)
(52.497341 -0.22783825 1.7767392e-20)
(35.050629 -3.1135168 -3.5428881e-20)
(36.059084 -3.0925929 7.19848e-20)
(37.127463 -3.0633737 -7.0571307e-20)
(38.246285 -3.0200953 3.4117677e-20)
(39.404069 -2.9617572 0)
(40.588407 -2.8878908 2.3030918e-20)
(41.787051 -2.7983066 -5.7292321e-20)
(42.989029 -2.6928932 1.9942661e-25)
(44.185156 -2.5714519 4.8488667e-20)
(45.367875 -2.4335455 -2.203734e-20)
(46.531078 -2.2783583 0)
(47.66945 -2.1047824 1.7844566e-20)
(48.77743 -1.9116933 -1.5912755e-20)
(49.848497 -1.6983742 0)
(50.874814 -1.4651186 4.9774333e-20)
(51.84744 -1.2137341 -4.36609e-20)
(52.757011 -0.94803264 0)
(53.594649 -0.67406459 -1.2397126e-19)
(54.35309 -0.39996705 -6.4214402e-20)
(55.027535 -0.13544641 0)
(55.616003 0.10914483 -5.2501014e-21)
(56.118722 0.3239978 4.4846837e-21)
(56.536441 0.50112632 -6.5230092e-20)
(56.867327 0.63269129 6.6016659e-21)
(57.106188 0.72110927 -2.8739547e-21)
(57.219004 0.74218084 -1.5591959e-19)
(57.166914 0.73686973 1.177326e-21)
(56.853228 0.65016348 1.1347134e-21)
(56.123451 0.37042978 2.9110498e-19)
(54.628415 0.20442432 1.0483546e-19)
(52.559296 -0.23808121 -8.7270577e-21)
(35.001743 -2.8122565 -6.7972348e-20)
(35.949754 -2.806721 0)
(36.962872 -2.7918774 0)
(38.033958 -2.764741 5.492132e-20)
(39.153044 -2.7241695 -6.0165854e-20)
(40.308306 -2.6692654 0)
(41.487094 -2.5995267 0)
(42.677174 -2.5147479 -1.2360373e-20)
(43.867556 -2.4148344 0)
(45.048853 -2.2996033 0)
(46.213489 -2.1685685 1.8733328e-20)
(47.355279 -2.0209071 5.0537507e-20)
(48.468512 -1.8555929 -3.0121304e-20)
(49.547116 -1.6717175 2.6783926e-20)
(50.584066 -1.4689983 -1.1844359e-20)
(51.571275 -1.2483587 -2.0847656e-20)
(52.499931 -1.0123831 -9.7982748e-25)
(53.361255 -0.76574049 7.1552031e-20)
(54.147474 -0.51517023 5.5146263e-20)
(54.852683 -0.26918903 -4.7594183e-20)
(55.473366 -0.037376163 8.6968953e-20)
(56.008056 0.17072867 -4.3888071e-21)
(56.456042 0.34680687 3.7689476e-21)
(56.814509 0.48285139 -3.2483276e-21)
(57.078564 0.57787556 0)
(57.211345 0.6190414 1.4976653e-19)
(57.179173 0.62238384 2.269793e-21)
(56.893803 0.57123952 -1.0957213e-21)
(56.187657 0.33181598 -2.7641259e-19)
(54.694232 0.22692655 -2.0369085e-19)
(52.632118 -0.24346346 1.3970525e-24)
(35.026168 -2.5421591 3.0457594e-25)
(35.914026 -2.5430666 -3.7052048e-21)
(36.869334 -2.54289 0)
(37.887971 -2.5296346 -5.0557512e-20)
(38.96215 -2.5043403 5.5603773e-20)
(40.081349 -2.4660796 0)
(41.233291 -2.4139848 -4.9638949e-20)
(42.405161 -2.3475931 5.7688377e-20)
(43.584615 -2.2667794 0)
(44.760538 -2.171522 0)
(45.923676 -2.0616394 -1.7617821e-20)
(47.066554 -1.9366565 -3.1762067e-20)
(48.182833 -1.7958017 0)
(49.26649 -1.6382012 0)
(50.311034 -1.463297 -4.4997916e-20)
(51.30922 -1.271306 0)
(52.252988 -1.0638064 -5.2316259e-20)
(53.133876 -0.84419402 1.5242823e-20)
(53.943936 -0.61781858 -1.0612115e-19)
(54.676498 -0.39192731 4.5975233e-20)
(55.326731 -0.17506522 -1.6375185e-19)
(55.891635 0.023781556 4.2738561e-21)
(56.368999 0.196309 5.8910112e-20)
(56.754965 0.33480542 1.0183052e-19)
(57.043851 0.43544163 8.6009584e-20)
(57.197806 0.49416813 -1.4667987e-19)
(57.185971 0.5097523 0)
(56.928075 0.48883529 0)
(56.247563 0.28764691 2.6254428e-19)
(54.764952 0.24999904 9.6703783e-20)
(52.7208 -0.24350604 7.0305637e-20)
(35.12095 -2.2936019 -5.8360846e-20)
(35.947491 -2.305118 1.1128731e-19)
(36.844501 -2.3104874 -1.0756025e-19)
(37.807259 -2.3118857 4.6569517e-20)
(38.831256 -2.3003152 -5.1404047e-20)
(39.90797 -2.2769273 1.3765699e-25)
(41.026212 -2.2408564 -1.1548356e-20)
(42.173302 -2.191309 3.2300124e-20)
(43.33613 -2.1279374 9.9444307e-21)
(44.502177 -2.0507238 -1.8214751e-20)
(45.660499 -1.9596935 -1.6558999e-20)
(46.802052 -1.8547018 4.486406e-20)
(47.919411 -1.7353207 3.0345057e-25)
(49.006134 -1.6008997 -2.3989592e-20)
(50.055994 -1.4508343 6.396537e-20)
(51.062303 -1.2849357 -3.7727799e-20)
(52.017731 -1.1040636 8.306578e-20)
(52.914413 -0.91049201 0)
(53.744483 -0.70829561 -4.9950388e-24)
(54.500839 -0.50339412 -3.3181101e-20)
(55.177646 -0.30313877 6.7093875e-20)
(55.770517 -0.11570217 0)
(56.275821 0.050988626 -5.3704544e-20)
(56.688586 0.18990719 -6.2029853e-21)
(57.001707 0.29499342 -1.7322679e-19)
(57.177888 0.36992336 4.542181e-21)
(57.187264 0.38599668 -4.2199153e-21)
(56.955051 0.40304549 1.3175109e-19)
(56.302305 0.23631649 -2.5099861e-19)
(54.843565 0.25415759 1.6357157e-19)
(52.808283 -0.15809756 -1.227462e-20)
(35.286734 -2.0682369 -5.0465389e-20)
(36.04933 -2.0883878 5.2996543e-20)
(36.885261 -2.104839 0)
(37.791593 -2.1110834 6.0619708e-21)
(38.761611 -2.1135869 0)
(39.790244 -2.1033576 0)
(40.868165 -2.0814276 1.0742346e-20)
(41.983604 -2.0470014 -3.0130832e-20)
(43.123414 -1.999436 6.5086183e-20)
(44.274206 -1.9385276 -2.5323364e-25)
(45.42359 -1.8643558 1.5545982e-20)
(46.560873 -1.7770181 2.8137041e-20)
(47.677206 -1.6764311 -5.0624526e-20)
(48.765261 -1.562267 -1.4766541e-24)
(49.818573 -1.4340627 0)
(50.830761 -1.2915405 0)
(51.795075 -1.135037 -4.7367352e-20)
(52.704277 -0.96597963 1.3880927e-20)
(53.550827 -0.78731465 6.0776033e-20)
(54.327453 -0.60365394 3.1812264e-20)
(55.027639 -0.42112157 0)
(55.645851 -0.24684763 -6.3988919e-20)
(56.177111 -0.088047079 6.9337852e-21)
(56.615328 0.049241016 -9.6307958e-20)
(56.951555 0.15767243 7.6236694e-20)
(57.15123 0.24870139 -1.4123122e-19)
(57.182624 0.27140141 1.9869749e-21)
(56.974601 0.31424514 -1.2236859e-19)
(56.351365 0.17639092 -1.8501022e-21)
(54.919443 0.21506802 -2.2336497e-19)
(52.91898 -0.27355077 0)
(35.509678 -1.8733432 -2.9779258e-21)