/*--------------------------------*- C++ -*----------------------------------*\
| =========                 |                                                 |
| \\      /  F ield         | OpenFOAM: The Open Source CFD Toolbox           |
|  \\    /   O peration     | Version:  2406                                  |
|   \\  /    A nd           | Website:  www.openfoam.com                      |
|    \\/     M anipulation  |                                                 |
\*---------------------------------------------------------------------------*/
FoamFile
{
    version     2.0;
    format      ascii;
    arch        "LSB;label=32;scalar=64";
    class       volScalarField;
    location    "0.013";
    object      omega;
}
// * * * * * * * * * * * * * * * * * * * * * * * * * * * * * * * * * * * * * //

dimensions      [0 0 -1 0 0 0 0];

internalField   nonuniform List<scalar> 
86779
(
20289.972
18405.525
16683.773
15139.467
13759.429
12525.116
11419.009
10425.651
9531.5725
8724.6488
7995.4459
7335.4534
6737.0942
6193.7467
5699.569
5249.4267
4838.799
4463.6985
4120.6156
3806.4599
3518.4944
3254.286
3011.6569
2788.6537
2583.5232
2394.682
2220.6491
2060.1978
1912.1805
1775.5508
1649.3601
1532.7469
1424.9268
1325.1837
1232.8608
1147.3521
1068.0941
994.56012
926.242
862.62614
803.26047
747.6622
695.29626
645.5773
597.87442
551.50091
505.80069
460.3427
415.33788
372.18287
333.88708
302.97911
279.67803
262.16418
248.31473
236.719
226.56063
217.41135
209.06033
201.40244
194.34654
187.82706
181.7979
176.21918
171.02449
166.19595
161.71024
157.50974
153.59887
149.96644
146.57147
143.42524
140.51481
137.81039
135.30325
132.9618
130.79074
128.76523
126.86429
125.08593
123.42979
121.8821
120.42768
119.08491
117.83137
116.64112
115.52754
114.4871
113.50169
112.57688
111.69754
110.87362
110.10363
109.37484
108.6837
108.03535
107.42985
106.8535
106.30628
105.79397
105.31238
104.85602
104.43282
104.03775
103.66843
103.32324
103.0007
102.70033
102.41699
102.14996
101.8994
101.66321
101.44063
101.23314
101.0396
100.85963
100.69416
100.54192
100.40389
100.2794
100.16999
100.0742
99.99422
99.926891
99.8809
99.837507
99.834998
18168.515
16544.091
15085.904
13773.706
12590.808
11522.541
10556.195
9680.7374
8886.4571
8164.7422
7508.2382
6910.4105
6365.4066
5868.0017
5413.5072
4997.7399
4616.9603
4267.8271
3947.3737
3652.9688
3382.2674
3133.1803
2903.8259
2692.5011
2497.6629
2317.9059
2151.9346
1998.6163
1856.9291
1725.9246
1604.739
1492.5837
1388.7379
1292.5398
1203.3796
1120.6916
1043.9463
972.64521
906.30879
844.42169
786.53861
732.21279
680.88421
631.95298
584.77392
538.65092
492.95691
447.39094
402.50524
360.3065
323.92841
295.39237
274.11334
257.97259
244.99363
233.92698
224.11991
215.23151
207.0966
199.62951
192.74039
186.37186
180.47913
175.02171
169.93231
165.19811
160.79772
156.67063
152.82878
149.2598
145.9207
142.8281
139.96834
137.30994
134.84853
132.55026
130.41657
128.42823
126.55851
124.80715
123.17773
121.65365
120.21912
118.89439
117.65559
116.47783
115.37705
114.34776
113.37226
112.45712
111.58758
110.773
110.01137
109.29059
108.60693
107.96547
107.3664
106.79615
106.25403
105.74606
105.26916
104.81631
104.39592
104.00401
103.6374
103.2946
102.97421
102.67584
102.39456
102.12927
101.88018
101.64546
101.42413
101.21766
101.02527
100.84627
100.68161
100.53005
100.39268
100.2688
100.15984
100.06454
99.984907
99.917894
99.872113
99.828776
99.826484
16301.044
14927.864
13687.393
12563.624
11542.789
10613.532
9766.3518
8993.0988
8286.6185
7640.5616
7049.3195
6507.8662
6011.6591
5556.5788
5138.8789
4755.1644
4402.362
4077.6966
3778.6794
3503.0833
3248.9104
3014.3673
2797.83
2597.819
2412.9838
2242.088
2083.9725
1937.6337
1802.1541
1676.6768
1560.4175
1452.6572
1352.735
1260.0413
1174.0111
1094.1172
1019.8626
950.77527
886.3993
826.22497
769.81807
716.74809
666.43493
618.27533
571.61404
525.76708
480.18075
434.76272
390.48015
349.7999
315.73965
289.55773
270.02822
254.96766
242.61768
231.93743
222.39796
213.71491
205.7525
198.43639
191.67657
185.42338
179.63285
174.26448
169.25138
164.58461
160.24437
156.16883
152.37535
148.84986
145.54874
142.49229
139.66387
137.02995
134.59629
132.32395
130.21143
128.24706
126.39534
124.65815
123.04376
121.53235
120.10618
118.7889
117.5571
116.3848
115.29016
114.26606
113.29516
112.38502
111.52119
110.71169
109.95464
109.2387
108.55951
107.92204
107.32682
106.76053
106.22137
105.71566
105.2417
104.79059
104.37129
103.98107
103.61586
103.27429
102.95495
102.65765
102.37766
102.11338
101.86511
101.63129
101.41067
101.20472
101.01303
100.83462
100.6704
100.5192
100.3822
100.25869
100.14996
100.05497
99.975541
99.908717
99.863088
99.819863
99.817595
14647.455
13492.456
12438.09
11474.285
10591.497
9781.6632
9037.9501
8354.4349
7725.8755
7147.5764
6615.3108
6125.2395
5673.8501
5257.9141
4874.4568
4520.7441
4194.2701
3892.7486
3614.107
3356.4731
3118.1547
2897.6196
2693.4721
2504.4337
2329.3301
2167.0808
2016.6355
1877.1347
1747.7495
1627.7086
1516.3031
1412.8797
1316.8347
1227.6082
1144.6779
1067.5534
995.76844
928.87551
866.43923
807.96074
753.01744
701.18212
651.85754
604.44282
558.2773
512.7067
467.28532
422.18349
378.80603
339.93813
308.25919
284.23909
266.21071
252.05341
240.23545
229.89355
220.59747
212.1059
204.30774
197.13753
190.50312
184.36359
178.67486
173.39591
168.46005
163.86239
159.58479
155.56312
151.82112
148.34256
145.08261
142.06618
139.27391
136.66992
134.26937
132.02852
129.94151
128.00493
126.17576
124.4566
122.86077
121.36612
119.95242
118.64613
117.42406
116.25991
115.17416
114.15762
113.19352
112.29037
111.43427
110.63172
109.88081
109.17104
108.49775
107.86568
107.27539
106.71402
106.17899
105.67658
105.20632
104.75792
104.34053
103.95264
103.58946
103.24969
102.93189
102.63605
102.35769
102.09475
101.84763
101.61498
101.39537
101.19018
100.9994
100.82179
100.6582
100.50753
100.37104
100.24804
100.13966
100.04509
99.965938
99.899372
99.853931
99.810794
99.808632
13182.716
12211.152
11314.832
10487.779
9723.8416
9017.6442
8364.4951
7760.2291
7201.0892
6683.6529
6204.783
5761.5837
5351.3666
4971.6258
4620.0209
4294.372
3992.6559
3713.0056
3453.7098
3213.2065
2990.0717
2783.005
2590.8137
2412.3988
2246.7463
2092.9008
1949.9525
1817.146
1693.7366
1579.0359
1472.4064
1373.2571
1281.0383
1195.2374
1115.3727
1040.9883
971.64694
906.92399
846.40065
789.59295
736.08972
685.45573
637.07812
590.36067
544.64325
499.31986
454.09192
409.45144
367.25596
330.46226
301.21823
279.23317
262.55476
249.20165
237.86691
227.84413
218.78633
210.48658
202.85552
195.83456
189.32802
183.30511
177.72069
172.53313
167.67633
163.14955
158.93634
154.97004
151.28123
147.85086
144.63306
141.65768
138.90185
136.32756
133.96013
131.75055
129.6881
127.77833
125.9714
124.26941
122.6908
121.21208
119.80978
118.5131
117.29995
116.14329
115.06571
114.05609
113.09828
112.20169
111.35308
110.55696
109.81171
109.10773
108.43998
107.81302
107.22726
106.67051
106.13938
105.64003
105.17317
104.72725
104.31157
103.92573
103.56437
103.22625
102.9098
102.61524
102.33838
102.07665
101.83057
101.59899
101.38031
101.1758
100.98586
100.809
100.64598
100.4958
100.35977
100.23725
100.1292
100.03501
99.95613
99.889807
99.844551
99.801513
99.799419
11883.51
11064.916
10302.089
9591.8487
8930.4581
8314.5043
7740.9025
7206.8285
6709.6683
6246.9868
5816.5041
5416.0757
5043.6759
4697.3862
4375.389
4075.9672
3797.5064
3538.4982
3297.5438
3073.352
2864.7337
2670.5937
2489.9196
2321.772
2165.2771
2019.6003
1883.9677
1757.7001
1640.1412
1530.6788
1428.7425
1333.7996
1245.3516
1162.9303
1086.0924
1014.4146
947.48618
884.90422
826.2602
771.09112
718.99628
669.51828
622.03374
575.95174
530.6223
485.51335
440.52575
396.54037
355.85298
321.39416
294.60626
274.51791
259.04555
246.40614
235.51007
225.78769
216.9614
208.85108
201.38686
194.51519
188.13574
182.22956
176.74938
171.65291
166.87505
162.41931
158.27092
154.3603
150.72541
147.34383
144.16858
141.23493
138.51624
135.97248
133.639
131.46159
129.42393
127.54078
125.75714
124.07292
122.51137
121.04923
119.65898
118.37205
117.16819
116.01961
114.95053
113.94823
112.99722
112.10763
111.2671
110.47774
109.73842
109.04051
108.37865
107.75716
107.17612
106.62417
106.09726
105.6013
105.13794
104.69478
104.28105
103.89736
103.53793
103.20162
102.88663
102.5934
102.31811
102.05765
101.81269
101.58224
101.36457
101.16081
100.97175
100.79571
100.6333
100.48366
100.34814
100.22614
100.11847
100.02468
99.946099
99.880042
99.834986
99.792041
99.790031
10728.521
10038.076
9387.5726
8776.9606
8204.0328
7666.7076
7163.0394
6691.1879
6249.399
5835.9937
5449.3607
5087.9494
4750.2655
4434.8673
4140.3662
3865.43
3608.7881
3369.2377
3145.6485
2936.9645
2742.2029
2560.4489
2390.8498
2232.6084
2084.9776
1947.2359
1818.7176
1698.8273
1586.9874
1482.6563
1385.3253
1294.5166
1209.7795
1130.6875
1056.8334
987.8242
923.27386
862.79982
805.99433
752.42567
701.7007
653.32124
606.66611
561.14926
516.14614
471.23525
426.58369
383.52291
344.71116
312.80448
288.42729
270.07032
255.66286
243.65585
233.16048
223.72324
215.12332
207.20098
199.90408
193.18224
186.92969
181.14106
175.76567
170.76069
166.0624
161.67864
157.59621
153.74225
150.16267
146.83098
143.69916
140.80829
138.12756
135.61527
133.31632
131.17165
129.15889
127.30169
125.54209
123.8761
122.33091
120.88541
119.50738
118.22972
117.0352
115.895
114.83427
113.83928
112.8953
112.01287
111.18068
110.39805
109.66462
108.97287
108.31696
107.701
107.12466
106.57747
106.05489
105.56243
105.10247
104.66211
104.25045
103.86885
103.51127
103.1768
102.86329
102.57135
102.29757
102.03836
101.79452
101.5652
101.34854
101.14555
100.95737
100.78214
100.62035
100.47126
100.33626
100.21478
100.10751
100.01413
99.93585
99.870068
99.825218
99.782368
99.780432
9699.7397
9116.5034
8560.666
8035.0671
7538.4559
7069.6312
6627.4328
6210.7239
5818.3825
5449.2989
5102.3754
4776.5263
4470.679
4183.776
3914.7785
3662.672
3426.4734
3205.2378
2998.0645
2804.101
2622.5436
2452.6366
2293.6684
2144.968
2005.9017
1875.8506
1754.2426
1640.5622
1534.3041
1434.9912
1342.1725
1255.4208
1174.3301
1098.5127
1027.5947
961.21127
898.99895
840.59492
785.58239
733.56843
684.1656
636.81578
590.91876
545.89226
501.16124
456.46503
412.3152
370.52838
333.96719
304.75061
282.66933
265.86129
252.38602
240.94052
230.81421
221.64973
213.27194
205.53645
198.40741
191.83559
185.70935
180.03879
174.7684
169.85496
165.23665
160.92562
156.91011
153.1136
149.59049
146.30958
143.22186
140.37452
137.73245
135.25266
132.98858
130.87707
128.88955
127.05743
125.32265
123.67565
122.14611
120.71729
119.35194
118.08324
116.89823
115.76699
114.71448
113.72694
112.79043
111.91545
111.09198
110.31613
109.58869
108.9033
108.25352
107.64325
107.07167
106.5293
106.01124
105.5225
105.06591
104.6285
104.21911
103.8396
103.48388
103.15132
102.83936
102.54871
102.27645
102.0185
101.77582
101.54763
101.33203
101.12985
100.94256
100.76818
100.60703
100.45853
100.32407
100.20314
100.09629
100.00333
99.925377
99.859886
99.81525
99.772496
99.770637
8781.7272
8287.7475
7812.0395
7359.116
6928.3802
6519.2251
6131.0301
5763.1535
5414.9299
5085.6707
4774.6665
4481.1901
4204.4999
3943.8441
3698.4665
3467.6129
3250.5381
3046.5132
2854.8325
2674.8178
2505.8208
2347.2246
2198.4418
2058.9134
1928.1064
1805.4939
1690.5869
1582.9432
1482.1236
1387.7105
1299.3055
1216.5284
1139.0144
1066.4118
998.37743
934.57168
874.65157
818.27104
765.00744
714.49548
666.34662
619.95226
574.73534
530.12375
485.62793
441.21373
397.81823
357.72248
323.75048
297.2622
277.30458
261.8585
249.1953
238.25116
228.46816
219.56658
211.40737
203.85794
196.89752
190.47566
184.47505
178.92302
173.75774
168.93591
164.39818
160.16083
156.21331
152.4752
149.0099
145.78076
142.73793
139.93495
137.33229
134.88622
132.65709
130.57906
128.61743
126.80938
125.09999
123.47293
121.95826
120.54593
119.19372
117.9336
116.75824
115.6366
114.59207
113.61206
112.68351
111.81624
111.00175
110.2327
109.5113
108.83246
108.18895
107.58445
107.01767
106.48014
105.96675
105.48192
105.02862
104.59426
104.18732
103.80989
103.45598
103.12538
102.81504
102.52566
102.25488
101.99819
101.75669
101.52963
101.31511
101.11378
100.92739
100.75387
100.59337
100.4455
100.31159
100.19123
100.08484
99.992297
99.914682
99.849494
99.805079
99.762423
99.760638
7960.8021
7541.3273
7133.5733
6742.8574
6369.0144
6011.8324
5671.0561
5346.3874
5037.4847
4743.9653
4465.4084
4201.3586
3951.3302
3714.8121
3491.2737
3280.171
3080.9542
2893.0739
2715.9881
2549.1668
2392.0957
2244.278
2105.2353
1974.5069
1851.6494
1736.2177
1627.7967
1526.0107
1430.4807
1340.8429
1256.7476
1177.8572
1103.8452
1034.3924
969.18375
907.90223
850.22273
795.81116
744.24447
695.17585
648.20146
602.67962
558.05798
513.79126
469.52471
425.53182
383.2416
345.29235
314.16668
290.34039
272.29462
258.02949
246.0731
235.58038
226.12009
217.47371
209.52987
202.16588
195.37508
189.10281
183.227
177.79382
172.73354
168.00334
163.54683
159.38422
155.50575
151.82702
148.42086
145.24446
142.24734
139.48937
136.92681
134.51578
132.32136
130.27693
128.34223
126.55712
124.87341
123.26739
121.76688
120.37055
119.03206
117.78023
116.61462
115.50337
114.46654
113.49418
112.57418
111.71489
110.90958
110.14738
109.4321
108.76005
108.12298
107.52432
106.96239
106.42977
105.9212
105.44048
104.99042
104.55923
104.15495
103.7796
103.42746
103.09886
102.79022
102.50212
102.23279
101.97737
101.73706
101.51115
101.29773
101.09731
100.91182
100.73918
100.57935
100.43214
100.29882
100.17903
100.07313
99.981018
99.903762
99.838891
99.794703
99.752149
99.750437
7225.2018
6868.1294
6518.0954
6180.6867
5856.0054
5544.0935
5244.9373
4958.471
4684.578
4423.0934
4173.8067
3936.4651
3710.7775
3496.4195
3293.0378
3100.2571
2917.6855
2744.9214
2581.5589
2427.193
2281.4235
2143.8574
2014.1107
1891.8089
1776.5876
1668.0739
1565.9188
1469.806
1379.4109
1294.4185
1214.523
1139.4262
1068.8356
1002.4621
940.01567
881.19908
825.70264
773.19557
723.2631
675.57226
629.68402
584.94249
540.82723
496.8504
452.85737
409.52081
368.78388
333.42678
305.28511
283.96021
267.59459
254.34333
243.00413
232.9223
223.76852
215.37151
207.63985
200.46068
193.84079
187.71739
181.96555
176.65127
171.69574
167.05716
162.68269
158.59598
154.78763
151.1694
147.82374
144.70102
141.75051
139.03817
136.51635
134.14179
131.98152
129.97069
128.06437
126.30109
124.64291
123.05915
121.57222
120.19111
118.86697
117.62328
116.46742
115.36741
114.33803
113.37344
112.46267
111.61158
110.81556
110.0603
109.35124
108.68622
108.05577
107.46295
106.90591
106.37829
105.87469
105.39822
104.95137
104.52347
104.12203
103.74879
103.39836
103.07178
102.76496
102.47814
102.21019
101.95606
101.71695
101.4922
101.2799
101.08045
100.89588
100.72412
100.56497
100.41847
100.28575
100.16656
100.06118
99.969496
99.892619
99.828078
99.784119
99.741672
99.740034
6564.7505
6260.1218
5959.2057
5667.5353
5385.3665
5112.8958
4850.2628
4597.5541
4354.805
4122.002
3899.0844
3685.9477
3482.4462
3288.3976
3103.5867
2927.7707
2760.6846
2602.0465
2451.5627
2308.9326
2173.8522
2046.0172
1925.1251
1810.8762
1702.9752
1601.113
1504.999
1414.3699
1328.9495
1248.467
1172.6561
1101.2538
1033.9986
970.62788
910.8737
854.45608
801.07883
750.39929
702.0285
655.64359
610.73983
566.67909
522.98423
479.27243
435.67316
393.34507
354.68306
322.29205
297.13175
278.0757
263.15714
250.77174
239.97554
230.27237
221.41251
213.26073
205.73793
198.74274
192.29526
186.31969
180.69108
175.49547
170.64424
166.09725
161.80587
157.79631
154.05911
150.50265
147.21881
144.15066
141.24779
138.58153
136.10101
133.76444
131.63748
129.66005
127.78391
126.04151
124.40822
122.84789
121.37423
120.00727
118.69812
117.46261
116.31641
115.2285
114.2064
113.24976
112.34896
111.50626
110.71951
109.97136
109.26869
108.6109
107.98724
107.40026
106.84816
106.32565
105.82716
105.35509
104.91143
104.48696
104.08853
103.7174
103.36867
103.04413
102.73921
102.45369
102.18707
101.93424
101.69635
101.47275
101.2616
101.06318
100.87953
100.70868
100.55023
100.40447
100.27238
100.1538
100.04898
99.95773
99.881251
99.817053
99.773325
99.730991
99.729428
5970.6093
5710.2118
5451.1835
5198.8156
4953.4439
4715.3512
4484.7688
4261.8786
4046.8149
3839.6657
3640.4749
3449.2436
3265.9328
3090.4664
2922.7345
2762.5975
2609.8904
2464.4273
2326.0059
2194.4117
2069.421
1950.8046
1838.3296
1731.7609
1630.863
1535.383
1445.0813
1359.7415
1279.1307
1203.0173
1131.1702
1063.3577
999.34565
938.89464
881.75551
827.66285
776.33298
727.39376
680.50288
635.33887
591.30341
547.82214
504.4761
461.05732
418.07939
377.2379
341.19324
312.00862
289.68941
272.62696
258.93583
247.28993
236.97695
227.6273
219.05153
211.14245
203.82509
197.01256
190.73891
184.90983
179.40408
174.32647
169.57893
165.12358
160.91664
156.98547
153.32041
149.82724
146.6064
143.59362
140.73959
138.11971
135.68097
133.38399
131.2893
129.3449
127.50096
125.77878
124.16921
122.63329
121.17294
119.81883
118.52529
117.29827
116.16153
115.08647
114.07167
113.12324
112.23314
111.39896
110.62133
109.8806
109.18452
108.53415
107.91745
107.33626
106.78916
106.2719
105.77865
105.31106
104.87062
104.44974
104.05442
103.68545
103.33841
103.0159
102.71297
102.42879
102.16343
101.91192
101.67526
101.45282
101.24284
101.0455
100.8628
100.69285
100.53512
100.39014
100.25872
100.14076
100.03653
99.945721
99.869659
99.805815
99.762319
99.720107
99.71862
5435.1408
5212.1677
4988.9349
4770.3894
4556.8987
4348.7868
4146.3334
3949.7756
3759.3082
3575.0852
3397.22
3225.7873
3060.8241
2902.3321
2750.2803
2604.6076
2465.2269
2332.0281
2204.8824
2083.6451
1968.1593
1858.2584
1753.7682
1654.509
1560.297
1470.9276
1386.2064
1305.9577
1229.9866
1158.0962
1090.0865
1025.7532
964.88571
907.26427
852.65492
800.80369
751.43386
704.15115
658.64897
614.58535
571.30098
528.30352
485.26669
442.25347
400.26319
361.49419
328.54988
302.63509
282.90465
267.54744
254.88766
243.87702
234.00032
224.98487
216.68532
209.01779
201.90273
195.27096
189.17177
183.48768
178.10507
173.14433
168.49975
164.13621
160.01537
156.16375
152.5717
149.14376
145.9868
143.03006
140.22634
137.65293
135.25633
133.00067
130.93716
129.02517
127.21538
125.51317
123.92576
122.41483
120.96822
119.62565
118.34819
117.13026
116.00269
114.94106
113.93381
112.99394
112.11524
111.28965
110.5209
109.78801
109.0988
108.45594
107.84636
107.27092
106.72888
106.21702
105.72915
105.26609
104.82894
104.41183
104.01967
103.65288
103.3076
102.98711
102.68624
102.40342
102.13927
101.88911
101.65366
101.4324
101.22361
101.02741
100.84567
100.67663
100.51964
100.37547
100.24475
100.12743
100.02383
99.93347
99.857845
99.794365
99.751096
99.709017
99.70761
4951.7283
4760.5138
4567.9292
4378.5307
4192.6877
4010.7351
3832.9726
3659.6641
3491.0381
3327.2877
3168.571
3015.0112
2866.6978
2723.6879
2586.0077
2453.6553
2326.6027
2204.7989
2088.1727
1976.636
1870.086
1768.4079
1671.4769
1579.16
1491.3172
1407.7862
1328.4109
1253.0514
1181.5459
1113.7275
1049.4232
988.45227
930.62391
875.73424
823.56098
773.8583
726.34593
680.62231
636.40842
593.31033
550.65688
508.06131
465.35414
422.98394
382.50477
346.44215
316.93147
294.16415
276.6992
262.7705
250.9748
240.51612
231.03984
222.34387
214.31388
206.88757
199.97258
193.51951
187.59348
182.05274
176.79454
171.94908
167.40669
163.13535
159.10258
155.33143
151.81318
148.45295
145.36031
142.4601
139.7085
137.18141
134.82723
132.6147
130.58141
128.70092
126.92682
125.24489
123.67782
122.19187
120.75986
119.4277
118.16654
116.95857
115.8399
114.79199
113.79282
112.86203
111.99526
111.17829
110.41811
109.69366
109.01165
108.37629
107.77396
107.20424
106.66735
106.16106
105.67865
105.22015
104.7864
104.37325
103.98424
103.61968
103.27627
102.95776
102.65899
102.37758
102.11457
101.8658
101.63157
101.41149
101.20391
101.00891
100.82813
100.66002
100.5038
100.36047
100.23048
100.11382
100.01088
99.92098
99.845808
99.782702
99.739657
99.697722
99.696397
4514.625
4350.4318
4184.1341
4019.8852
3858.0384
3698.9214
3542.8346
3390.0499
3240.8104
3095.3295
2953.7907
2816.3475
2683.1238
2554.2144
2429.6862
2309.5798
2193.9113
2082.6747
1975.8438
1873.3748
1775.2087
1681.2728
1591.4832
1505.7457
1423.9575
1345.992
1271.7264
1201.0511
1133.8328
1069.9305
1009.194
951.46212
896.55994
844.2956
794.45512
746.79833
701.02124
656.74354
613.70991
571.43146
529.29423
487.05502
444.79836
403.47553
365.17176
332.39386
306.42969
286.53115
270.98314
258.23442
247.16517
237.19417
228.09171
219.70395
211.93766
204.75164
198.03626
191.76101
186.00344
180.60397
175.47272
170.7408
166.29987
162.12146
158.17888
154.48883
151.04498
147.75571
144.72717
141.88379
139.18656
136.70539
134.39379
132.22626
130.22254
128.37235
126.63462
124.97386
123.42546
121.96366
120.54746
119.2251
117.98004
116.78318
115.67327
114.63895
113.64872
112.72766
111.87315
111.06481
110.31293
109.59763
108.92316
108.29519
107.70021
107.13621
106.60461
106.10399
105.62714
105.1732
104.74302
104.33405
103.94809
103.5858
103.24444
102.92788
102.63121
102.35124
102.08936
101.84199
101.60898
101.39008
101.18373
100.98998
100.81019
100.64301
100.4876
100.34514
100.21591
100.09993
99.997672
99.908253
99.83355
99.770827
99.727998
99.686221
99.68498
4118.8168
3977.6675
3833.951
3691.4269
3550.4231
3411.2488
3274.1932
3139.5239
3007.4852
2878.2975
2752.1562
2629.2312
2509.667
2393.5825
2281.0718
2172.2054
2067.0312
1965.5764
1867.849
1773.8398
1683.5238
1596.8625
1513.805
1434.2894
1358.2437
1285.5716
1216.1781
1149.9793
1086.8661
1026.719
969.4068
914.78353
862.68611
812.93046
765.3077
719.58164
675.39857
632.44482
590.46815
548.85278
507.14389
465.29092
423.75831
384.07929
348.68153
319.58594
297.03856
279.63228
265.6679
253.88543
243.43197
233.90148
225.15381
217.06558
209.55781
202.60818
196.09453
189.99994
184.40145
179.13954
174.13947
169.51978
165.17946
161.09516
157.24491
153.63635
150.26725
147.05305
144.08765
141.30123
138.661
136.22517
133.95621
131.83544
129.86111
128.03975
126.33789
124.69969
123.16883
121.72951
120.33054
119.01806
117.78845
116.60402
115.50298
114.4817
113.50151
112.591
111.74879
110.94914
110.2054
109.50004
108.83341
108.21261
107.62505
107.06687
106.54072
106.04584
105.57461
105.12523
104.69883
104.29421
103.9112
103.55121
103.21214
102.89749
102.60288
102.3244
102.06363
101.81769
101.58588
101.36818
101.1631
100.97063
100.79183
100.6256
100.47104
100.32947
100.20103
100.08576
99.984212
99.895293
99.821069
99.758739
99.716121
99.674513
99.67336
3759.9057
3638.4498
3514.159
3390.4214
3267.5346
3145.7837
3025.4399
2906.7583
2789.9761
2675.3112
2562.9613
2453.1025
2345.8895
2241.4548
2139.9096
2041.3438
1945.8275
1853.4114
1764.1287
1677.9962
1595.0157
1515.1753
1438.4505
1364.8056
1294.1938
1226.5439
1161.7841
1099.8518
1040.6576
984.0998
930.06179
878.40893
828.98526
781.61002
736.07585
692.13942
649.4156
607.65823
566.56341
525.47692
484.16859
442.86186
402.53273
365.26204
333.42871
308.13243
288.6662
273.34748
260.67639
249.6777
239.75199
230.63121
222.22558
214.43
207.17643
200.45387
194.1471
188.24176
182.78776
177.65694
172.79476
168.28677
164.04537
160.05695
156.3013
152.77458
149.4802
146.34596
143.44211
140.71262
138.13219
135.74115
133.51475
131.44205
129.49757
127.70347
126.0356
124.42163
122.90811
121.48884
120.1085
118.80685
117.59154
116.42094
115.32924
114.32007
113.35124
112.45218
111.62201
110.83122
110.09568
109.40099
108.74247
108.12854
107.54845
106.99628
106.47576
105.98659
105.52102
105.07625
104.65386
104.25374
103.87355
103.5159
103.1794
102.86662
102.57399
102.29703
102.03741
101.79289
101.56229
101.34578
101.142
100.95086
100.77306
100.60779
100.45414
100.31347
100.18585
100.07132
99.970496
99.882105
99.808366
99.746437
99.704026
99.662597
99.661533
3434.0205
3329.4277
3221.8705
3114.3947
3007.2662
2900.7438
2795.0772
2690.5046
2587.2505
2485.5243
2385.519
2287.4096
2191.3533
2097.4886
2005.9353
1916.7952
1830.1523
1746.0735
1664.6099
1585.7972
1509.6572
1436.1986
1365.4175
1297.2988
1231.8164
1168.9191
1108.5541
1050.6757
995.21047
942.07043
891.14954
842.31996
795.42807
750.29213
706.70453
664.39085
622.97475
582.279
541.88656
501.23686
460.40057
420.00018
381.58489
347.54764
319.69795
298.01181
281.16671
267.5635
255.94337
245.56805
236.10481
227.38005
219.30796
211.79915
204.79664
198.28621
192.19402
186.48921
181.16112
176.15436
171.44007
167.04262
162.89668
159.00674
155.34888
151.90462
148.68442
145.63513
142.79113
140.11847
137.60037
135.25386
133.06977
131.04548
129.13204
127.36382
125.7268
124.13864
122.64347
121.24143
119.88081
118.59161
117.38913
116.2338
115.15223
114.15402
113.19798
112.31127
111.49263
110.71106
109.98403
109.30057
108.6503
108.04296
107.47037
106.92451
106.4098
105.92622
105.46635
105.02628
104.60814
104.21257
103.83512
103.47989
103.14622
102.83528
102.5445
102.26913
102.0107
101.76761
101.53821
101.3229
101.12045
100.93065
100.75387
100.58958
100.4369
100.29714
100.17036
100.05661
99.956521
99.868693
99.795439
99.733922
99.691715
99.650474
99.649499
3137.7491
3047.6205
2954.4948
2861.1073
2767.6937
2674.4863
2581.7121
2489.5902
2398.3291
2308.1257
2219.1635
2131.6113
2045.6233
1961.3377
1878.8775
1798.3498
1719.8466
1643.4448
1569.2074
1497.1833
1427.4089
1359.9079
1294.6925
1231.7632
1171.1099
1112.6974
1056.4878
1002.4482
950.51745
900.61725
852.64811
806.48427
761.96898
718.91528
677.11653
636.23165
595.9653
556.18741
516.33294
476.11935
436.00238
397.13119
361.51839
331.40782
307.60086
289.09522
274.38872
262.17793
251.39308
241.51617
232.48167
224.15093
216.40342
209.17523
202.42172
196.10909
190.23496
184.73532
179.51872
174.63608
170.07911
165.78649
161.73249
157.94436
154.38864
151.02803
147.88132
144.92041
142.13534
139.5196
137.06559
134.76393
132.62165
130.64459
128.76405
127.02101
125.41084
123.84954
122.37488
120.98748
119.64704
118.37225
117.18115
116.04241
114.972
113.98367
113.04185
112.16825
111.36048
110.58871
109.8708
109.1988
108.55683
107.95592
107.39085
106.85167
106.34288
105.86472
105.41058
104.97537
104.56169
104.17062
103.79594
103.4432
103.1126
102.80347
102.51442
102.2407
101.98353
101.74183
101.51363
101.29954
101.09844
100.91001
100.73427
100.57098
100.41932
100.28048
100.15458
100.04162
99.942287
99.855058
99.782286
99.721193
99.67919
99.638142
99.637254
2868.0745
2790.3699
2709.7021
2628.5289
2547.0581
2465.4969
2384.0498
2302.9156
2222.2853
2142.3404
2063.2519
1985.179
1908.2687
1832.655
1758.4593
1685.7894
1614.7407
1545.3955
1477.8235
1412.0827
1348.2189
1286.2669
1226.2501
1168.1811
1112.0612
1057.8675
1005.5731
955.15424
906.55807
859.71222
814.5196
770.85169
728.54266
687.39499
647.19191
607.55263
568.29219
529.23677
489.82907
450.22588
411.34131
374.88916
342.9743
317.14266
297.06792
281.19808
268.27566
257.04309
246.83136
237.52185
228.93051
220.95491
213.51445
206.5594
200.05167
193.9615
188.26719
182.91287
177.86095
173.13348
168.71245
164.51536
160.55648
156.87179
153.42044
150.14617
147.07336
144.20028
141.47509
138.91714
136.5278
134.27193
132.1708
130.23778
128.39247
126.67512
125.08761
123.55334
122.10199
120.72759
119.40696
118.14833
116.96766
115.84661
114.78844
113.8093
112.88308
112.02303
111.22547
110.46437
109.75632
109.09559
108.46193
107.86748
107.30997
106.77787
106.27502
105.80207
105.35373
104.92357
104.51451
104.12779
103.75603
103.4059
103.07851
102.77118
102.48374
102.21176
101.95591
101.71556
101.48858
101.27571
101.07599
100.88892
100.71425
100.55199
100.40141
100.26351
100.13849
100.02638
99.927793
99.841204
99.768907
99.708248
99.666455
99.625601
99.624794
2622.3165
2555.296
2485.3911
2414.8145
2343.7495
2272.3798
2200.8878
2129.4519
2058.2444
1987.4303
1917.1661
1847.5987
1778.8656
1711.0938
1644.3995
1578.8885
1514.6555
1451.7845
1390.3487
1330.4107
1272.0226
1215.2261
1160.0523
1106.5218
1054.6441
1004.4048
955.78406
908.76377
863.2955
819.30896
776.70546
735.34912
695.06004
655.62713
616.79311
578.20105
539.81363
501.32487
462.43531
423.86977
387.04787
354.03971
326.4672
304.81512
287.89119
274.20529
262.51054
251.96873
242.41566
233.60565
225.41703
217.78004
210.63829
203.95024
197.68152
191.80322
186.29085
181.10303
176.21032
171.61514
167.29751
163.22153
159.39255
155.79568
152.44166
149.25942
146.26382
143.47195
140.81049
138.31258
135.98669
133.77829
131.71779
129.82351
128.01561
126.32599
124.75754
123.24959
121.82397
120.46246
119.16048
117.91917
116.74886
115.64622
114.6013
113.63135
112.72194
111.87545
111.08762
110.33834
109.64087
108.99078
108.36548
107.77783
107.22785
106.70316
106.20618
105.73831
105.29582
104.87096
104.4666
104.08397
103.71545
103.36805
103.04388
102.73839
102.45248
102.18232
101.92787
101.6888
101.46305
101.25141
101.0531
100.86738
100.69384
100.53262
100.38317
100.24622
100.12212
100.01087
99.91304
99.827129
99.7553
99.695087
99.653511
99.612849
99.612118
2398.0747
2340.256
2279.6593
2218.2852
2156.2949
2093.8501
2031.112
1968.2387
1905.3838
1842.6948
1780.3129
1718.3719
1656.9979
1596.3088
1536.4141
1477.4146
1419.4022
1362.4597
1306.6608
1252.0697
1198.7416
1146.7219
1096.0463
1046.7399
998.81718
952.26852
907.07767
863.22819
820.67223
779.33761
739.12011
699.87253
661.39765
623.4741
585.74815
548.02434
510.41373
472.44366
434.41896
397.66726
363.98527
335.28575
312.24563
294.2651
279.90002
267.72655
256.87787
247.09976
238.10832
229.74576
221.93456
214.62545
207.77536
201.34834
195.31296
189.64159
184.30891
179.28351
174.54253
170.08217
165.88713
161.93053
158.20898
154.71907
151.43944
148.36134
145.4646
142.73304
140.14293
137.70805
135.44075
133.28282
131.26323
129.40117
127.63189
125.97302
124.42138
122.93866
121.53951
120.19236
118.90766
117.68411
116.52511
115.44095
114.41031
113.45041
112.55867
111.72535
110.94712
110.21097
109.52456
108.88413
108.26745
107.68719
107.14466
106.62752
106.13629
105.67352
105.23693
104.81758
104.4179
104.03909
103.67424
103.32973
103.00864
102.70507
102.42067
102.15244
101.89939
101.66154
101.43705
101.22667
101.02976
100.84539
100.67303
100.51289
100.36461
100.22863
100.10546
99.9951
99.898029
99.812832
99.741467
99.681707
99.640362
99.599886
99.59922
2193.2292
2143.3338
2090.7975
2037.4239
1983.3554
1928.7324
1873.6957
1818.3839
1762.932
1707.4705
1652.1252
1597.016
1542.2571
1487.9566
1434.2156
1381.1287
1328.7827
1277.2574
1226.6245
1176.9476