/*--------------------------------*- C++ -*----------------------------------*\
| =========                 |                                                 |
| \\      /  F ield         | OpenFOAM: The Open Source CFD Toolbox           |
|  \\    /   O peration     | Version:  2406                                  |
|   \\  /    A nd           | Website:  www.openfoam.com                      |
|    \\/     M anipulation  |                                                 |
\*---------------------------------------------------------------------------*/
FoamFile
{
    version     2.0;
    format      ascii;
    arch        "LSB;label=32;scalar=64";
    class       volScalarField;
    location    "0.01";
    object      k;
}
// * * * * * * * * * * * * * * * * * * * * * * * * * * * * * * * * * * * * * //

dimensions      [0 2 -2 0 0 0 0];

internalField   nonuniform List<scalar> 
8951
(
244.05931
242.15318
240.10766
237.90907
235.54235
232.99606
230.26386
227.3428
224.23288
220.93796
217.46702
213.83001
210.03621
206.09773
202.03252
197.85562
193.57613
189.20449
184.75342
180.23583
175.66534
171.05685
166.41884
161.75363
157.07612
152.40294
147.74206
143.10657
138.51677
133.99091
129.5497
125.21228
121.0016
116.94266
113.06408
109.39601
105.97004
102.81866
99.972552
97.457727
95.288728
93.473461
92.003444
90.849063
89.975084
89.326255
88.84053
88.465587
88.148158
87.839041
87.489504
87.059564
86.511299
85.810229
84.933242
83.876719
82.647631
81.236611
79.613883
77.767259
75.705283
73.44518
71.009039
68.423624
65.720963
62.938953
60.121727
57.320047
54.591932
52.008376
49.661161
47.655427
46.080315
44.981614
44.357378
44.14684
44.190629
44.508102
45.268415
46.239199
47.278973
48.323122
49.315772
50.204547
50.945877
51.501308
51.837287
51.94013
51.867882
51.470525
50.572453
49.404867
48.008072
46.442736
44.8073
43.220041
41.798487
40.64149
39.813592
39.337384
39.1825
39.222932
39.549251
40.429692
41.494515
42.597906
43.686964
44.702673
45.586853
46.286833
46.761376
46.992169
47.022135
46.910121
46.471439
45.765519
45.023229
44.306606
43.681522
43.208777
42.936677
42.878418
42.981839
43.387456
44.041661
44.742505
45.43732
46.070632
46.591701
46.963891
47.173122
47.238566
47.225119
47.107315
46.756388
46.339349
45.955409
45.634361
45.402674
45.275082
45.250526
45.307352
45.448856
45.5982
45.713229
45.774299
45.779799
45.747102
45.648755
45.448715
45.182028
44.894181
44.604854
44.342385
44.109005
43.91777
43.747266
43.601909
43.449156
43.306166
43.123994
42.931683
42.656784
42.355395
41.957102
41.554146
41.064231
40.604213
40.068729
39.602646
39.052516
38.630853
38.094399
37.715719
37.178844
36.895506
36.220611
249.81685
247.81772
245.66469
243.35179
240.86885
238.20466
235.35348
232.31494
229.09113
225.68731
222.11178
218.37528
214.49118
210.47225
206.33357
202.09433
197.76746
193.36063
188.88462
184.35189
179.77458
175.16512
170.53542
165.89067
161.23371
156.57937
151.94035
147.32261
142.74061
138.21264
133.75557
129.39021
125.13424
121.01217
117.05068
113.27513
109.71563
106.40297
103.36823
100.639
98.238116
96.175955
94.455396
93.061911
91.962046
91.118791
90.477201
89.979072
89.574982
89.213774
88.848667
88.435073
87.93588
87.315313
86.54178
85.598038
84.48386
83.201791
81.734969
80.055619
78.156613
76.048121
73.747806
71.278494
68.668338
65.951465
63.168458
60.366614
57.60022
54.931217
52.434245
50.200915
48.329899
46.899121
45.941876
45.442014
45.317782
45.417745
45.851443
46.705324
47.716203
48.789141
49.862144
50.88112
51.795491
52.562475
53.14365
53.504506
53.624962
53.563586
53.199421
52.338661
51.201318
49.838876
48.310448
46.711547
45.156082
43.756981
42.609452
41.776404
41.282454
41.110567
41.146646
41.45197
42.288832
43.321662
44.398032
45.466158
46.467218
47.34323
48.041669
48.521182
48.762208
48.80072
48.703367
48.303103
47.618821
46.8896
46.176522
45.544334
45.054115
44.756249
44.674762
44.755055
45.100863
45.708444
46.370277
47.032593
47.640169
48.142297
48.502062
48.704789
48.768876
48.756325
48.639503
48.290602
47.872377
47.482847
47.151366
46.90477
46.758856
46.714974
46.750223
46.862156
46.990161
47.086123
47.131892
47.129073
47.088393
46.97754
46.769151
46.498822
46.206515
45.911643
45.64215
45.400406
45.199396
45.018178
44.861954
44.698849
44.54576
44.35409
44.151508
43.868033
43.55789
43.152467
42.741603
42.244209
41.776278
41.232066
40.758005
40.197643
39.768478
39.22049
38.835824
38.2876
37.999495
37.305811
253.34465
251.08341
248.64876
246.03799
243.24594
240.266
237.0988
233.74954
230.22509
226.53487
222.689
218.70266
214.59195
210.37223
206.0615
201.67583
197.22543
192.71837
188.16587
183.57934
178.96951
174.34694
169.72024
165.09214
160.46628
155.8562
151.27059
146.71521
142.20507
137.75642
133.38499
129.11211
124.95588
120.9352
117.07984
113.41777
109.97567
106.78341
103.87044
101.26063
98.973951
97.016491
95.386035
94.062951
93.011319
92.193303
91.555291
91.042861
90.609492
90.206387
89.789754
89.318783
88.758404
88.075106
87.241225
86.244957
85.086443
83.761878
82.249552
80.525267
78.585766
76.442107
74.112228
71.619689
68.99409
66.271733
63.495973
60.717349
57.993673
55.390568
52.985343
50.868098
49.130076
47.838089
47.013849
46.626941
46.573539
46.734181
47.289039
48.21136
49.260333
50.364699
51.465649
52.510839
53.451306
54.244848
54.852934
55.240205
55.38152
55.333285
55.004672
54.188667
53.085057
51.760169
50.270837
48.709114
47.184303
45.804788
44.662437
43.819135
43.302094
43.105912
43.132591
43.410341
44.194534
45.189589
46.23417
47.277217
48.260178
49.125275
49.82008
50.303034
50.553226
50.600321
50.516355
50.152695
49.490113
48.773284
48.063172
47.423364
46.915074
46.590345
46.480458
46.537516
46.825045
47.381714
48.002527
48.630435
49.210524
49.692189
50.03826
50.233468
50.295323
50.282762
50.165852
49.817954
49.398257
49.002628
48.660133
48.397937
48.232714
48.166962
48.181486
48.263111
48.368299
48.444148
48.474041
48.46249
48.411002
48.286565
48.070499
47.795452
47.497783
47.196534
46.919161
46.668181
46.456449
46.263712
46.095705
45.921422
45.757219
45.555235
45.341586
45.048904
44.729349
44.316219
43.896824
43.39151
42.91509
42.361788
41.879156
41.308228
40.870947
40.311018
39.919814
39.359839
39.065859
38.353417
256.30068
253.74057
250.99637
248.06666
244.95101
241.64791
238.16424
234.51011
230.69604
226.73317
222.63708
218.42667
214.11666
209.7263
205.27246
200.76901
196.22497
191.64863
187.05021
182.43963
177.82585
173.21705
168.61876
164.03207
159.46097
154.91671
150.40476
145.93152
141.51126
137.15822
132.88866
128.7213
124.67509
120.77217
117.03349
113.49289
110.17615
107.11028
104.32307
101.83406
99.66077
97.805075
96.259865
95.001531
93.992985
93.196257
92.56002
92.033513
91.573054
91.132521
90.671274
90.151398
89.540015
88.806177
87.92669
86.893505
85.703981
84.34832
82.802501
81.046258
79.079036
76.91225
74.563998
72.058572
69.427037
66.707895
63.947301
61.19902
58.524283
55.991995
53.681126
51.679124
50.069141
48.907518
48.205552
47.918628
47.919638
48.149335
48.818904
49.791736
50.874886
52.008333
53.135832
54.206668
55.173277
55.993847
56.629648
57.044635
57.210171
57.176785
56.885621
56.121019
55.054233
53.769438
52.320709
50.79622
49.300535
47.9376
46.796267
45.937949
45.392881
45.16483
45.177238
45.421739
46.144399
47.096265
48.104386
49.118283
50.079742
50.93119
51.620252
52.10506
52.363285
52.418885
52.347097
52.018088
51.377228
50.672117
49.964434
49.316546
48.789647
48.437101
48.294378
48.327337
48.559149
49.059867
49.638269
50.229992
50.780933
51.240675
51.571819
51.7585
51.81723
51.803912
51.685758
51.337835
50.916433
50.514245
50.160197
49.881761
49.696363
49.607166
49.599836
49.652199
49.732776
49.787581
49.801406
49.779725
49.715357
49.576877
49.353223
49.072525
48.768657
48.460254
48.174202
47.913181
47.689883
47.484882
47.304274
47.118061
46.94185
46.728814
46.503411
46.20095
45.871405
45.450056
45.021587
44.50796
44.022542
43.459833
42.968099
42.386315
41.94036
41.368147
40.969919
40.397749
40.097073
39.365557
261.24902
258.56454
255.68539
252.61468
249.35558
245.91262
242.28977
238.49932
234.55534
230.47225
226.26214
221.94332
217.53337
213.05585
208.52864
203.96556
199.37755
194.77295
190.15976
185.54692
180.94256
176.35354
171.78544
167.24108
162.72036
158.22703
153.76952
149.35119
144.97903
140.66575
136.42435
132.27107
128.22334
124.29973
120.52202
116.91485
113.50231
110.31773
107.38326
104.72477
102.35713
100.29566
98.538645
97.07418
95.876002
94.906942
94.129436
93.49531
92.957266
92.474196
92.003114
91.50601
90.947773
90.297819
89.528033
88.61959
87.565106
86.358036
84.983795
83.417809
81.643437
79.661818
77.484355
75.129226
72.621421
69.99345
67.285979
64.547905
61.836113
59.21503
56.756326
54.539683
52.648971
51.159035
50.116741
49.524365
49.322877
49.364599
49.670866
50.439843
51.450187
52.563068
53.722679
54.874782
55.970157
56.962407
57.809953
58.473825
58.917486
59.110343
59.093172
58.840575
58.132949
57.105678
55.862841
54.455581
52.96791
51.499587
50.150269
49.006105
48.12848
47.550915
47.284032
47.276168
47.483473
48.136596
49.039873
50.006949
50.98769
51.924258
52.759291
53.440422
53.925376
54.190374
54.254221
54.193439
53.8967
53.277887
52.583681
51.877949
51.221618
50.675682
50.294528
50.115649
50.12222
50.302432
50.741552
51.276646
51.830508
52.350701
52.787089
53.102072
53.279189
53.333898
53.319135
53.198493
52.849507
52.426225
52.017077
51.651001
51.35576
51.149457
51.036069
51.004168
51.029853
51.083671
51.116669
51.114531
51.080425
51.001707
50.849426
50.617724
50.330525
50.019683
49.703403
49.407935
49.136141
48.900527
48.682595
48.488654
48.289827
48.100823
47.876062
47.638311
47.325544
46.985496
46.55546
46.117438
45.595144
45.100275
44.527878
44.026573
43.43368
42.978551
42.393772
41.988084
41.403232
41.095252
40.344248
263.05365
260.0419
256.83095
253.4277
249.83999
246.07779
242.1531
238.07973
233.8694
229.53683
225.10376
220.59111
216.02306
211.41832
206.79125
202.15396
197.51615
192.88534
188.26863
183.6733
179.10538
174.56947
170.06854
165.60308
161.17205
156.77833
152.4276
148.12197
143.86855
139.67841
135.56378
131.54042
127.62483
123.83533
120.19364
116.72427
113.44984
110.40273
107.60399
105.07585
102.82958
100.87796
99.216723
97.829209
96.687954
95.756514
94.998297
94.368821
93.824007
93.324969
92.832109
92.310109
91.726221
91.052127
90.263197
89.342801
88.282505
87.071824
85.692535
84.120625
82.34245
80.360035
78.184521
75.834088
73.334366
70.719234
68.031417
65.322415
62.652025
60.087547
57.702831
55.577434
53.791009
52.410321
51.473953
50.976704
50.843769
50.920351
51.30285
52.15075
53.189669
54.327508
55.50978
56.683972
57.802206
58.819027
59.692968
60.384819
60.857729
61.080424
61.080967
60.86702
60.22072
59.235349
58.035743
56.670271
55.218633
53.775792
52.437272
51.286802
50.386074
49.771983
49.460716
49.423564
49.593139
50.169542
51.01854
51.94005
52.883699
53.792003
54.607819
55.278748
55.762024
56.03241
56.10406
56.053152
55.78552
55.190133
54.505524
53.801316
53.136273
52.570987
52.160584
51.943773
51.918931
52.053102
52.42681
52.916801
53.431171
53.91908
54.330706
54.628293
54.794783
54.844598
54.827701
54.703246
54.352192
53.926898
53.510439
53.131928
52.819396
52.591582
52.453393
52.395254
52.395235
52.420891
52.431665
52.413589
52.364183
52.27053
52.1048
51.86431
51.56982
51.251284
50.926458
50.620899
50.337669
50.089075
49.857613
49.649691
49.437625
49.235139
48.998047
48.747427
48.423874
48.072864
47.633718
47.185719
46.654436
46.149717
45.567377
45.056086
44.451874
43.98712
43.389543
42.976
42.377966
42.062218
41.29134
264.00102
260.65327
257.10972
253.38294
249.48902
245.43187
241.22269
236.87748
232.42259
227.8776
223.26312
218.60323
213.91887
209.22561
204.5364
199.86197
195.21059
190.58862
186.00181
181.45548
176.95345
172.49795
168.08955
163.72676
159.40761
155.13378
150.90854
146.73328
142.61474
138.56261
134.58857
130.70759
126.93544
123.29048
119.79393
116.4696
113.34223
110.43526
107.77529
105.37874
103.2536
101.41063
99.841774
98.528459
97.442465
96.54868
95.812156
95.191865
94.646744
94.140612
93.637211
93.102896
92.507847
91.826274
91.035581
90.120132
89.069551
87.869618
86.499517
84.9364
83.168876
81.199239
79.038195
76.703846
74.22237
71.628888
68.968004
66.293594
63.668076
61.161213
58.848439
56.808505
55.116546
53.831851
52.985952
52.567827
52.486674
52.594386
53.048984
53.950911
55.012649
56.170183
57.371018
58.564201
59.703033
60.742786
61.64202
62.361303
62.863638
63.117603
63.138718
62.961446
62.379719
61.43847
60.282863
58.959047
57.542398
56.123131
54.792807
53.632972
52.705845
52.051659
51.691369
51.615266
51.747066
52.241637
53.03029
53.901797
54.804497
55.681183
56.474945
57.133321
57.612986
57.887253
57.966067
57.92394
57.682311
57.111216
56.435151
55.732105
55.058177
54.473344
54.033214
53.777624
53.715427
53.808908
54.115405
54.55782
55.031119
55.485267
55.870752
56.149703
56.304488
56.348574
56.328808
56.199127
55.845089
55.41768
54.993597
54.602304
54.272081
54.022268
53.858784
53.773798
53.746572
53.74511
53.733213
53.697312
53.63141
53.522461
53.343173
53.093193
52.790678
52.463781
52.129788
51.81352
51.518262
51.256099
51.010576
50.788097
50.562231
50.34566
50.095691
49.831747
49.496969
49.13459
48.685947
48.227599
47.687038
47.172113
46.579596
46.057959
45.44225
44.967468
44.35691
43.935147
43.32345
42.999557
42.208504
264.02144
260.35727
256.5037
252.47397
248.27552
243.93143
239.46025
234.88985
230.23636
225.52356
220.775
216.01223
211.25333
206.51219
201.8004
197.12704
192.49869
187.92031
183.39597
178.92889
174.52064
170.17116
165.87886
161.64058
157.45347
153.31781
149.23493
145.20577
141.23647
137.33557
133.51427
129.78666
126.16798
122.67653
119.33302
116.16067
113.18348
110.42224
107.90296
105.63815
103.63358
101.89827
100.41956
99.17904
98.148329
97.29416
96.583698
95.979123
95.442455
94.939998
94.438455
93.90659
93.316647
92.644766
91.869758
90.975975
89.950537
88.775881
87.4295
85.889901
84.14722
82.203576
80.069115
77.761769
75.308141
72.74441
70.116814
67.481301
64.902539
62.452299
60.207034
58.244203
56.634456
55.43048
54.65795
54.30174
54.25691
54.391857
54.90817
55.842994
56.921018
58.092345
59.307059
60.515565
61.672159
62.732652
63.655569
64.401293
64.932796
65.218737
65.26365
65.119985
64.604587
63.709681
62.598412
61.315759
59.932883
58.535338
57.210875
56.039053
55.082731
54.385358
53.972241
53.847695
53.941208
54.35111
55.072942
55.890195
56.748189
57.589932
58.358775
59.002174
59.476194
59.752714
59.837871
59.803462
59.584901
59.038314
58.370039
57.66787
56.984978
56.380518
55.910363
55.615491
55.511248
55.566833
55.806761
56.198681
56.629432
57.048409
57.406403
57.665479
57.807469
57.845047
57.821584
57.685176
57.327389
56.897763
56.465779
56.061418
55.713182
55.440996
55.251833
55.139503
55.084486
55.055844
55.020534
54.965434
54.882623
54.757674
54.564631
54.304505
53.993282
53.657406
53.313674
52.986137
52.678318
52.402072
52.142013
51.904474
51.664302
51.433122
51.169787
50.892122
50.545721
50.171613
49.713122
49.2441
48.693996
48.168554
47.565643
47.033356
46.406
45.920832
45.297151
44.866822
44.241021
43.908669
43.097243
266.90484
263.1128
259.12713
254.9605
250.63589
246.1709
241.5892
236.90835
232.15455
227.35082
222.52063
217.68547
212.86494
208.07514
203.3283
198.63424
194.0001
189.43072
184.9294
180.49837
176.13871
171.84982
167.62955
163.47443
159.37997
155.34241
151.36073
147.43476
143.56512
139.75723
136.01876
132.36039
128.79538
125.3386
122.00811
118.82415
115.80914
112.98575
110.37427
107.9957
105.86267
103.97854
102.34902
100.95954
99.791878
98.818171
98.007448
97.329465
96.748702
96.230768
95.744714
95.259239
94.745547
94.177496
93.53263
92.790478
91.934588
90.949328
89.814296
88.505987
87.004176
85.299885
83.394746
81.298255
79.028076
76.611074
74.084261
71.495202
68.901551
66.369803
63.973259
61.788904
59.892621
58.350894
57.210868
56.493451
56.18112
56.159114
56.316026
56.878002
57.829614
58.915817
60.094483
61.317843
62.537453
63.708423
64.786939
65.731445
66.502178
67.062146
67.38015
67.451613
67.33871
66.889434
66.043237
64.976218
63.733945
62.383535
61.005975
59.685345
58.499355
57.51154
56.768377
56.299322
56.117765
56.171196
56.496273
57.143928
57.903145
58.712807
59.516319
60.257355
60.883286
61.349535
61.626571
61.717069
61.689347
61.49109
60.968638
60.307648
59.606153
58.91431
58.29026
57.78996
57.455555
57.306062
57.32379
57.500315
57.838184
58.225136
58.607609
58.936793
59.174757
59.302865
59.333221
59.305097
59.160371
58.79829
58.366315
57.926179
57.50852
57.142033
56.847203
56.632075
56.492003
56.408682
56.352538
56.293392
56.218323
56.117801
55.976251
55.76919
55.498306
55.177742
54.832314
54.478314
54.139003
53.818151
53.527372
53.252361
52.999326
52.744397
52.498153
52.221018
51.929287
51.570905
51.184752
50.716094
50.236115
49.67623
49.139999
48.526502
47.983307
47.344174
46.848302
46.211392
45.772172
45.131868
44.790796
43.958901
265.28871
261.18583
256.91094
252.4773
247.90976
243.2291
238.45421
233.61139
228.72864
223.82778
218.93083
214.05776
209.2263
204.45042
199.74034
195.10381
190.54593
186.06972
181.67671
177.36721
173.14023
168.99321
164.92221
160.92222
156.98767
153.11405
149.29917
145.54181
141.84235
138.20551
134.63828
131.15079
127.75559
124.46724
121.30346
118.28393
115.43009
112.76331
110.30319
108.06569
106.06379
104.29987
102.77516
101.47514
100.3818
99.468435
98.706708
98.069025
97.521939
97.034638
96.578673
96.124373
95.644981
95.115632
94.514718
93.821841
93.019194
92.088402
91.006754
89.750208
88.299554
86.646176
84.791023
82.742867
80.518992
78.146346
75.662499
73.115998
70.565794
68.079755
65.732247
63.60039
61.758406
60.269155
59.17537
58.494226
58.207211
58.196815
58.368257
58.956705
59.911446
60.997234
62.176315
63.402584
64.628568
65.810011
66.903339
67.866884
68.660767
69.248051
69.597657
69.697832
69.613084
69.227733
68.433325
67.409839
66.206925
64.887647
63.528495
62.209997
61.0081
59.986979
59.195921
58.668374
58.423019
58.431924
58.676185
59.239912
59.938471
60.696315
61.458352
62.168679
62.774593
63.230865
63.506574
63.601248
63.579212
63.398644
62.899442
62.245435
61.544499
60.843802
60.200317
59.669927
59.295918
59.099801
59.076057
59.196026
59.474849
59.817218
60.161926
60.461017
60.676643
60.789791
60.812289
60.778345
60.623638
60.257015
59.822483
59.373967
58.942834
58.557935
58.240285
57.998997
57.83088
57.718851
57.634959
57.551565
57.455828
57.336865
57.178195
56.956811
56.674597
56.344103
55.988595
55.623842
55.272307
54.938005
54.632306
54.34198
54.073072
53.802988
53.541291
53.249974
52.943878
52.573195
52.174718
51.69561
51.204429
50.634546
50.087291
49.463052
48.908727
48.257702
47.750845
47.100635
46.65221
45.997055
45.647048
44.794684
262.6451
258.28154
253.76729
249.11558
244.35288
239.50461
234.59388
229.64688
224.69098
219.74711
214.83566
209.97481
205.17997
200.46264
195.83081
191.29
186.84325
182.49169
178.23505
174.07179
169.99908
166.01268
162.1072
158.27647
154.51417
150.81519
147.17647
143.59611
140.07432
136.61521
133.22527
129.91407
126.69359
123.57809
120.5848
117.73279
115.0424
112.53365
110.22431
108.12872
106.25769
104.61319
103.19313
101.98371
100.96743
100.11918
99.4134
98.825022
98.322721
97.878891
97.467172
97.059356
96.630215
96.155797
95.614795
94.986381
94.251061
93.387907
92.37239
91.180176
89.792747
88.201454
86.406442
84.415707
82.246037
79.924252
77.488186
74.986993
72.480489
70.037454
67.732894
65.643769
63.842719
62.389653
61.324033
60.660304
60.380003
60.371736
60.548025
61.142481
62.088104
63.164644
64.336812
65.559803
66.78696
67.974504
69.078978
70.058587
70.873352
71.486373
71.866607
71.997012
71.93806
71.611907
70.874689
69.892648
68.727875
67.43842
66.096295
64.778562
63.559452
62.503687
61.663123
61.07499
60.761901
60.716437
60.88882
61.359244
61.993996
62.696613
63.413983
64.090697
64.674
65.118014
65.390461
65.487994
65.470664
65.305306
64.828037
64.180868
63.480454
62.771085
62.108432
61.548173
61.134659
60.891775
60.821122
60.892193
61.108069
61.404646
61.710384
61.978143
62.170215
62.267348
62.281448
62.240255
62.073863
61.702823
61.265401
60.808293
60.363562
59.960162
59.619609
59.352051
59.155674
59.014643
58.902812
58.794781
58.677749
58.539686
58.363443
58.127403
57.833326
57.492357
57.126282
56.750337
56.386175
56.038059
55.71711
55.411156
55.126057
54.840471
54.562991
54.257159
53.936443
53.553173
53.142134
52.652321
52.149728
51.569657
51.011178
50.376071
49.810426
49.147408
48.629321
47.965769
47.507841
46.837537
46.478423
45.605672
259.04232
254.46708
249.76128
244.94396
240.04524
235.0903
230.10411
225.11246
220.14128
215.21018
210.33756
205.53924
200.82785
196.21227
191.69806
187.28847
182.98447
178.78535
174.68911
170.69255
166.7913
162.9798
159.25164
155.59992
152.01789
148.5001
145.04295
141.6442
138.30399
135.026
131.81628
128.68395
125.64049
122.69983
119.87866
117.19528
114.66891
112.31817
110.15908
108.20455
106.46374
104.93807
103.6232
102.50638
101.57094
100.79366
100.15176
99.622466
99.176649
98.789355
98.435955
98.08949
97.725732
97.321262
96.854605
96.304162
95.648621
94.864792
93.926732
92.809906
91.496151
89.976501
88.250241
86.324549
84.215589
81.949838
79.565089
77.110716
74.646965
72.24309
69.974354
67.917356
66.14335
64.710033
63.654669
62.990009
62.698324
62.683011
62.853463
63.433443
64.358387
65.416646
66.574232
67.787369
69.010085
70.198929
71.310476
72.302785
73.135773
73.772544
74.181968
74.34343
74.308184
74.035995
73.360233
72.417829
71.289893
70.029018
68.702754
67.384756
66.147544
65.056254
64.165056
63.514705
63.131536
63.020564
63.129103
63.501485
64.067517
64.711544
65.38112
66.021324
66.579387
67.008798
67.275964
67.374905
67.361319
67.208799
66.751788
66.111431
65.411579
64.693796
64.012353
63.4226
62.969856
62.680258
62.559297
62.584538
62.737866
62.986349
63.251975
63.487209
63.654532
63.734623
63.739903
63.689656
63.509915
63.135026
62.694188
62.228296
61.769891
61.347972
60.984511
60.690653
60.46589
60.29567
60.155755
60.022734
59.883845
59.726092
59.531874
59.280834
58.974399
58.62245
58.245362
57.857824
57.480684
57.118441
56.781965
56.460118
56.158565
55.857179
55.563639
55.243004
54.907454
54.511349
54.087542
53.5868
53.072617
52.482189
51.912317
51.266247
50.689116
50.014025
49.484498
48.807588
48.339874
47.654178
47.285819
46.392833
254.55701
249.82697
244.99068
240.07079
235.09972
230.10214
225.10371
220.12907
215.20191
210.33994
205.55909
200.87231
196.28922
191.8159
187.45546
183.20885
179.07504
175.0516
171.13499
167.32063
163.60299
159.97565
156.43164
152.96377
149.56525
146.23059
142.95604
139.73932
136.58066
133.48345
130.45346
127.49941
124.63239
121.86593
119.21609
116.70034
114.33671
112.1424
110.13209
108.31688
106.70538
105.29801
104.0893
103.06768
102.21751
101.51769
100.94802
100.48782
100.1101
99.791939
99.510227
99.238877
98.954172
98.632888
98.252994
97.791979
97.226707
96.532085
95.681062
94.648872
93.417388
91.977141
90.326552
88.471944
86.428736
84.222847
81.891716
79.484559
77.061628
74.692247
72.451599
70.415803
68.654992
67.225378
66.163018
65.48003
65.160111
65.126781
65.281718
65.827568
66.72036
67.751109
68.88617
70.082553
71.294856
72.479831
73.594011
74.595297
75.443492
76.101645
76.538407
76.730997
76.717807
76.494451
75.882282
74.978423
73.886045
72.652612
71.341269
70.022305
68.7665
67.639243
66.696749
65.983026
65.528013
65.343183
65.390562
65.665493
66.156623
66.73889
67.357629
67.958446
68.488616
68.901027
69.160822
69.259606
69.248807
69.106834
68.668121
68.034636
67.335455
66.60959
65.909835
65.291107
64.799573
64.46348
64.29093
64.268713
64.364311
64.561135
64.785662
64.987235
65.128639
65.190698
65.186893
65.125257
64.930668
64.553003
64.107955
63.633107
63.160998
62.720605
62.334308
62.014198
61.761004
61.561503
61.393405
61.235085
61.073839
60.895872
60.683321
60.416937
60.097682
59.734291
59.345782
58.946292
58.555867
58.17923
57.827002
57.489045
57.170823
56.853386
56.543561
56.20788
55.85732
55.448164
55.011418
54.499551
53.973627
53.3727
52.791297
52.134187
51.545433
50.858209
50.317063
49.626805
49.149038
48.447757
48.070046
47.157042
249.30589
244.48573
239.58517
234.6308
229.65485
224.68145
219.73579
214.84058
210.01659
205.27908
200.64102
196.11215
191.69895
187.40464
183.22983
179.17326
175.23206
171.40227
167.67906
164.05688
160.52948
157.0901
153.73167
150.4472
147.23028
144.07575
140.98009
137.94131
134.95987
132.03909
129.18461
126.40482
123.71046
121.11462
118.63272
116.28126
114.07707
112.03596
110.17025
108.49327
107.00966
105.71997
104.61853
103.69489
102.93461
102.3188
101.82954
101.448
101.14921
100.9116
100.71364
100.52943
100.3354
100.10832
99.825188
99.462698
98.995982
98.398395
97.642005
96.701699
95.559104
94.204141
92.634399
90.855322
88.881474
86.737992
84.461661
82.10118
79.716414
77.376374
75.155892
73.130533
71.369601
69.928497
68.842957
68.125506
67.762119
67.697336
67.82862
68.322581
69.171375
70.165224
71.269615
72.442093
73.637713
74.813331
75.925386
76.931608
77.791663
78.468479
78.930372
79.153214
79.16146
78.98141
78.433234
77.567437
76.50942
75.302416
74.005281
72.684968
71.410456
70.247206
69.253204
68.475425
67.947267
67.683616
67.666123
67.850541
68.258479
68.776381
69.341342
69.899931
70.399545
70.792517
71.042791
71.139754
71.130783
70.997125
70.574526
69.948037
69.249694
68.516138
67.798645
67.151594
66.621866
66.23966
66.015686
65.941791
65.986804
66.12762
66.310388
66.477228
66.59157
66.634802
66.621218
66.545931
66.335626
65.955635
65.505804
65.021853
64.536054
64.077291
63.668302
63.322058
63.04047
62.811683
62.615348
62.431466
62.247424
62.048786
61.817579
61.535514
61.203014
60.827753
60.427455
60.015693
59.611722
59.22047
58.852311
58.49807
58.163012
57.829319
57.503029
57.152102
56.78639
56.364
55.914173
55.391013
54.853229
54.241681
53.648638
52.980429
52.379942
51.680551
51.127633
50.42406
49.935988
49.218981
48.831841
47.899083
248.21164
243.44024
238.59787
233.70362
228.78578
223.87456
218.99329
214.16544
209.41107
204.74754
200.18715
195.73953
191.411
187.20484
183.12139
179.15884
175.31387
171.58199
167.95797
164.43606
161.01015
157.67382
154.42043
151.24339
148.13639
145.0938
142.11125
139.1858
136.31607
133.50302
130.75008
128.06287
125.4496
122.9207
120.48876
118.16854
115.9755
113.92524
112.03234
110.30757
108.76486
107.40681
106.23375
105.24035
104.41719
103.75105
103.2252
102.82368
102.52928
102.31882
102.17132
102.06738
101.97996
101.88568
101.7613
101.58228
101.32479
100.96259
100.46766
99.811386
98.968146
97.919069
96.653412
95.167993
93.46738
91.565154
89.485469
87.264172
84.949106
82.599392
80.283394
78.075354
76.050244
74.276816
72.810246
71.686727
70.920147
70.499708
70.388143
70.488618
70.915801
71.708022
72.655549
73.721021
74.862256
76.034689
77.1952
78.300099
79.306933
80.175202
80.867646
81.35215
81.603351
81.634077
81.490522
81.005567
80.177923
79.153172
77.971719
76.688305
75.366555
74.073575
72.874701
71.829406
70.987345
70.385178
70.041185
69.948132
70.055772
70.370673
70.821735
71.330065
71.843631
72.310032
72.681097
72.919648
73.013054
73.004935
72.87739
72.468558
71.849234
71.151941
70.411142
69.676572
69.001971
68.43479
68.007024
67.73194
67.604396
67.600735
67.686037
67.825081
67.956182
68.04236
68.066291
68.041381
67.950631
67.724294
67.3419
66.886844
66.393668
65.894231
65.417257
64.985781
64.613591
64.303725
64.045721
63.821142
63.611486
63.404271
63.184563
62.93441
62.636345
62.290207
61.902687
61.490267
61.06595
60.648215
60.242168
59.857944
59.487287
59.135273
58.785162
58.442272
58.075935
57.694965
57.259191
56.796171
56.261576
55.711836
55.089571
54.484804
53.805456
53.193152
52.48158
51.916767
51.199929
50.70132
49.968493
49.571871
48.619665
241.88514
237.1368
232.34534
227.53081
222.72151
217.94484
213.22264
208.57564
204.02065
199.57126
195.23638
191.02204
186.93105
182.96347
179.1169
175.38721
171.76926
168.25723
164.84492
161.5261
158.29457
155.14423
152.06915
149.06368
146.12269
143.24185
140.4179
137.64898
134.9346
132.27644
129.67832
127.14601
124.68763
122.31335
120.03522
117.86739
115.8241
113.91987
112.1648
110.57873
109.16531
107.92937
106.87107
105.98566
105.26463
104.69591
104.2647
103.95675
103.75623
103.64143
103.59109
103.58941
103.60532
103.61711
103.60118
103.53109
103.38208
103.12807
102.73914
102.18636
101.44336
100.49052
99.316429
97.917228
96.296611
94.46708
92.451602
90.284828
88.013438
85.695483
83.398384
81.195587
79.161444
77.364389
75.859862
74.685166
73.856383
73.366821
73.192515
73.254843
73.604279
74.325878
75.218066
76.236367
77.33891
78.481477
79.620922
80.713408
81.716284
82.588857
83.293614
83.79792
84.075249
84.128922
84.016245
83.591958
82.803103
81.810561
80.653913
79.383945
78.06095
76.750068
75.516303
74.420336
73.514211
72.837642
72.412292
72.23664
72.272692
72.493329
72.872641
73.321582
73.787395
74.217943
74.564616
74.789207
74.877269
74.868988
74.745361
74.347848
73.735885
73.039886
72.292339
71.541428
70.840157
70.236403
69.763795
69.43806
69.257017
69.201459
69.236797
69.328577
69.423086
69.480051
69.48451
69.445891
69.338251
69.096152
68.710899
68.250197
67.747689
67.234703
66.739727
66.28603
65.888147
65.55019
65.26311
65.010327
64.774738
64.54403
64.302913
64.033555
63.719189
63.359054
62.958922
62.534082
62.096966
61.665285
61.244307
60.843926
60.456761
60.08771
59.721061
59.361477
58.979608
58.583303
58.134025
57.657728
57.111582
56.549815
55.916757
55.300208
54.6097
53.985519
53.261777
52.684966
51.954931
51.445575
50.696876
50.290743
49.319429
235.24835
230.5996
225.934
221.2727
216.6427
212.06823
207.56876
203.16155
198.85971
194.67274
190.60589
186.66142
182.83869
179.13467
175.54432
172.06147
168.67942
165.39138
162.19048
159.0705
156.02564
153.05062
150.14067
147.29163
144.50004
141.76326
139.07957
136.44865
133.87119
131.34988
128.88918
126.49519
124.17608
121.94182
119.80391
117.77591
115.86915
114.09717
112.47856
111.0206
109.72995
108.61116
107.6644
106.8856
106.26697
105.79732
105.46355
105.25291
105.15073
105.13625
105.18713
105.29259
105.41732
105.5391
105.6335
105.67178
105.63359
105.48955
105.20764
104.75974
104.11828
103.26267
102.1808
100.8683
99.328001
97.571233
95.6196
93.506309
91.276606
88.98718
86.70425
84.500279
82.448966
80.618605
79.065285