/*--------------------------------*- C++ -*----------------------------------*\
| =========                 |                                                 |
| \\      /  F ield         | OpenFOAM: The Open Source CFD Toolbox           |
|  \\    /   O peration     | Version:  2406                                  |
|   \\  /    A nd           | Website:  www.openfoam.com                      |
|    \\/     M anipulation  |                                                 |
\*---------------------------------------------------------------------------*/
FoamFile
{
    version     2.0;
    format      ascii;
    arch        "LSB;label=32;scalar=64";
    class       volScalarField;
    location    "0.01";
    object      p;
}
// * * * * * * * * * * * * * * * * * * * * * * * * * * * * * * * * * * * * * //

dimensions      [1 -1 -2 0 0 0 0];

internalField   nonuniform List<scalar> 
8951
(
101004.21
101012.81
101020.67
101027.83
101034.31
101040.19
101045.51
101050.3
101054.6
101058.45
101061.78
101064.6
101067.3
101070.24
101072.94
101075.25
101077.49
101079.77
101082.12
101084.61
101087.28
101090.18
101093.45
101096.85
101100.52
101104.91
101109.09
101114.18
101119.07
101124.35
101130.42
101136.93
101143.19
101149.65
101156.3
101162.91
101169.53
101176.01
101182.31
101188.36
101194.08
101199.44
101204.37
101208.87
101212.88
101216.55
101219.68
101222.38
101224.78
101226.75
101228.41
101229.76
101230.73
101231.14
101232.12
101233.03
101233.93
101234.67
101235.21
101235.87
101236.65
101237.58
101238.68
101239.96
101241.41
101243.02
101244.76
101246.6
101248.55
101250.67
101252.24
101253.64
101255.58
101257.24
101258.69
101259.98
101261.06
101262.02
101262.8
101263.44
101263.87
101264.56
101264.9
101265.52
101266.06
101266.68
101267.39
101268.16
101268.96
101269.75
101270.58
101271.47
101272.41
101273.43
101274.53
101275.73
101277.01
101278.36
101279.77
101281.12
101282.34
101283.47
101284.44
101285.15
101285.64
101286
101286.3
101286.58
101286.97
101287.5
101288.23
101289.16
101290.28
101291.54
101292.9
101294.33
101295.78
101297.21
101298.61
101299.94
101301.19
101302.35
101303.43
101304.37
101305.16
101305.82
101306.32
101306.72
101307.04
101307.35
101307.71
101308.18
101308.79
101309.55
101310.46
101311.48
101312.57
101313.66
101314.74
101315.78
101316.75
101317.61
101318.37
101319
101319.54
101319.96
101320.36
101320.72
101321.16
101321.65
101322.29
101322.97
101323.76
101324.53
101325.36
101326.1
101326.98
101327.8
101328.77
101329.53
101330.49
101330.91
101331.5
101331.8
101332.31
101332.61
101333.04
101333.31
101334.6
101335.34
101337.57
101338.39
101340.71
101339.75
101344.99
101341.34
101372.9
100999.01
101008.06
101016.41
101024
101030.93
101037.16
101042.82
101047.95
101052.55
101056.67
101060.23
101063.17
101066.01
101068.99
101071.74
101074.15
101076.34
101078.53
101080.76
101083.08
101085.55
101088.22
101091.13
101094.4
101097.83
101101.59
101105.95
101110.3
101115.44
101120.53
101125.86
101131.53
101138.15
101144.57
101151.07
101157.73
101164.29
101170.88
101177.29
101183.52
101189.48
101195.11
101200.36
101205.19
101209.59
101213.5
101217.1
101220.13
101222.74
101225.11
101227.03
101228.65
101229.89
101230.62
101231.18
101232.51
101233.21
101234.01
101234.72
101235.28
101235.96
101236.76
101237.71
101238.83
101240.13
101241.6
101243.23
101244.99
101246.86
101248.81
101250.85
101252.45
101253.92
101255.82
101257.43
101258.86
101260.12
101261.18
101262.11
101262.86
101263.49
101263.93
101264.6
101264.95
101265.56
101266.09
101266.71
101267.42
101268.18
101268.96
101269.74
101270.57
101271.44
101272.38
101273.4
101274.5
101275.7
101276.99
101278.35
101279.77
101281.13
101282.35
101283.49
101284.45
101285.16
101285.65
101286.01
101286.3
101286.59
101286.97
101287.5
101288.23
101289.16
101290.27
101291.52
101292.87
101294.3
101295.74
101297.16
101298.56
101299.89
101301.15
101302.31
101303.4
101304.35
101305.14
101305.79
101306.3
101306.68
101307
101307.3
101307.66
101308.12
101308.73
101309.49
101310.39
101311.41
101312.5
101313.59
101314.68
101315.71
101316.68
101317.54
101318.3
101318.93
101319.46
101319.88
101320.28
101320.63
101321.07
101321.56
101322.2
101322.87
101323.67
101324.43
101325.26
101326.01
101326.88
101327.7
101328.67
101329.43
101330.37
101330.8
101331.39
101331.69
101332.19
101332.48
101332.9
101333.17
101334.5
101335.23
101337.43
101338.25
101340.54
101339.39
101344.81
101340.48
101372.83
101002.08
101010.89
101019
101026.36
101033.09
101039.09
101044.6
101049.59
101054.06
101057.94
101061.12
101064.14
101067.36
101070.25
101072.77
101075.08
101077.28
101079.49
101081.74
101084.1
101086.62
101089.34
101092.33
101095.65
101099.15
101103.03
101107.4
101111.87
101117.02
101122.2
101127.82
101133.46
101139.69
101146.07
101152.73
101159.39
101165.86
101172.38
101178.68
101184.79
101190.63
101196.12
101201.23
101205.92
101210.19
101213.99
101217.5
101220.4
101222.89
101225.25
101227.09
101228.6
101229.58
101230.42
101231.36
101232.54
101233.11
101233.9
101234.6
101235.21
101235.93
101236.77
101237.77
101238.95
101240.3
101241.82
101243.49
101245.29
101247.18
101249.15
101251.13
101252.75
101254.27
101256.12
101257.69
101259.08
101260.3
101261.32
101262.21
101262.93
101263.52
101263.95
101264.59
101264.94
101265.54
101266.06
101266.68
101267.37
101268.13
101268.91
101269.69
101270.51
101271.39
101272.33
101273.36
101274.47
101275.69
101277
101278.37
101279.8
101281.16
101282.39
101283.52
101284.48
101285.18
101285.66
101286
101286.29
101286.57
101286.96
101287.49
101288.21
101289.14
101290.25
101291.49
101292.84
101294.26
101295.7
101297.12
101298.52
101299.86
101301.11
101302.29
101303.38
101304.33
101305.12
101305.77
101306.26
101306.65
101306.96
101307.26
101307.61
101308.07
101308.68
101309.43
101310.33
101311.35
101312.43
101313.53
101314.61
101315.65
101316.62
101317.47
101318.23
101318.86
101319.39
101319.81
101320.19
101320.54
101320.98
101321.47
101322.1
101322.78
101323.57
101324.33
101325.17
101325.91
101326.78
101327.61
101328.57
101329.33
101330.26
101330.69
101331.29
101331.58
101332.07
101332.35
101332.76
101333.02
101334.41
101335.11
101337.29
101338.1
101340.38
101339.04
101344.67
101339.65
101372.67
101004.2
101012.82
101020.74
101027.93
101034.5
101040.33
101045.77
101050.67
101054.93
101058.45
101061.76
101065.23
101068.4
101071.06
101073.51
101075.85
101078.1
101080.36
101082.68
101085.11
101087.7
101090.51
101093.59
101096.96
101100.56
101104.54
101108.95
101113.52
101118.66
101123.9
101129.58
101135.45
101141.43
101147.76
101154.2
101160.95
101167.32
101173.76
101179.93
101185.91
101191.6
101196.96
101201.93
101206.48
101210.62
101214.29
101217.72
101220.48
101222.87
101225.23
101226.91
101228.18
101229.25
101230.41
101231.34
101232.3
101232.88
101233.69
101234.39
101235.05
101235.83
101236.73
101237.79
101239.03
101240.44
101242.02
101243.75
101245.59
101247.51
101249.48
101251.45
101253.07
101254.63
101256.43
101257.96
101259.3
101260.48
101261.46
101262.3
101262.97
101263.53
101263.95
101264.55
101264.89
101265.48
101265.98
101266.6
101267.29
101268.04
101268.81
101269.59
101270.42
101271.31
101272.27
101273.3
101274.44
101275.67
101277
101278.39
101279.83
101281.2
101282.43
101283.56
101284.5
101285.19
101285.66
101286
101286.27
101286.55
101286.93
101287.46
101288.18
101289.11
101290.22
101291.46
101292.8
101294.22
101295.65
101297.08
101298.48
101299.82
101301.08
101302.26
101303.35
101304.3
101305.09
101305.74
101306.23
101306.61
101306.91
101307.21
101307.55
101308.01
101308.62
101309.36
101310.26
101311.28
101312.37
101313.47
101314.55
101315.59
101316.56
101317.41
101318.17
101318.79
101319.32
101319.73
101320.11
101320.46
101320.9
101321.38
101322.01
101322.69
101323.47
101324.24
101325.07
101325.81
101326.69
101327.51
101328.47
101329.23
101330.15
101330.59
101331.19
101331.47
101331.95
101332.23
101332.63
101332.87
101334.32
101334.98
101337.15
101337.96
101340.23
101338.69
101344.56
101338.81
101372.43
100996.79
101005.93
101014.4
101022.17
101029.21
101035.68
101041.34
101046.74
101051.43
101055.34
101059.03
101062.78
101066.21
101069.13
101071.74
101074.22
101076.6
101078.91
101081.23
101083.62
101086.12
101088.8
101091.7
101094.85
101098.3
101101.99
101106.06
101110.51
101115.17
101120.32
101125.6
101131.27
101137.17
101143.15
101149.6
101155.77
101162.32
101168.64
101175.05
101181.08
101186.93
101192.46
101197.7
101202.52
101206.94
101210.95
101214.52
101217.87
101220.49
101222.76
101225.12
101226.48
101227.86
101229.21
101230.31
101231.11
101232.01
101232.63
101233.45
101234.17
101234.88
101235.71
101236.67
101237.79
101239.09
101240.57
101242.21
101243.98
101245.86
101247.81
101249.8
101251.75
101253.39
101254.98
101256.73
101258.21
101259.51
101260.65
101261.58
101262.37
101263
101263.53
101263.93
101264.5
101264.83
101265.4
101265.9
101266.51
101267.19
101267.94
101268.71
101269.49
101270.32
101271.22
101272.19
101273.24
101274.39
101275.64
101276.99
101278.4
101279.85
101281.22
101282.46
101283.58
101284.52
101285.2
101285.66
101285.99
101286.25
101286.53
101286.9
101287.43
101288.15
101289.08
101290.19
101291.42
101292.76
101294.17
101295.61
101297.04
101298.43
101299.78
101301.05
101302.23
101303.32
101304.27
101305.07
101305.71
101306.2
101306.57
101306.87
101307.16
101307.5
101307.95
101308.56
101309.3
101310.2
101311.22
101312.3
101313.4
101314.49
101315.52
101316.49
101317.35
101318.1
101318.72
101319.24
101319.65
101320.03
101320.38
101320.81
101321.29
101321.92
101322.59
101323.38
101324.14
101324.97
101325.72
101326.59
101327.42
101328.37
101329.13
101330.03
101330.49
101331.09
101331.36
101331.83
101332.1
101332.5
101332.72
101334.22
101334.85
101337
101337.81
101340.1
101338.34
101344.44
101337.98
101372.1
100998.47
101007.43
101015.79
101023.4
101030.34
101036.72
101042.17
101047.49
101051.8
101055.94
101060.02
101063.72
101066.9
101069.75
101072.4
101074.93
101077.35
101079.72
101082.11
101084.57
101087.16
101089.92
101092.9
101096.15
101099.67
101103.44
101107.59
101112.08
101116.82
101121.97
101127.29
101132.96
101138.82
101144.84
101151.22
101157.46
101163.69
101170
101176.19
101182.15
101187.89
101193.25
101198.36
101203.06
101207.35
101211.23
101214.7
101217.96
101220.46
101222.65
101224.74
101226.24
101227.77
101229.09
101230.04
101230.83
101231.71
101232.37
101233.19
101233.93
101234.69
101235.57
101236.59
101237.78
101239.15
101240.68
101242.38
101244.2
101246.12
101248.1
101250.1
101252.03
101253.68
101255.29
101257
101258.44
101259.7
101260.8
101261.69
101262.44
101263.03
101263.53
101263.91
101264.44
101264.76
101265.32
101265.81
101266.42
101267.09
101267.83
101268.6
101269.38
101270.22
101271.13
101272.11
101273.18
101274.34
101275.61
101276.98
101278.41
101279.87
101281.24
101282.49
101283.6
101284.53
101285.2
101285.65
101285.97
101286.24
101286.5
101286.88
101287.4
101288.12
101289.04
101290.15
101291.38
101292.71
101294.13
101295.56
101296.99
101298.39
101299.73
101301.01
101302.19
101303.29
101304.24
101305.04
101305.68
101306.16
101306.53
101306.82
101307.11
101307.45
101307.9
101308.5
101309.24
101310.14
101311.15
101312.24
101313.34
101314.43
101315.46
101316.43
101317.28
101318.04
101318.65
101319.17
101319.57
101319.95
101320.29
101320.72
101321.2
101321.83
101322.5
101323.29
101324.04
101324.88
101325.63
101326.5
101327.32
101328.28
101329.04
101329.92
101330.38
101330.99
101331.25
101331.71
101331.98
101332.37
101332.57
101334.12
101334.69
101336.86
101337.66
101339.97
101337.99
101344.31
101337.14
101371.71
100999.86
101008.66
101016.97
101024.41
101031.3
101037.5
101042.79
101047.83
101052.4
101056.85
101060.85
101064.33
101067.46
101070.35
101073.05
101075.62
101078.09
101080.53
101082.99
101085.54
101088.21
101091.06
101094.13
101097.46
101101.06
101104.93
101109.15
101113.68
101118.48
101123.64
101128.99
101134.65
101140.48
101146.5
101152.77
101158.97
101165.09
101171.37
101177.29
101183.18
101188.77
101194.02
101198.97
101203.53
101207.7
101211.46
101214.81
101217.8
101220.44
101222.63
101224.35
101226.21
101227.58
101228.8
101229.71
101230.53
101231.39
101232.08
101232.91
101233.68
101234.49
101235.43
101236.5
101237.76
101239.18
101240.78
101242.53
101244.4
101246.36
101248.37
101250.37
101252.3
101253.97
101255.59
101257.25
101258.66
101259.88
101260.94
101261.78
101262.5
101263.05
101263.52
101263.88
101264.38
101264.7
101265.24
101265.72
101266.32
101266.99
101267.72
101268.49
101269.27
101270.12
101271.03
101272.03
101273.11
101274.29
101275.58
101276.96
101278.4
101279.87
101281.25
101282.51
101283.62
101284.53
101285.2
101285.65
101285.96
101286.22
101286.48
101286.85
101287.37
101288.09
101289.01
101290.11
101291.34
101292.67
101294.08
101295.51
101296.94
101298.34
101299.69
101300.96
101302.16
101303.25
101304.21
101305.01
101305.65
101306.13
101306.49
101306.78
101307.06
101307.4
101307.85
101308.44
101309.18
101310.08
101311.09
101312.18
101313.28
101314.36
101315.4
101316.37
101317.22
101317.97
101318.58
101319.1
101319.5
101319.87
101320.21
101320.64
101321.11
101321.74
101322.41
101323.19
101323.95
101324.79
101325.54
101326.41
101327.23
101328.18
101328.94
101329.81
101330.28
101330.9
101331.14
101331.6
101331.85
101332.25
101332.42
101334.01
101334.52
101336.71
101337.51
101339.84
101337.65
101344.15
101336.3
101371.26
101000.97
101009.6
101017.94
101025.07
101032
101037.74
101043.46
101048.29
101053.24
101057.53
101061.36
101064.81
101067.97
101070.9
101073.65
101076.27
101078.81
101081.33
101083.88
101086.51
101089.28
101092.22
101095.39
101098.8
101102.48
101106.43
101110.72
101115.3
101120.15
101125.32
101130.68
101136.33
101142.14
101148.12
101154.29
101160.4
101166.47
101172.61
101178.4
101184.19
101189.58
101194.75
101199.53
101203.95
101207.99
101211.63
101214.88
101217.59
101220.38
101222.56
101224.19
101225.98
101227.28
101228.46
101229.37
101230.2
101231.05
101231.77
101232.61
101233.41
101234.27
101235.26
101236.4
101237.71
101239.2
101240.86
101242.66
101244.59
101246.58
101248.61
101250.63
101252.55
101254.23
101255.87
101257.48
101258.86
101260.04
101261.07
101261.87
101262.55
101263.07
101263.5
101263.85
101264.32
101264.63
101265.16
101265.62
101266.23
101266.88
101267.61
101268.38
101269.16
101270.01
101270.93
101271.94
101273.03
101274.23
101275.53
101276.93
101278.39
101279.87
101281.26
101282.52
101283.63
101284.53
101285.2
101285.64
101285.95
101286.2
101286.46
101286.82
101287.34
101288.06
101288.98
101290.08
101291.3
101292.63
101294.03
101295.46
101296.89
101298.29
101299.64
101300.92
101302.12
101303.22
101304.18
101304.98
101305.62
101306.09
101306.45
101306.74
101307.01
101307.35
101307.79
101308.39
101309.13
101310.02
101311.03
101312.11
101313.21
101314.3
101315.34
101316.3
101317.16
101317.91
101318.52
101319.03
101319.42
101319.79
101320.13
101320.55
101321.02
101321.65
101322.32
101323.1
101323.86
101324.69
101325.45
101326.32
101327.14
101328.09
101328.85
101329.71
101330.18
101330.8
101331.04
101331.49
101331.73
101332.12
101332.28
101333.89
101334.32
101336.56
101337.36
101339.71
101337.31
101343.96
101335.46
101370.76
100992.65
101001.77
101010.23
101018.64
101025.42
101032.21
101038.19
101044.04
101049
101053.74
101057.91
101061.73
101065.21
101068.42
101071.4
101074.2
101076.89
101079.51
101082.11
101084.76
101087.49
101090.35
101093.4
101096.66
101100.16
101103.92
101107.96
101112.31
101116.93
101121.82
101127
101132.38
101138
101143.78
101149.71
101155.78
101161.81
101167.79
101173.78
101179.47
101185.1
101190.36
101195.39
101200.02
101204.31
101208.23
101211.75
101214.9
101217.54
101220.24
101222.33
101223.99
101225.66
101226.94
101228.09
101229
101229.84
101230.69
101231.43
101232.28
101233.11
101234.03
101235.07
101236.27
101237.64
101239.19
101240.91
101242.77
101244.74
101246.78
101248.83
101250.86
101252.79
101254.48
101256.12
101257.7
101259.04
101260.2
101261.19
101261.96
101262.59
101263.08
101263.49
101263.82
101264.25
101264.56
101265.07
101265.53
101266.12
101266.78
101267.5
101268.26
101269.05
101269.9
101270.83
101271.84
101272.95
101274.16
101275.48
101276.9
101278.37
101279.86
101281.26
101282.52
101283.63
101284.53
101285.19
101285.63
101285.93
101286.18
101286.43
101286.8
101287.32
101288.03
101288.95
101290.04
101291.26
101292.58
101293.98
101295.41
101296.83
101298.23
101299.59
101300.88
101302.08
101303.18
101304.15
101304.95
101305.59
101306.06
101306.41
101306.7
101306.97
101307.3
101307.74
101308.33
101309.07
101309.96
101310.97
101312.05
101313.15
101314.24
101315.28
101316.24
101317.09
101317.84
101318.45
101318.96
101319.35
101319.72
101320.05
101320.47
101320.94
101321.56
101322.23
101323.01
101323.77
101324.6
101325.36
101326.23
101327.05
101328
101328.76
101329.6
101330.09
101330.71
101330.93
101331.37
101331.61
101332
101332.13
101333.74
101334.11
101336.4
101337.21
101339.58
101336.98
101343.74
101334.63
101370.21
100993.38
101002.29
101010.59
101018.7
101025.94
101032.37
101038.82
101044.39
101049.32
101053.98
101058.16
101062.01
101065.53
101068.79
101071.83
101074.71
101077.48
101080.18
101082.88
101085.63
101088.46
101091.43
101094.58
101097.94
101101.54
101105.38
101109.5
101113.91
101118.58
101123.5
101128.68
101134.06
101139.66
101145.4
101151.27
101157.24
101163.17
101169.05
101174.89
101180.47
101185.94
101191.07
101195.96
101200.46
101204.62
101208.41
101211.82
101214.87
101217.48
101220.05
101222.04
101223.72
101225.31
101226.57
101227.7
101228.6
101229.45
101230.29
101231.06
101231.93
101232.8
101233.76
101234.86
101236.12
101237.55
101239.16
101240.94
101242.85
101244.87
101246.94
101249.03
101251.06
101253
101254.71
101256.35
101257.9
101259.22
101260.34
101261.29
101262.03
101262.63
101263.08
101263.46
101263.78
101264.19
101264.49
101264.98
101265.43
101266.02
101266.67
101267.38
101268.15
101268.94
101269.79
101270.72
101271.75
101272.87
101274.09
101275.43
101276.86
101278.35
101279.84
101281.25
101282.52
101283.63
101284.52
101285.18
101285.62
101285.92
101286.16
101286.41
101286.78
101287.29
101288
101288.92
101290.01
101291.22
101292.54
101293.93
101295.36
101296.78
101298.18
101299.54
101300.83
101302.04
101303.14
101304.11
101304.92
101305.55
101306.03
101306.38
101306.66
101306.93
101307.25
101307.69
101308.28
101309.01
101309.9
101310.91
101311.99
101313.09
101314.18
101315.22
101316.18
101317.03
101317.78
101318.38
101318.89
101319.28
101319.64
101319.97
101320.39
101320.86
101321.48
101322.15
101322.92
101323.68
101324.51
101325.27
101326.14
101326.96
101327.91
101328.67
101329.5
101329.99
101330.61
101330.82
101331.26
101331.49
101331.88
101332
101333.58
101333.87
101336.24
101337.05
101339.44
101336.65
101343.5
101333.8
101369.63
100993.45
101002.71
101011.01
101018.57
101026.29
101032.74
101038.97
101044.46
101049.43
101054.08
101058.3
101062.19
101065.76
101069.08
101072.19
101075.15
101078.02
101080.82
101083.63
101086.48
101089.43
101092.51
101095.77
101099.23
101102.92
101106.86
101111.05
101115.51
101120.22
101125.17
101130.36
101135.73
101141.3
101146.99
101152.79
101158.66
101164.49
101170.26
101175.96
101181.41
101186.73
101191.73
101196.47
101200.84
101204.88
101208.55
101211.85
101214.81
101217.36
101219.81
101221.74
101223.42
101224.93
101226.17
101227.28
101228.18
101229.03
101229.87
101230.67
101231.56
101232.46
101233.47
101234.62
101235.94
101237.43
101239.11
101240.94
101242.91
101244.97
101247.09
101249.2
101251.25
101253.2
101254.92
101256.57
101258.08
101259.38
101260.47
101261.39
101262.09
101262.66
101263.08
101263.44
101263.73
101264.12
101264.41
101264.89
101265.34
101265.92
101266.55
101267.27
101268.03
101268.82
101269.67
101270.62
101271.65
101272.78
101274.02
101275.37
101276.82
101278.31
101279.82
101281.24
101282.51
101283.62
101284.51
101285.17
101285.6
101285.9
101286.14
101286.39
101286.75
101287.26
101287.98
101288.89
101289.97
101291.19
101292.49
101293.88
101295.3
101296.72
101298.12
101299.48
101300.78
101301.99
101303.1
101304.07
101304.88
101305.52
101305.99
101306.34
101306.62
101306.88
101307.21
101307.64
101308.23
101308.96
101309.84
101310.85
101311.93
101313.03
101314.12
101315.16
101316.12
101316.97
101317.72
101318.32
101318.82
101319.21
101319.57
101319.9
101320.31
101320.78
101321.39
101322.06
101322.83
101323.59
101324.42
101325.18
101326.06
101326.87
101327.82
101328.58
101329.39
101329.9
101330.52
101330.72
101331.16
101331.37
101331.76
101331.87
101333.41
101333.62
101336.08
101336.88
101339.3
101336.33
101343.24
101332.98
101369.01
100993.26
101002.84
101011.2
101018.71
101026.22
101032.74
101038.85
101044.36
101049.38
101054.06
101058.32
101062.26
101065.89
101069.28
101072.48
101075.54
101078.5
101081.42
101084.34
101087.31
101090.38
101093.58
101096.95
101100.52
101104.31
101108.33
101112.6
101117.12
101121.87
101126.84
101132.03
101137.39
101142.91
101148.55
101154.27
101160.04
101165.77
101171.42
101176.98
101182.31
101187.47
101192.34
101196.93
101201.17
101205.08
101208.64
101211.84
101214.7
101217.19
101219.54
101221.41
101223.07
101224.52
101225.74
101226.82
101227.72
101228.58
101229.43
101230.25
101231.16
101232.1
101233.15
101234.36
101235.74
101237.29
101239.03
101240.92
101242.94
101245.05
101247.2
101249.34
101251.41
101253.37
101255.11
101256.76
101258.25
101259.52
101260.59
101261.47
101262.14
101262.68
101263.08
101263.41
101263.69
101264.05
101264.33
101264.8
101265.24
101265.81
101266.44
101267.15
101267.91
101268.71
101269.56
101270.51
101271.55
101272.69
101273.94
101275.31
101276.77
101278.28
101279.79
101281.22
101282.5
101283.61
101284.49
101285.15
101285.59
101285.88
101286.12
101286.37
101286.73
101287.24
101287.95
101288.85
101289.94
101291.15
101292.45
101293.83
101295.25
101296.66
101298.06
101299.43
101300.73
101301.95
101303.06
101304.04
101304.85
101305.49
101305.96
101306.3
101306.58
101306.84
101307.16
101307.6
101308.18
101308.91
101309.79
101310.79
101311.87
101312.97
101314.06
101315.1
101316.06
101316.91
101317.66
101318.26
101318.76
101319.14
101319.5
101319.82
101320.23
101320.7
101321.31
101321.98
101322.75
101323.5
101324.34
101325.1
101325.97
101326.79
101327.74
101328.5
101329.29
101329.8
101330.42
101330.62
101331.05
101331.25
101331.64
101331.75
101333.23
101333.38
101335.9
101336.7
101339.16
101336.02
101342.97
101332.17
101368.37
100993.21
101002.62
101010.94
101018.57
101025.91
101032.47
101038.56
101044.11
101049.18
101053.89
101058.21
101062.2
101065.91
101069.39
101072.69
101075.85
101078.93
101081.97
101085.02
101088.11
101091.31
101094.63
101098.12
101101.8
101105.69
101109.8
101114.14
101118.72
101123.5
101128.5
101133.68
101139.02
101144.5
101150.08
101155.72
101161.38
101167
101172.53
101177.95
101183.15
101188.16
101192.89
101197.34
101201.45
101205.24
101208.68
101211.78
101214.56
101216.97
101219.23
101221.05
101222.68
101224.08
101225.28
101226.34
101227.24
101228.11
101228.96
101229.8
101230.74
101231.72
101232.82
101234.08
101235.52
101237.13
101238.93
101240.87
101242.95
101245.1
101247.29
101249.46
101251.55
101253.52
101255.27
101256.92
101258.4
101259.65
101260.69
101261.55
101262.19
101262.7
101263.07
101263.38
101263.64
101263.98
101264.26
101264.71
101265.14
101265.71
101266.33
101267.03
101267.79
101268.59
101269.44
101270.39
101271.45
101272.6
101273.86
101275.24
101276.71
101278.23
101279.76
101281.19
101282.48
101283.59
101284.47
101285.13
101285.57
101285.86
101286.1
101286.35
101286.71
101287.22
101287.92
101288.83
101289.9
101291.11
101292.4
101293.78
101295.19
101296.6
101298
101299.37
101300.67
101301.9
101303.02
101304
101304.81
101305.45
101305.92
101306.27
101306.54
101306.8
101307.12
101307.55
101308.13
101308.86
101309.73
101310.73
101311.81
101312.91
101314
101315.04
101316
101316.85
101317.6
101318.19
101318.69
101319.07
101319.43
101319.75
101320.16
101320.62
101321.23
101321.89
101322.66
101323.42
101324.25
101325.01
101325.89
101326.71
101327.65
101328.41
101329.2
101329.71
101330.33
101330.52
101330.95
101331.12
101331.53
101331.64
101333.06
101333.14
101335.7
101336.49
101339
101335.72
101342.68
101331.37
101367.71
100992.9
101002.14
101010.44
101018.15
101025.41
101032.01
101038.1
101043.68
101048.81
101053.57
101057.95
101062.02
101065.82
101069.4
101072.81
101076.09
101079.29
101082.46
101085.64
101088.88
101092.2
101095.66
101099.28
101103.07
101107.06
101111.26
101115.67
101120.3
101125.12
101130.13
101135.31
101140.62
101146.06
101151.57
101157.13
101162.68
101168.19
101173.6
101178.88
101183.93
101188.8
101193.39
101197.7
101201.69
101205.36
101208.69
101211.69
101214.37
101216.72
101218.89
101220.66
101222.25
101223.61
101224.79
101225.83
101226.73
101227.6
101228.46
101229.34
101230.29
101231.32
101232.47
101233.78
101235.27
101236.95
101238.79
101240.8
101242.92
101245.12
101247.35
101249.54
101251.66
101253.64
101255.42
101257.07
101258.52
101259.76
101260.77
101261.61
101262.23
101262.71
101263.06
101263.35
101263.59
101263.91
101264.18
101264.62
101265.04
101265.6
101266.22
101266.92
101267.67
101268.47
101269.33
101270.28
101271.34
101272.51
101273.78
101275.17
101276.65
101278.18
101279.72
101281.15
101282.45
101283.56
101284.45
101285.1
101285.55
101285.84
101286.08
101286.33
101286.69
101287.19
101287.9
101288.8
101289.87
101291.07
101292.36
101293.73
101295.13
101296.54
101297.94
101299.31
101300.62
101301.85
101302.97
101303.96
101304.77
101305.42
101305.89
101306.23
101306.5
101306.76
101307.08
101307.51
101308.09
101308.81
101309.68
101310.68
101311.75
101312.85
101313.94
101314.98
101315.94
101316.79
101317.54
101318.13
101318.63
101319.01
101319.36
101319.68
101320.08
101320.54
101321.15
101321.81
101322.58
101323.34
101324.17
101324.93
101325.81
101326.62
101327.57
101328.33
101329.1
101329.63
101330.23
101330.42
101330.84
101330.99
101331.41
101331.54
101332.9
101332.92
101335.49
101336.24
101338.84
101335.43
101342.39
101330.58
101367.03
100982.64
100992.3
101001.43
101009.73
101017.48
101024.71
101031.33
101037.45
101043.08
101048.27
101053.08
101057.54
101061.7
101065.6
101069.29
101072.82
101076.23
101079.57
101082.88
101086.21
101089.59
101093.06
101096.65
101100.4
101104.31
101108.41
101112.7
101117.18
101121.86
101126.72
101131.74
101136.91
101142.2
101147.58
101153.02
101158.49
101163.94
101169.33
101174.61
101179.75
101184.67
101189.39
101193.85
101198.02
101201.88
101205.43
101208.65
101211.56
101214.15
101216.43
101218.52
101220.24
101221.79
101223.11
101224.27
101225.29
101226.2
101227.08
101227.95
101228.85
101229.83
101230.89
101232.09
101233.46
101235
101236.73
101238.64
101240.69
101242.87
101245.11
101247.38
101249.6
101251.74
101253.74
101255.54
101257.19
101258.63
101259.85
101260.85
101261.66
101262.26
101262.72
101263.04
101263.32
101263.55
101263.85
101264.11
101264.53
101264.95
101265.5
101266.11
101266.81
101267.56
101268.36
101269.22
101270.17
101271.24
101272.41
101273.69
101275.09
101276.59
101278.13
101279.67
101281.11
101282.42
101283.53
101284.42
101285.08
101285.52
101285.82
101286.06
101286.31
101286.67
101287.17
101287.88
101288.77
101289.84
101291.03
101292.32
101293.67
101295.08
101296.48
101297.88
101299.25
101300.56
101301.8
101302.93
101303.91
101304.73
101305.38
101305.85
101306.2
101306.47
101306.72
101307.04
101307.47
101308.04
101308.76
101309.63
101310.62
101311.7
101312.79
101313.88
101314.92
101315.89
101316.74
101317.48
101318.07
101318.56
101318.94
101319.29
101319.61
101320.01
101320.46
101321.07
101321.73
101322.5
101323.25
101324.08
101324.85
101325.72
101326.54
101327.49
101328.25
101329.01
101329.54
101330.14
101330.32
101330.74
101330.86
101331.3
101331.44
101332.75
101332.7
101335.25
101335.94
101338.68
101335.15
101342.08
101329.81
101366.33
100981.78
100991.43
101000.49
101008.81
101016.57
101023.79
101030.45
101036.6
101042.28
101047.54
101052.42
101056.97
101061.23
101065.25
101069.06
101072.72
101076.27
101079.76
101083.22
101086.7
101090.24
101093.86
101097.6
101101.47
101105.51
101109.72
101114.1
101118.66
101123.4
101128.28
101133.32
101138.47
101143.73
101149.06
101154.43
101159.81
101165.15
101170.42
101175.57
101180.57
101185.36
101189.94
101194.25
101198.29
101202.03
101205.46
101208.58
101211.39
101213.9
101216.11
101218.12
101219.8
101221.31
101222.58
101223.72
101224.73
101225.64
101226.54
101227.42
101228.34
101229.35
101230.45
101231.7
101233.11
101234.71
101236.5
101238.45
101240.56
101242.79
101245.07
101247.38
101249.64
101251.8
101253.82
101255.63
101257.29
101258.73
101259.93
101260.91
101261.7
101262.28
101262.72
101263.03
101263.28
101263.5
101263.78
101264.04
101264.44
101264.86
101265.4
101266.01
101266.7
101267.44
101268.25
101269.11
101270.06
101271.14
101272.31
101273.61
101275.01
101276.52
101278.06
101279.61
101281.07
101282.38
101283.5
101284.39
101285.05
101285.49
101285.8
101286.04
101286.29
101286.65
101287.15
101287.85
101288.74
101289.8
101290.99
101292.27
101293.62
101295.02
101296.42
101297.82
101299.19
101300.5
101301.74
101302.88
101303.87
101304.69
101305.34
101305.82
101306.16
101306.43
101306.69
101307
101307.42
101308
101308.71
101309.57
101310.57
101311.64
101312.74
101313.83
101314.86
101315.83
101316.68
101317.42
101318.01
101318.5
101318.88
101319.22
101319.54
101319.94
101320.39
101320.99
101321.65
101322.42
101323.17
101324
101324.77
101325.64
101326.46
101327.41
101328.17
101328.92
101329.46
101330.04
101330.22
101330.63
101330.73
101331.2
101331.35
101332.61
101332.5
101334.98
101335.6
101338.52
101334.88
101341.77
101329.05
101365.63
100980.66
100990.29
100999.31
101007.64
101015.43
101022.65
101029.34
101035.54
101041.28
101046.62
101051.59
101056.24
101060.61
101064.75
101068.7
101072.5
101076.2
101079.85
101083.48
101087.12
101090.81
101094.59
101098.48
101102.5
101106.66
101110.98
101115.46
101120.1
101124.88
101129.81
101134.85
101139.99
101145.22
101150.49
101155.79
101161.08
101166.31
101171.46
101176.48
101181.34
101185.99
101190.43
101194.61
101198.52
101202.14
101205.46
101208.47
101211.19
101213.62
101215.76
101217.7
101219.31
101220.78
101222.04
101223.16
101224.16
101225.08
101225.97
101226.87
101227.81
101228.85
101229.99
101231.28
101232.75
101234.4
101236.24
101238.25
101240.41
101242.68
101245.01
101247.35
101249.64
101251.83
101253.87
101255.7
101257.37
101258.8
101260
101260.96
101261.73
101262.3