/*--------------------------------*- C++ -*----------------------------------*\
| =========                 |                                                 |
| \\      /  F ield         | OpenFOAM: The Open Source CFD Toolbox           |
|  \\    /   O peration     | Version:  2406                                  |
|   \\  /    A nd           | Website:  www.openfoam.com                      |
|    \\/     M anipulation  |                                                 |
\*---------------------------------------------------------------------------*/
FoamFile
{
    version     2.0;
    format      ascii;
    arch        "LSB;label=32;scalar=64";
    class       surfaceScalarField;
    location    "0.01";
    object      phi;
}
// * * * * * * * * * * * * * * * * * * * * * * * * * * * * * * * * * * * * * //

dimensions      [1 0 -1 0 0 0 0];

oriented        oriented;

internalField   nonuniform List<scalar> 
17669
(
0.0055251251
0.0016655755
-0.0016691554
0.0055326433
0.0015405463
-0.0015478249
0.0055436
0.0014138706
-0.0014246277
0.0055578593
0.0012861437
-0.0013002535
0.0055751438
0.0011584403
-0.0011756162
0.005595098
0.0010321213
-0.0010520224
0.005617372
0.00090834255
-0.0009306302
0.0056416136
0.00078831766
-0.00081264017
0.0056674067
0.00067340265
-0.00069933901
0.0056942937
0.00056514134
-0.00059223032
0.0057218538
0.0004650737
-0.00049288841
0.005749067
0.00037527409
-0.00040278164
0.0057756632
0.00029583955
-0.00032275884
0.0058024634
0.00022764289
-0.00025480974
0.0058288438
0.00017201758
-0.00019881358
0.0058537153
0.00012956997
-0.00015488493
0.0058765002
0.00010217267
-0.00012541485
0.0058967528
9.0969464e-05
-0.00011168852
0.0059140761
9.6819216e-05
-0.00011461136
0.0059281377
0.00012027612
-0.00013480364
0.0059386987
0.00016158629
-0.00017260707
0.0059457077
0.00022054604
-0.00022799686
0.0059494146
0.00029609225
-0.00030021637
0.0059489647
0.00038578924
-0.00038579088
0.0059440974
0.00049161795
-0.00048714154
0.0059363429
0.00061194546
-0.00060456946
0.005924035
0.0007401615
-0.00072820307
0.0059087354
0.00088144922
-0.00086645044
0.0058901007
0.0010266499
-0.0010083093
0.0058684989
0.0011779321
-0.0011565473
0.0058444337
0.0013310307
-0.0013071273
0.0058187593
0.0014819395
-0.001456408
0.0057916628
0.0016282217
-0.0016012253
0.0057636951
0.0017666072
-0.0017386671
0.0057355455
0.001893329
-0.0018651503
0.0057076384
0.0020065862
-0.0019786039
0.0056807253
0.0021026986
-0.0020756737
0.0056553073
0.0021803799
-0.0021548214
0.0056320527
0.002236991
-0.0022135802
0.0056115165
0.0022713462
-0.0022506526
0.0055942255
0.0022827326
-0.0022653001
0.0055807949
0.0022706333
-0.0022570904
0.0055717713
0.0022340418
-0.0022249449
0.0055671913
0.0021744493
-0.002169843
0.0055672697
0.0020949747
-0.0020950798
0.0055725242
0.0019924035
-0.0019977391
0.0055825697
0.0018743395
-0.0018845368
0.0055974933
0.0017385076
-0.0017535915
0.0056170239
0.001588448
-0.0016082714
0.0056409097
0.0014253575
-0.0014496088
0.0056688073
0.0012520459
-0.0012803704
0.005700274
0.0010722631
-0.0011042192
0.0057345856
0.00088658211
-0.00092144713
0.005769189
0.00070218952
-0.0007373876
0.0058047168
0.00052708279
-0.00056324661
0.005841956
0.00035711013
-0.00039502297
0.0058822993
0.00019874036
-0.00023978021
0.0059256068
4.1261086e-05
-8.5300256e-05
0.0059691085
-0.00011233477
6.812041e-05
0.0060110686
-0.00025015168
0.00020750713
0.0060508005
-0.00036551297
0.00032513196
0.0060878898
-0.00045419483
0.00041649738
0.0061219602
-0.00051313481
0.00047850004
0.0061526523
-0.00053985146
0.00050863849
0.0061796501
-0.00053257573
0.00050509719
0.0062027709
-0.00049027748
0.00046671066
0.0062220527
-0.00041345573
0.00039375358
0.0062379378
-0.00030461336
0.00028832436
0.006251193
-0.00016988358
0.00015624247
0.0062616395
-1.9581197e-05
8.6711135e-06
0.0062675673
0.00014102809
-0.00014738124
0.0062707562
0.00032504984
-0.00032860532
0.0062758832
0.00052095539
-0.0005264752
0.0062839707
0.00069917638
-0.0007076704
0.0062949696
0.00085292963
-0.0008643445
0.0063097053
0.00098076243
-0.0009959168
0.0063285033
0.0010718262
-0.001091042
0.0063516829
0.0011284159
-0.0011520092
0.0063800538
0.0011470774
-0.0011758497
0.0064129478
0.0011204286
-0.0011537116
0.0064490046
0.0010572742
-0.001093678
0.0064889907
0.00096910515
-0.0010093957
0.0065314758
0.00084487004
-0.00088761964
0.0065760432
0.00070332388
-0.00074810449
0.0066221014
0.00054504043
-0.00059129015
0.0066692106
0.00037957623
-0.00042685278
0.0067177117
0.00021343531
-0.00026210216
0.0067674283
4.7109161e-05
-9.7011828e-05
0.0068172607
-0.00011695089
6.6900178e-05
0.0068659379
-0.00027078085
0.00022184739
0.006912815
-0.00040369751
0.00035652447
0.0069577425
-0.0005078282
0.00046257019
0.0070007513
-0.00057819156
0.00053483189
0.0070420071
-0.00061192475
0.00057031989
0.0070818121
-0.00060849766
0.00056837137
0.0071205974
-0.00056957295
0.00053051887
0.0071588301
-0.00049916837
0.00046073679
0.0071969848
-0.0004033084
0.00036503224
0.0072354893
-0.00029002511
0.00025146843
0.0072745954
-0.00017006687
0.0001309401
0.0073152107
-4.9766314e-05
9.2262051e-06
0.0073584787
5.8963918e-05
-0.00010225745
0.0074044817
0.000139859
-0.00018595174
0.0074525823
0.00018554023
-0.00023379756
0.0075021934
0.00019570103
-0.0002455248
0.0075531296
0.00017551276
-0.00022669489
0.0076054313
0.00012883687
-0.00018138732
0.0076589435
5.8171991e-05
-0.00011190271
0.0077134825
-3.0443908e-05
-2.4249787e-05
0.0077687391
-0.00013104263
7.5718594e-05
0.0078242965
-0.00023567107
0.00018014261
0.0078798265
-0.00033563392
0.00028022268
0.0079351458
-0.00042372647
0.00036859973
0.00799002
-0.00049513758
0.0004405105
0.0080441176
-0.00054499752
0.00049118125
0.008097308
-0.00056755219
0.00051465734
0.0081497553
-0.0005605654
0.00050841583
0.0082017671
-0.00052743517
0.00047571576
0.0082537062
-0.00047513447
0.00042347514
0.0083059784
-0.00041239049
0.00036037647
0.0083588199
-0.00034945955
0.00029684336
0.008412179
-0.00029440901
0.00024123103
0.0084661783
-0.00025073135
0.00019685348
0.0085212489
-0.00022231393
0.00016729357
0.0085776509
-0.00021322015
0.00015679283
0.0086353163
-0.0002248569
0.00016708839
0.008694051
-0.00025541525
0.00019651041
0.0087537178
-0.00029951038
0.00023962764
0.0088142556
-0.0003507332
0.00028996273
0.008875637
-0.00040299753
0.00034140264
0.0089378873
-0.00045096678
0.00038855646
0.0090009969
-0.00049174756
0.00042855785
0.0090648098
-0.00052389412
0.00046009129
0.0091291642
-0.00054437704
0.00048012172
0.0091940602
-0.00055062192
0.00048589574
0.0092595868
-0.00054464619
0.00047932639
0.0093258262
-0.00053107753
0.00046504608
0.009392839
-0.00051432347
0.00044749108
0.0094606544
-0.00049712362
0.00042944154
0.0095293059
-0.00048207228
0.00041349113
0.0095988302
-0.00047171539
0.00040219077
0.0096693408
-0.00046781719
0.00039723629
0.0097409703
-0.00047025
0.00039848439
0.0098137413
-0.00047951908
0.00040655193
0.0098876615
-0.00049310435
0.00041893903
0.0099628404
-0.0005093364
0.00043388034
0.010039357
-0.00052603317
0.00044923306
0.010117238
-0.00054282632
0.00046468346
0.010196568
-0.00055651453
0.00047697297
0.010277486
-0.00056856321
0.00048749994
0.010360005
-0.0005776786
0.0004950802
0.010444166
-0.0005848017
0.00050060358
0.010529947
-0.00059044823
0.00050464614
0.010617416
-0.00059608078
0.00050859104
0.010706478
-0.00060110136
0.00051198636
0.010797125
-0.00060579668
0.00051504137
0.010889279
-0.00060951445
0.00051721001
0.010983018
-0.00061315013
0.00051921068
0.01107816
-0.0006176926
0.00052225432
0.011174775
-0.00062242821
0.00052534904
0.011272759
-0.00062818365
0.00052962678
0.011372092
-0.00063172817
0.00053148788
0.011472583
-0.00062807707
0.00052639315
0.011574748
-0.00063223245
0.00052869274
0.011678155
-0.00062746712
0.00052256801
0.011783804
-0.00063530448
0.00052811699
0.011890792
-0.00063367769
0.00052515844
0.012000009
-0.00062690677
0.0005159599
0.012109792
-0.00063283561
0.00052101212
0.012222075
-0.00061073885
0.0004963101
0.012334746
-0.00061098265
0.00049661322
0.012451226
-0.00056189563
0.00044392524
0.012565914
-0.00057338793
0.00045717301
0.012682644
-0.00047383347
0.00035470266
0.01280029
-0.00046066795
0.00034017284
0.012927913
-0.00039796752
0.00026769675
-0.0006611405
0.00053963557
0.0054846371
0.0017848333
0.0054915656
0.0016589158
0.0055020926
0.001530252
0.0055159392
0.0014002097
0.0055329956
0.0012692169
0.005552919
0.0011386044
0.0055753549
0.0010097131
0.0055999591
0.00088369625
0.0056263843
0.00076178156
0.0056542391
0.00064537333
0.0056831075
0.00053604076
0.0057117408
0.00043616495
0.0057401499
0.00034656054
0.0057690861
0.00026655036
0.0057977692
0.00019855564
0.0058254526
0.00014389362
0.005851543
0.00010301875
0.0058755007
7.7741804e-05
0.0058969034
6.9086044e-05
0.005915395
7.784658e-05
0.005930686
0.00010450882
0.005942592
0.00014921221
0.0059510827
0.00021160573
0.0059561918
0.00029054902
0.0059572283
0.00038430714
0.0059542794
0.00049417744
0.0059482697
0.00061757706
0.0059381128
0.00074998052
0.0059251079
0.00089414718
0.0059087015
0.0010427685
0.0058894961
0.0011968971
0.005868186
0.0013521931
0.0058454747
0.0015045418
0.0058212451
0.0016523563
0.0057964161
0.0017914127
0.00577154
0.0019182319
0.0057470002
0.0020311972
0.0057235884
0.0021262154
0.0057017664
0.0022023315
0.0056822163
0.0022566832
0.0056654446
0.00228826
0.0056519688
0.0022963331
0.0056423836
0.0022803147
0.0056371419
0.0022393423
0.0056361892
0.0021754157
0.0056397776
0.0020913489
0.0056483808
0.0019837106
0.0056614622
0.0018610983
0.0056791106
0.001720706
0.0057010684
0.0015661792
0.0057270376
0.0013990111
0.0057566989
0.0012219476
0.0057895732
0.001038889
0.0058240086
0.00085157942
0.0058588742
0.00066673171
0.0058956861
0.00048962066
0.0059339222
0.00031818273
0.0059750344
0.0001569211
0.0060183587
-2.7922035e-06
0.0060613232
-0.00015601273
0.0061025864
-0.00029209905
0.0061415858
-0.00040515992
0.0061779485
-0.00049116306
0.006211339
-0.00054708634
0.0062414525
-0.00057048221
0.0062680471
-0.00055964798
0.0062910319
-0.00051370628
0.0063105503
-0.00043339457
0.0063271025
-0.00032157267
0.0063413483
-0.00018452898
0.0063530424
-3.1729674e-05
0.0063610453
0.00013259382
0.0063674062
0.00031830549
0.0063762249
0.0005117215
0.0063881721
0.00068679997
0.0064031648
0.00083749666
0.0064219484
0.00096153687
0.0064446902
0.0010486453
0.0064716982
0.0011009761
0.0065035404
0.0011148181
0.006539327
0.001084242
0.006577947
0.0010183006
0.0066200245
0.00092671922
0.0066642103
0.00080041982
0.006710119
0.00065720298
0.0067572185
0.00049775262
0.0068051685
0.00033146186
0.0068542533
0.00016418727
0.0069041966
-3.0160607e-06
0.0069539365
-0.00016690612
0.0070023539
-0.00031945091
0.0070489268
-0.00045056197
0.0070935802
-0.00055280672
0.0071363996
-0.00062135488
0.0071775981
-0.00065346368
0.0072175139
-0.00064872519
0.0072565927
-0.00060891136
0.0072952994
-0.00053806669
0.0073340993
-0.00044222628
0.0073734167
-0.00032939708
0.0074135389
-0.00021021504
0.00745533
-9.1541821e-05
0.0074997216
1.4530522e-05
0.0075466331
9.2841184e-05
0.0075954393
0.00013656028
0.0076455723
0.00014533947
0.0076968523
0.00012397341
0.0077493
7.6130218e-05
0.0078027561
4.4913132e-06
0.0078570387
-8.4883403e-05
0.0079118522
-0.00018592285
0.0079668225
-0.00029060898
0.0080216661
-0.00039035334
0.0080762292
-0.00047809052
0.008130314
-0.00054896898
0.0081836371
-0.00059803308
0.0082361096
-0.00061972392
0.008287922
-0.00061207624
0.0083393878
-0.00057860633
0.008390859
-0.00052632516
0.0084426995
-0.00046397309
0.0084950925
-0.00040162836
0.0085479792
-0.00034711602
0.0086014611
-0.00030409287
0.0086559091
-0.00027671297
0.0087115459
-0.00026888444
0.0087682962
-0.00028171247
0.0088259819
-0.00031327313
0.0088844881
-0.00035823391
0.0089437749
-0.00041025267
0.0090038388
-0.00046327316
0.0090647247
-0.00051200888
0.0091264369
-0.00055353429
0.0091888393
-0.00058627952
0.0092517974
-0.0006072283
0.0093153253
-0.00061397154
0.0093795057
-0.00060861115
0.0094444007
-0.00059575607
0.0095100432
-0.00057977692
0.0095764437
-0.00056338323
0.0096436256
-0.00054917715
0.0097116215
-0.00053970607
0.0097805314
-0.00053679252
0.0098504739
-0.00054032481
0.0099214798
-0.00055071788
0.0099935768
-0.00056544308
0.010066882
-0.00058291504
0.010141476
-0.00060090598
0.010217399
-0.00061900437
0.010294755
-0.00063407439
0.010373675
-0.00064762014
0.01045417
-0.00065824385
0.010536277
-0.00066693698
0.01061997
-0.00067415441
0.010705298
-0.00068142433
0.010792161
-0.00068801371
0.010880542
-0.00069428386
0.010970371
-0.00069949378
0.011061711
-0.0007046934
0.011154388
-0.00071066953
0.011248459
-0.00071696691
0.011343834
-0.00072413744
0.011440496
-0.00072929612
0.011538274
-0.00072705611
0.011637651
-0.00073298611
0.011738236
-0.00072954088
0.011840971
-0.00073957088
0.011945003
-0.00073923701
0.012051214
-0.00073484107
0.012157988
-0.00074161602
0.012267172
-0.00072208439
0.012376653
-0.00072219247
0.012490104
-0.00067686256
0.012601574
-0.00068634026
0.012715316
-0.00058996959
0.012830237
-0.00057843151
0.012954699
-0.00052507127
-0.00077929778
0.005425996
0.0017781665
0.0054365536
0.0016486203
0.0054506005
0.0015164288
0.0054678056
0.0013831722
0.0054881053
0.0012490239
0.005511063
0.0011157094
0.0055363614
0.0009844151
0.0055636713
0.00085631695
0.0055926923
0.00073262133
0.0056230646
0.00061479921
0.0056534193
0.0005054361
0.0056836368
0.00040566905
0.0057148469
0.00031502051
0.005746123
0.00023488533
0.0057765715
0.00016768062
0.0058059422
0.00011406807
0.0058336209
7.4867738e-05
0.0058591286
5.1750883e-05
0.0058820843
4.5641813e-05
0.0059021654
5.7278432e-05
0.0059191214
8.7072174e-05
0.0059327991
0.00013506374
0.0059431505
0.0002008008
0.0059500952
0.0002831626
0.0059531155
0.0003808497
0.0059524601
0.00049444546
0.0059486696
0.00062099449
0.0059410373
0.00075728282
0.0059305955
0.00090428303
0.005917014
0.001056073
0.0059007521
0.0012129257
0.0058823722
0.0013704029
0.005863
0.0015238067
0.0058421472
0.0016731404
0.0058207092
0.0018128315
0.0057994769
0.0019394856
0.0057786433
0.002052094
0.005759083
0.0021458705
0.0057411869
0.0022203427
0.0057256658
0.002272329
0.0057129443
0.002301105
0.0057035432
0.0023058402
0.0056980266
0.0022859098
0.0056967394
0.0022406724
0.0056995577
0.0021725973
0.0057067685
0.0020840889
0.0057188065
0.0019715728
0.005734946
0.001844791
0.0057553368
0.0017001666
0.005779744
0.0015414362
0.0058078215
0.0013705451
0.0058393493
0.0011899724
0.0058729259
0.0010048047
0.0059078221
0.00081611435
0.0059440183
0.00062993957
0.0059818134
0.00045115521
0.0060210058
0.00027829039
0.0060628003
0.00011441212
0.0061060828
-4.6807245e-05
0.0061486195
-0.00019925998
0.0061893511
-0.00033351071
0.0062278044
-0.00044425535
0.0062636459
-0.00052760357
0.0062965853
-0.0005805795
0.0063263769
-0.00060078426
0.0063528565
-0.00058659917
0.006376024
-0.00053731373
0.0063961152
-0.00045390484
0.0064136669
-0.00033953426
0.006429263
-0.00020053597
0.0064426499
-4.5564684e-05
0.0064531363
0.00012166826
0.0064629731
0.00030806657
0.0064756558
0.00049860042
0.0064915437
0.00067045904
0.006510563
0.00081801281
0.0065333664
0.00093826806
0.0065599892
0.0010215616
0.0065906924
0.0010698219
0.0066258122
0.0010792655
0.0066643354
0.001045308
0.006705366
0.00097691004
0.0067494366
0.0008823362
0.0067952139
0.00075437796
0.0068423787
0.0006098266
0.0068904602
0.00044948571
0.0069391988
0.00028256161
0.0069888109
0.0001144141
0.0070389471
-5.3331896e-05
0.0070886132
-0.00021678477
0.0071368296
-0.00036791612
0.007183182
-0.0004972012
0.007227659
-0.00059760268
0.0072703942
-0.00066442613
0.007311639
-0.00069503942
0.0073517582
-0.00068914577
0.0073912045
-0.0006486075
0.0074304381
-0.00057748436
0.0074699142
-0.00048181688
0.0075100571
-0.00036959698
0.007551177
-0.00025136766
0.0075940663
-0.00013444842
0.0076394662
-3.0926809e-05
0.0076871763
4.5007864e-05
0.0077365838
8.6961785e-05
0.0077871448
9.453401e-05
0.0078386817
7.216379e-05
0.0078911969
2.3346317e-05
0.0079445276
-4.9069934e-05
0.0079984981
-0.00013901266
0.0080528295
-0.00024032005
0.0081071892
-0.00034493292
0.0081613363
-0.00044437104
0.0082151438
-0.00053169301
0.0082684488
-0.00060201477
0.0083210154
-0.00065030659
0.0083727928
-0.00067119585
0.0084239921
-0.00066297085
0.0084749292
-0.00062924691
0.0085259412
-0.00057705593
0.0085773495
-0.0005151239
0.0086292889
-0.00045334439
0.0086816951
-0.00039934389
0.0087346519
-0.00035693008
0.0087884661
-0.00033047961
0.0088433249
-0.00032377284
0.0088991531
-0.0003376482
0.0089557883
-0.00037008227
0.0090131361
-0.0004158003
0.0090711784
-0.00046852735
0.0091299349
-0.0005222391
0.0091894691
-0.00057169515
0.009249799
-0.00061393287
0.0093108083
-0.0006472645
0.0093723884
-0.00066869346
0.009434567
-0.00067596326
0.0094974188
-0.00067123878
0.0095609859
-0.00065909799
0.0096252754
-0.00064386895
0.0096902801
-0.00062823936
0.0097560131
-0.00061482653
0.0098225036
-0.00060618551
0.0098898372
-0.00060418689
0.0099581199
-0.00060873578
0.010027391
-0.00062017794
0.010097696
-0.0006359869
0.01016916
-0.00065464754
0.010241864
-0.00067388453
0.010315866
-0.00069325423
0.010391284
-0.00070968898
0.010468243
-0.00072470669
0.010546751
-0.00073681293
0.010626842
-0.00074704748
0.010708486
-0.00075580386
0.010791714
-0.00076466247
0.010876422
-0.00077276662
0.010962583
-0.0007805489
0.011050134
-0.00078719626
0.011139126
-0.00079389095
0.011229392
-0.0008012384
0.011320975
-0.00080902156
0.011413801
-0.00081754371
0.011507853
-0.00082425441
0.011602983
-0.00082339382
0.011699639
-0.00083102073
0.01179747
-0.00082885776
0.011897357
-0.00084098445
0.011998506
-0.00084190566
0.012101792
-0.00083983202
0.012205639
-0.00084743321
0.012311806
-0.0008304312
0.012418181
-0.00083032656
0.012528679
-0.000788903
0.012637018
-0.00079611855
0.012747887
-0.00070322767
0.012860102
-0.00069348624
0.012981641
-0.00064925214
-0.00089403811
0.005349066
0.0017672896
0.0053636923
0.0016342484
0.005381639
0.0014987
0.005402539
0.0013624201
0.0054263854
0.0012252611
0.0054526058
0.0010895276
0.0054810041
0.00095598995
0.0055112972
0.00082593096
0.0055432265
0.00070053063
0.0055753479
0.00058246189
0.0056075368
0.00047299892
0.0056409074
0.00037199944
0.0056747464
0.00028081477
0.0057079841
0.00020123902
0.0057404077
0.00013481823
0.0057716374
8.2374271e-05
0.0058010967
4.4928684e-05
0.0058283729
2.3985705e-05
0.0058531222
2.0400069e-05
0.0058750562
3.4855144e-05
0.0058939573
6.768946e-05
0.0059096902
0.00011886025
0.0059221849
0.00018785148
0.0059313092
0.00027359512
0.0059367056
0.00037502461
0.0059386714
0.00049209484
0.0059375063
0.00062179212
0.005932781
0.00076168344
0.0059253096
0.00091145229
0.0059148678
0.0010662469
0.0059020935
0.0012254747
0.0058875202
0.001384801
0.005871155
0.0015400413
0.0058543048
0.0016899368
0.0058369331
0.0018301792
0.0058197126
0.0019567247
0.0058029998
0.0020688588
0.0057877312
0.0021612206
0.0057741792
0.0022339907
0.0057631055
0.002283507
0.0057547704
0.0023095346
0.0057497578
0.0023109391
0.0057485831
0.0022871453
0.0057514627
0.0022378204
0.0057582298
0.0021658172
0.0057692078
0.0020730511
0.0057847784
0.0019558936
0.0058040151
0.0018253811
0.0058271671
0.0016768653
0.0058541051
0.0015141401
0.0058844237
0.0013398316
0.0059171095
0.0011568342
0.0059515827
0.00096982866
0.0059879233
0.00077919748
0.0060252145
0.00059203948
0.0060639034
0.00041178426
0.0061040868
0.00023740252
0.0061464446
7.133519e-05
0.0061896641
-9.0759765e-05
0.0062318522
-0.00024215376
0.0062721661
-0.00037449914
0.0063102011
-0.00048292553
0.0063456671
-0.00056366047
0.0063783238
-0.00061378153
0.0064079908
-0.00063095334
0.0064345837
-0.00061365665
0.0064581919
-0.00056135673
0.0064791326
-0.0004752624
0.0064979654
-0.000358779
0.0065152105
-0.00021820036
0.006530664
-6.1470671e-05
0.0065440037
0.0001078798
0.0065575527
0.00029409598
0.0065742098
0.00048148173
0.0065941049
0.00065008684
0.0066171747
0.000794454
0.0066439687
0.00091098523
0.0066744085
0.00099063829
0.0067086837
0.0010350757
0.0067469118
0.0010405883
0.0067880482
0.0010037498
0.0068313911
0.00093319977
0.0068773387
0.00083607142
0.0069246043
0.00070684677
0.0069729522
0.0005612671
0.0070219572
0.00040029774
0.0070714211
0.00023293867
0.0071214967
6.417959e-05
0.0071717878
-0.00010380021
0.0072213796
-0.00026658572
0.0072694256
-0.00041620682
0.0073156052
-0.00054366221
0.0073599631
-0.00064227295
0.007402676
-0.0007074669
0.0074440277
-0.00073671253
0.0074844028
-0.0007298123
0.0075242561
-0.00068870153
0.007564042
-0.00061744752
0.0076042068
-0.00052209318
0.0076451724
-0.00041062213
0.0076872565
-0.00029349154
0.0077311714
-0.00017840094
0.0077774862
-7.7313719e-05
0.0078259076
-3.5527086e-06
0.0078758344
3.682748e-05
0.0079267477
4.3360798e-05
0.00797847
2.01557e-05
0.0080309866
-2.9448922e-05
0.0080841339
-0.00010245376
0.0081377432
-0.00019278347
0.0081915563
-0.0002941987
0.0082452811
-0.00039861937
0.0082987172
-0.00049767337
0.0083517634
-0.00058452901
0.0084042905
-0.00065427758
0.0084561087
-0.00070182686
0.0085072033
-0.00072198076
0.0085578021
-0.00071326211
0.0086082202
-0.00067936694
0.0086587774
-0.00062733151
0.0087097532
-0.00056584234
0.0087612369
-0.00050460537
0.0088131585
-0.000451088
0.0088655856
-0.00040923837
0.0089187615
-0.00038360881
0.0089728377
-0.00037788018
0.0090277436
-0.00039266328
0.0090833313
-0.00042584552
0.0091395272
-0.00047221553
0.0091963341
-0.00052556606
0.0092537947
-0.00057990685
0.0093119908
-0.00063003933
0.0093709542
-0.00067295926
0.0094305877
-0.00070686662
0.0094908081
-0.00072879112
0.0095516554
-0.00073661541
0.0096131964
-0.00073254706
0.0096754529
-0.00072112058
0.0097384083
-0.00070661838
0.009802038
-0.00069171284
0.0098663461
-0.00067904396
0.0099313559
-0.00067117834
0.0099971405
-0.000670027
0.010063794
-0.00067551306
0.010131362
-0.00068793191
0.010199911
-0.00070477009
0.010269567
-0.00072456792
0.010340419
-0.0007450047
0.010412539
-0.00076561529
0.010486059
-0.00078339732
0.010561094
-0.00079986086
0.010637654
-0.00081342514
0.010715769
-0.00082517367
0.010795405
-0.0008354376
0.010876577
-0.00084583834
0.010959175
-0.00085540532
0.011043165
-0.00086464045
0.01112849
-0.00087267254
0.011215187
-0.00088079606
0.011303096
-0.00088945471
0.011392252
-0.00089865154
0.011482591
-0.00090846226
0.011574099
-0.00091666763
0.011666647
-0.00091715577
0.011760651
-0.00092640621
0.011855798
-0.00092548935
0.011952911
-0.00093961706
0.012051252
-0.00094175877
0.012151695
-0.00094195053
0.012252704
-0.00095037282
0.012355933
-0.00093586338
0.012459293
-0.00093547723
0.012566914
-0.00089809221
0.012672222
-0.00090283674
0.012780306
-0.00081369863
0.012889876
-0.00080589401
0.013008563
-0.00077058859
-0.0010054846
0.0052399448
0.0018852891
0.0052557213
0.0017518209
0.0052747592
0.0016154545
0.0052968917
0.0014767848
0.0053217327
0.0013377014
0.0053493513
0.0011977011
0.0053789626
0.00105993
0.0054107225
0.00092417659
0.0054442737
0.00079226562
0.0054781907
0.00066644043
0.0055124692
0.00054796886
0.0055480926
0.0004371096
0.0055843242
0.00033543109
0.0056203295
0.00024442297
0.0056557477
0.00016540105
0.0056902775
9.9840194e-05
0.0057235016
4.8678929e-05
0.0057549163
1.3028919e-05
0.0057841623
-5.7528417e-06
0.0058109293
-6.8611281e-06
0.0058349622
1.0332674e-05
0.0058560711
4.6099824e-05
0.0058741316
0.00010033092
0.005889058
0.0001724715
0.0059007063
0.00026150571
0.0059088473
0.00036646253
0.0059137697
0.00048679083
0.0059156286
0.00061957147
0.0059141981
0.00076279357
0.0059101141
0.00091523819
0.0059032706
0.0010728288
0.0058942987
0.0012342256
0.0058837177
0.0013952066
0.0058716056
0.0015520229
0.0058588262
0.0017026475
0.005845679
0.0018432861
0.0058331893
0.0019692228
0.0058209983
0.0020810953
0.0058104064
0.0021718791
0.0058015936
0.0022428798
0.0057953299
0.0022898581
0.0057916832
0.0023132525
0.0057913577
0.0023113283
0.0057947562
0.002283791
0.0058019737
0.0022306168
0.0058128372
0.0021549297
0.0058276877
0.002058132
0.0058468507
0.0019366148
0.0058692261
0.0018028294
0.0058951465
0.0016507584
0.0059248078
0.0014841303
0.0059566572
0.0013075883
0.0059906956
0.0011223484
0.0060269709
0.00093304909
0.0060644751
0.00074110408
0.0061027818
0.00055311203
0.0061425116
0.00037136566
0.0061836313
0.00019557529
0.0062264705
2.7774729e-05
0.0062696503
-0.00013466841
0.0063115844
-0.00028478803
0.0063516007
-0.00041518371
0.0063893521
-0.00052130424
0.0064245951
-0.00059948548
0.0064571446
-0.00064686696
0.006486888
-0.00066118999
0.0065138222
-0.00064104763
0.0065381214
-0.00058608515
0.0065601723
-0.00049772749
0.0065805459
-0.00037956626
0.0065997133
-0.00023779371
0.0066175519
-7.9766764e-05
0.0066340404
9.0931929e-05
0.0066514499
0.00027624488
0.0066721278
0.00046031923
0.0066960409
0.00062567253
0.0067231318
0.00076684981
0.0067538419
0.00087976324
0.0067879917
0.00095598232
0.0068256693
0.00099690744
0.0068668347
0.00099895832
0.0069104784
0.00095967346
0.0069560059
0.00088729738
0.0070036975
0.00078805798
0.0070523561
0.00065792154
0.007101808
0.00051160336
0.007151669
0.00035025612
0.0072017884
0.00018266257
0.007252263
1.3548208e-05
0.0073026721
-0.00015438382
0.007352186
-0.00031630543
0.0074000841
-0.00046434555
0.0074461275
-0.00058998186
0.0074904099
-0.00068686125
0.0075331476
-0.00075052471
0.0075746503
-0.00077852782
0.0076153173
-0.00077076151
0.0076556028
-0.00072921932
0.0076959542
-0.00065796987
0.007736809
-0.00056305703
0.0077785822
-0.00045245748
0.007821587
-0.0003365426
0.0078664501
-0.00022331823
0.0079135919
-0.00012454168
0.0079626431
-5.2758322e-05
0.0080130128
-1.3765387e-05
0.0080642075
-8.1085384e-06
0.0081160486
-3.1983783e-05
0.0081685058
-8.219435e-05
0.0082214162
-0.00015560691
0.0082746206
-0.00024615232
0.0083278827
-0.00034752662
0.0083809506
-0.00045164711
0.0084336626
-0.00055024795
0.0084859422
-0.00063659391
0.0085376925
-0.0007057593
0.0085887686
-0.000752601
0.0086391898
-0.00077208895
0.0086891976
-0.00076296013
0.0087391043
-0.00072897446
0.0087892093
-0.00067715455
0.0088397514
-0.00061612738
0.0088907785
-0.00055541011
0.008942212
-0.00050234454
0.0089941055
-0.00046101347
0.0090466416
-0.00043609846
0.009099934
-0.00043120483
0.0091539207
-0.00044676047
0.0092084674
-0.00048056874
0.0092635207
-0.00052748862
0.0093191043
-0.00058138063
0.009375283
-0.0006362905
0.009432157
-0.00068705743
0.0094897714
-0.0007306311
0.0095480477
-0.00076510482
0.0096069278
-0.00078754095
0.0096664637
-0.00079594809
0.0097267124
-0.00079255456
0.0097876771
-0.00078184274
0.0098493186
-0.00076804541
0.0099115967
-0.00075382682
0.0099745055
-0.00074185504
0.010038062
-0.00073471114
0.010102326
-0.00073434188
0.010167384
-0.00074068961
0.010233286
-0.00075401537
0.010300116
-0.00077182918
0.010368001
-0.00079271286
0.010437039
-0.00081430563
0.010507319
-0.00083612938
0.010578981
-0.00085523992
0.010652133
-0.00087312325
0.010726787
-0.00088812251
0.010802969
-0.000901358
0.010880641
-0.00091309942
0.010959802
-0.00092499731
0.011040339
-0.00093597798
0.011122209
-0.00094660951
0.01120536
-0.00095597548
0.01128982
-0.00096546505
0.011375432
-0.00097537694
0.011462222
-0.00098591927
0.011550139
-0.00099695735
0.011639171
-0.0010066039
0.011729206
-0.0010084105
0.011820632
-0.0010192155
0.011913169
-0.0010195101
0.012007582
-0.0010355452
0.012103195
-0.001038876
0.012200885
-0.001041272
0.012299144
-0.0010505247
0.012399514
-0.0010384684
0.012499955
-0.0010377406
0.012604777
-0.0010045096
0.012707158
-0.001006617
0.012812547
-0.00092147476
0.012919528
-0.00091571911
0.013035438
-0.00088915854
-0.0011137551
0.0051267514
0.0018681013
0.0051474306
0.001731453
0.005171154
0.0015919608
0.0051976922
0.0014504745
0.0052266611
0.0013088168
0.0052582343
0.0011661573
0.0052913564
0.0010267909
0.0053268038
0.00088865983
0.0053625577
0.00075638278
0.0053990563
0.00062976749
0.0054370566
0.00050973874
0.0054756631
0.00039820079
0.0055143123
0.00029642474
0.0055526967
0.00020564122
0.0055904241
0.0001272448
0.0056271683
6.2639928e-05
0.0056625315
1.2839252e-05
0.0056960793
-2.1007265e-05
0.0057274955
-3.7663184e-05
0.005756503
-3.6362453e-05
0.005782878
-1.6530364e-05
0.0058064542
2.2045493e-05
0.0058271155
7.920406e-05
0.0058447702
0.00015436641
0.0058592837
0.00024655538
0.0058705226
0.00035480995
0.0058787411
0.00047819451
0.0058840135
0.00061394295
0.0058862596
0.00076023084
0.0058859782
0.00091522492
0.0058831718
0.0010753778
0.0058784385
0.0012387402
0.0058722175
0.0014012519
0.005864705
0.0015594066
0.0058566251
0.0017106387
0.0058484446
0.0018514132
0.0058403355
0.0019773219
0.0058334171
0.0020880456
0.0058279637
0.0021773832
0.0058242105
0.0022466947
0.005822984
0.0022911496
0.005824342
0.0023119657
0.0058289832
0.0023067332
0.0058371313
0.002275673
0.0058488181
0.0022189318
0.0058639023
0.0021398117
0.0058827229
0.0020392353
0.0059054518
0.0019137626
0.0059310283
0.001777071
0.0059598626
0.0016216813
0.0059914948
0.0014521816
0.0060252555
0.0012734425
0.0060614645
0.0010856941
0.0060991334
0.00089486268
0.0061377537
0.00070188914
0.0061772564
0.00051297907
0.0062180618
0.00032986679
0.006260069
0.00015285848
0.0063033532
-1.6230857e-05
0.0063465493
-0.00017858717
0.0063883419
-0.00032727478
0.0064281925
-0.00045569552
0.006465807
-0.00055953733
0.0065009916
-0.00063524225
0.006533619
-0.00068002021
0.0065636463
-0.00069170085
0.0065911494
-0.00066899914
0.0066163806
-0.00061173964
0.0066397838
-0.000521542
0.0066619334
-0.00040213074
0.0066832662
-0.00025955813
0.006703751
-0.0001007138
0.0067235935
7.0618757e-05
0.0067449285
0.00025444808
0.0067696118
0.00043512874
0.0067974979
0.00059726142
0.0068285274
0.00073528308
0.0068630341
0.0008447221
0.0069007269
0.00091776121
0.0069416219
0.00095550305
0.0069855733
0.00095452737
0.0070315794
0.00091322423
0.0070791387
0.00083935627
0.0071284486
0.0007384219
0.0071783981
0.00060770415
0.0072288679
0.00046092131
0.0072795103
0.0002994351
0.0073302119
0.00013180641
0.0073810214
-3.7416196e-05
0.0074315124
-0.00020504686
0.0074809434
-0.00036593907
0.0075287105
-0.00051234969
0.0075746465
-0.00063618939
0.0076188877
-0.00073140244
0.0076616858
-0.00079363567
0.0077033722
-0.00082051861
0.0077443556
-0.00081201838
0.0077850875
-0.00077017561
0.0078260075