/*--------------------------------*- C++ -*----------------------------------*\
| =========                 |                                                 |
| \\      /  F ield         | OpenFOAM: The Open Source CFD Toolbox           |
|  \\    /   O peration     | Version:  2406                                  |
|   \\  /    A nd           | Website:  www.openfoam.com                      |
|    \\/     M anipulation  |                                                 |
\*---------------------------------------------------------------------------*/
FoamFile
{
    version     2.0;
    format      ascii;
    arch        "LSB;label=32;scalar=64";
    class       volScalarField;
    location    "0.01";
    object      rho;
}
// * * * * * * * * * * * * * * * * * * * * * * * * * * * * * * * * * * * * * //

dimensions      [1 -3 0 0 0 0 0];

internalField   nonuniform List<scalar> 
8951
(
1.1987504
1.1988096
1.1988625
1.1989094
1.1989501
1.1989851
1.1990147
1.1990391
1.1990588
1.1990739
1.1990837
1.1990881
1.1990918
1.1990989
1.1991037
1.1991044
1.1991049
1.1991064
1.1991093
1.1991143
1.199122
1.1991327
1.199148
1.1991655
1.1991874
1.1992183
1.1992479
1.1992904
1.1993322
1.1993812
1.1994422
1.1995106
1.1995797
1.1996532
1.1997308
1.1998088
1.1998862
1.1999596
1.2000269
1.2000856
1.2001339
1.2001705
1.2001952
1.2002087
1.2002115
1.2002077
1.2001963
1.2001807
1.2001634
1.2001447
1.2001263
1.2001084
1.2000901
1.2000692
1.2000583
1.20005
1.2000426
1.2000328
1.2000215
1.2000123
1.2000048
1.1999988
1.1999939
1.1999903
1.1999881
1.1999878
1.1999899
1.199995
1.2000045
1.2000196
1.200033
1.200052
1.2000812
1.2001102
1.2001393
1.2001687
1.2001954
1.2002193
1.2002385
1.2002524
1.2002611
1.2002714
1.2002752
1.2002823
1.2002886
1.2002966
1.2003067
1.2003184
1.2003316
1.2003467
1.2003641
1.200384
1.2004061
1.2004307
1.2004583
1.2004895
1.2005251
1.2005649
1.200609
1.200655
1.2007019
1.2007488
1.2007927
1.2008323
1.2008683
1.2009022
1.2009348
1.2009668
1.2009999
1.201035
1.2010733
1.2011155
1.201162
1.2012131
1.201269
1.2013293
1.2013931
1.2014589
1.2015245
1.2015874
1.2016449
1.2016952
1.2017375
1.2017719
1.2017995
1.2018222
1.2018415
1.2018593
1.2018771
1.2018961
1.2019169
1.2019403
1.2019658
1.2019928
1.2020201
1.2020458
1.202068
1.2020851
1.2020975
1.2021051
1.2021085
1.2021082
1.2021055
1.2021002
1.202093
1.2020829
1.2020708
1.2020552
1.2020378
1.2020172
1.2019959
1.2019726
1.2019505
1.201928
1.2019091
1.2018908
1.2018781
1.2018664
1.2018605
1.2018531
1.2018516
1.2018438
1.2018407
1.2018313
1.2018269
1.2018139
1.2018072
1.2017887
1.2017877
1.2017663
1.2017754
1.2017438
1.2017603
1.201695
1.2017583
1.2016124
1.202021
1.1987149
1.198778
1.1988353
1.1988859
1.1989306
1.1989687
1.1990014
1.1990289
1.1990515
1.1990693
1.1990815
1.1990872
1.1990925
1.1991003
1.1991059
1.1991082
1.1991085
1.1991096
1.1991117
1.1991155
1.1991215
1.1991303
1.1991425
1.1991591
1.1991783
1.1992028
1.1992346
1.1992677
1.1993121
1.1993577
1.1994087
1.199466
1.1995367
1.1996081
1.199682
1.1997588
1.1998348
1.1999096
1.1999794
1.2000427
1.2000971
1.2001409
1.2001735
1.2001947
1.2002057
1.2002069
1.2002028
1.2001914
1.2001766
1.2001612
1.2001444
1.2001282
1.2001116
1.2000931
1.2000769
1.2000727
1.2000637
1.200057
1.2000489
1.2000399
1.200033
1.2000275
1.2000234
1.2000205
1.2000187
1.2000182
1.2000195
1.200023
1.2000294
1.2000397
1.2000543
1.2000682
1.2000874
1.2001149
1.2001419
1.2001689
1.2001958
1.2002199
1.2002412
1.2002582
1.2002704
1.2002782
1.2002875
1.2002913
1.2002985
1.200305
1.2003137
1.2003244
1.2003371
1.2003514
1.2003676
1.2003863
1.2004075
1.200431
1.200457
1.2004857
1.2005179
1.2005539
1.2005935
1.2006366
1.200681
1.2007257
1.2007701
1.2008113
1.2008483
1.2008821
1.200914
1.2009449
1.2009756
1.2010077
1.201042
1.2010797
1.2011216
1.201168
1.2012189
1.2012747
1.2013348
1.2013981
1.2014632
1.2015278
1.2015895
1.2016458
1.2016948
1.2017361
1.2017696
1.2017965
1.2018186
1.2018375
1.201855
1.2018727
1.2018915
1.2019124
1.2019358
1.2019614
1.2019885
1.2020159
1.2020417
1.2020642
1.2020816
1.2020944
1.2021024
1.2021062
1.2021062
1.2021037
1.2020986
1.2020916
1.2020818
1.2020699
1.2020548
1.2020379
1.2020179
1.2019972
1.2019745
1.201953
1.201931
1.2019123
1.2018943
1.2018815
1.2018698
1.2018636
1.201856
1.2018541
1.2018462
1.201843
1.2018334
1.2018288
1.2018158
1.2018089
1.2017906
1.2017898
1.2017685
1.2017772
1.2017456
1.201762
1.2016939
1.2017603
1.2016044
1.2020227
1.1987325
1.1987937
1.198849
1.1988974
1.19894
1.198976
1.1990069
1.1990331
1.1990545
1.1990699
1.1990782
1.1990855
1.1990961
1.1991036
1.1991074
1.1991096
1.1991113
1.1991138
1.1991175
1.1991231
1.199131
1.1991418
1.1991561
1.1991747
1.1991962
1.1992233
1.1992567
1.1992929
1.1993384
1.1993866
1.199442
1.1994999
1.1995666
1.1996377
1.199713
1.1997887
1.1998618
1.1999334
1.199999
1.2000577
1.2001073
1.2001466
1.200175
1.2001929
1.2002013
1.2002011
1.2001966
1.2001851
1.2001712
1.2001576
1.2001426
1.2001277
1.2001107
1.2000961
1.2000872
1.2000833
1.2000748
1.2000698
1.2000637
1.2000574
1.2000529
1.2000498
1.2000479
1.2000472
1.2000475
1.200049
1.200052
1.2000571
1.2000648
1.2000758
1.2000901
1.2001042
1.2001232
1.2001488
1.2001737
1.2001983
1.2002225
1.2002439
1.2002626
1.2002772
1.2002877
1.2002944
1.2003027
1.2003063
1.2003135
1.2003203
1.2003295
1.2003409
1.2003544
1.2003697
1.2003871
1.2004072
1.2004297
1.2004546
1.2004818
1.2005118
1.2005448
1.2005811
1.2006205
1.2006626
1.2007054
1.2007481
1.2007899
1.2008286
1.2008632
1.2008948
1.2009247
1.200954
1.2009833
1.2010143
1.2010479
1.2010851
1.2011267
1.2011729
1.2012237
1.2012793
1.2013391
1.201402
1.2014664
1.2015301
1.2015907
1.2016457
1.2016936
1.2017339
1.2017666
1.2017928
1.2018144
1.201833
1.2018502
1.2018677
1.2018865
1.2019073
1.2019308
1.2019565
1.2019837
1.2020113
1.2020373
1.2020599
1.2020778
1.202091
1.2020993
1.2021035
1.2021038
1.2021017
1.2020968
1.20209
1.2020804
1.2020689
1.2020542
1.2020377
1.2020183
1.2019982
1.2019763
1.2019552
1.2019338
1.2019154
1.2018976
1.2018849
1.201873
1.2018667
1.2018589
1.2018566
1.2018486
1.2018451
1.2018355
1.2018306
1.2018177
1.2018106
1.2017924
1.201792
1.2017707
1.201779
1.2017475
1.2017638
1.201693
1.2017627
1.2015968
1.2020233
1.1987387
1.1987983
1.198852
1.1988987
1.19894
1.1989742
1.1990044
1.1990299
1.1990492
1.199061
1.1990715
1.1990849
1.1990957
1.1991015
1.1991057
1.1991095
1.1991131
1.1991176
1.1991234
1.1991312
1.1991414
1.1991545
1.1991713
1.199192
1.1992161
1.1992457
1.1992809
1.1993197
1.1993664
1.1994164
1.1994734
1.1995346
1.1995988
1.1996687
1.1997407
1.1998162
1.1998861
1.1999542
1.2000153
1.2000693
1.2001142
1.2001491
1.2001737
1.2001886
1.2001949
1.2001935
1.2001891
1.2001777
1.2001645
1.2001534
1.200139
1.2001239
1.2001106
1.2001024
1.2000956
1.2000913
1.2000849
1.2000819
1.2000779
1.2000742
1.2000723
1.2000717
1.2000722
1.2000737
1.2000762
1.2000798
1.2000847
1.2000914
1.2001002
1.2001118
1.2001261
1.20014
1.2001585
1.2001821
1.2002048
1.2002269
1.2002484
1.2002671
1.2002832
1.2002955
1.2003041
1.2003098
1.2003171
1.2003205
1.2003276
1.2003345
1.2003442
1.2003562
1.2003705
1.2003867
1.2004053
1.2004266
1.2004505
1.2004766
1.2005051
1.2005361
1.2005699
1.2006065
1.2006456
1.2006868
1.2007281
1.2007688
1.2008083
1.2008445
1.2008769
1.2009064
1.2009344
1.200962
1.20099
1.20102
1.2010528
1.2010895
1.2011308
1.2011767
1.2012274
1.2012827
1.2013423
1.2014047
1.2014684
1.2015312
1.2015907
1.2016446
1.2016914
1.2017308
1.2017628
1.2017885
1.2018097
1.2018279
1.2018449
1.2018622
1.2018809
1.2019018
1.2019253
1.2019511
1.2019784
1.2020062
1.2020324
1.2020553
1.2020735
1.2020871
1.2020959
1.2021004
1.2021011
1.2020993
1.2020947
1.2020881
1.2020789
1.2020677
1.2020534
1.2020374
1.2020186
1.2019991
1.2019778
1.2019573
1.2019364
1.2019183
1.2019008
1.201888
1.2018762
1.2018696
1.2018617
1.201859
1.201851
1.2018473
1.2018375
1.2018324
1.2018196
1.2018123
1.2017942
1.2017941
1.2017728
1.2017807
1.2017492
1.2017658
1.201692
1.2017654
1.2015893
1.2020229
1.1986752
1.1987397
1.198798
1.1988502
1.1988956
1.1989359
1.1989685
1.1989985
1.199022
1.1990378
1.1990523
1.1990688
1.1990827
1.1990915
1.1990978
1.1991037
1.1991093
1.199115
1.1991216
1.1991298
1.1991399
1.1991525
1.1991681
1.1991873
1.1992103
1.1992369
1.1992688
1.1993058
1.1993469
1.1993948
1.1994463
1.199504
1.1995659
1.1996302
1.1997005
1.1997686
1.19984
1.1999071
1.1999722
1.2000287
1.2000782
1.2001184
1.2001495
1.2001707
1.2001831
1.2001876
1.2001856
1.2001816
1.2001701
1.2001578
1.2001489
1.2001334
1.2001221
1.2001147
1.2001083
1.2001021
1.2000991
1.2000951
1.200094
1.2000923
1.2000912
1.2000917
1.2000935
1.2000964
1.2001002
1.2001049
1.2001105
1.2001172
1.2001253
1.2001352
1.2001473
1.2001614
1.2001751
1.2001928
1.2002143
1.2002347
1.2002544
1.2002733
1.2002893
1.2003028
1.2003129
1.20032
1.2003246
1.2003309
1.200334
1.200341
1.2003481
1.2003581
1.2003707
1.2003857
1.2004028
1.2004224
1.2004449
1.2004699
1.2004972
1.2005268
1.2005588
1.2005932
1.20063
1.2006687
1.200709
1.2007489
1.2007877
1.200825
1.200859
1.2008893
1.2009168
1.2009431
1.2009692
1.2009959
1.2010249
1.2010569
1.2010931
1.2011339
1.2011796
1.20123
1.2012851
1.2013444
1.2014063
1.2014693
1.2015312
1.2015897
1.2016426
1.2016884
1.201727
1.2017583
1.2017835
1.2018043
1.2018222
1.2018391
1.2018563
1.2018749
1.2018958
1.2019194
1.2019453
1.2019727
1.2020006
1.202027
1.2020502
1.2020688
1.2020828
1.202092
1.202097
1.2020981
1.2020966
1.2020923
1.2020861
1.2020771
1.2020663
1.2020524
1.202037
1.2020187
1.2019999
1.2019792
1.2019593
1.2019388
1.2019211
1.2019038
1.2018911
1.2018792
1.2018724
1.2018644
1.2018613
1.2018532
1.2018494
1.2018395
1.2018342
1.2018214
1.201814
1.2017959
1.2017962
1.2017748
1.2017825
1.201751
1.2017679
1.2016912
1.2017681
1.2015819
1.2020216
1.1986739
1.1987368
1.1987941
1.1988449
1.1988892
1.1989289
1.1989592
1.1989888
1.1990085
1.1990277
1.1990477
1.1990644
1.1990764
1.1990856
1.1990937
1.1991016
1.1991092
1.199117
1.199126
1.1991366
1.1991491
1.1991643
1.1991824
1.199204
1.1992294
1.1992584
1.1992925
1.1993313
1.1993744
1.1994234
1.199476
1.1995341
1.1995958
1.1996602
1.1997288
1.1997963
1.1998621
1.1999267
1.1999867
1.2000395
1.2000849
1.2001207
1.2001483
1.2001666
1.2001767
1.2001799
1.2001776
1.2001738
1.2001629
1.2001513
1.2001426
1.2001307
1.2001238
1.2001185
1.2001125
1.2001083
1.200107
1.2001053
1.2001062
1.2001067
1.200108
1.200111
1.2001151
1.2001203
1.2001264
1.2001332
1.2001407
1.2001491
1.2001586
1.2001695
1.200182
1.2001958
1.2002092
1.2002259
1.2002453
1.2002635
1.2002807
1.200297
1.2003104
1.2003215
1.2003297
1.2003351
1.2003387
1.2003441
1.2003469
1.2003537
1.200361
1.2003714
1.2003844
1.2004
1.200418
1.2004385
1.2004619
1.200488
1.2005164
1.2005469
1.2005797
1.2006146
1.2006516
1.20069
1.2007294
1.2007679
1.200805
1.2008403
1.2008722
1.2009006
1.2009262
1.2009508
1.2009754
1.201001
1.201029
1.2010602
1.2010958
1.2011362
1.2011817
1.2012318
1.2012866
1.2013454
1.2014068
1.2014691
1.2015301
1.2015876
1.2016396
1.2016846
1.2017224
1.2017532
1.201778
1.2017984
1.2018161
1.2018328
1.2018498
1.2018684
1.2018894
1.201913
1.201939
1.2019665
1.2019945
1.2020212
1.2020447
1.2020637
1.2020781
1.2020878
1.2020932
1.2020948
1.2020936
1.2020897
1.2020837
1.2020751
1.2020647
1.2020513
1.2020363
1.2020187
1.2020004
1.2019804
1.201961
1.2019411
1.2019237
1.2019066
1.201894
1.2018821
1.2018752
1.201867
1.2018636
1.2018554
1.2018514
1.2018414
1.201836
1.2018232
1.2018157
1.2017976
1.2017983
1.2017766
1.2017842
1.2017527
1.20177
1.2016903
1.2017707
1.2015747
1.2020196
1.1986678
1.1987292
1.198786
1.198835
1.1988791
1.1989171
1.1989457
1.1989731
1.1989965
1.1990203
1.1990401
1.1990554
1.1990679
1.1990789
1.1990891
1.1990989
1.1991087
1.199119
1.1991305
1.1991436
1.1991588
1.1991765
1.1991972
1.1992213
1.1992489
1.1992803
1.1993166
1.1993571
1.1994018
1.1994519
1.1995054
1.1995635
1.1996248
1.1996886
1.1997549
1.1998203
1.1998829
1.1999448
1.1999988
1.2000483
1.2000892
1.2001216
1.2001457
1.2001614
1.2001697
1.2001719
1.2001694
1.2001637
1.2001565
1.2001468
1.2001367
1.2001312
1.2001247
1.2001205
1.2001164
1.2001144
1.2001149
1.2001153
1.2001181
1.2001208
1.2001246
1.2001299
1.2001363
1.2001438
1.200152
1.2001608
1.2001703
1.2001803
1.2001911
1.2002028
1.2002156
1.2002292
1.2002421
1.2002577
1.2002751
1.200291
1.2003059
1.2003196
1.2003305
1.2003394
1.2003456
1.2003496
1.2003522
1.2003566
1.2003592
1.2003658
1.2003731
1.2003838
1.2003972
1.2004134
1.2004321
1.2004534
1.2004778
1.2005048
1.2005341
1.2005655
1.2005989
1.2006343
1.2006713
1.2007093
1.2007479
1.2007852
1.2008207
1.2008541
1.2008841
1.2009107
1.2009346
1.2009576
1.2009809
1.2010052
1.2010323
1.2010628
1.2010978
1.2011377
1.2011828
1.2012326
1.201287
1.2013454
1.2014062
1.2014678
1.201528
1.2015846
1.2016357
1.2016799
1.201717
1.2017474
1.2017718
1.201792
1.2018095
1.201826
1.201843
1.2018616
1.2018825
1.2019062
1.2019323
1.2019599
1.2019881
1.2020149
1.2020387
1.2020581
1.202073
1.2020832
1.2020891
1.2020911
1.2020904
1.2020868
1.2020812
1.202073
1.2020629
1.20205
1.2020355
1.2020185
1.2020008
1.2019814
1.2019626
1.2019432
1.2019261
1.2019093
1.2018967
1.2018849
1.2018778
1.2018695
1.2018658
1.2018576
1.2018535
1.2018433
1.2018377
1.2018249
1.2018174
1.2017992
1.2018003
1.2017782
1.2017859
1.2017544
1.2017722
1.2016896
1.201773
1.2015675
1.2020169
1.1986562
1.1987163
1.1987733
1.1988191
1.1988641
1.198897
1.1989312
1.1989574
1.1989861
1.1990087
1.1990276
1.1990437
1.1990581
1.1990711
1.1990834
1.1990956
1.1991078
1.1991207
1.1991348
1.1991506
1.1991685
1.1991889
1.1992122
1.1992388
1.1992688
1.1993025
1.1993406
1.1993828
1.199429
1.1994798
1.1995339
1.1995919
1.1996524
1.199715
1.1997791
1.1998417
1.1999015
1.1999593
1.2000094
1.2000552
1.2000916
1.200121
1.2001418
1.2001553
1.2001621
1.2001636
1.200161
1.2001536
1.2001503
1.2001427
1.2001337
1.2001298
1.2001247
1.2001222
1.2001201
1.2001202
1.2001224
1.2001249
1.2001296
1.2001344
1.2001405
1.2001481
1.2001568
1.2001664
1.2001767
1.2001876
1.2001989
1.2002105
1.2002225
1.200235
1.200248
1.2002613
1.2002737
1.2002881
1.2003034
1.2003172
1.2003298
1.2003411
1.2003497
1.2003564
1.2003608
1.2003633
1.2003649
1.2003685
1.2003708
1.2003772
1.2003845
1.2003954
1.2004092
1.2004258
1.2004452
1.2004672
1.2004923
1.2005202
1.2005503
1.2005824
1.2006164
1.2006521
1.2006892
1.2007269
1.2007646
1.2008008
1.2008349
1.2008665
1.2008948
1.2009196
1.200942
1.2009635
1.2009855
1.2010087
1.2010348
1.2010645
1.2010989
1.2011384
1.2011831
1.2012325
1.2012865
1.2013444
1.2014047
1.2014655
1.2015248
1.2015806
1.2016309
1.2016744
1.201711
1.2017409
1.2017651
1.201785
1.2018024
1.2018188
1.2018357
1.2018543
1.2018752
1.2018989
1.2019251
1.2019529
1.2019812
1.2020083
1.2020324
1.2020522
1.2020676
1.2020782
1.2020847
1.2020872
1.2020869
1.2020837
1.2020784
1.2020706
1.2020609
1.2020485
1.2020345
1.2020181
1.2020011
1.2019823
1.2019641
1.2019451
1.2019284
1.2019119
1.2018994
1.2018876
1.2018804
1.201872
1.2018679
1.2018597
1.2018555
1.2018452
1.2018394
1.2018267
1.2018191
1.2018009
1.2018021
1.2017796
1.2017876
1.2017561
1.2017743
1.201689
1.2017748
1.2015605
1.2020137
1.1985753
1.1986386
1.1986972
1.1987552
1.1987972
1.1988413
1.1988772
1.198914
1.1989427
1.1989697
1.1989922
1.1990122
1.1990302
1.1990466
1.1990619
1.1990766
1.1990912
1.1991061
1.1991218
1.1991387
1.1991574
1.199178
1.1992012
1.1992271
1.1992562
1.1992886
1.1993244
1.1993644
1.199408
1.1994555
1.1995068
1.1995612
1.1996188
1.1996784
1.1997394
1.1998009
1.1998606
1.1999174
1.199971
1.2000177
1.2000594
1.2000923
1.2001186
1.2001366
1.2001482
1.2001539
1.2001549
1.2001525
1.2001459
1.2001436
1.2001372
1.2001306
1.2001276
1.2001244
1.2001236
1.2001234
1.2001254
1.2001293
1.2001338
1.2001404
1.2001473
1.2001556
1.2001654
1.2001762
1.200188
1.2002004
1.2002132
1.2002262
1.2002394
1.2002525
1.2002657
1.2002789
1.2002919
1.2003038
1.200317
1.2003304
1.2003421
1.2003525
1.2003615
1.2003678
1.2003724
1.200375
1.2003762
1.2003769
1.2003796
1.2003816
1.2003877
1.2003951
1.2004062
1.2004202
1.2004372
1.2004571
1.2004798
1.2005056
1.2005342
1.200565
1.2005977
1.2006323
1.2006683
1.2007053
1.2007427
1.2007797
1.2008147
1.2008475
1.2008776
1.2009042
1.2009276
1.2009484
1.2009686
1.2009892
1.2010114
1.2010366
1.2010656
1.2010994
1.2011383
1.2011825
1.2012316
1.2012851
1.2013425
1.2014021
1.2014622
1.2015208
1.2015758
1.2016253
1.2016682
1.2017043
1.2017339
1.2017578
1.2017776
1.2017948
1.2018111
1.201828
1.2018465
1.2018675
1.2018913
1.2019176
1.2019454
1.2019739
1.2020012
1.2020256
1.2020459
1.2020618
1.202073
1.2020799
1.2020829
1.2020831
1.2020803
1.2020755
1.202068
1.2020587
1.2020468
1.2020334
1.2020176
1.2020012
1.2019831
1.2019654
1.2019469
1.2019306
1.2019143
1.201902
1.2018902
1.2018829
1.2018744
1.20187
1.2018618
1.2018574
1.201847
1.2018412
1.2018284
1.2018208
1.2018025
1.2018037
1.2017807
1.2017893
1.2017578
1.2017764
1.2016884
1.2017763
1.2015536
1.20201
1.1985538
1.1986149
1.1986716
1.1987276
1.198775
1.1988154
1.1988577
1.1988922
1.1989214
1.1989487
1.1989726
1.1989945
1.1990146
1.1990332
1.1990509
1.1990683
1.1990856
1.1991034
1.199122
1.1991419
1.1991635
1.1991871
1.199213
1.1992416
1.1992732
1.1993079
1.1993458
1.1993875
1.1994325
1.1994809
1.1995326
1.199587
1.1996439
1.1997023
1.1997614
1.1998204
1.1998771
1.1999306
1.1999804
1.2000235
1.2000613
1.2000911
1.2001144
1.2001303
1.2001404
1.2001451
1.2001458
1.2001438
1.2001385
1.2001366
1.2001313
1.2001269
1.2001251
1.2001238
1.2001246
1.2001261
1.2001299
1.2001354
1.2001418
1.2001502
1.2001592
1.2001697
1.2001816
1.2001945
1.2002084
1.2002228
1.2002374
1.2002521
1.2002667
1.200281
1.2002949
1.2003083
1.200321
1.2003322
1.2003443
1.2003558
1.2003656
1.2003739
1.2003807
1.2003848
1.2003876
1.2003885
1.2003884
1.2003882
1.2003901
1.2003917
1.2003975
1.2004048
1.200416
1.2004302
1.2004476
1.200468
1.2004913
1.2005176
1.2005468
1.2005782
1.2006115
1.2006465
1.2006827
1.2007198
1.2007568
1.2007931
1.2008272
1.2008588
1.2008874
1.2009125
1.2009344
1.200954
1.2009728
1.2009922
1.2010134
1.2010376
1.2010659
1.201099
1.2011375
1.2011812
1.2012298
1.2012828
1.2013396
1.2013986
1.201458
1.2015159
1.2015701
1.2016189
1.2016613
1.201697
1.2017262
1.20175
1.2017696
1.2017867
1.201803
1.2018198
1.2018384
1.2018594
1.2018832
1.2019096
1.2019376
1.2019662
1.2019937
1.2020185
1.2020392
1.2020556
1.2020673
1.2020748
1.2020784
1.202079
1.2020767
1.2020722
1.2020652
1.2020564
1.2020449
1.2020321
1.2020169
1.2020011
1.2019836
1.2019665
1.2019486
1.2019326
1.2019167
1.2019044
1.2018927
1.2018853
1.2018768
1.2018721
1.2018639
1.2018594
1.2018488
1.2018429
1.20183
1.2018224
1.2018042
1.2018052
1.2017817
1.2017909
1.2017595
1.2017785
1.2016881
1.2017776
1.2015469
1.202006
1.1985214
1.1985872
1.1986436
1.1986949
1.1987482
1.1987896
1.1988302
1.1988648
1.1988955
1.1989242
1.1989502
1.1989742
1.1989965
1.1990176
1.1990381
1.1990583
1.1990786
1.1990994
1.1991211
1.1991441
1.1991687
1.1991953
1.1992241
1.1992554
1.1992894
1.1993263
1.1993663
1.1994095
1.1994557
1.1995049
1.1995568
1.1996109
1.1996669
1.1997239
1.199781
1.1998373
1.199891
1.1999413
1.1999874
1.200027
1.2000612
1.2000883
1.200109
1.200123
1.2001317
1.2001358
1.2001365
1.2001348
1.2001307
1.2001293
1.2001253
1.2001228
1.2001222
1.2001225
1.2001249
1.2001281
1.2001335
1.2001406
1.2001489
1.2001591
1.20017
1.2001825
1.2001964
1.2002114
1.2002272
1.2002436
1.2002601
1.2002764
1.2002924
1.2003078
1.2003223
1.2003359
1.2003483
1.200359
1.2003699
1.2003797
1.2003877
1.2003939
1.2003986
1.2004009
1.2004017
1.2004011
1.2003998
1.2003987
1.2003997
1.200401
1.2004065
1.2004137
1.2004249
1.2004393
1.200457
1.2004778
1.2005015
1.2005283
1.200558
1.20059
1.2006238
1.2006591
1.2006955
1.2007325
1.2007692
1.2008049
1.2008381
1.2008686
1.2008959
1.2009197
1.2009403
1.2009586
1.2009762
1.2009945
1.2010146
1.201038
1.2010655
1.201098
1.2011358
1.2011791
1.2012271
1.2012796
1.2013359
1.2013943
1.201453
1.20151
1.2015636
1.2016118
1.2016537
1.201689
1.201718
1.2017416
1.2017612
1.2017782
1.2017945
1.2018113
1.2018298
1.2018509
1.2018748
1.2019012
1.2019293
1.2019581
1.2019859
1.202011
1.2020322
1.2020491
1.2020614
1.2020695
1.2020735
1.2020747
1.2020728
1.2020688
1.2020622
1.2020539
1.2020429
1.2020307
1.2020161
1.2020009
1.2019841
1.2019675
1.2019501
1.2019346
1.2019189
1.2019068
1.2018951
1.2018877
1.2018791
1.2018742
1.2018659
1.2018613
1.2018506
1.2018446
1.2018317
1.2018241
1.201806
1.2018065
1.2017825
1.2017925
1.2017611
1.2017805
1.2016878
1.2017786
1.2015404
1.2020016
1.1984825
1.1985528
1.1986106
1.1986617
1.1987136
1.1987567
1.1987972
1.1988332
1.1988658
1.1988964
1.1989245
1.1989509
1.1989758
1.1989997
1.1990231
1.1990463
1.1990698
1.1990938
1.1991188
1.199145
1.1991727
1.1992023
1.199234
1.199268
1.1993045
1.1993436
1.1993855
1.1994301
1.1994774
1.1995271
1.1995791
1.1996327
1.1996877
1.199743
1.199798
1.1998515
1.1999023
1.1999493
1.199992
1.2000285
1.2000594
1.2000838
1.2001023
1.2001147
1.2001224
1.200126
1.2001267
1.2001255
1.2001224
1.2001217
1.200119
1.2001181
1.2001187
1.2001206
1.2001243
1.2001291
1.2001361
1.2001447
1.2001548
1.2001666
1.2001795
1.2001939
1.2002097
1.2002267
1.2002445
1.2002627
1.200281
1.200299
1.2003163
1.2003327
1.2003478
1.2003616
1.2003739
1.200384
1.2003939
1.2004021
1.2004083
1.2004127
1.2004155
1.2004158
1.200415
1.2004129
1.2004104
1.2004084
1.2004087
1.2004095
1.2004147
1.2004218
1.200433
1.2004474
1.2004653
1.2004864
1.2005106
1.2005377
1.2005679
1.2006003
1.2006345
1.2006701
1.2007067
1.2007437
1.2007801
1.2008152
1.2008476
1.2008771
1.2009033
1.2009258
1.2009452
1.2009623
1.2009788
1.200996
1.2010152
1.2010377
1.2010644
1.2010962
1.2011335
1.2011762
1.2012237
1.2012757
1.2013313
1.201389
1.201447
1.2015034
1.2015563
1.2016039
1.2016454
1.2016804
1.2017092
1.2017327
1.2017522
1.2017693
1.2017855
1.2018024
1.2018209
1.201842
1.2018659
1.2018925
1.2019206
1.2019496
1.2019776
1.2020031
1.2020248
1.2020422
1.2020551
1.2020637
1.2020684
1.2020701
1.2020687
1.2020652
1.202059
1.2020512
1.2020408
1.202029
1.2020151
1.2020006
1.2019844
1.2019684
1.2019515
1.2019363
1.201921
1.201909
1.2018974
1.2018899
1.2018813
1.2018762
1.2018679
1.2018631
1.2018524
1.2018463
1.2018333
1.2018258
1.2018078
1.2018078
1.2017834
1.201794
1.2017626
1.2017824
1.2016877
1.2017795
1.2015341
1.201997
1.1984419
1.198511
1.1985691
1.1986222
1.1986733
1.1987181
1.1987597
1.1987975
1.1988322
1.1988649
1.1988955
1.1989244
1.1989521
1.1989791
1.1990056
1.1990321
1.1990589
1.1990863
1.1991146
1.1991441
1.1991751
1.1992078
1.1992424
1.1992791
1.1993181
1.1993593
1.1994029
1.1994489
1.1994971
1.1995473
1.1995991
1.1996522
1.1997059
1.1997596
1.1998123
1.1998631
1.199911
1.1999549
1.1999943
1.2000278
1.2000559
1.2000779
1.2000944
1.2001055
1.2001123
1.2001156
1.2001164
1.2001158
1.2001136
1.2001136
1.2001122
1.2001127
1.2001145
1.2001177
1.2001228
1.2001291
1.2001376
1.2001477
1.2001593
1.2001729
1.2001875
1.2002038
1.2002216
1.2002405
1.2002601
1.2002801
1.2003001
1.2003196
1.2003382
1.2003556
1.2003714
1.2003854
1.2003975
1.2004072
1.2004161
1.2004229
1.2004275
1.2004301
1.2004311
1.2004298
1.2004274
1.2004239
1.2004203
1.2004174
1.2004168
1.2004173
1.200422
1.200429
1.2004401
1.2004546
1.2004726
1.200494
1.2005185
1.2005459
1.2005764
1.2006092
1.2006438
1.2006797
1.2007164
1.2007533
1.2007894
1.200824
1.2008558
1.2008844
1.2009095
1.2009309
1.2009492
1.2009652
1.2009806
1.2009968
1.201015
1.2010367
1.2010626
1.2010938
1.2011304
1.2011725
1.2012196
1.2012709
1.2013259
1.201383
1.2014403
1.201496
1.2015482
1.2015954
1.2016365
1.2016713
1.2016999
1.2017234
1.2017429
1.2017599
1.2017762
1.201793
1.2018116
1.2018327
1.2018567
1.2018833
1.2019116
1.2019407
1.201969
1.2019949
1.202017
1.202035
1.2020485
1.2020577
1.202063
1.2020652
1.2020644
1.2020613
1.2020557
1.2020483
1.2020384
1.2020273
1.2020139
1.2020001
1.2019845
1.2019691
1.2019528
1.201938
1.201923
1.2019112
1.2018997
1.2018922
1.2018835
1.2018781
1.2018698
1.2018649
1.2018541
1.2018479
1.2018349
1.2018275
1.2018096
1.2018091
1.2017844
1.2017953
1.2017638
1.2017844
1.2016878
1.2017802
1.201528
1.2019922
1.1983947
1.1984626
1.1985215
1.1985763
1.1986278
1.1986744
1.1987176
1.1987574
1.1987945
1.1988296
1.1988628
1.1988946
1.1989254
1.1989556
1.1989854
1.1990154
1.1990457
1.1990766
1.1991083
1.1991413
1.1991755
1.1992114
1.1992489
1.1992883
1.1993297
1.199373
1.1994183
1.1994656
1.1995146
1.1995651
1.1996167
1.199669
1.1997215
1.1997734
1.1998239
1.1998721
1.1999171
1.1999581
1.1999944
1.2000252
1.2000508
1.2000707
1.2000855
1.2000955
1.2001016
1.2001046
1.2001057
1.2001055
1.2001043
1.200105
1.2001047
1.2001065
1.2001094
1.2001139
1.2001203
1.2001279
1.2001378
1.2001493
1.2001625
1.2001777
1.2001941
1.2002122
1.2002317
1.2002524
1.2002738
1.2002956
1.2003172
1.2003382
1.200358
1.2003764
1.2003929
1.2004073
1.2004193
1.2004286
1.2004366
1.2004421
1.2004453
1.2004463
1.2004456
1.2004427
1.2004388
1.200434
1.2004293
1.2004256
1.2004243
1.2004243
1.2004286
1.2004353
1.2004463
1.2004608
1.2004789
1.2005005
1.2005252
1.2005529
1.2005837
1.2006168
1.2006517
1.2006878
1.2007246
1.2007614
1.2007973
1.2008315
1.2008626
1.2008905
1.2009147
1.200935
1.2009523
1.2009674
1.2009818
1.200997
1.2010143
1.2010351
1.2010603
1.2010907
1.2011267
1.2011682
1.2012147
1.2012654
1.2013198
1.2013761
1.2014328
1.2014879
1.2015395
1.2015862
1.201627
1.2016615
1.2016901
1.2017135
1.2017331
1.2017502
1.2017664
1.2017833
1.2018019
1.201823
1.2018471
1.2018738
1.2019022
1.2019315
1.20196
1.2019863
1.2020089
1.2020274
1.2020415
1.2020514
1.2020573
1.2020601
1.2020598
1.2020572
1.2020521
1.2020452
1.2020359
1.2020254
1.2020126
1.2019994
1.2019845
1.2019697
1.2019539
1.2019395
1.2019249
1.2019132
1.2019019
1.2018943
1.2018857
1.2018801
1.2018718
1.2018667
1.2018558
1.2018496
1.2018364
1.2018291
1.2018116
1.2018105
1.2017854
1.2017965
1.2017648
1.2017862
1.201688
1.2017807
1.2015222
1.2019872
1.198269
1.1983405
1.198408
1.1984681
1.1985246
1.1985772
1.1986257
1.1986707
1.1987129
1.1987525
1.1987902
1.1988263
1.1988613
1.1988953
1.1989289
1.1989623
1.1989958
1.1990297
1.1990642
1.1990996
1.199136
1.1991737
1.1992127
1.1992532
1.1992953
1.1993391
1.1993844
1.1994314
1.1994799
1.1995295
1.1995802
1.1996316
1.1996831
1.1997342
1.1997843
1.1998327
1.1998784
1.1999207
1.199959
1.1999925
1.2000208
1.2000441
1.2000622
1.2000755
1.2000845
1.2000902
1.2000931
1.2000944
1.2000947
1.2000944
1.2000958
1.2000965
1.2000994
1.2001033
1.200109
1.2001165
1.2001255
1.2001367
1.2001496
1.2001643
1.2001809
1.200199
1.2002188
1.2002401
1.2002625
1.2002856
1.2003091
1.2003323
1.2003547
1.2003758
1.2003952
1.2004124
1.2004271
1.2004391
1.2004482
1.2004554
1.2004598
1.2004617
1.2004612
1.200459
1.2004547
1.2004494
1.2004434
1.2004376
1.200433
1.200431
1.2004305
1.2004344
1.2004409
1.2004517
1.2004661
1.2004843
1.2005059
1.2005308
1.2005588
1.2005897
1.2006231
1.2006582
1.2006945
1.2007314
1.2007682
1.2008038
1.2008376
1.2008682
1.2008954
1.2009187
1.2009382
1.2009545
1.2009687
1.2009822
1.2009965
1.2010129
1.2010329
1.2010573
1.201087
1.2011224
1.2011633
1.2012091
1.2012592
1.2013129
1.2013686
1.2014246
1.201479
1.2015301
1.2015764
1.2016169
1.2016513
1.2016798
1.2017032
1.2017228
1.20174
1.2017563
1.2017732
1.2017918
1.201813
1.2018371
1.2018639
1.2018924
1.2019219
1.2019507
1.2019774
1.2020005
1.2020196
1.2020343
1.2020448
1.2020514
1.2020547
1.202055
1.202053
1.2020483
1.202042
1.2020333
1.2020233
1.2020112
1.2019986
1.2019844
1.2019702
1.2019549
1.201941
1.2019266
1.2019152
1.201904
1.2018964
1.2018878
1.201882
1.2018737
1.2018684
1.2018576
1.2018512
1.2018379
1.2018308
1.2018135
1.201812
1.2017865
1.2017975
1.2017653
1.201788
1.2016884
1.2017811
1.2015166
1.2019822
1.1982069
1.1982794
1.1983473
1.198409
1.1984671
1.1985212
1.1985717
1.198619
1.1986636
1.198706
1.1987467
1.1987859
1.1988242
1.1988617
1.1988989
1.1989359
1.1989732
1.1990108
1.1990491
1.1990881
1.1991281
1.1991692
1.1992114
1.1992549
1.1992998
1.1993459
1.1993932
1.1994418
1.1994914
1.1995417
1.1995926
1.1996436
1.1996943
1.1997441
1.1997925
1.1998388
1.1998821
1.199922
1.1999576
1.1999887
1.2000147
1.200036
1.2000524
1.2000646
1.2000728
1.200078
1.2000809
1.2000825
1.2000833
1.2000837
1.2000857
1.2000875
1.2000913
1.2000961
1.2001029
1.2001115
1.2001218
1.2001342
1.2001484
1.2001645
1.2001826
1.2002022
1.2002237
1.2002466
1.2002707
1.2002955
1.2003205
1.2003453
1.2003691
1.2003915
1.2004119
1.2004298
1.2004449
1.2004571
1.200466
1.2004725
1.200476
1.2004768
1.2004749
1.2004713
1.2004657
1.2004591
1.2004519
1.2004452
1.2004398
1.200437
1.200436
1.2004394
1.2004456
1.2004563
1.2004705
1.2004886
1.2005104
1.2005354
1.2005635
1.2005946
1.2006282
1.2006634
1.2006998
1.2007368
1.2007735
1.200809
1.2008425
1.2008726
1.2008992
1.2009218
1.2009405
1.200956
1.2009693
1.2009819
1.2009953
1.2010109
1.2010301
1.2010537
1.2010828
1.2011174
1.2011576
1.2012028
1.2012523
1.2013053
1.2013603
1.2014156
1.2014695
1.2015201
1.201566
1.2016062
1.2016405
1.201669
1.2016925
1.2017122
1.2017294
1.2017458
1.2017628
1.2017814
1.2018027
1.2018269
1.2018537
1.2018823
1.201912
1.2019411
1.2019681
1.2019917
1.2020114
1.2020267
1.202038
1.2020451
1.2020491
1.2020499
1.2020485
1.2020444
1.2020386
1.2020304
1.202021
1.2020096
1.2019977
1.2019841
1.2019705
1.2019558
1.2019423
1.2019283
1.2019171
1.201906
1.2018985
1.2018898
1.2018839
1.2018756
1.2018702
1.2018593
1.2018529
1.2018394
1.2018326
1.2018155
1.2018135
1.2017878
1.2017982
1.2017654
1.2017898
1.2016889
1.2017813
1.2015112
1.2019772
1.1981383
1.1982118
1.1982806
1.198344
1.1984038
1.1984599
1.1985126
1.1985623
1.1986097
1.1986551
1.1986989
1.1987415
1.1987832
1.1988243
1.1988652
1.1989061
1.1989472
1.1989887
1.1990308
1.1990736
1.1991172
1.1991617
1.1992073
1.1992538
1.1993013
1.1993498
1.1993992
1.1994493
1.1995
1.199551
1.199602
1.1996526
1.1997025
1.1997511
1.1997979
1.1998422
1.1998833
1.1999209
1.1999542
1.199983
1.2000071
1.2000266
1.2000416
1.2000527
1.2000603
1.2000652
1.2000681
1.2000699
1.2000712
1.2000723
1.2000749
1.2000774
1.2000821
1.2000879
1.2000958
1.2001054
1.2001168
1.2001304
1.2001458
1.2001632
1.2001827
1.2002038
1.2002268
1.2002513
1.200277
1.2003034
1.20033
1.2003563
1.2003815
1.2004051
1.2004265
1.2004452