/*--------------------------------*- C++ -*----------------------------------*\
| =========                 |                                                 |
| \\      /  F ield         | OpenFOAM: The Open Source CFD Toolbox           |
|  \\    /   O peration     | Version:  2406                                  |
|   \\  /    A nd           | Website:  www.openfoam.com                      |
|    \\/     M anipulation  |                                                 |
\*---------------------------------------------------------------------------*/
FoamFile
{
    version     2.0;
    format      ascii;
    arch        "LSB;label=32;scalar=64";
    class       volVectorField;
    location    "0.01";
    object      U;
}
// * * * * * * * * * * * * * * * * * * * * * * * * * * * * * * * * * * * * * //

dimensions      [0 1 -1 0 0 0 0];

internalField   nonuniform List<vector> 
8951
(
(28.755558 2.6191167 -1.6579834e-20)
(28.558988 2.3897538 -1.4756412e-25)
(28.382094 2.1626713 1.6145811e-20)
(28.224936 1.9389179 -5.1005354e-19)
(28.087905 1.7199482 5.0362502e-19)
(27.970929 1.5077062 1.6656267e-25)
(27.873485 1.3037935 -3.0726211e-20)
(27.795241 1.1097874 -3.0376284e-20)
(27.73587 0.92741546 -3.0044787e-20)
(27.694683 0.75862272 0)
(27.670287 0.60477795 -4.7101108e-19)
(27.661113 0.46623869 4.5926943e-19)
(27.665695 0.34969812 4.793382e-19)
(27.684069 0.24976134 2.8416398e-20)
(27.717422 0.16759114 1.1290726e-23)
(27.762743 0.10518876 2.8251644e-20)
(27.816389 0.063956617 -4.4883118e-19)
(27.876654 0.044621755 -2.7878229e-20)
(27.941837 0.047606861 2.7718642e-20)
(28.010072 0.072896973 4.135874e-19)
(28.07938 0.12008515 -4.1156654e-19)
(28.148101 0.18829035 4.3705861e-19)
(28.215581 0.27549298 -4.352591e-19)
(28.277502 0.37747367 0)
(28.330284 0.4964509 -2.7011117e-20)
(28.376499 0.63048148 0)
(28.411878 0.77032502 0)
(28.433934 0.92192955 0)
(28.444427 1.0766627 4.7387834e-19)
(28.438834 1.2309119 2.3250524e-23)
(28.419233 1.3851528 -4.1960971e-19)
(28.384777 1.5359233 4.2445311e-19)
(28.335466 1.6759343 -3.7050786e-19)
(28.270297 1.8044383 0)
(28.190176 1.9176714 -5.2585143e-20)
(28.095985 2.0139818 0)
(27.98907 2.0902516 5.207455e-20)
(27.871136 2.1456532 0)
(27.744235 2.1783227 0)
(27.610829 2.1877623 1.0161189e-19)
(27.473723 2.174072 0)
(27.335792 2.1376193 2.078985e-25)
(27.200169 2.0781977 9.7532743e-20)
(27.070579 1.9977691 -4.7927779e-20)
(26.947713 1.9002486 -4.2144586e-26)
(26.835417 1.7833564 -4.6098941e-20)
(26.736516 1.654368 4.5149719e-20)
(26.651013 1.5119856 4.4202773e-20)
(26.580324 1.3598135 -4.3275307e-20)
(26.524399 1.1992472 -3.390562e-19)
(26.484395 1.033149 6.6455331e-19)
(26.460333 0.86510382 -3.2594675e-19)
(26.450922 0.69513734 -4.0016092e-20)
(26.452342 0.52758521 3.8937374e-20)
(26.462527 0.375902 0)
(26.484879 0.22926257 0)
(26.525466 0.096521654 -3.7802416e-20)
(26.588246 -0.03219711 0)
(26.662015 -0.1559102 3.7102469e-20)
(26.740594 -0.2650701 0)
(26.823738 -0.3544138 -7.3356377e-20)
(26.911057 -0.42124457 0)
(27.001749 -0.46397463 7.3022892e-20)
(27.094639 -0.48155772 7.3023175e-20)
(27.188234 -0.47353556 1.0655665e-25)
(27.281021 -0.4399994 2.1982524e-19)
(27.37154 -0.38212948 -7.3472642e-20)
(27.45861 -0.30242556 5.5177984e-24)
(27.542072 -0.20588487 -6.6489157e-19)
(27.619959 -0.10155957 2.2193949e-19)
(27.682318 0.0082960599 -2.9576969e-19)
(27.730657 0.13160741 -1.4738772e-19)
(27.780819 0.26165428 2.1950291e-19)
(27.835135 0.37709181 2.8937164e-19)
(27.888048 0.47361939 -2.8489004e-19)
(27.941139 0.55120925 2.7945172e-19)
(27.995957 0.6033667 -2.7345542e-19)
(28.052291 0.63236054 -2.6693134e-19)
(28.113573 0.63706264 3.2460201e-19)
(28.181145 0.61320696 -6.3070632e-20)
(28.248577 0.56707427 -1.660521e-26)
(28.321898 0.50692429 0)
(28.399251 0.4261936 5.7824288e-20)
(28.477956 0.3369667 1.1256443e-19)
(28.561295 0.23977912 -2.1987049e-19)
(28.646827 0.14055225 2.1492264e-19)
(28.738301 0.043324621 5.2621086e-20)
(28.83736 -0.051803633 2.0659201e-19)
(28.941387 -0.143736 -3.0468564e-19)
(29.046439 -0.22827568 5.0082742e-20)
(29.151194 -0.29965581 -1.679615e-24)
(29.256585 -0.35396799 2.9573433e-19)
(29.363421 -0.38910718 0)
(29.472353 -0.40420222 0)
(29.583897 -0.39964418 0)
(29.698511 -0.37694491 0)
(29.816605 -0.33877229 -8.0794945e-27)
(29.937825 -0.28867995 1.0506123e-26)
(30.062098 -0.23107321 0)
(30.187301 -0.17150104 9.4244742e-20)
(30.313283 -0.11311187 0)
(30.443658 -0.060974639 0)
(30.577496 -0.023247723 0)
(30.711112 -0.0028676371 1.7399658e-19)
(30.842152 0.0006411686 -1.6928803e-19)
(30.970194 -0.009705101 8.2323777e-20)
(31.096979 -0.031641073 0)
(31.223115 -0.063686576 -7.7945875e-20)
(31.349139 -0.10284682 2.2789044e-19)
(31.475728 -0.1463376 -7.4156082e-20)
(31.602724 -0.19061176 0)
(31.730148 -0.23195615 -2.1330859e-19)
(31.858216 -0.26743596 1.3963594e-19)
(31.987116 -0.29527905 6.8652754e-20)
(32.116083 -0.31379249 -2.0321619e-19)
(32.244519 -0.32095765 1.3407358e-19)
(32.372765 -0.31622639 0)
(32.501034 -0.30131337 6.5813408e-20)
(32.629311 -0.27926121 -2.6080758e-19)
(32.757619 -0.25364917 3.8717387e-19)
(32.886007 -0.22850595 -2.550436e-19)
(33.013517 -0.2068782 -1.257788e-19)
(33.139163 -0.18990647 0)
(33.264038 -0.17878994 1.2161639e-19)
(33.389664 -0.17481334 -1.1907293e-19)
(33.51601 -0.17828401 -1.1645841e-19)
(33.642792 -0.18832935 -1.1381853e-19)
(33.769969 -0.20284406 0)
(33.89811 -0.21946532 1.0873975e-19)
(34.027701 -0.23605403 -1.0642563e-19)
(34.159294 -0.25081674 6.8561222e-26)
(34.29328 -0.26286348 3.3627592e-25)
(34.42942 -0.2718378 -1.0070627e-19)
(34.566968 -0.27687119 9.9191085e-20)
(34.705822 -0.27725502 -9.8003668e-20)
(34.845892 -0.2737685 -9.6967975e-20)
(34.98713 -0.2679854 4.7992814e-20)
(35.129206 -0.26134351 1.4253125e-19)
(35.272178 -0.25471058 -4.7018994e-20)
(35.415611 -0.24886223 9.298918e-20)
(35.55973 -0.24452579 1.3773851e-19)
(35.70415 -0.24215333 -1.8111454e-19)
(35.850016 -0.24164069 0)
(35.997032 -0.24307985 0)
(36.145873 -0.24569756 -8.6348709e-20)
(36.296104 -0.24897227 0)
(36.449282 -0.25229103 0)
(36.604364 -0.25555448 1.2357051e-19)
(36.762845 -0.25790325 -8.1210585e-20)
(36.923583 -0.25974528 -2.2263643e-25)
(37.088723 -0.26078231 3.9602918e-20)
(37.255773 -0.261271 -2.7409197e-19)
(37.427451 -0.26137908 1.1619077e-19)
(37.600308 -0.26146857 0)
(37.77829 -0.26142215 0)
(37.956246 -0.26128836 0)
(38.139514 -0.26094082 1.4813231e-19)
(38.321537 -0.26056209 1.4631269e-19)
(38.509707 -0.26043887 -3.6117194e-20)
(38.694632 -0.2603314 1.782419e-19)
(38.887007 -0.26054049 0)
(39.074187 -0.26012105 -1.7361389e-20)
(39.270306 -0.25816897 1.7138963e-20)
(39.458101 -0.25793508 1.353887e-19)
(39.659514 -0.25582326 -1.3375346e-19)
(39.848304 -0.25637146 -1.6522656e-20)
(40.058528 -0.25503796 1.6336967e-20)
(40.248912 -0.25276085 -9.257872e-20)
(40.467782 -0.25285073 0)
(40.652941 -0.24719403 0)
(40.883388 -0.24656079 1.3314524e-19)
(41.060645 -0.23545372 1.2399391e-19)
(41.312498 -0.23806623 -6.5643595e-20)
(41.465279 -0.21856638 3.9427739e-20)
(41.731532 -0.21467678 -1.9421203e-21)
(41.867945 -0.20595167 -2.9398012e-20)
(42.22392 -0.25188873 0)
(27.937937 2.8399029 -5.5356804e-25)
(27.7465 2.6044602 -4.8959127e-19)
(27.573706 2.3698208 4.9815283e-19)
(27.419913 2.1380371 5.0661511e-19)
(27.285051 1.9099296 -4.85442e-19)
(27.169582 1.6872658 0)
(27.073213 1.4720254 -2.8711426e-20)
(26.995375 1.2657736 -1.4191009e-20)
(26.935886 1.0701564 -4.3508243e-19)
(26.894395 0.88697848 4.7215932e-19)
(26.869819 0.71768109 0)
(26.860212 0.56290126 0)
(26.864479 0.4306807 0)
(26.882983 0.31350623 0)
(26.916492 0.21359748 4.2509754e-19)
(26.962843 0.13481104 -4.2202665e-19)
(27.019373 0.07604703 -2.6200525e-20)
(27.083495 0.038979889 2.6038777e-20)
(27.153791 0.024342931 2.5890281e-20)
(27.22858 0.032424294 2.5214189e-25)
(27.306108 0.063078239 4.100902e-19)
(27.384575 0.11573666 -3.8275299e-19)
(27.462516 0.18922995 -4.0663519e-19)
(27.538698 0.2813546 4.0512782e-19)
(27.609031 0.38897612 0)
(27.671395 0.51350775 -2.5160779e-20)
(27.727197 0.65155367 0)
(27.771992 0.79624695 -3.7545769e-19)
(27.804804 0.95153915 3.9956111e-19)
(27.826275 1.107861 -4.2365754e-19)
(27.832358 1.2690562 4.1696978e-19)
(27.824295 1.4239163 0)
(27.802832 1.573447 -3.918996e-19)
(27.766952 1.715761 -2.5232222e-23)
(27.716246 1.8441548 3.9406866e-19)
(27.651491 1.9564581 -3.6814569e-19)
(27.573515 2.0514259 -2.5405145e-23)
(27.483709 2.1255304 3.8876184e-19)
(27.383714 2.1783203 0)
(27.27568 2.2077275 3.3499906e-19)
(27.161878 2.2134648 -4.2628912e-19)
(27.044936 2.1956462 -4.6793683e-20)
(26.927628 2.1545894 -4.6136298e-20)
(26.812904 2.0902069 -4.0862705e-19)
(26.704046 2.0050298 4.4602014e-19)
(26.601352 1.9026682 3.937945e-19)
(26.508891 1.7806255 -3.4299773e-19)
(26.428947 1.6471171 1.4939013e-25)
(26.361012 1.500308 -4.1103387e-20)
(26.306633 1.3439894 4.0243035e-20)
(26.265746 1.1797807 3.5476692e-19)
(26.23944 1.010589 4.3688519e-24)
(26.227394 0.839651 -3.033344e-19)
(26.227143 0.66625493 -3.6875503e-20)
(26.235127 0.50337892 2.5294474e-19)
(26.25379 0.34780656 -2.8780737e-19)
(26.285843 0.20075093 0)
(26.334932 0.066521863 -3.5273015e-20)
(26.402607 -0.063835999 -2.7951787e-19)
(26.478701 -0.18682078 3.120543e-19)
(26.558985 -0.29384506 2.7578596e-19)
(26.643393 -0.38053237 -2.7471053e-19)
(26.731534 -0.44440647 -2.7413768e-19)
(26.822713 -0.48393841 2.7401852e-19)
(26.915936 -0.49812318 -6.8577775e-20)
(27.009981 -0.48656442 -3.436763e-20)
(27.103653 -0.44948177 2.7582643e-19)
(27.195875 -0.38824854 -3.4605735e-19)
(27.285849 -0.30568192 2.7787726e-19)
(27.373406 -0.20701534 6.9689172e-20)
(27.456437 -0.099743129 -2.7921496e-19)
(27.526294 0.012609023 6.9769173e-20)
(27.586123 0.13757975 6.9512054e-20)
(27.650081 0.26603066 6.8979144e-20)
(27.718843 0.37922503 6.8148301e-20)
(27.787122 0.47356529 0)
(27.856409 0.5484453 0)
(27.927638 0.59775002 -6.4266574e-20)
(28.000044 0.62378923 -6.2666614e-20)
(28.07738 0.62510857 -6.0907853e-20)
(28.158914 0.59846223 0)
(28.239332 0.55040051 -5.7332863e-20)
(28.324509 0.4881292 0)
(28.412148 0.4061187 0)
(28.50014 0.31588 -5.2758076e-20)
(28.591531 0.21814792 -2.0587232e-19)
(28.684294 0.1186893 2.011727e-19)
(28.782055 0.021083219 -2.4627783e-19)
(28.8859 -0.074279613 1.4505642e-19)
(28.993329 -0.16579036 4.7553892e-20)
(29.101 -0.24917629 -1.5008256e-26)
(29.207969 -0.31905268 -4.6487235e-20)
(29.315316 -0.37178745 -1.8477854e-19)
(29.423996 -0.40538299 3.6805507e-19)
(29.53481 -0.41904897 -1.8357853e-19)
(29.648426 -0.41325485 0)
(29.765415 -0.38958045 0)
(29.886236 -0.35071146 -9.1096997e-20)
(30.010604 -0.30020972 6.033707e-27)
(30.13844 -0.24245914 1.7945549e-19)
(30.267925 -0.18292972 2.2582609e-24)
(30.399017 -0.12489004 -1.7450752e-19)
(30.534613 -0.073997197 -1.7148182e-19)
(30.673131 -0.037396225 1.6806342e-19)
(30.811075 -0.017832776 8.1932339e-20)
(30.946169 -0.014842783 2.39231e-19)
(31.077958 -0.025585622 -1.5516663e-19)
(31.208011 -0.047894918 -1.5098181e-19)
(31.336848 -0.080205304 -7.3505452e-20)
(31.464997 -0.11951283 1.4331853e-19)
(31.593096 -0.16296115 -6.997809e-20)
(31.721071 -0.20698995 -1.369488e-19)
(31.849078 -0.24793261 6.7146323e-20)
(31.977415 -0.28292637 1.3193199e-19)
(32.10633 -0.31018949 -1.9467964e-19)
(32.235278 -0.32799566 2.56187e-19)
(32.363782 -0.33441459 -1.2682278e-19)
(32.492286 -0.32902556 1.2569865e-19)
(32.621052 -0.31360606 -1.8695385e-19)
(32.750112 -0.29121968 -1.2355181e-19)
(32.879448 -0.26545463 -1.2235736e-19)
(33.008951 -0.24026745 -1.4470832e-24)
(33.137581 -0.21859299 2.3880338e-19)
(33.264474 -0.20162634 0)
(33.390411 -0.19066943 -2.6332608e-26)
(33.516728 -0.18694035 1.1329288e-19)
(33.643374 -0.19062323 0)
(33.770096 -0.20079564 1.0844395e-19)
(33.896918 -0.2153688 -2.1208688e-19)
(34.02444 -0.23200469 1.0374575e-19)
(34.15321 -0.24857664 2.0321194e-19)
(34.283839 -0.26331271 5.104733e-26)
(34.416769 -0.27531676 9.7917347e-20)
(34.551827 -0.28419046 -9.6332388e-20)
(34.688372 -0.28906903 0)
(34.826379 -0.28930417 4.6932292e-20)
(34.965774 -0.28570977 -9.2931733e-20)
(35.106466 -0.27985578 -9.2052983e-20)
(35.248061 -0.27316785 -4.5596178e-20)
(35.39051 -0.26650073 4.5156015e-20)
(35.533383 -0.26063095 4.4682871e-20)
(35.676843 -0.2562835 -8.8309857e-20)
(35.820556 -0.25392838 8.7157021e-20)
(35.965504 -0.25346298 -4.2952707e-20)
(36.111467 -0.25494909 4.2301332e-20)
(36.259106 -0.25760784 1.2494743e-19)
(36.408134 -0.26094443 4.1013482e-20)
(36.559995 -0.26433296 0)
(36.713782 -0.26766112 -7.9647582e-20)
(36.870931 -0.27008552 -7.8579171e-20)
(37.030515 -0.27202973 -3.8811874e-20)
(37.194399 -0.27316338 -1.1513392e-19)
(37.360383 -0.27375883 1.8986758e-19)
(37.530866 -0.27396566 -7.5179342e-20)
(37.702723 -0.27416675 3.7214491e-20)
(37.879441 -0.27420553 0)
(38.056329 -0.27415444 0)
(38.238179 -0.27385975 0)
(38.419078 -0.27354903 1.4256366e-19)
(38.605661 -0.27345157 0)
(38.789391 -0.27339972 0)
(38.979954 -0.27360051 1.3745004e-19)
(39.165929 -0.27324735 0)
(39.360112 -0.27128819 1.5089101e-19)
(39.546857 -0.2711345 -1.6568236e-20)
(39.746176 -0.26898596 -1.6381091e-20)
(39.934118 -0.26969825 -1.2961263e-19)
(40.141967 -0.26830359 -5.4623754e-26)
(40.331695 -0.2662312 1.8180924e-19)
(40.548236 -0.26614071 -1.2573746e-19)
(40.733139 -0.26070773 0)
(40.961073 -0.25968907 0)
(41.138028 -0.24900196 1.1455268e-19)
(41.388723 -0.25071736 7.7281539e-20)
(41.540549 -0.23158562 -7.7993325e-20)
(41.807711 -0.22740188 -2.2838461e-21)
(41.944875 -0.22032028 0)
(42.300081 -0.26514573 0)
(26.886567 2.8410327 1.544474e-20)
(26.720796 2.5996919 -4.8617882e-19)
(26.572959 2.3594377 4.798343e-19)
(26.443248 2.1226341 -4.8845489e-19)
(26.331532 1.8897547 2.9235443e-20)
(26.238333 1.6630593 -1.4441495e-20)
(26.163085 1.4443794 -1.4273567e-20)
(26.105363 1.2353582 -1.9053961e-25)
(26.065113 1.0376152 -1.3963685e-20)
(26.041598 0.85246297 0)
(26.032933 0.68062538 1.3490974e-20)
(26.037746 0.53136613 0)
(26.056895 0.39709791 0)
(26.091562 0.27808534 0)
(26.139057 0.18056317 -4.5027666e-19)
(26.19777 0.10369827 8.1535969e-19)
(26.265572 0.047527691 -4.1809322e-19)
(26.340443 0.013735775 -4.1557837e-19)
(26.421051 0.0028495929 4.1324169e-19)
(26.505776 0.015050045 -2.5693623e-20)
(26.592996 0.050082741 0)
(26.681067 0.10722896 -2.5456045e-20)
(26.768589 0.18515013 0)
(26.85395 0.2816621 -4.0407843e-19)
(26.933562 0.39429616 7.8013586e-19)
(27.006183 0.5235143 -3.7624917e-19)
(27.072108 0.66527951 3.7512965e-19)
(27.127403 0.81462748 -4.2393293e-19)
(27.171689 0.97330399 2.487175e-20)
(27.204499 1.1333474 -2.4808109e-20)
(27.223357 1.2950486 3.7118451e-19)
(27.22876 1.4562543 -3.8949719e-19)
(27.220613 1.6056994 -2.3988238e-20)
(27.199495 1.746681 0)
(27.164031 1.8773291 0)
(27.115761 1.9891664 2.433747e-20)
(27.055077 2.0833937 -3.8737147e-19)
(26.983459 2.1559002 3.8487597e-19)
(26.902385 2.2067104 0)
(26.814241 2.2334658 -3.3107631e-19)
(26.720927 2.2361471 3.5079098e-19)
(26.624836 2.21478 3.9247941e-19)
(26.528762 2.1696938 -3.6395739e-19)
(26.435371 2.100976 -3.5800499e-19)
(26.347477 2.0116469 -4.3961425e-20)
(26.265095 1.9049597 6.8967829e-19)
(26.192522 1.7782491 -6.3359176e-19)
(26.131422 1.6407781 2.8958129e-19)
(26.080812 1.4900797 -4.0510095e-20)
(26.04256 1.3299785 0)
(26.016614 1.1626511 -3.887828e-20)
(26.003657 0.99033176 0)
(26.002632 0.81521141 2.9635233e-19)
(26.010706 0.64558056 -5.436953e-19)
(26.027286 0.47907509 2.8838188e-19)
(26.055718 0.32214385 2.856759e-19)
(26.096628 0.17489935 -2.8209892e-19)
(26.153313 0.038657426 5.5289364e-26)
(26.225426 -0.092816257 -3.4554081e-20)
(26.30405 -0.2149665 2.4007101e-19)
(26.38634 -0.32017956 -2.3871305e-19)
(26.4723 -0.40468231 -2.7176999e-19)
(26.561578 -0.46613371 2.7119498e-19)
(26.653609 -0.50304566 -3.0494322e-19)
(26.747602 -0.5144518 2.7130059e-19)
(26.842612 -0.50001917 2.3787524e-19)
(26.937769 -0.46009076 -5.7932641e-19)
(27.032365 -0.39621695 3.4186574e-19)
(27.125934 -0.31145229 3.4290359e-20)
(27.21831 -0.21107186 -3.0930209e-19)
(27.307303 -0.10192407 2.7511565e-19)
(27.385682 0.012840484 -6.8660863e-20)
(27.457768 0.13872299 6.831801e-20)
(27.535719 0.26540681 2.7082849e-19)
(27.618885 0.37659874 -6.0133059e-19)
(27.702347 0.46902946 2.6267526e-19)
(27.787442 0.54158774 0)
(27.874516 0.58855094 6.2908157e-20)
(27.962469 0.61212681 -5.6886141e-26)
(28.054829 0.6107512 5.9575243e-20)
(28.149542 0.58205416 2.3107878e-19)
(28.242274 0.53270079 5.6052959e-20)
(28.338588 0.4687231 -2.7265367e-19)
(28.43602 0.38584123 2.122829e-19)
(28.532786 0.29501774 -4.1340655e-19)
(28.631791 0.1969893 2.0160728e-19)
(28.73141 0.097408787 -4.9255624e-20)
(28.835059 -0.00046390498 0)
(28.943384 -0.095896351 1.8943148e-19)
(29.054076 -0.18692041 -2.7946349e-19)
(29.164353 -0.26923582 -4.5935131e-20)
(29.273594 -0.33780679 4.5501493e-20)
(29.382983 -0.38923131 0)
(29.493617 -0.42158734 0)
(29.606423 -0.4341432 0)
(29.722193 -0.42742483 0)
(29.841585 -0.40305654 1.7841684e-19)
(29.965092 -0.363726 -3.553291e-19)
(30.092494 -0.31299236 -4.4133533e-20)
(30.223731 -0.2552196 -2.4066203e-24)
(30.357239 -0.19582324 3.4550138e-19)
(30.492994 -0.13829143 -2.5516703e-19)
(30.633262 -0.088368605 0)
(30.775965 -0.052628066 -1.6389448e-19)
(30.917745 -0.03362175 1.599123e-19)
(31.056443 -0.030921566 0)
(31.191558 -0.041860705 7.5804805e-20)
(31.324494 -0.064354679 0)
(31.455695 -0.096760528 -7.1892462e-20)
(31.585673 -0.13606839 2.8045628e-19)
(31.715041 -0.17937981 -1.3697731e-19)
(31.843809 -0.22311534 0)
(31.972252 -0.26365722 6.5737769e-20)
(32.100745 -0.29819958 0)
(32.229587 -0.32494736 0)
(32.358442 -0.3421444 1.2538116e-19)
(32.48695 -0.34793989 1.7503602e-24)
(32.615641 -0.34201822 -1.2296592e-19)
(32.744827 -0.32619781 0)
(32.87457 -0.30355054 0)
(33.004807 -0.2776604 0)
(33.135285 -0.25241207 -5.9144718e-20)
(33.264891 -0.23065767 5.837344e-20)
(33.392878 -0.21365055 5.7524805e-20)
(33.519749 -0.20278025 -1.1310073e-19)
(33.646616 -0.19921011 7.8939756e-25)
(33.773447 -0.20302005 -1.0854241e-19)
(33.900014 -0.21325153 -1.0619259e-19)
(34.026399 -0.22783671 0)
(34.153232 -0.24446109 0)
(34.281119 -0.2610084 -1.9915649e-19)
(34.410728 -0.27572242 9.7686533e-20)
(34.542552 -0.28769482 0)
(34.676479 -0.29648781 9.4429595e-20)
(34.811969 -0.30124336 0)
(34.949071 -0.301365 -9.1990257e-20)
(35.087724 -0.29768979 0)
(35.227796 -0.29177907 1.8036494e-19)
(35.368833 -0.28504608 -4.4663385e-20)
(35.510692 -0.27833769 4.422596e-20)
(35.652937 -0.27243399 0)
(35.795682 -0.2680612 -4.3237878e-20)
(35.938631 -0.26570501 -4.2672052e-20)
(36.08262 -0.26526579 0)
(36.227485 -0.26678221 0)
(36.373892 -0.2694737 -6.0067461e-26)
(36.52168 -0.27286737 8.0331516e-20)
(36.672185 -0.27632233 -3.9567053e-20)
(36.82464 -0.27971645 3.8998369e-20)
(36.980435 -0.28222327 7.6950739e-20)
(37.138814 -0.28427342 7.6010553e-20)
(37.301406 -0.28550742 -6.9095331e-26)
(37.466268 -0.28621206 0)
(37.635517 -0.2865193 0)
(37.806312 -0.286829 0)
(37.981733 -0.28694967 1.081823e-19)
(38.157494 -0.2869754 -3.5680018e-20)
(38.337906 -0.28673026 1.4114958e-19)
(38.517624 -0.28648013 -1.3952127e-19)
(38.702605 -0.28640426 0)
(38.885084 -0.28639964 0)
(39.073839 -0.2865999 -1.3449779e-19)
(39.258548 -0.28630134 0)
(39.450814 -0.28433898 -1.3241143e-25)
(39.636438 -0.28425875 -1.2968237e-19)
(39.833692 -0.28207608 -1.2821398e-19)
(40.020702 -0.28294159 1.2680672e-19)
(40.226203 -0.2814934 0)
(40.41519 -0.27962522 -6.8156371e-20)
(40.629468 -0.27935685 1.0764023e-19)
(40.814045 -0.27415791 0)
(41.039487 -0.27274449 1.2827166e-19)
(41.216087 -0.26251686 -1.1956e-19)
(41.465555 -0.26332205 2.3388325e-26)
(41.616478 -0.2446069 3.6220343e-20)
(41.884458 -0.24015386 -3.0978994e-21)
(42.022144 -0.23469995 1.4207359e-20)
(42.376753 -0.2781939 -1.173449e-21)
(25.821789 2.8375325 -4.8928726e-19)
(25.682834 2.5903692 1.5088391e-20)
(25.56092 2.3446088 -1.4893282e-20)
(25.456063 2.1029596 4.7060696e-19)
(25.368175 1.8654094 -4.9389979e-19)
(25.29774 1.6349932 4.8812577e-19)
(25.243976 1.4130921 1.4217405e-20)
(25.206823 1.2015251 -4.35259e-19)
(25.185899 1.001198 -4.3079733e-19)
(25.179523 0.81275581 4.4755976e-19)
(25.186253 0.64668506 -4.2586118e-19)
(25.207015 0.49463001 -1.3396171e-20)
(25.243436 0.35758777 8.7124934e-19)
(25.292995 0.24087565 -8.5123845e-19)
(25.3538 0.14494076 4.093348e-19)
(25.424773 0.06991142 3.9345383e-20)
(25.504048 0.016444161 -1.3032151e-20)
(25.589915 -0.014058018 -2.5909853e-20)
(25.681101 -0.02123591 -2.5766597e-20)
(25.776087 -0.0049970899 0)
(25.873382 0.034296561 0)
(25.97147 0.095798426 0)
(26.068962 0.17807019 4.0459152e-19)
(26.164061 0.27898824 -8.0595497e-19)
(26.253748 0.39645061 4.2656098e-19)
(26.337214 0.53008376 0)
(26.41393 0.67565202 -3.4890497e-19)
(26.480645 0.82943781 3.9746772e-19)
(26.537071 0.9913771 3.4673862e-19)
(26.582206 1.1549146 -3.7036505e-19)
(26.614433 1.3196587 -3.6925726e-19)
(26.634508 1.4804072 3.9259841e-19)
(26.641306 1.6336933 2.4453797e-20)
(26.634804 1.7784487 3.8457515e-19)
(26.616494 1.9047027 -3.8234926e-19)
(26.585363 2.0179788 0)
(26.542968 2.111451 -3.5978685e-19)
(26.490542 2.1824026 3.8098402e-19)
(26.429274 2.2312073 0)
(26.361964 2.2552711 2.3369941e-20)
(26.289899 2.2548969 3.6952219e-19)
(26.215168 2.2300954 2.2800993e-20)
(26.14084 2.1810302 1.6885255e-23)
(26.069094 2.1081379 -3.529273e-19)
(26.002278 2.0148582 3.4652387e-19)
(25.940308 1.9040073 -3.3983169e-19)
(25.887607 1.7728565 0)
(25.845168 1.6317609 -3.6699962e-19)
(25.811613 1.4775033 3.1951907e-19)
(25.789356 1.3139358 2.7391504e-19)
(25.77818 1.1434349 -3.0686064e-19)
(25.777709 0.96661311 0)
(25.786752 0.79492832 2.912122e-19)
(25.80451 0.62103081 -2.8933563e-19)
(25.83118 0.45316861 0)
(25.868882 0.29636925 -2.8232988e-19)
(25.918193 0.1480393 3.4854237e-20)
(25.98193 0.010078032 5.8617088e-19)
(26.058299 -0.12196385 3.4167785e-20)
(26.139721 -0.24300212 -5.4261843e-19)
(26.224338 -0.34636939 2.3606427e-19)
(26.312173 -0.42871426 0)
(26.402949 -0.48780155 0)
(26.496248 -0.52218783 -2.3449524e-19)
(26.591489 -0.53095537 -3.9612795e-24)
(26.688011 -0.51384506 2.6863601e-19)
(26.785267 -0.47132934 6.7321426e-20)
(26.882894 -0.40512954 -2.6999998e-19)
(26.980711 -0.31848689 2.7062254e-19)
(27.07855 -0.2166529 -3.387393e-20)
(27.174265 -0.10598375 0)
(27.262021 0.010705579 3.3763803e-20)
(27.346783 0.13687409 -6.7109118e-20)
(27.438664 0.26164071 -3.6537667e-19)
(27.535996 0.37083598 5.8942188e-19)
(27.634282 0.46135938 -2.5729e-19)
(27.734633 0.53167051 0)
(27.836865 0.57645566 -1.8474653e-19)
(27.939646 0.59775428 2.3991413e-19)
(28.045993 0.59398437 5.8206509e-20)
(28.153066 0.56371375 2.2595034e-19)
(28.257412 0.51320733 -2.1976399e-19)
(28.364254 0.44781947 5.3434627e-20)
(28.470826 0.36439268 -2.0789112e-19)
(28.575862 0.27318529 1.518497e-19)
(28.682061 0.17502197 0)
(28.788146 0.075440605 4.8257759e-20)
(28.897291 -0.022544206 -1.8906111e-19)
(29.009809 -0.11787232 1.8559871e-19)
(29.123624 -0.20827012 4.5636492e-20)
(29.236473 -0.28946884 -2.2498283e-19)
(29.348012 -0.35674632 1.7820066e-19)
(29.459494 -0.40690583 0)
(29.572149 -0.43809081 -4.3996098e-20)
(29.687009 -0.44962088 -4.3829079e-20)
(29.804965 -0.44207071 0)
(29.92674 -0.41709913 0)
(30.052854 -0.37739141 0)
(30.183153 -0.32650158 -4.3040071e-20)
(30.317601 -0.26878131 1.7055535e-19)
(30.45485 -0.20960014 -1.6847303e-19)
(30.594827 -0.15265 8.296703e-20)
(30.739249 -0.10360463 0)
(30.885673 -0.068619432 -1.5994079e-19)
(31.030836 -0.050072365 -1.5617306e-19)
(31.172719 -0.047574555 1.5219214e-19)
(31.310769 -0.058622812 -7.4123076e-20)
(31.446229 -0.081207206 0)
(31.579476 -0.11361454 1.4073731e-19)
(31.711011 -0.15283302 -6.8653891e-20)
(31.841424 -0.19593185 8.466052e-25)
(31.970807 -0.2393202 -1.9699838e-19)
(32.099546 -0.27942968 -1.2881594e-19)
(32.228084 -0.31350452 6.3284719e-20)
(32.356768 -0.33973836 1.8677755e-19)
(32.48545 -0.35634895 -1.8423135e-19)
(32.613893 -0.36156019 -6.0768132e-20)
(32.742697 -0.35515226 0)
(32.872219 -0.33897535 0)
(33.00254 -0.31610247 0)
(33.133549 -0.29010358 0)
(33.264865 -0.2647903 1.7362718e-19)
(33.395313 -0.24294898 -5.7122955e-20)
(33.524236 -0.22588834 -5.6292941e-20)
(33.651922 -0.21506897 0)
(33.779209 -0.21160964 5.4288651e-20)
(33.906121 -0.21550092 0)
(34.032448 -0.22575247 -1.7360666e-25)
(34.15832 -0.24031914 1.0183752e-19)
(34.2844 -0.25690962 0)
(34.411348 -0.27341833 -4.6729258e-26)
(34.539886 -0.28810278 4.7915771e-20)
(34.670557 -0.30004066 0)
(34.803306 -0.30875682 -4.6321275e-20)
(34.937685 -0.3134021 -4.5648243e-20)
(35.073824 -0.31342726 4.5116017e-20)
(35.211668 -0.30968545 4.639321e-25)
(35.351046 -0.30372595 -4.4213129e-20)
(35.491449 -0.29694818 8.7574061e-20)
(35.632651 -0.29019382 0)
(35.774202 -0.28424886 4.288747e-20)
(35.91618 -0.27984274 4.237657e-20)
(36.058301 -0.27747365 1.2546265e-19)
(36.201293 -0.27704617 -4.1224819e-20)
(36.345023 -0.27858091 -8.1205481e-20)
(36.490171 -0.2812991 -1.5991853e-19)
(36.636682 -0.28474488 -7.8741368e-20)
(36.785794 -0.28826253 0)
(36.936885 -0.29172286 0)
(37.091301 -0.29431642 3.7712614e-20)
(37.248425 -0.29647415 -1.1174729e-19)
(37.409688 -0.29781075 -3.6825831e-20)
(37.573373 -0.29862609 3.6430887e-20)
(37.741348 -0.29903495 7.2113893e-20)
(37.911022 -0.29945041 7.1384328e-20)
(38.085109 -0.29964956 -7.0656582e-20)
(38.259688 -0.29974652 0)
(38.438638 -0.29954762 -1.3826512e-19)
(38.617119 -0.29935141 1.0249806e-19)
(38.800484 -0.29929324 1.0127392e-19)
(38.981657 -0.29932845 1.6671765e-20)
(39.168609 -0.29952754 1.1046982e-25)
(39.351996 -0.29927867 8.3753234e-26)
(39.542359 -0.29731735 -1.4458054e-19)
(39.726793 -0.29730425 0)
(39.922009 -0.29509008 1.4124278e-19)
(40.108004 -0.29609778 5.2366671e-26)
(40.311184 -0.29460098 -1.5358726e-20)
(40.499352 -0.29293584 0)
(40.711436 -0.29249444 -1.2045503e-19)
(40.895607 -0.28754524 0)
(41.118573 -0.28572241 -2.4382278e-19)
(41.294765 -0.275993 7.3173964e-21)
(41.542934 -0.27586232 0)
(41.693018 -0.25762436 0)
(41.961741 -0.25313638 1.7789113e-21)
(42.09972 -0.24908085 -1.3581144e-20)
(42.453754 -0.29104143 1.7567738e-21)
(24.875355 3.0791662 -4.7706497e-19)
(24.748486 2.8256108 4.7065202e-19)
(24.637216 2.5729579 -1.4984892e-20)
(24.541988 2.3221121 -4.7345843e-19)
(24.462546 2.0760507 4.6761224e-19)
(24.39902 1.8342198 4.7653731e-19)
(24.35162 1.6006602 -1.4250395e-20)
(24.319604 1.3759125 2.257432e-23)
(24.303153 1.1614922 -4.4709926e-19)
(24.300637 0.95739217 -1.3636781e-20)
(24.310729 0.7752507 1.0390665e-25)
(24.334629 0.60516362 -4.3126228e-19)
(24.373626 0.45038761 4.3094805e-19)
(24.425922 0.31530924 -1.3360741e-20)
(24.489618 0.19995686 1.3261274e-20)
(24.563609 0.10552945 1.31682e-20)
(24.646922 0.032642817 4.055285e-19)
(24.737851 -0.01793399 -4.160053e-19)
(24.834919 -0.04507542 0)
(24.936928 -0.048521681 -4.1132142e-19)
(25.04248 -0.02826398 8.0559274e-19)
(25.150207 0.015232908 -3.8173723e-19)
(25.258695 0.081019268 4.0531777e-19)
(25.366564 0.16759423 1.3182911e-23)
(25.471979 0.27289831 -3.7673687e-19)
(25.572445 0.39500116 0)
(25.667306 0.53284027 0)
(25.755508 0.68223943 -2.4831425e-20)
(25.834436 0.84017407 0)
(25.903705 1.005285 2.4657837e-20)
(25.962127 1.1721719 -3.9316794e-19)
(26.008691 1.3395286 3.6726102e-19)
(26.04391 1.5023292 2.4393349e-20)
(26.0665 1.6568635 0)
(26.076871 1.8004043 3.8698631e-19)
(26.075275 1.9319594 2.3885611e-23)
(26.062911 2.0407923 -3.7568522e-19)
(26.039503 2.1339145 -4.7259563e-20)
(26.007191 2.2038729 0)
(25.966518 2.2505432 0)
(25.920835 2.271906 -2.3095418e-20)
(25.870514 2.2685643 4.5614771e-20)
(25.81767 2.2403559 -3.5977407e-19)
(25.76549 2.1874398 3.5410411e-19)
(25.715575 2.1106074 0)
(25.669864 2.0136338 -2.1352026e-20)
(25.6284 1.8988567 3.3502859e-19)
(25.59546 1.763674 -6.566532e-19)
(25.571398 1.6192306 4.0200383e-20)
(25.554667 1.4616027 3.348307e-19)
(25.548262 1.2948989 3.8604653e-20)
(25.551178 1.1196943 3.7453798e-20)
(25.562253 0.94639948 2.5627436e-19)
(25.582504 0.76961036 -2.9076191e-19)
(25.611092 0.59407627 -3.2309058e-19)
(25.647563 0.42689003 6.0108989e-19)
(25.694302 0.26908955 -2.7900219e-19)
(25.751832 0.11973698 2.4115106e-19)
(25.822256 -0.019490499 2.0660022e-24)
(25.902872 -0.15162571 -2.7018527e-19)
(25.987406 -0.27133089 -3.3524829e-20)
(26.074691 -0.37279617 0)
(26.164759 -0.45297308 -2.3244025e-19)
(26.257431 -0.50972037 4.9693345e-19)
(26.352444 -0.54164515 -2.6480662e-19)
(26.449435 -0.54788792 0)
(26.548027 -0.52827248 2.6528348e-19)
(26.647982 -0.48340387 -2.9902206e-19)
(26.749256 -0.41516346 0)
(26.851904 -0.32693583 -2.6678001e-19)
(26.955766 -0.22390309 3.0027098e-19)
(27.058846 -0.11196542 0)
(27.156577 0.006094964 -9.9964727e-26)
(27.254127 0.13202994 2.9650021e-19)
(27.359645 0.25477442 -2.6062568e-19)
(27.470733 0.36198902 -6.418029e-20)
(27.583317 0.45061761 -2.5200346e-19)
(27.698225 0.51876015 2.4680494e-19)
(27.814819 0.56151023 6.724637e-26)
(27.931558 0.58069596 2.344548e-19)
(28.050832 0.57496967 -5.6928658e-19)
(28.169471 0.54331096 2.2150735e-19)
(28.28482 0.49186304 -5.3844732e-20)
(28.401409 0.42539965 -2.0934784e-19)
(28.516526 0.34164339 2.0366795e-19)
(28.629324 0.25023465 3.7843497e-26)
(28.742289 0.1520969 0)
(28.85444 0.052640014 -1.4189551e-19)
(28.968694 -0.045300061 1.8530603e-19)
(29.085132 -0.14035449 0)
(29.201933 -0.22999967 -4.4730276e-20)
(29.317298 -0.31003064 8.8185202e-20)
(29.43113 -0.37601032 0)
(29.54472 -0.4249277 -4.3297606e-20)
(29.659421 -0.45498548 2.1522961e-19)
(29.776351 -0.46554807 -1.7141767e-19)
(29.896478 -0.45723278 0)
(30.020576 -0.43172511 1.7006824e-19)
(30.149188 -0.39170481 -3.3837125e-19)
(30.282223 -0.34072007 1.2599621e-19)
(30.419676 -0.28311326 2.0802064e-19)
(30.560364 -0.22420852 -1.6440294e-19)
(30.704138 -0.16785982 4.0491146e-20)
(30.85222 -0.11963576 1.5920398e-19)
(31.001936 -0.085314352 -1.9523805e-19)
(31.150071 -0.067141285 3.8157271e-20)
(31.294749 -0.064772097 0)
(31.435369 -0.07585515 7.2531676e-20)
(31.57302 -0.098448983 2.1207024e-19)
(31.70802 -0.13077768 6.8928063e-20)
(31.840856 -0.16983194 -6.7274341e-20)
(31.972105 -0.2126532 1.3150729e-19)
(32.101939 -0.25564813 -6.4377186e-20)
(32.230839 -0.29529664 6.3150593e-20)
(32.359315 -0.32888689 6.2054797e-20)
(32.487755 -0.35460415 -6.1049439e-20)
(32.616184 -0.37064414 0)