/*--------------------------------*- C++ -*----------------------------------*\
| =========                 |                                                 |
| \\      /  F ield         | OpenFOAM: The Open Source CFD Toolbox           |
|  \\    /   O peration     | Version:  2406                                  |
|   \\  /    A nd           | Website:  www.openfoam.com                      |
|    \\/     M anipulation  |                                                 |
\*---------------------------------------------------------------------------*/
FoamFile
{
    version     2.0;
    format      ascii;
    arch        "LSB;label=32;scalar=64";
    class       volScalarField;
    location    "0.013";
    object      p;
}
// * * * * * * * * * * * * * * * * * * * * * * * * * * * * * * * * * * * * * //

dimensions      [1 -1 -2 0 0 0 0];

internalField   nonuniform List<scalar> 
23203
(
100386.05
100388.29
100390.75
100393.22
100395.94
100398.96
100402.29
100405.91
100409.81
100413.98
100418.42
100423.12
100428.07
100433.27
100438.71
100444.4
100450.32
100456.48
100462.89
100469.54
100476.44
100483.58
100490.96
100398.51
100400.68
100403.07
100405.49
100408.14
100411.09
100414.32
100417.83
100421.61
100425.66
100429.96
100434.51
100439.3
100444.34
100449.61
100455.12
100460.86
100466.84
100473.05
100479.5
100486.2
100493.13
100500.29
100410.86
100412.95
100415.31
100417.7
100420.31
100423.19
100426.34
100429.76
100433.43
100437.35
100441.52
100445.93
100450.57
100455.45
100460.55
100465.89
100471.45
100477.24
100483.26
100489.51
100496
100502.72
100509.67
100423
100425.07
100427.45
100429.84
100432.42
100435.26
100438.34
100441.67
100445.25
100449.05
100453.1
100457.37
100461.86
100466.58
100471.52
100476.69
100482.07
100487.68
100493.5
100499.56
100505.84
100512.36
100519.09
100435.02
100437.1
100439.5
100441.9
100444.47
100447.27
100450.3
100453.56
100457.05
100460.75
100464.67
100468.81
100473.17
100477.73
100482.52
100487.51
100492.72
100498.14
100503.78
100509.64
100515.72
100522.03
100446.94
100449.03
100451.45
100453.87
100456.44
100459.21
100462.21
100465.4
100468.81
100472.41
100476.23
100480.24
100484.46
100488.88
100493.51
100498.34
100503.37
100508.61
100514.06
100519.73
100525.61
100531.72
100458.73
100460.84
100463.29
100465.73
100468.3
100471.07
100474.03
100477.17
100480.51
100484.03
100487.74
100491.64
100495.73
100500.01
100504.48
100509.15
100514.02
100519.08
100524.35
100529.83
100535.52
100541.42
100470.35
100472.51
100474.99
100477.46
100480.05
100482.82
100485.75
100488.86
100492.13
100495.58
100499.19
100502.99
100506.95
100511.1
100515.43
100519.94
100524.64
100529.54
100534.63
100539.92
100545.41
100551.12
100481.83
100484.02
100486.54
100489.05
100491.67
100494.44
100497.36
100500.43
100503.66
100507.03
100510.57
100514.26
100518.11
100522.13
100526.32
100530.69
100535.23
100539.96
100544.87
100549.98
100555.29
100560.8
100493.06
100495.32
100497.91
100500.48
100503.13
100505.91
100508.83
100511.88
100515.06
100518.38
100521.84
100525.44
100529.19
100533.09
100537.15
100541.37
100545.76
100550.33
100555.08
100560.01
100565.14
100570.46
100504.13
100506.46
100509.11
100511.73
100514.42
100517.23
100520.15
100523.19
100526.34
100529.6
100532.99
100536.51
100540.16
100543.95
100547.89
100551.98
100556.23
100560.64
100565.23
100569.99
100574.95
100580.08
100515.04
100517.43
100520.13
100522.81
100525.54
100528.37
100531.3
100534.33
100537.46
100540.68
100544.01
100547.45
100551.02
100554.7
100558.53
100562.49
100566.6
100570.87
100575.31
100579.91
100584.7
100589.66
100525.76
100528.2
100530.97
100533.7
100536.47
100539.34
100542.28
100545.3
100548.41
100551.6
100554.88
100558.25
100561.74
100565.33
100569.05
100572.9
100576.88
100581.01
100585.3
100589.75
100594.38
100599.17
100536.27
100538.78
100541.6
100544.39
100547.21
100550.1
100553.06
100556.09
100559.18
100562.34
100565.58
100568.89
100572.3
100575.82
100579.44
100583.18
100587.04
100591.05
100595.2
100599.51
100603.98
100608.61
100546.59
100549.15
100552.04
100554.88
100557.74
100560.67
100563.65
100566.68
100569.76
100572.9
100576.1
100579.36
100582.71
100586.15
100589.68
100593.32
100597.08
100600.97
100604.99
100609.16
100613.49
100617.97
100556.71
100559.33
100562.27
100565.16
100568.07
100571.02
100574.02
100577.06
100580.14
100583.26
100586.42
100589.65
100592.94
100596.31
100599.76
100603.31
100606.97
100610.75
100614.66
100618.7
100622.89
100627.23
100566.63
100569.31
100572.29
100575.23
100578.18
100581.16
100584.18
100587.23
100590.3
100593.41
100596.55
100599.74
100602.98
100606.29
100609.68
100613.15
100616.72
100620.39
100624.19
100628.12
100632.19
100636.39
100576.36
100579.14
100582.13
100585.1
100588.07
100591.08
100594.12
100597.18
100600.25
100603.35
100606.47
100609.63
100612.83
100616.09
100619.41
100622.81
100626.3
100629.89
100633.59
100637.41
100641.36
100645.44
100585.89
100588.6
100591.67
100594.7
100597.72
100600.77
100603.83
100606.9
100609.98
100613.07
100616.18
100619.31
100622.48
100625.69
100628.96
100632.3
100635.71
100639.22
100642.83
100646.55
100650.4
100654.37
100595.19
100597.95
100601.05
100604.12
100607.17
100610.24
100613.32
100616.4
100619.48
100622.57
100625.66
100628.78
100631.92
100635.09
100638.32
100641.6
100644.95
100648.39
100651.92
100655.55
100659.31
100663.17
100604.3
100607.11
100610.23
100613.32
100616.4
100619.49
100622.58
100625.67
100628.76
100631.85
100634.93
100638.03
100641.15
100644.3
100647.48
100650.72
100654.02
100657.39
100660.85
100664.41
100668.07
100671.85
100613.22
100616.06
100619.2
100622.31
100625.41
100628.52
100631.62
100634.72
100637.82
100640.9
100643.99
100647.07
100650.17
100653.3
100656.45
100659.65
100662.9
100666.22
100669.61
100673.1
100676.69
100680.38
100621.93
100624.79
100627.95
100631.09
100634.2
100637.32
100640.44
100643.55
100646.65
100649.74
100652.82
100655.9
100658.99
100662.09
100665.22
100668.38
100671.6
100674.87
100678.21
100681.64
100685.16
100688.77
100630.42
100633.31
100636.49
100639.65
100642.78
100645.91
100649.04
100652.16
100655.27
100658.36
100661.44
100664.52
100667.59
100670.68
100673.79
100676.93
100680.11
100683.35
100686.64
100690.02
100693.48
100697.03
100638.67
100641.63
100644.88
100648.03
100651.16
100654.29
100657.43
100660.56
100663.67
100666.77
100669.85
100672.92
100676
100679.08
100682.17
100685.29
100688.45
100691.65
100694.91
100698.24
100701.65
100705.14
100646.87
100649.76
100652.92
100656.1
100659.27
100662.43
100665.59
100668.73
100671.85
100674.96
100678.05
100681.13
100684.2
100687.27
100690.36
100693.46
100696.6
100699.78
100703
100706.3
100709.66
100713.1
100654.75
100657.63
100660.8
100664.01
100667.19
100670.37
100673.54
100676.7
100679.83
100682.95
100686.04
100689.12
100692.2
100695.27
100698.35
100701.45
100704.57
100707.73
100710.94
100714.2
100717.53
100720.93
100662.4
100665.32
100668.52
100671.73
100674.93
100678.11
100681.29
100684.46
100687.6
100690.73
100693.84
100696.93
100700.01
100703.09
100706.17
100709.26
100712.37
100715.52
100718.7
100721.94
100725.24
100728.61
100669.87
100672.8
100676.01
100679.24
100682.45
100685.65
100688.84
100692.02
100695.18
100698.32
100701.43
100704.54
100707.63
100710.71
100713.8
100716.89
100720
100723.14
100726.31
100729.53
100732.81
100736.15
100677.11
100680.04
100683.32
100686.6
100689.8
100693
100696.2
100699.38
100702.56
100705.71
100708.84
100711.96
100715.06
100718.15
100721.25
100724.34
100727.46
100730.59
100733.76
100736.97
100740.23
100743.55
100684.25
100687.21
100690.41
100693.61
100696.85
100700.09
100703.32
100706.53
100709.73
100712.9
100716.05
100719.19
100722.31
100725.42
100728.52
100731.63
100734.75
100737.89
100741.05
100744.26
100747.51
100750.81
100691.09
100694.04
100697.25
100700.49
100703.76
100707.01
100710.26
100713.49
100716.71
100719.9
100723.08
100726.23
100729.37
100732.5
100735.62
100738.74
100741.88
100745.02
100748.19
100751.4
100754.64
100757.93
100697.7
100700.64
100703.87
100707.19
100710.51
100713.77
100717.02
100720.27
100723.5
100726.72
100729.92
100733.1
100736.26
100739.41
100742.55
100745.69
100748.84
100752
100755.18
100758.39
100761.64
100764.92
100704.18
100707.15
100710.41
100713.7
100716.97
100720.26
100723.55
100726.83
100730.1
100733.34
100736.57
100739.78
100742.97
100746.15
100749.31
100752.48
100755.65
100758.82
100762.02
100765.24
100768.49
100771.78
100710.44
100713.42
100716.68
100719.95
100723.22
100726.56
100729.89
100733.2
100736.5
100739.78
100743.04
100746.28
100749.5
100752.71
100755.91
100759.1
100762.29
100765.49
100768.7
100771.94
100775.21
100778.51
100716.45
100719.4
100722.65
100725.96
100729.35
100732.74
100736.08
100739.41
100742.73
100746.04
100749.33
100752.6
100755.86
100759.1
100762.34
100765.56
100768.78
100772.01
100775.25
100778.5
100781.79
100785.1
100722.31
100725.27
100728.55
100731.92
100735.27
100738.63
100742
100745.38
100748.75
100752.1
100755.43
100758.75
100762.05
100765.33
100768.6
100771.86
100775.11
100778.37
100781.64
100784.92
100788.23
100791.56
100727.95
100730.91
100734.2
100737.59
100740.94
100744.31
100747.74
100751.17
100754.58
100757.97
100761.35
100764.71
100768.05
100771.38
100774.69
100777.99
100781.29
100784.58
100787.89
100791.2
100794.54
100797.89
100733.37
100736.31
100739.6
100742.98
100746.39
100749.88
100753.38
100756.82
100760.25
100763.68
100767.1
100770.5
100773.89
100777.26
100780.62
100783.97
100787.31
100790.65
100793.99
100797.34
100800.71
100804.1
100738.63
100741.57
100744.88
100748.32
100751.79
100755.22
100758.67
100762.18
100765.68
100769.17
100772.64
100776.1
100779.54
100782.97
100786.38
100789.78
100793.17
100796.55
100799.94
100803.33
100806.74
100810.17
100743.67
100746.58
100749.88
100753.34
100756.81
100760.3
100763.87
100767.46
100770.99
100774.51
100778.03
100781.54
100785.03
100788.51
100791.97
100795.43
100798.87
100802.31
100805.74
100809.19
100812.64
100816.11
100748.56
100751.44
100754.75
100758.24
100761.78
100765.33
100768.87
100772.41
100776.01
100779.61
100783.2
100786.77
100790.32
100793.87
100797.39
100800.91
100804.41
100807.9
100811.4
100814.89
100818.4
100821.91
100753.24
100756.08
100759.38
100762.89
100766.45
100770.02
100773.59
100777.26
100780.97
100784.6
100788.22
100791.84
100795.46
100799.06
100802.65
100806.22
100809.78
100813.34
100816.89
100820.45
100824.01
100827.58
100757.77
100760.56
100763.86
100767.4
100771
100774.63
100778.29
100781.92
100785.56
100789.28
100793
100796.7
100800.38
100804.05
100807.71
100811.36
100814.99
100818.62
100822.24
100825.85
100829.48
100833.11
100762.11
100764.84
100768.12
100771.68
100775.3
100778.95
100782.62
100786.29
100790.09
100793.93
100797.68
100801.42
100805.16
100808.89
100812.61
100816.33
100820.03
100823.73
100827.42
100831.1
100834.8
100838.49
100766.31
100768.97
100772.23
100775.81
100779.47
100783.16
100786.89
100790.64
100794.36
100798.19
100802.11
100805.93
100809.73
100813.53
100817.33
100821.11
100824.89
100828.66
100832.43
100836.19
100839.96
100843.72
100770.36
100772.93
100776.16
100779.76
100783.45
100787.17
100790.94
100794.74
100798.56
100802.39
100806.26
100810.17
100814.07
100817.96
100821.84
100825.71
100829.57
100833.42
100837.27
100841.11
100844.96
100848.8
100774.28
100776.74
100779.94
100783.54
100787.25
100791
100794.79
100798.63
100802.49
100806.3
100810.27
100814.34
100818.31
100822.24
100826.19
100830.13
100834.07
100838
100841.93
100845.86
100849.79
100853.72
100778.07
100780.41
100783.56
100787.17
100790.9
100794.66
100798.48
100802.35
100806.27
100810.19
100814.09
100818.15
100822.31
100826.33
100830.34
100834.36
100838.38
100842.39
100846.41
100850.42
100854.44
100858.46
100781.76
100783.96
100787.05
100790.67
100794.4
100798.18
100802.02
100805.93
100809.89
100813.9
100817.89
100821.9
100825.98
100830.12
100834.24
100838.35
100842.47
100846.58
100850.69
100854.8
100858.91
100863.02
100785.36
100787.4
100790.42
100794.02
100797.76
100801.54
100805.39
100809.31
100813.29
100817.33
100821.37
100825.34
100829.53
100833.86
100838.05
100842.22
100846.4
100850.59
100854.78
100858.98
100863.19
100867.39
100788.88
100790.75
100793.7
100797.28
100801.01
100804.78
100808.64
100812.57
100816.57
100820.63
100824.74
100828.85
100832.9
100837.17
100841.61
100845.88
100850.13
100854.39
100858.67
100862.96
100867.26
100871.56
100792.34
100794.03
100796.88
100800.44
100804.15
100807.91
100811.75
100815.68
100819.69
100823.77
100827.91
100832.09
100836.25
100840.39
100844.81
100849.34
100853.67
100858
100862.36
100866.74
100871.13
100875.53
100795.77
100797.27
100800.02
100803.53
100807.22
100810.96
100814.78
100818.71
100822.72
100826.81
100830.98
100835.21
100839.49
100843.72
100847.98
100852.37
100856.84
100861.31
100865.78
100870.27
100874.77
100879.27
100799.18
100800.47
100803.11
100806.57
100810.21
100813.92
100817.71
100821.61
100825.6
100829.68
100833.84
100838.07
100842.36
100846.65
100850.86
100855.36
100860.06
100864.59
100869.1
100873.65
100878.22
100882.82
100802.59
100803.67
100806.19
100809.59
100813.18
100816.84
100820.59
100824.45
100828.42
100832.48
100836.63
100840.86
100845.17
100849.55
100853.92
100858.18
100862.75
100867.57
100872.19
100876.8
100881.45
100886.13
100806.02
100806.89
100809.28
100812.61
100816.14
100819.73
100823.42
100827.23
100831.16
100835.19
100839.32
100843.54
100847.84
100852.22
100856.66
100861.1
100865.45
100870.13
100875.05
100879.77
100884.48
100889.23
100809.5
100810.15
100812.4
100815.65
100819.1
100822.62
100826.25
100830
100833.87
100837.86
100841.95
100846.14
100850.42
100854.8
100859.25
100863.76
100868.25
100872.67
100877.47
100882.5
100887.32
100892.13
100813.03
100813.47
100815.58
100818.73
100822.1
100825.54
100829.08
100832.76
100836.56
100840.49
100844.53
100848.68
100852.93
100857.28
100861.72
100866.25
100870.83
100875.36
100879.86
100884.78
100889.92
100894.83
100816.63
100816.87
100818.84
100821.89
100825.16
100828.5
100831.95
100835.54
100839.26
100843.12
100847.09
100851.19
100855.39
100859.7
100864.11
100868.61
100873.21
100877.85
100882.43
100887.01
100892.05
100897.28
100820.32
100820.36
100822.19
100825.12
100828.29
100831.52
100834.87
100838.36
100841.99
100845.76
100849.66
100853.68
100857.82
100862.07
100866.44
100870.9
100875.47
100880.13
100884.83
100889.46
100894.12
100899.27
100824.11
100823.97
100825.65
100828.47
100831.52
100834.63
100837.87
100841.25
100844.78
100848.44
100852.25
100856.18
100860.24
100864.43
100868.73
100873.14
100877.66
100882.29
100887.01
100891.77
100896.44
100901.18
100828
100827.69
100829.23
100831.92
100834.85
100837.84
100840.95
100844.21
100847.62
100851.18
100854.88
100858.71
100862.68
100866.78
100871.01
100875.35
100879.81
100884.38
100889.06
100893.83
100898.64
100903.37
100832
100831.54
100832.95
100835.5
100838.29
100841.15
100844.14
100847.27
100850.56
100853.99
100857.57
100861.3
100865.16
100869.16
100873.29
100877.55
100881.93
100886.43
100891.04
100895.77
100900.59
100905.46
100836.11
100835.52
100836.79
100839.21
100841.87
100844.59
100847.43
100850.43
100853.59
100856.89
100860.35
100863.95
100867.69
100871.58
100875.6
100879.76
100884.05
100888.47
100893
100897.65
100902.41
100907.29
100840.33
100839.63
100840.77
100843.05
100845.56
100848.14
100850.85
100853.71
100856.72
100859.89
100863.2
100866.67
100870.29
100874.05
100877.96
100882
100886.19
100890.5
100894.94
100899.5
100904.18
100908.99
100844.66
100843.86
100844.88
100847.02
100849.39
100851.82
100854.38
100857.1
100859.96
100862.99
100866.16
100869.49
100872.97
100876.59
100880.37
100884.29
100888.35
100892.56
100896.89
100901.35
100905.94
100910.67
100849.09
100848.22
100849.11
100851.11
100853.34
100855.63
100858.04
100860.6
100863.32
100866.19
100869.22
100872.4
100875.73
100879.22
100882.85
100886.63
100890.56
100894.64
100898.85
100903.19
100907.66
100912.28
100853.62
100852.68
100853.47
100855.33
100857.41
100859.55
100861.81
100864.22
100866.79
100869.51
100872.38
100875.41
100878.59
100881.92
100885.41
100889.05
100892.84
100896.77
100900.85
100905.06
100909.4
100913.91
100858.23
100857.25
100857.94
100859.65
100861.59
100863.58
100865.69
100867.96
100870.37
100872.94
100875.65
100878.52
100881.55
100884.73
100888.06
100891.55
100895.19
100898.97
100902.9
100906.98
100911.19
100915.56
100862.92
100861.92
100862.51
100864.09
100865.87
100867.72
100869.69
100871.8
100874.06
100876.47
100879.03
100881.74
100884.61
100887.63
100890.81
100894.13
100897.62
100901.25
100905.03
100908.95
100913.02
100917.26
100867.68
100866.67
100867.17
100868.61
100870.26
100871.96
100873.78
100875.74
100877.85
100880.11
100882.51
100885.07
100887.77
100890.63
100893.65
100896.82
100900.14
100903.61
100907.24
100911.01
100914.92
100919.01
100872.51
100871.49
100871.91
100873.22
100874.73
100876.29
100877.97
100879.78
100881.74
100883.85
100886.09
100888.49
100891.04
100893.74
100896.59
100899.59
100902.75
100906.07
100909.53
100913.14
100916.9
100920.84
100877.39
100876.38
100876.73
100877.91
100879.28
100880.71
100882.24
100883.92
100885.73
100887.68
100889.78
100892.02
100894.4
100896.94
100899.63
100902.47
100905.47
100908.62
100911.92
100915.37
100918.96
100922.75
100882.33
100881.33
100881.6
100882.67
100883.9
100885.2
100886.6
100888.13
100889.8
100891.61
100893.55
100895.64
100897.87
100900.25
100902.78
100905.46
100908.29
100911.27
100914.41
100917.69
100921.12
100924.75
100887.31
100886.33
100886.54
100887.48
100888.59
100889.76
100891.03
100892.43
100893.96
100895.62
100897.41
100899.35
100901.43
100903.65
100906.02
100908.54
100911.21
100914.03
100917
100920.12
100923.39
100926.85
100892.33
100891.37
100891.52
100892.35
100893.34
100894.38
100895.53
100896.8
100898.19
100899.71
100901.37
100903.16
100905.08
100907.15
100909.37
100911.73
100914.24
100916.89
100919.7
100922.66
100925.76
100929.06
100897.39
100896.46
100896.56
100897.28
100898.14
100899.07
100900.09
100901.24
100902.5
100903.89
100905.4
100907.05
100908.83
100910.75
100912.81
100915.02
100917.37
100919.87
100922.51
100925.31
100928.25
100931.38
100902.49
100901.59
100901.63
100902.25
100903
100903.82
100904.72
100905.74
100906.88
100908.14
100909.52
100911.03
100912.67
100914.45
100916.36
100918.41
100920.61
100922.95
100925.44
100928.07
100930.85
100933.83
100907.64
100906.76
100906.75
100907.27
100907.91
100908.62
100909.41
100910.32
100911.34
100912.47
100913.73
100915.1
100916.61
100918.24
100920.01
100921.92
100923.96
100926.15
100928.48
100930.96
100933.58
100936.39
100912.82
100911.96
100911.9
100912.33
100912.87
100913.48
100914.17
100914.96
100915.87
100916.88
100918.01
100919.26
100920.63
100922.13
100923.76
100925.52
100927.42
100929.46
100931.64
100933.96
100936.43
100939.09
100918.05
100917.21
100917.1
100917.44
100917.89
100918.39
100918.98
100919.67
100920.46
100921.36
100922.38
100923.5
100924.75
100926.12
100927.61
100929.24
100930.99
100932.89
100934.92
100937.09
100939.4
100941.91
100923.32
100922.49
100922.34
100922.6
100922.95
100923.37
100923.86
100924.45
100925.14
100925.93
100926.83
100927.83
100928.96
100930.2
100931.57
100933.06
100934.68
100936.43
100938.32
100940.35
100942.51
100944.87
100928.64
100927.82
100927.63
100927.8
100928.07
100928.4
100928.8
100929.29
100929.88
100930.57
100931.36
100932.25
100933.26
100934.38
100935.62
100936.99
100938.48
100940.09
100941.85
100943.73
100945.75
100947.96
100934.02
100933.2
100932.96
100933.06
100933.25
100933.49
100933.81
100934.21
100934.7
100935.29
100935.98
100936.76
100937.66
100938.67
100939.79
100941.03
100942.39
100943.87
100945.49
100947.24
100949.12
100951.18
100939.45
100938.63
100938.35
100938.37
100938.49
100938.65
100938.88
100939.2
100939.6
100940.09
100940.68
100941.37
100942.15
100943.05
100944.05
100945.17
100946.41
100947.77
100949.26
100950.87
100952.62
100954.54
100944.93
100944.1
100943.78
100943.74
100943.78
100943.87
100944.02
100944.26
100944.57
100944.98
100945.47
100946.06
100946.74
100947.53
100948.43
100949.43
100950.55
100951.79
100953.16
100954.64
100956.25
100958.04
100950.47
100949.63
100949.27
100949.17
100949.14
100949.15
100949.23
100949.39
100949.63
100949.94
100950.35
100950.84
100951.43
100952.12
100952.91
100953.8
100954.81
100955.93
100957.17
100958.53
100960.02
100961.68
100956.07
100955.22
100954.81
100954.65
100954.56
100954.51
100954.52
100954.6
100954.76
100954.99
100955.31
100955.72
100956.21
100956.8
100957.49
100958.28
100959.18
100960.19
100961.32
100962.55
100963.92
100965.45
100961.74
100960.86
100960.41
100960.2
100960.04
100959.93
100959.87
100959.88
100959.97
100960.13
100960.36
100960.68
100961.09
100961.59
100962.18
100962.87
100963.67
100964.57
100965.58
100966.7
100967.95
100969.36
100967.46
100966.56
100966.07
100965.8
100965.59
100965.41
100965.3
100965.24
100965.26
100965.34
100965.5
100965.74
100966.06
100966.47
100966.97
100967.57
100968.26
100969.06
100969.96
100970.98
100972.11
100973.4
100973.24
100972.31
100971.78
100971.46
100971.19
100970.97
100970.79
100970.67
100970.62
100970.64
100970.73
100970.89
100971.13
100971.45
100971.87
100972.37
100972.97
100973.67
100974.47
100975.37
100976.39
100977.57
100979.07
100978.11
100977.55
100977.18
100976.86
100976.58
100976.35
100976.18
100976.06
100976.01
100976.03
100976.12
100976.29
100976.53
100976.86
100977.27
100977.78
100978.38
100979.09
100979.89
100980.8
100981.87
100984.96
100983.97
100983.36
100982.95
100982.59
100982.26
100981.98
100981.75
100981.58
100981.46
100981.42
100981.44
100981.53
100981.7
100981.95
100982.28
100982.7
100983.21
100983.82
100984.52
100985.33
100986.29
100990.9
100989.87
100989.23
100988.78
100988.38
100988
100987.67
100987.38
100987.16
100986.99
100986.88
100986.83
100986.86
100986.95
100987.12
100987.38
100987.71
100988.14
100988.66
100989.27
100989.98
100990.84
100996.88
100995.83
100995.15
100994.66
100994.21
100993.79
100993.41
100993.08
100992.8
100992.58
100992.41
100992.3
100992.26
100992.29
100992.39
100992.57
100992.82
100993.17
100993.6
100994.12
100994.73
100995.5
101002.91
101001.82
101001.11
101000.58
101000.1
100999.64
100999.22
100998.84
100998.51
100998.24
100998.01
100997.85
100997.74
100997.71
100997.74
100997.84
100998.03
100998.29
100998.64
100999.07
100999.6
101000.27
101008.98
101007.85
101007.11
101006.55
101006.03
101005.54
101005.07
101004.65
101004.28
101003.95
101003.68
101003.46
101003.3
101003.2
101003.16
101003.2
101003.31
101003.5
101003.77
101004.12
101004.56
101005.14
101015.09
101013.92
101013.14
101012.56
101012.01
101011.47
101010.97
101010.51
101010.09
101009.72
101009.4
101009.13
101008.91
101008.76
101008.66
101008.63
101008.67
101008.79
101008.98
101009.26
101009.62
101010.11
101021.22
101020.02
101019.21
101018.59
101018.01
101017.45
101016.91
101016.42
101015.96
101015.54
101015.18
101014.86
101014.59
101014.38
101014.22
101014.13
101014.11
101014.16
101014.28
101014.48
101014.76
101015.17
101027.38
101026.14
101025.3
101024.66
101024.05
101023.46
101022.89
101022.36
101021.86
101021.41
101021
101020.63
101020.32
101020.05
101019.85
101019.7
101019.62
101019.6
101019.65
101019.78
101019.99
101020.32
101033.55
101032.28
101031.42
101030.75
101030.12
101029.5
101028.9
101028.33
101027.8
101027.31
101026.86
101026.45
101026.09
101025.78
101025.52
101025.32
101025.18
101025.1
101025.09
101025.15
101025.29
101025.54
101039.75
101038.44
101037.55
101036.86
101036.21
101035.56
101034.93
101034.34
101033.78
101033.25
101032.76
101032.31
101031.91
101031.55
101031.24
101030.99
101030.8
101030.66
101030.59
101030.58
101030.65
101030.84
101045.95
101044.61
101043.69
101042.99
101042.31
101041.64
101040.99
101040.36
101039.77
101039.21
101038.69
101038.2
101037.76
101037.36
101037.01
101036.71
101036.46
101036.27
101036.14
101036.07
101036.08
101036.2
101052.15
101050.78
101049.84
101049.12
101048.42
101047.73
101047.06
101046.41
101045.79
101045.2
101044.64
101044.12
101043.64
101043.2
101042.81
101042.46
101042.16
101041.92
101041.74
101041.62
101041.56
101041.61
101058.36
101056.96
101056
101055.26
101054.54
101053.83
101053.13
101052.46
101051.82
101051.2
101050.61
101050.06
101049.54
101049.07
101048.63
101048.24
101047.9
101047.61
101047.38
101047.2
101047.09
101047.08
101064.56
101063.13
101062.15
101061.39
101060.67
101059.93
101059.22
101058.52
101057.85
101057.21
101056.6
101056.01
101055.46
101054.95
101054.48
101054.05
101053.67
101053.33
101053.05
101052.82
101052.65
101052.59
101070.75
101069.3
101068.29
101067.53
101066.78
101066.04
101065.3
101064.58
101063.89
101063.23
101062.59
101061.98
101061.4
101060.85
101060.34
101059.88
101059.45
101059.07
101058.75
101058.47
101058.25
101058.13
101076.93
101075.45
101074.43
101073.65
101072.89
101072.13
101071.38
101070.64
101069.93
101069.24
101068.58
101067.94
101067.33
101066.76
101066.22
101065.72
101065.25
101064.84
101064.46
101064.14
101063.87
101063.7
101083.09
101081.58
101080.55
101079.76
101078.99
101078.21
101077.44
101076.69
101075.96
101075.25
101074.57
101073.91
101073.27
101072.67
101072.1
101071.56
101071.07
101070.61
101070.2
101069.83
101069.52
101069.3
101089.23
101087.7
101086.65
101085.84
101085.07
101084.28
101083.5
101082.73
101081.98
101081.26
101080.55
101079.87
101079.21
101078.58
101077.98
101077.41
101076.88
101076.39
101075.94
101075.53
101075.17
101074.91
101095.34
101093.79
101092.72
101091.91
101091.13
101090.33
101089.53
101088.75
101087.99
101087.24
101086.52
101085.81
101085.13
101084.48
101083.85
101083.26
101082.69
101082.17
101081.68
101081.24
101080.84
101080.53
101101.42
101099.85
101098.77
101097.95
101097.16
101096.35
101095.54
101094.75
101093.97
101093.21
101092.47
101091.74
101091.04
101090.36
101089.71
101089.09
101088.5
101087.94
101087.42
101086.94
101086.51
101086.16
101107.47
101105.88
101104.79
101103.96
101103.16
101102.34
101101.53
101100.72
101099.93
101099.16
101098.4
101097.65
101096.93
101096.23
101095.56
101094.91
101094.3
101093.71
101093.16
101092.64
101092.17
101091.78
101113.48
101111.88
101110.77
101109.94
101109.13
101108.31
101107.48
101106.66
101105.86
101105.07
101104.3
101103.54
101102.8
101102.08
101101.39
101100.72
101100.07
101099.46
101098.88
101098.33
101097.83
101097.4
101119.45
101117.83
101116.72
101115.88
101115.07
101114.23
101113.4
101112.57
101111.76
101110.96
101110.17
101109.4
101108.64
101107.9
101107.19
101106.5
101105.83
101105.19
101104.58
101104
101103.47
101103
101125.38
101123.75
101122.63
101121.78
101120.96
101120.12
101119.28
101118.44
101117.62
101116.81
101116.01
101115.22
101114.45
101113.7
101112.96
101112.25
101111.56
101110.9
101110.26
101109.66
101109.09
101108.59
101131.25
101129.61
101128.48
101127.64
101126.81
101125.97
101125.12
101124.27
101123.44
101122.62
101121.81
101121.01
101120.22
101119.45
101118.7
101117.97
101117.26
101116.57
101115.91
101115.28
101114.69
101114.16
101137.08
101135.43
101134.3
101133.44
101132.62
101131.76
101130.91
101130.06
101129.22
101128.39
101127.56
101126.75
101125.95
101125.17
101124.4
101123.65
101122.93
101122.22
101121.54
101120.88
101120.26
101119.7
101142.86
101141.2
101140.06
101139.2
101138.37
101137.51
101136.65
101135.8
101134.95
101134.11
101133.28
101132.45
101131.64
101130.85
101130.06
101129.3
101128.55
101127.83
101127.12
101126.44
101125.79
101125.21
101148.57
101146.91
101145.76
101144.9
101144.07
101143.21
101142.34
101141.48
101140.63
101139.78
101138.94
101138.11
101137.29
101136.48
101135.68
101134.9
101134.14
101133.39
101132.67
101131.97
101131.3
101130.69
101154.23
101152.56
101151.41
101150.55
101149.71
101148.85
101147.98
101147.12
101146.26
101145.4
101144.55
101143.71
101142.88
101142.06
101141.25
101140.46
101139.68
101138.92
101138.17
101137.45
101136.76
101136.13
101159.82
101158.15
101157
101156.14
101155.3
101154.43
101153.56
101152.69
101151.82
101150.96
101150.11
101149.26
101148.42
101147.59
101146.77
101145.96
101145.17
101144.39
101143.63
101142.89
101142.18
101141.53
101165.35
101163.68
101162.52
101161.66
101160.82
101159.95
101159.08
101158.2
101157.33
101156.47
101155.61
101154.75
101153.9
101153.06
101152.23
101151.41
101150.61
101149.82
101149.04
101148.28
101147.55
101146.88
101170.81
101169.14
101167.98
101167.12
101166.28
101165.41
101164.53
101163.65
101162.78
101161.91
101161.04
101160.18
101159.33
101158.48
101157.64
101156.81
101155.99
101155.19
101154.4
101153.62
101152.87
101152.18
101176.2
101174.53
101173.37
101172.51
101171.67
101170.8
101169.92
101169.04
101168.16
101167.29
101166.42
101165.55
101164.69
101163.83
101162.98
101162.14
101161.32
101160.5
101159.7
101158.91
101158.14
101157.43
101181.52
101179.84
101178.69
101177.83
101176.99
101176.12
101175.24
101174.36
101173.48
101172.6
101171.73
101170.85
101169.99
101169.12
101168.27
101167.42
101166.58
101165.75
101164.94
101164.14
101163.36
101162.63
101186.76
101185.09
101183.94
101183.07
101182.23
101181.37
101180.48
101179.6
101178.72
101177.84
101176.97
101176.09
101175.22
101174.35
101173.49
101172.63
101171.78
101170.95
101170.12
101169.31
101168.51
101167.77
101191.92
101190.26
101189.11
101188.25
101187.41
101186.54
101185.66
101184.78
101183.9
101183.02
101182.13
101181.26
101180.38
101179.51
101178.64
101177.78
101176.92
101176.08
101175.24
101174.41
101173.61
101172.85
101197
101195.35
101194.2
101193.34
101192.51
101191.64
101190.76
101189.88
101189
101188.11
101187.23
101186.35
101185.47
101184.59
101183.72
101182.85
101181.99
101181.14
101180.29
101179.46
101178.64
101177.87
101202
101200.36
101199.22
101198.36
101197.53
101196.66
101195.78
101194.9
101194.02
101193.14
101192.25
101191.37
101190.49
101189.61
101188.73
101187.86
101186.99
101186.13
101185.28
101184.44
101183.61
101182.83
101206.92
101205.29
101204.15
101203.3
101202.47
101201.6
101200.73
101199.85
101198.97
101198.09
101197.2
101196.32
101195.44
101194.55
101193.67
101192.8
101191.93
101191.06
101190.2
101189.35
101188.51
101187.72
101211.76
101210.14
101209
101208.16
101207.33
101206.47
101205.59
101204.72
101203.84
101202.96
101202.07
101201.19
101200.31
101199.42
101198.54
101197.66
101196.78
101195.91
101195.05
101194.19
101193.34
101192.54
101216.51
101214.9
101213.78
101212.93
101212.1
101211.25
101210.38
101209.5
101208.63
101207.75
101206.87
101205.98
101205.1
101204.21
101203.33