/*--------------------------------*- C++ -*----------------------------------*\
| =========                 |                                                 |
| \\      /  F ield         | OpenFOAM: The Open Source CFD Toolbox           |
|  \\    /   O peration     | Version:  2406                                  |
|   \\  /    A nd           | Website:  www.openfoam.com                      |
|    \\/     M anipulation  |                                                 |
\*---------------------------------------------------------------------------*/
FoamFile
{
    version     2.0;
    format      ascii;
    arch        "LSB;label=32;scalar=64";
    class       volScalarField;
    location    "0.093";
    object      k;
}
// * * * * * * * * * * * * * * * * * * * * * * * * * * * * * * * * * * * * * //

dimensions      [0 2 -2 0 0 0 0];

internalField   nonuniform List<scalar> 
8260
(
647.85541
626.752
597.83195
562.3021
521.03109
474.83546
424.86552
372.56793
319.55429
267.29469
217.09979
170.08054
127.07805
88.755915
55.609963
28.506662
10.429833
3.3415107
1.6699372
1.1612507
0.90686917
0.73705313
0.62684261
0.54961088
0.49697208
0.46368214
0.44213908
0.42771716
0.41764887
0.41116072
0.40778275
632.30942
608.5531
578.33308
542.66121
502.08802
457.2333
409.03432
358.7205
307.73417
257.44887
209.03127
163.55209
121.84703
84.615291
52.364264
26.211088
9.1510082
3.0281169
1.5931005
1.1321033
0.89093113
0.72842721
0.6217261
0.54652793
0.49521287
0.462641
0.44157124
0.42738214
0.41745422
0.4110337
0.4077018
609.42058
584.57913
554.30636
519.29929
479.99508
436.92412
390.8757
342.90542
294.2703
246.2152
199.82858
156.11776
115.90575
79.927489
48.725665
23.65451
7.9581314
2.7641677
1.5477573
1.1163271
0.88228087
0.72378743
0.61899372
0.54485538
0.49424849
0.46205013
0.44122964
0.42715201
0.41730807
0.41091919
0.40761391
578.3013
553.55085
524.28079
490.88774
453.6643
413.05081
369.71901
324.57878
278.72248
233.26719
189.23567
147.57667
109.09938
74.575599
44.614872
20.827512
6.7872833
2.5214315
1.4950743
1.0907064
0.86721117
0.71546302
0.6140606
0.5418001
0.49248574
0.46095664
0.44061892
0.4267782
0.41708616
0.41076605
0.4075096
539.3739
515.79455
488.31849
457.28303
422.84048
385.31955
345.27011
303.46142
260.83431
218.3851
177.0662
137.77329
101.30295
68.46314
39.966505
17.738764
5.6579645
2.2945828
1.4425927
1.0666617
0.85324516
0.70785898
0.60965825
0.53912492
0.49098726
0.46004094
0.44009719
0.42643927
0.41687757
0.41060916
0.40739089
493.15733
471.60269
446.62166
418.56584
387.48898
353.61296
317.36251
279.36471
240.41275
201.38284
163.15087
126.55928
92.394813
61.497806
34.728845
14.448152
4.6685691
2.0880462
1.3866871
1.0370752
0.83521604
0.69775139
0.60369383
0.53544848
0.48890663
0.45875937
0.43937101
0.42598561
0.41660693
0.41041658
0.40725484
440.46901
421.57989
399.65966
375.07517
347.81799
318.02115
285.99146
252.21672
217.34422
182.12549
147.34998
113.80204
82.264175
53.598842
28.881207
11.095446
3.7891985
1.9083454
1.3284282
1.0060949
0.8163845
0.68724078
0.59757818
0.5317355
0.48686837
0.45752971
0.43866434
0.42552894
0.41632912
0.41020913
0.40710004
382.70656
366.8458
348.32931
327.51486
304.35367
278.90741
251.37849
222.1238
191.64803
160.57243
129.58724
99.410418
70.832829
44.719203
22.480653
7.9253237
3.0430177
1.7603601
1.2662343
0.97041183
0.79418726
0.67455844
0.59002049
0.5270931
0.48429865
0.45598412
0.43776929
0.42496324
0.41598959
0.4099626
0.4069234
321.72056
308.96774
293.93581
276.95712
257.95583
236.93659
214.01222
189.42023
163.52882
136.82666
109.89371
83.372378
58.089427
34.892678
15.779764
5.4991954
2.4607879
1.6150319
1.1992345
0.93200195
0.77062762
0.66098923
0.58186869
0.52214359
0.48162849
0.45442739
0.43684766
0.42437083
0.41562664
0.40969035
0.40672201
259.5347
249.745
238.05599
224.76628
209.78421
193.07198
174.66706
154.70165
133.41996
111.18461
88.462315
65.812213
44.142016
24.35246
9.4638538
3.7408034
2.0374892
1.48738
1.1284159
0.88935381
0.74442822
0.64534271
0.57221758
0.51623918
0.47841226
0.45257268
0.43572706
0.42366557
0.41519394
0.40937082
0.40649174
198.2894
191.12578
182.49374
172.58279
161.30001
148.58396
134.41641
118.84608
102.01674
84.18594
65.719339
47.084012
29.376165
13.778211
5.3988815
2.6363427
1.7804552
1.3552509
1.053174
0.84447976
0.71702488
0.62837902
0.56176792
0.50988322
0.47500243
0.45065714
0.43454426
0.42291457
0.41472091
0.40901447
0.40622463
140.06118
135.08409
129.07196
122.10207
114.07559
104.90801
94.54121
82.970611
70.28024
56.667984
42.43837
27.923308
14.803296
6.6410179
3.1734989
2.0138448
1.5471873
1.2230977
0.97896166
0.79791587
0.68795718
0.60921301
0.54995726
0.50262392
0.47105231
0.44839423
0.43315284
0.42203599
0.4141635
0.40860322
0.40587547
86.901996
83.758055
79.884313
75.308623
69.946142
63.713169
56.545481
48.443657
39.506737
29.970135
20.382899
12.352285
6.488283
3.3451244
2.1460187
1.699348
1.3488031
1.1099508
0.90613684
0.75457305
0.65663258
0.58923673
0.53724477
0.495004
0.46695342
0.44597389
0.43169247
0.42108841
0.4135494
0.40814978
0.40546738
41.30443
39.430991
37.208188
34.688419
31.804544
28.489133
24.73673
20.63913
16.324839
11.978746
8.0042481
4.945342
3.0285395
2.0779883
1.6777534
1.3871068
1.1744207
0.98570695
0.83748401
0.71155847
0.62812698
0.56850372
0.52298621
0.48656854
0.46248569
0.44317005
0.43001681
0.4199931
0.41284087
0.40763795
0.40501074
14.857128
14.155374
13.33739
12.413676
11.325078
10.066247
8.7272446
7.3282798
5.8999319
4.5035761
3.288139
2.3840775
1.8419311
1.5663306
1.3855631
1.2124264
1.0246366
0.90043539
0.77584278
0.6766679
0.60005176
0.54876745
0.50858259
0.47831978
0.45777015
0.44026293
0.42828257
0.41882638
0.41207439
0.40707897
0.4045164
5.0301366
4.8607201
4.6315629
4.362254
4.0458987
3.6841396
3.2919669
2.8857392
2.4645077
2.0691412
1.7509707
1.5242986
1.3748396
1.2932237
1.1519742
1.0150092
0.92300549
0.80852619
0.71930746
0.63906208
0.57603211
0.53067375
0.49486438
0.4696884
0.45267799
0.43720326
0.42631791
0.41751821
0.41121689
0.40645516
0.40399794
2.0180121
1.9863462
1.9324339
1.8615672
1.7790094
1.6857184
1.5844093
1.4791209
1.3716724
1.2849425
1.2349794
1.1708088
1.1150022
1.0086111
0.95638113
0.9001945
0.80719351
0.7434669
0.6678485
0.61345845
0.55312711
0.51256449
0.48472126
0.46238283
0.44716776
0.4339946
0.42446087
0.41621059
0.41027635
0.40577829
0.40343855
1.1364242
1.1268919
1.1123281
1.0943176
1.07443
1.0564759
1.0391219
1.0141328
0.9932014
0.96899803
0.97122058
0.96757896
0.90287161
0.8549979
0.7853676
0.74582283
0.72891934
0.67285796
0.62717386
0.58188407
0.53162368
0.50029351
0.4751702
0.45483547
0.44196896
0.43078189
0.4224125
0.41474341
0.40923299
0.4050443
0.40281996
0.85177735
0.84644282
0.84217364
0.83787127
0.83316266
0.82381155
0.81071609
0.79810021
0.78802087
0.7929204
0.76836825
0.74981702
0.74027432
0.72703658
0.69075807
0.66390551
0.62309856
0.60199715
0.57476845
0.55294762
0.51698357
0.48622095
0.46718256
0.44899804
0.43709772
0.42784202
0.42031803
0.41332162
0.40814129
0.40421791
0.40215837
0.68849901
0.68727178
0.68548943
0.68291274
0.68111711
0.68277174
0.68667882
0.68595839
0.6779007
0.6506904
0.63411376
0.61708835
0.61100232
0.59687061
0.60221063
0.57933124
0.56672751
0.54440532
0.5243414
0.51731088
0.49721203
0.47633511
0.45771392
0.44364367
0.4329196
0.42470161
0.41798378
0.41175721
0.40692711
0.40332862
0.40141421
0.59952266
0.59967445
0.59894146
0.5966058
0.59235961
0.58546742
0.57753054
0.57276979
0.56899844
0.56597846
0.56176254
0.55161624
0.53935319
0.53474027
0.52833023
0.53392198
0.52399479
0.51100872
0.49378533
0.48538445
0.47868748
0.46380524
0.45047437
0.43852086
0.42913599
0.42189751
0.41565957
0.41020368
0.40574277
0.40235619
0.40063716
0.51977689
0.51988231
0.51952021
0.51859545
0.51757017
0.5175146
0.5191486
0.51951814
0.51831432
0.51484457
0.50972012
0.504862
0.49799073
0.49574342
0.48842312
0.48341539
0.4826495
0.47357139
0.47011503
0.46094706
0.45361135
0.45470682
0.44362669
0.43194781
0.42591661
0.41870984
0.41340131
0.40847085
0.4043817
0.40137843
0.39977192
0.48028768
0.48070149
0.48056259
0.4798718
0.47863299
0.47659727
0.47274626
0.47043605
0.46932729
0.46877149
0.46856442
0.4699575
0.47143088
0.4657118
0.46458237
0.4576242
0.45593548
0.45186658
0.44894203
0.44626507
0.43873425
0.43936666
0.43772879
0.42807582
0.42103288
0.41612721
0.41120567
0.40676037
0.40305325
0.40034928
0.39892549
0.44344319
0.44372809
0.44367913
0.44339085
0.44303794
0.44297504
0.44409648
0.44516101
0.44589508
0.44636325
0.44632164
0.4454881
0.44459663
0.44580839
0.44208615
0.44281621
0.4370254
0.437779
0.43695929
0.43350655
0.42869939
0.42507438
0.42666956
0.42265054
0.41705375
0.41306955
0.40864089
0.40485438
0.40158045
0.39933568
0.3980058
0.42488751
0.42520676
0.42520647
0.4249765
0.42453661
0.42385456
0.42288137
0.42243872
0.42241756
0.42258091
0.42291646
0.42328358
0.42346136
0.4236911
0.42567569
0.42347306
0.42393484
0.42126125
0.41829065
0.42004181
0.41925697
0.41711129
0.41502175
0.41739161
0.41309737
0.40957581
0.40617473
0.40282109
0.40022867
0.39832211
0.39727014
0.41034611
0.41051017
0.41053344
0.41050107
0.41050737
0.41058476
0.41076583
0.41119472
0.41179229
0.41231204
0.4127976
0.41327609
0.41353522
0.41286643
0.41217649
0.41253768
0.41256181
0.41369077
0.4114257
0.41171907
0.41299497
0.41231733
0.40921087
0.40936914
0.40806624
0.40595661
0.40286955
0.40110454
0.39897192
0.39738737
0.3964917
0.40349357
0.4036137
0.40365857
0.40368982
0.40375855
0.40386142
0.40396393
0.40401272
0.40401768
0.40411788
0.40428238
0.40449004
0.40475395
0.4050786
0.40525746
0.40556515
0.40628531
0.40609591
0.40696584
0.40688991
0.4073893
0.40664775
0.40555484
0.40377725
0.40338699
0.40214358
0.40110697
0.39941512
0.39785539
0.39670847
0.3960483
0.39916064
0.39924155
0.3992883
0.39932663
0.39937968
0.39945325
0.39954755
0.39966518
0.39980031
0.39995079
0.40012577
0.40034584
0.40064463
0.40097343
0.40116487
0.40117943
0.40124484
0.4017259
0.40191689
0.40224019
0.40196672
0.40145946
0.40134494
0.400829
0.40079444
0.4001889
0.39928425
0.39826048
0.39723257
0.3963324
0.39581339
0.3974896
0.39752059
0.39753608
0.39755556
0.39759231
0.39764834
0.39772204
0.39781571
0.39792237
0.39804463
0.39819188
0.39838972
0.39865503
0.39885239
0.39896071
0.39915291
0.39941577
0.39950784
0.39967317
0.39970684
0.39966854
0.39962538
0.39945611
0.39937193
0.39930982
0.39893986
0.39839387
0.39767484
0.39688567
0.39617602
0.39570274
0.39667407
0.39670899
0.39674088
0.39677817
0.39682501
0.39688204
0.39694802
0.39701502
0.3970924
0.39718951
0.39731994
0.39752061
0.39781645
0.39799953
0.39804318
0.39807979
0.39815789
0.39827975
0.39843653
0.39856593
0.39864686
0.39879662
0.39866574
0.39863871
0.39854618
0.39831625
0.39795116
0.39743789
0.39679398
0.39632039
0.3961521
0.39662336
0.39662995
0.39664065
0.39665632
0.39667809
0.39670689
0.39674413
0.396792
0.39685375
0.3969346
0.39704492
0.39722555
0.39744796
0.39755378
0.39757281
0.39759325
0.3976887
0.39780922
0.39790925
0.39806187
0.39815796
0.39808022
0.39827796
0.39821324
0.39820677
0.39806073
0.39783984
0.39749499
0.3972971
0.39710258
0.3969512
79.718142
144.36495
226.29485
303.04711
361.70864
397.74741
411.30033
405.98329
386.11261
350.44129
307.29585
260.13857
212.00657
165.41339
122.22327
83.66009
50.556871
24.639262
9.0566925
2.9331096
1.3247203
0.88629355
0.7053426
0.60282528
0.53321929
0.48781622
0.4561897
0.43649357
0.42322227
0.41500753
0.41081009
170.55086
257.20104
326.12918
375.85964
407.57979
421.49009
419.52113
406.35549
376.98829
338.17817
294.03216
247.27408
200.38899
155.45004
114.02651
77.162571
45.629371
21.40801
7.4755843
2.5144895
1.2194085
0.85695835
0.69367897
0.59635122
0.52930725
0.48548585
0.45490766
0.43582809
0.42286079
0.41481035
0.4107245
250.74944
315.72169
368.15838
405.81041
426.65629
431.38915
422.7166
400.60664
366.99362
326.46341
281.87632
235.64754
189.92443
146.47115
106.6278
71.296013
41.230486
18.665877
6.34658
2.1836632
1.1560406
0.84442338
0.68851788
0.59333011
0.52740527
0.48422148
0.45417094
0.43540999
0.42260206
0.414648
0.41061014
318.99536
371.40161
410.02918
433.47761
441.75909
437.45236
421.97111
393.52636
357.13238
315.39285
270.64277
225.02608
180.41061
138.31771
99.90556
65.966362
37.270463
16.31055
5.4238311
1.9717902
1.1108397
0.82802725
0.68058657
0.5884258
0.52430074
0.48229779
0.45309949
0.43483415
0.42227759
0.41446274
0.4104825
370.50661
410.45541
437.19807
450.31929
450.77683
440.30761
417.57615
385.75117
347.4675
304.92423
260.22521
215.27969
171.72355
130.88443
93.775703
61.102533
33.691359
14.246872
4.6548362
1.771117
1.0718194
0.81699044
0.67543799
0.58517149
0.52223674
0.48096054
0.45233767
0.43439866
0.42201152
0.41429629
0.41037449
410.78412
440.929
458.08658
462.582
456.94254
439.77382
412.45535
377.95982
338.19811
295.12194
250.60998
206.35399
163.79579
124.10608
88.180574
56.648497
30.454173
12.426315
4.0198306
1.6376391
1.0427054
0.80528557
0.66927799
0.58114523
0.5196389
0.47931637
0.45141476
0.43388318
0.4217117
0.41411798
0.41026521
442.55288
464.19384
473.3395
471.61358
459.67394
437.27982
406.87399
370.33337
329.46077
286.05461
241.8054
198.22141
156.58476
117.93732
83.077013
52.575214
27.526794
10.838862
3.5052579
1.5180461
1.0178613
0.79605013
0.66456556
0.5779961
0.51760816
0.47800821
0.45067451
0.43344968
0.42144658
0.41395051
0.41014826
467.57119
482.0999
484.80368
478.26524
460.55812
434.37011
401.34355
363.12684
321.39315
277.78241
233.82078
190.86281
150.05887
112.34341
78.431523
48.864694
24.883271
9.4712563
3.0970214
1.4341161
0.99822884
0.78706058
0.65960259
0.57459563
0.51537308
0.47657826
0.4498676
0.43297996
0.42116603
0.41377716
0.41002549
487.76254
496.25373
494.08858
482.31718
460.48793
431.26678
396.09245
356.5138
314.09564
270.3474
226.66016
184.26127
144.19234
107.29742
74.229731
45.493779
22.530594
8.3079818
2.7799886
1.3668523
0.98145322
0.77942962
0.65547155
0.57171362
0.51347212
0.47535482
0.44917463
0.43256083
0.42090723
0.41361028
0.40990127
504.61829
508.01106
501.73557
485.07839
460.05619
428.33876
391.36377
350.63881
307.64256
263.77724
220.32269
178.40066
138.96276
102.77681
70.455886
42.44734
20.420388
7.3291323
2.5218798
1.3179959
0.96760435
0.77228163
0.65140045
0.56882256
0.51152796
0.47410427
0.44846439
0.43212964
0.4206432
0.41344092
0.40977546
519.25911
518.37619
507.89895
487.46678
459.76154
425.87562
387.33598
345.60522
302.08511
258.08852
214.80401
173.2655
134.34962
98.761616
67.084457
39.710346
18.546783
6.5160448
2.3244306
1.2784516
0.95561622
0.76603184
0.64786529
0.56628307
0.50980463
0.47299301
0.44783075
0.4317327
0.420394
0.41327571
0.40964901
532.0428
527.67362
513.22018
489.91526
459.86569
424.05585
384.13466
341.48576
297.45825
253.29058
210.09805
168.84144
130.33373
95.244273
64.098431
37.273343
16.899631
5.8499165
2.1679541
1.2482267
0.94552072
0.76031948
0.64450672
0.56384665
0.50811845
0.47190183
0.44720482
0.4313371
0.42014526
0.41310992
0.40952169
543.81433
536.19144
518.48007
492.68581
460.42284
423.01152
381.84954
338.33309
293.78699
249.38888
206.19854
165.11691
126.9018
92.197726
61.473681
35.123176
15.465147
5.3106101
2.0500986
1.2241479
0.93678423
0.75530714
0.64153301
0.56168102
0.5065991
0.47091404
0.44663469
0.43096739
0.41990778
0.41294709
0.40939375
554.93123
544.27514
523.96138
495.96072
461.6539
422.88107
380.54059
336.18276
291.0912
246.39603
203.10775
162.10032
124.05863
89.597691
59.192978
33.235512
14.228503
4.8807893
1.9624006
1.2055023
0.9293885
0.75084396
0.63877627
0.55966754
0.50515813
0.46996875
0.44608432
0.43060638
0.41967401
0.4127847
0.40926513
566.09831
552.54784
529.97116
500.01005
464.08274
423.61679
380.31379
335.11239
289.41542
244.3549
200.85327
159.77881
121.78914
87.453852
57.263352
31.589469
13.173994
4.5454721
1.9011985
1.1909114
0.92309082
0.74699797
0.63633125
0.55788218
0.50385856
0.46910667
0.44557787
0.43026684
0.41944992
0.41262488
0.4091357
577.81189
561.74097
537.04609
505.20875
467.67514
425.87153
381.20854
335.21794
288.83329
243.25236
199.41559
158.13195
120.06913
85.761799
55.685087
30.18802
12.288888
4.2935492
1.8552906
1.1794231
0.9178551
0.74370427
0.6341259
0.55626657
0.50265783
0.4682966
0.44509649
0.42993973
0.41923177
0.41246646
0.40900514
589.60616
571.75958
545.26982
511.71476
472.59932
429.40602
383.5169
336.36975
289.197
243.04411
198.75655
157.16706
118.91072
84.520492
54.45746
29.045693
11.577526
4.0906304
1.8131363
1.1699961
0.91355571
0.74098903
0.63220972
0.55485226
0.50158575
0.46755768
0.44465198
0.42963146
0.41902255
0.41231037
0.40887346
597.93534
579.57375
552.40019
517.98407
477.90922
433.68707
386.79724
338.66847
290.59863
243.67292
198.86851
156.88798
118.32119
83.733403
53.580194
28.168934
11.021712
3.928595
1.7794253
1.1628711
0.91013319
0.73881722
0.63055824
0.55360978
0.50062166
0.4668739
0.44423468
0.42933727
0.4188204
0.41215608
0.40874077
605.30363
586.02562
558.39876
523.67131
483.17096
438.3708
390.78105
341.87837
293.00155
245.31879
199.83058
157.26985
118.3076
83.407424
53.055304
27.561519
10.606207
3.8003728
1.7512832
1.1576419
0.90751138
0.7371897
0.62920112
0.5525528
0.49977929
0.46625424
0.44385049
0.42906035
0.41862699
0.41200415
0.40860738
614.44964
593.88258
565.39311
530.12094
489.17623
443.88125
395.67624
346.04296
296.36119
247.86689
201.6211
158.41179
118.88707
83.526355
52.886681
27.225904
10.320433
3.7004561
1.7288529
1.1543454
0.90566984
0.73608443
0.62813671
0.55167129
0.49905049
0.46569154
0.44349501
0.42879829
0.41844142
0.41185431
0.40847358
623.48256
602.24158
573.19119
537.47984
496.12485
450.38151
401.59791
351.23401
300.71886
251.34977
204.25295
160.27391
120.07611
84.166118
53.076342
27.165011
10.159748
3.6229494
1.711011
1.1529112
0.90463943
0.73550937
0.62738991
0.55097745
0.49844365
0.46519074
0.44317124
0.42855243
0.41826434
0.41170665
0.40833916
632.08427
610.68764
581.51725
545.65528
504.04519
457.92535
408.61203
357.51517
306.12333
255.8068
207.75571
162.88282
121.88839
85.303702
53.657305
27.383806
10.127658
3.5615367
1.6973211
1.1532388
0.9045067
0.73548921
0.62696852
0.55046957
0.4979545
0.46474742
0.44287587
0.42832053
0.41809455
0.41156061
0.40820314
639.87413
618.57514
589.72685
554.19606
512.79331
466.50713
416.71633
364.9104
312.61223
261.271
212.15915
166.26629
124.3449
86.959741
54.629607
27.894983
10.214158
3.5065292
1.6873998
1.155122
0.90500313
0.73580893
0.62686199
0.55013821
0.49757683
0.46435834
0.44260684
0.42810132
0.41793121
0.4114159
0.40806431
645.52123
624.49855
596.1475
561.12728
520.13514
474.04569
424.11789
371.87615
318.9149
266.72286
216.65986
169.80378
126.97216
88.782453
55.745215
28.524922
10.419102
3.4404685
1.6806836
1.1587874
0.90626015
0.73656655
0.62693289
0.54994583
0.49728831
0.46401232
0.44235807
0.42789218
0.4177733
0.41127274
0.40792241
79.749354
136.4475
212.8222
286.67392
345.87919
385.04514
402.89007
401.52597
384.7689
351.82064
310.54125
264.37291
216.51147
169.73356
126.0818
86.915219
53.115352
26.305395
9.8096012
3.1005514
1.3541924
0.89349467
0.70813599
0.60467765
0.53453634
0.48877822
0.45676403
0.43681843
0.42342387
0.41513373
0.41085248
80.256834
133.36808
206.26425
277.9107
336.35609
376.05217
395.35027
395.7459
380.88807
349.98437
309.75492
264.34828
217.11426
170.69224
127.18422
88.013543
54.135116
27.082531
10.215919
3.2090616
1.3726899
0.89752421
0.70958929
0.60572518
0.53538003
0.48939405
0.45713222
0.43703041
0.42355974
0.41522886
0.41089358
81.370108
130.6126
199.57759
268.86842
326.48775
366.67336
387.3886
389.56911
376.29791
347.34068
308.59115
264.243
217.68392
171.65719
128.31718
89.155003
55.199407
27.903452
10.657875
3.3293929
1.3932986
0.90211378
0.71138923
0.60694921
0.53627288
0.49010795
0.45756853
0.43727555
0.42371379
0.41532165
0.41095073
82.982296
128.28288
193.11997
259.78456
316.40779
356.96507
379.02019
382.97768
371.37707
344.40111
307.22027
264.00753
218.20002
172.6162
129.47444
90.337932
56.307211
28.773994
11.136613
3.4640967
1.4168596
0.90664442
0.71275219
0.60796278
0.53720265
0.49074671
0.45795165
0.43750253
0.42386116
0.41543058
0.41101973
85.044578
126.51283
186.95342
250.77009
306.20754
346.97553
370.26359
375.96864
366.09587
341.14818
305.61766
263.6273
218.64712
173.55966
130.65125
91.561413
57.458046
29.697497
11.652696
3.6149663
1.4438236
0.91299146
0.71541736
0.60957549
0.53825808
0.49159067
0.45846861
0.437791
0.42404104
0.41554242
0.41107949
87.582994
125.22973
181.28509
242.00532
296.00361
336.77588
361.15477
368.55307
360.44407
337.5668
303.76446
263.08681
219.01104
174.47847
131.84311
92.824609
58.650776
30.674123
12.199117
3.782831
1.4740289
0.91816691
0.71679725
0.61064873
0.53931743
0.49241211
0.45897059
0.43807835
0.42422141
0.41566143
0.41112158
90.829409
124.84093
176.15039
233.5211
285.83474
326.40396
351.72274
360.74387
354.41169
333.65027
301.64248
262.36581
219.27368
175.35984
133.04182
94.122646
59.885452
31.702095
12.785875
3.9710906
1.5085263
0.92493243
0.71902356
0.61204199
0.54046411
0.4932756
0.45950124
0.43838517
0.42441296
0.41578794
0.41117142
94.829526
125.1242
171.77665
225.54388
275.8839
315.99177
342.05104
352.5839
348.02943
329.36689
299.22731
261.43838
219.40886
176.18579
134.23431
95.445146
61.165626
32.783087
13.435506
4.181745
1.5477512
0.93248567
0.72141646
0.6135229
0.54167958
0.49419069
0.46006472
0.43871016
0.424614
0.41592155
0.41125542
99.555817
126
168.13154
218.15041
266.25008
305.62392
332.20054
344.10712
341.29511
324.72544
296.50806
260.28918
219.39755
176.94642
135.41506
96.788834
62.486746
33.919538
14.142419
4.4174569
1.5924033
0.94089295
0.72402936
0.61503036
0.54295184
0.49514387
0.46065584
0.43905771
0.42482787
0.41606251
0.41138354
105.16264
127.94912
165.50563
211.52573
257.07641
295.41447
322.25482
335.36402
334.233
319.72534
293.47264
258.90285
219.27249
177.62916
136.57297
98.146415
63.84523
35.117797
14.905369
4.6813388
1.6432596
0.95039551
0.72683117
0.61665774
0.54430867
0.49615859
0.46128693
0.43942554
0.42505084
0.41621024
0.4115001
111.59095
130.78976
163.68686
205.70182
248.47253
285.47763
312.30732
326.41582
326.88412
314.37069
290.11248
257.26096
218.9626
178.21593
137.69556
99.510026
65.235472
36.368846
15.72921
4.977418
1.7012867
0.96098415
0.72998565
0.61831654
0.54571255
0.49720426
0.46194185
0.43981894
0.42528898
0.41636651
0.41159938
118.86596
134.75904
163.38636
200.91214
240.58089
275.93464
302.45578
317.33765
319.29889
308.67476
286.42371
255.34696
218.44533
178.68761
138.76889
100.8706
66.651742
37.662858
16.592213
5.3067877
1.7674802
0.97310281
0.73337108
0.62010891
0.54721881
0.49832133
0.46264733
0.44023409
0.42553466
0.41652941
0.41170111
126.88558
139.72083
163.89212
197.14363
233.4906
266.89509
292.82165
308.20042
311.51428
302.66873
282.40917
253.14896
217.71736
179.02534
139.77778
102.21783
68.087905
38.998442
17.490907
5.6735446
1.8429928
0.98652851
0.73718526
0.62198554
0.5487547
0.49945814
0.46336754
0.44067481
0.42579839
0.41670228
0.41181967
135.64994
145.61332
165.41251
194.49215
227.31701
258.47406
283.5017
299.10092
303.57327
296.38297
278.07904
250.6584
216.76066
179.20526
140.70548
103.5403
69.53706
40.37189
18.442354
6.0818601
1.9291957
1.0021262
0.74159749
0.6239712
0.55040031
0.50066885
0.46415255
0.44113899
0.42606732
0.41687987
0.41194765
145.14596
152.46646
168.25983
192.82354
222.02991
250.72282
274.56937
290.13063
295.52398
289.86439
273.44263
247.86916
215.55719
179.19312
141.53393
104.8257
70.990824
41.775208
19.445184
6.5331772
2.0275616
1.0192456
0.74594154
0.62612269
0.5520844
0.50189337
0.46494011
0.44162275
0.42635748
0.41706883
0.41208088
155.61369
160.46251
172.46554
192.75962
217.83595
243.73324
266.09746
281.36315
287.42264
283.15621
268.51528
244.7795
214.10005
179.05081
142.25281
106.06204
72.442014
43.198497
20.507474
7.0334964
2.1398328
1.0393342
0.75226967
0.62845042
0.55384796
0.50316485
0.4658034
0.44213415
0.42665021
0.41725827
0.41221814
166.80153
169.45375
177.73899
193.4064
214.61583
237.52984
258.13801
272.85509
279.32631
276.2848
263.31898
241.38866
212.37388
178.6912
142.8425
107.23707
73.886364
44.63826
21.626828
7.5757952
2.2676652
1.0615119
0.75685964
0.6307634
0.55573051
0.50446901
0.46666253
0.44264997
0.42696514
0.41746156
0.41235855
178.31184
179.01868
183.87933
195.15353
212.34223
232.09774
250.70959
264.63785
271.27782
269.2784
257.86728
237.69531
210.36202
178.08332
143.28138
108.33683
75.319422
46.106485
22.818144
8.1925889
2.4138513
1.0876161
0.76561532
0.63388291
0.55763702
0.50572959
0.46758626
0.44320294
0.42728097
0.41765943
0.412501
189.43146
188.7564
190.73914
198.06353
211.07176
227.4622
243.83546
256.73354
263.30948
262.1595
252.17321
233.6998
208.05339
177.2328
143.55003
109.34285
76.720829
47.598095
24.071696
8.8605976
2.5798977
1.1172141
0.77152163
0.63604872
0.55971983
0.50709184
0.4685196
0.44373544
0.42761271
0.41787486
0.41264453
198.92417
197.48094
197.38693
201.3652
210.51974
223.52391
237.49114
249.14347
255.43985
254.94582
246.2473
229.40294
205.43729
176.11447
143.58431
110.22888
78.070863
49.086114
25.364003
9.5677459
2.7688378
1.1512679
0.78073534
0.64042052
0.56198004
0.50825102
0.46946083
0.44431805
0.42794804
0.41807761
0.41278826
206.21784
204.38176
203.20674
204.65194
210.43113
220.18174
231.64522
241.86066
247.68374
247.65536
240.1034
224.80613
202.50477
174.72309
143.47285
110.98697
79.355815
50.563507
26.69298
10.341129
2.982995
1.1895422
0.79118326
0.64291406
0.5639641
0.50962461
0.47045297
0.44484976
0.42827929
0.41829972
0.41293124
209.44252
207.9991
206.56234
206.63362
210.06093
217.09686
226.20342
234.86806
240.08445
240.32107
233.76562
219.92197
199.25846
173.0513
143.15075
111.60122
80.562371
52.019721
28.048656
11.175391
3.22993
1.2337233
0.79873627
0.6475403
0.56695063
0.5106436
0.47134716
0.44543518
0.4286283
0.41850266
0.41307156
209.10537
208.10319
206.88744
206.60145
208.85574
213.89568
220.98781
228.1441
232.65938
232.99496
227.27966
214.78357
195.71368
171.08982
142.55202
112.04888
81.676513
53.44311
29.418183
12.043234
3.5190928
1.2854872
0.81411265
0.65278411
0.5684667
0.51191958
0.47233669
0.44594354
0.42893853
0.41872196
0.41320737
207.30871
206.76979
205.90564
205.56952
206.79968
210.41704
215.89207
221.68689
225.4601
225.76059
220.72603
209.45269
191.9041
168.85044
141.7168
112.32391
82.687796
54.825268
30.797662
12.964578
3.8314141
1.3411908
0.82376542
0.65561113
0.57170364
0.51282849
0.47311119
0.44649015
0.42929874
0.41891936
0.41333604
203.41992
203.27896
202.91733
202.84382
203.92741
206.73568
211.00085
215.60837
218.61672
218.75908
214.2304
204.02441
187.89435
166.37178
140.6548
112.39576
83.583818
56.159106
32.191632
13.975579
4.19167
1.404254
0.83951853
0.6635403
0.57368696
0.51384672
0.47396917
0.44694334
0.42957619
0.41911753
0.41345585
200.19038
200.22337
200.12017
200.26984
201.24256
203.41681
206.6564
210.15626
212.34833
212.19106
207.96959
198.64014
183.78732
163.7164
139.40003
112.33097
84.364368
57.432258
33.580216
15.050235
4.6082982
1.47921
0.85537269
0.66741332
0.57536902
0.51458113
0.47455066
0.44742106
0.4299341
0.41929057
0.41356384
198.84375
198.96743
198.96053
199.07894
199.67953
201.08916
203.27054
205.62593
206.94429
206.29034
202.15139
193.47378
179.71382
160.97059
138.00306
112.13623
85.034175
58.636986
34.949771
16.158703
5.0616462
1.5647562
0.87023073
0.67286032
0.57837898
0.51524263
0.47510902
0.44778411
0.43015782
0.41943535
0.41365823
199.25702
199.359
199.32411
199.33896
199.61042
200.22296
201.18811
202.24246
202.60608
201.26637
196.97475
188.70276
175.81607
158.23903
136.5228
111.79432
85.595696
59.770851
36.295027
17.303917
5.5778605
1.6611557
0.88817554
0.68003447
0.57885974
0.51559786
0.47546581
0.44814445
0.43043894
0.41956563
0.41373539
201.70653
201.5671
201.24374
200.89967
200.71923
200.77374
200.81182
200.49049
199.59482
197.33156
192.63187
184.50096
172.24203
155.63394
135.0353
111.37962
86.066463
60.83468
37.609414
18.472319
6.1320836
1.7712506
0.90730916
0.68328118
0.5800887
0.51577274
0.47563269
0.4483987
0.43058304
0.41965129
0.41379292
207.73358
207.46245
206.74197
205.68873
204.40153
203.04166
201.84874
200.49049
198.22541
194.73063
189.30824
181.02078
169.12127
153.2596
133.61649
110.9381
86.469461
61.834298
38.890421
19.66212
6.7486356
1.8980546
0.92686408
0.69031053
0.580973
0.51565093
0.47563361
0.44845215
0.43073088
0.41972427
0.4138263
213.76522
213.84317
213.30382
212.15895
210.4008
208.06969
205.2216
202.03229
198.50555
193.77364
187.30025
178.48955
166.61442
151.22637
132.33918
110.51277
86.826347
62.775081
40.133419
20.860066
7.4320324
2.0433314
0.9448665
0.69469588
0.58001214
0.5148995
0.47553468
0.44841017
0.43082651
0.41975255
0.41383243
216.5215
217.20995
217.32694
216.73388
215.28988
212.92149
209.61053
205.38516
200.20822
194.10164
186.56226
176.99175
164.8296
149.62312
131.26387
110.13755
87.150651
63.659865
41.335771
22.060849
8.1706387
2.2093801
0.96290215
0.69511574
0.57898245
0.51471135
0.4751934
0.4482846
0.43084896
0.41974281
0.41380717
215.20263
216.42552
217.11764
217.1533
216.3344
214.48787
211.48014
207.22112
201.6626
194.76496
186.399
176.16504
163.62176
148.40997
130.39166
109.82809
87.465027
64.497982
42.495519
23.254834
8.9635751
2.3993357
0.98107809
0.69498211
0.57850034
0.51408851
0.47487129
0.44801085
0.4308253
0.41970783
0.41374961
209.73246
212.1781
213.96921
214.84608
214.73183
213.48726
210.99634
207.03661
201.57861
194.5874
185.93178
175.36317
162.56434
147.33111
129.57223
109.48436
87.683149
65.243951
43.590037
24.4239
9.8040079
2.6168282
1.0001935
0.69452445
0.57720782
0.51296335
0.47419201
0.44759018
0.4307596
0.41962423
0.41365658
197.07187
200.81011
204.28416
207.13437
208.91032
209.22096
207.86189
204.77186
199.87003
193.12261
184.46461
173.81965
161.01367
145.93005
128.51934
108.93781
87.68598
65.836063
44.583878
25.547034
10.6663
2.867276
1.0222743
0.69348055
0.57622311
0.51259445
0.47378432
0.44729164
0.43058406
0.41949996
0.41353194
181.51165
185.3612
189.14463
192.60508
195.49531
197.49192
198.1345
197.03095
193.80687
188.26934
180.40281
170.31378
158.08883
143.62369
126.88517
108.03153
87.532933
66.299454
45.483243
26.625652
11.544354
3.1595243
1.0508706
0.69334411
0.57604946
0.51246176
0.47333477
0.44694072
0.43042528
0.41934047