/*--------------------------------*- C++ -*----------------------------------*\
| =========                 |                                                 |
| \\      /  F ield         | OpenFOAM: The Open Source CFD Toolbox           |
|  \\    /   O peration     | Version:  2406                                  |
|   \\  /    A nd           | Website:  www.openfoam.com                      |
|    \\/     M anipulation  |                                                 |
\*---------------------------------------------------------------------------*/
FoamFile
{
    version     2.0;
    format      ascii;
    arch        "LSB;label=32;scalar=64";
    class       volScalarField;
    location    "0.1";
    object      omega;
}
// * * * * * * * * * * * * * * * * * * * * * * * * * * * * * * * * * * * * * //

dimensions      [0 0 -1 0 0 0 0];

internalField   nonuniform List<scalar> 
8260
(
21363.958
18219.944
15261.245
12615.289
10323.182
8369.3227
6723.2287
5351.4806
4220.9321
3299.2553
2556.3324
1964.5144
1498.6548
1136.1086
855.42285
637.079
449.55793
291.22106
209.53963
174.65529
154.13637
137.45838
124.3016
115.84242
110.34278
106.51456
104.72245
101.68809
101.08339
98.861274
97.597535
17646.49
15208.555
12965.483
10926.35
9102.853
7498.1579
6107.5087
4920.1751
3921.4055
3093.2678
2415.9381
1869.694
1435.1777
1094.0181
827.40263
617.44882
433.02433
278.87462
204.37043
172.27038
152.56295
136.42512
123.68138
115.50102
110.13819
106.39607
104.63165
101.64025
101.04084
98.822266
97.59121
14455.786
12659.898
10968.136
9395.1879
7952.5471
6649.2844
5490.9714
4478.8094
3609.5775
2875.6852
2265.9678
1767.5222
1366.3248
1048.1281
796.74141
595.8323
415.19562
269.29699
201.57581
170.98201
151.69617
135.87031
123.35166
115.31845
110.02764
106.31787
104.58357
101.594
101.00409
98.789812
97.58377
11710.613
10430.622
9182.3352
7989.4089
6866.3005
5825.6469
4877.8925
4030.4549
3287.0539
2647.2081
2106.4985
1657.7566
1291.726
998.02792
763.00969
571.63674
395.33608
258.75834
197.6044
168.84337
150.16997
134.86873
122.7528
114.97731
109.82135
106.18466
104.50562
101.54449
100.94353
98.751008
97.581223
9379.4056
8491.7901
7590.1037
6704.6773
5848.7249
5035.1118
4275.7342
3580.6747
2957.3624
2409.8181
1938.4674
1540.7097
1211.3627
943.53298
725.88724
544.20425
372.84829
247.83407
193.9118
166.85773
148.77085
133.97329
122.2351
114.68583
109.64905
106.06266
104.44221
101.48904
100.88558
98.714942
97.578639
7429.117
6823.8654
6186.9384
5544.9781
4908.1046
4287.1449
3693.0473
3136.0939
2625.0423
2166.288
1763.3739
1417.0518
1125.4164
884.54702
685.02152
512.73208
347.50889
236.80977
189.72368
164.3603
146.93673
132.77265
121.52631
114.27552
109.4063
105.89577
104.35477
101.42371
100.81231
98.673441
97.569725
5815.6294
5409.6593
4969.6108
4515.2916
4053.3661
3591.6948
3138.9606
2704.0731
2295.4274
1920.11
1583.2694
1287.8199
1034.275
821.04024
639.93396
476.20786
319.72324
226.07946
185.44762
161.75099
145.02543
131.54901
120.82467
113.86884
109.17077
105.72375
104.27828
101.34959
100.73462
98.631956
97.563686
4496.0262
4228.6897
3931.51
3617.9078
3291.6766
2957.824
2622.4303
2292.3005
1974.4391
1675.4148
1400.7491
1154.4353
938.54884
753.01045
589.83227
433.49592
290.75929
215.89474
180.71967
158.68441
142.72404
130.06562
119.95469
113.35096
108.87159
105.50831
104.17852
101.26538
100.64418
98.590763
97.559188
3430.0438
3257.6625
3061.7226
2850.8227
2626.756
2392.2903
2151.1924
1908.083
1668.1476
1436.7238
1218.8246
1018.6304
839.00922
680.32244
533.18761
383.53192
262.81869
206.29319
175.68792
155.36947
140.24557
128.49871
119.04769
112.8061
108.56149
105.27847
104.07363
101.17085
100.55179
98.552761
97.560967
2579.8295
2471.2006
2345.4407
2207.5833
2058.2317
1898.6443
1730.8257
1557.524
1382.1336
1208.4972
1040.6139
882.20914
736.33325
602.22489
466.98536
328.59427
238.89572
197.0703
170.10775
151.57777
137.39519
126.70167
117.97158
112.14591
108.18218
105.00522
103.92019
101.06404
100.45248
98.518123
97.562843
1910.6216
1843.9427
1765.7701
1678.5101
1582.1587
1477.106
1364.1902
1244.7645
1120.7219
994.46151
868.78165
746.53299
630.29971
516.16401
388.26716
276.65981
219.79019
187.86073
164.10265
147.46951
134.34883
124.80074
116.82478
111.43744
107.7735
104.71228
103.73943
100.944
100.35084
98.486266
97.565149
1390.1685
1350.5074
1303.5169
1250.2456
1190.3576
1123.7135
1050.4156
970.87028
885.83888
796.48659
704.45481
611.34712
517.77346
415.96774
304.05742
238.3062
204.51847
178.46942
157.63654
142.93445
130.99547
122.68172
115.50973
110.61292
107.28794
104.37874
103.50216
100.8087
100.24039
98.451553
97.568443
988.08536
965.45671
938.33541
907.06297
871.19772
830.35774
784.19492
732.46536
675.10493
612.20737
544.53953
472.12652
392.99894
305.6545
245.92863
215.76528
189.45604
168.05549
150.84968
138.42133
127.56374
120.45588
114.11792
109.73949
106.75874
104.02722
103.22598
100.65681
100.11864
98.422815
97.572538
674.49848
661.73074
646.19014
628.05809
606.82327
582.03325
553.06853
519.50333
480.89707
436.18298
386.43011
332.06731
281.25696
239.34343
213.41348
192.471
175.18967
158.9265
144.19958
133.59281
123.86472
118.16022
112.57126
108.77778
106.13486
103.63512
102.88542
100.48581
99.981511
98.403184
97.586004
430.8411
423.05981
414.20494
403.98064
391.49237
376.53374
359.66325
341.06606
319.89461
295.43251
269.84292
243.86701
221.77228
203.90927
189.4393
175.93185
161.2922
148.07214
136.83954
129.2564
120.77005
115.85216
110.95517
107.80751
105.45766
103.21817
102.51831
100.29565
99.825342
98.391482
97.607261
284.32122
280.2393
275.69184
270.81181
265.35504
259.4686
251.97228
244.15511
233.53997
222.00136
209.63143
197.91297
190.63737
180.73397
168.04973
156.94204
149.18641
140.20067
131.30953
124.69881
117.60199
113.87394
109.28333
106.75059
104.71889
102.77633
102.15099
100.08702
99.648818
98.386542
97.635383
206.75747
205.191
203.46692
201.75302
199.83804
197.54521
194.44354
191.58369
187.30627
183.34069
176.90176
170.49833
165.23474
158.28562
151.92248
146.29344
139.57194
131.92323
125.32198
120.19149
115.85807
111.82065
107.71545
105.7849
103.99019
102.32935
101.84563
99.85939
99.446359
98.387067
97.665004
168.47673
167.8656
167.2027
166.48285
165.81991
165.81878
165.2503
162.4403
159.60176
155.64093
154.75359
153.31228
149.31178
145.06905
139.15117
132.35709
130.19612
126.78336
121.15071
117.51651
113.3228
109.77364
106.63137
104.70912
103.25034
101.85273
101.53509
99.603131
99.208083
98.409646
97.687003
149.33635
149.07828
148.5263
147.60094
146.22595
143.62471
141.74744
140.53596
139.96824
139.96293
138.86186
134.00658
133.4354
130.27366
128.96716
125.0159
121.52412
118.40728
117.12848
114.94843
111.13927
108.43902
105.65195
103.71505
102.55265
101.34699
101.04368
99.311028
98.927202
98.442383
97.606184
130.18575
130.03165
129.83046
129.52297
129.33103
129.8594
130.39308
130.18955
129.02756
126.92148
124.59774
124.20992
122.54907
122.27712
120.89651
117.74973
114.93648
112.46366
112.10611
112.05074
109.72279
106.63275
104.61235
102.89177
101.8006
100.85822
100.56679
99.017216
98.615314
98.457919
97.648717
120.80994
120.75025
120.5476
120.12784
119.5092
118.48193
117.58886
117.08848
116.75803
116.51668
116.66998
115.86044
113.65186
113.32389
112.58273
113.13851
111.28985
107.92081
107.17203
108.07085
107.55532
105.5226
103.65916
101.9628
101.28237
100.33238
100.15753
98.796488
98.443923
98.468941
97.682993
111.30816
111.27756
111.19503
111.04944
110.91565
110.98908
111.269
111.33312
111.10871
110.39558
109.42117
108.75374
108.80775
107.88264
107.55861
106.5094
106.26384
105.48128
104.61242
104.26708
104.79985
104.13677
102.27877
101.2109
100.71798
99.716189
99.806088
98.651568
98.369238
98.479529
97.725399
106.82644
106.79459
106.69136
106.52107
106.32776
106.0818
105.75351
105.61598
105.49283
105.34919
105.12489
104.97703
104.6065
104.31448
104.0894
103.23459
102.88812
102.35526
102.82294
102.2989
102.79286
102.00547
101.15771
100.6133
100.00044
99.248289
99.431235
98.534
98.333705
98.485621
97.775976
102.76272
102.77316
102.75994
102.72252
102.68247
102.66391
102.75756
102.89394
102.97276
102.96818
102.86825
102.51336
102.28067
101.95
101.61279
101.46698
101.11096
100.68917
101.31084
101.13546
101.60805
100.48619
100.17242
99.651944
99.295451
98.941861
99.042647
98.393131
98.320136
98.486442
97.827606
100.84298
100.85638
100.84619
100.81366
100.77064
100.71849
100.63933
100.54953
100.50122
100.47117
100.44249
100.39281
100.31605
100.3867
100.33988
100.06872
99.928774
99.700242
99.574307
99.619649
100.39672
99.720207
99.244794
99.062978
98.913866
98.632252
98.676628
98.214003
98.287952
98.456381
97.889771
99.307332
99.319559
99.321977
99.315067
99.304721
99.294268
99.283578
99.272783
99.262197
99.255281
99.266874
99.306249
99.366861
99.259596
99.211986
99.163812
98.996536
98.850584
98.79854
98.866848
99.201335
99.286723
98.791291
98.7242
98.651714
98.433559
98.470972
98.11623
98.212043
98.344757
97.902304
98.62314
98.63102
98.633375
98.630975
98.627858
98.6252
98.62189
98.616627
98.609981
98.60213
98.594586
98.590119
98.588224
98.605351
98.622633
98.609891
98.578855
98.457333
98.405305
98.546861
98.643404
98.827391
98.54408
98.491631
98.472929
98.317945
98.286633
98.059038
98.172405
98.214363
97.904186
98.276396
98.278254
98.277989
98.276992
98.276554
98.276815
98.277672
98.279303
98.283026
98.289697
98.294188
98.295143
98.298146
98.306494
98.313574
98.320761
98.305601
98.282818
98.287761
98.376359
98.427146
98.470334
98.366995
98.306988
98.304935
98.221459
98.182723
98.037036
98.109774
98.201544
98.057113
98.171281
98.168958
98.166253
98.164919
98.164723
98.165098
98.165838
98.166926
98.168171
98.169518
98.170842
98.172837
98.178327
98.190791
98.209867
98.23237
98.227599
98.233429
98.267231
98.332259
98.35805
98.337574
98.301552
98.228046
98.228654
98.179796
98.144153
98.105657
98.091419
98.180389
98.111506
98.190313
98.187304
98.184576
98.182073
98.179717
98.17738
98.175018
98.172814
98.17124
98.170918
98.172584
98.176819
98.184149
98.195619
98.212978
98.232605
98.261239
98.2961
98.303762
98.336881
98.389171
98.318281
98.373951
98.264527
98.249452
98.258734
98.236248
98.230813
98.243526
98.280152
98.29197
98.344691
98.344192
98.343699
98.343227
98.342783
98.342357
98.34195
98.341599
98.341393
98.341451
98.341925
98.342993
98.344884
98.34794
98.352431
98.3577
98.364611
98.371993
98.37618
98.392257
98.423757
98.394469
98.395146
98.360377
98.358442
98.358863
98.353867
98.354777
98.364531
98.410118
98.382975
116637.73
97513.572
76450.08
58912.471
45087.665
34078.654
25459.365
18876.807
13887.079
10116.987
7295.4852
5211.8774
3692.3338
2596.6733
1814.8109
1261.7141
870.82964
588.71289
386.42262
253.79766
187.02973
153.63639
134.70173
122.20245
114.58816
109.41168
106.88567
103.3896
102.66116
99.782588
97.724562
100806.46
76095.81
58771.861
46072.226
35911.745
27726.504
21215.633
16049.128
11990.685
8847.9643
6455.5434
4662.7865
3337.6769
2370.2479
1671.8421
1172.2167
814.53898
552.53516
362.44339
239.94831
181.01206
151.00531
133.32816
121.41369
114.11448
109.15116
106.73704
103.30389
102.60403
99.69792
97.715921
81263.196
64847.431
51987.769
41148.725
32069.087
24688.276
18828.669
14234.635
10660.057
7904.5077
5804.8415
4223.7956
3047.0041
2180.966
1550.4207
1095.2385
765.66841
521.02722
342.70799
230.96524
178.22822
149.82865
132.70429
121.04227
113.87821
109.00434
106.6497
103.21981
102.5433
99.632168
97.707962
71971.743
57933.177
46018.856
36160.537
28181.735
21794.593
16717.108
12705.888
9564.048
7130.9352
5268.2908
3858.1329
2802.0805
2019.6446
1445.8221
1028.2731
722.75304
493.264
325.29663
222.29894
174.61444
148.08185
131.71528
120.4396
113.49689
108.78712
106.51622
103.13201
102.47216
99.560549
97.700093
64095.003
51121.013
40547.598
31979.103
25044.803
19457.909
14986.687
11437.78
8649.5396
6482.5115
4816.06
3547.838
2592.6327
1880.5603
1354.8962
969.57438
684.77581
468.5817
309.46619
214.84817
172.10134
146.92776
131.06633
120.0447
113.24397
108.63391
106.41526
103.0415
102.39377
99.501078
97.693025
57155.628
45628.827
36273.935
28662.991
22493.081
17520.383
13536.84
10370.859
7877.6833
5933.0474
4430.9541
3282.0855
2412.1111
1759.8759
1275.4458
917.85645
651.04028
446.1619
295.04327
208.30388
169.57076
145.60303
130.27618
119.55199
112.92656
108.44762
106.28902
102.94697
102.30191
99.441525
97.686449
51700.812
41237.893
32760.297
25896.889
20354.666
15892.047
12315.895
9470.1032
7223.5543
5465.2405
4101.4136
3053.4376
2255.8978
1654.8125
1205.834
872.15545
621.00689
425.50291
281.9699
202.65067
167.55403
144.57577
129.66291
119.17322
112.68053
108.29827
106.17868
102.84959
102.19986
99.390023
97.680024
47283.304
37587.124
29824.155
23586.727
18565.483
14525.147
11287.62
8708.5077
6668.0259
5066.0485
3818.7947
2856.3198
2120.4986
1563.2377
1144.7853
831.80363
594.21036
406.47834
270.24021
197.78104
165.67927
143.53084
129.00592
118.76089
112.40997
108.13522
106.05466
102.751
102.09043
99.339386
97.673434
43485.887
34508.332
27370.013
21656.463
17065.249
13375.716
10420.261
8063.7433
6195.7617
4725.1486
3576.2894
2686.3406
2003.1492
1483.453
1091.2803
796.1967
570.28035
389.0642
259.82083
193.60936
164.096
142.65872
128.44949
118.41739
112.18197
107.99453
105.93827
102.65429
101.98062
99.293187
97.666461
40354.074
31953.926
25324.056
20040.191
15805.149
12408.164
9688.2605
7517.8358
5794.3908
4434.2034
3368.3947
2539.9455
1901.6064
1414.0799
1044.5663
764.85897
549.00684
373.21618
250.66468
190.04895
162.66036
141.8263
127.89151
118.07108
111.94875
107.84979
105.81459
102.56228
101.87735
99.248761
97.659067
37677.945
29797.399
23603.108
18680.839
14745.587
11593.942
9070.9854
7056.2103
5453.8422
4186.4044
3190.6049
2414.215
1814.0195
1353.981
1003.981
737.47832
530.12323
358.87024
242.69996
187.01695
161.41071
141.11186
127.39837
117.77163
111.74364
107.71951
105.69423
102.4765
101.78524
99.208955
97.651445
35421.856
27980.555
22154.289
17537.829
13855.69
10909.93
8551.705
6667.0115
5165.8889
3976.1681
3039.2097
2306.7344
1738.8439
1302.2766
968.92191
713.71263
513.33708
345.97093
235.84178
184.44228
160.28442
140.45708
126.92294
117.48388
111.54323
107.59006
105.57073
102.39681
101.70597
99.172567
97.64382
33497.385
26442.458
20933.895
16578.734
13110.352
10337.146
8116.7828
6340.5578
4923.8176
3798.9154
2911.1492
2215.5088
1674.8111
1258.1016
938.86251
693.25262
498.54212
334.47154
230.00356
182.2617
159.2876
139.89291
126.4964
117.23164
111.3646
107.47097
105.45228
102.32288
101.63846
99.140455
97.636496
31855.879
25140.737
19907.434
15776.384
12488.993
9860.6853
7755.1305
6068.9587
4722.1681
3650.9714
2803.964
2139.0064
1620.9474
1220.6727
913.28238
675.81151
485.61231
324.32636
225.09833
180.42364
158.39143
139.39151
126.09774
116.99721
111.19687
107.35558
105.34121
102.25467
101.57974
99.111817
97.630689
30449.667
24041.564
19049.884
15111.315
11976.982
9469.4117
7458.5718
5846.355
4556.7708
3529.6011
2715.8342
2075.8414
1576.3356
1189.5246
891.8886
661.17646
474.46104
315.504
221.03973
178.88388
157.59509
138.9627
125.74267
116.79113
111.04923
107.24892
105.23928
102.19129
101.52691
99.085109
97.627023
29285.334
23139.805
18352.932
14574.773
11565.908
9156.4337
7221.8666
5668.934
4424.7315
3432.3122
2644.999
2024.7812
1540.1127
1164.1931
874.41363
649.14546
465.01392
307.98986
217.74167
177.59688
156.88617
138.59113
125.42258
116.60399
110.91657
107.14766
105.14534
102.13139
101.4778
99.056439
97.626181
28354.545
22430.868
17809.861
14159.07
11248.674
8915.4525
7039.7867
5532.165
4322.8013
3356.8022
2589.8075
1984.9624
1511.771
1144.3147
860.64479
639.56071
457.20298
301.83487
215.03424
176.5306
156.26388
138.27794
125.14487
116.44068
110.80176
107.05431
105.06125
102.07431
101.4319
99.023679
97.625635
27491.396
21812.136
17361.086
13829.417
11004.521
8733.7798
6904.3442
5430.9834
4247.7481
3301.4508
2549.2984
1955.6954
1490.8902
1129.622
850.42689
632.35721
451.01061
296.94265
212.89116
175.67568
155.72335
138.01462
124.90574
116.29652
110.70095
106.967
104.98808
102.01964
101.3883
98.987963
97.62563
26618.372
21219.085
16955.116
13550.417
10811.305
8598.4896
6808.5046
5362.286
4197.834
3265.015
2522.7384
1936.488
1477.1562
1119.9243
843.64999
627.5241
446.47624
293.22606
211.2457
175.01737
155.26476
137.80126
124.7085
116.17384
110.61469
106.88699
104.92492
101.96694
101.34635
98.955641
97.625169
25890.123
20734.712
16634.258
13340.079
10674.766
8510.1403
6751.0789
5324.2645
4171.9192
3246.7423
2509.6211
1927.0211
1470.3676
1115.0966
840.24178
625.06037
443.64881
290.63546
210.06455
174.55082
154.88853
137.6362
124.55178
116.07133
110.54119
106.8129
104.8707
101.91608
101.30511
98.933489
97.623009
25247.706
20339.175
16394.581
13199.26
10595.945
8468.8561
6731.7154
5316.3589
4169.4458
3246.2795
2509.7016
1927.1277
1470.4097
1115.0824
840.17228
624.95482
442.57138
289.14065
209.31987
174.2776
154.60048
137.52347
124.43811
115.99132
110.48114
106.74481
104.8287
101.8667
101.26366
98.922019
97.618977
24672.174
20015.854
16226.789
13124.017
10574.043
8473.8978
6747.5434
5334.9983
4186.9017
3261.8904
2522.5057
1936.8233
1477.2998
1119.8869
843.44596
627.25835
443.26604
288.75768
209.01178
174.20885
154.40839
137.4659
124.36773
115.934
110.434
106.68132
104.79814
101.81835
101.22224
98.915235
97.613338
24135.245
19746.785
16120.649
13109.475
10602.544
8519.4353
6796.8995
5382.6142
4229.1844
3296.2758
2548.9784
1956.2777
1491.1288
1129.5681
850.08896
632.09331
445.85922
289.28408
209.09029
174.28875
154.31388
137.46295
124.3383
115.89815
110.39872
106.62116
104.77657
101.77099
101.18073
98.903095
97.608152
23583.191
19500.148
16055.781
13140.212
10674.964
8604.5761
6879.2037
5454.0835
4287.702
3342.0709
2583.4565
1981.4074
1508.9042
1141.9008
858.39141
637.9166
449.36477
290.80121
209.4508
174.51053
154.29528
137.48707
124.33861
115.87755
110.37175
106.56376
104.75272
101.72454
101.13331
98.884448
97.603193
113694.2
95069.848
75226.241
58527.225
45280.888
34783.55
26326.38
19661.215
14511.886
10595.271
7648.4234
5463.7638
3866.748
2714.1824
1892.0202
1311.2683
902.17336
607.92078
398.08549
259.38933
188.87718
154.32763
135.07514
122.44877
114.77435
109.53162
106.9513
103.43764
102.70409
99.832586
97.727678
107814.06
90206.681
72396.09
57155.327
44680.749
34491.074
26230.949
19679.347
14595.737
10697.495
7744.716
5543.8101
3928.34
2759.0279
1923.2815
1332.2426
915.8544
616.74867
404.15191
262.72812
190.01519
154.72804
135.29534
122.60553
114.90913
109.61939
106.99617
103.4829
102.73598
99.871948
97.73078
102007.63
85617.881
69325.187
55355.499
43693.661
34014.81
26066.152
19679.063
14672.706
10798.227
7842.5315
5626.6244
3992.83
2806.3823
1956.4935
1354.6309
930.46387
626.18746
410.53394
266.34999
191.27113
155.18943
135.552
122.77928
115.04618
109.71028
107.04448
103.51939
102.76594
99.915807
97.733359
96493.945
81326.167
66350.643
53533.271
42664.24
33499.89
25872.043
19666.405
14740.992
10896.094
7941.0541
5711.8183
4060.0847
2856.2444
1991.711
1378.5062
946.06921
636.31987
417.16712
270.25844
192.59885
155.60289
135.77233
122.94384
115.20253
109.81033
107.08959
103.56403
102.79411
99.958341
97.735999
91178.049
77289.989
63472.612
51698.054
41592.493
32942.96
25645.125
19632.248
14798.288
10989.71
8039.4962
5799.089
4130.0091
2908.6313
2029.0013
1403.9509
962.77411
647.21212
424.11811
274.44932
194.19299
156.2302
136.12301
123.16792
115.3616
109.91286
107.14948
103.60298
102.82644
100.00931
97.738602
86039.324
73443.288
60682.149
49852.729
40475.238
32339.158
25380.822
19570.567
14842.226
11077.811
8137.1443
5887.8992
4202.3419
2963.4682
2068.3785
1430.9979
980.62675
658.88141
431.60264
278.93262
195.70902
156.67442
136.36097
123.35227
115.5438
110.02849
107.19884
103.64911
102.85624
100.05777
97.744575
81010.57
69677.797
57942.385
47990.544
39314.456
31690.493
25079.793
19483.721
14871.295
11159.013
8232.8714
5977.1136
4276.5776
3020.5689
2109.7993
1459.6329
999.58998
671.25871
439.65819
283.7059
197.48003
157.26608
136.68472
123.57995
115.73609
110.14566
107.25935
103.69024
102.88401
100.10738
97.751336
76034.885
66017.059
55253.701
46112.967
38105.876
30988.815
24733.29
19363.581
14876.867
11229.271
8324.4152
6066.4787
4352.6143
3079.9365
2153.3301
1489.9551
1019.7854
684.52813
448.39349
288.79895
199.40789
157.90474
137.03267
123.82169
115.93949
110.26847
107.32588
103.73738
102.90852
100.15935
97.759209
71140.957
62412.18
52601.196
44222.43
36854.226
30237.002
24342.543
19211.002
14866.218
11288.477
8411.3141
6155.1999
4430.0445
3141.4103
2198.9431
1521.9968
1041.269
698.77191
457.62614
294.23549
201.50832
158.59131
137.40341
124.08638
116.15928
110.39512
107.39919
103.78341
102.93117
100.21502
97.769247
66412.031
58853.719
49985.463
42327.982
35566.607
29437.914
23907.55
19024.671
14834.646
11334.918
8492.1908
6242.3659
4508.3699
3204.775
2246.5777
1555.7752
1064.078
713.96335
467.35619
300.03864
203.7982
159.34173
137.80987
124.37074
116.38832
110.52738
107.48159
103.83452
102.94992
100.27413
97.783289
61912.958
55388.701
47428.542
40445.144
34254.334
28597.495
23429.942
18802.766
14774.22
11366.194
8565.5368
6326.9771
4586.994
3269.7382
2296.133
1591.2857
1088.2413
730.10496
477.6959
306.22163
206.2973
160.15258
138.23448
124.68237
116.63788
110.66442
107.57272
103.88926
102.96332
100.33618
97.803604
57631.208
52040.562
44954.801
38599.217
32934.662
27725.422
22913.746
18545.918
14687.785
11379.339
8629.727
6407.9259
4665.2323
3335.9383
2347.4623
1628.4992
1113.7746
747.21682
488.45983
312.74671
209.02104
161.05015
138.71982
125.02898
116.89289
110.80751
107.67381
103.95002
102.9725
100.40117
97.832726
53632.196
48881.481
42607.135
36818.353
31628.741
26834.807
22365.411
18256.132
14574.703
11374.45
8683.2263
6484.0197
4742.3022
3402.9358
2400.3671
1667.3599
1140.683
765.30801
499.66071
319.64947
211.97822
162.02694
139.2008
125.39345
117.17169
110.95938
107.7807
104.01132
102.9766
100.47223
97.872457
49926.258
45957.111
40428.638
35138.309
30362.162
25941.971
21793.805
17937.298
14436.642
11355.126
8725.3079
6554.0852
4817.3335
3470.2078
2454.5904
1707.7837
1168.9698
784.36319
511.52199
326.94021
215.19824
163.11452
139.79587
125.83223
117.45608
111.1174
107.89482
104.07161
102.97664
100.5476
97.923177
46551.237
43291.028
38449.648
33593.505
29162.125
25065.273
21209.565
17594.351
14273.959
11313.004
8754.222
6616.8306
4889.3412
3537.1425
2509.82
1749.6555
1198.6381
804.39541
524.16108
334.63643
218.68686
164.32352
140.34121
126.24733
117.76136
111.29079
108.01075
104.12999
102.97429
100.63092
97.98432
43486.298
40872.707
36673.824
32204.85
28053.089
24222.893
20623.829
17232.809
14088.238
11250.222
8767.5197
6670.7495
4957.1976
3603.015
2565.6743
1792.8231
1229.6898
825.45332
537.63321
342.73461
222.5042
165.6539
141.0855
126.81335
118.08782
111.46557
108.13344
104.18715
102.96776
100.71848
98.05535
40716.903
38666.535
35073.993
30970.559
27046.998
23428.695
20046.439
16857.828
13881.037
11166.468
8764.1017
6714.1552
5019.6583
3666.9724
2621.6585
1837.076
1262.1065
847.67055
552.03242
351.39562
226.59177
167.20374
141.74491
127.27852
118.41109
111.66281
108.26062
104.24405
102.96478
100.81994
98.136764
38203.559
36623.498
33599.297
29865.24
26143.172
22690.143
19484.404
16473.475
13653.97
11062.664
8748.0991
6746.3482
5075.4474
3728.0481
2677.1798
1882.1149
1295.7468
871.12211
567.55738
360.89071
231.16166
168.85249
142.65025
127.97832
118.79812
111.85137
108.40605
104.30064
102.96718
100.939
98.231417
35902.953
34683.502
32169.49
28823.887
25311.987
21999.508
18937.621
16080.632
13406.918
10936.788
8711.1263
6764.5208
5122.904
3785.1089
2731.524
1927.537
1330.3828
895.65823
583.9336
370.68995
235.96356
170.88848
143.5798
128.54011
119.12636
112.07383
108.57341
104.35857
102.98416
101.06987
98.343936
33785.137
32804.873
30711.606
27759.766
24491.316
21325.803
18393.429
15674.08
13136.626
10785.304
8650.1114
6763.4836
5159.6537
3836.7522
2783.8521
1972.8797
1365.7945
921.18304
601.20951
380.88003
241.45365
173.01164
144.55065
129.27686
119.57882
112.29312
108.76138
104.42181
103.03533
101.20275
98.477795
31806.833
30961.937
29173.677
26583.091
23596.487
20615.147
17824.385
15240.917
12836.651
10604.9
8565.8685
6750.2469
5185.3707
3881.7437
2833.2427
2017.6193
1401.7396
947.64038
619.40443
391.82326
247.18001
175.56614
145.98704
130.0774
119.91872
112.5749
108.95712
104.48541
103.10943
101.35341
98.632571
29841.767
29067.53
27510.947
25243.592
22564.619
19814.671
17197.632
14763.82
12498.19
10390.596
8453.9355
6714.8152
5194.406
3917.9675
2878.5711
2061.111
1437.9199
974.93016
638.49926
403.42412
253.75265
178.54772
146.89669
130.65886
120.41324
112.87416
109.11978
104.55365
103.21553
101.57237
98.801638
27798.662
27035.068
25653.706
23689.511
21339.2
18871.656
16475.381
14220.765
12109.756
10136.062
8309.4062
6652.3168
5189.1037
3944.4569
2918.8238
2102.7005
1473.9966
1002.9243
658.47878
415.71647
261.2479
181.48919
148.70484
131.76971
120.82201
113.20521
109.28586
104.64541
103.38267
101.86793
98.974607
25580.657
24831.204
23602.091
21919.164
19912.323
17767.902
15638.593
13598.289
11663.832
9837.6303
8131.0973
6566.2292
5169.9615
3960.9801
2953.2456
2141.7682
1509.6119
1031.4811
679.37672
429.09843
268.72072
185.59114
150.05477
132.32594
121.30054
113.5628
109.39481
104.76768
103.59255
102.18096
99.174803
23198.28
22495.95
21435.644
20030.914
18363.111
16553.11
14712.268
12907.593
11165.582
9497.8692
7919.8282
6454.1444
5127.6037
3962.3203
2980.3941
2177.6487
1544.3805
1060.4216
701.17049
443.8926
277.05263
189.05167
151.13114
133.26019
121.72724
113.85716
109.53908
104.91715
103.83511
102.49195
99.447916
20792.576
20173.175
19291.958
18151.484
16797.371
15302.845
13744.107
12176.777
10631.348
9126.3421
7681.0859
6319.4699
5069.085
3956.1982
3000.925
2210.0214
1577.9855
1089.5101
723.67985
459.61296
286.02032
193.21313
153.58999
134.31501
122.17015
114.23718
109.68057
105.08102
104.10779
102.82315
99.717378
18536.432
18017.078
17305.555
16396.191
15310.795
14091.548
12787.827
11442.165
10084.787
8738.1808
7424.3238
6167.7863
4996.6265
3939.0245
3014.7272
2238.7132
1610.1573
1118.5207
746.71
476.0183
295.57196
198.18156
154.8999
134.66998
122.5409
114.54302
109.81191
105.23877
104.35995
103.04644
99.794027
16558.235
16134.197
15567.4
14845.499
13975.413
12980.275
11891.317
10739.688
9551.9064
8351.6692
7161.7678
6006.6395
4913.7463
3911.1289
3022.1658
2263.8241
1640.775
1147.2748
770.10221
492.95165
305.26775
201.85846
155.6891
135.45983
122.96737
114.81781
109.97429
105.37458
104.55368
103.12168
99.791036
14931.843
14583.187
14124.831
13543.05
12836.872
12014.773
11095.215
10102.12
9058.7221
7986.4693
6907.471
5845.5214
4826.693
3878.2435
3024.9964
2285.9168
1669.9204
1175.6753
793.72357
510.23649
314.92079
205.69753
157.62056
136.28104
123.469
115.07849
110.10867
105.48626
104.71012
103.22886
99.780564
13677.816
13381.134
12997.748
12515.133
11925.981
11230.729
10438.377
9565.6257
8633.8221
7664.3914
6677.6752
5695.6547
4742.6911
3844.4107
3025.4248
2305.9375
1697.8957
1203.7383
817.50756
527.89953
325.02666
209.95902
159.00162
136.34137
123.55351
115.13159
110.31373
105.57637
104.81232
103.41619
99.798924
12790.129
12529.983
12195.23
11775.839
11262.877
10652.548
9948.1883
9160.8573
8308.0125
7410.9208
6491.4721
5570.7744
4670.7869
3814.9673
3026.8616
2325.4116
1725.2835
1231.5954
841.40713
545.79892
335.61555
213.61663
159.4292
136.38488
123.7365
115.24021
110.40489
105.65317
104.84028
103.62041
99.864545
12173.292
11947.099
11652.36
11280.411
10821.591
10269.944
9625.3868
8895.3289
8094.7225
7244.1503
6366.7584
5485.5377
4622.2714
3797.9478
3032.4497
2346.253
1752.9156
1259.561
865.52952
563.96808
346.47195
217.19104
160.01441
136.48449
123.77972
115.25018
110.46313
105.72717
104.833
103.76314
100.04337
11682.606
11498.486
11250.336
10928.653
10522.271
10022.974
9428.0398
8742.2533
7978.765
7158.1275
6305.1382
5445.3433
4602.223
3797.087
3045.8671
2369.9669
1781.5432
1287.9826
890.04362
582.54596
357.77403
220.62562
160.46889
136.45221
123.70253
115.23384
110.48635
105.79575
104.76297
103.92882
100.54268
11169.521
11035.193
10843.537
10582.814
10239.693
9802.9087
9265.9388
8630.015
7905.973
7113.792
6280.1254
5433.6172
4600.9366
3804.9447
3065.8433
2396.919
1811.3644
1316.8394
914.95055
601.61647
369.74475
224.50406
160.77715
136.3226
123.70479
115.29476
110.56702
105.8278
104.7023
104.21222
100.95679
10553.947
10465.984
10329.772
10132.369
9859.3278
9496.8975
9034.4504
8467.4689
7800.8771
7050.98
6245.8343
5418.212
4599.0488
3815.9649
3086.9941
2424.2905
1841.3185
1345.8809
940.27442
621.30944
382.62643
228.79014
161.39052
136.27065
123.86657
115.34479
110.68175
105.84607
104.72716
104.73139
101.32148
9838.7567
9784.3883
9691.229
9546.1969
9335.1815
9043.7989
8659.4748
8174.3841
7588.5997
6912.3217
6164.5059
5375.2877
4581.5957
3812.8951
3096.4153
2445.8714
1868.4494
1373.8533
965.53277
641.67528
396.80332
234.54086
162.5902
136.34616
124.01993
115.38481
110.78987
105.87689
104.82913
106.33386
101.94649
9058.4061
9020.6513
8952.8543
8843.2704
8679.1919
8446.9441
8133.4729
7728.8036
7229.1811
6639.8671
5976.6356
5262.4858
4523.6271
3789.2433
3091.4311
2454.6101
1888.8457
1398.9372
990.1391
662.67075
412.44136
242.31837
164.57239
136.95103
124.33145
115.59968
110.88196
105.92904
105.21177
108.04521
102.5335
8284.5575
8246.3534
8185.0774
8091.2784
7954.7279
7763.8836
7506.8774
7173.2884
6756.6421
6257.1424
5683.6386
5053.4117
4389.8308
3720.0508
3066.296
2451.2358
1901.066
1419.6021
1013.3257
684.04417
429.56079
252.1163
167.66137
138.52321
125.06913
116.09574
110.85554
105.96813
105.84003
108.9566
102.88214
7602.4225
7555.5053
7489.6101
7397.8273
7272.4837
7104.6771
6884.7918
6603.6065
6254.019
5833.0984
5343.8751
4796.6939
4209.5455
3604.8704
3005.6009
2433.0305
1902.0412
1434.4924
1034.1405
705.34704
447.9898
263.99673
171.76591
139.86692
125.63645
116.32035
110.75064
105.9696
106.01964
109.10494
103.07653
7069.9681
7014.4834
6941.8426
6847.1796
6724.6736
6567.5475
6368.3519
6119.5754
5814.6176
5449.5107
5024.6454
4546.2646
4026.2898
3481.671
2932.2899
2398.291
1897.6442
1444.9145
1052.5181
725.91706
466.88252
277.25887
176.23409
140.72511
125.83979
116.36048
110.6698
105.93284
105.93186