/*--------------------------------*- C++ -*----------------------------------*\
| =========                 |                                                 |
| \\      /  F ield         | OpenFOAM: The Open Source CFD Toolbox           |
|  \\    /   O peration     | Version:  2406                                  |
|   \\  /    A nd           | Website:  www.openfoam.com                      |
|    \\/     M anipulation  |                                                 |
\*---------------------------------------------------------------------------*/
FoamFile
{
    version     2.0;
    format      ascii;
    arch        "LSB;label=32;scalar=64";
    class       volScalarField;
    location    "0.024";
    object      alphat;
}
// * * * * * * * * * * * * * * * * * * * * * * * * * * * * * * * * * * * * * //

dimensions      [1 -1 -1 0 0 0 0];

internalField   nonuniform List<scalar> 
92813
(
0.039412901
0.042553309
0.045813482
0.049116419
0.05242951
0.055731937
0.059005998
0.062237511
0.06541469
0.068527407
0.071566559
0.074523466
0.077389249
0.08015446
0.082808378
0.08534027
0.087741545
0.0899957
0.092087646
0.094003601
0.095728799
0.097248286
0.098547097
0.099609801
0.10042044
0.10096262
0.10121963
0.10117448
0.1008101
0.10010953
0.099056152
0.097634093
0.095828622
0.093626702
0.091017652
0.087993903
0.084552311
0.080694644
0.076428863
0.071770761
0.066752446
0.061414672
0.055809655
0.050010833
0.044109071
0.038211352
0.032492751
0.027156432
0.02245902
0.018658258
0.015904816
0.014085192
0.012909989
0.012105101
0.011493953
0.010987911
0.010544888
0.01014558
0.009780576
0.0094446944
0.0091353791
0.0088505934
0.0085875031
0.0083438861
0.0081182792
0.0079079333
0.0077123679
0.0075306262
0.0073601766
0.0072011231
0.0070531304
0.0069141859
0.006784701
0.0066643613
0.0065512704
0.0064462477
0.0063489375
0.0062578164
0.0061737554
0.0060959299
0.0060228662
0.0059552938
0.0058922004
0.0058322651
0.0057768341
0.0057244392
0.0056748248
0.0056282876
0.0055839692
0.0055420645
0.0055025167
0.0054650848
0.0054295635
0.005396165
0.0053644889
0.0053349149
0.0053072062
0.0052812306
0.0052569347
0.0052343209
0.0052133265
0.0051935537
0.0051750781
0.0051577376
0.0051414078
0.0051259153
0.0051112758
0.0050973301
0.0050841736
0.0050720266
0.0050607377
0.0050502132
0.0050403244
0.0050310409
0.0050223609
0.0050142727
0.0050068879
0.0050002259
0.0049941407
0.0049887134
0.0049839282
0.0049797011
0.0049762114
0.0049732463
0.0049712005
0.0049692542
0.0049690797
0.044244971
0.047420009
0.050591139
0.053761959
0.056926094
0.060071784
0.063186142
0.06625741
0.069274975
0.07222904
0.075110318
0.07790969
0.080617766
0.083224531
0.085719238
0.088090763
0.090327527
0.092415173
0.094339019
0.096084607
0.097636974
0.098980771
0.10010114
0.10098257
0.10160905
0.1019642
0.10203134
0.10179361
0.10123412
0.10033621
0.099083707
0.097461288
0.095454963
0.093052642
0.090244829
0.087025446
0.083393061
0.079352094
0.074912883
0.070092334
0.064927664
0.059465466
0.053760848
0.047893558
0.041963362
0.036097683
0.03047463
0.025320266
0.020907572
0.017481879
0.015104449
0.013574464
0.012579691
0.011872657
0.011314003
0.010837758
0.010413777
0.010028521
0.0096749722
0.0093489943
0.0090485718
0.0087716777
0.0085157229
0.0082785046
0.0080585352
0.0078530845
0.0076619414
0.0074843048
0.0073174622
0.0071619227
0.007017311
0.0068814214
0.0067548659
0.0066372157
0.0065265711
0.006423876
0.006328681
0.0062394526
0.0061572103
0.0060809613
0.0060092971
0.0059430463
0.0058810682
0.00582213
0.0057676071
0.0057159778
0.0056670083
0.0056210144
0.0055771639
0.0055356843
0.0054965054
0.0054595021
0.0054243876
0.0053913647
0.0053600708
0.0053308578
0.0053034984
0.0052778222
0.0052538347
0.005231521
0.005210779
0.0051912331
0.0051730001
0.0051558756
0.0051397112
0.0051243887
0.0051098738
0.0050960175
0.005082942
0.0050708627
0.0050596389
0.0050491838
0.0050393758
0.0050301736
0.0050215558
0.0050135193
0.0050061777
0.0049995533
0.0049935013
0.0049881021
0.0049833438
0.0049791393
0.0049756688
0.0049727222
0.0049706859
0.0049687503
0.0049685795
0.049228855
0.052316505
0.055374488
0.058412267
0.061430547
0.064422113
0.06737749
0.070287201
0.073141961
0.07593261
0.078650044
0.081285053
0.083828082
0.086268944
0.088596724
0.090799695
0.092865267
0.094779556
0.09652803
0.098096094
0.09946878
0.10063071
0.10156659
0.10226081
0.10269735
0.10285991
0.10273191
0.10229664
0.10153749
0.10043815
0.09898292
0.097157145
0.094947676
0.092343493
0.089336448
0.085922158
0.082101216
0.077880731
0.073272908
0.068299137
0.063001742
0.057431054
0.051648341
0.045741447
0.039820524
0.034029452
0.028560798
0.023660093
0.01960179
0.016578431
0.014547691
0.013245064
0.012372471
0.011726042
0.011198754
0.010741063
0.010329861
0.0099545953
0.0096093797
0.0092906332
0.0089966567
0.0087252821
0.0084741836
0.0082412622
0.0080249976
0.0078227441
0.0076344367
0.0074593884
0.0072948142
0.0071414386
0.0069987794
0.0068645835
0.0067396131
0.0066234294
0.006514014
0.0064125118
0.006318402
0.0062301307
0.0061488096
0.0060733637
0.0060024062
0.0059368172
0.0058754136
0.0058169333
0.0057628185
0.0057115757
0.0056628951
0.0056171165
0.0055734562
0.0055321529
0.005493112
0.0054563145
0.0054214044
0.0053885677
0.0053574727
0.005328437
0.00530126
0.0052757321
0.005251914
0.0052297653
0.0052091543
0.0051897333
0.0051716474
0.0051546505
0.0051385779
0.0051233595
0.0051089113
0.0050950949
0.0050820527
0.0050699963
0.0050587974
0.0050483773
0.0050386194
0.0050294676
0.0050208857
0.0050128776
0.0050055578
0.0049989521
0.0049929174
0.0049875322
0.0049827885
0.0049785964
0.0049751362
0.0049722008
0.0049701707
0.0049682387
0.0049680706
0.054344399
0.057288611
0.060202517
0.063091052
0.065954492
0.068786499
0.071578795
0.074322988
0.077010578
0.079632866
0.082180924
0.08464552
0.087016963
0.089284917
0.091438268
0.093465034
0.095352326
0.097086303
0.098652437
0.1000361
0.10122223
0.10219527
0.10293974
0.10343996
0.10367998
0.10364354
0.10331421
0.10267552
0.10171117
0.10040529
0.098742769
0.096709719
0.094293963
0.09148571
0.088278347
0.084669394
0.080661767
0.076265576
0.071494446
0.066376763
0.060960022
0.055296809
0.049457129
0.043537564
0.037659428
0.031982113
0.026714885
0.022115887
0.018440947
0.01580566
0.014074295
0.01295344
0.012176116
0.011578062
0.011077261
0.010636159
0.010236845
0.0098711452
0.0095340462
0.0092224514
0.0089349859
0.0086692227
0.0084231176
0.0081947123
0.0079824211
0.0077836378
0.0075984545
0.0074263235
0.0072643304
0.0071134651
0.006973187
0.0068411151
0.0067181885
0.0066039082
0.0064961861
0.0063963033
0.0063036752
0.006216706
0.0061366504
0.006062309
0.0059923272
0.0059276521
0.0058670493
0.0058092666
0.0057557513
0.0057050686
0.0056568477
0.0056114206
0.0055680781
0.00552709
0.0054883003
0.0054518124
0.0054172252
0.0053846811
0.0053538883
0.0053251259
0.0052982207
0.0052729202
0.0052493486
0.0052274369
0.0052070149
0.0051877719
0.0051698861
0.0051530633
0.0051371205
0.0051220427
0.0051076924
0.0050939422
0.0050809598
0.0050689498
0.0050577943
0.0050474272
0.0050377379
0.0050286536
0.0050201229
0.005012157
0.0050048715
0.0049982946
0.004992286
0.0049869227
0.0049822002
0.0049780266
0.0049745815
0.0049716616
0.0049696397
0.0049677151
0.0049675505
0.059554389
0.062329028
0.065077708
0.067801516
0.070499053
0.073163407
0.075786249
0.078359356
0.080874429
0.08332289
0.085695824
0.087983906
0.09017729
0.092265473
0.094237179
0.09608029
0.097781822
0.099327949
0.10070418
0.10189591
0.10288802
0.10366482
0.10421074
0.10451005
0.10454679
0.1043048
0.10376785
0.10291973
0.10174454
0.10022692
0.098352475
0.096108178
0.093482979
0.090468484
0.087059806
0.083256576
0.079064304
0.074496292
0.069568694
0.064316771
0.058793146
0.053053913
0.047178478
0.041272509
0.035469413
0.029944339
0.024922916
0.02066745
0.017394941
0.01513016
0.013661548
0.012692197
0.011993142
0.011435721
0.010958298
0.010532657
0.010144934
0.0097888557
0.0094600245
0.0091557608
0.0088750089
0.0086149621
0.0083738973
0.0081500694
0.0079418118
0.007746556
0.0075645375
0.0073953535
0.0072359692
0.0070876509
0.0069497421
0.0068197504
0.0066988067
0.0065863579
0.0064802269
0.0063818584
0.0062906018
0.0062048262
0.0061259166
0.0060525642
0.0059834539
0.0059195734
0.0058596763
0.0058025231
0.0057494981
0.005699304
0.0056514934
0.0056063545
0.0055632821
0.0055225841
0.0054840153
0.0054477923
0.0054135021
0.0053812245
0.0053507046
0.0053221815
0.0052955149
0.0052704111
0.0052470595
0.0052253547
0.0052050902
0.0051860021
0.0051682942
0.005151622
0.0051357908
0.0051208366
0.0051065701
0.0050928749
0.005079942
0.0050679681
0.0050568452
0.0050465228
0.0050368953
0.00502787
0.0050193842
0.0050114554
0.0050041994
0.0049976466
0.0049916603
0.0049863154
0.0049816111
0.0049774537
0.0049740214
0.0049711152
0.0049691007
0.0049671817
0.0049670204
0.064814474
0.067402146
0.069974508
0.072523446
0.075046174
0.077535143
0.079981717
0.082377491
0.084714042
0.086982684
0.089174369
0.09127961
0.093288384
0.09519002
0.096973109
0.098625445
0.10013401
0.10148502
0.10266405
0.10365653
0.10444736
0.10502079
0.1053612
0.10545283
0.10527973
0.1048259
0.1040753
0.10301206
0.10162075
0.099886627
0.097796078
0.095337102
0.092499914
0.089277695
0.085667484
0.081671251
0.077297392
0.072562558
0.067486558
0.062111407
0.05649467
0.050697534
0.044809221
0.038945049
0.033251823
0.027921255
0.023193332
0.019322135
0.016463244
0.014544264
0.013301506
0.01245619
0.01182055
0.011297041
0.010840216
0.010428879
0.010052263
0.0097056152
0.0093849352
0.0090879215
0.0088138525
0.0085594381
0.008323313
0.0081040133
0.0078997782
0.0077080468
0.0075292059
0.0073629978
0.0072062526
0.0070605337
0.0069250488
0.0067971904
0.0066782983
0.0065677422
0.0064632613
0.0063664695
0.0062766397
0.0061921029
0.0061143842
0.0060420573
0.0059738556
0.0059107922
0.0058516357
0.0057951703
0.0057426486
0.0056929736
0.0056456219
0.0056007967
0.0055580234
0.0055176622
0.0054793504
0.0054434094
0.0054094527
0.0053774755
0.005347257
0.0053189995
0.0052925942
0.0052677076
0.005244597
0.005223116
0.0052030203
0.0051841015
0.0051665839
0.0051500723
0.0051343631
0.0051195405
0.0051053665
0.0050917349
0.0050788594
0.0050669283
0.0050558416
0.0050455689
0.0050360089
0.0050270462
0.0050186099
0.0050107229
0.0050035004
0.0049969745
0.004991013
0.0049856888
0.0049810046
0.0049768655
0.0049734471
0.0049705558
0.0049685493
0.0049666371
0.0049664795
0.070085014
0.072471145
0.074861953
0.077229951
0.079571417
0.081878557
0.0841426
0.086354936
0.088506925
0.090589673
0.092593929
0.09451001
0.096327704
0.098036185
0.099623929
0.10107867
0.10238739
0.10353634
0.10451119
0.10529744
0.10588004
0.10624322
0.10637137
0.10624874
0.10585949
0.10518774
0.10421775
0.10293405
0.10132174
0.099366799
0.09705652
0.094380057
0.091329063
0.087898486
0.084087516
0.079900724
0.075349732
0.070454434
0.065239609
0.05975436
0.05406072
0.048226419
0.042351128
0.036560917
0.03101756
0.025929872
0.021546938
0.018095809
0.015648113
0.014040285
0.012985864
0.012240359
0.011655998
0.011161182
0.010722876
0.01032501
0.0099592033
0.0096219331
0.0093093979
0.0090196549
0.008752323
0.008503544
0.0082723472
0.0080576029
0.0078574435
0.0076692884
0.0074936968
0.0073305379
0.007176499
0.0070334565
0.0069004526
0.0067747684
0.0066579683
0.0065493284
0.006446508
0.0063512981
0.0062628887
0.0061795768
0.0061030262
0.0060317015
0.0059643908
0.0059021058
0.0058436713
0.00578791
0.0057358533
0.0056866771
0.0056397928
0.0055952731
0.005552796
0.0055127858
0.0054747441
0.0054390741
0.0054054578
0.005373789
0.0053438726
0.0053158804
0.005289732
0.0052650593
0.005242187
0.0052209223
0.0052009858
0.0051822333
0.0051648999
0.0051485411
0.0051329512
0.0051182542
0.00510417
0.0050906017
0.0050777823
0.0050658924
0.0050548384
0.0050446139
0.0050351207
0.0050262177
0.00501783
0.0050099847
0.0050027952
0.0049962951
0.0049903577
0.0049850535
0.0049803888
0.0049762679
0.0049728628
0.0049699859
0.0049679875
0.0049660817
0.0049659277
0.075321038
0.077504785
0.079709483
0.081891758
0.084046872
0.086166867
0.088242919
0.090266247
0.09222799
0.094119032
0.095929911
0.097650744
0.099271145
0.10078015
0.10216613
0.10341678
0.1045191
0.10545941
0.10622345
0.10679681
0.10716452
0.10731087
0.10722031
0.10687714
0.10626568
0.10537028
0.10417553
0.10266644
0.10082873
0.098649201
0.096116204
0.093220195
0.089954447
0.086315892
0.082306124
0.077932637
0.073210708
0.068162826
0.062820906
0.057241647
0.051490185
0.045642977
0.039810926
0.03413242
0.028785783
0.023995927
0.020010079
0.017003072
0.014947121
0.013608151
0.012706387
0.012040276
0.011497512
0.011027351
0.010605966
0.010220899
0.0098656548
0.0095377067
0.0092332777
0.0089507859
0.0086901858
0.0084470009
0.0082206981
0.0080105048
0.0078144388
0.0076298744
0.0074575869
0.0072975344
0.0071462497
0.0070059373
0.006875453
0.0067519744
0.0066373062
0.0065306058
0.0064294625
0.0063358521
0.00624887
0.006166785
0.0060913982
0.006021073
0.0059546571
0.0058931338
0.0058354248
0.0057804072
0.0057288031
0.0056801212
0.0056337317
0.0055895317
0.0055473653
0.0055077314
0.0054699889
0.0054345925
0.005401334
0.0053699938
0.005340391
0.0053126778
0.0052867943
0.0052623437
0.0052397172
0.0052186711
0.0051988951
0.0051803155
0.0051631675
0.0051469615
0.0051314964
0.0051169247
0.0051029332
0.005089434
0.0050766741
0.005064828
0.0050538073
0.0050436328
0.0050342087
0.0050253653
0.0050170282
0.0050092274
0.0050020726
0.0049955994
0.004989687
0.0049844035
0.0049797592
0.0049756577
0.0049722661
0.0049694039
0.0049674139
0.0049655149
0.0049653648
0.080481728
0.082469092
0.084483909
0.086476692
0.088441433
0.090369946
0.092253357
0.094082753
0.095849084
0.097543045
0.099154988
0.10067486
0.10209212
0.10339568
0.10457386
0.10561432
0.10650408
0.10722954
0.10777651
0.10813072
0.10827729
0.10820062
0.10788525
0.10731567
0.10647637
0.10535202
0.10392762
0.10218873
0.10012184
0.097714675
0.094956782
0.091840102
0.088359734
0.084514835
0.080309678
0.075755054
0.070870458
0.065680077
0.060225724
0.0545718
0.04878499
0.042953734
0.037200786
0.031678753
0.02658353
0.022151602
0.018609465
0.016052181
0.014352062
0.013236357
0.012455455
0.011852215
0.011343514
0.010894958
0.010489296
0.010116504
0.0097716421
0.0094529888
0.0091566365
0.0088813899
0.0086275101
0.0083898899
0.0081684844
0.0079628602
0.0077709138
0.0075899644
0.0074210628
0.0072641953
0.0071157289
0.0069782082
0.0068502872
0.0067290502
0.0066165542
0.0065118118
0.0064123572
0.0063203567
0.0062347975
0.0061539321
0.0060796907
0.0060103535
0.0059448295
0.0058840424
0.0058270529
0.0057728111
0.0057216448
0.0056734397
0.0056275615
0.0055836952
0.0055418502
0.0055026066
0.0054651908
0.005430068
0.0053971764
0.0053661793
0.0053368942
0.0053094688
0.0052838515
0.0052596261
0.005237246
0.005216414
0.0051967954
0.0051783914
0.0051614238
0.0051453657
0.0051300284
0.0051155775
0.0051016785
0.0050882525
0.0050755531
0.0050637511
0.005052763
0.0050426386
0.0050332838
0.0050244983
0.0050162124
0.0050084575
0.005001338
0.0049948915
0.0049890046
0.0049837417
0.0049791176
0.0049750362
0.0049716578
0.0049688103
0.0049668289
0.0049649366
0.0049647907
0.085530537
0.087324747
0.089148662
0.090949686
0.092721114
0.094454706
0.0961416
0.097772803
0.099339144
0.10083118
0.10223911
0.10355277
0.10476149
0.10585411
0.1068189
0.1076435
0.10831497
0.1088198
0.1091439
0.10927315
0.10919279
0.10888737
0.10834162
0.10754023
0.10646799
0.10510994
0.10345161
0.10147923
0.099180137
0.096543159
0.093559197
0.090221876
0.086528357
0.082480288
0.078084925
0.073356716
0.068319588
0.063001102
0.057452667
0.05174552
0.045950774
0.040170231
0.034539257
0.029226796
0.02444556
0.020432846
0.017367272
0.015242667
0.013850178
0.012913274
0.012226455
0.011673179
0.011192786
0.010763572
0.010372735
0.010011794
0.0096771779
0.0093677981
0.0090794843
0.0088114752
0.0085642805
0.0083321882
0.0081156993
0.0079146614
0.0077268448
0.0075495246
0.0073840931
0.0072304871
0.0070848981
0.0069502188
0.0068248931
0.0067059262
0.0065956352
0.0064928604
0.0063951008
0.0063047169
0.0062205711
0.0061409175
0.0060678003
0.0059994419
0.0059348128
0.0058747427
0.0058184697
0.0057650357
0.0057143071
0.0056665624
0.0056212113
0.0055777049
0.0055361994
0.0054973565
0.0054603001
0.0054254581
0.0053929422
0.0053623039
0.0053333418
0.0053062168
0.0052808698
0.0052568756
0.0052347438
0.0052141229
0.005194662
0.005176439
0.0051596476
0.0051437343
0.0051285309
0.0051141977
0.0051003918
0.0050870453
0.0050744089
0.0050626524
0.0050516977
0.0050416245
0.0050323396
0.0050236111
0.0050153777
0.0050076712
0.005000588
0.0049941688
0.004988308
0.0049830661
0.0049784627
0.0049744024
0.0049710371
0.0049682044
0.0049662319
0.0049643466
0.004964205
0.090428921
0.092032605
0.093665517
0.095273342
0.096849299
0.098385285
0.099872495
0.10130191
0.10266431
0.10395015
0.10514957
0.1062523
0.10724762
0.1081243
0.10887059
0.10947416
0.10992213
0.11020107
0.11029702
0.11019601
0.10988346
0.10934413
0.10856299
0.10752501
0.10621537
0.10461959
0.10272382
0.10051509
0.097981731
0.095113837
0.091903861
0.088347337
0.084443758
0.080197582
0.075619418
0.070727805
0.065551028
0.060122045
0.054502065
0.048767976
0.042998565
0.037310324
0.031852587
0.026812037
0.02241348
0.018875163
0.016296437
0.014565126
0.013426138
0.012628121
0.012013912
0.011500822
0.01104442
0.010632897
0.010256202
0.0099067647
0.0095822927
0.0092821666
0.0090018488
0.0087410764
0.0085005206
0.0082739221
0.0080623897
0.0078659612
0.0076822793
0.0075086101
0.007346741
0.0071964753
0.0070538265
0.0069220357
0.0067993346
0.0066826663
0.0065746084
0.006473805
0.0063777442
0.0062889795
0.006206231
0.0061277798
0.0060557579
0.0059883675
0.0059246403
0.0058652717
0.0058097087
0.0057571039
0.0057068256
0.005659523
0.0056147062
0.0055715937
0.0055304488
0.0054920081
0.0054553442
0.0054207953
0.0053886597
0.0053583926
0.0053297565
0.0053029433
0.0052778691
0.0052541109
0.0052322262
0.005211811
0.005192508
0.0051744704
0.005157848
0.0051420751
0.0051270115
0.0051127917
0.0050990783
0.0050858178
0.0050732461
0.0050615359
0.0050506157
0.0050405941
0.0050313788
0.0050227059
0.0050145262
0.0050068701
0.004999824
0.0049934321
0.0049875982
0.0049823774
0.0049777949
0.0049737565
0.0049704041
0.0049675862
0.0049656229
0.0049637446
0.0049636076
0.095136057
0.096551679
0.097993529
0.099407411
0.10078654
0.10212299
0.10340806
0.10463279
0.10578794
0.10686398
0.10785099
0.10873869
0.10951631
0.11017263
0.1106959
0.11107384
0.11129365
0.11134199
0.11120508
0.11086914
0.11031979
0.10954204
0.10852118
0.10724257
0.10569185
0.10385515
0.10171936
0.099272449
0.096503926
0.093405327
0.089970882
0.086198301
0.082089716
0.077652767
0.072901894
0.067860331
0.062559837
0.057041789
0.051378186
0.04564943
0.039945685
0.034399574
0.029176212
0.024479063
0.020533074
0.01750764
0.015397412
0.014003047
0.013064117
0.012371576
0.011813473
0.011333356
0.010897767
0.010502752
0.010139654
0.0098014272
0.009487027
0.0091961269
0.008923761
0.0086702305
0.0084362554
0.0082151196
0.0080085918
0.0078167932
0.0076372463
0.0074672629
0.0073090453
0.0071621877
0.0070225396
0.0068936772
0.0067736221
0.0066592771
0.0065534701
0.0064546335
0.0063602711
0.0062731219
0.0061917485
0.0061144907
0.0060435285
0.0059770948
0.005914284
0.0058556091
0.0058007471
0.0057489793
0.0056991812
0.0056523075
0.0056080252
0.0055653498
0.0055245918
0.0054865485
0.0054503102
0.0054160748
0.0053843218
0.0053544359
0.0053261285
0.0052996391
0.0052748408
0.005251324
0.0052296843
0.0052094695
0.0051903264
0.0051724791
0.0051560176
0.0051403814
0.0051254647
0.0051113546
0.005097733
0.0050845658
0.0050720613
0.0050603983
0.0050495149
0.0050395455
0.0050303989
0.005021781
0.005013656
0.0050060529
0.0049990448
0.0049926802
0.0049868742
0.004981675
0.0049771136
0.0049730979
0.0049697585
0.0049669552
0.0049650015
0.0049631305
0.0049629981
0.099608123
0.10083813
0.10208936
0.10330917
0.10449077
0.10562643
0.10670761
0.10772542
0.10867072
0.10953399
0.11030536
0.11097456
0.11153084
0.11196301
0.11225937
0.11240771
0.11239533
0.11220904
0.11183523
0.11126035
0.11047029
0.10945039
0.10818631
0.10666388
0.10486935
0.10278956
0.10041229
0.097726633
0.094723447
0.091395944
0.087740389
0.083756961
0.079450779
0.074833092
0.069922746
0.064748564
0.059344214
0.05376392
0.048090774
0.042406214
0.036817169
0.031473202
0.026556259
0.022280636
0.018848773
0.016346379
0.014657802
0.013535981
0.01274945
0.01213604
0.011621826
0.011169433
0.010752417
0.010373065
0.010023069
0.0096958078
0.0093914339
0.0091097157
0.008845267
0.0085989917
0.0083715198
0.0081558243
0.0079543519
0.0077671978
0.0075917904
0.0074255509
0.0072710672
0.0071276686
0.0069910821
0.0068651823
0.0067477885
0.00663579
0.0065322403
0.0064353589
0.0063426927
0.0062571486
0.0061771236
0.0061010528
0.0060311078
0.0059656176
0.0059037473
0.0058457666
0.0057915919
0.0057406514
0.0056913797
0.0056449303
0.0056011747
0.0055589854
0.005518644
0.0054809879
0.0054452058
0.0054113112
0.0053799405
0.005350442
0.0053224658
0.0052963106
0.0052717907
0.0052485204
0.0052271218
0.0052071013
0.0051881211
0.0051704677
0.0051541576
0.0051386546
0.0051238918
0.005109888
0.0050963568
0.00508329
0.0050708555
0.0050592403
0.0050483966
0.0050384798
0.0050294003
0.0050208368
0.0050127678
0.0050052198
0.0049982505
0.004991913
0.004986136
0.0049809589
0.0049764187
0.0049724263
0.0049691
0.0049663115
0.0049643676
0.0049625039
0.0049623764
0.1037992
0.10484607
0.10590752
0.10693358
0.1079175
0.10885171
0.10972784
0.11053718
0.11127066
0.11191889
0.11247208
0.11292
0.113252
0.11345693
0.11352318
0.11343864
0.11319076
0.11276652
0.11215253
0.11133551
0.11030169
0.10903677
0.1075269
0.10575852
0.10371855
0.10139472
0.098775868
0.095852397
0.092616753
0.089064075
0.08519296
0.081006399
0.076512896
0.07172777
0.066674858
0.061389051
0.05590807
0.050299276
0.044655043
0.039062556
0.033648246
0.028578416
0.024050197
0.020273771
0.017395199
0.015389912
0.014055267
0.013142922
0.012469612
0.011915633
0.01143657
0.011008005
0.010608203
0.010243871
0.0099064081
0.0095899362
0.0092955785
0.009022966
0.0087664323
0.0085274412
0.008306346
0.0080960845
0.0078997225
0.0077172149
0.007545957
0.0073835476
0.0072328688
0.0070929557
0.0069594925
0.0068365806
0.0067218541
0.0066122238
0.0065109224
0.0064159769
0.0063250031
0.006241045
0.0061623384
0.0060874525
0.0060184781
0.0059539147
0.0058930187
0.0058357423
0.0057822356
0.0057320954
0.0056834113
0.0056373953
0.0055941534
0.0055525008
0.0055126081
0.0054753279
0.0054400279
0.0054065088
0.0053755184
0.0053464093
0.005318768
0.0052929549
0.0052687157
0.0052456975
0.0052245348
0.0052047034
0.0051858902
0.0051684328
0.0051522644
0.0051368924
0.0051222896
0.0051083898
0.005094948
0.0050819881
0.005069627
0.0050580604
0.0050472602
0.0050373962
0.0050283818
0.0050198727
0.0050118608
0.0050043701
0.0049974406
0.00499113
0.0049853831
0.0049802289
0.0049757098
0.0049717414
0.0049684283
0.0049656546
0.0049637208
0.0049618647
0.0049617421
0.10766132
0.10852748
0.10940031
0.11023335
0.11101987
0.11175246
0.11242298
0.11302287
0.11354326
0.11397487
0.11430803
0.11453264
0.11463813
0.11461347
0.11444717
0.11412728
0.11364138
0.1129767
0.11212011
0.11105865
0.10977895
0.10826719
0.1065101
0.1044948
0.10220909
0.099641731
0.096782826
0.093624301
0.090160458
0.086388668
0.082310208
0.077931283
0.07326425
0.068329079
0.063155303
0.057783993
0.052259671
0.046663736
0.041096031
0.035654799
0.030487569
0.025776409
0.021724887
0.018511284
0.01618793
0.014619175
0.01356256
0.012805015
0.012214505
0.01170607
0.011256068
0.010848152
0.010465259
0.010115273
0.0097895529
0.0094838471
0.0091995429
0.0089358951
0.0086873522
0.008455703
0.0082407486
0.0080359539
0.0078447741
0.007666889
0.0074997936
0.0073413329
0.0071945193
0.0070580889
0.0069278153
0.0068079044
0.0066958393
0.0065885997
0.0064895207
0.0063964842
0.0063071992
0.0062247987
0.0061473795
0.0060736818
0.0060056331
0.0059419744
0.0058820926
0.0058255408
0.0057726777
0.0057232979
0.0056752721
0.005629715
0.0055869722
0.0055459019
0.0055064901
0.005469579
0.00543478
0.0054016756
0.005371063
0.0053423412
0.0053150399
0.0052895733
0.0052656166
0.0052428564
0.0052219232
0.0052022763
0.0051836349
0.0051663735
0.0051503371
0.005135095
0.0051206567
0.0051068599
0.0050935065
0.005080659
0.0050683755
0.0050568584
0.0050461058
0.005036295
0.0050273429
0.0050188888
0.005010935
0.0050035035
0.0049966148
0.0049903306
0.0049846151
0.0049794851
0.0049749869
0.0049710426
0.0049677432
0.0049649845
0.004963061
0.0049612126
0.0049610951
0.11114411
0.1118321
0.11251777
0.11315884
0.11374862
0.11427991
0.11474477
0.11513486
0.1154415
0.1156556
0.11576765
0.11576767
0.11564524
0.11538947
0.11498903
0.11443214
0.11370661
0.11279993
0.1116993
0.11039215
0.10886557
0.10710634
0.10510188
0.10284015
0.10030997
0.097501335
0.094405843
0.091017215
0.087331918
0.083349911
0.079075561
0.074518752
0.069696254
0.064633442
0.059366507
0.053941561
0.048414695
0.042883331
0.037451005
0.032233708
0.027399716
0.023142083
0.019649435
0.017029256
0.015218032
0.014002571
0.01315277
0.012507172
0.011976228
0.011504532
0.011079137
0.010689025
0.010323993
0.0099872399
0.0096722947
0.0093776505
0.00910345
0.0088485024
0.0086081703
0.008383927
0.0081746979
0.0079755068
0.0077896101
0.0076162595
0.0074533386
0.0072989925
0.0071560914
0.0070231015
0.0068960951
0.0067791828
0.0066697547
0.0065649311
0.0064680314
0.0063768684
0.0062892709
0.006208389
0.0061322268
0.0060597251
0.0059925686
0.0059297866
0.005870955
0.005815159
0.005762914
0.0057142503
0.0056669562
0.0056218987
0.0055796443
0.0055391901
0.0055002891
0.0054637513
0.0054294638
0.0053968148
0.0053665781
0.0053382382
0.0053112843
0.0052861635
0.0052624907
0.005239995
0.0052192843
0.0051998189
0.0051813551
0.0051642862
0.0051483732
0.0051332619
0.0051189902
0.0051052965
0.005092032
0.0050793009
0.0050670998
0.0050556337
0.005044933
0.0050351759
0.0050262832
0.005017885
0.0050099904
0.0050026193
0.0049957727
0.0049895146
0.0049838316
0.0049787272
0.0049742497
0.0049703297
0.0049670445
0.0049643009
0.0049623878
0.0049605475
0.004960435
0.11419485
0.11470728
0.11520751
0.11565796
0.11605207
0.11638281
0.1166425
0.11682305
0.116916
0.11691245
0.11680307
0.11657805
0.11622715
0.11573964
0.11510439
0.11430983
0.11334405
0.11219487
0.11084987
0.10929697
0.10752382
0.10551789
0.10326744
0.10076146
0.097989953
0.09494439
0.091618131
0.088007009
0.084110021
0.079930141
0.07547531
0.070759629
0.065804917
0.060642901
0.05531787
0.049878381
0.044400926
0.038997803
0.033772473
0.028867596
0.024466611
0.020758918
0.017881309
0.015835127
0.014454422
0.013503936
0.012803205
0.012238307
0.011748667
0.011309093
0.010904737
0.010530151
0.010184659
0.0098594867
0.0095547091
0.0092717056
0.0090074969
0.0087608175
0.0085290914
0.0083121706
0.0081081065
0.007914881
0.0077343674
0.0075653442
0.0074066202
0.0072566314
0.0071176622
0.0069880097
0.0068643794
0.0067504451
0.0066435983
0.0065412252
0.0064464482
0.0063571117
0.0062712058
0.006191793
0.0061168598
0.0060455641
0.005979289
0.0059173519
0.0058595873
0.0058045901
0.0057529439
0.0057049572
0.0056584633
0.005613957
0.0055721889
0.0055323672
0.0054940028
0.0054578597
0.0054240844
0.0053919287
0.0053620683
0.0053341023
0.0053075051
0.0052827243
0.0052593359
0.0052371126
0.005216616
0.0051973311
0.0051790516
0.0051621679
0.0051463716
0.0051313939
0.0051172874
0.0051036984
0.0050905249
0.0050779119
0.005065799
0.0050543861
0.0050437415
0.0050340386
0.0050252023
0.0050168612
0.0050090269
0.005001717
0.0049949136
0.0049886815
0.0049830321
0.004977955
0.0049734979
0.0049696021
0.0049663319
0.0049636035
0.004961701
0.004959869
0.0049597616
0.11675795
0.11709766
0.11741448
0.11767609
0.117876
0.11800747
0.11806309
0.11803505
0.11791509
0.11769456
0.1173643
0.11691471
0.11633571
0.11561681
0.11474708
0.11371525
0.11250975
0.11111877
0.10953037
0.10773304
0.10571513
0.10346493
0.10097172
0.098225663
0.095218234
0.091942622
0.088394266
0.084571492
0.080476264
0.076115088
0.071500059
0.066650136
0.061592909
0.056367461
0.051026758
0.045626021
0.040263493
0.035061422
0.030133083
0.025645571
0.021784622
0.018705191
0.016448509
0.014904151
0.013853524
0.01309041
0.012496498
0.011989114
0.011530722
0.011115059
0.010731354
0.010374979
0.010042821
0.0097309947
0.0094392092
0.0091668293
0.0089119073
0.0086730284
0.0084502009
0.0082402551
0.0080410039
0.0078543252
0.0076791485
0.0075141438
0.0073596844
0.0072143831
0.0070792941
0.0069528056
0.0068327275
0.0067217168
0.0066173472
0.0065174827
0.0064247611
0.0063371865
0.0062529878
0.0061749854
0.0061012551
0.0060311741
0.0059658004
0.00590468
0.0058479628
0.0057938186
0.0057427713
0.0056954348
0.0056497968
0.0056058971
0.0055646255
0.0055254333
0.0054876266
0.0054519197
0.0054186477
0.0053870151
0.0053575361
0.005329935
0.0053037049
0.0052792528
0.0052561489
0.0052342076
0.0052139158
0.0051948121
0.0051767246
0.0051600144
0.0051443307
0.0051294914
0.005115545
0.0051020634
0.0050889852
0.0050764903
0.0050644719
0.0050531154
0.0050425308
0.0050328831
0.0050240999
0.0050158174
0.0050080446
0.0050007958
0.004994037
0.0049878313
0.0049822163
0.0049771685
0.0049727314
0.0049688595
0.0049656052
0.0049628921
0.0049610003
0.0049591769
0.0049590745
0.11877576
0.11894561
0.11908134
0.1191562
0.11916391
0.11909796
0.1189513
0.11871635
0.11838512
0.11794915
0.1173995
0.11672676
0.11592108
0.1149722
0.11386949
0.11260201
0.11115857
0.10952787
0.10769854
0.10565974
0.10340066
0.1009106
0.098180022
0.09520053
0.091965311
0.088469607
0.084711315
0.080691698
0.076416225
0.071895557
0.067146677
0.06219422
0.057072517
0.051829268
0.046525165
0.041229817
0.036064618
0.031154264
0.026631331
0.02267665
0.019451831
0.017031118
0.015337672
0.014188067
0.013370604
0.012741717
0.012216021
0.011744228
0.011317991
0.010925991
0.01056132
0.010220943
0.0099026485
0.00960395
0.0093240445
0.0090621537
0.0088167615
0.0085866184
0.0083704854
0.0081663213
0.0079743229
0.0077944072
0.0076239259
0.0074627713
0.0073126811
0.0071723752
0.0070409809
0.0069174888
0.0068012209
0.0066930012
0.0065909587
0.0064937052
0.0064029571
0.0063170527
0.0062346009
0.0061579436
0.0060853886
0.0060165294
0.0059521055