/*--------------------------------*- C++ -*----------------------------------*\
| =========                 |                                                 |
| \\      /  F ield         | OpenFOAM: The Open Source CFD Toolbox           |
|  \\    /   O peration     | Version:  2406                                  |
|   \\  /    A nd           | Website:  www.openfoam.com                      |
|    \\/     M anipulation  |                                                 |
\*---------------------------------------------------------------------------*/
FoamFile
{
    version     2.0;
    format      ascii;
    arch        "LSB;label=32;scalar=64";
    class       volScalarField;
    location    "0.013";
    object      Ma;
}
// * * * * * * * * * * * * * * * * * * * * * * * * * * * * * * * * * * * * * //

dimensions      [0 0 0 0 0 0 0];

internalField   nonuniform List<scalar> 
23203
(
0.1471484
0.14783152
0.14842593
0.14898943
0.14949663
0.14993718
0.15031292
0.15062848
0.15088878
0.15109635
0.15125179
0.15136186
0.15143164
0.15147178
0.1514783
0.15146865
0.15145647
0.15143371
0.15140032
0.14365857
0.14447104
0.14527615
0.14601465
0.14668393
0.14728296
0.14781373
0.14827918
0.14868278
0.14902701
0.14931464
0.14955237
0.14974619
0.14990268
0.1500272
0.15012608
0.15020605
0.15026975
0.15031768
0.13986262
0.14087966
0.14191193
0.14285729
0.14371645
0.14449391
0.14519427
0.14582133
0.14637884
0.14687023
0.14729942
0.14767223
0.14799465
0.14827272
0.14851245
0.14871893
0.14889822
0.14905378
0.14918775
0.1364242
0.1376229
0.13883056
0.13994376
0.1409626
0.14189232
0.14273845
0.14350539
0.14419729
0.14481825
0.14537269
0.14586597
0.14630376
0.1466918
0.14703574
0.14734077
0.14761227
0.14785403
0.14806912
0.1333488
0.13467936
0.13601436
0.13725655
0.138404
0.13946023
0.14042996
0.14131731
0.14212634
0.14286125
0.14352658
0.14412736
0.14466888
0.14515655
0.14559566
0.14599126
0.14634825
0.14667068
0.1469621
0.13059309
0.13202445
0.13345343
0.13479352
0.13604181
0.13720003
0.13827165
0.1392601
0.14016902
0.14100237
0.14176443
0.14245987
0.14309357
0.14367054
0.14419571
0.14467388
0.14510961
0.14550704
0.14586989
0.12814262
0.1296471
0.13114318
0.1325551
0.13387964
0.13511711
0.13626987
0.13734058
0.13833229
0.13924851
0.14009312
0.14087032
0.14158454
0.14224035
0.14284228
0.14339481
0.14390223
0.14436856
0.14479757
0.12598228
0.12753544
0.12907574
0.13053708
0.13191616
0.13321228
0.13442691
0.13556202
0.13662008
0.13760406
0.13851735
0.13936364
0.14014688
0.14087114
0.14154054
0.14215917
0.14273102
0.14325991
0.1437495
0.12409478
0.12567602
0.12724107
0.12873239
0.13014683
0.13148306
0.13274193
0.13392486
0.13503381
0.13607122
0.13703994
0.13794315
0.13878425
0.13956683
0.14029454
0.14097107
0.14160005
0.14218503
0.14272947
0.12246349
0.12405537
0.12562822
0.12713237
0.12856505
0.12992473
0.13121187
0.13242748
0.13357305
0.13465054
0.13566225
0.13661085
0.13749919
0.13833035
0.1391075
0.13983389
0.14051277
0.14114736
0.14174085
0.12107211
0.12265937
0.1242249
0.12572648
0.12716214
0.12853043
0.12983157
0.13106626
0.13223555
0.13334094
0.13438421
0.13536749
0.13629312
0.13716365
0.13798176
0.13875025
0.13947197
0.14014977
0.14078652
0.11990346
0.12147141
0.12301601
0.12450157
0.12592702
0.12729112
0.12859394
0.12983583
0.13101749
0.13213992
0.13320444
0.13421265
0.13516639
0.1360677
0.13691879
0.137722
0.13847976
0.13919455
0.13986889
0.11893507
0.12047036
0.12198294
0.12344181
0.12484653
0.12619608
0.12749038
0.12872951
0.1299138
0.13104383
0.13212049
0.1331449
0.13411843
0.13504266
0.13591931
0.13675031
0.13753765
0.13828345
0.13898986
0.1181418
0.11963433
0.12110668
0.12253099
0.12390705
0.12523402
0.12651166
0.12773985
0.12891861
0.1300482
0.13112909
0.13216202
0.13314791
0.13408791
0.13498334
0.13583568
0.13664656
0.1374177
0.13815091
0.11750224
0.11894487
0.12037087
0.12175466
0.123096
0.12439409
0.1256486
0.12685921
0.12802571
0.12914805
0.13022641
0.13126116
0.13225285
0.13320225
0.13411029
0.13497809
0.13580688
0.13659805
0.13735306
0.11699869
0.11838644
0.11976145
0.12110009
0.12240195
0.12366623
0.12489243
0.12608009
0.12722877
0.1283382
0.12940828
0.13043908
0.13143083
0.13238398
0.13329911
0.13417699
0.13501854
0.13582479
0.13659691
0.11661531
0.11794496
0.11926564
0.12055565
0.12181439
0.12304099
0.12423481
0.12539519
0.12652153
0.12761335
0.12867031
0.12969223
0.13067908
0.13163101
0.13254831
0.13343146
0.13428107
0.13509786
0.13588272
0.11633747
0.1176071
0.11887136
0.12011038
0.12132341
0.12250948
0.12366778
0.1247975
0.12589787
0.12696823
0.12800804
0.12901691
0.12999458
0.13094097
0.13185611
0.13274022
0.13359363
0.13441683
0.13521039
0.11615169
0.11736063
0.11856745
0.11975413
0.12091979
0.12206333
0.12318383
0.1242803
0.12535184
0.12639762
0.12741696
0.12840928
0.12937415
0.13031125
0.13122044
0.13210169
0.13295511
0.13378095
0.13457954
0.11604556
0.11719417
0.11834372
0.11947758
0.12059497
0.12169475
0.12277585
0.12383718
0.12487768
0.12589644
0.12689261
0.12786548
0.12881447
0.1297391
0.13063904
0.13151408
0.13236414
0.13318924
0.13398952
0.11600701
0.11709614
0.11818987
0.11927171
0.12034084
0.12139632
0.12243709
0.12346197
0.12446984
0.12545968
0.12643054
0.12738161
0.12831218
0.12922163
0.1301095
0.13097541
0.13181912
0.13264047
0.13343944
0.11602829
0.11705857
0.11809698
0.11912817
0.1201498
0.12116107
0.12216111
0.12314879
0.12412294
0.12508248
0.12602639
0.12695378
0.12786383
0.12875586
0.12962925
0.13048352
0.13131829
0.13213325
0.13292822
0.11610089
0.11707492
0.11805861
0.11903945
0.1200148
0.12098243
0.12194184
0.12289201
0.1238318
0.12476009
0.12567585
0.1265781
0.12746599
0.12833873
0.12919565
0.13003615
0.13085974
0.13166599
0.13245459
0.11621518
0.11713658
0.11806824
0.11899951
0.11992886
0.12085411
0.12177344
0.12268623
0.12359141
0.12448792
0.12537468
0.12625074
0.12711518
0.12796717
0.12880598
0.12963093
0.13044144
0.13123698
0.13201713
0.11636448
0.11723581
0.11811857
0.11900254
0.1198871
0.12077046
0.12165064
0.1225264
0.12339701
0.12426146
0.12511874
0.12596787
0.12680793
0.12763806
0.12845746
0.12926541
0.13006126
0.13084441
0.13161433
0.11654301
0.11736695
0.11820314
0.11904225
0.11988334
0.12072577
0.12156766
0.12240725
0.12324369
0.12407621
0.12490387
0.1257257
0.12654079
0.12734826
0.12814728
0.1289371
0.129717
0.13048635
0.13124454
0.11674433
0.11752357
0.11831577
0.1191125
0.11991227
0.12071458
0.12151895
0.12232351
0.12312667
0.12392778
0.12472603
0.12552052
0.12631036
0.12709469
0.12787266
0.12864349
0.12940646
0.13016087
0.13090606
0.11696292
0.11770011
0.11845077
0.11920726
0.11996834
0.12073292
0.12150066
0.12227085
0.12304187
0.12381224
0.1245815
0.12534884
0.12611342
0.12687436
0.12763086
0.12838212
0.1291274
0.12986598
0.13059716
0.11719447
0.11789231
0.11860399
0.11932255
0.12004686
0.12077599
0.12150907
0.12224573
0.12298503
0.12372572
0.12446669
0.12520734
0.12594685
0.12668443
0.12741926
0.12815058
0.12887764
0.1295997
0.13031607
0.1174353
0.1180964
0.11877156
0.11945442
0.12014391
0.12083922
0.12153966
0.12224452
0.12295337
0.12366515
0.1243786
0.12509308
0.12580786
0.1265222
0.12723534
0.12794653
0.12865503
0.12936011
0.13006105
0.11768243
0.11830932
0.11895037
0.11959978
0.12025653
0.1209199
0.12158926
0.12226392
0.12294348
0.12362734
0.12431429
0.12500321
0.1256937
0.1263851
0.12707669
0.12776773
0.1284575
0.12914529
0.12983037
0.11793337
0.11852841
0.11913766
0.11975575
0.12038176
0.12101505
0.12165507
0.1223012
0.1229527
0.12360928
0.12427026
0.12493465
0.1256016
0.12627059
0.12694096
0.12761202
0.12828307
0.12895341
0.12962235
0.1181861
0.1187515
0.11933107
0.11991983
0.12051694
0.12112179
0.12173393
0.12235284
0.12297797
0.12360876
0.12424488
0.12488547
0.12552953
0.12617663
0.12682616
0.12747747
0.1281299
0.12878276
0.1294354
0.11843909
0.11897691
0.11952882
0.12009018
0.12066018
0.12123832
0.12182419
0.12241734
0.1230173
0.12362352
0.12423573
0.12485331
0.12547542
0.12610125
0.12673039
0.12736227
0.12799625
0.1286317
0.12926798
0.11869119
0.11920333
0.11972946
0.12026519
0.1208098
0.12136282
0.12192393
0.12249274
0.12306883
0.12365174
0.12424097
0.12483636
0.12543718
0.12604248
0.12665181
0.12726466
0.12788049
0.12849868
0.12911865
0.1189416
0.11942982
0.11993189
0.12044367
0.12096447
0.12149389
0.12203165
0.12257743
0.12313086
0.12369153
0.12425899
0.12483299
0.12541321
0.12599878
0.12658884
0.12718312
0.12778113
0.12838229
0.12898606
0.11918986
0.11965575
0.12013535
0.1206247
0.12112315
0.12163037
0.12214612
0.12267014
0.12320212
0.1237417
0.1242885
0.12484198
0.12540204
0.12596824
0.12653981
0.12711612
0.12769677
0.12828115
0.11943576
0.11988076
0.12033931
0.12080762
0.12128506
0.12177135
0.12226629
0.12276967
0.12328121
0.12380063
0.12432758
0.1248617
0.12540266
0.12595027
0.12650387
0.12706264
0.12762628
0.12819425
0.11967937
0.12010478
0.12054358
0.12099211
0.12144977
0.12191631
0.12239159
0.12287543
0.1233676
0.12386784
0.12437587
0.12489136
0.12541398
0.12594357
0.1264797
0.12702163
0.12756871
0.1281206
0.11992098
0.12032795
0.12074817
0.12117805
0.12161704
0.12206492
0.12252157
0.12298686
0.1234606
0.12394257
0.12443253
0.1249302
0.12543526
0.12594737
0.12646651
0.12699203
0.12752308
0.1280593
0.12016107
0.12055064
0.12095331
0.12136556
0.12178687
0.12221705
0.12265602
0.12310367
0.12355985
0.12402437
0.12449702
0.12497756
0.12546569
0.12596109
0.12646364
0.12697314
0.12748873
0.12800962
0.1204003
0.12077338
0.1211594
0.12155491
0.12195943
0.12237277
0.1227949
0.12322573
0.12366514
0.12411297
0.12456904
0.12503314
0.12550502
0.12598439
0.12647081
0.12696431
0.12746454
0.1279707
0.12063949
0.12099686
0.12136703
0.12174658
0.12213506
0.12253233
0.12293834
0.12335306
0.12377637
0.12420815
0.12464823
0.12509642
0.1255525
0.12601624
0.12648735
0.12696554
0.1274508
0.12794245
0.12087958
0.12122193
0.12157691
0.12194118
0.1223143
0.12269614
0.12308671
0.12348595
0.12389379
0.12431012
0.1247348
0.12516766
0.12560851
0.12605711
0.12651322
0.12697652
0.12744694
0.12792428
0.12112163
0.12144953
0.12178991
0.12213946
0.12249779
0.12286478
0.12324045
0.12362477
0.12401769
0.1244191
0.12482889
0.12524691
0.12567298
0.12610691
0.12654846
0.12699732
0.12745307
0.12791575
0.1213668
0.12168072
0.12200696
0.12234228
0.12268629
0.12303891
0.12340017
0.12377004
0.12414849
0.12453543
0.12493074
0.1253343
0.12574593
0.12616545
0.12659263
0.12702722
0.12746892
0.12791741
0.1216163
0.12191663
0.12222912
0.12255058
0.12288067
0.12321933
0.12356658
0.12392242
0.12428681
0.12465967
0.12504089
0.12543035
0.12582789
0.12623333
0.12664646
0.12706703
0.12749474
0.12792924
0.1218714
0.12215843
0.12245746
0.12276537
0.12308187
0.12340691
0.12374051
0.12408266
0.12443333
0.12479243
0.12515987
0.12553552
0.12591923
0.12631083
0.12671012
0.12711686
0.12753076
0.12795146
0.12213338
0.1224073
0.12269309
0.12298772
0.12329092
0.12360264
0.1239229
0.12425166
0.12458889
0.12493449
0.12528837
0.1256504
0.12602043
0.1263983
0.12678381
0.12717672
0.12757676
0.12798363
0.12240347
0.12266449
0.12293727
0.12321887
0.12350905
0.12380774
0.12411491
0.12443053
0.12475452
0.1250868
0.12542725
0.12577576
0.12613217
0.12649631
0.12686799
0.12724698
0.12763301
0.12802579
0.12268305
0.12293159
0.12319166
0.1234605
0.12373789
0.12402375
0.12431801
0.12462062
0.12493149
0.1252505
0.12557756
0.12591253
0.12625526
0.12660559
0.12696333
0.12732826
0.12770012
0.12807862
0.1229737
0.1232102
0.12345792
0.12371427
0.12397909
0.12425227
0.12453372
0.12482336
0.12512107
0.12542676
0.1257403
0.12606156
0.12639042
0.1267267
0.12707024
0.12742082
0.1277782
0.12814209
0.12327671
0.12350163
0.1237374
0.1239816
0.12423409
0.12449473
0.1247634
0.12504
0.12532442
0.12561655
0.12591629
0.12622353
0.12653815
0.12686
0.12718892
0.12752473
0.12786718
0.128216
0.12359316
0.12380738
0.12403187
0.12426432
0.12450467
0.12475277
0.12500849
0.12527176
0.12554248
0.12582059
0.12610602
0.12639868
0.12669849
0.12700531
0.12731902
0.12763944
0.12796635
0.12829947
0.12392481
0.12412965
0.12434364
0.1245646
0.12479265
0.12502777
0.12526998
0.12551924
0.12577555
0.1260389
0.12630926
0.12658658
0.12687081
0.12716186
0.12745959
0.12776386
0.12807444
0.12839105
0.12427476
0.12446987
0.12467313
0.12488223
0.12509739
0.12531883
0.12554672
0.12578117
0.12602225
0.12627001
0.12652449
0.12678568
0.12705355
0.12732804
0.12760905
0.12789643
0.12818996
0.12848935
0.12464372
0.1248272
0.12501832
0.12521447
0.12541586
0.12562281
0.12583564
0.12605454
0.12627967
0.12651115
0.12674905
0.12699339
0.12724419
0.12750139
0.12776492
0.12803463
0.12831032
0.1285917
0.12503115
0.12520123
0.12537828
0.12555979
0.12574597
0.12593725
0.12613401
0.12633653
0.12654498
0.12675949
0.12698015
0.12720698
0.12743999
0.12767914
0.12792433
0.12817545
0.12843229
0.12869458
0.12543777
0.12559013
0.12574987
0.12591447
0.12608388
0.1262584
0.12643834
0.12662389
0.12681518
0.12701227
0.1272152
0.12742397
0.12763854
0.12785884
0.12808477
0.12831617
0.12855287
0.12879465
0.12585931
0.12599101
0.12613091
0.12627687
0.12642843
0.12658549
0.12674809
0.12691626
0.12709
0.12726928
0.12745407
0.12764429
0.12783987
0.12804067
0.12824656
0.12845737
0.12867294
0.12889308
0.12629489
0.12640654
0.12652615
0.12665259
0.12678524
0.12692371
0.12706783
0.12721747
0.12737252
0.12753284
0.12769832
0.12786878
0.12804404
0.12822385
0.12840788
0.12859577
0.12878708
0.12898135
0.1267523
0.12684644
0.1269456
0.12705113
0.12716305
0.12728101
0.12740467
0.1275338
0.12766823
0.12780781
0.1279524
0.12810182
0.12825583
0.12841413
0.12857628
0.12874167
0.12890945
0.12907833
0.12726148
0.12732491
0.12739475
0.12747615
0.12756717
0.12766447
0.12776582
0.12787183
0.12798282
0.12809888
0.12822001
0.12834616
0.12847722
0.12861306
0.12875348
0.12889818
0.12904669
0.12919827
0.12785398
0.12789276
0.12793245
0.12797987
0.12803755
0.12810301
0.12817479
0.12825241
0.12833574
0.12842464
0.128519
0.1286187
0.12872366
0.12883382
0.12894913
0.12906958
0.12919525
0.12932644
0.12840353
0.12843692
0.12846385
0.12850153
0.1285479
0.12859989
0.12865698
0.12871933
0.12878709
0.12886032
0.12893902
0.12902324
0.12911299
0.12920831
0.12930918
0.12941556
0.12952735
0.12964449
0.12879643
0.12884946
0.12890261
0.1289558
0.12901015
0.12906695
0.12912711
0.12919113
0.12925932
0.12933191
0.12940905
0.1294909
0.12957762
0.12966935
0.12976623
0.12986839
0.12997595
0.13008901
0.12926369
0.12929586
0.12933384
0.129376
0.12942283
0.1294742
0.12952983
0.12958954
0.12965328
0.12972112
0.12979313
0.1298694
0.12995003
0.13003511
0.13012473
0.13021898
0.13031795
0.13042179
0.12966881
0.12971343
0.12976174
0.1298113
0.12986241
0.12991547
0.12997093
0.13002921
0.13009067
0.13015562
0.13022429
0.13029691
0.13037366
0.13045471
0.13054018
0.1306302
0.1307248
0.13082402
0.13009314
0.13012703
0.13016528
0.1302064
0.13025095
0.13029912
0.13035089
0.13040619
0.13046496
0.13052719
0.13059289
0.13066214
0.130735
0.13081159
0.13089202
0.13097643
0.13106496
0.13115783
0.13047336
0.13051248
0.13055516
0.13059965
0.1306461
0.13069466
0.13074549
0.13079884
0.13085493
0.13091401
0.13097627
0.13104188
0.131111
0.13118374
0.13126021
0.13134049
0.13142465
0.13151276
0.1308513
0.130886
0.13092401
0.13096419
0.13100695
0.13105248
0.13110085
0.1311521
0.13120624
0.13126329
0.13132331
0.13138635
0.13145252
0.13152191
0.13159465
0.13167087
0.13175071
0.13183434
0.1312053
0.13124169
0.13128086
0.13132178
0.13136462
0.1314095
0.13145655
0.13150587
0.13155763
0.13161197
0.13166903
0.13172895
0.13179183
0.13185779
0.13192691
0.13199929
0.132075
0.13215417
0.13154789
0.13158225
0.13161919
0.13165796
0.1316988
0.13174187
0.13178724
0.13183497
0.13188512
0.13193776
0.13199295
0.13205077
0.1321113
0.13217465
0.1322409
0.13231018
0.1323826
0.13245827
0.1318765
0.13191111
0.13194791
0.13198629
0.13202641
0.13206839
0.1321123
0.13215824
0.1322063
0.1322566
0.13230924
0.13236432
0.13242194
0.1324822
0.13254518
0.13261099
0.13267971
0.13275145
0.13219161
0.13222502
0.13226048
0.13229752
0.13233632
0.13237698
0.13241959
0.1324642
0.13251088
0.13255969
0.13261072
0.13266403
0.1327197
0.13277781
0.13283846
0.13290172
0.13296769
0.13303647
0.13249724
0.13253033
0.13256519
0.13260144
0.13263924
0.13267868
0.13271983
0.13276277
0.13280757
0.13285432
0.13290311
0.13295401
0.13300712
0.13306251
0.13312028
0.1331805
0.13324327
0.13278998
0.13282212
0.13285591
0.1328911
0.13292782
0.13296614
0.13300614
0.13304786
0.13309139
0.13313677
0.13318408
0.13323337
0.13328473
0.13333823
0.13339393
0.13345191
0.13351226
0.13307521
0.13310676
0.13313977
0.13317406
0.13320971
0.13324681
0.13328542
0.13332561
0.13336743
0.13341098
0.1334563
0.13350349
0.1335526
0.13360372
0.13365691
0.13371226
0.13376983
0.13334911
0.1333799
0.13341199
0.13344528
0.1334799
0.13351593
0.13355341
0.13359242
0.133633
0.13367522
0.13371912
0.13376478
0.13381225
0.13386159
0.13391288
0.13396618
0.13402155
0.13361633
0.13364648
0.13367771
0.13371004
0.13374358
0.13377841
0.13381459
0.13385218
0.13389123
0.1339318
0.13397395
0.13401774
0.13406323
0.13411048
0.13415957
0.13421055
0.1342635
0.13387425
0.13390341
0.13393367
0.13396502
0.13399756
0.13403135
0.13406644
0.13410287
0.13414069
0.13417996
0.13422072
0.13426302
0.13430693
0.1343525
0.13439979
0.13444885
0.13449976
0.13412585
0.13415417
0.13418352
0.1342139
0.13424538
0.13427802
0.13431188
0.13434699
0.1343834
0.13442116
0.13446033
0.13450095
0.13454309
0.13458679
0.13463211
0.13467912
0.13472787
0.13436932
0.13439677
0.13442521
0.13445463
0.13448511
0.1345167
0.13454945
0.13458339
0.13461858
0.13465504
0.13469284
0.13473201
0.13477261
0.13481469
0.1348583
0.13490349
0.13495033
0.1346068
0.13463339
0.13466091
0.13468936
0.1347188
0.1347493
0.13478087
0.13481358
0.13484745
0.13488253
0.13491887
0.13495651
0.13499551
0.1350359
0.13507773
0.13512107
0.13516596
0.13483727
0.13486299
0.13488961
0.13491711
0.13494556
0.13497501
0.13500549
0.13503704
0.13506971
0.13510352
0.13513852
0.13517476
0.13521227
0.1352511
0.13529131
0.13533293
0.13537602
0.13506199
0.13508685
0.13511255
0.13513909
0.13516653
0.13519492
0.13522428
0.13525466
0.13528609
0.13531861
0.13535226
0.13538708
0.1354231
0.13546039
0.13549897
0.1355389
0.13558022
0.1352805
0.13530449
0.1353293
0.1353549
0.13538136
0.13540872
0.13543701
0.13546627
0.13549653
0.13552781
0.13556017
0.13559364
0.13562826
0.13566407
0.13570111
0.13573942
0.13577905
0.13549347
0.13551661
0.13554051
0.13556518
0.13559066
0.135617
0.13564423
0.13567237
0.13570146
0.13573154
0.13576263
0.13579478
0.13582801
0.13586239
0.13589793
0.13593468
0.13597269
0.13570079
0.13572308
0.13574611
0.13576986
0.13579439
0.13581974
0.13584593
0.13587299
0.13590095
0.13592985
0.13595972
0.13599059
0.1360225
0.13605548
0.13608957
0.13612482
0.13616126
0.13590281
0.13592426
0.13594642
0.13596927
0.13599286
0.13601723
0.1360424
0.1360684
0.13609527
0.13612303
0.13615171
0.13618134
0.13621197
0.13624362
0.13627633
0.13631014
0.13634509
0.13609959
0.13612022
0.13614153
0.1361635
0.13618617
0.13620959
0.13623377
0.13625874
0.13628454
0.13631118
0.13633871
0.13636715
0.13639653
0.13642688
0.13645825
0.13649066
0.13652416
0.13629129
0.13631112
0.13633159
0.1363527
0.13637448
0.13639696
0.13642018
0.13644416
0.13646892
0.1364945
0.13652091
0.1365482
0.13657639
0.13660551
0.13663559
0.13666668
0.1366988
0.13647804
0.13649709
0.13651674
0.13653701
0.13655792
0.13657951
0.13660179
0.1366248
0.13664856
0.13667309
0.13669843
0.1367246
0.13675163
0.13677955
0.13680839
0.13683819
0.13686899
0.13665987
0.13667816
0.13669703
0.13671648
0.13673655
0.13675726
0.13677865
0.13680073
0.13682352
0.13684706
0.13687137
0.13689647
0.1369224
0.13694918
0.13697684
0.13700542
0.13703494
0.13683691
0.13685445
0.13687256
0.13689123
0.13691048
0.13693036
0.13695088
0.13697206
0.13699392
0.1370165
0.13703981
0.13706388
0.13708874
0.13711442
0.13714095
0.13716834
0.13719665
0.13700914
0.13702597
0.13704335
0.13706126
0.13707974
0.13709881
0.13711849
0.13713881
0.13715979
0.13718145
0.13720381
0.1372269
0.13725075
0.13727538
0.13730082
0.1373271
0.13735424
0.13717666
0.13719281
0.13720948
0.13722667
0.1372444
0.1372627
0.13728158
0.13730108
0.1373212
0.13734198
0.13736343
0.13738558
0.13740845
0.13743207
0.13745647
0.13748167
0.13750769
0.13733946
0.13735497
0.13737097
0.13738746
0.13740447
0.13742203
0.13744015
0.13745886
0.13747817
0.1374981
0.13751869
0.13753994
0.13756188
0.13758454
0.13760794
0.13763211
0.13765707
0.13749764
0.13751252
0.13752787
0.1375437
0.13756003
0.13757688
0.13759427
0.13761222
0.13763075
0.13764988
0.13766963
0.13769001
0.13771106
0.13773279
0.13775523
0.13777841
0.13765119
0.13766547
0.13768021
0.1376954
0.13771108
0.13772725
0.13774394
0.13776117
0.13777895
0.1377973
0.13781625
0.1378358
0.13785599
0.13787683
0.13789835
0.13792056
0.13780017
0.13781388
0.13782803
0.13784261
0.13785765
0.13787318
0.1378892
0.13790572
0.13792278
0.13794039
0.13795856
0.13797731
0.13799666
0.13801664
0.13803725
0.13805854
0.13794457
0.13795773
0.1379713
0.1379853
0.13799974
0.13801463
0.13803
0.13804585
0.13806221
0.13807909
0.1380965
0.13811447
0.13813302
0.13815215
0.13817189
0.13819227
0.13808437
0.13809699
0.13811002
0.13812344
0.13813729
0.13815157
0.1381663
0.1381815
0.13819717
0.13821335
0.13823003
0.13824723
0.13826499
0.1382833
0.13830218
0.13832167
0.1382195
0.13823161
0.13824409
0.13825696
0.13827023
0.13828391
0.13829802
0.13831257
0.13832758
0.13834306
0.13835902
0.13837548
0.13839245
0.13840995
0.138428
0.13844661
0.13834988
0.13836148
0.13837343
0.13838576
0.13839846
0.13841155
0.13842505
0.13843897
0.13845332
0.13846812
0.13848337
0.1384991
0.13851531
0.13853202
0.13854925
0.13856701
0.1384754
0.1384865
0.13849794
0.13850972
0.13852187
0.13853438
0.13854729
0.13856059
0.13857429
0.13858842
0.13860299
0.138618
0.13863346
0.13864941
0.13866584
0.13868278
0.13859597
0.13860657
0.1386175
0.13862877
0.13864037
0.13865232
0.13866465
0.13867734
0.13869043
0.13870391
0.1387178
0.13873212
0.13874688
0.13876208
0.13877775
0.1387939
0.13871151
0.13872165
0.13873209
0.13874284
0.13875392
0.13876534
0.1387771
0.13878922
0.1388017
0.13881457
0.13882783
0.13884149
0.13885556
0.13887007
0.13888502
0.13890043
0.13882204
0.13883172
0.13884169
0.13885196
0.13886254
0.13887345
0.13888468
0.13889625
0.13890817
0.13892046
0.13893312
0.13894617
0.13895961
0.13897347
0.13898775
0.13900247
0.1389276
0.13893685
0.13894639
0.13895621
0.13896633
0.13897675
0.13898749
0.13899855
0.13900995
0.1390217
0.13903381
0.1390463
0.13905916
0.13907242
0.13908609
0.13910018
0.13902832
0.13903717
0.1390463
0.13905571
0.13906539
0.13907537
0.13908566
0.13909626
0.13910718
0.13911844
0.13913005
0.13914201
0.13915434
0.13916706
0.13918017
0.13919369
0.13912431
0.1391328
0.13914156
0.13915058
0.13915987
0.13916945
0.13917932
0.13918949
0.13919998
0.13921079
0.13922193
0.13923342
0.13924526
0.13925748
0.13927007
0.13928305
0.13921565
0.13922381
0.13923222
0.13924089
0.13924982
0.13925903
0.13926851
0.13927829
0.13928837
0.13929876
0.13930947
0.13932052
0.1393319
0.13934365
0.13935575
0.13936824
0.13930231
0.13931016
0.13931825
0.13932658
0.13933517
0.13934402
0.13935315
0.13936255
0.13937225
0.13938224
0.13939255
0.13940317
0.13941412
0.13942542
0.13943706
0.13944907
0.13938414
0.13939169
0.13939947
0.13940748
0.13941575
0.13942426
0.13943304
0.13944208
0.13945141
0.13946102
0.13947093
0.13948115
0.13949169
0.13950255
0.13951376
0.13946089
0.13946815
0.13947564
0.13948335
0.13949129
0.13949948
0.13950793
0.13951663
0.1395256
0.13953485
0.13954438
0.13955422
0.13956435
0.13957481
0.13958559
0.13953233
0.13953932
0.13954652
0.13955394
0.13956159
0.13956947
0.1395776
0.13958598
0.13959462
0.13960353
0.13961271
0.13962218
0.13963194
0.13964201
0.1396524
0.1395983
0.13960503
0.13961198
0.13961913
0.13962651
0.13963411
0.13964195
0.13965003
0.13965836
0.13966695
0.13967581
0.13968495
0.13969438
0.1397041
0.13971412
0.1396587
0.13966521
0.13967192
0.13967884
0.13968597
0.13969332
0.1397009
0.13970872
0.13971678
0.13972509
0.13973366
0.1397425
0.13975161
0.13976102
0.13977072
0.13971348
0.13971979
0.1397263
0.139733
0.13973992
0.13974705
0.1397544
0.13976197
0.13976979
0.13977785
0.13978616
0.13979473
0.13980358
0.1398127
0.1398221
0.13976248
0.13976862
0.13977494
0.13978146
0.13978818
0.13979511
0.13980225
0.13980962
0.13981722
0.13982505
0.13983314
0.13984147
0.13985007
0.13985894
0.13986808
0.13980556
0.13981154
0.1398177
0.13982405
0.13983059
0.13983734
0.1398443
0.13985148
0.13985888
0.13986652
0.13987439
0.13988252
0.1398909
0.13989954
0.13990846
0.13984213
0.13984797
0.13985399
0.1398602
0.1398666
0.1398732
0.13988001
0.13988704
0.13989429
0.13990176
0.13990948
0.13991744
0.13992565
0.13993412
0.13994286
0.13987288
0.1398786
0.13988451
0.1398906
0.13989688
0.13990336
0.13991005
0.13991694
0.13992406
0.1399314
0.13993898
0.1399468
0.13995486
0.13996319
0.13997178
0.13989493
0.13990059
0.13990642
0.13991243
0.13991863
0.13992502
0.13993161
0.13993842
0.13994543
0.13995267
0.13996014
0.13996785
0.1399758
0.13998401
0.13999248
0.13991219
0.13991778
0.13992355
0.13992951
0.13993566
0.13994201
0.13994857
0.13995534
0.13996234
0.13996956
0.13997701
0.13998471
0.13999265
0.14000086
0.13992411
0.13992965
0.13993537
0.13994128
0.13994737
0.13995367
0.13996017
0.13996687
0.1399738
0.13998094
0.13998832
0.13999594
0.1400038
0.14001192
0.1045174
0.11321296
0.11980123
0.12489546
0.12888284
0.13205122
0.13462329
0.1367644
0.13860136
0.14020247
0.14162355
0.14290473
0.144089
0.14515958
0.14611993
0.14698091
0.14774616
0.14842229
0.14901672
0.11328864
0.1204132
0.1255696
0.12947326
0.13254079
0.13503446
0.13712605
0.13893117
0.14055599
0.14201154
0.1433206
0.14450384
0.1455725
0.14652656
0.14737559
0.14812909
0.14879324
0.14937545
0.11933944
0.12487551
0.12895134
0.13217232
0.13482587
0.13707206
0.13901298
0.14071994
0.14223795
0.14358763
0.14479284
0.14587169
0.14683468
0.14768895
0.14844441
0.14910945
0.14969086
0.15019609
0.12430034
0.12875964
0.13214508
0.1349051
0.13723843
0.13925033
0.1410088
0.14256098
0.14393768
0.14516021
0.14624804
0.14721542
0.14807219
0.14882673
0.14948817
0.15006457
0.15056325
0.12839267
0.13207702
0.13497326
0.13740012
0.1394913
0.14131518
0.14291724
0.14433088
0.14558034
0.14668438
0.1476593
0.14851791
0.14927049
0.14992646
0.15049494
0.15098414
0.15140172
0.13188999
0.13503939
0.13759283
0.13977258
0.14166885
0.14332825
0.14478407
0.14606278
0.14718537
0.14816922
0.1490293
0.14977814
0.15042661
0.15098469
0.15146142
0.1518651
0.13503789
0.13781314
0.14010851
0.14208401
0.14380497
0.1453069
0.14661723
0.14775925
0.14875253
0.14961371
0.15035728
0.15099583
0.1515406
0.15200178
0.15238813
0.15270807
0.13801372
0.14050389
0.14258053
0.14436743
0.14591705
0.1472599
0.14842099
0.14942231
0.15028281
0.15101867
0.15164416
0.15217193
0.1526134
0.15297869
0.15327598
0.14093074
0.14317357
0.14504189
0.14663961
0.1480129
0.14919041
0.15019628
0.15105193
0.15177592
0.15238385
0.15288986
0.15330653
0.15364524
0.15391575
0.15412533
0.14385394
0.14585478
0.14750816
0.14890696
0.1500942
0.15109791
0.15194174
0.15264665
0.15323064
0.15370831
0.15409378
0.15439932
0.15463601
0.154813
0.14681413
0.14855986
0.14998263
0.15116843
0.15215803
0.15297902
0.15365426
0.1542039
0.15464503
0.15499053
0.15525493
0.15544973
0.155585
0.15566967
0.14981813
0.15128683
0.1524598
0.15341758
0.15419814
0.15482847
0.15532953
0.15572023
0.15601645
0.1562285
0.15637174
0.15645666
0.15649014
0.1564838
0.15285591
0.15402341
0.15492785
0.15564432
0.15620619
0.15663983
0.15696248
0.15719089
0.15734053
0.15741917
0.15744019
0.15741741
0.15735424
0.15590658
0.15675013
0.15737089
0.15783663
0.15817282
0.15840563
0.15854709
0.15860833
0.15860912
0.15856024
0.15846368
0.15833342
0.15817662
0.15893943
0.159442
0.15977078
0.15998098
0.16008738
0.16011266
0.16007303
0.15997318
0.15982733
0.15964939
0.15943991
0.15920616
0.15895563
0.1619096
0.16207166
0.16210765
0.16205919
0.16193997
0.16175946
0.16153679
0.16128021
0.16099391
0.16068757
0.16036436
0.16002974
0.16479358
0.16462454
0.16436796
0.16405888
0.16371495
0.16333694
0.1629377
0.1625237
0.16209866
0.16166813
0.16123515
0.16080336
0.167586
0.16707734
0.16653098
0.16597069
0.16540432
0.1648332
0.16426311
0.16369743
0.16313853
0.16258911
0.16205099
0.16152607
0.17023949
0.16940651
0.16858204
0.16777943
0.16699994
0.16624272
0.16550858
0.16479792
0.16411101
0.16344832
0.16281007
0.16219656
0.17273215
0.17159415
0.1705068
0.16947438
0.16849319
0.16755911
0.16666925
0.16582125
0.16501317
0.16424342
0.16351064
0.17504624
0.17362526
0.17229303
0.17104595
0.16987615
0.1687763
0.16774046
0.16676377
0.16584218
0.16497225
0.16415103
0.17716681
0.17548729
0.17393036
0.17248571
0.17114192
0.16988883
0.16871791
0.16762209
0.16659541
0.16563274
0.16472965
0.17908148
0.17716971
0.17540999
0.17378635
0.17228448
0.17089183
0.16959768
0.16839308
0.16727039
0.16622296
0.16524497
0.18078008
0.17866375
0.17672438
0.1749415
0.17329854
0.17178097
0.17037626
0.16907389
0.16786484
0.16674113
0.16569564
0.18225413
0.17996203
0.17786718
0.17594579
0.17417963
0.17255257
0.17105062
0.16966201
0.16837669
0.16718568
0.16608052
0.18349609
0.18105795
0.17883271
0.17679454
0.17492405
0.17320375
0.17161841
0.17015536
0.168804
0.16755476
0.16639808
0.18449905
0.18194443
0.17961473
0.17748285
0.17552813
0.17373175
0.17207746
0.17055197
0.1691441
0.16784389
0.16664097
0.18525966
0.18261497
0.18020459
0.17799939
0.17597766
0.1741203
0.17241088
0.17083528
0.16938128
0.16803841
0.16679681
0.18574395
0.18304498
0.18058384
0.1783301
0.17626166
0.17436051
0.17261139
0.17099988
0.16951358
0.16814309
0.16687869
0.18601339
0.18328579
0.1807948
0.17851201
0.17641629
0.17448983
0.17271664
0.17108233
0.16957441
0.16818347
0.16690712
0.1861551
0.18341335
0.18090451
0.17860413
0.17649265
0.17455134
0.17276363
0.17111579
0.16959583
0.16819349
0.16690527
0.16572113
0.186092
0.1833703
0.18087037
0.17857211
0.17645867
0.17451347
0.17272141
0.17106964
0.16954719
0.16814386
0.16684727
0.16564958
0.18570674
0.18304477
0.18059115
0.17832878
0.17624243
0.17431758
0.17254092
0.17090067
0.1693864
0.16798841
0.16669603
0.1655019
0.1850663
0.18248127
0.18009376
0.17788846
0.17585026
0.17396547
0.17222193
0.17060894
0.1691169
0.16773694
0.16646028