/*--------------------------------*- C++ -*----------------------------------*\
| =========                 |                                                 |
| \\      /  F ield         | OpenFOAM: The Open Source CFD Toolbox           |
|  \\    /   O peration     | Version:  2406                                  |
|   \\  /    A nd           | Website:  www.openfoam.com                      |
|    \\/     M anipulation  |                                                 |
\*---------------------------------------------------------------------------*/
FoamFile
{
    version     2.0;
    format      ascii;
    arch        "LSB;label=32;scalar=64";
    class       volScalarField;
    location    "0.013";
    object      p;
}
// * * * * * * * * * * * * * * * * * * * * * * * * * * * * * * * * * * * * * //

dimensions      [1 -1 -2 0 0 0 0];

internalField   nonuniform List<scalar> 
23203
(
101677.95
101580.24
101524.55
101462.2
101397.88
101337.77
101282.85
101232.78
101186.91
101145.53
101109.67
101077.7
101049.08
101023.87
100999.53
100978.73
100961.85
100945.73
100932.01
101828.93
101754.91
101685.44
101610.48
101538.61
101472.49
101411.69
101355.65
101304.04
101256.88
101214.41
101176.15
101141.63
101110.69
101082.22
101057.3
101034.83
101014.25
100996.09
101901.66
101836.85
101761.25
101682.81
101609.35
101541.88
101479.56
101421.91
101368.68
101319.78
101275.2
101234.68
101197.92
101164.59
101134.38
101107.17
101082.25
101059.6
101039.35
101960.9
101898.4
101822.57
101744.93
101671.81
101604.01
101540.98
101482.38
101428.05
101377.87
101331.76
101289.49
101250.84
101215.53
101183.3
101153.97
101127.19
101102.82
101080.84
102013.31
101951.24
101877.35
101801.56
101729.46
101662.03
101598.94
101539.94
101484.95
101433.86
101386.56
101342.9
101302.67
101265.68
101231.71
101200.57
101172.06
101145.99
101122.32
102056.29
101995.01
101923.53
101850.09
101779.63
101713.24
101650.73
101591.93
101536.81
101485.28
101437.27
101392.65
101351.28
101313.01
101277.66
101245.06
101215.07
101187.51
101162.32
102090.67
102030.45
101961.68
101891.02
101822.7
101757.89
101696.49
101638.4
101583.62
101532.11
101483.82
101438.67
101396.57
101357.38
101320.98
101287.24
101256.02
101227.21
101200.71
102117.62
102058.62
101992.81
101925.24
101859.45
101796.62
101736.74
101679.77
101625.73
101574.63
101526.45
101481.14
101438.64
101398.87
101361.73
101327.13
101294.95
101265.1
101237.51
102137.83
102080.29
102017.68
101953.45
101890.47
101829.92
101771.88
101716.35
101663.38
101613.01
101565.26
101520.11
101477.53
101437.48
101399.88
101364.68
101331.78
101301.11
101272.61
102152.13
102096.4
102037.17
101976.43
101916.43
101858.34
101802.35
101748.49
101696.84
101647.46
101600.41
101555.69
101513.3
101473.22
101435.42
101399.85
101366.46
101335.18
101305.98
102161.68
102108.19
102052.4
101995.08
101938.05
101882.49
101828.65
101776.59
101726.42
101678.23
101632.08
101588
101546.02
101506.15
101468.37
101432.65
101398.97
101367.28
101337.55
102168.48
102117.5
102064.71
102010.4
101956.1
101902.97
101851.26
101801.05
101752.46
101705.57
101660.47
101617.21
101575.83
101536.35
101498.78
101463.11
101429.33
101397.4
101367.32
102173.15
102125.2
102074.86
102022.99
101971.09
101920.22
101870.57
101822.2
101775.22
101729.72
101685.78
101643.47
101602.83
101563.9
101526.71
101491.25
101457.53
101425.54
101395.27
102175.45
102130.78
102082.63
102032.92
101983.25
101934.52
101886.86
101840.31
101794.96
101750.89
101708.2
101666.93
101627.16
101588.92
101552.24
101517.14
101483.64
101451.72
101421.41
102174.81
102133.75
102087.81
102040.21
101992.7
101946.05
101900.34
101855.6
101811.88
101769.29
101727.89
101687.76
101648.94
101611.49
101575.45
101540.83
101507.68
101475.97
101445.76
102171.58
102134.12
102090.44
102044.96
101999.58
101954.98
101911.19
101868.24
101826.18
101785.08
101745.03
101706.09
101668.31
101631.74
101596.43
101562.41
101529.71
101498.34
101468.33
102166.14
102132.12
102090.7
102047.33
102004.04
101961.46
101919.59
101878.41
101838.01
101798.43
101759.76
101722.06
101685.38
101649.77
101615.27
101581.94
101549.8
101518.86
101489.17
102158.97
102128.07
102088.8
102047.48
102006.25
101965.66
101925.68
101886.28
101847.53
101809.5
101772.23
101735.81
101700.27
101665.68
101632.08
101599.52
101568.02
101537.61
101508.33
102149.77
102121.89
102084.75
102045.48
102006.31
101967.71
101929.61
101891.99
101854.9
101818.42
101782.59
101747.47
101713.13
101679.61
101646.96
101615.22
101584.44
101554.63
101525.86
102139.41
102114.29
102078.89
102041.54
102004.4
101967.78
101931.56
101895.71
101860.28
101825.35
101790.96
101757.18
101724.06
101691.65
101660
101629.15
101599.14
101570.01
101541.8
102126.74
102105.47
102071.8
102036.05
102000.79
101966.08
101931.7
101897.6
101863.83
101830.45
101797.52
101765.08
101733.2
101701.93
101671.31
101641.4
101612.22
101583.82
101556.25
102112.45
102093.18
102063.04
102029.31
101995.75
101962.81
101930.22
101897.85
101865.72
101833.88
101802.4
101771.31
101740.69
101710.57
101681.02
101652.07
101623.76
101596.14
101569.25
102098.19
102079.56
102051.85
102021.53
101989.7
101958.28
101927.34
101896.64
101866.12
101835.81
101805.76
101776.02
101746.65
101717.71
101689.23
101661.26
101633.86
101607.05
101580.88
102083.22
102066.17
102039.49
102011.54
101982.76
101952.71
101923.27
101894.16
101865.21
101836.4
101807.76
101779.35
101751.23
101723.45
101696.05
101669.09
101642.61
101616.64
101591.23
102067.77
102052.23
102027.58
102000.73
101973.59
101946.18
101918.24
101890.64
101863.19
101835.83
101808.57
101781.46
101754.57
101727.94
101701.62
101675.66
101650.11
101625
101600.38
102052.09
102037.79
102014.85
101989.33
101964.32
101939.35
101913.13
101886.62
101860.4
101834.34
101808.37
101782.5
101756.79
101731.29
101706.04
101681.08
101656.46
101632.22
101608.4
102036.69
102023.73
102002.74
101979
101954.59
101930.88
101906.94
101881.89
101856.82
101831.98
101807.24
101782.58
101758.02
101733.62
101709.41
101685.44
101661.76
101638.38
101615.38
102021.41
102009.66
101990.29
101968.09
101945.11
101921.98
101899.49
101876.59
101852.66
101828.93
101805.33
101781.81
101758.37
101735.03
101711.84
101688.85
101666.08
101643.58
101621.39
102006.4
101995.74
101977.86
101957
101935.36
101913.52
101891.51
101870.07
101848.27
101825.38
101802.75
101780.29
101757.92
101735.62
101713.43
101691.39
101669.53
101647.89
101626.51
101991.64
101981.98
101965.45
101945.85
101925.41
101904.84
101884.19
101863.43
101842.23
101820.84
101799.4
101778.06
101756.75
101735.47
101714.26
101693.15
101672.19
101651.4
101630.82
101977.14
101968.38
101953.07
101934.59
101915.19
101895.6
101875.79
101855.75
101836.38
101816.66
101796
101775.51
101755.1
101734.74
101714.45
101694.24
101674.14
101654.18
101634.4
101962.92
101955.01
101940.85
101923.45
101905.08
101886.53
101867.85
101848.94
101829.82
101811.21
101792.34
101772.52
101752.91
101733.43
101714.03
101694.69
101675.44
101656.3
101637.3
101948.95
101941.86
101928.75
101912.34
101894.92
101877.32
101859.61
101841.77
101823.82
101805.79
101787.31
101768.69
101750.08
101731.54
101713.04
101694.58
101676.17
101657.83
101639.6
101935.22
101928.91
101916.78
101901.29
101884.74
101868
101851.13
101834.09
101816.82
101799.37
101782.59
101765.37
101747.21
101729.37
101711.68
101694.03
101676.41
101658.84
101641.35
101921.7
101916.16
101904.97
101890.34
101874.62
101858.71
101842.7
101826.54
101810.25
101793.81
101777.26
101760.57
101743.79
101726.8
101709.9
101693.05
101676.21
101659.38
101642.61
101908.36
101903.58
101893.28
101879.45
101864.5
101849.35
101834.1
101818.7
101803.13
101787.34
101771.39
101756.11
101740.52
101724.13
101707.88
101691.73
101675.62
101659.5
101643.45
101895.18
101891.17
101881.72
101868.66
101854.44
101840.04
101825.55
101810.92
101796.15
101781.25
101766.16
101750.93
101736.25
101721.36
101705.61
101690.07
101674.65
101659.29
101882.12
101878.89
101870.27
101857.93
101844.41
101830.71
101816.94
101803.04
101789.02
101774.88
101760.66
101746.4
101732.11
101717.45
101702.68
101687.96
101673.34
101658.79
101869.17
101866.74
101858.91
101847.27
101834.41
101821.38
101808.29
101795.08
101781.74
101768.28
101754.69
101740.94
101727.09
101713.97
101700.46
101686.05
101672.01
101658.13
101856.33
101854.7
101847.64
101836.67
101824.45
101812.08
101799.65
101787.13
101774.49
101761.74
101748.9
101736
101723.03
101710.01
101696.91
101683.75
101670.44
101657.24
101843.58
101842.76
101836.46
101826.13
101814.53
101802.78
101791
101779.13
101767.14
101755.05
101742.85
101730.56
101718.13
101705.61
101693.86
101681.85
101669.01
101656.32
101830.95
101830.94
101825.36
101815.65
101804.66
101793.54
101782.4
101771.18
101759.86
101748.45
101736.94
101725.37
101713.74
101702
101690.19
101679.06
101667.65
101655.35
101818.45
101819.26
101814.37
101805.26
101794.86
101784.35
101773.84
101763.26
101752.59
101741.83
101731
101720.11
101709.18
101698.24
101687.3
101676.38
101665.29
101654.1
101806.14
101807.74
101803.5
101794.97
101785.16
101775.25
101765.36
101755.42
101745.39
101735.28
101725.09
101714.84
101704.53
101694.17
101683.69
101673.17
101663.53
101653.61
101794.07
101796.44
101792.8
101784.82
101775.59
101766.29
101757.03
101747.71
101738.33
101728.86
101719.34
101709.76
101700.13
101690.48
101680.8
101671.04
101661.26
101652.27
101782.32
101785.41
101782.31
101774.86
101766.21
101757.52
101748.87
101740.19
101731.43
101722.62
101713.74
101704.82
101695.86
101686.88
101677.88
101668.9
101659.93
101650.99
101770.97
101774.73
101772.09
101765.15
101757.07
101748.99
101740.97
101732.91
101724.8
101716.63
101708.4
101700.13
101691.82
101683.47
101675.1
101666.68
101658.17
101649.61
101760.15
101764.47
101762.2
101755.75
101748.25
101740.78
101733.39
101725.98
101718.51
101710.99
101703.43
101695.82
101688.18
101680.51
101672.82
101665.11
101657.39
101649.56
101749.95
101754.68
101752.68
101746.7
101739.8
101732.97
101726.23
101719.47
101712.66
101705.8
101698.9
101691.96
101684.99
101677.99
101670.95
101663.9
101656.85
101649.76
101740.47
101745.36
101743.51
101738.02
101731.78
101725.65
101719.58
101713.5
101707.37
101701.19
101694.97
101688.7
101682.41
101676.08
101669.72
101663.34
101656.96
101650.56
101731.81
101736.54
101734.72
101729.81
101724.33
101718.95
101713.61
101708.23
101702.8
101697.31
101691.77
101686.17
101680.53
101674.85
101669.12
101663.36
101657.56
101651.71
101724.31
101728.77
101726.9
101722.57
101717.85
101713.23
101708.62
101703.95
101699.21
101694.41
101689.54
101684.61
101679.62
101674.57
101669.48
101664.34
101659.17
101653.95
101718.2
101722.24
101720.27
101716.53
101712.61
101708.76
101704.88
101700.91
101696.85
101692.7
101688.47
101684.16
101679.78
101675.33
101670.81
101666.23
101661.6
101656.88
101713.53
101717.18
101715.09
101712.02
101708.95
101705.89
101702.72
101699.42
101695.99
101692.46
101688.82
101685.09
101681.28
101677.38
101673.42
101669.39
101665.31
101661.15
101710.83
101714.39
101712.29
101709.87
101707.55
101705.16
101702.58
101699.84
101696.95
101693.92
101690.79
101687.54
101684.2
101680.78
101677.28
101673.72
101670.09
101666.38
101710.72
101714.91
101713.52
101711.46
101709.4
101707.27
101704.99
101702.56
101700
101697.32
101694.53
101691.65
101688.68
101685.64
101682.53
101679.37
101676.15
101672.84
101712.77
101717.95
101717.78
101715.95
101713.85
101711.75
101709.59
101707.32
101704.94
101702.48
101699.93
101697.31
101694.62
101691.88
101689.09
101686.26
101683.39
101680.44
101716.98
101723.14
101724.16
101722.44
101720.2
101718.05
101715.92
101713.73
101711.47
101709.14
101706.77
101704.35
101701.88
101699.38
101696.86
101694.32
101691.76
101689.19
101723.44
101730.91
101732.83
101730.87
101728.27
101725.93
101723.73
101721.53
101719.31
101717.07
101714.81
101712.54
101710.24
101707.93
101705.61
101703.29
101700.97
101698.69
101730.65
101738.35
101740.33
101738.42
101735.96
101733.79
101731.75
101729.73
101727.68
101725.62
101723.53
101721.41
101719.27
101717.08
101714.87
101712.62
101710.33
101708.01
101739.81
101746.05
101747.63
101745.99
101743.89
101742.02
101740.25
101738.47
101736.66
101734.81
101732.94
101731.04
101729.1
101727.13
101725.13
101723.11
101721.08
101719.03
101749.97
101753.63
101754.44
101753.09
101751.44
101749.95
101748.51
101747.01
101745.44
101743.8
101742.11
101740.34
101738.5
101736.57
101734.53
101732.38
101730.08
101727.52
101758.47
101761.4
101761.59
101760.3
101758.75
101757.31
101755.96
101754.61
101753.21
101751.73
101750.2
101748.6
101746.94
101745.2
101743.37
101741.45
101739.42
101737.26
101762.12
101762.82
101762.51
101761.7
101760.74
101759.77
101758.72
101757.59
101756.37
101755.06
101753.66
101752.18
101750.6
101748.93
101747.17
101745.31
101743.36
101741.31
101761.16
101760.28
101759.32
101758.37
101757.37
101756.31
101755.16
101753.93
101752.61
101751.21
101749.71
101748.13
101746.44
101744.66
101742.77
101740.78
101738.68
101736.48
101753.23
101752.45
101751.57
101750.67
101749.73
101748.7
101747.59
101746.4
101745.12
101743.77
101742.33
101740.8
101739.19
101737.48
101735.68
101733.79
101731.8
101729.72
101745.39
101744.54
101743.56
101742.6
101741.61
101740.57
101739.48
101738.32
101737.09
101735.79
101734.43
101732.98
101731.45
101729.84
101728.15
101726.36
101724.49
101722.52
101737.11
101736.37
101735.49
101734.6
101733.69
101732.71
101731.67
101730.57
101729.4
101728.17
101726.86
101725.48
101724.03
101722.5
101720.89
101719.19
101717.42
101715.55
101729.51
101728.77
101727.89
101727.01
101726.1
101725.14
101724.13
101723.06
101721.93
101720.74
101719.49
101718.18
101716.8
101715.35
101713.83
101712.23
101710.56
101708.8
101722
101721.29
101720.46
101719.62
101718.76
101717.84
101716.87
101715.85
101714.77
101713.64
101712.44
101711.18
101709.86
101708.48
101707.02
101705.5
101703.9
101702.23
101714.88
101714.18
101713.36
101712.54
101711.69
101710.8
101709.86
101708.88
101707.84
101706.75
101705.6
101704.4
101703.14
101701.82
101700.44
101698.99
101697.48
101695.9
101707.96
101707.27
101706.48
101705.69
101704.87
101704.01
101703.11
101702.16
101701.16
101700.11
101699.01
101697.86
101696.65
101695.38
101694.06
101692.68
101691.23
101689.72
101701.3
101700.63
101699.86
101699.09
101698.29
101697.45
101696.58
101695.66
101694.69
101693.69
101692.63
101691.53
101690.37
101689.17
101687.91
101686.59
101685.21
101683.78
101694.89
101694.23
101693.48
101692.73
101691.95
101691.14
101690.29
101689.4
101688.47
101687.5
101686.48
101685.42
101684.31
101683.15
101681.94
101680.68
101679.36
101677.99
101688.69
101688.04
101687.31
101686.58
101685.82
101685.04
101684.21
101683.35
101682.45
101681.51
101680.53
101679.51
101678.45
101677.34
101676.18
101674.97
101673.72
101672.41
101682.69
101682.06
101681.35
101680.64
101679.9
101679.14
101678.34
101677.5
101676.63
101675.73
101674.78
101673.8
101672.77
101671.71
101670.59
101669.44
101668.23
101676.86
101676.25
101675.56
101674.87
101674.15
101673.41
101672.64
101671.83
101670.99
101670.12
101669.21
101668.26
101667.27
101666.25
101665.18
101664.07
101662.92
101671.21
101670.62
101669.95
101669.27
101668.58
101667.86
101667.11
101666.33
101665.52
101664.68
101663.8
101662.88
101661.93
101660.95
101659.92
101658.86
101657.75
101665.72
101665.13
101664.49
101663.83
101663.16
101662.46
101661.74
101660.99
101660.2
101659.39
101658.54
101657.66
101656.75
101655.8
101654.81
101653.79
101652.73
101660.38
101659.81
101659.18
101658.55
101657.9
101657.22
101656.52
101655.79
101655.03
101654.25
101653.43
101652.58
101651.7
101650.79
101649.84
101648.86
101647.84
101655.17
101654.62
101654.01
101653.4
101652.77
101652.12
101651.44
101650.73
101650
101649.24
101648.46
101647.64
101646.79
101645.92
101645.01
101644.06
101643.08
101650.1
101649.57
101648.98
101648.38
101647.77
101647.14
101646.49
101645.81
101645.1
101644.37
101643.61
101642.82
101642.01
101641.17
101640.29
101639.38
101638.44
101645.16
101644.64
101644.07
101643.49
101642.9
101642.29
101641.66
101641
101640.32
101639.61
101638.88
101638.13
101637.34
101636.53
101635.69
101634.82
101633.92
101640.33
101639.83
101639.28
101638.72
101638.15
101637.56
101636.95
101636.31
101635.66
101634.98
101634.27
101633.55
101632.79
101632.01
101631.2
101630.37
101629.5
101635.62
101635.13
101634.6
101634.06
101633.51
101632.94
101632.35
101631.74
101631.11
101630.45
101629.78
101629.07
101628.35
101627.6
101626.82
101626.02
101625.19
101631.02
101630.55
101630.03
101629.51
101628.98
101628.43
101627.86
101627.27
101626.67
101626.04
101625.38
101624.71
101624.01
101623.29
101622.55
101621.78
101620.98
101626.53
101626.07
101625.58
101625.07
101624.56
101624.03
101623.48
101622.91
101622.33
101621.72
101621.1
101620.45
101619.78
101619.09
101618.37
101617.63
101616.87
101622.14
101621.7
101621.22
101620.74
101620.24
101619.73
101619.2
101618.66
101618.09
101617.51
101616.91
101616.29
101615.64
101614.98
101614.29
101613.58
101612.85
101617.85
101617.43
101616.97
101616.5
101616.02
101615.53
101615.02
101614.5
101613.95
101613.39
101612.82
101612.22
101611.6
101610.96
101610.31
101609.63
101608.92
101613.66
101613.25
101612.81
101612.36
101611.9
101611.43
101610.94
101610.43
101609.91
101609.37
101608.82
101608.24
101607.65
101607.04
101606.41
101605.76
101605.08
101609.56
101609.17
101608.74
101608.31
101607.87
101607.41
101606.94
101606.46
101605.96
101605.44
101604.91
101604.36
101603.79
101603.2
101602.59
101601.97
101601.32
101605.55
101605.17
101604.76
101604.35
101603.92
101603.49
101603.03
101602.57
101602.09
101601.59
101601.08
101600.55
101600.01
101599.44
101598.86
101598.27
101597.65
101601.62
101601.26
101600.87
101600.47
101600.06
101599.64
101599.21
101598.76
101598.3
101597.83
101597.34
101596.83
101596.31
101595.77
101595.21
101594.64
101594.05
101597.78
101597.44
101597.06
101596.68
101596.29
101595.89
101595.47
101595.04
101594.6
101594.15
101593.68
101593.19
101592.69
101592.17
101591.64
101591.09
101590.53
101594.03
101593.7
101593.34
101592.97
101592.6
101592.21
101591.82
101591.41
101590.98
101590.55
101590.1
101589.63
101589.15
101588.66
101588.15
101587.62
101587.08
101590.37
101590.05
101589.71
101589.36
101589
101588.63
101588.25
101587.86
101587.45
101587.04
101586.61
101586.16
101585.7
101585.23
101584.74
101584.24
101583.72
101586.81
101586.5
101586.17
101585.84
101585.49
101585.14
101584.78
101584.4
101584.01
101583.61
101583.2
101582.78
101582.34
101581.88
101581.42
101580.94
101580.44
101583.34
101583.05
101582.73
101582.41
101582.08
101581.74
101581.4
101581.04
101580.66
101580.28
101579.89
101579.48
101579.06
101578.63
101578.18
101577.72
101577.24
101579.97
101579.69
101579.39
101579.08
101578.77
101578.44
101578.11
101577.76
101577.41
101577.04
101576.67
101576.28
101575.87
101575.46
101575.03
101574.59
101576.7
101576.43
101576.14
101575.85
101575.55
101575.24
101574.92
101574.59
101574.25
101573.9
101573.54
101573.16
101572.78
101572.38
101571.97
101571.55
101573.52
101573.27
101572.99
101572.71
101572.42
101572.13
101571.82
101571.5
101571.18
101570.84
101570.5
101570.14
101569.77
101569.4
101569
101568.6
101570.45
101570.2
101569.94
101569.67
101569.39
101569.11
101568.82
101568.52
101568.21
101567.89
101567.55
101567.21
101566.86
101566.5
101566.13
101565.74
101567.47
101567.23
101566.98
101566.72
101566.46
101566.19
101565.91
101565.62
101565.33
101565.02
101564.7
101564.38
101564.04
101563.7
101563.34
101562.97
101564.59
101564.36
101564.12
101563.88
101563.63
101563.37
101563.1
101562.83
101562.54
101562.25
101561.95
101561.64
101561.32
101560.99
101560.64
101560.29
101561.81
101561.6
101561.37
101561.13
101560.89
101560.65
101560.39
101560.13
101559.86
101559.58
101559.29
101558.99
101558.69
101558.37
101558.05
101557.71
101559.14
101558.93
101558.71
101558.49
101558.26
101558.02
101557.78
101557.53
101557.27
101557.01
101556.73
101556.45
101556.15
101555.85
101555.54
101555.22
101556.56
101556.36
101556.16
101555.94
101555.72
101555.5
101555.27
101555.03
101554.78
101554.53
101554.27
101554
101553.72
101553.43
101553.13
101552.83
101554.09
101553.9
101553.7
101553.5
101553.29
101553.08
101552.86
101552.63
101552.39
101552.15
101551.9
101551.64
101551.38
101551.1
101550.82
101550.53
101551.73
101551.55
101551.36
101551.16
101550.96
101550.76
101550.54
101550.33
101550.1
101549.87
101549.63
101549.38
101549.13
101548.87
101548.6
101548.32
101549.47
101549.3
101549.11
101548.93
101548.73
101548.54
101548.33
101548.13
101547.91
101547.69
101547.46
101547.22
101546.98
101546.72
101546.47
101546.2
101547.32
101547.15
101546.97
101546.79
101546.61
101546.42
101546.23
101546.02
101545.82
101545.6
101545.38
101545.16
101544.92
101544.68
101544.43
101544.17
101545.27
101545.11
101544.94
101544.77
101544.59
101544.41
101544.22
101544.03
101543.83
101543.62
101543.41
101543.19
101542.96
101542.73
101542.49
101542.24
101543.33
101543.17
101543.01
101542.84
101542.67
101542.5
101542.31
101542.13
101541.93
101541.74
101541.53
101541.32
101541.1
101540.88
101540.64
101540.41
101541.49
101541.34
101541.18
101541.02
101540.86
101540.69
101540.51
101540.33
101540.14
101539.95
101539.75
101539.55
101539.34
101539.12
101538.9
101538.67
101539.76
101539.61
101539.46
101539.3
101539.15
101538.98
101538.81
101538.64
101538.46
101538.27
101538.08
101537.88
101537.68
101537.47
101537.26
101538.13
101537.99
101537.85
101537.7
101537.54
101537.38
101537.22
101537.05
101536.88
101536.7
101536.52
101536.33
101536.13
101535.93
101535.72
101536.62
101536.49
101536.35
101536.2
101536.05
101535.9
101535.74
101535.58
101535.41
101535.24
101535.06
101534.88
101534.69
101534.5
101534.3
101535.24
101535.11
101534.97
101534.83
101534.69
101534.54
101534.39
101534.23
101534.07
101533.9
101533.73
101533.55
101533.37
101533.18
101532.99
101533.97
101533.85
101533.71
101533.58
101533.44
101533.3
101533.15
101533
101532.84
101532.68
101532.52
101532.35
101532.17
101531.99
101531.8
101532.83
101532.71
101532.58
101532.45
101532.32
101532.18
101532.04
101531.89
101531.74
101531.58
101531.42
101531.26
101531.09
101530.91
101530.73
101531.82
101531.7
101531.58
101531.45
101531.32
101531.18
101531.05
101530.9
101530.76
101530.6
101530.45
101530.28
101530.12
101529.94
101529.77
101530.93
101530.81
101530.69
101530.57
101530.44
101530.31
101530.17
101530.03
101529.89
101529.74
101529.58
101529.43
101529.26
101529.09
101528.92
101530.16
101530.05
101529.93
101529.81
101529.68
101529.55
101529.42
101529.28
101529.14
101529
101528.84
101528.69
101528.53
101528.36
101528.19
101529.51
101529.39
101529.28
101529.16
101529.04
101528.91
101528.78
101528.64
101528.5
101528.36
101528.21
101528.06
101527.9
101527.74
101527.57
101529.03
101528.92
101528.8
101528.69
101528.56
101528.44
101528.31
101528.18
101528.04
101527.89
101527.75
101527.6
101527.44
101527.28
101527.11
101528.63
101528.53
101528.41
101528.29
101528.17
101528.05
101527.92
101527.79
101527.65
101527.51
101527.36
101527.21
101527.05
101526.89
101528.15
101528.04
101527.93
101527.81
101527.69
101527.57
101527.45
101527.31
101527.18
101527.04
101526.9
101526.75
101526.6
101526.44
99939.108
99936.831
99941.214
99946.452
99951.297
99955.711
99959.981
99964.39
99969.433
99975.569
99982.874
99991.245
100001.22
100013.24
100026.87
100041.81
100058.03
100075.44
100093.93
99949.814
99952.349
99953.95
99954.938
99955.72
99956.872
99959.044
99962.551
99967.884
99975.563
99985.153
99996.115
100008.43
100022.15
100037.02
100052.87
100069.8
100087.75
99938.46
99932.772
99929.885
99929.574
99930.481
99932.931
99937.37
99943.764
99952.136
99962.359
99974.039
99986.861
100000.78
100015.98
100032.31
100049.66
100068.04
100087.35
99920.077
99912.13
99908.944
99909.364
99911.399
99915.176
99921.004
99928.776
99938.338
99949.658
99962.502
99976.691
99992.169
100008.93
100026.82
100045.71
100065.53
99897.461
99889.363
99886.562
99887.73
99890.867
99895.953
99903.181
99912.461
99923.647
99936.621
99951.172
99967.138
99984.414
100002.89
100022.4
100042.84
100064.09
99870.941
99863.444
99861.466
99863.806
99868.478
99875.303
99884.375
99895.581
99908.747
99923.684
99940.182
99958.067
99977.192
99997.418
100018.58
100040.55
99840.58
99834.277
99833.7
99837.783
99844.493
99853.511
99864.835
99878.31
99893.718
99910.835
99929.442
99949.348
99970.387
99992.411
100015.23
100038.74
99806.374
99801.91
99803.425
99809.894
99819.18
99830.841
99844.8
99860.852
99878.749
99898.239
99919.095
99941.114
99964.125
99987.987
100012.46
99768.351
99766.485
99770.873
99780.405
99792.816
99807.566
99824.517
99843.432
99864.043
99886.069
99909.285
99933.481
99958.514
99984.246
100010.34
99726.701
99728.31
99736.402
99749.679
99765.744
99783.999
99804.267
99826.292
99849.808
99874.489
99900.139
99926.552
99953.664
99981.296
99681.837
99687.875
99700.499
99718.162
99738.362
99760.487
99784.343
99809.685
99836.262
99863.655
99891.789
99920.448
99949.739
99979.322
99634.438
99645.848
99663.764
99686.371
99711.1
99737.392
99765.042
99793.885
99823.669
99853.728
99884.45
99915.433
99946.878
99978.367
99585.401
99603.038
99626.871
99654.862
99684.392
99715.088
99746.681
99779.249
99812.461
99844.978
99878.445
99911.943
99944.358
99535.85
99560.351
99590.525
99624.209
99658.651
99694.088
99729.783
99766.149
99802.99
99837.709
99872.755
99908.374
99943.213
99487.305
99518.731
99555.441
99595.153
99634.427
99675.225
99715.345
99753.905
99793.115
99831.344
99869.254
99906.777
99943.49
99441.286
99479
99522.498
99568.744
99612.652
99657.404
99701.251
99743.882
99785.959
99827.021
99867.259
99906.608
99395.268
99442.258
99492.854
99544.214
99593.884
99642.642
99690.042
99736.09
99780.915
99824.433
99866.751
99907.865
99354.284
99409.283
99466.461
99523.189
99577.833
99630.561
99681.422
99730.518
99777.935
99823.71
99867.944
99910.685
99318.514
99380.858
99444.145
99505.972
99565.036
99621.495
99675.577
99727.444
99777.225
99825.028
99870.979
99915.159
99288.542
99357.684
99426.528
99492.955
99555.962
99615.786
99672.752
99727.077
99778.944
99828.518
99875.952
99265.061
99340.36
99414.099
99484.53
99550.959
99613.708
99673.16
99729.59
99783.23
99834.29
99882.955
99248.683
99329.393
99407.276
99481.044
99550.319
99615.494
99676.992
99735.138
99790.208
99842.45
99892.077
99239.919
99325.214
99406.418
99482.799
99554.295
99621.352
99684.42
99743.863
99799.997
99853.098
99903.4
99239.194
99328.182
99411.826
99490.047
99563.096
99631.455
99695.586
99755.883
99812.694
99866.314
99916.977
99246.855
99338.593
99423.743
99502.984
99576.877
99645.926
99710.586
99771.275
99828.37
99882.169
99932.869
99263.224
99356.747
99442.411
99521.786
99595.766
99664.857
99729.488
99790.098
99847.118
99900.863
99951.397
99288.572
99382.995
99468.162
99546.767
99620.081
99688.57
99752.598
99812.647
99869.294
99923.032
99973.69
99322.59
99417.124
99501.035
99578.385
99650.695
99718.219
99781.194
99840.176
99895.851
99948.811
99998.439
99363.545
99456.585
99538.257
99613.624
99684.377
99750.633
99812.453
99870.295
99924.568
99975.563
100022.59
99407.968
99499.534
99578.812
99651.573
99719.371
99782.722
99842.239
99898.149
99950.83
100001.12
100046.62
99456.211
99545.45
99621.126
99690.64
99755.93
99817.148
99874.517
99928.19
99977.945
100023.44
100068.45
100113.5
99531.647
99615.348
99684.349
99747.856
99808.164
99865.152
99918.81
99969.327
100016.8
100061.26
100104.18
100145.5
99612.855
99691.718
99754.786
99812.455
99867.483
99919.742
99969.147
100015.86
100060.06
100101.86
100141.72
100179.81
99699.361
99772.521
99829.079
99880.68
99930.246
99977.568
100022.5
100065.18
100105.74
100144.3
100181.09
100216.28
99791.603
99858.879
99908.48
99953.588
99997.323
100039.36
100079.49
100117.82
100154.44
100189.44
100222.95
100255.09
100285.92
99890.305
99951.165
99993.252
100031.38
100068.87
100105.24
100140.22
100173.85
100206.22
100237.35
100267.33
100296.2
100324.02
99995.365
100049.31
100083.34
100114.01
100144.82
100175.14
100204.61
100233.22
100261.02
100288.01
100314.18
100339.57
100364.18
100106.6
100153.17
100178.65
100201.4
100225.12
100249.01
100272.62
100295.9
100318.84
100341.39
100363.52
100385.2
100406.41
100427.2
100223.74
100262.54
100279.01
100293.44
100309.68
100326.79
100344.21
100361.84
100379.63
100397.48
100415.32
100433.07
100450.68
100468.14
100346.45
100377.13
100384.22
100389.96
100398.38
100408.39
100419.31
100431.01
100443.38
100456.27
100469.58
100483.18
100497
100510.95
100474.3
100496.61
100494.02
100490.76
100491.08
100493.69
100497.83
100503.33
100510.02
100517.73
100526.27
100535.52
100545.34
100555.63
100566.36
100606.85
100620.59
100608.09
100595.61
100587.6
100582.58
100579.7
100578.75
100579.54
100581.82
100585.39
100590.06
100595.69
100602.16
100609.34
100743.58
100748.65
100726.14
100704.26
100687.74
100674.91
100664.81
100657.19
100651.86
100648.53
100646.92
100646.81
100648.05
100650.5
100653.99
100658.49
100883.93
100880.26
100847.76
100816.39
100791.25
100770.51
100753.04
100738.55
100726.9
100717.78
100710.83
100705.75
100702.37
100700.61
100700.28
100701.24
101027.1
101014.49
100972.26
100931.41
100897.61
100868.97
100844.11
100822.57
100804.44
100789.38
100777
100766.81
100758.61
100752.43
100748.09
100745.44
100744.27
101172.84
101150.1
101098.44
101048.19
101005.71
100969.36
100937.47
100908.89
100884.13
100863.06
100845.3
100830.02
100816.84
100806.05
100797.47
100791.11
100786.58
101324.52
101288.45
101227.59
101167.93
101116.35
101072.43
101034.29
100998.88
100967.38
100940.04
100916.96
100896.82
100878.53
100862.85
100849.66
100839.31
100831.36
100824.91
101489.52
101438.64
101372.05
101304.05
101241.85
101189.6
101144.5
101101.63
101062.43
101027.43
100998.17
100972.86
100948.83
100927.59
100908.97
100893.75
100881.84
100871.32
101644.2
101593.7
101540.7
101475.37
101407.9
101345.27
101287.91
101235.25
101185.72
101139.76
101101.47
101068.18
101036.45
101008.02
100982.43
100960.64
100943.07
100927.04
100913.57
100018.33
100023.45
100020.25
100018.6
100017.91
100017.66
100017.8
100018.48
100020.13
100022.98
100027.14
100032.75
100040.02
100049.2
100060.04
100072.3
100085.83
100100.6
100116.5
100029.43
100036.79
100036.24
100034.82
100033.8
100033.17
100032.91
100033.13
100034.16
100036.32
100039.73
100044.6
100051.27
100059.76
100069.85
100081.33
100094.28
100108.53