/*--------------------------------*- C++ -*----------------------------------*\
| =========                 |                                                 |
| \\      /  F ield         | OpenFOAM: The Open Source CFD Toolbox           |
|  \\    /   O peration     | Version:  2406                                  |
|   \\  /    A nd           | Website:  www.openfoam.com                      |
|    \\/     M anipulation  |                                                 |
\*---------------------------------------------------------------------------*/
FoamFile
{
    version     2.0;
    format      ascii;
    arch        "LSB;label=32;scalar=64";
    class       volScalarField;
    location    "0.11";
    object      Ma;
}
// * * * * * * * * * * * * * * * * * * * * * * * * * * * * * * * * * * * * * //

dimensions      [0 0 0 0 0 0 0];

internalField   nonuniform List<scalar> 
8260
(
0.15892391
0.16020079
0.16150711
0.16288561
0.16425338
0.16557588
0.16686925
0.16812834
0.16944686
0.17093039
0.17242884
0.17397925
0.17552961
0.17699035
0.1778603
0.17766118
0.17531838
0.1711288
0.16837284
0.16667737
0.16521412
0.1640494
0.16290911
0.16192843
0.16074791
0.15988688
0.15870868
0.158165
0.15741267
0.15526769
0.15030214
0.15476232
0.15643469
0.15820343
0.15998015
0.16172904
0.16343148
0.16508604
0.16669842
0.16832228
0.17001025
0.17169804
0.1733916
0.17503687
0.17653958
0.17738829
0.1770892
0.1745795
0.17046193
0.16795721
0.16638814
0.16498819
0.16387113
0.16276608
0.16181251
0.16065232
0.15980823
0.15863675
0.15810717
0.15735798
0.15522325
0.15028676
0.14998523
0.15203621
0.154289
0.15652909
0.15871769
0.16084405
0.16290297
0.16489599
0.16685514
0.16880949
0.17072428
0.17259349
0.17436207
0.17592723
0.17678185
0.17639629
0.17373725
0.16977306
0.16753823
0.16608458
0.16474682
0.16367826
0.16261201
0.16168788
0.16055124
0.15972531
0.1585574
0.15804451
0.15730201
0.15520379
0.15020574
0.14541093
0.14777543
0.15038897
0.15301442
0.15559529
0.15811357
0.16055689
0.1629171
0.16520768
0.16744428
0.16959831
0.17165569
0.17355811
0.175187
0.17604407
0.17554808
0.17273916
0.16899662
0.16705298
0.16572587
0.16446139
0.16344981
0.16242995
0.16153891
0.16043136
0.15962509
0.15846269
0.15797129
0.15723437
0.15518462
0.15014117
0.14117037
0.14375991
0.14662102
0.14953738
0.1524411
0.1553002
0.15809107
0.16079389
0.16340347
0.16592008
0.16831642
0.17056807
0.17260967
0.17430045
0.17514702
0.17450797
0.17156041
0.16814743
0.16651431
0.16532092
0.16413906
0.16319136
0.1622254
0.16137052
0.16029826
0.15951155
0.15835557
0.15788864
0.15715856
0.15516068
0.15005384
0.13737494
0.14010333
0.14310867
0.14621383
0.14935082
0.1524763
0.15555533
0.15855588
0.16145519
0.16423611
0.166867
0.16931061
0.17149007
0.17323575
0.17404819
0.17322876
0.17016951
0.16723158
0.16590762
0.16485857
0.16377012
0.16289459
0.16199133
0.16117565
0.16014682
0.15937888
0.15823745
0.15779368
0.15706866
0.15515706
0.15001941
0.13415366
0.13694209
0.13999408
0.14318007
0.14644431
0.14973999
0.15302417
0.15625424
0.15939203
0.16240309
0.16524521
0.16786549
0.17017035
0.1719527
0.17269135
0.17165249
0.16856654
0.16625812
0.16522809
0.16433389
0.16335116
0.16255696
0.16172609
0.1609532
0.15997732
0.15922642
0.15811409
0.15768499
0.15696199
0.15512465
0.1498511
0.13169601
0.13442116
0.13740839
0.140563
0.14384086
0.14719709
0.15058532
0.15395584
0.15725854
0.16044333
0.16345343
0.16621723
0.1686184
0.17039949
0.17100245
0.1697089
0.16680306
0.16522052
0.16446601
0.16373839
0.16287555
0.16217226
0.16142366
0.16069812
0.15978569
0.15905019
0.15798111
0.15755966
0.15683259
0.15503124
0.14976228
0.1300134
0.13258959
0.13542297
0.13844752
0.14163276
0.1449391
0.14832162
0.15172872
0.1551034
0.15838322
0.16149549
0.16434718
0.16679202
0.16850364
0.16888012
0.16729755
0.16497498
0.1641021
0.16361259
0.16306552
0.16233858
0.16173657
0.16107932
0.16040806
0.15956924
0.15884854
0.15783971
0.15741507
0.15667826
0.15493586
0.14968112
0.12908596
0.13145423
0.13407032
0.13688641
0.13988205
0.14303076
0.14629491
0.14962634
0.15296608
0.15624284
0.15936807
0.16222428
0.16462617
0.16615856
0.1661861
0.16450031
0.1631817
0.16289643
0.16266071
0.1623085
0.16173306
0.16124488
0.16068631
0.16007904
0.15932208
0.1586184
0.15768091
0.15724863
0.15650017
0.15479067
0.14960198
0.12880849
0.13092973
0.13328198
0.13583103
0.13856395
0.14146571
0.14451113
0.14765991
0.15085463
0.15401746
0.1570432
0.15978434
0.16200129
0.1631879
0.16278837
0.16163366
0.1614511
0.16158897
0.16161174
0.16146005
0.16104999
0.16069267
0.16023956
0.15970828
0.15903818
0.15835794
0.1574844
0.15705905
0.15630548
0.15462131
0.14952328
0.12915324
0.13094609
0.13295732
0.13516409
0.13756548
0.14015011
0.14289777
0.14577231
0.14871647
0.15164445
0.15442954
0.15688159
0.15867151
0.15932968
0.1589805
0.15913546
0.15970986
0.16019479
0.16048212
0.16051095
0.16028068
0.16007266
0.15973434
0.15929159
0.15871028
0.15806383
0.15725742
0.15684588
0.15610008
0.154425
0.14942669
0.12966874
0.13113772
0.13280946
0.13466135
0.13669442
0.1389079
0.14128616
0.14379232
0.14636387
0.14890025
0.1512493
0.15321224
0.15447629
0.15495654
0.15577299
0.15697723
0.15799084
0.15872138
0.15924982
0.15948553
0.15942333
0.15937611
0.159166
0.1588254
0.15833431
0.15773332
0.15699832
0.15660916
0.15588468
0.15423494
0.14935234
0.12994968
0.13113288
0.13249226
0.13400629
0.13567538
0.13748894
0.13943624
0.14148652
0.14357779
0.1456049
0.14742023
0.14891375
0.15016213
0.15163155
0.15342507
0.15495169
0.15620035
0.15719986
0.15795546
0.15836831
0.15850638
0.15860316
0.15852562
0.15830482
0.15790999
0.15736372
0.15670341
0.15634813
0.15565535
0.15404486
0.14923303
0.12963122
0.13040082
0.13137026
0.13257468
0.13396605
0.13543465
0.13698634
0.13865123
0.14041255
0.1421597
0.14388599
0.14566327
0.14756067
0.14960807
0.15141868
0.15305883
0.15448347
0.15565976
0.15661575
0.15721536
0.15752422
0.15776019
0.15782093
0.1577236
0.15743994
0.15695527
0.15637071
0.15606192
0.15540996
0.15382033
0.149138
0.13061261
0.13115261
0.13175053
0.13243848
0.13330119
0.13435338
0.13558211
0.13697486
0.13845525
0.14010563
0.1419084
0.14386382
0.14593258
0.14782353
0.14965054
0.15133851
0.15284048
0.15416233
0.15528524
0.15601476
0.1565054
0.15687713
0.15706212
0.1570798
0.15692114
0.15650948
0.15599977
0.15574825
0.15514229
0.1536402
0.14901533
0.13231924
0.13285462
0.13344278
0.1340705
0.13474795
0.13548351
0.13623988
0.13703232
0.1380802
0.13939615
0.14099611
0.1426338
0.14438486
0.1462885
0.14815138
0.14986278
0.15139686
0.15277433
0.1539782
0.15481817
0.15546693
0.15594584
0.15626972
0.15638379
0.15635337
0.15602659
0.15558771
0.15540196
0.15483839
0.15343549
0.14890496
0.13356856
0.13392794
0.13435212
0.1348587
0.13546194
0.13619651
0.1371188
0.13819077
0.13913571
0.1400557
0.14090664
0.14212348
0.14354709
0.14511618
0.14683493
0.14854625
0.15009666
0.15150669
0.1527331
0.15365856
0.15441067
0.15497998
0.1554529
0.15563638
0.15574382
0.15550243
0.15513568
0.15501736
0.15449524
0.15318196
0.1487697
0.13581696
0.1361321
0.13648415
0.13687019
0.13730469
0.13778463
0.13828069
0.13881533
0.13948049
0.14033826
0.14137616
0.14232162
0.14332299
0.14453041
0.14591503
0.14744497
0.14899899
0.15039248
0.15157622
0.15255478
0.15335588
0.15398617
0.15461274
0.15485834
0.15508043
0.15494338
0.15464666
0.15459554
0.1541176
0.15291342
0.14864752
0.13722173
0.13742947
0.13767466
0.13796397
0.13830737
0.13871352
0.13920282
0.13978568
0.14043261
0.14110125
0.14178913
0.1426874
0.14363759
0.1444071
0.1454674
0.14667378
0.14802984
0.14940264
0.150522
0.1515468
0.15237348
0.15297455
0.15374941
0.15407286
0.15436059
0.15434246
0.15413198
0.15414007
0.15368591
0.15264768
0.14850064
0.1393322
0.13951701
0.13972486
0.13995533
0.14020886
0.14049348
0.14080668
0.14114116
0.14152134
0.14199211
0.14257462
0.14315995
0.14380418
0.14471108
0.14538403
0.14628797
0.1473581
0.14855699
0.14962629
0.1506947
0.15151805
0.15199461
0.15286352
0.15330281
0.15360793
0.1537072
0.15359345
0.15365137
0.15324058
0.15238916
0.14838492
0.14065965
0.14077309
0.14090878
0.14106956
0.14125816
0.14147844
0.14173786
0.14204536
0.1424077
0.14281586
0.14326117
0.14380969
0.1444312
0.14498645
0.14572412
0.14621763
0.1470227
0.14789391
0.14886415
0.14996363
0.15076676
0.15115296
0.15198076
0.15253116
0.15286174
0.15305861
0.15302225
0.15312844
0.1527547
0.15208623
0.14830928
0.1426215
0.14271999
0.14282639
0.14294214
0.14307202
0.1432207
0.14339212
0.14358855
0.14380284
0.14403715
0.14430948
0.14460822
0.1449611
0.14545462
0.14591464
0.14660514
0.14699668
0.14761238
0.14831152
0.14920135
0.15005869
0.1504942
0.15116807
0.15177036
0.15215808
0.15239566
0.15241968
0.15257971
0.15224093
0.15169277
0.14820762
0.14376759
0.14382252
0.14388804
0.14396585
0.14405808
0.14416682
0.14429457
0.14444525
0.14462512
0.14483778
0.14508351
0.14539188
0.14574347
0.14608735
0.14651083
0.14684002
0.14733688
0.14760649
0.14808289
0.14867743
0.1493075
0.15000204
0.15052741
0.1510659
0.15148308
0.15172956
0.15181202
0.15201423
0.15169674
0.15131641
0.14816506
0.14538956
0.14542809
0.14547187
0.14552191
0.14557951
0.14564601
0.14572287
0.14581155
0.14591348
0.14602941
0.14615444
0.14625983
0.14638698
0.14658716
0.14682946
0.14721694
0.14747352
0.14791149
0.14820087
0.14852156
0.14888698
0.14945918
0.15006382
0.15042991
0.15083929
0.15109364
0.15120404
0.15143585
0.15115289
0.15089186
0.14813659
0.14627151
0.14629338
0.14631964
0.14635044
0.14638635
0.14642812
0.14647664
0.14653302
0.14659871
0.14667567
0.1467673
0.14687989
0.14701795
0.14717906
0.14736335
0.14751454
0.14780487
0.14808523
0.14848542
0.14868234
0.14876846
0.14898225
0.14964037
0.14987334
0.15025163
0.1504683
0.15058778
0.15084467
0.15059521
0.15027232
0.14808588
0.14743788
0.14744783
0.14745919
0.1474723
0.14748802
0.14750732
0.14753126
0.14756096
0.14759765
0.1476425
0.14769624
0.14775829
0.14780806
0.14785954
0.14795123
0.14811517
0.14829078
0.14847342
0.14857831
0.14886432
0.14887672
0.14884525
0.14917558
0.14940131
0.14973135
0.14984982
0.14995972
0.15024315
0.14995344
0.14948994
0.14787454
0.14807861
0.14807954
0.14808103
0.14808355
0.14808784
0.14809472
0.14810504
0.14811965
0.14813959
0.14816603
0.14820043
0.14824642
0.14830393
0.1483577
0.14841017
0.14847408
0.14856407
0.14866365
0.14873663
0.14894283
0.14908088
0.14882443
0.14883669
0.14902476
0.14926204
0.14927587
0.14936467
0.14964657
0.14926318
0.14892517
0.14761396
0.14873644
0.14873586
0.14873484
0.14873335
0.14873151
0.14872952
0.14872757
0.14872572
0.14872392
0.14872188
0.14871908
0.14871479
0.14871011
0.14870649
0.14870625
0.14871719
0.14875363
0.1488094
0.1488259
0.1489813
0.14914477
0.14884596
0.14867574
0.14869127
0.14880356
0.14875467
0.1488387
0.14914584
0.14885935
0.14879428
0.14750876
0.14894787
0.1489468
0.14894477
0.14894184
0.14893801
0.14893328
0.14892772
0.14892133
0.14891392
0.14890503
0.14889403
0.14888099
0.14886821
0.14885838
0.14885176
0.14884979
0.14886693
0.14891541
0.1489089
0.14897482
0.14912267
0.14882673
0.14857931
0.14842755
0.14848064
0.14849782
0.14859823
0.14883521
0.14857759
0.14878577
0.147471
0.14919093
0.14918927
0.14918689
0.14918472
0.14918356
0.14918398
0.14918639
0.149191
0.14919781
0.1492069
0.14921897
0.1492355
0.14925743
0.14928381
0.14930785
0.14931934
0.14932527
0.14934498
0.14931352
0.14920685
0.14919585
0.14902987
0.14876095
0.1483383
0.14842302
0.14854251
0.14864834
0.14876089
0.14856158
0.14853117
0.14771427
0.088518559
0.10632574
0.11819522
0.12706825
0.13450498
0.14120104
0.14731842
0.15247458
0.15749425
0.16214373
0.16638096
0.17021682
0.17367805
0.17676092
0.17942983
0.18152871
0.18261886
0.18232584
0.17952456
0.17470312
0.17112513
0.16877546
0.16686169
0.16521008
0.163481
0.16219818
0.16078786
0.16002099
0.15900868
0.1559428
0.151144
0.11233984
0.12141667
0.1283722
0.13443443
0.14025906
0.14592979
0.15117012
0.15595916
0.1604763
0.16461687
0.16839037
0.17182614
0.17494711
0.17773632
0.18014441
0.1819574
0.18274479
0.18211513
0.17890515
0.17407117
0.17073974
0.16851231
0.16665403
0.16503882
0.16333856
0.16208287
0.16069017
0.15993825
0.15892789
0.15590191
0.15110657
0.11939196
0.1260419
0.13234845
0.13840138
0.1441649
0.14951632
0.15437182
0.15878014
0.16285494
0.16657976
0.16998634
0.17310608
0.17595483
0.1785053
0.18069775
0.18226617
0.18279235
0.18185458
0.17829286
0.17354306
0.17043071
0.16828355
0.16646594
0.1648836
0.16320929
0.16197684
0.16059857
0.15985908
0.15885367
0.15586532
0.15107824
0.12602518
0.13230422
0.13817987
0.14362565
0.14868246
0.15334365
0.1575968
0.16148965
0.16508975
0.16839926
0.17145027
0.17426929
0.17686161
0.17918797
0.18117503
0.18249323
0.182782
0.18153095
0.1776491
0.17302993
0.17011185
0.16804258
0.1662687
0.16472036
0.16307385
0.16186596
0.16050351
0.15977746
0.15877708
0.15582593
0.15103608
0.13311934
0.13868312
0.14378303
0.14850154
0.15288469
0.15692057
0.16061303
0.16400723
0.16715253
0.17006747
0.17278391
0.1753219
0.17767481
0.17979058
0.1815752
0.18265265
0.18272557
0.1811444
0.17700331
0.17254769
0.16981165
0.167811
0.1660773
0.1645621
0.16294264
0.16175778
0.16040985
0.15969634
0.15870269
0.15579464
0.15100197
0.1407046
0.14521896
0.14941657
0.15333358
0.15697801
0.16034578
0.16345475
0.16634041
0.16904129
0.17158059
0.1739836
0.17626057
0.17839134
0.18031
0.18189536
0.18275028
0.18263471
0.18071469
0.17634825
0.17209278
0.16951894
0.16758071
0.16588595
0.16440335
0.16281102
0.16164891
0.16031547
0.15961445
0.15862824
0.15576682
0.15096733
0.14824147
0.15170535
0.15495643
0.15800988
0.16087533
0.1635638
0.16608839
0.16847466
0.1707508
0.17293702
0.17504877
0.17708485
0.17901092
0.18074675
0.18214058
0.1827997
0.18250407
0.18023231
0.17570066
0.17166688
0.16923599
0.16735531
0.16569775
0.16424722
0.16268163
0.16154136
0.16022166
0.15953256
0.15855388
0.15574286
0.15093134
0.15581107
0.15811165
0.16031898
0.16245522
0.16453258
0.16654796
0.16850044
0.17040593
0.17228115
0.17413849
0.17598151
0.17779681
0.17953599
0.18110451
0.18231953
0.18281632
0.18231887
0.17969946
0.17506688
0.17126745
0.1689602
0.1671334
0.16551162
0.1640925
0.16255339
0.16143435
0.16012801
0.15945047
0.15848014
0.15571679
0.15089067
0.16300199
0.16413471
0.1653208
0.16657359
0.1678971
0.16926779
0.17067584
0.17212885
0.17363136
0.17518597
0.17678352
0.17839844
0.17996911
0.18138605
0.18243721
0.18279159
0.18208039
0.17912539
0.17445713
0.17089255
0.16869125
0.16691566
0.16532837
0.1639401
0.16242706
0.1613285
0.16003496
0.15936846
0.15840681
0.15568519
0.15085901
0.16953822
0.16959758
0.16986432
0.17031432
0.17093176
0.17169789
0.17260214
0.17363853
0.17480019
0.17608
0.17745608
0.1788912
0.18031134
0.18158655
0.18248924
0.18272073
0.1817865
0.17852055
0.17387778
0.17053895
0.16842831
0.16670194
0.16514794
0.16378987
0.16230248
0.16122372
0.15994249
0.15928661
0.15833495
0.15565946
0.1508239
0.17534364
0.17445759
0.17390267
0.17362318
0.17359623
0.17381115
0.17426835
0.17493015
0.17578652
0.1768211
0.17800022
0.17927559
0.18056161
0.1817042
0.18248501
0.18260306
0.18144318
0.17790579
0.17333145
0.1702039
0.16817116
0.16649242
0.16497063
0.16364217
0.16217994
0.1611203
0.15985079
0.15920508
0.15826629
0.15563562
0.15079238
0.18027184
0.17862193
0.17735438
0.17643962
0.17585605
0.17560111
0.17566248
0.17599758
0.1765889
0.17740907
0.17841556
0.17954949
0.18071097
0.18174048
0.18243096
0.18244206
0.18105988
0.17729244
0.17281832
0.16988467
0.16791961
0.16628716
0.16479656
0.16349719
0.16205946
0.16101834
0.15975992
0.159124
0.15819782
0.15561175
0.15076076
0.18420208
0.18196956
0.18015077
0.17873073
0.17770091
0.17705228
0.17677508
0.17683597
0.1772013
0.17783955
0.17869692
0.17970437
0.18076709
0.18171991
0.18232977
0.18223975
0.18064549
0.17668599
0.17233752
0.16957919
0.16767368
0.16608629
0.16462591
0.16335518
0.16194123
0.16091803
0.15967004
0.15904351
0.15813051
0.15559007
0.15072876
0.18710592
0.18446395
0.18225907
0.18047572
0.17910849
0.17815202
0.1775995
0.17742425
0.17760193
0.1780893
0.17882793
0.17975114
0.18076329
0.18164766
0.18218354
0.18199004
0.1802062
0.17609359
0.17188755
0.16928586
0.16743346
0.16588991
0.16445888
0.16321632
0.16182541
0.16081935
0.15958136
0.15896368
0.15806397
0.15557043
0.15069674
0.18908393
0.18610705
0.18363237
0.18160906
0.18001397
0.17883736
0.17807655
0.17772765
0.17777507
0.17816925
0.17885153
0.17973163
0.18069266
0.18151445
0.18198126
0.1817033
0.17975007
0.17552014
0.17146638
0.16900354
0.16719917
0.16569815
0.16429586
0.16308063
0.16171226
0.16072241
0.15949399
0.15888459
0.15799664
0.15555278
0.15066454
0.19022776
0.18707734
0.18441647
0.1822179
0.18046616
0.1791479
0.17825529
0.17782183
0.17781377
0.17815558
0.17878951
0.17962697
0.18053991
0.18132079
0.18173172
0.18137924
0.17928463
0.17496882
0.17107257
0.16873146
0.16697103
0.1655111
0.16413703
0.16294824
0.16160189
0.1606274
0.15940796
0.15880631
0.15792787
0.155534
0.15063206
0.19061742
0.18751229
0.18479033
0.18249564
0.18064825
0.17924862
0.17829209
0.17780522
0.17774082
0.17802566
0.17860569
0.179411
0.18030419
0.18106786
0.18144106
0.18102714
0.17881338
0.17444225
0.17070335
0.16846896
0.16674918
0.16532879
0.1639824
0.16281936
0.16149434
0.16053445
0.15932331
0.15872898
0.15786325
0.15550672
0.15059884
0.18957714
0.18688406
0.1844148
0.18224929
0.18045015
0.17905926
0.17810281
0.17758678
0.17747367
0.17772456
0.17828731
0.17908659
0.17998528
0.1807564
0.18111292
0.18064969
0.17834107
0.17394154
0.170356
0.16821563
0.16653367
0.16515118
0.16383203
0.16269404
0.1613897
0.16044372
0.15923973
0.15865271
0.15780285
0.15546033
0.15055903
0.18748872
0.18516579
0.18305727
0.18119655
0.17962242
0.17838046
0.17751871
0.1770635
0.17698234
0.1772521
0.17783442
0.17865522
0.17958284
0.18038659
0.18074906
0.18025461
0.17787379
0.17346756
0.17002834
0.16797108
0.16632458
0.16497831
0.16368606
0.16257245
0.16128817
0.16035541
0.159158
0.15857772
0.15774841
0.1554107
0.15052376
0.1845767
0.18267716
0.18097003
0.17947989
0.17822316
0.17723226
0.17656373
0.17625003
0.17626417
0.17660938
0.17724813
0.17811773
0.17909682
0.17995843
0.18035075
0.17984401
0.17741678
0.17302032
0.16971828
0.1677356
0.16612267
0.16481086
0.16354513
0.1624551
0.16119021
0.16026988
0.15907848
0.15850421
0.15769823
0.15538746
0.15049828
0.18083829
0.1794698
0.17825202
0.17720425
0.17633518
0.17567243
0.1752749
0.17515752
0.17532571
0.17579717
0.17652958
0.1774756
0.17852779
0.17947188
0.17991969
0.17941776
0.17697319
0.17260053
0.16942641
0.16751132
0.16593
0.16465042
0.16341047
0.16234294
0.16109655
0.16018754
0.15900152
0.15843224
0.15764116
0.15535033
0.15046976
0.17625032
0.17552131
0.17490795
0.17439613
0.17399154
0.17373295
0.17365868
0.17378967
0.1741717
0.17481355
0.17567674
0.17672779
0.17787455
0.17892538
0.17945543
0.17899132
0.17655086
0.1722142
0.16915736
0.16730166
0.16574911
0.16449869
0.16328313
0.16223666
0.16100741
0.16010852
0.1589269
0.15836161
0.15758191
0.15532527
0.1504395
0.17074687
0.1707119
0.17082041
0.17097677
0.17114534
0.17136126
0.17167681
0.17212637
0.17278273
0.17364295
0.17467667
0.17586477
0.1771296
0.17831259
0.17895278
0.17857683
0.17616531
0.17187361
0.16891472
0.16710642
0.16557881
0.16435421
0.16316143
0.16213486
0.16092119
0.16003188
0.1588531
0.15829195
0.1575222
0.15531649
0.15040393
0.16449865
0.1648613
0.16559979
0.16649969
0.16739374
0.16823313
0.16908999
0.16997792
0.17101063
0.17218114
0.17345104
0.17482602
0.17624495
0.17759529
0.178388
0.17815187
0.17582731
0.17158076
0.16868449
0.16691249
0.16540832
0.16420857
0.16303868
0.16203278
0.16083405
0.15995627
0.15877813
0.15822333
0.15746256
0.15530694
0.15035963
0.081807536
0.10153261
0.11432909
0.12391912
0.1317942
0.13872068
0.14504283
0.15062462
0.15586405
0.16073505
0.16519821
0.16924757
0.17290199
0.17615854
0.1789831
0.18125191
0.1825232
0.18241972
0.17985777
0.17508759
0.17138514
0.16897211
0.16702458
0.16534315
0.16359223
0.16228827
0.16086533
0.16008724
0.15906968
0.15596947
0.15116981
0.080794115
0.10127783
0.11422251
0.12373575
0.13152281
0.13833872
0.14453679
0.15011605
0.1553224
0.16019283
0.16469344
0.16880412
0.17252938
0.1758587
0.17874899
0.18109028
0.18242047
0.1824202
0.17999093
0.1752743
0.17151711
0.16908054
0.16712209
0.16542504
0.16366543
0.16234978
0.16092194
0.16013876
0.15911402
0.15598655
0.15119992
0.080529274
0.10138434
0.11435919
0.1237076
0.13129531
0.13794221
0.14399803
0.14951002
0.15467768
0.15955031
0.16409244
0.16827149
0.17207745
0.17549109
0.17846104
0.18088807
0.18230648
0.1824007
0.18013793
0.17548014
0.17165184
0.16918527
0.16721661
0.16550447
0.1637381
0.16241142
0.16097962
0.16019246
0.15915936
0.15600774
0.15121865
0.080174426
0.10127031
0.11431402
0.12359776
0.13103158
0.13753165
0.14345614
0.14889585
0.15402375
0.15889089
0.16346539
0.16770644
0.17159046
0.17508898
0.17814281
0.18065757
0.1821772
0.18237578
0.18028469
0.17570324
0.17180296
0.16930096
0.16731998
0.16559121
0.16381725
0.16247835
0.16104161
0.16025006
0.15920909
0.15602213
0.15125241
0.079671998
0.10090965
0.11413987
0.12339373
0.13075647
0.1371414
0.14294513
0.14830957
0.15338879
0.15823663
0.16282908
0.16712078
0.17107621
0.17465693
0.17779588
0.18039652
0.18202905
0.18234201
0.18042639
0.17593546
0.17196775
0.16942805
0.16743335
0.1656866
0.16390403
0.16255173
0.16110853
0.16031215
0.15926376
0.15603512
0.15128087
0.079160742
0.10043105
0.11390508
0.12321364
0.13051899
0.13679522
0.14247976
0.14775895
0.15277702
0.15759147
0.16218719
0.16651743
0.17053637
0.1741953
0.17741898
0.18010192
0.18185608
0.18229418
0.1805559
0.17617517
0.17214118
0.16956252
0.16755369
0.16578855
0.16399715
0.16263072
0.16118015
0.16037863
0.15932293
0.15605205
0.15130782
0.078955863
0.10002263
0.1136951
0.12306499
0.13031646
0.13648477
0.14204969
0.14723411
0.15218043
0.15695027
0.16153698
0.16589476
0.16996939
0.17370224
0.17700963
0.17977317
0.18164817
0.18222782
0.1806654
0.17642057
0.17232124
0.16970176
0.16767885
0.16589534
0.1640954
0.16271443
0.16125581
0.16044933
0.15938535
0.15607595
0.15133318
0.07901002
0.099647512
0.11346895
0.12291342
0.13012217
0.13618885
0.1416369
0.14672133
0.15158899
0.15630628
0.16087446
0.16525002
0.16937309
0.17317554
0.17656534
0.17941132
0.18140912
0.18213791
0.18075639
0.17666772
0.17250811
0.16984532
0.16780844
0.16600663
0.16419869
0.1628028
0.1613352
0.16052425
0.15945066
0.15610368
0.15135769
0.079239867
0.099346751
0.11324546
0.12273978
0.12990959
0.13588303
0.14122017
0.14620413
0.15099048
0.15565101
0.16019425
0.16458054
0.16874568
0.17261368
0.1760845
0.17901625
0.18113489
0.18202012
0.18083176
0.17691447
0.17270236
0.16999307
0.16794211
0.16612238
0.16430713
0.16289595
0.1614187
0.16060351
0.1595207
0.15612746
0.15138962
0.079811583
0.099183661
0.11300672
0.12252189
0.12965227
0.1355394
0.14077369
0.14566174
0.150369
0.15497327
0.15948933
0.16388159
0.16808423
0.1720144
0.17556502
0.17858578
0.18082219
0.18186029
0.18088198
0.17716131
0.17290412
0.17014506
0.1680801
0.16624288
0.16442107
0.16299423
0.16150629
0.16068732
0.15959634
0.15615901
0.15142097
0.080830048
0.099204728
0.1127336
0.12221123
0.12930218
0.1351162
0.14026238
0.14506642
0.1497037
0.15425802
0.15874958
0.16314736
0.16738524
0.17137548
0.17500516
0.17811774
0.18047301
0.18166985
0.18089974
0.17739532
0.17311285
0.17030081
0.16822199
0.16636806
0.1645407
0.16309786
0.1615982
0.16077592
0.1596791
0.15619161
0.15144928
0.082022352
0.099269728
0.11242132
0.12178806
0.1288169
0.13456682
0.13964448
0.1443845
0.14896905
0.15348698
0.15796271
0.16236999
0.16664398
0.17069399
0.17440281
0.17760993
0.18008625
0.18144458
0.18088647
0.17760884
0.17332756
0.17045948
0.1683672
0.16649765
0.16466596
0.16320694
0.16169453
0.16086952
0.15976778
0.1562294
0.15148307
0.083510591
0.099455114
0.11201627
0.12117072
0.12812234
0.13382824
0.13886839
0.14357572
0.14813495
0.15263834
0.15711399
0.16154021
0.16585494
0.16996669
0.17375587
0.17706038
0.17965962
0.18117388
0.18083722
0.17780887
0.17354764
0.17062027
0.16851488
0.16663125
0.16479675
0.16332134
0.16179529
0.16096827
0.15986337
0.15626269
0.15151621
0.084995246
0.099476065
0.11127914
0.12019842
0.1271085
0.13282135
0.13787536
0.14259632
0.14716938
0.15168906
0.15618758
0.16064801
0.16501216
0.1691901
0.17306224
0.1764673
0.17919137
0.18085613
0.18074146
0.17798873
0.17377146
0.17078194
0.1686642
0.16676831
0.16493271
0.163441
0.16190053
0.1610722
0.15996794
0.15629899
0.15154208
0.08619673
0.099299262
0.11026577
0.11887915
0.12574083
0.13149739
0.13661935
0.14140844
0.1460433
0.15061835
0.15516912
0.15968388
0.16410995
0.16836101
0.17232003
0.17582911
0.17868099
0.18048965
0.18059201
0.17813797
0.17399818
0.17094381
0.16881405
0.16690838
0.16507358
0.1635655
0.16201033
0.16118139
0.16008218
0.15633499
0.15157635
0.086547757
0.098523872
0.10872912
0.1170752
0.12393975
0.12980693
0.13506543
0.13998567
0.14473659
0.14941106
0.154048
0.15864092
0.16314409
0.1674771
0.17152768
0.17514384
0.17812513
0.18007842
0.18038933
0.17824696
0.17422256
0.17110368
0.16896352
0.16705044
0.16521853
0.16369466
0.16212495
0.16129583
0.16019945
0.15637726
0.15160639
0.086158003
0.096971358
0.10658719
0.11476615
0.12170702
0.12775244
0.13321408
0.13832656
0.14324653
0.14806409
0.15282095
0.15751681
0.16211331
0.16653769
0.17068425
0.17440828
0.1775128
0.17962369
0.18016323
0.17831978
0.1744484
0.17126091
0.16911112
0.1671942
0.1653671
0.16382772
0.16224462
0.16141551
0.16032051
0.15642588
0.15164765
0.08486748
0.094804794
0.10395667
0.11204601
0.11912126
0.12539708
0.13111148
0.1364631
0.14159436
0.14659116
0.15149674
0.15631695
0.16102112
0.16554483
0.1697903
0.17362005
0.17683735
0.17909116
0.17987466
0.17835716
0.1746593
0.17141227
0.16925589
0.16733766
0.1655175
0.16396423
0.16236981
0.16154008
0.16044522
0.15648126
0.15171058
0.082682523
0.092010948
0.10088874
0.10899763
0.11627291
0.12282681
0.1288329
0.13445581
0.1398256
0.14502477
0.15009788
0.1550564
0.15987736
0.16450488
0.16884957
0.17278159
0.17610858
0.17851812
0.17955162
0.17834788
0.17483584
0.17155814
0.16939574
0.16748083
0.16566927
0.1641037
0.16250065
0.1616691
0.16057578
0.15653819
0.15179564
0.079905126
0.08878396
0.097513261
0.1057319
0.1132728
0.12014876
0.12647389
0.1323859
0.1380056
0.14341482
0.14866073
0.15376065
0.15869922
0.16342921
0.16786973
0.17189946
0.1753356
0.17789796
0.17916579
0.1782906
0.17500764
0.17169419
0.16952944
0.16762052
0.16581909
0.16424484
0.16263788
0.161802
0.16071294
0.15660069
0.15186497
0.076826678
0.085357732
0.093998227
0.10237402
0.1102257
0.11746228
0.12413062
0.13034137
0.13621003
0.14182248
0.14723206
0.15246398
0.15751087
0.1623342
0.166862
0.17098197
0.17452347
0.17723058
0.17871279
0.17815488
0.17516717
0.17182681
0.16965409
0.16775652
0.16596761
0.16438911
0.16278056
0.16193746
0.1608532
0.15667998
0.15190677
0.073851817
0.082055951
0.090590163
0.099093482
0.10724901
0.11486026
0.12188903
0.1284043
0.13451384
0.14031193
0.14586366
0.15120567
0.15634093
0.16124018
0.16584051
0.17003879
0.17367734
0.17652075
0.1782077
0.17795309
0.17528369
0.17194487
0.16976897
0.16788523
0.16610971
0.16453286
0.16292936
0.16207542
0.16099482
0.15674964
0.15190576
0.071442876
0.079296652
0.087643783
0.096167389
0.10453169
0.11246686
0.11983698
0.12664578
0.13297987
0.13893884
0.14460277
0.15002379
0.15521845
0.16016857
0.16482054
0.16908078
0.17280371
0.17577321
0.17765559
0.17769593
0.17534607
0.17205831
0.16986876
0.16800583
0.16624874
0.16468028
0.16308065
0.162214
0.16113885
0.15681178
0.15192606
0.069993638
0.077484114
0.085549319
0.093943647
0.10235542
0.11047457
0.11809171
0.12513835
0.1316587
0.13774364
0.14348396
0.14894784
0.15416746
0.15913797
0.16381628
0.16811835
0.17190941
0.17499103
0.17704926
0.17741148
0.17535216
0.17215838
0.16995321
0.16811271
0.1663787
0.16482593
0.16323499
0.16235348
0.16128562
0.15687433
0.1519438
0.069717913
0.076834628
0.084545979
0.092670574
0.10094409
0.10906249
0.11677748
0.12395817
0.13059392
0.13675235
0.14252517
0.1479924
0.15320116
0.15816008
0.16283741
0.16715873
0.17100001
0.17417432
0.17637949
0.17705289
0.17533582
0.17222407
0.17001438
0.16821193
0.16650225
0.16496876
0.16338652
0.16249062
0.16143625
0.15693721
0.15201143
0.070666955
0.077327649
0.084644896
0.092417501
0.10039006
0.10831507
0.11595987
0.12313998
0.12979384
0.13595839
0.14171532
0.14714795
0.15231418
0.15723378
0.16188567
0.16620473
0.17007713
0.17332377
0.17565887
0.17659672
0.17528072
0.1722772
0.17005296
0.16828229
0.16661875
0.16511363
0.16353733
0.16263042
0.16158639
0.15701381
0.15205672
0.073182078
0.079180644
0.085821136
0.093025762
0.10059016
0.10820946
0.11560001
0.12262977
0.12919864
0.13530427
0.14100504
0.14637662
0.1514801
0.15634259
0.1609524
0.16525357
0.16914054
0.17244484
0.17490411
0.17608133
0.17515501
0.17231559
0.17007551
0.16835303
0.1667109
0.16523654
0.16368247
0.16276839
0.16174019
0.15708499
0.15209711
0.076750684
0.082170507
0.08816634
0.094660681
0.10152447
0.10857874
0.11560733
0.12235424
0.12873775
0.13472002
0.14032917
0.1456229
0.15065573
0.15545703
0.16001993
0.16429614
0.16818875
0.17154133
0.17411176
0.17550421
0.1749403
0.17237635
0.17007157
0.16837343
0.1667995
0.16536778
0.16382326
0.16290539
0.16188947
0.15717632
0.15209359
0.080659448
0.085481927
0.090831853
0.096663432
0.10287379
0.10931367
0.11579999
0.122178
0.12830036
0.13411066
0.13960669
0.14482008
0.14978963
0.15453953
0.15906332
0.16331814
0.16721627
0.17061353
0.17328881
0.17488399
0.17463597
0.17236429
0.17004294
0.16837388
0.16686507
0.16547756
0.16396828
0.16303521
0.16204161
0.15726558
0.1521425
0.084397496
0.088646481
0.093370369
0.098546714
0.10410667
0.10994194
0.11590968
0.12189131
0.12773547
0.13336651
0.13875497
0.14390455
0.14883336
0.15355419
0.15805822
0.16230523
0.16621554
0.16965807
0.17243278
0.17421921
0.17433994
0.17230276
0.17001498
0.16837384
0.16687788
0.16555596
0.16409171
0.16315657
0.16219754
0.15737761
0.15239712
0.087477605
0.091217165
0.095385176
0.099976741
0.10495295
0.1102425
0.11575984
0.12136359
0.12694819
0.13242215
0.13772775
0.14284133
0.14775908
0.15247971
0.15698899
0.16124703
0.16518007
0.16866943
0.17153368
0.17348482
0.17398001
0.17219032
0.16997158
0.16834863
0.16688564
0.16565958
0.16423014
0.16327947
0.16235302
0.15748796
0.1524519