/*--------------------------------*- C++ -*----------------------------------*\
| =========                 |                                                 |
| \\      /  F ield         | OpenFOAM: The Open Source CFD Toolbox           |
|  \\    /   O peration     | Version:  2406                                  |
|   \\  /    A nd           | Website:  www.openfoam.com                      |
|    \\/     M anipulation  |                                                 |
\*---------------------------------------------------------------------------*/
FoamFile
{
    version     2.0;
    format      ascii;
    arch        "LSB;label=32;scalar=64";
    class       surfaceScalarField;
    location    "0.11";
    object      phi;
}
// * * * * * * * * * * * * * * * * * * * * * * * * * * * * * * * * * * * * * //

dimensions      [1 0 -1 0 0 0 0];

oriented        oriented;

internalField   nonuniform List<scalar> 
16284
(
0.011468301
-0.01604962
0.016545746
-0.011964574
0.010976658
-0.018849849
0.019341327
0.010460688
-0.022061695
0.022577484
0.0099238999
-0.025771533
0.026308121
0.009374026
-0.030054641
0.030604293
0.008822405
-0.034982712
0.035534104
0.0082830206
-0.04063699
0.04117615
0.0077668777
-0.047113682
0.047629617
0.0072810957
-0.054542576
0.055028149
0.0068288023
-0.063077665
0.063529702
0.0064108752
-0.072862103
0.073279672
0.0060231238
-0.084080332
0.084467598
0.0056555047
-0.096918574
0.097285587
0.0052923311
-0.11155879
0.11192126
0.0049100988
-0.12787946
0.12826086
0.0044402458
-0.14562572
0.1460946
0.0038227813
-0.16383906
0.16445536
0.0032076568
-0.18245766
0.18307141
0.0027541144
-0.20457985
0.20503167
0.0023877527
-0.23046876
0.23083307
0.002057456
-0.25981038
0.26013804
0.0017589883
-0.29328103
0.29357602
0.0014850458
-0.33097358
0.33124301
0.0012327186
-0.37377499
0.37402154
0.00099585723
-0.4214631
0.42169333
0.00077707492
-0.47609446
0.47630678
0.00055485136
-0.53661318
0.5368319
0.00034862024
-0.60715836
0.60736408
0.00013871912
-0.68592255
0.68613403
3.2858205e-05
-0.76848609
0.7685982
-0.84337433
0.8434995
0.012711559
-0.015615159
-0.01314617
0.01222288
-0.018361335
0.011703698
-0.02154269
0.011158184
-0.025226209
0.010591708
-0.029488362
0.010014674
-0.034405879
0.0094402425
-0.04006276
0.0088818207
-0.046555458
0.0083475021
-0.05400848
0.0078415351
-0.062572003
0.0073671575
-0.072388159
0.0069217268
-0.083635476
0.0064958389
-0.096493388
0.0060685621
-0.11113232
0.0056144807
-0.12742631
0.0050548701
-0.1450672
0.0043278369
-0.16311334
0.003630041
-0.18176142
0.0031233897
-0.20407513
0.0027092578
-0.23005694
0.0023350181
-0.25943911
0.0019960781
-0.29294601
0.0016859816
-0.33066858
0.0013988312
-0.37349436
0.0011314228
-0.4212032
0.00088159504
-0.47585195
0.00063077691
-0.53636658
0.00039657286
-0.60692475
0.00015676897
-0.68568084
3.4851105e-05
-0.76835836
-0.84339012
0.013949735
-0.015235226
-0.014329802
0.013505788
-0.017917536
0.013012545
-0.021049606
0.012478995
-0.024692828
0.011912497
-0.028922037
0.011323296
-0.033816857
0.010724301
-0.03946395
0.010130112
-0.045961479
0.0095512523
-0.053429887
0.0089922846
-0.062013411
0.0084593147
-0.071855713
0.0079511756
-0.083128009
0.0074593114
-0.096002325
0.0069583199
-0.11063225
0.0064191112
-0.12688816
0.0057495445
-0.14439886
0.0048966567
-0.16226193
0.0041181098
-0.18098462
0.0035558526
-0.20351506
0.0030865533
-0.22959026
0.0026609449
-0.25901686
0.0022742454
-0.29256374
0.0019215853
-0.33032168
0.0015932318
-0.37317339
0.0012901617
-0.42090861
0.0010036699
-0.47557378
0.00071974061
-0.53608786
0.00045313705
-0.60665885
0.00017786611
-0.68540329
3.6400912e-05
-0.76821031
-0.84321353
0.015200495
-0.014919583
-0.015516244
0.014818546
-0.017535709
0.014374859
-0.020606056
0.013876185
-0.024194304
0.01333004
-0.028376054
0.012746274
-0.033233267
0.012137502
-0.038855376
0.011518426
-0.045342648
0.010901385
-0.052813175
0.010293084
-0.061405571
0.0097011394
-0.071264389
0.0091261704
-0.082553814
0.008560437
-0.095437499
0.0079747615
-0.1100476
0.0073338044
-0.12624839
0.0065297635
-0.1435962
0.0055322733
-0.1612661
0.0046724373
-0.18012675
0.004045599
-0.20289069
0.0035126989
-0.22906031
0.0030287749
-0.25853673
0.0025879038
-0.29212786
0.0021874508
-0.32992772
0.0018121411
-0.3728064
0.0014696673
-0.42057572
0.0011408998
-0.47525445
0.00082052975
-0.53577406
0.00051707196
-0.60635623
0.00020321222
-0.68508668
3.6060642e-05
-0.76803578
-0.84300496
0.01645917
-0.014677878
-0.01670096
0.016151332
-0.017227974
0.015775611
-0.020230458
0.015333957
-0.023752794
0.014830985
-0.02787325
0.014274377
-0.032676859
0.013675175
-0.038256415
0.013047076
-0.044714859
0.012403175
-0.05216969
0.011752648
-0.060755607
0.011104128
-0.070616595
0.010459876
-0.081910441
0.0098126906
-0.094791333
0.0091298525
-0.10936592
0.008366013
-0.12548589
0.0073979208
-0.14262967
0.0062378342
-0.16010788
0.0053015666
-0.17919271
0.0046021391
-0.20219403
0.003998255
-0.22845975
0.0034488705
-0.25799161
0.0029466261
-0.29163124
0.0024920606
-0.32948047
0.0020625826
-0.3723863
0.0016760222
-0.42019997
0.0012975484
-0.47488668
0.00093675899
-0.53542165
0.00059065906
-0.60601114
0.00023218923
-0.68472491
3.6216122e-05
-0.76783066
-0.84275939
0.017713948
-0.014518316
-0.017873595
0.017491631
-0.017005763
0.017199861
-0.019938821
0.0168356
-0.023388697
0.016398845
-0.027436697
0.015893246
-0.032171508
0.015326505
-0.037689984
0.014709837
-0.044098589
0.014055603
-0.051515972
0.013374277
-0.060074949
0.012675134
-0.069918284
0.011961488
-0.081197783
0.011225993
-0.094056973
0.010431551
-0.10857277
0.0095180363
-0.12457386
0.0083504599
-0.14146384
0.0070175258
-0.15877701
0.0060140792
-0.17819175
0.0052324795
-0.20141555
0.0045486263
-0.22777964
0.0039255712
-0.25737335
0.0033540057
-0.29106599
0.0028382387
-0.32897294
0.0023467972
-0.37190541
0.0019112064
-0.41977657
0.0014748604
-0.47446249
0.0010696422
-0.53502678
0.00067409923
-0.60561682
0.00026242124
-0.68430931
3.5221996e-05
-0.76759334
-0.84281387
0.01896143
-0.014446603
-0.019033258
0.018832672
-0.016877146
0.018637417
-0.019743737
0.018367458
-0.023118949
0.01801749
-0.027086989
0.017586036
-0.031740372
0.017075903
-0.037180245
0.016494045
-0.043517225
0.015850079
-0.050872626
0.015153731
-0.059379372
0.014413707
-0.069179193
0.013633158
-0.080418326
0.012803116
-0.093228183
0.011879429
-0.10765051
0.010781668
-0.12347776
0.009375042
-0.14005918
0.0078800242
-0.1572843
0.0068169188
-0.17713145
0.0059446585
-0.2005468
0.0051718441
-0.22701104
0.0044667188
-0.25667359
0.0038176718
-0.29042403
0.0032325689
-0.3283971
0.0026708559
-0.37135553
0.0021800434
-0.41929947
0.001676857
-0.47397307
0.0012222019
-0.53458403
0.00076913203
-0.60516523
0.00029916246
-0.6838347
2.8332367e-05
-0.76731202
-0.84248442
0.020216987
-0.014462708
-0.02020105
0.020183894
-0.01684425
0.020089479
-0.019649554
0.019922667
-0.022952414
0.019673609
-0.026838262
0.019335082
-0.031402242
0.018903612
-0.036749254
0.01838001
-0.042994205
0.017768774
-0.050262099
0.017076165
-0.058687622
0.016308043
-0.06841209
0.015465044
-0.079576516
0.014533656
-0.092298162
0.013457262
-0.10657569
0.012129435
-0.12215177
0.01045145
-0.13838338
0.0088409867
-0.1556764
0.0077141637
-0.17600779
0.0067453282
-0.19958191
0.0058746387
-0.22614507
0.0050784348
-0.25588339
0.0043435561
-0.28969709
0.0036796534
-0.32774357
0.0030394134
-0.37072854
0.0024855414
-0.41876099
0.0019069418
-0.47341004
0.001396488
-0.53408639
0.0008774191
-0.60464798
0.00034381105
-0.68329568
2.6384529e-05
-0.7669827
-0.84210725
0.021490604
-0.014559036
-0.021394499
0.021548845
-0.016902744
0.021554625
-0.019655624
0.021494019
-0.022892147
0.021353502
-0.026698141
0.021120344
-0.031169545
0.020784324
-0.036413778
0.020338883
-0.042549413
0.019781264
-0.049705254
0.019111222
-0.058018502
0.018328417
-0.067630374
0.017427016
-0.078676388
0.016383445
-0.091256069
0.015119976
-0.10531394
0.013496733
-0.12053056
0.011558783
-0.13644785
0.009919473
-0.15403995
0.0087104483
-0.17480233
0.0076394063
-0.19851527
0.0066637683
-0.22517475
0.0057676098
-0.25499392
0.0049390499
-0.28887739
0.0041857014
-0.32700182
0.0034591196
-0.37001672
0.0028321187
-0.41815122
0.0021705128
-0.47276597
0.0015955006
-0.53352479
0.0010015669
-0.60405633
0.00039807845
-0.68268592
2.914816e-05
-0.76659875
-0.84167204
0.022798451
-0.014722448
-0.02263529
0.022934831
-0.017039415
0.02303227
-0.019753401
0.023073719
-0.02293398
0.02304084
-0.026665697
0.022915948
-0.031045147
0.022682728
-0.036181131
0.022327059
-0.042194419
0.021837417
-0.049216415
0.02120397
-0.057386011
0.0204157
-0.066843238
0.019453861
-0.07771589
0.018274839
-0.090078629
0.016771112
-0.10381208
0.014793504
-0.11855518
0.012697612
-0.13435461
0.011106103
-0.15245166
0.0098081222
-0.17350832
0.0086287804
-0.19734081
0.0075439157
-0.22409586
0.0065395547
-0.25399701
0.0056097331
-0.28795742
0.0047556144
-0.32616062
0.0039356586
-0.36921315
0.0032234799
-0.41745826
0.0024720005
-0.47203416
0.0018220416
-0.53288941
0.0011440744
-0.60338131
0.00046228865
-0.68199685
3.5454474e-05
-0.76615517
-0.84116983
0.024153697
-0.014949887
-0.02392647
0.02436033
-0.017246331
0.0245318
-0.019925192
0.024654227
-0.023056776
0.024709798
-0.026721717
0.024678526
-0.031014379
0.024539234
-0.036042402
0.024270343
-0.041926184
0.023850109
-0.04879697
0.023255501
-0.056792359
0.022458488
-0.06604738
0.021416761
-0.076675554
0.020042337
-0.088705879
0.018233895
-0.10200567
0.015974998
-0.11629872
0.013894926
-0.13227745
0.012371355
-0.15093168
0.011005299
-0.17214665
0.0097122533
-0.19605322
0.0085193375
-0.22290967
0.007399238
-0.25288518
0.0063599266
-0.28692902
0.0053945831
-0.32520958
0.0044751434
-0.36831177
0.0036645606
-0.41666902
0.0028157866
-0.47120738
0.0020795573
-0.53216914
0.0013089369
-0.60261458
0.00053823569
-0.68121805
4.5162606e-05
-0.76564607
-0.84058942
0.025436925
-0.015216426
-0.025170153
0.02569063
-0.017499928
0.02591912
-0.020154075
0.026105664
-0.023244015
0.026231665
-0.026848393
0.026275763
-0.031059049
0.026213236
-0.035980395
0.026015686
-0.041729212
0.025650325
-0.048432333
0.025077262
-0.05622022
0.024242747
-0.06521402
0.023066453
-0.075500688
0.021411268
-0.087052459
0.019219815
-0.099816388
0.01701698
-0.11409851
0.01528671
-0.13055037
0.013734946
-0.14938385
0.01226558
-0.17068217
0.010889631
-0.19468346
0.0095631213
-0.22159063
0.0083484051
-0.25167957
0.0071900774
-0.28578273
0.0061061634
-0.32414139
0.0050813634
-0.36730675
0.0041597021
-0.41577088
0.0032059024
-0.47027811
0.0023710896
-0.53135271
0.001500368
-0.6017491
0.0006260063
-0.68033506
5.4090288e-05
-0.7650592
-0.8399198
0.026463366
-0.015492241
-0.026184839
0.026733335
-0.017769899
0.026981376
-0.020405767
0.027195405
-0.023460493
0.027355714
-0.027009837
0.02743837
-0.031142309
0.02741399
-0.035956401
0.02724573
-0.041561412
0.026887168
-0.04807444
0.026276302
-0.055610266
0.025325889
-0.064264783
0.023929184
-0.074105469
0.02206827
-0.085193412
0.01998432
-0.097734751
0.01813577
-0.1122528
0.016556918
-0.12897503
0.0150783
-0.14790959
0.013607965
-0.1692173
0.012153846
-0.19323623
0.010737014
-0.22018203
0.0093741028
-0.25032667
0.0081008781
-0.28452265
0.0068959962
-0.32295368
0.0057564267
-0.36618863
0.0047135691
-0.41475369
0.0036468071
-0.46923863
0.0027002314
-0.53042747
0.0017226137
-0.60077867
0.00072520629
-0.6793288
5.7332514e-05
-0.76437594
-0.84016464
0.026677378
-0.015729165
-0.026444378
0.026902255
-0.017995724
0.027114909
-0.020614932
0.027305915
-0.023649171
0.027455957
-0.027159137
0.027533616
-0.031220082
0.027496996
-0.035920423
0.02729837
-0.041363623
0.026882758
-0.047659752
0.026174861
-0.054903423
0.02511349
-0.063204684
0.023711887
-0.072705442
0.022159604
-0.083643088
0.020745298
-0.09632288
0.01943204
-0.1109426
0.018031106
-0.12757797
0.016517032
-0.14640035
0.014978085
-0.16768441
0.013459374
-0.19172508
0.011934949
-0.21866669
0.010489384
-0.24889207
0.0090938671
-0.28314122
0.007756652
-0.32163494
0.0064992073
-0.36495426
0.0053281239
-0.41361028
0.0041414227
-0.46808209
0.0030698963
-0.52938102
0.0019787801
-0.59969743
0.00084174201
-0.67818291
2.4937579e-05
-0.76354165
-0.83926643
0.025452461
-0.015989298
-0.025192225
0.025693432
-0.018236441
0.025890683
-0.020812017
0.026019887
-0.023778468
0.026069813
-0.027209436
0.026030248
-0.031181051
0.025891264
-0.035782113
0.02564958
-0.041122737
0.02529667
-0.047307758
0.02479337
-0.05440123
0.024156827
-0.062569493
0.023420063
-0.071970334
0.02263402
-0.0828591
0.021727431
-0.095418907
0.020581212
-0.10979975
0.019245812
-0.12624685
0.017814481
-0.14497432
0.016326831
-0.16620333
0.014789897
-0.19019648
0.013225441
-0.21711229
0.011689384
-0.24736774
0.010160222
-0.28162701
0.0086947503
-0.32018897
0.0073069871
-0.36359087
0.0059998194
-0.41233255
0.0046915104
-0.46680687
0.0034823079
-0.52820127
0.0022717386
-0.59850044
0.00098674271
-0.67688943
3.5047944e-05
-0.76257161
-0.83823275
0.022947862
-0.016337471
-0.022599741
0.023326015
-0.01861469
0.023731474
-0.02121763
0.024143688
-0.02419092
0.02453403
-0.027600108
0.02486059
-0.031508041
0.025054187
-0.03597625
0.025009903
-0.04107913
0.02473392
-0.047032629
0.024346274
-0.054014673
0.023976894
-0.06220149
0.023611869
-0.07160705
0.023150142
-0.082399598
0.022453338
-0.094725003
0.021549655
-0.1088998
0.020438195
-0.1251401
0.019113538
-0.14365545
0.017642895
-0.16473979
0.016104347
-0.18866696
0.014503383
-0.21552205
0.012892678
-0.24576962
0.011291827
-0.28004187
0.009720201
-0.31863736
0.0081593368
-0.36205503
0.006717391
-0.41092143
0.0052961117
-0.46542151
0.0039373507
-0.52687693
0.0025945142
-0.59717621
0.0011581475
-0.67544543
6.5468693e-05
-0.76146088
-0.83705588
0.020337116
-0.016607722
-0.020066929
0.020630397
-0.018908076
0.020945507
-0.021532888
0.021286008
-0.024531618
0.021649627
-0.02796399
0.022044685
-0.031903445
0.022506005
-0.036438027
0.023098551
-0.041672283
0.023665936
-0.047600815
0.024002744
-0.05435253
0.023946842
-0.062146978
0.023658013
-0.07132008
0.023295014
-0.082039056
0.022853757
-0.094286914
0.022199694
-0.1082498
0.021270175
-0.1242157
0.02013224
-0.14252377
0.018838
-0.16345326
0.01736896
-0.18720741
0.015778047
-0.2139425
0.014146268
-0.24415138
0.012431242
-0.27834284
0.010777896
-0.3170039
0.0090997371
-0.36040167
0.0074928695
-0.40934607
0.0059499982
-0.46391709
0.0044328409
-0.52539957
0.0029398863
-0.59570836
0.0013547855
-0.67385444
0.00014499456
-0.76023128
-0.83748169
0.020207875
-0.016875133
-0.019940452
0.020497107
-0.01919732
0.020810815
-0.021846643
0.02115151
-0.024872412
0.021520084
-0.028332732
0.02191032
-0.032293946
0.022305489
-0.036833587
0.022667691
-0.042035048
0.023034472
-0.047968378
0.023508692
-0.054827812
0.023952394
-0.062592112
0.023988327
-0.071357934
0.02359272
-0.081645947
0.023082369
-0.093779716
0.022543433
-0.10771497
0.021905254
-0.1235829
0.021027529
-0.14165276
0.019864952
-0.16229876
0.018468007
-0.18582024
0.016973416
-0.21246001
0.015356429
-0.24254855
0.013593552
-0.27659593
0.01186932
-0.31529851
0.010046819
-0.35860249
0.0083073275
-0.40763776
0.006632013
-0.46228203
0.0049621692
-0.5237749
0.0033074407
-0.59408646
0.0015727491
-0.67211736
3.8261536e-05
-0.75867207
-0.83593527
0.018909884
-0.017135457
-0.018649457
0.019195481
-0.019482829
0.019505574
-0.022156669
0.019836867
-0.025203676
0.020183025
-0.02867892
0.020533412
-0.032644454
0.020868737
-0.037169168
0.021171409
-0.04233816
0.021464296
-0.04826195
0.021686305
-0.055050833
0.021972001
-0.062879257
0.02261736
-0.072005301
0.023143414
-0.08217461
0.023053574
-0.093693104
0.022695105
-0.10736049
0.022174498
-0.12306769
0.021503937
-0.14098905
0.020621571
-0.16142477
0.019418322
-0.1846269
0.018022948
-0.21107673
0.016471286
-0.2410111
0.014684912
-0.27482504
0.01288904
-0.31351977
0.011043428
-0.35677729
0.0091599111
-0.40578348
0.0073359424
-0.46049886
0.005515953
-0.52200436
0.0036958311
-0.59230705
0.0018271234
-0.67025185
0.00023425276
-0.75704976
-0.83647394
0.018622686
-0.017375574
-0.018382343
0.018887297
-0.019747219
0.019178215
-0.02244738
0.019497554
-0.025522839
0.019846506
-0.029027749
0.020226988
-0.033024897
0.020644412
-0.037586681
0.021100621
-0.04279464
0.021578328
-0.048740178
0.022057427
-0.055530789
0.022454611
-0.063277722
0.022544243
-0.072096745
0.022658766
-0.082291808
0.022914582
-0.093952826
0.022708826
-0.10715972
0.022309023
-0.12267386
0.021803486
-0.14049068
0.021083465
-0.16071316
0.020048925
-0.18360179
0.018834058
-0.20987352
0.01741992
-0.23961075
0.015663837
-0.27308294
0.013881876
-0.31175295
0.011987839
-0.35489976
0.0099752033
-0.4037961
0.0080347285
-0.45859746
0.0060768049
-0.52009753
0.0040971937
-0.5903737
0.0020614972
-0.6682272
5.689405e-05
-0.75501699
-0.83442072
0.017163574
-0.017602969
-0.016935775
0.0174158
-0.019999024
0.017693163
-0.022724313
0.017995676
-0.025824931
0.018321379
-0.029353066
0.018666254
-0.033369465
0.019023071
-0.037943317
0.019381967
-0.043153529
0.019737892
-0.049096344
0.020091823
-0.055885323
0.020466446
-0.063653416
0.020921855
-0.072553855
0.02131492
-0.082687346
0.021763181
-0.094404506
0.022199355
-0.10760103
0.02200945
-0.12249116
0.02158154
-0.14007162
0.021048951
-0.16019018
0.020344404
-0.18290717
0.019347036
-0.20888768
0.018091199
-0.23836803
0.016471352
-0.27147559
0.014678768
-0.30997377
0.012861878
-0.35309584
0.010786991
-0.40174071
0.00870365
-0.45654822
0.0066187553
-0.51806036
0.0044817569
-0.58828211
0.002331899
-0.66609403
0.00053848074
-0.7532035
-0.83512596
0.016675436
-0.017813464
-0.016464265
0.016909539
-0.020232403
0.017168354
-0.022982355
0.017453561
-0.026109323
0.017767548
-0.029666213
0.018112654
-0.033713727
0.018491889
-0.038321751
0.01890919
-0.043570152
0.019361384
-0.04954808
0.019831575
-0.056355425
0.020284502
-0.064106749
0.020667757
-0.072938146
0.021018047
-0.083039567
0.021126517
-0.094516223
0.021265664
-0.10774462
0.021607742
-0.12283872
0.021337056
-0.13980902
0.02077371
-0.15963787
0.020202263
-0.18234867
0.019460191
-0.20815981
0.018394514
-0.23731579
0.017052012
-0.27014548
0.015357908
-0.30829262
0.013510248
-0.3512591
0.011461657
-0.39970558
0.0093273372
-0.45443945
0.0071159973
-0.51588557
0.0048789275
-0.58607881
0.0025335139
-0.66376084
0.00052211362
-0.75118415
-0.83594989
0.014960129
-0.018010515
-0.014762021
0.015181011
-0.020452139
0.015425831
-0.02322595
0.015695456
-0.026377657
0.015990139
-0.029959549
0.016309106
-0.034031295
0.016649845
-0.038661067
0.017008033
-0.043926963
0.017378526
-0.049917328
0.017758656
-0.056734577
0.018152674
-0.064500274
0.018572101
-0.073357807
0.018983238
-0.083451936
0.019469088
-0.095004622
0.01983254
-0.10811221
0.020154196
-0.12316622
0.020560283
-0.14022194
0.02033141
-0.15941702
0.019786118
-0.18181718
0.019199677
-0.20759151
0.018404052
-0.23653729
0.017356927
-0.26911228
0.015762469
-0.30671155
0.013956729
-0.34946519
0.011982071
-0.39773959
0.0098233635
-0.45229397
0.0075412958
-0.51362049
0.0052186146
-0.583765
0.0027968876
-0.66133159
9.6630536e-05
-0.74847789
-0.83285861
0.01420555
-0.018180093
-0.014034471
0.014395766
-0.020640729
0.014607385
-0.023435817
0.014842799
-0.026611207
0.01510447
-0.03021927
0.015394921
-0.034319752
0.015716784
-0.038980944
0.01607274
-0.044281
0.016466571
-0.050309432
0.01690082
-0.05716745
0.017368178
-0.064966865
0.0178444
-0.073834211
0.018316698
-0.083925646
0.018700258
-0.095390987
0.01908314
-0.10849971
0.019315558
-0.12340545
0.01952971
-0.14044544
0.019937043
-0.15983675
0.019633235
-0.18152612
0.018772261
-0.20674777
0.017952638
-0.2357394
0.017108821
-0.26828932
0.015802543
-0.30542029
0.01413425
-0.34781141
0.012290385
-0.3959008
0.01015215
-0.45015326
0.0078945437
-0.51135351
0.0055516529
-0.58139648
0.003255132
-0.65899784
0.0013823793
-0.74657994
-0.8338119
0.01215429
-0.018333629
-0.011998832
0.012328304
-0.020812665
0.012522275
-0.023627568
0.012737472
-0.026824068
0.012974759
-0.030454144
0.013234346
-0.034576906
0.013515387
-0.039259608
0.013815357
-0.044578747
0.014129337
-0.050621464
0.014450839
-0.057487432
0.01477557
-0.06529073
0.01509819
-0.074156941
0.015417452
-0.084246275
0.015780567
-0.095756967
0.016129126
-0.10885277
0.016513841
-0.12379675
0.01680987
-0.1407508
0.017065938
-0.16010593
0.017683952
-0.18215948
0.017797563
-0.20687267
0.017150643
-0.23511542
0.016357831
-0.26752563
0.015478741
-0.30456536
0.014030473
-0.34638267
0.012326277
-0.394201
0.010365556
-0.44817396
0.0081488923
-0.50909718
0.0057805299
-0.57896978
0.0036461189
-0.65680206
0.0018337957
-0.74472301
-0.83477747
0.011439414
-0.018454417
-0.011315823
0.011577793
-0.020947998
0.011732694
-0.023779181
0.011905795
-0.026993659
0.012098927
-0.030643581
0.012314114
-0.034788269
0.012553658
-0.039495277
0.012820273
-0.044841541
0.013117183
-0.050914731
0.013447746
-0.057814663
0.013814412
-0.065654489
0.01422187
-0.074561994
0.01465142
-0.084674093
0.015043604
-0.096148407
0.01537948
-0.10918938
0.015573304
-0.12399356
0.015717142
-0.14090089
0.015776162
-0.16017471
0.015825226
-0.18222595
0.016190196
-0.20726173
0.016144939
-0.23508943
0.015561338
-0.26697377
0.0147644
-0.30380409
0.013574325
-0.34522184
0.012129344
-0.39276783
0.010275881
-0.44629384
0.0082310809
-0.50698979
0.0059430276
-0.57660361
0.0036795582
-0.65446451
0.0014126668
-0.74239369
-0.83573322
0.0096596342
-0.018560087
-0.009550022
0.0097823191
-0.021066338
0.00991898
-0.02391108
0.010070627
-0.027140125
0.010238145
-0.030805514
0.010422205
-0.034966375
0.010623111
-0.03968992
0.010840544
-0.045052494
0.011073141
-0.05114077
0.011317991
-0.058053053
0.011571214
-0.065901564
0.011828546
-0.074813729
0.012090675
-0.084931528
0.012371738
-0.096426058
0.012682705
-0.10949878
0.01307978
-0.12439183
0.013507297
-0.14133368
0.013904136
-0.16058361
0.014009694
-0.18234995
0.014003794
-0.20728493
0.014305626
-0.23541586
0.014184832
-0.26686204
0.013520452
-0.30316391
0.012694127
-0.3444248
0.011511177
-0.39160763
0.0099370886
-0.44469957
0.0081040299
-0.5050851
0.0059943424
-0.57440015
0.0031658547
-0.65154175
-0.0015949515
-0.73757049
-0.83344265
0.0085442756
-0.018628955
-0.008470946
0.0086263211
-0.02114343
0.0087175514
-0.023996828
0.0088187597
-0.027235286
0.0089308169
-0.030910919
0.0090547689
-0.035083029
0.0091919336
-0.039819094
0.0093439873
-0.045195813
0.0095131301
-0.051300372
0.0097024612
-0.058231958
0.0099165015
-0.066104135
0.010160799
-0.075045686
0.010445799
-0.085203954
0.010770157
-0.096738012
0.011112546
-0.10982968
0.011427931
-0.12469829
0.011696935
-0.14159852
0.011898882
-0.16078735
0.012050138
-0.18251049
0.012129033
-0.20737683
0.012282056
-0.23559049
0.012268536
-0.26687918
0.011918187
-0.30283509
0.011407152
-0.34393767
0.010541887
-0.39076951
0.0092656044
-0.4434169
0.0077436171
-0.50350116
0.0059117802
-0.57246432
0.0029100353
-0.6484251
-0.0017397878
-0.73292505
-0.82787235
0.0072567893
-0.018679619
-0.0072010251
0.0073205778
-0.021201525
0.0073944781
-0.024064396
0.0074803213
-0.027314082
0.0075802168
-0.031002974
0.0076964615
-0.035190547
0.0078313642
-0.039944284
0.0079870944
-0.045340749
0.0081654838
-0.05146682
0.0083673811
-0.05842077
0.0085910032
-0.066313721
0.008832161
-0.075272018
0.0090840866
-0.085440351
0.0093426982
-0.096981066
0.009604764
-0.11007721
0.0098619542
-0.12494298
0.010101669
-0.14182913
0.010325815
-0.16100724
0.010461391
-0.18265073
0.010508372
-0.20743754
0.010615751
-0.23571615
0.010614994
-0.26690052
0.010183756
-0.3024046
0.009592306
-0.34333984
0.0087580868
-0.38993155
0.0077649149
-0.44237851
0.0066751009
-0.50236907
0.0053816325
-0.57116953
0.0035069909
-0.6465527
0.0041269085
-0.73372006
-0.8304333
0.005988894
-0.018695666
-0.0059625802
0.006018253
-0.021219231
0.0060502832
-0.024083217
0.006084722
-0.027333628
0.0061211046
-0.031022657
0.006158706
-0.03520953
0.0061965848
-0.039961493
0.006233566
-0.045354844
0.0062682385
-0.051476171
0.0062993675
-0.058423867
0.0063266777
-0.066309976
0.0063515158
-0.075262404
0.0063761155
-0.085426833
0.0064058633
-0.09696889
0.0064507544
-0.11007615
0.0065206519
-0.12496279
0.006625119
-0.14188002
0.0067882553
-0.16111443
0.0070554921
-0.18285734
0.0071750124
-0.2074974
0.0071632085
-0.23565383
0.0075937858
-0.26728781
0.0079367111
-0.30273316
0.007335409
-0.34275502
0.0063906752
-0.38900453
0.0056815394
-0.44170321
0.0048733787
-0.50163981
0.0036007413
-0.57014145
0.0032657503
-0.64650827
0.0053911004
-0.73608298
-0.83236189
0.0034794542
-0.0034977544
0.0034579719
0.003431508
0.0033997183
0.0033623407
0.0033189966
0.0032691727
0.0032123407
0.0031479079
0.0030751
0.0029925586
0.0028974868
0.0027850652
0.00264768
0.0024749953
0.0022525062
0.0019535985
0.0015342592
0.0010662087
0.00059329557
-6.6101644e-05
-0.00064033995
-0.00062005784
0.00010687418
0.00064406456
0.0010899871
0.0013827405
0.00086868492
0.00069032829
-0.0021328211
0.012838112
-0.012623421
0.010088463
-0.010303344
0.014735749
-0.016192396
0.014294535
0.016151737
-0.019779485
0.018363231
0.017280553
-0.023742019
0.022612896
0.018266342
-0.028274238
0.027288102
0.019176912
-0.03350286
0.032591906
0.02001932
-0.039507148
0.038664319
0.020812008
-0.046362735
0.045569586
0.021556129
-0.054233102
0.053488474
0.022226595
-0.06324016
0.062569144
0.022802992
-0.07352381
0.072946837
0.0232736
-0.085257396
0.084786203
0.023629397
-0.098639266
0.098282854
0.023858314
-0.11387133
0.11364171
0.023942933
-0.13115028
0.13106478
0.023824764
-0.15056221
0.15067924
0.023443007
-0.17191061
0.17229097
0.02268411
-0.19478346
0.19554058
0.021399851
-0.21767239
0.21895444
0.019936155
-0.24082745
0.24228838
0.018616968
-0.26827547
0.26959104
0.01731916
-0.30072917
0.30202228
0.015954722
-0.33782814
0.33918654
0.014493003
-0.37998831
0.38144245
0.012915166
-0.42708242
0.42865154
0.01120476
-0.48126134
0.48296354
0.0093329934
-0.54171814
0.54358411
0.0072635757
-0.6121769
0.61424402
0.004937224
-0.69052483
0.69285368
0.0025330311
-0.768811
0.77122722
-0.84562127
0.84834805
0.014086081
-0.014205902
-0.012503839
0.015157562
-0.017264143
0.016042519
-0.020664746
0.016867127
-0.024566968
0.017682885
-0.029090373
0.018489617
-0.034310003
0.019266607
-0.040284586
0.020006478
-0.047103098
0.020689572
-0.054916739
0.021291882
-0.063843055
0.021801702
-0.074034239
0.022211722
-0.085668035
0.02251434
-0.098942539
0.022697813
-0.11405557
0.022743891
-0.13119731
0.022588959
-0.15040851
0.022178793
-0.17150193
0.021389518
-0.19399604
0.020097233
-0.21638243
0.018705245
-0.23943847
0.017470253
-0.26704422
0.016243983
-0.29950779
0.014952006
-0.33654243
0.013570608
-0.37861474
0.012082437
-0.42560324
0.010472753
-0.47966004
0.0087118613
-0.53996308
0.006768747
-0.61023596
0.0045912315
-0.68834499
0.0023546609
-0.7665634
-0.84307964
0.013589048
-0.015084581
-0.012710634
0.014364508
-0.0180399
0.015150518
-0.021451085
0.015967705
-0.025384511
0.016789518
-0.029912572
0.017583416
-0.035104323
0.018331871
-0.041033505
0.019030108
-0.04780185
0.019657658
-0.055544859
0.020202517
-0.064388531
0.020657395
-0.074489754
0.021017257
-0.086028546
0.021275564
-0.099201541
0.021421337
-0.11420215
0.021437361
-0.13121435
0.021253236
-0.15022568
0.020821252
-0.17107152
0.02000839
-0.19318513
0.018729417
-0.2151059
0.017424357
-0.23813646
0.01627136
-0.26589513
0.015116412
-0.29835792
0.013899653
-0.33533215
0.01260195
-0.3773251
0.011208003
-0.42421854
0.0097032404
-0.47816386
0.0080594565
-0.53832517
0.0062488807
-0.60842743
0.0042267628
-0.6863204
0.0021670682
-0.76449304
-0.84099375
0.012587123
-0.015880108
-0.011791875
0.013407762
-0.018860843
0.014237872
-0.022281526
0.01505973
-0.02620673
0.015855366
-0.030708603
0.016608632
-0.035858024
0.017309995
-0.041735349
0.017952833
-0.048445225
0.018521916
-0.056114537
0.019009393
-0.064876651
0.019410695
-0.07489172
0.019722374
-0.086340904
0.019938598
-0.099418496
0.020048727
-0.11431314
0.020032227
-0.13119893
0.019822526
-0.15001734
0.019378915
-0.17062954
0.018547184
-0.19235545
0.017295285
-0.21385653
0.016082223
-0.23692655
0.015008821
-0.2648258
0.013928038
-0.29728238
0.012790806
-0.3342016
0.011581729
-0.37612432
0.01028753
-0.42293382
0.0088938975
-0.47677897
0.0073739641
-0.53681114
0.0057033532
-0.60675873
0.0038445773
-0.68445906
0.0019713504
-0.76260939
-0.83883622
0.011568947
-0.016732072
-0.010717256
0.012415349
-0.019707548
0.013245799
-0.02311231
0.014050922
-0.027012222
0.014817343
-0.031475429
0.01553209
-0.036573216
0.016187087
-0.042390841
0.016775355
-0.049034048
0.017287596
-0.056627396
0.017719738
-0.065309458
0.018069707
-0.075242377
0.018335452
-0.086607356
0.018511729
-0.099595541
0.018587789
-0.1143901
0.018537988
-0.13115027
0.018307557
-0.14978833
0.017858099
-0.17018178
0.01701527
-0.19151475
0.015804717
-0.21264861
0.014686265
-0.23581138
0.013692848
-0.26383655
0.012689238
-0.29628416
0.011635185
-0.3331544
0.010518796
-0.37501643
0.009328727
-0.42175342
0.0080510929
-0.47551022
0.0066605316
-0.53542651
0.005135932
-0.6052359
0.0034473852
-0.68276777
0.0017667808
-0.76091813
-0.83688424
0.010518033
-0.017604347
-0.0096460278
0.011368261
-0.020558083
0.012189982
-0.023934371
0.012972454
-0.027795069
0.013702978
-0.032206364
0.014372523
-0.037243214
0.014975558
-0.04299438
0.015507202
-0.04956626
0.015962788
-0.057083617
0.016341047
-0.065688402
0.016641648
-0.075543686
0.016863565
-0.086830004
0.017002031
-0.09973481
0.017046078
-0.1144351
0.016965685
-0.13107108
0.016720626
-0.14954474
0.016267489
-0.16973042
0.015419884
-0.19066935
0.01426353
-0.21149494
0.013241602
-0.23479279
0.012327643
-0.26292688
0.011403488
-0.29536553
0.010435842
-0.33219376
0.0094158556
-0.37400513
0.0083340515
-0.42068146
0.0071771304
-0.4743623
0.0059212037
-0.53417653
0.0045483514
-0.60386469
0.0030363513
-0.68125302
0.0015548737
-0.75942616
-0.83514472
0.0094392306
-0.0184869
-0.0085569587
0.010286133
-0.0214053
0.011088198
-0.024736782
0.011835328
-0.02854258
0.012519823
-0.032891275
0.013136959
-0.037860809
0.013683384
-0.043541315
0.014156873
-0.050040327
0.014556054
-0.057483445
0.014881641
-0.066014689
0.01513455
-0.075797321
0.015314528
-0.087010736
0.015417349
-0.099838463
0.015432059
-0.1144508
0.015326835
-0.1309671
0.015075916
-0.14929534
0.014618551
-0.16927486
0.013769351
-0.18982241
0.01267973