/*--------------------------------*- C++ -*----------------------------------*\
| =========                 |                                                 |
| \\      /  F ield         | OpenFOAM: The Open Source CFD Toolbox           |
|  \\    /   O peration     | Version:  2406                                  |
|   \\  /    A nd           | Website:  www.openfoam.com                      |
|    \\/     M anipulation  |                                                 |
\*---------------------------------------------------------------------------*/
FoamFile
{
    version     2.0;
    format      ascii;
    arch        "LSB;label=32;scalar=64";
    class       volScalarField;
    location    "0.062";
    object      nut;
}
// * * * * * * * * * * * * * * * * * * * * * * * * * * * * * * * * * * * * * //

dimensions      [0 2 -1 0 0 0 0];

internalField   nonuniform List<scalar> 
8260
(
0.033335208
0.037832115
0.043106726
0.049071474
0.055585223
0.062496855
0.069617284
0.076693271
0.08338434
0.08920817
0.093488045
0.095298395
0.093394977
0.08623119
0.072115826
0.05023422
0.026525542
0.012433837
0.0081338436
0.0068016414
0.0060174636
0.0054469389
0.0050410306
0.0047256173
0.0045171822
0.0043707276
0.0042731707
0.0042066696
0.0041595504
0.0041284958
0.0041117823
0.03940547
0.04402925
0.049106395
0.054698339
0.060763533
0.06718769
0.073792648
0.080324856
0.086438073
0.091642671
0.095237795
0.096279239
0.093508629
0.085389026
0.070279814
0.047819387
0.024246626
0.011735628
0.0079442971
0.0067270059
0.0059766765
0.0054205566
0.0050213694
0.0047130368
0.0045086496
0.0043658461
0.0042703728
0.0042050388
0.0041585225
0.0041278198
0.0041113237
0.046372879
0.050819693
0.055645159
0.060879673
0.066495622
0.072401036
0.078433261
0.084345737
0.089788494
0.094261971
0.097051929
0.097194257
0.09341776
0.084203274
0.067992196
0.04489011
0.022012511
0.01100892
0.007809391
0.0066906879
0.0059559989
0.0054065811
0.0050108888
0.0047062443
0.0045037413
0.0043629701
0.0042685737
0.0042038928
0.0041577011
0.0041271988
0.004110821
0.054319275
0.058405438
0.062861106
0.067666056
0.072779049
0.07810845
0.08349678
0.088701152
0.093367996
0.096987852
0.098835585
0.097929567
0.092989092
0.082523944
0.065099621
0.041378935
0.019711381
0.010377932
0.0076934134
0.0066348964
0.0059206378
0.0053816313
0.0049919489
0.0046939497
0.0044948162
0.0043578129
0.0042655342
0.0042020648
0.004156512
0.0041263792
0.0041102495
0.063239383
0.066827256
0.07080843
0.075086294
0.079607859
0.08427439
0.088924958
0.093313861
0.097080997
0.099706571
0.10045428
0.098327955
0.092043621
0.080155786
0.061413583
0.037218698
0.017408462
0.0097727941
0.0075656262
0.0065815695
0.0058876729
0.0053588029
0.0049751138
0.0046833217
0.0044872266
0.0043534374
0.0042628678
0.0042003905
0.004155363
0.0041255317
0.0041095994
0.072963602
0.075995435
0.079406037
0.083056916
0.086885322
0.090783785
0.094583569
0.09803104
0.10075588
0.10222629
0.10169442
0.098152705
0.090324828
0.076833304
0.056700475
0.032386482
0.015340212
0.0092200584
0.0074455143
0.0065160483
0.0058445239
0.0053281094
0.0049521849
0.0046686872
0.0044767023
0.0043473554
0.0042592447
0.0041981639
0.0041539052
0.0041244972
0.0041088593
0.083188478
0.085629692
0.088395409
0.091331249
0.094366472
0.097385151
0.10020918
0.10257423
0.10409723
0.10423271
0.10222122
0.097048383
0.087464909
0.072196175
0.050684822
0.026976381
0.013396327
0.0087279341
0.0073177061
0.0064461481
0.0057987538
0.0052958788
0.0049288039
0.0046541573
0.0044664951
0.0043414798
0.0042556831
0.0041959045
0.0041523926
0.0041233764
0.0041080176
0.093413122
0.095237074
0.097298449
0.099443438
0.10159275
0.10362124
0.10534026
0.10647324
0.10662296
0.1052297
0.10152338
0.094490409
0.082944807
0.065768299
0.043094035
0.02131756
0.011636675
0.0083607062
0.0071900158
0.0063637939
0.0057425973
0.0052558228
0.0048997588
0.0046359249
0.0044537407
0.0043340604
0.0042512353
0.0041931023
0.0041505718
0.0041220487
0.0041070614
0.10284038
0.10402421
0.10533128
0.10661962
0.10779942
0.10873413
0.1092227
0.10897457
0.10757752
0.10445819
0.098839251
0.089720696
0.076050618
0.056960681
0.033838151
0.016727218
0.010193282
0.0080606416
0.0070457443
0.0062721425
0.0056799989
0.0052115199
0.004868641
0.0046168344
0.0044408509
0.0043265223
0.0042466458
0.0041901322
0.0041486224
0.0041205783
0.0041059765
0.11022077
0.11075293
0.11126551
0.11164362
0.11178422
0.11153676
0.1106847
0.10892104
0.10581828
0.10079284
0.093068018
0.081678528
0.065844801
0.045186112
0.023560073
0.013125658
0.0090987063
0.0077746276
0.006886915
0.0061647203
0.005604381
0.0051579906
0.0048314349
0.0045938723
0.0044257101
0.0043174234
0.0042411095
0.0041865733
0.0041463248
0.0041188569
0.0041047451
0.11367309
0.11355381
0.11325508
0.11269346
0.1117507
0.11026037
0.10798785
0.10460847
0.099682857
0.092628343
0.082688662
0.068965004
0.051277618
0.030327979
0.016272578
0.010598866
0.0085207289
0.0075083439
0.0067012693
0.0060412882
0.005517791
0.0050980282
0.0047906905
0.0045693516
0.0044103274
0.0043079688
0.0042352317
0.0041827501
0.0041438148
0.0041169296
0.004103344
0.1104416
0.10965978
0.10856882
0.10708576
0.10507222
0.10234034
0.09863461
0.093616632
0.086851174
0.077793666
0.065765005
0.049948006
0.031795305
0.018568456
0.011825754
0.0090192607
0.0080676941
0.0071768684
0.0064903353
0.0058892952
0.0054164362
0.0050281274
0.004742858
0.0045407335
0.0043926195
0.0042968474
0.0042282934
0.0041783008
0.0041408772
0.0041146962
0.0041013061
0.096674249
0.095343308
0.093551451
0.091219832
0.088201352
0.084293753
0.079223508
0.072669147
0.064267396
0.053671828
0.040964204
0.028737108
0.018562725
0.01229048
0.0093690944
0.0083806628
0.0075254581
0.0068530017
0.0062358414
0.0057204831
0.0052957526
0.004950077
0.0046910912
0.0045108359
0.0043739012
0.0042852459
0.004220987
0.0041735531
0.0041376344
0.0041122059
0.0040990303
0.067933799
0.066103653
0.063881412
0.061276697
0.05815964
0.054367358
0.049735347
0.04420892
0.037742228
0.030423034
0.022698046
0.016072601
0.01152126
0.0091764973
0.0082895977
0.0075872264
0.007048095
0.0064326356
0.0059494463
0.0055064798
0.0051652483
0.0048640847
0.0046316088
0.0044779388
0.0043521296
0.0042720326
0.0042127455
0.0041681364
0.0041338937
0.0041093723
0.0040965288
0.038286132
0.037127549
0.035704141
0.034010646
0.031927953
0.029407549
0.026617974
0.023491032
0.020042183
0.016383435
0.012728118
0.0099214802
0.0084986619
0.0077990789
0.0075808066
0.0069080822
0.0063436428
0.006004423
0.0056161374
0.0053002556
0.0050135653
0.0047675475
0.0045762158
0.0044434896
0.0043299986
0.0042585992
0.0042042726
0.0041624097
0.0041298366
0.0041062521
0.0040938691
0.018996452
0.018589027
0.017983753
0.017214276
0.016255126
0.015107439
0.013837859
0.01247254
0.01105039
0.0096452607
0.0083283507
0.0075146965
0.0073009988
0.0072931051
0.0066278511
0.0062685136
0.005891244
0.0055359183
0.0052924476
0.0050604103
0.0048595455
0.0046746628
0.0045175861
0.0044070444
0.0043072354
0.0042442944
0.0041950697
0.0041558057
0.004125345
0.0041027532
0.0040911658
0.010094165
0.0099936732
0.0097876055
0.0095030893
0.0091540277
0.0087543087
0.0083364141
0.0078975662
0.0074457716
0.007036601
0.0068280231
0.0066179501
0.006529638
0.006215307
0.0061672497
0.0059144238
0.005515663
0.0052485834
0.0050245241
0.0048767945
0.0047198228
0.0045816401
0.0044722685
0.0043699716
0.0042859212
0.0042302902
0.0041860109
0.0041491553
0.0041205412
0.0040989325
0.004087705
0.0068361035
0.0068061164
0.0067416087
0.0066552806
0.0065541045
0.0064370709
0.006340833
0.0062584213
0.0062233585
0.0061954013
0.0060955846
0.0059703973
0.0058276166
0.0056919607
0.0055317628
0.0053832641
0.0052888475
0.0050694966
0.0048907495
0.0047402865
0.0046104965
0.00451574
0.0044190572
0.0043371197
0.0042649597
0.004216086
0.0041765258
0.0041414296
0.0041151896
0.0040947631
0.0040842807
0.0057588495
0.0057231209
0.0056991601
0.005685164
0.0056818707
0.0056805168
0.0057052876
0.0056932207
0.0056813696
0.0056579192
0.0056257701
0.0055604756
0.0054566519
0.0053363798
0.005190123
0.0051818171
0.0051070648
0.0049511161
0.0047894799
0.0046596861
0.0045503007
0.0044508936
0.0043802065
0.0043064785
0.0042473657
0.0042027375
0.0041668538
0.0041338485
0.0041094824
0.0040902335
0.0040801148
0.0052963908
0.0052967697
0.0052986878
0.0053030882
0.0053166446
0.0053364811
0.0053207103
0.0052961684
0.005249176
0.0051894136
0.0051445023
0.0051161733
0.0051290624
0.0050797255
0.0049751425
0.0048637014
0.0047978093
0.0047737442
0.0047029232
0.0045894698
0.0044719544
0.0044062675
0.0043447177
0.0042776534
0.0042293362
0.0041882256
0.0041566767
0.0041258137
0.0041029659
0.0040853849
0.0040760475
0.0049478895
0.0049444762
0.0049376724
0.0049217315
0.004896938
0.0048615997
0.0048493492
0.0048400442
0.0048269319
0.0048094153
0.0047896448
0.0047694857
0.0047302721
0.0047247474
0.0047466127
0.0047159556
0.0046310153
0.0045558207
0.0045366215
0.0044998668
0.0044258937
0.0043658302
0.0043064047
0.0042491221
0.0042153299
0.0041742378
0.0041467801
0.0041180135
0.0040965215
0.0040800996
0.0040712064
0.0046187778
0.0046190778
0.0046168961
0.004611704
0.0046065369
0.0046103848
0.0046165757
0.0046122184
0.0046076412
0.0045937272
0.0045558464
0.0045296113
0.0045064849
0.0044981116
0.0044860556
0.0044995548
0.0044966554
0.0044392194
0.004384478
0.0043554851
0.0043507475
0.0043257744
0.0042740457
0.0042249156
0.0041953788
0.0041599216
0.0041363468
0.0041093996
0.0040893791
0.0040745636
0.0040665641
0.0044408516
0.0044405931
0.0044384273
0.0044331528
0.0044251956
0.0044127404
0.0043946964
0.0043927593
0.0043890964
0.0043858443
0.004384882
0.0043860613
0.0043823693
0.0043649235
0.0043543376
0.0043373587
0.0043300446
0.0043415418
0.004304851
0.0042694981
0.0042536893
0.0042686135
0.0042441674
0.0042023309
0.0041757924
0.0041483638
0.0041250725
0.0041011784
0.00408191
0.0040686229
0.0040612027
0.004275248
0.0042764691
0.0042760474
0.0042744595
0.0042726602
0.0042720238
0.0042775513
0.0042829425
0.0042847599
0.0042858929
0.0042861798
0.0042879681
0.0042895306
0.0042839032
0.0042659913
0.0042592108
0.0042424349
0.0042292809
0.0042391899
0.0042177418
0.0041999663
0.004194186
0.004196897
0.0041781458
0.0041601905
0.0041321168
0.0041100625
0.0040910721
0.0040739599
0.0040623756
0.0040564621
0.0041880216
0.0041893538
0.0041893338
0.0041884279
0.0041868775
0.0041847218
0.0041812117
0.0041780499
0.0041773673
0.0041788526
0.0041815658
0.0041841411
0.0041875975
0.0042004831
0.0042024501
0.0041866263
0.0041811474
0.0041647954
0.0041668776
0.0041718698
0.0041692692
0.004155631
0.0041431058
0.0041498394
0.0041326891
0.0041141108
0.0040952654
0.0040793969
0.0040659923
0.0040562294
0.0040513234
0.0041114396
0.0041122894
0.0041125785
0.0041126687
0.0041129721
0.0041136602
0.0041147491
0.0041164834
0.0041205127
0.0041247172
0.004128686
0.0041321041
0.0041323015
0.0041273035
0.0041254272
0.0041260004
0.0041227163
0.0041290235
0.0041257401
0.0041310755
0.0041401067
0.00413456
0.0041121039
0.0041074244
0.0040974042
0.0040941546
0.0040764547
0.0040685861
0.0040583104
0.0040502994
0.0040456093
0.0040767981
0.0040775419
0.0040779878
0.0040784208
0.0040790202
0.0040796004
0.0040799143
0.0040796897
0.0040797025
0.0040799538
0.0040803264
0.0040805699
0.0040808766
0.0040820501
0.0040837616
0.0040858366
0.0040905288
0.0040903877
0.0040934013
0.0040888698
0.0040915214
0.0040887347
0.0040883033
0.0040788551
0.004075408
0.004071013
0.004066521
0.0040585048
0.004050692
0.0040452568
0.0040420507
0.0040560679
0.0040564508
0.0040566335
0.00405674
0.0040568778
0.0040570773
0.004057364
0.0040578088
0.0040583239
0.0040588956
0.0040595829
0.0040604446
0.0040619404
0.0040635134
0.0040646717
0.0040653006
0.0040659586
0.0040678068
0.0040671634
0.0040674295
0.0040671574
0.004064808
0.0040655523
0.0040627561
0.0040625051
0.0040592682
0.0040556724
0.0040509479
0.0040462404
0.0040422319
0.0040402203
0.004046203
0.0040463408
0.0040463959
0.0040464587
0.004046594
0.0040468156
0.0040471303
0.0040475703
0.0040480236
0.0040484979
0.0040490665
0.0040499402
0.0040514466
0.0040523546
0.0040528918
0.0040539482
0.0040550723
0.0040556775
0.0040560741
0.0040560498
0.004055662
0.0040558346
0.0040546654
0.0040542338
0.0040541144
0.0040519979
0.0040496838
0.004046649
0.0040434041
0.0040401195
0.0040368714
0.0040408681
0.0040410224
0.0040411611
0.0040413309
0.0040415503
0.0040418133
0.0040420954
0.0040422565
0.0040424151
0.0040425951
0.0040428564
0.0040437342
0.0040451424
0.0040456407
0.0040454195
0.0040456632
0.0040462025
0.0040467486
0.0040478439
0.0040484722
0.004048514
0.0040491356
0.0040489157
0.0040485544
0.0040483724
0.0040474956
0.004046209
0.0040443941
0.0040399525
0.0040368323
0.0040369987
0.004035497
0.0040356026
0.004035739
0.0040359208
0.0040361608
0.0040364675
0.0040368489
0.0040373176
0.0040378926
0.0040386096
0.0040395103
0.0040407423
0.0040416326
0.0040418726
0.0040416741
0.0040415596
0.004041974
0.0040429173
0.0040433779
0.0040440441
0.0040447393
0.0040436646
0.004045148
0.0040448416
0.0040447684
0.004044377
0.0040434588
0.0040411749
0.0040398882
0.004039292
0.0040379916
0.00075178304
0.0016198773
0.0032322323
0.0056201177
0.0087713913
0.01276977
0.017694272
0.023587844
0.030524765
0.038055488
0.046298249
0.054877703
0.063136677
0.070048403
0.074068706
0.073001488
0.064143193
0.046694506
0.026432762
0.012773288
0.0075602302
0.0059893131
0.0053717556
0.0049782958
0.0047003674
0.0044893335
0.0043455653
0.0042513122
0.0041892701
0.0041493775
0.0041288369
0.0018442878
0.003683224
0.0060679214
0.0089312903
0.012432772
0.016670354
0.021703024
0.027807858
0.034550524
0.042022338
0.050093854
0.058335151
0.066045878
0.072147243
0.075046765
0.072526324
0.061983865
0.043328127
0.023280556
0.01152229
0.0071544211
0.0058714375
0.0053260955
0.0049499422
0.0046824409
0.0044781728
0.0043393776
0.0042479733
0.004187434
0.0041483325
0.0041283294
0.0033733335
0.0053340348
0.0077608001
0.010806145
0.014581875
0.019164696
0.024643245
0.030915458
0.037842524
0.045420131
0.05341814
0.061382226
0.068581325
0.073895813
0.075696459
0.071762814
0.059646904
0.040105694
0.020856843
0.010321036
0.006855034
0.0058203819
0.005305395
0.0049362124
0.0046734912
0.0044719993
0.00433573
0.0042457911
0.0041860841
0.0041474554
0.004127725
0.0048578157
0.0070241974
0.0097623348
0.01314057
0.017195369
0.022033465
0.027727682
0.034041582
0.04106176
0.048653229
0.056523473
0.06417988
0.070849191
0.075367978
0.076073785
0.070758081
0.057170385
0.037029812
0.018734066
0.0096250734
0.0066963897
0.0057591229
0.005273754
0.0049139698
0.0046588993
0.004462749
0.0043304936
0.0042428983
0.004184418
0.004146466
0.0041270637
0.0063344088
0.008801763
0.011826345
0.015453474
0.019762585
0.024858909
0.030624838
0.037085851
0.044190209
0.051756758
0.059461857
0.066779175
0.072894662
0.076603786
0.076216291
0.069547034
0.054591191
0.034078526
0.016853467
0.0088847196
0.0065292305
0.0057158969
0.0052528357
0.0048989735
0.0046491008
0.0044562717
0.0043267037
0.004240665
0.0041830292
0.0041455666
0.0041263811
0.0078865935
0.010606033
0.013863918
0.017723566
0.022319297
0.027590168
0.033505718
0.040091531
0.047240794
0.054745163
0.062252651
0.069202886
0.074742838
0.077630517
0.076153511
0.068155952
0.051947885
0.031257579
0.01520955
0.0084139061
0.0064252578
0.0056730002
0.0052276596
0.0048803253
0.0046367381
0.0044483366
0.0043221274
0.0042380749
0.0041814764
0.0041446068
0.0041256867
0.0093981942
0.012360712
0.015870461
0.020011042
0.024825429
0.030259928
0.036344723
0.043034156
0.050201536
0.057617224
0.064902041
0.071462976
0.076410849
0.078470171
0.075911551
0.066618891
0.049276817
0.028610805
0.013811808
0.007964082
0.0063269906
0.0056378819
0.0052079673
0.0048655439
0.004627005
0.0044420061
0.0043184059
0.0042358759
0.0041800894
0.004143698
0.004124986
0.010863371
0.014092437
0.017865088
0.022292722
0.027283555
0.032901218
0.039130589
0.045900258
0.053064185
0.060370293
0.067412852
0.073567989
0.07791322
0.079143213
0.075516097
0.064971804
0.04660961
0.026172202
0.012661545
0.0076583459
0.0062578737
0.005605249
0.0051870251
0.0048494489
0.0046162683
0.004435078
0.0043143426
0.0042335176
0.0041786271
0.0041427591
0.0041242806
0.012326935
0.015806847
0.019847946
0.024495594
0.029689172
0.035485341
0.041845022
0.048678664
0.055822054
0.063001929
0.069787536
0.075526053
0.079264431
0.079670913
0.074999146
0.063246906
0.044005785
0.023969911
0.011746822
0.0074132977
0.0061955852
0.0055769798
0.0051691758
0.0048356329
0.0046070839
0.0044291352
0.004310812
0.0042314026
0.0041772696
0.0041418506
0.004123571
0.013745196
0.017479731
0.021790392
0.02663172
0.032036211
0.038002646
0.044478957
0.051361696
0.058470002
0.065510682
0.072029392
0.07734617
0.080479952
0.080075644
0.07439323
0.061482306
0.041479004
0.022017298
0.010973704
0.0072388923
0.006147811
0.0055513928
0.0051513925
0.0048216371
0.0045976634
0.0044230392
0.0043071788
0.0042292355
0.0041758868
0.0041409293
0.004122858
0.015149285
0.019131414
0.023673391
0.028718094
0.034324068
0.040445507
0.04702404
0.053942485
0.061003919
0.067896239
0.07414291
0.079038584
0.081576415
0.080381097
0.073725774
0.059712444
0.039068426
0.020321799
0.010372661
0.0070985442
0.0061055737
0.0055289033
0.0051356407
0.004809188
0.0045892558
0.0044176016
0.0043039043
0.0042272321
0.0041745758
0.004140028
0.0041221415
0.016513739
0.020744024
0.025491806
0.030749384
0.036542364
0.042803467
0.049471972
0.056414848
0.063420631
0.070159339
0.076133687
0.080614676
0.082571241
0.080615809
0.073025795
0.057973545
0.036810049
0.018882281
0.009887571
0.0069942422
0.0060719731
0.0055088926
0.0051205603
0.0047971238
0.0045809793
0.0044122373
0.0043006533
0.0042252354
0.0041732667
0.0041391238
0.004121422
0.017854448
0.0223106
0.027259931
0.032717039
0.038671302
0.045067372
0.051815323
0.058773293
0.065717756
0.072301553
0.078008112
0.082086598
0.083482818
0.080800036
0.072318795
0.056299108
0.03473031
0.017682872
0.0095231202
0.006912851
0.0060430867
0.0054914122
0.0051070645
0.0047862757
0.0045734368
0.0044073588
0.0042976665
0.0042233607
0.0041720115
0.0041382347
0.0041206997
0.019167759
0.023826616
0.02897367
0.034613055
0.040705922
0.047231599
0.054046379
0.061012423
0.067893473
0.074326201
0.079774397
0.083470798
0.084333238
0.08095375
0.071632081
0.054711568
0.03284923
0.016708493
0.0092543811
0.0068524675
0.0060200484
0.0054761949
0.0050945492
0.0047761018
0.0045661932
0.0044026676
0.0042947679
0.0042215258
0.0041707727
0.0041373486
0.004119975
0.020460302
0.025297719
0.030626937
0.036432473
0.042670007
0.049268974
0.056160909
0.063131092
0.069948997
0.076240785
0.081445207
0.084778969
0.085140384
0.0811091
0.071003698
0.053226022
0.031178702
0.015942925
0.0090783033
0.0068075803
0.0060012164
0.005463235
0.0050834469
0.0047670024
0.0045595341
0.0043983698
0.0042920807
0.0042197921
0.0041695784
0.0041364763
0.0041192471
0.02171264
0.026720622
0.032213937
0.038166277
0.04452836
0.051222785
0.05813476
0.065124367
0.071885996
0.07804207
0.083022138
0.08602034
0.085920045
0.081291956
0.070467116
0.051874657
0.029727999
0.015375793
0.0089479821
0.0067739618
0.0059869329
0.0054524122
0.0050734919
0.0047587279
0.0045532468
0.0043943139
0.0042895129
0.004218117
0.0041684095
0.0041356123
0.0041185148
0.02286884
0.028049283
0.033700938
0.039791191
0.046265229
0.053042248
0.059995884
0.066956808
0.073668672
0.079722571
0.08450388
0.087207829
0.086692471
0.081526366
0.070052358
0.050712194
0.028537665
0.014897088
0.0088159067
0.0067470572
0.0059764878
0.0054437296
0.0050648831
0.0047514629
0.0045474671
0.0043905995
0.0042871254
0.0042165328
0.0041672795
0.0041347613
0.0041177782
0.023911984
0.029227441
0.035016313
0.041233547
0.047819287
0.054682707
0.061693425
0.068665774
0.075324391
0.081258615
0.085889622
0.088350966
0.087473912
0.081834133
0.069785356
0.0497817
0.027587246
0.014498275
0.008705663
0.00672901
0.0059698948
0.0054371369
0.0050575007
0.0047450908
0.0045420963
0.0043871496
0.0042848706
0.0042150179
0.0041661789
0.0041339205
0.0041170377
0.025009262
0.030384484
0.036244956
0.0425434
0.049208121
0.056141088
0.063204153
0.070201962
0.076845726
0.082714015
0.087203376
0.08943246
0.088276296
0.082234274
0.06968828
0.049115471
0.026859762
0.014163494
0.0086061273
0.0067182435
0.0059668545
0.0054326567
0.0050514379
0.0047396949
0.0045372043
0.0043840115
0.0042827787
0.0042135894
0.0041651154
0.0041330927
0.0041162938
0.026096443
0.031509695
0.037406514
0.043745993
0.050456321
0.057436063
0.06453935
0.071563511
0.078207728
0.084038623
0.088436714
0.090517893
0.089114429
0.082721967
0.069778408
0.048737123
0.026345104
0.013880124
0.0085189953
0.0067154221
0.005967153
0.0054303099
0.0050466669
0.0047352322
0.0045327606
0.0043811498
0.0042808277
0.0042122369
0.0041640846
0.0041322764
0.0041155467
0.027151757
0.032573207
0.038476325
0.044826719
0.05155482
0.058562104
0.065694963
0.072746775
0.079406598
0.085230222
0.089582512
0.091568736
0.089996338
0.083359036
0.07005763
0.048663461
0.026043262
0.013630384
0.008439226
0.006719703
0.0059716982
0.0054302546
0.0050432791
0.0047317573
0.0045288155
0.0043785884
0.0042790323
0.0042109676
0.00416309
0.004131472
0.0041147966
0.028165453
0.033562194
0.039438738
0.045770645
0.05248944
0.059511048
0.066689001
0.073793707
0.080501595
0.086335216
0.090662077
0.092593159
0.090921687
0.084121802
0.070572683
0.048907384
0.025971931
0.013390496
0.0083639041
0.0067333001
0.0059795267
0.0054325596
0.0050413255
0.0047292539
0.0045253622
0.0043763036
0.0042773761
0.0042097711
0.0041621265
0.0041306766
0.0041140431
0.029144215
0.034457806
0.040259072
0.046540515
0.05326006
0.06030965
0.067528066
0.074669109
0.08140229
0.087272331
0.091631481
0.093576081
0.091887595
0.085014211
0.071303557
0.049492705
0.026121435
0.01313313
0.0082883731
0.0067528505
0.0059915605
0.0054369063
0.0050407651
0.0047276761
0.0045223894
0.0043742795
0.0042758503
0.004208641
0.0041611911
0.0041298887
0.0041132866
0.030089396
0.035229849
0.040865112
0.047017485
0.0536644
0.060689869
0.067921653
0.075114728
0.081929372
0.087891467
0.092343082
0.094368032
0.09273119
0.085864282
0.072071337
0.050192565
0.02649162
0.012798374
0.0082172336
0.0067792748
0.0060061629
0.0054422628
0.0050410836
0.0047268507
0.0045198147
0.0043724614
0.0042744276
0.0042075642
0.0041602803
0.0041291085
0.0041125275
0.00077157959
0.0015695931
0.0030888586
0.0053506775
0.0083498666
0.012109042
0.016757039
0.022383614
0.029093783
0.036465992
0.044615228
0.053188321
0.061559582
0.068756088
0.073278026
0.072959722
0.065043548
0.048280646
0.027831576
0.013265792
0.0076727545
0.0060209811
0.0053844003
0.004987665
0.0047069202
0.0044940818
0.0043484105
0.0042530409
0.0041903249
0.0041500617
0.0041291267
0.00081867282
0.0016153555
0.0031093558
0.005309269
0.0082259646
0.011923025
0.016499364
0.022036969
0.028631208
0.035927315
0.043950119
0.052419999
0.060771462
0.068032232
0.072732045
0.072735522
0.06531458
0.049010916
0.028571073
0.013589999
0.007745161
0.0060397793
0.0053917556
0.0049936214
0.0047112414
0.0044970986
0.004350241
0.0042541632
0.0041910476
0.004150578
0.0041294183
0.00087663401
0.0016646167
0.0031394951
0.0053000979
0.0081602972
0.011783147
0.016263405
0.021687555
0.028133219
0.035321197
0.043239821
0.051632484
0.05995508
0.067274236
0.072149781
0.072479837
0.065566684
0.049753502
0.029358783
0.013943892
0.0078267109
0.0060602249
0.0053999991
0.0049999315
0.0047156886
0.0045007199
0.0043524167
0.0042555252
0.0041918619
0.0041510923
0.004129789
0.00094431224
0.0017191086
0.0031714379
0.0052912389
0.0080937705
0.011641309
0.01602489
0.021330264
0.027631625
0.034704984
0.042514065
0.050821798
0.059110042
0.066481158
0.071529396
0.072189963
0.065795488
0.05050697
0.030194585
0.01433545
0.0079195375
0.0060822877
0.0054077229
0.0050064471
0.0047204909
0.0045037722
0.0043542952
0.004256703
0.0041926463
0.0041516825
0.0041302428
0.0010225669
0.0017803752
0.0032050379
0.0052832033
0.0080278404
0.01149938
0.015785483
0.0209688
0.027127227
0.034080873
0.041774247
0.049989699
0.058236872
0.065652843
0.070869713
0.071863594
0.065996509
0.051272317
0.031076742
0.014766657
0.0080257533
0.006107621
0.0054184752
0.0050138142
0.0047254129
0.0045080782
0.0043568659
0.004258318
0.004193594
0.0041522943
0.0041305924
0.0011162596
0.0018516868
0.0032468589
0.0052819411
0.0079675884
0.011361694
0.015548934
0.02061194
0.026622393
0.033450524
0.04102164
0.049137912
0.057336046
0.064789168
0.070169651
0.071498438
0.066165987
0.052043279
0.031994589
0.015247623
0.0081446799
0.0061339072
0.0054269741
0.0050211649
0.0047308768
0.0045121561
0.0043593239
0.0042598927
0.0041945468
0.004152945
0.0041309137
0.0012275972
0.0019399037
0.0032959957
0.0052851223
0.0079104133
0.011226002
0.015313561
0.020255017
0.026116857
0.032816402
0.040258886
0.048269429
0.056410373
0.063892383
0.069429914
0.071092735
0.066302445
0.052812616
0.032953628
0.015774074
0.0082788629
0.0061634366
0.0054376075
0.0050291165
0.0047364165
0.0045164616
0.0043619298
0.0042615759
0.0041955574
0.0041536371
0.0041313019
0.0013630815
0.0020463857
0.0033618332
0.0053022847
0.007866015
0.01110235
0.015089665
0.019909076
0.025626493
0.032186414
0.039495141
0.047392495
0.055466072
0.062967638
0.068653248
0.070645526
0.066402771
0.05357557
0.033979564
0.016354713
0.0084306019
0.0061959359
0.0054489816
0.0050372886
0.004742146
0.0045209939
0.0043646618
0.0042633664
0.0041966206
0.0041543673
0.0041319065
0.0015274478
0.0021726953
0.0034457905
0.0053356156
0.0078362735
0.010992034
0.014877885
0.019573875
0.025143124
0.031560892
0.038729576
0.046505982
0.054499616
0.062013454
0.067837586
0.070153305
0.066461859
0.05432749
0.035062181
0.0169947
0.0086016091
0.006231522
0.0054613905
0.0050460458
0.0047481474
0.0045257437
0.0043675553
0.0042652795
0.0041977504
0.0041551408
0.0041326154
0.0017278285
0.0023321794
0.0035574893
0.0053912734
0.0078257728
0.010899081
0.014681902
0.019252052
0.024665257
0.030941956
0.037965795
0.045614236
0.053528605
0.061033193
0.066983898
0.069614672
0.066475646
0.055066857
0.036190934
0.017699303
0.0087952053
0.0062712427
0.0054745089
0.0050548061
0.0047543354
0.0045307318
0.0043705751
0.004267303
0.004198935
0.0041559526
0.0041332871
0.0019678864
0.0025263492
0.0036948347
0.0054716137
0.0078381079
0.01082722
0.014505422
0.018948243
0.024212251
0.030334582
0.037207877
0.044720945
0.052543739
0.06002934
0.06609362
0.069028858
0.066439674
0.055780885
0.037363808
0.018475426
0.0090143867
0.0063148177
0.0054894235
0.0050644241
0.0047607892
0.0045359062
0.0043737739
0.0042694668
0.0042001991
0.0041568163
0.0041339434
0.0022527418
0.0027661966
0.0038802174
0.0055847036
0.0078776264
0.010779946
0.014351818
0.018666033
0.023781936
0.02974593
0.036460451
0.043830003
0.051546866
0.059004715
0.065168688
0.06839562
0.066350234
0.056456629
0.038548359
0.01932253
0.0092623606
0.0063644258
0.0055044057
0.0050736073
0.0047674847
0.0045413276
0.0043770915
0.0042717245
0.0042015169
0.0041577173
0.0041346452
0.0025859835
0.0030536964
0.0040973229
0.0057317173
0.0079469575
0.010759813
0.014224012
0.01840868
0.023376802
0.029178386
0.035728503
0.042946047
0.050546689
0.057962933
0.064211574
0.067715308
0.06620436
0.057088038
0.039734263
0.020245661
0.0095435362
0.0064190368
0.0055227468
0.0050841012
0.0047742867
0.0045468523
0.0043805967
0.0042741415
0.0042029315
0.0041586793
0.0041353904
0.0029727647
0.0033922054
0.0043571538
0.0059165374
0.0080488208
0.010768945
0.014124442
0.01817766
0.022996542
0.028620205
0.035013145
0.042073171
0.04954754
0.056906307
0.063225161
0.066988955
0.065999777
0.057668045
0.040932248
0.021248815
0.0098610585
0.006481834
0.0055395713
0.0050935627
0.0047815571
0.0045526572
0.0043842142
0.0042766087
0.0042043952
0.0041596697
0.0041361735
0.003416893
0.0037872701
0.0046710435
0.0061374302
0.0081820261
0.010807282
0.014053318
0.01797538
0.022643517
0.028095868
0.03431917
0.041215686
0.04855381
0.055836415
0.06221299
0.06621841
0.065734722
0.058187804
0.042131604
0.022329353
0.010221718
0.0065530867
0.0055617799
0.0051048672
0.0047884675
0.0045584049
0.0043880069
0.0042792561
0.0042059752
0.0041607317
0.0041369881
0.0039251596
0.00424486
0.0050421334
0.0064128537
0.0083513388
0.010875087
0.014010123
0.017802457
0.022319342
0.027605813
0.033661218
0.040380634
0.047572962
0.054782218
0.061182155
0.065406768
0.065409006
0.058638189
0.043330026
0.023492303
0.010624324
0.0066303612
0.0055815992
0.0051148878
0.0047963411
0.0045645167
0.004391914
0.0042818865
0.0042075943
0.0041618052
0.0041378323
0.0044930495
0.0047622652
0.0054647547
0.0067177441
0.008552311
0.010970827
0.01399378
0.017658764
0.022025224
0.027147447
0.033024069
0.039570451
0.046609443
0.053726996
0.060136881
0.064558001
0.065024603
0.05901489
0.044514803
0.024717752
0.011084572
0.0067291671
0.0056058598
0.0051264786
0.0048030349
0.0045703028
0.0043959493
0.0042847088
0.0042093388
0.0041629644
0.0041387039
0.005109144
0.0053311498
0.0059389469
0.0070688876
0.0087879325
0.011095368
0.014004541
0.017544466
0.021761716
0.026719288
0.032406569
0.038784601
0.045666386
0.05267435
0.059081849
0.063676644
0.064584613
0.059323782
0.045689126
0.026051466
0.011590679
0.0068259261
0.0056331856
0.0051382136
0.0048112532
0.0045765517
0.0044000994
0.0042874516
0.0042111063
0.0041641072
0.0041395983
0.0057454355
0.0059340187
0.0064586093
0.0074715401
0.0090622442
0.01125085
0.014043808
0.017460742
0.021531347
0.026328321
0.031843013
0.038046014
0.044753961
0.051638364
0.058022413
0.062767153
0.064088282
0.059563337
0.046834743
0.027441203
0.012171108
0.0069561711
0.0056567098
0.0051486262
0.004817673
0.0045821763
0.0044043204
0.0042903533
0.0042129708
0.0041653546
0.0041405127
0.0063749247
0.0065486334
0.0070128506
0.0079202008
0.0093833219
0.011446478
0.014118946
0.017413388
0.021339461
0.025979812
0.031323194
0.037346649
0.043877954
0.05062472
0.05695188
0.061833151
0.063536879
0.059720921
0.047918659
0.028858274
0.012803143
0.0070963078
0.0056928188
0.0051630421
0.0048252358
0.0045881277
0.0044085871
0.004293166
0.0042148531
0.0041665561
0.0041414439
0.0069731015
0.0071507548
0.0075846772
0.0084113653
0.0097593618
0.011697588
0.014245911
0.017414335
0.021198203
0.025681088
0.030849036