/*--------------------------------*- C++ -*----------------------------------*\
| =========                 |                                                 |
| \\      /  F ield         | OpenFOAM: The Open Source CFD Toolbox           |
|  \\    /   O peration     | Version:  2406                                  |
|   \\  /    A nd           | Website:  www.openfoam.com                      |
|    \\/     M anipulation  |                                                 |
\*---------------------------------------------------------------------------*/
FoamFile
{
    version     2.0;
    format      ascii;
    arch        "LSB;label=32;scalar=64";
    class       volScalarField;
    location    "0.01";
    object      alphat;
}
// * * * * * * * * * * * * * * * * * * * * * * * * * * * * * * * * * * * * * //

dimensions      [1 -1 -1 0 0 0 0];

internalField   nonuniform List<scalar> 
8260
(
0.055242258
0.063207009
0.072823675
0.083979376
0.096692896
0.11104582
0.1271677
0.14523225
0.16550398
0.18829749
0.21398807
0.24306188
0.27602873
0.31345015
0.35593337
0.40410341
0.4586147
0.52014034
0.58938231
0.6671051
0.7541012
0.85116241
0.95893665
1.0776931
1.2069645
1.3447813
1.486781
1.6248832
1.7468752
1.8342423
1.8746827
0.065474502
0.073762976
0.083143834
0.09387034
0.10610556
0.11998484
0.13566259
0.15333215
0.17325759
0.19575649
0.22120973
0.25008839
0.28290132
0.320204
0.36259445
0.41068579
0.46512346
0.52657466
0.59573913
0.67337644
0.7602762
0.85722512
0.96486624
1.0834601
1.2125236
1.350068
1.4917018
1.6292945
1.7505291
1.836717
1.8755134
0.077363543
0.085548793
0.094698733
0.10506804
0.1168643
0.13027177
0.14548239
0.16271797
0.18225349
0.20441662
0.22959439
0.25824657
0.29087622
0.32803596
0.37031344
0.41830812
0.47265547
0.53401591
0.60308585
0.68061947
0.76740239
0.86421537
0.97169571
1.0900948
1.2189133
1.3561404
1.4973502
1.6343609
1.7547482
1.8395829
1.8764385
0.091164817
0.098993768
0.10781305
0.11779801
0.12915361
0.1420854
0.15681308
0.17358532
0.19269427
0.21448098
0.2393401
0.26772647
0.30013502
0.33711232
0.3792405
0.42710368
0.48132632
0.54256172
0.61150279
0.68889857
0.77553015
0.87217197
0.97945463
1.0976188
1.2261453
1.363001
1.5037171
1.6400554
1.7594682
1.8427671
1.8773729
0.10706367
0.11439931
0.1227957
0.13233555
0.14321689
0.15565201
0.16987597
0.18615702
0.2048045
0.22617374
0.25066829
0.27874224
0.3108857
0.34763637
0.38956775
0.43725674
0.49131363
0.5523843
0.62115816
0.69837947
0.78482372
0.88125817
0.98830502
1.1061921
1.2343777
1.3708011
1.5109514
1.646522
1.7648273
1.8463788
1.8783978
0.12515085
0.1319669
0.13987721
0.14891978
0.15928973
0.17120252
0.18490146
0.20066745
0.2188238
0.2397387
0.2638248
0.29153802
0.32336874
0.35984448
0.40152564
0.44898753
0.50282951
0.56368713
0.63224646
0.70924733
0.79545841
0.89163865
0.99840008
1.1159552
1.2437372
1.3796537
1.519146
1.6538316
1.7708707
1.8504345
1.8795076
0.14548793
0.15180704
0.1592173
0.16774531
0.17758823
0.18896596
0.20212824
0.21736489
0.23500979
0.25544154
0.27908109
0.30638803
0.3378539
0.37400031
0.41537472
0.46254651
0.51611238
0.57669782
0.64498431
0.72170799
0.80762949
0.90349837
1.0099146
1.1270725
1.2543767
1.3896993
1.5284285
1.662097
1.7776915
1.8549964
1.8806852
0.16809856
0.173985
0.18092361
0.18895934
0.1982941
0.20915186
0.2217881
0.23649994
0.25362936
0.27356292
0.29672839
0.32358961
0.35463979
0.39039709
0.4314022
0.47821651
0.53143259
0.59167474
0.65961861
0.73599694
0.82156099
0.91704967
1.0230487
1.1397309
1.2664684
1.4010928
1.5389344
1.6714322
1.785376
1.8601137
1.8819101
0.19293968
0.19849233
0.20503225
0.21264164
0.22153019
0.2319232
0.24407985
0.25830273
0.27493969
0.29438282
0.31706491
0.34345358
0.37404426
0.40935451
0.44992207
0.49630626
0.5490943
0.60890841
0.67642781
0.75238032
0.8375062
0.93253213
1.0380273
1.1541394
1.2802031
1.4140053
1.5508121
1.6819605
1.7940193
1.8658418
1.8831431
0.21982506
0.22517639
0.23146345
0.23877305
0.24732963
0.25736467
0.26913749
0.28295257
0.2991604
0.31815577
0.34037414
0.3662859
0.39638922
0.43120391
0.47126922
0.51714626
0.56942434
0.62872173
0.69572087
0.77115442
0.85574793
0.95021351
1.0551017
1.1705303
1.2957921
1.4286238
1.5642217
1.6938136
1.8037196
1.8722347
1.8843238
0.24852359
0.25378508
0.25999212
0.26720284
0.2756083
0.28545265
0.29699639
0.31054168
0.32643686
0.34507524
0.36689183
0.39235797
0.42197474
0.45626668
0.49577905
0.54107951
0.59276431
0.65145612
0.7178366
0.79264331
0.87659723
0.97038917
1.0745486
1.1891588
1.3134653
1.4451493
1.5793322
1.7071264
1.8145738
1.8793418
1.8853622
0.27867694
0.28407649
0.2903895
0.29768426
0.30615894
0.3160338
0.32756183
0.34103613
0.35679621
0.3752278
0.39676054
0.42186367
0.45104011
0.48482044
0.52375933
0.56843572
0.61945707
0.67746044
0.74312785
0.81719523
0.90038855
0.99337852
1.0966676
1.2103
1.3334681
1.4637926
1.5963155
1.7220305
1.8266714
1.8872019
1.8861302
0.30982528
0.31556872
0.32222127
0.32986341
0.33866683
0.34882527
0.36059062
0.37424185
0.39010143
0.40853953
0.42997323
0.45486366
0.48371151
0.51705176
0.55544937
0.59949759
0.64981961
0.70707015
0.771941
0.84516684
0.92747246
1.0195172
1.121774
1.2342417
1.3560541
1.4847662
1.6153378
1.7386436
1.8400824
1.8958333
1.8864568
0.34141986
0.34772907
0.35496144
0.3631845
0.37256064
0.38328758
0.39558993
0.40972018
0.42597714
0.44470771
0.46630767
0.49122156
0.51994052
0.55299837
0.59096719
0.63445394
0.68409944
0.74057794
0.80459652
0.87689297
0.95819403
1.0491452
1.1501856
1.2612723
1.3814721
1.5082701
1.6365432
1.757052
1.8548389
1.9052171
1.8861986
0.37269848
0.37977086
0.38780485
0.39686678
0.40712306
0.41873173
0.43187857
0.44681362
0.46380943
0.48318021
0.50529025
0.53055671
0.55944999
0.59249182
0.63025199
0.6733445
0.72242435
0.77818431
0.84134905
0.91266484
0.9928615
1.082574
1.1822031
1.2916587
1.4099442
1.5344686
1.6600292
1.7772827
1.8709056
1.9152701
1.8851486
0.4029837
0.4109877
0.42001639
0.43013481
0.44149167
0.45423595
0.46854397
0.48463002
0.50273947
0.52315002
0.54618652
0.57222687
0.6017065
0.63511935
0.67301714
0.71600696
0.76474756
0.81994358
0.88233513
0.95267941
1.0317094
1.1200491
1.2180657
1.3256144
1.4416307
1.5634533
1.6858058
1.7992599
1.888133
1.9258
1.8830211
0.43168951
0.44073113
0.45087139
0.46219475
0.47485049
0.48899254
0.50476298
0.52231652
0.54188397
0.5637283
0.58812915
0.61541408
0.64596826
0.68023839
0.71873695
0.76204259
0.81079855
0.86570625
0.92751106
0.99697646
1.0748351
1.1616974
1.2578972
1.3632363
1.4765772
1.595187
1.713735
1.8227374
1.9061852
1.9364332
1.8794224
0.45872637
0.46883337
0.48013397
0.49273199
0.50677457
0.52241252
0.53981667
0.5591237
0.58048516
0.60411661
0.63027831
0.65925939
0.69138559
0.72704036
0.76667451
0.81081113
0.8600503
0.91506483
0.97658406
1.0453617
1.122118
1.2074416
1.3016283
1.4044241
1.5146213
1.629416
1.7434376
1.8471966
1.9244278
1.946499
1.8737244
0.48417891
0.49532647
0.5077778
0.52165679
0.53711656
0.55430727
0.57338568
0.59452801
0.6179115
0.64365406
0.67192432
0.70298265
0.73711435
0.77464066
0.81593832
0.86145097
0.91170376
0.9673069
1.0289396
1.0973149
1.1731152
1.256887
1.3488756
1.448763
1.5552698
1.6655317
1.7741538
1.8716939
1.941758
1.954849
1.8648254
0.50810047
0.5202466
0.5338132
0.54894304
0.56579881
0.58453938
0.60532284
0.62831092
0.65367315
0.6815976
0.71226389
0.74576861
0.78227846
0.82208079
0.86549683
0.91288068
0.96466466
1.0213624
1.0835584
1.1518792
1.226926
1.3091684
1.3987744
1.4953444
1.5975183
1.7023778
1.8045296
1.8946368
1.956349
1.9595772
1.8508033
0.53006249
0.5431622
0.55780118
0.57414013
0.59235252
0.6126084
0.63507623
0.659924
0.68731745
0.7174212
0.75040015
0.78642386
0.82563017
0.86809714
0.91402677
0.96370429
1.0174703
1.0757178
1.1389026
1.2075123
1.2820113
1.3627405
1.4497471
1.5425163
1.6395844
1.737974
1.8323202
1.9134533
1.9652798
1.9575922
1.8285825
0.54906676
0.56307498
0.57873979
0.5962385
0.61575596
0.63747463
0.66157509
0.68823551
0.71762814
0.74991471
0.78524457
0.82376307
0.8656142
0.9109113
0.95970349
1.012036
1.0681372
1.1282659
1.1927339
1.2618625
1.3359283
1.4150776
1.4991739
1.5875297
1.678534
1.7691247
1.8539765
1.9241394
1.9640153
1.9440205
1.793936
0.5628763
0.57775425
0.59440438
0.6130198
0.63379717
0.65693223
0.68261886
0.71104678
0.74239656
0.77683369
0.81450266
0.85552327
0.89999362
0.94798886
0.99957569
1.0547696
1.1135159
1.1757568
1.2416523
1.3113391
1.3848933
1.4622181
1.5429136
1.626037
1.7097599
1.7908845
1.8640921
1.920671
1.9457368
1.911331
1.742916
0.56748245
0.58315956
0.60072114
0.62037548
0.64233172
0.6667999
0.69398854
0.7241007
0.75732739
0.79383961
0.83378
0.87725458
0.92432576
0.97500966
1.0292866
1.0870915
1.1483116
1.2127376
1.2801491
1.3503151
1.4230754
1.4980684
1.5745948
1.6513674
1.7262528
1.795836
1.8547144
1.894344
1.9006435
1.8483711
1.6717284
0.55651981
0.57291299
0.59129983
0.61190079
0.63493752
0.66063419
0.68921357
0.72089138
0.75586806
0.79431877
0.83638221
0.88214927
0.93165206
0.9848544
1.0416457
1.1018421
1.1652033
1.2313723
1.2999208
1.370186
1.4416299
1.5134001
1.5845601
1.6534576
1.7175704
1.7731489
1.814541
1.8331686
1.8156056
1.7400052
1.5675537
0.52107616
0.53803713
0.55708987
0.57846241
0.60238891
0.62910762
0.65885542
0.69186029
0.72833115
0.76844509
0.81233289
0.86006314
0.91162645
0.96692069
1.0257384
1.087758
1.1525472
1.2195841
1.2881865
1.3574721
1.4264188
1.4937591
1.5580074
1.6171331
1.6683235
1.7073601
1.728102
1.7216445
1.6750364
1.5690526
1.4128702
0.45196229
0.46858907
0.48737749
0.50857227
0.5324319
0.55921963
0.58919613
0.62260869
0.65967769
0.70058017
0.7454315
0.79426575
0.84701594
0.90349761
0.96339374
1.026173
1.0910588
1.1572876
1.2240475
1.2903663
1.3548645
1.4159565
1.4716147
1.5193786
1.5560623
1.5769891
1.5752717
1.5415551
1.4639722
1.3288291
1.1069295
0.37347304
0.38811597
0.40471872
0.42353014
0.44480024
0.46878765
0.49574794
0.52591863
0.55949674
0.59662658
0.63741905
0.68189812
0.72997978
0.78145384
0.83597271
0.89314864
0.95257884
1.0134092
1.0744753
1.1344361
1.1917697
1.2444372
1.2903181
1.3264151
1.3494465
1.3542641
1.3331004
1.2767718
1.1752617
1.0270336
0.89917643
0.32211811
0.33319035
0.34569087
0.35979571
0.37567626
0.39350899
0.41347189
0.43574265
0.46050277
0.48791468
0.51804433
0.55089902
0.58642009
0.62447887
0.6648754
0.70728015
0.75113334
0.79578254
0.84053284
0.88425861
0.9255888
0.96291226
0.99371375
1.0159957
1.0252092
1.0175258
0.98864355
0.93587841
0.85681574
0.76820972
0.72970834
0.34569179
0.35405733
0.36330846
0.37350298
0.38468434
0.39688148
0.41010486
0.42434295
0.43955884
0.45569443
0.47266513
0.49036496
0.50867466
0.52746939
0.54661837
0.56604317
0.58578955
0.60572545
0.62535992
0.64430229
0.66207712
0.67815352
0.69130418
0.7006034
0.70197178
0.69411789
0.67758908
0.6526321
0.61988463
0.60191729
0.58281877
0.4283659
0.43204799
0.43599561
0.44020272
0.44465353
0.44932482
0.45418616
0.45920098
0.4643286
0.46952745
0.47475934
0.47999447
0.48521622
0.49042433
0.49563476
0.50087541
0.50617367
0.51152585
0.51687147
0.52210115
0.52703116
0.53133186
0.53431964
0.53547744
0.53493493
0.53286882
0.52847182
0.5225649
0.51371414
0.51389635
0.4990029
0.0058197564
0.0084911487
0.01226113
0.017166245
0.023324998
0.030901197
0.040188311
0.05139202
0.064673801
0.080597491
0.099500956
0.12178032
0.14789334
0.17842684
0.2140834
0.25562618
0.30387144
0.35967385
0.42390427
0.49743648
0.58115713
0.6759443
0.78257515
0.90150699
1.0326076
1.1744657
1.3238774
1.4745008
1.6177181
1.7404891
1.8301983
0.0088381758
0.012498777
0.016967954
0.022382262
0.028938919
0.036931986
0.046763579
0.058324453
0.072080684
0.08843346
0.10773771
0.13040908
0.15692751
0.18787606
0.22394605
0.26588387
0.31448469
0.37058606
0.43504112
0.50871301
0.59247863
0.68720686
0.79366369
0.91229384
1.0429443
1.1841752
1.3327426
1.4822697
1.6240893
1.7450329
1.8328517
0.010973549
0.014875527
0.019708552
0.025647446
0.032891612
0.041680317
0.052083772
0.0643226
0.078743701
0.095692716
0.11553904
0.1387122
0.16571031
0.19712608
0.23364073
0.27599188
0.32496207
0.38137253
0.44606093
0.51988132
0.60370229
0.69838263
0.80467739
0.92301888
1.0532344
1.1938568
1.3416007
1.4900499
1.6304842
1.7495855
1.8354679
0.013291624
0.017636996
0.022943881
0.029371246
0.037172053
0.046474882
0.05737168
0.070188671
0.085201769
0.10272287
0.12311428
0.14680422
0.17429976
0.2061939
0.24316152
0.28592443
0.33526332
0.39197887
0.45689753
0.53086475
0.61474119
0.70937641
0.81551543
0.93357861
1.063374
1.2034064
1.3503443
1.4977454
1.6368075
1.7540884
1.8380638
0.015507775
0.020305753
0.026092952
0.033048948
0.041379797
0.051147807
0.062595597
0.075975066
0.091545897
0.10960991
0.13052707
0.15472543
0.18271249
0.21507914
0.25249452
0.29566047
0.34535932
0.40237192
0.46751602
0.54162838
0.62556239
0.72015915
0.82615413
0.94395577
1.0733527
1.2128218
1.3589861
1.5053646
1.643082
1.7585481
1.8406284
0.017742535
0.022991632
0.029253219
0.036761258
0.045550234
0.055818943
0.067795561
0.081704439
0.097797069
0.11637488
0.13779326
0.16248063
0.19094416
0.22377045
0.2616171
0.30517792
0.35522355
0.41252436
0.47788864
0.55214454
0.63613875
0.73070426
0.83656736
0.95412464
1.0831455
1.2220792
1.3675011
1.512894
1.649289
1.7629577
1.8429551
0.019920498
0.025633021
0.032391052
0.040393792
0.049666546
0.060452091
0.072943542
0.087357976
0.10394577
0.12300955
0.144904
0.17005864
0.19897921
0.23224722
0.27050369
0.31444633
0.36482573
0.42240501
0.48798327
0.56238058
0.64643745
0.7409793
0.84672363
0.96405559
1.0927258
1.2311556
1.3758727
1.5203178
1.6554241
1.7673121
1.845265
0.022082038
0.028252035
0.03552263
0.043963497
0.053739389
0.065028366
0.07801421
0.092910664
0.10996985
0.12949383
0.15183989
0.17743934
0.2067956
0.24048064
0.27912725
0.32343456
0.37413347
0.4319807
0.49776638
0.57230319
0.65642593
0.75095292
0.85659344
0.97372145
1.102069
1.2400301
1.3840839
1.5276248
1.661479
1.7716102
1.8473716
0.024193689
0.030820745
0.038578934
0.047481565
0.057748056
0.069520243
0.082978636
0.098334833
0.11584152
0.13580121
0.15857535
0.18459581
0.21436016
0.24843802
0.28745842
0.33210946
0.38311315
0.44121764
0.50720447
0.58187951
0.66607234
0.76059469
0.86614807
0.98309569
1.1111515
1.2486824
1.3921182
1.5348032
1.6674472
1.7758488
1.8494752
0.026273515
0.033354831
0.041553322
0.050932802
0.061667124
0.073899929
0.087808019
0.10360046
0.12153039
0.14190292
0.16508091
0.19149514
0.22164038
0.25608499
0.29545952
0.3404361
0.39173026
0.45008165
0.51626396
0.59107686
0.67534523
0.76987465
0.8753594
0.99215245
1.1199502
1.2570927
1.39996
1.5418415
1.6733222
1.7800272
1.8515351
0.028317623
0.035835558
0.04445654
0.054294194
0.065470162
0.078138639
0.092472328
0.10867771
0.12700749
0.14776763
0.17132089
0.19809848
0.22859944
0.26339065
0.30309465
0.34837908
0.39994978
0.45853838
0.52491138
0.59986295
0.68421371
0.77876359
0.88420023
1.0008669
1.128443
1.2652422
1.4075941
1.5487293
1.6790981
1.7841439
1.8535723
0.030318518
0.03824986
0.047287584
0.05754828
0.069138933
0.082215427
0.09694668
0.11353791
0.13224053
0.15335717
0.17725411
0.2043678
0.23520121
0.27031387
0.31032727
0.35590263
0.40773659
0.46655359
0.53311371
0.60820612
0.69264771
0.78723326
0.89264435
1.0092152
1.1366087
1.273113
1.4150064
1.5554566
1.6847692
1.7881973
1.8555638
0.03227009
0.040588429
0.050024204
0.06066938
0.072659459
0.086114788
0.10120866
0.11814948
0.13718806
0.15862868
0.18284005
0.21026615
0.24140438
0.27681678
0.31712093
0.36297089
0.41505577
0.47409356
0.54083856
0.61607556
0.70061817
0.79525649
0.90066671
1.0171746
1.1444275
1.2806882
1.4221834
1.5620139
1.6903305
1.7921859
1.8575183
0.034140477
0.042797565
0.052592274
0.063612017
0.075981702
0.089795038
0.10522005
0.12247484
0.14180847
0.1635398
0.18804181
0.2157515
0.247171
0.28286299
0.32343927
0.36954835
0.42187294
0.48112525
0.54805448
0.6234415
0.70809716
0.80280735
0.90824352
1.0247238
1.1518806
1.2879521
1.4291133
1.5683923
1.6957776
1.7961082
1.8594329
0.035811933
0.044821505
0.054989634
0.066367106
0.079047955
0.093176381
0.10891166
0.12645329
0.14606062
0.16805395
0.19281698
0.22078565
0.25246501
0.28841617
0.32924647
0.3756002
0.42815458
0.48761665
0.55473115
0.63027545
0.71505812
0.8098613
0.91535239
1.0318426
1.1589504
1.2948899
1.4357848
1.5745842
1.7011066
1.7999633
1.8611863
0.037595837
0.046845531
0.057250776
0.068897151
0.081855243
0.096249133
0.11224134
0.13003506
0.14989017
0.17212726
0.19712782
0.22533322
0.25725054
0.29344052
0.33450755
0.38109262
0.43386829
0.493537
0.56083961
0.63655033
0.72147598
0.81639531
0.92197245
1.0385125
1.1656207
1.3014881
1.4421876
1.5805826
1.7063143
1.8037513
1.862926
0.039318891
0.048766428
0.05936232
0.071208693
0.084379551
0.098993052
0.11520293
0.13320992
0.15327744
0.17572862
0.20094154
0.22935966
0.26149244
0.29790136
0.33918874
0.3859931
0.43898306
0.49885701
0.56635245
0.64224071
0.72732731
0.82238804
0.92808445
1.0447165
1.1718769
1.3077346
1.4483126
1.5863811
1.7113979
1.8074713
1.8645524
0.041024408
0.05060918
0.061335764
0.073301182
0.086613275
0.10138045
0.11775777
0.13594432
0.15619763
0.17883022
0.20422667
0.23283158
0.26515696
0.30176547
0.34325778
0.39027068
0.44346952
0.50354909
0.57124403
0.64732293
0.7325905
0.82781991
0.93367092
1.0504391
1.1777058
1.3136182
1.4541509
1.5919745
1.7163555
1.8111242
1.8661524
0.042669839
0.052342389
0.063150258
0.075192036
0.088570363
0.10341223
0.11988255
0.13818874
0.15858054
0.18136924
0.2069323
0.23571221
0.26821173
0.30500131
0.34668416
0.39389621
0.44730011
0.50758751
0.57549059
0.65177524
0.73724586
0.83267329
0.93871619
1.0556667
1.1830957
1.3191296
1.4596951
1.5973579
1.721185
1.8147099
1.8676125
0.044254976
0.053951221
0.06478066
0.076847312
0.090252109
0.10512636
0.12164389
0.14001438
0.16048869
0.18337781
0.20905512
0.2379627
0.2706052
0.30755256
0.34942455
0.39683978
0.45044913
0.51094853
0.57907038
0.65557793
0.74127573
0.83693251
0.94320658
1.0603875
1.1880366
1.3242605
1.4649388
1.6025272
1.7258849
1.8182299
1.8690655
0.045772412
0.055421618
0.066205266
0.078235144
0.091612038
0.10646557
0.12297338
0.14135984
0.16187259
0.18482417
0.21058432
0.23959407
0.27235891
0.30944813
0.35148157
0.39908073
0.45289324
0.51360344
0.5819571
0.65871313
0.74466454
0.840584
0.94713039
1.0645917
1.1925204
1.3290044
1.4698767
1.607479
1.7304539
1.8216844
1.8703822
0.047214637
0.056742584
0.067405215
0.079328416
0.092614022
0.10741234
0.12388861
0.14226943
0.16279071
0.18575724
0.21153776
0.24060395
0.27346115
0.31067107
0.35283578
0.40059602
0.45461134
0.51554755
0.5841464
0.66116566
0.74739079
0.84361615
0.95047809
1.0682713
1.1965408
1.3333563
1.474505
1.6122108
1.7348913
1.8250753
1.871681
0.048615104
0.057929597
0.068379151
0.08011245
0.093274943
0.10798638
0.12440574
0.14268214
0.16310813
0.18602031
0.21178112
0.2408807
0.27380809
0.31112332
0.3534307
0.40136453
0.45558593
0.51677169
0.58562489
0.66292386
0.74946096
0.84601699
0.95324272
1.0714209
1.2000936
1.337313
1.478821
1.6167211
1.7391966
1.8284034
1.872942
0.050047577
0.059037771
0.069156562
0.080599238
0.093517553
0.10803505
0.12429682
0.14246941
0.16282611
0.18568906
0.21142021
0.24051494
0.27347652
0.31086588
0.35329079
0.4013821
0.45579939
0.51721914
0.58634478
0.66394665
0.75081862
0.84775561
0.955405
1.0740379
1.203178
1.3408738
1.4828236
1.6210089
1.7433699
1.831671
1.8741506
0.0058663001
0.0085156903
0.012135159
0.016865484
0.022785755
0.030020135
0.038908655
0.04964139
0.062411124
0.077763786
0.096072352
0.11774365
0.14329415
0.17327624
0.20838992
0.24941163
0.29717336
0.35254355
0.41640719
0.48966336
0.57320242
0.66788192
0.77447462
0.89345986
1.0247187
1.1668619
1.3167269
1.4680185
1.6121968
1.7363722
1.8277685
0.0062496165
0.0090088433
0.012581915
0.017177377
0.022899278
0.03000115
0.03875196
0.049327367
0.061995797
0.077078507
0.095038726
0.11633655
0.14149704
0.17110272
0.20584517
0.24649332
0.29388799
0.34890696
0.41244413
0.48540541
0.56869164
0.66316622
0.76960587
0.88849464
1.0197223
1.1619156
1.31194
1.4635632
1.6083079
1.7334301
1.8260783
0.006668805
0.0094951212
0.013066179
0.01760463
0.023232654
0.030176013
0.038743926
0.049089211
0.061492782
0.076287772
0.093921288
0.11486451
0.13964842
0.16886567
0.20321209
0.24346017
0.29045967
0.34509675
0.40827605
0.48091253
0.56391949
0.65816572
0.76443257
0.88320965
1.0143959
1.1566358
1.3068258
1.4587934
1.6041407
1.7302607
1.8241957
0.0071122625
0.0099770421
0.013544091
0.018027052
0.023562648
0.030354013
0.038738614
0.048856471
0.060995285
0.075497011
0.092795001
0.11337095
0.13776114
0.1665668
0.20049152
0.24031086
0.28688368
0.34110626
0.40389473
0.47617574
0.55887488
0.65286639
0.75893878
0.87758724
1.0087207
1.1510024
1.3013627
1.4536909
1.5996743
1.7268507
1.8221674
0.0075821747
0.010463699
0.014019889
0.01844639
0.023889609
0.030538006
0.038736252
0.048629587
0.060504163
0.074710613
0.091663162
0.11186054
0.13584059
0.16421155
0.19768905
0.23704967
0.28316257
0.33693569
0.39929787
0.4711898
0.55354819
0.64725597
0.75310937
0.87160981
1.0026768
1.1449944
1.2955286
1.4482344
1.5948927
1.7231966
1.82001
0.008077371
0.010959867
0.014497582
0.018866236
0.024217776
0.030729121
0.038739966
0.048410876
0.060021184
0.073921995
0.090529154
0.1103376
0.13389185
0.1618124
0.19481001
0.23368101
0.27929965
0.33258652
0.39448488
0.4659504
0.54793104
0.64132272
0.7469283
0.86525711
0.99624069
1.1385857
1.2892958
1.4423998
1.5897773
1.7192816
1.8177289
0.008600237
0.011472844
0.014984541
0.019293112
0.024553355
0.030930888
0.038754398
0.048204021
0.059549429
0.07313576
0.089396863
0.10880551
0.13191911
0.15936742
0.19185941
0.23020958
0.2752985
0.32806044
0.38945462
0.46045273
0.54201545
0.63505474
0.74038008
0.85851032
0.98939077
1.1317528
1.2826407
1.436163
1.5843019
1.71507
1.8152714
0.009153031
0.012007391
0.015485844
0.019731558
0.024900379
0.031145755
0.038782474
0.048011539
0.059092354
0.07237082
0.088271585
0.10727205
0.12993059
0.15688244
0.18884586
0.22664359
0.27116571
0.32336149
0.38420778
0.45469396
0.53579492
0.62844227
0.73345229
0.85135485
0.98211044
1.1244774
1.2755433
1.4295012
1.5784434
1.7105396
1.8126217
0.0097420314
0.012571453
0.01601016
0.020189828
0.025265797
0.031379764
0.038830466
0.047839445
0.058655686
0.071623469
0.087160739
0.10574352
0.12793325
0.15436924
0.18577686
0.22299078
0.26690794
0.31849448
0.37874644
0.44867218
0.52926536
0.62147697
0.72613134
0.84377323
0.97437892
1.116736
1.2679787
1.4223883
1.5721772
1.7056672
1.8097776
0.010372108
0.013171819
0.016565334
0.020676324
0.025654976
0.031638298
0.038903836
0.047692979
0.058244408
0.070899445
0.086073099
0.10422666
0.12593452
0.15183621
0.18266009
0.21926013
0.2625333
0.31346585
0.37307439
0.44238855
0.52242406
0.61414925
0.7184045
0.83574846
0.96617544
1.108505
1.2599212
1.4147979
1.5654759
1.7004248
1.8066189
0.011049324
0.013814582
0.017158104
0.021196929
0.026074939
0.031927157
0.039008229
0.047577637
0.057863775
0.070203663
0.085006962
0.10272703
0.12394208
0.14929283
0.17951991
0.21546213
0.2580513
0.30828372
0.36719736
0.43584542
0.51526795
0.60645181
0.71026001
0.82726419
0.95747933
1.0997599
1.2513437
1.4067015
1.5583109
1.6947835
1.803206
0.011778416
0.014505096
0.01779428
0.021757294
0.026531899
0.032252038
0.039149225
0.04749891
0.057518991
0.069539953
0.083953467
0.10124959
0.12196381
0.14674784
0.17635057
0.211607
0.25347287
0.30295797
0.36112303
0.42904702
0.50779661
0.59837959
0.70168781
0.81830513
0.94827049
1.0904766
1.2422188
1.3980699
1.5506528
1.6887127
1.7994102
0.012563269
0.015247597
0.018478537
0.022362444
0.027031295
0.032618244
0.039332145
0.047462199
0.05721585
0.068917424
0.082955308
0.099805908
0.12000856
0.14421049
0.17316137
0.20770569
0.2488102
0.29750021
0.35486119
0.42199998
0.5000119
0.58993181
0.69268108
0.8088574
0.93852964
1.080631
1.2325187
1.3888731
1.5424707
1.68218
1.7950825
0.013406197
0.016044841
0.019214382
0.023016455
0.027577659
0.033030431
0.039561854
0.047472571
0.056959835
0.068341701
0.082001428
0.098404541
0.11808545
0.14169088
0.16996942
0.20376959
0.24407678
0.29192376
0.34842376
0.41471348
0.49191986
0.58111041
0.68323212
0.7989088
0.92823868
1.0701998
1.2222156
1.3790807
1.533733
1.6751547
1.7904203
0.014309778
0.016899587
0.020004877
0.023722787
0.028174826
0.033492583
0.039842568
0.04753458
0.05675596
0.067818243
0.081098863
0.097061556
0.11620377
0.13919908
0.16678685
0.19981932
0.2392877
0.28624356
0.34182475
0.40719923
0.4835286
0.57191631
0.6733361
0.78844901
0.91738105
1.0591603
1.2112822
1.3686619
1.5244069
1.6676028
1.7851772
0.015275346
0.017813429
0.020851912
0.024483654
0.028825174
0.034007155
0.040179377
0.047651736
0.056608345
0.067351177
0.080248965
0.095746207
0.11436579
0.13674411
0.1636258
0.19587605
0.23445864
0.2804759
0.33508026
0.39947151
0.47484856
0.56235387
0.66299189
0.77747062
0.9059422
1.0474915
1.1996914
1.3575859
1.5144583
1.6594931
1.7797416
0.01630251
0.018786782
0.021756369
0.025300228
0.029530089
0.034576085
0.040576395
0.047826947
0.056520277
0.066944258
0.07945749
0.094487278
0.11258046
0.1343351
0.16049603
0.19192696
0.22960336
0.27463813
0.32820827
0.39154714
0.46589352
0.55243157
0.65220515
0.76597095
0.89391009
1.0351739
1.1874175
1.3458221
1.5038523
1.6507903
1.7734993
0.017393394
0.019820758
0.022719058
0.026173515
0.030291286
0.035202009
0.041033063
0.048063088
0.056494596
0.066601436
0.078732904
0.093311505
0.11086048
0.13198195
0.15740896
0.18800046
0.22473658
0.26874863
0.32122848
0.38344547
0.45668058
0.54216347
0.64098555
0.75394678
0.8812755
1.0221902
1.1744358
1.3333402
1.4925533
1.6414607
1.7667781
0.018548477
0.020916347
0.023741163
0.027104979
0.031110729
0.035884997
0.041549079
0.048361451
0.056533184
0.066325324
0.078077735
0.092204657
0.10921577
0.12969406
0.15437546
0.18410999
0.21987459
0.262827
0.31416205
0.37518816
0.4472299
0.53156628
0.62934084
0.74139923
0.86803242
1.0085259
1.1607237
1.3201103
1.4805244
1.6314647
1.7595513
0.019768491
0.022074921
0.024824163
0.028095899
0.031989122
0.036625472
0.042124163
0.048722335
0.056636861
0.066117313
0.077493789
0.091170713
0.10764784
0.12747727
0.15140501
0.18027026
0.21506209
0.25689469
0.3070313
0.36679892
0.43756463
0.52065973
0.6172838
0.72833447
0.85417928
0.99416992
1.1462608
1.3061039
1.4677281
1.6207598
1.7517786
0.021056293
0.023298505
0.025969477
0.029147001
0.032926288
0.037423996
0.042757857
0.04914519
0.056805204
0.065977035
0.076979934
0.090204091
0.1061193
0.12532787
0.14850378
0.17648963
0.21027261
0.25096757
0.29985886
0.35830312
0.42771076
0.50946771
0.60483327
0.71476905
0.83972084
0.97911518
1.1310298
1.2912935
1.4541262
1.6092982
1.7433584
0.022413225
0.024587969
0.027177479
0.030258122
0.033921578
0.038279772
0.043448773
0.049628384
0.057036598
0.065903214
0.0765364
0.08931361
0.10469478
0.12326024
0.14567947
0.17277755
0.20553124
0.24506164
0.29266745
0.34972744
0.41769681
0.49801806
0.59201515
0.70072358
0.82466134
0.9633589
1.1150166
1.2756533
1.43968
1.5970235
1.7338627
0.023840251
0.025943883
0.028448305
0.031428887
0.034974075
0.039191384
0.044194842
0.050169374
0.057328359
0.065893386
0.07616153
0.088497904
0.10335105
0.12127651
0.14293776
0.16914295
0.20085564
0.23918831
0.28547997
0.3410995
0.40755335
0.48634193
0.5788578
0.68621596
0.8090115
0.94690391
1.0982115
1.2591599
1.4243504
1.5838836
1.7244109
0.025337326
0.027365523
0.029780696
0.032657517
0.036081481
0.040156005
0.044992648
0.050764181
0.057676315
0.065943451
0.075851557
0.087753182
0.10208341
0.11938122
0.14028327
0.16559356
0.19626125
0.23341025
0.27832298
0.3324475
0.39731263
0.47447353
0.56539376
0.67127221
0.79279542
0.92976104
1.0806099
1.2417924
1.4080971
1.5698084
1.7134722
0.026909738
0.028857259
0.031177736
0.033945516
0.03724364
0.041171891
0.045838999
0.051408359
0.058075282
0.066047901
0.075601063
0.087074561
0.10088935
0.11756914
0.13771621
0.16213347
0.19175322
0.2276906
0.27121292
0.32379858
0.38700788
0.46244965
0.55166028
0.65592798
0.77604651
0.91194218
1.0622118
1.2235326
1.3908782
1.5547214
1.7017081
0.028543912
0.030407824
0.032630333
0.035285199
0.038453485
0.042231962
0.046726394
0.052093727
0.058516656
0.066197826
0.075400744
0.086451374
0.099752493
0.11579627
0.13522233
0.15876074
0.18733524
0.22204567
0.26416422
0.31517858
0.37667274
0.45030912
0.5376983
0.64022303
0.75879295
0.89346275
1.0430235
1.2043659
1.37265
1.5385251
1.6888294
0.030203192
0.031986803
0.034113522
0.036655976
0.039693682
0.043321058
0.047640959
0.052806758
0.058987227
0.066380316
0.075238371
0.085873788
0.098673594
0.11411697
0.13280992
0.15547594
0.18301158
0.21649606
0.25718796
0.30661273
0.36634076
0.43809219
0.5235518
0.62420008
0.74106753
0.87435478
1.023059
1.1842817
1.353368
1.5211183
1.6745486
0.031834158
0.033544325
0.035582135
0.038017681
0.04092886
0.044408027
0.048555058
0.053522335
0.059464204
0.066574616
0.075095243
0.085325342
0.097636589
0.11249156
0.13046848
0.15227544
0.17878463
0.21105532
0.25035297
0.2981312
0.35604531
0.42583986
0.50926735
0.60790734
0.72291725
0.85466329
1.0023358
1.1632739
1.3329882
1.502396
1.6585092
0.033355405
0.03500315
0.036964409
0.03930488
0.042100364
0.045440252
0.04942522
0.054200294
0.059912248
0.066749639
0.074944096
0.084782209
0.096620307
0.11090277
0.12818429
0.1491516
0.17465231
0.20572261
0.24361129
0.2897484
0.345817
0.413593
0.49489337
0.59139708
0.70439412
0.83442708
0.98087335
1.1413422
1.3114687
1.4822533
1.6403448
0.034646235
0.03625087
0.038156356
0.040422529
0.043122612
0.046341818
0.050184103
0.054782096
0.060280783
0.066861854
0.074747644
0.084212671
0.09559822
0.10933051
0.12594295
0.14609447
0.17060982
0.20049759
0.23697746
0.2814727
0.33568408
0.40139181
0.48047929
0.57472439
0.685553
0.81368825
0.95871234
1.1184961
1.2887772
1.4606038
1.6199974
0.035633655
0.037212966
0.039082121
0.041294692
0.043921026
0.047042942
0.050763807
0.05520777
0.060516383
0.066864624
0.074466005
0.083583648
0.094544728
0.10775917
0.12374459
0.14309989
0.16665404
0.19538345
0.23047746
0.27334625
0.32567856
0.38927602
0.46607484
0.5579465
0.66645252
0.7925053
0.93590193
1.0947433
1.2648921
1.4373915
1.597851
0.036329943
0.037894723
0.039739267
0.041912103
0.044480545
0.047523353
0.051139573
0.055449721
0.060590221
0.066729272
0.074071593
0.082868785
0.093432887
0.10615321
0.12151434
0.14013569