/*--------------------------------*- C++ -*----------------------------------*\
| =========                 |                                                 |
| \\      /  F ield         | OpenFOAM: The Open Source CFD Toolbox           |
|  \\    /   O peration     | Version:  2406                                  |
|   \\  /    A nd           | Website:  www.openfoam.com                      |
|    \\/     M anipulation  |                                                 |
\*---------------------------------------------------------------------------*/
FoamFile
{
    version     2.0;
    format      ascii;
    arch        "LSB;label=32;scalar=64";
    class       volVectorField;
    location    "0.036";
    object      U;
}
// * * * * * * * * * * * * * * * * * * * * * * * * * * * * * * * * * * * * * //

dimensions      [0 1 -1 0 0 0 0];

internalField   nonuniform List<vector> 
92813
(
(39.056942 29.356102 -5.0020477e-21)
(39.896915 28.609777 1.7338978e-20)
(40.69581 27.90837 -1.0610487e-20)
(41.441699 27.238638 -1.0851096e-20)
(42.127669 26.575833 -9.0157716e-21)
(42.764111 25.924565 7.2579948e-21)
(43.357349 25.291626 5.6996675e-21)
(43.912492 24.681243 0)
(44.435142 24.095986 -3.18982e-21)
(44.930826 23.536994 -1.1843067e-24)
(45.404762 23.004326 -1.5779377e-21)
(45.861665 22.497303 -1.1030224e-21)
(46.305545 22.014699 0)
(46.740341 21.554701 0)
(47.166518 21.115192 7.5468879e-23)
(47.585903 20.694368 0)
(47.998638 20.290427 -1.13799e-21)
(48.401775 19.901651 -1.5208509e-21)
(48.791356 19.527251 2.2818893e-25)
(49.16633 19.166862 -8.2570808e-21)
(49.526079 18.820504 0)
(49.868975 18.489039 0)
(50.198606 18.171131 0)
(50.517085 17.865479 5.4838486e-21)
(50.825315 17.570976 -1.0811564e-20)
(51.123687 17.286524 -5.3396507e-21)
(51.412296 17.011021 0)
(51.691016 16.743371 0)
(51.959527 16.482475 5.2188173e-21)
(52.217337 16.227227 -1.5619586e-20)
(52.463787 15.976502 -1.0420021e-20)
(52.698053 15.72915 5.2298952e-21)
(52.919142 15.48398 -1.5802778e-20)
(53.125884 15.239749 0)
(53.316941 14.995142 0)
(53.490747 14.748699 -1.6543271e-20)
(53.645383 14.499316 1.1301719e-20)
(53.780519 14.244666 -1.164579e-20)
(53.892129 13.983146 1.2072829e-20)
(53.974327 13.711883 -3.1349456e-20)
(54.028294 13.434483 -4.6061897e-20)
(54.054392 13.140529 1.4012443e-20)
(54.045185 12.832011 3.7511548e-20)
(53.997961 12.505445 3.2381267e-20)
(53.910314 12.158718 8.8203236e-21)
(53.780844 11.790626 2.9138199e-20)
(53.610504 11.401372 0)
(53.404885 10.994411 0)
(53.177259 10.578822 0)
(52.950208 10.171109 5.9081971e-20)
(52.7505 9.7915253 6.3544086e-20)
(52.595787 9.4531771 6.6587643e-20)
(52.485864 9.1549044 1.7091028e-20)
(52.408986 8.8867704 -1.7324222e-20)
(52.352059 8.6387438 6.9759842e-20)
(52.305655 8.4039387 -8.7446981e-20)
(52.264493 8.1784008 -4.3746393e-20)
(52.226002 7.960206 3.5563362e-25)
(52.188934 7.7483174 -1.4816516e-19)
(52.152912 7.5421408 0)
(52.11787 7.3414329 1.2961576e-19)
(52.08336 7.1459152 -1.3745986e-19)
(52.049517 6.9552592 8.5330262e-21)
(52.016398 6.7693467 1.4396365e-19)
(51.983795 6.5881088 1.2595845e-19)
(51.95154 6.4112246 8.320536e-21)
(51.919706 6.2386033 1.1534811e-19)
(51.88857 6.0701199 2.6090206e-19)
(51.857758 5.905696 1.6131962e-20)
(51.827507 5.7450825 -7.9716393e-21)
(51.797766 5.5882913 1.3390015e-19)
(51.768111 5.4350829 -1.5558397e-20)
(51.73898 5.2852872 1.3054869e-19)
(51.710338 5.1389212 1.2881754e-19)
(51.681826 4.9957839 1.926201e-25)
(51.653934 4.8557187 2.3582129e-19)
(51.626568 4.7187482 -7.262999e-21)
(51.599406 4.5846793 2.218399e-19)
(51.572913 4.4534011 1.4096049e-20)
(51.546975 4.3249375 -6.9393018e-21)
(51.521269 4.1990968 -2.185797e-19)
(51.496276 4.0758521 0)
(51.471663 3.9551253 -2.1823564e-19)
(51.447261 3.8368868 -2.0166613e-19)
(51.423481 3.7208825 3.1440856e-24)
(51.400017 3.6071643 0)
(51.377103 3.4956318 -1.9174319e-19)
(51.354592 3.3862864 -6.0801771e-21)
(51.332444 3.2789511 2.5107411e-24)
(51.310983 3.1733671 0)
(51.289858 3.0698672 0)
(51.269228 2.9681206 -3.6283327e-19)
(51.24925 2.868118 -4.027516e-24)
(51.22976 2.7698848 -5.4695958e-21)
(51.21065 2.6733871 1.0742778e-20)
(51.192038 2.5785213 3.2701051e-19)
(51.174053 2.4850886 3.3143051e-19)
(51.156439 2.3932687 -3.2030853e-19)
(51.139325 2.3028347 0)
(51.12281 2.2137016 -3.1357386e-19)
(51.106654 2.1258455 0)
(51.090991 2.0391838 2.9738578e-19)
(51.075924 1.9535894 4.632732e-21)
(51.061179 1.8691426 0)
(51.046955 1.7856318 -2.8554127e-19)
(51.033278 1.7030908 0)
(51.020043 1.6214109 2.7493267e-19)
(51.007426 1.5405378 -2.718577e-19)
(50.995314 1.4604006 4.1351513e-21)
(50.983649 1.3809212 -2.0283822e-21)
(50.972456 1.3020557 0)
(50.961772 1.2236718 0)
(50.951532 1.1457556 4.8829828e-19)
(50.941886 1.068115 -1.322323e-26)
(50.932817 0.99071207 -4.6981504e-19)
(50.924264 0.91342435 0)
(50.916271 0.83620125 2.4949913e-24)
(50.908874 0.7589191 0)
(50.902047 0.68155211 -4.3641726e-19)
(50.895812 0.60384064 -2.232671e-24)
(50.89009 0.52594965 0)
(50.885108 0.44727663 -4.1118046e-19)
(50.880566 0.36845502 4.0320035e-19)
(50.876968 0.28806479 0)
(50.873698 0.20795726 0)
(50.87186 0.12489549 3.8047835e-19)
(50.870268 0.042967496 -3.7236158e-19)
(38.349714 28.881477 -6.1472414e-21)
(39.248338 28.163958 -1.7717064e-20)
(40.063668 27.524468 0)
(40.819415 26.908023 -1.0586734e-20)
(41.525674 26.299953 2.0112882e-20)
(42.188265 25.702471 -9.5836089e-21)
(42.811415 25.120144 6.427298e-24)
(43.398973 24.555953 0)
(43.954962 24.011884 8.4141438e-21)
(44.483544 23.48915 1.6172864e-20)
(44.988881 22.988225 -2.0560588e-24)
(45.47498 22.508921 1.5043673e-20)
(45.945481 22.050424 0)
(46.403389 21.611215 -7.048526e-21)
(46.850184 21.189413 1.3680443e-20)
(47.286712 20.783286 -2.8974422e-24)
(47.712779 20.391246 6.471156e-21)
(48.126949 20.011962 6.3112526e-21)
(48.527381 19.644901 0)
(48.913275 19.290104 0)
(49.284383 18.947685 5.9173341e-21)
(49.640596 18.617885 1.0672388e-24)
(49.983326 18.300315 -5.719186e-21)
(50.313835 17.994206 -5.636351e-21)
(50.63291 17.698593 1.1132765e-20)
(50.940971 17.412435 -5.5115816e-21)
(51.238159 17.134685 5.4672432e-21)
(51.524391 16.864289 1.0875149e-20)
(51.799386 16.600187 -5.4204692e-21)
(52.062686 16.341299 1.6254877e-20)
(52.313658 16.086521 -5.4324628e-21)
(52.551494 15.834711 5.4640264e-21)
(52.775211 15.58468 -1.1026184e-20)
(52.983646 15.335178 5.5842128e-21)
(53.175448 15.084876 -1.7038437e-20)
(53.349065 14.832316 2.3209085e-20)
(53.502712 14.576161 0)
(53.63525 14.314597 1.2301411e-20)
(53.742621 14.045102 6.3878931e-21)
(53.821362 13.763428 2.6580828e-20)
(53.870982 13.478166 -1.3982186e-20)
(53.889817 13.173664 7.4583e-21)
(53.872417 12.854428 -2.3982606e-20)
(53.816423 12.516023 -8.6393797e-21)
(53.71952 12.156763 3.770146e-20)
(53.581027 11.775833 0)
(53.403372 11.374257 0)
(53.19461 10.957066 3.841516e-20)
(52.971338 10.535924 7.0844452e-20)
(52.758466 10.129919 -1.5427005e-20)
(52.58092 9.7588922 -4.9178743e-20)
(52.450026 9.4315806 -6.8021191e-20)
(52.35984 9.1424301 0)
(52.297061 8.8800943 0)
(52.249767 8.6352386 -7.0301446e-20)
(52.210208 8.4020348 5.2775264e-20)
(52.174372 8.1772762 8.7861702e-20)
(52.140409 7.9594936 0)
(52.107394 7.7478418 1.7463142e-20)
(52.075138 7.5418299 -1.7378319e-20)
(52.043654 7.3412596 1.7277482e-20)
(52.012458 7.1458596 1.2012231e-19)
(51.981772 6.9553019 -1.4475976e-19)
(51.951668 6.7694814 8.4485781e-21)
(51.921912 6.5883476 -2.5935212e-19)
(51.892349 6.4115351 1.3254852e-19)
(51.863087 6.2389946 -2.6233183e-19)
(51.834422 6.0705822 -1.3783012e-19)
(51.805931 5.9062185 -1.2823597e-19)
(51.777906 5.7456567 1.346287e-19)
(51.750273 5.5889055 -1.5642158e-20)
(51.722594 5.4357235 7.7210233e-21)
(51.695373 5.2859546 0)
(51.668545 5.1396113 0)
(51.641741 4.996496 -2.371341e-19)
(51.615505 4.8564574 -2.3372738e-19)
(51.589712 4.7195115 7.1968542e-21)
(51.564036 4.5854678 -2.3393246e-19)
(51.538986 4.4542197 2.2337386e-19)
(51.514417 4.3257841 6.8714771e-21)
(51.490009 4.1999656 -6.7625256e-21)
(51.466271 4.0767522 0)
(51.442848 3.9560187 -2.1600346e-19)
(51.419571 3.8377968 2.060125e-19)
(51.396868 3.7217971 -1.962585e-19)
(51.374431 3.6080901 0)
(51.352512 3.4965683 -2.8804629e-24)
(51.330945 3.3872099 0)
(51.309671 3.2798844 -1.8918969e-19)
(51.289068 3.1742866 0)
(51.268773 3.0707803 1.8267853e-19)
(51.248919 2.9690501 1.7946693e-19)
(51.229693 2.8690414 7.0516009e-19)
(51.21093 2.7708125 5.4109489e-21)
(51.19251 2.6743092 3.3477963e-19)
(51.174545 2.5794418 -6.6791803e-19)
(51.157182 2.4859933 5.1269449e-21)
(51.140168 2.394154 3.1189092e-19)
(51.123614 2.3037105 -3.111447e-19)
(51.107632 2.2145551 3.1029724e-19)
(51.091987 2.1266672 0)
(51.076805 2.0399831 2.538605e-24)
(51.062201 1.9543613 0)
(51.047894 1.8698828 0)
(51.034085 1.7863468 0)
(51.020803 1.7037736 2.7741776e-19)
(51.007941 1.6220657 2.1268558e-21)
(50.995677 1.5411614 -2.086984e-21)
(50.983898 1.4609913 2.6416318e-19)
(50.972547 1.3814782 -5.1636801e-19)
(50.96165 1.3025795 1.9713256e-21)
(50.951244 1.22416 4.9513192e-19)
(50.941262 1.1462146 -1.8975302e-21)
(50.931855 1.0685445 0)
(50.92301 0.99110383 4.6934294e-19)
(50.914664 0.9137884 -3.5829585e-21)
(50.906866 0.83653118 -8.979946e-19)
(50.899646 0.7592216 0)
(50.89298 0.68181902 -2.3423225e-24)
(50.88689 0.60407687 4.2538706e-19)
(50.881297 0.5261497 -8.1331157e-22)
(50.876427 0.44744859 4.0841681e-19)
(50.871978 0.36858736 -8.0111959e-19)
(50.868461 0.28816974 0)
(50.865249 0.20801891 0)
(50.86345 0.12490908 -9.0344938e-23)
(50.861873 0.042972048 9.028771e-23)
(37.615713 28.261722 -1.3911089e-23)
(38.500555 27.632228 -1.0799039e-20)
(39.330015 27.073339 -5.1392601e-21)
(40.108312 26.523346 4.8998892e-21)
(40.841096 25.97557 9.376698e-21)
(41.532553 25.434282 -8.9852538e-21)
(42.186199 24.903812 -8.6275744e-21)
(42.80536 24.386783 -8.2972312e-21)
(43.393413 23.885024 3.0586055e-24)
(43.953829 23.399816 0)
(44.490101 22.931867 1.5132303e-24)
(45.005635 22.481299 -7.4147475e-25)
(45.503575 22.047654 1.0096446e-24)
(45.98653 21.62989 -6.8216323e-21)
(46.456131 21.226647 1.327873e-20)
(46.913211 20.836548 -1.2943043e-20)
(47.357792 20.458265 1.2636147e-20)
(47.789129 20.090754 0)
(48.206126 19.733594 -6.048609e-21)
(48.608155 19.386838 -5.9327613e-21)
(48.995037 19.050613 -7.1473967e-25)
(49.366876 18.725123 -5.7356818e-21)
(49.724442 18.410326 5.6548713e-21)
(50.068659 18.10576 -1.1176472e-20)
(50.400251 17.810677 0)
(50.719664 17.524194 0)
(51.027083 17.245376 1.0905958e-20)
(51.322475 16.973251 -1.0863804e-20)
(51.605602 16.706819 -5.4267476e-21)
(51.876042 16.445045 -5.4342378e-21)
(52.133191 16.186856 1.0918503e-20)
(52.376264 15.93113 -1.1003269e-20)
(52.604293 15.676683 1.6691902e-20)
(52.816115 15.422262 5.6496672e-21)
(53.010376 15.166521 1.7272868e-20)
(53.18552 14.907979 2.5978672e-24)
(53.339786 14.645126 6.0701632e-21)
(53.471538 14.376446 -6.2800187e-21)
(53.576778 14.098521 -6.5410116e-21)
(53.653813 13.808793 -2.7287556e-20)
(53.700848 13.513901 2.8797173e-20)
(53.714279 13.198697 -3.084089e-20)
(53.69085 12.86844 3.3153238e-20)
(53.628246 12.518026 0)
(53.524464 12.146281 4.9159403e-20)
(53.379705 11.752957 8.4496283e-25)
(53.198022 11.340287 4.8166687e-20)
(52.990079 10.915415 -1.2029302e-19)
(52.775464 10.49291 -1.0290021e-19)
(52.579988 10.093499 8.4975347e-25)
(52.424757 9.7343875 -1.6675525e-20)
(52.314774 9.4188802 5.1474393e-20)
(52.240409 9.13811 8.7067522e-20)
(52.188569 8.8806593 0)
(52.148967 8.6384169 7.0297067e-20)
(52.115237 8.4066071 3.9970195e-24)
(52.084251 8.182627 1.754204e-20)
(52.05461 7.9653519 1.2240865e-19)
(52.025558 7.7540556 0)
(51.997024 7.5483207 0)
(51.969086 7.347973 1.7209778e-20)
(51.941198 7.1527524 -1.7085833e-20)
(51.913665 6.9623271 2.5424068e-19)
(51.88658 6.7765981 -1.1760174e-19)
(51.85968 6.5955468 1.663627e-20)
(51.832817 6.4187582 -1.6467654e-20)
(51.806125 6.2462339 -4.5263828e-24)
(51.779929 6.0778032 0)
(51.753755 5.9133975 -7.9624688e-21)
(51.727947 5.7527722 -1.179816e-19)
(51.702428 5.5959309 -7.7665313e-21)
(51.676728 5.4426426 7.6655471e-21)
(51.651415 5.2927578 1.2857079e-19)
(51.626413 5.1462822 1.8072218e-25)
(51.601326 5.0030335 2.3529599e-19)
(51.576748 4.8628572 -7.2463602e-21)
(51.55254 4.7257636 -7.1390022e-21)
(51.528359 4.5915735 7.0308894e-21)
(51.504753 4.4601775 -2.2151359e-19)
(51.481563 4.3315871 0)
(51.458457 4.2056107 -6.7049492e-21)
(51.435974 4.0822466 -1.3167792e-25)
(51.413752 3.9613225 6.4846479e-21)
(51.391607 3.8429421 -1.9782005e-19)
(51.369988 3.7267744 -6.2746557e-21)
(51.348587 3.6129075 6.1692096e-21)
(51.327669 3.5012298 1.9406092e-19)
(51.307058 3.3916879 -1.1921555e-20)
(51.28666 3.2842174 -1.8160198e-19)
(51.26692 3.1784513 0)
(51.247465 3.0747839 -1.8098178e-19)
(51.228387 2.9729249 0)
(51.209911 2.8727656 -5.4532729e-21)
(51.191878 2.7743994 5.3598883e-21)
(51.174149 2.677751 -3.3687112e-19)
(51.156828 2.5827505 6.6157227e-19)
(51.140086 2.4891598 -3.2985655e-19)
(51.123678 2.3971761 9.9647732e-21)
(51.107686 2.3066065 3.0815512e-19)
(51.092241 2.2173168 -3.0731234e-19)
(51.077111 2.1292876 -4.7135337e-21)
(51.062415 2.0424775 -2.9610026e-19)
(51.048278 1.9567282 -2.8154136e-19)
(51.034413 1.8721203 -8.9134504e-21)
(51.021021 1.7884677 4.373807e-21)
(51.008136 1.705773 -2.7470543e-19)
(50.995649 1.6239525 0)
(50.98374 1.5429351 2.0665452e-21)
(50.972295 1.4626536 -2.6156819e-19)
(50.961263 1.3830311 -3.4585371e-24)
(50.950663 1.3040272 0)
(50.940538 1.225503 -4.9024848e-19)
(50.930818 1.1474616 4.809777e-19)
(50.921651 1.0696995 4.718595e-19)
(50.913031 0.99215914 -4.6289244e-19)
(50.904895 0.91475773 -4.5230954e-19)
(50.897293 0.83740949 -2.5423458e-24)
(50.890253 0.76001711 -2.5600485e-21)
(50.883749 0.68252579 4.2855687e-19)
(50.877806 0.6047009 8.2099336e-22)
(50.872342 0.52668729 0)
(50.867586 0.44790885 0)
(50.86323 0.36895989 3.9658418e-19)
(50.859794 0.28846717 3.8894535e-19)
(50.856642 0.20822667 0)
(50.854883 0.12503186 -7.4813696e-19)
(50.853321 0.043020425 0)
(36.997838 27.604454 1.0151266e-20)
(37.865198 27.057463 -9.9246287e-21)
(38.694814 26.575562 4.7506971e-21)
(39.483349 26.094916 0)
(40.232071 25.610437 -8.7668673e-21)
(40.943184 25.127076 1.6892018e-20)
(41.619081 24.649411 8.1460453e-21)
(42.262278 24.180197 -7.875363e-21)
(42.875446 23.721377 0)
(43.461395 23.274393 7.3866104e-21)
(44.022992 22.840187 0)
(44.563056 22.419177 -6.9683806e-21)
(45.0842 22.011269 9.9122461e-25)
(45.588633 21.6159 -6.6094825e-21)
(46.077904 21.232203 0)
(46.552938 20.859201 0)
(47.014011 20.495934 9.0859211e-25)
(47.460813 20.141656 -6.0463915e-21)
(47.892734 19.79604 5.9359892e-21)
(48.309344 19.459099 5.8355846e-21)
(48.710484 19.130961 -7.9917927e-25)
(49.096246 18.811812 0)
(49.467149 18.501702 -5.5997716e-21)
(49.823877 18.200367 5.5397641e-21)
(50.167024 17.907276 5.4983946e-21)
(50.496987 17.621732 5.4630251e-21)
(50.813952 17.342936 -2.1765709e-20)
(51.117897 17.070023 0)
(51.408609 16.802069 -5.4375386e-21)
(51.685686 16.538097 5.4567247e-21)
(51.948541 16.277076 -1.6480797e-20)
(52.196399 16.017909 5.5471363e-21)
(52.428297 15.759428 0)
(52.64307 15.500377 -1.7159309e-20)
(52.839347 15.239394 -5.8456581e-21)
(53.015547 14.974962 -5.9981906e-21)
(53.169869 14.70546 -2.4761405e-20)
(53.300354 14.429582 2.5697955e-20)
(53.403815 14.141786 6.4654512e-25)
(53.477886 13.847351 -3.4916299e-20)
(53.521633 13.540452 0)
(53.529357 13.214532 3.1930507e-20)
(53.499639 12.872918 -3.441663e-20)
(53.430164 12.510356 0)
(53.319522 12.126248 -5.1318473e-20)
(53.169052 11.721133 1.1342543e-20)
(52.984803 11.298815 -6.2911837e-20)
(52.780362 10.86896 8.3480047e-20)
(52.577968 10.448894 1.0628172e-19)
(52.402775 10.05946 0)
(52.270613 9.7134812 5.0644599e-20)
(52.180577 9.4090842 1.7264476e-20)
(52.120717 9.1355032 -1.7451289e-20)
(52.078914 8.8820402 1.7537879e-20)
(52.046551 8.6419058 1.7560061e-20)
(52.018467 8.411242 -1.7538971e-20)
(51.992285 8.1879162 0)
(51.966982 7.9710822 7.366891e-24)
(51.941926 7.760089 1.7351173e-20)
(51.917161 7.5545882 -1.7250079e-20)
(51.892821 7.3544156 0)
(51.868287 7.1593271 1.7004526e-20)
(51.843955 6.968987 -2.8665031e-19)
(51.819941 6.7832981 -1.6708089e-20)
(51.795944 6.6022851 1.6538512e-20)
(51.771827 6.4254703 -1.1459855e-19)
(51.747753 6.2529217 -1.6196508e-20)
(51.724075 6.0844313 -1.2804985e-19)
(51.700262 5.9199456 0)
(51.676716 5.7592254 0)
(51.653355 5.602263 0)
(51.629675 5.4488435 -1.1412418e-19)
(51.606314 5.2988247 3.4516412e-24)
(51.58318 5.1522006 -7.3997881e-21)
(51.559849 5.0088085 0)
(51.53697 4.8684903 -2.2999317e-19)
(51.514386 4.7312459 -7.0795997e-21)
(51.491737 4.5969116 2.3006273e-19)
(51.469615 4.4653745 -6.8630481e-21)
(51.447839 4.3366368 -2.0938442e-19)
(51.426071 4.2105133 -2.1267075e-19)
(51.404874 4.0870135 0)
(51.383883 3.9659119 4.1795798e-19)
(51.362904 3.8473888 1.8970099e-19)
(51.3424 3.7310705 6.2173454e-21)
(51.322063 3.6170617 -1.9559771e-19)
(51.302171 3.50525 -1.9226421e-19)
(51.282542 3.3955377 0)
(51.263049 3.2879436 1.7989297e-19)
(51.244194 3.182033 5.7018468e-21)
(51.225607 3.0782248 0)
(51.20733 2.9762602 1.7059227e-19)
(51.189626 2.8759747 -3.3510621e-19)
(51.172343 2.7774948 7.3527592e-26)
(51.155326 2.680721 3.3360947e-19)
(51.13867 2.5856084 -6.6025446e-19)
(51.122568 2.4919 0)
(51.106784 2.3997905 3.1575123e-19)
(51.091372 2.3091151 0)
(51.076476 2.2197122 2.995274e-19)
(51.061879 2.1315602 9.3338794e-21)
(51.047683 2.0446424 -4.5807393e-21)
(51.034026 1.9587849 -2.4626946e-24)
(51.020618 1.874064 -2.8239368e-19)
(51.007655 1.7903126 -2.728051e-19)
(50.99518 1.7075124 -4.2493923e-21)
(50.983079 1.6255959 0)
(50.971535 1.5444809 0)
(50.960436 1.4641029 -2.5693797e-19)
(50.949731 1.3843856 5.0418164e-19)
(50.939437 1.3052901 0)
(50.929603 1.2266746 0)
(50.920153 1.1485489 -4.7798428e-19)
(50.911232 1.0707084 -9.3236617e-19)
(50.902846 0.99307953 1.7899191e-21)
(50.894926 0.91560447 8.9898407e-19)
(50.887526 0.83817675 8.8011229e-19)
(50.88067 0.76071248 -4.3249477e-19)
(50.874334 0.68314339 0)
(50.868541 0.6052462 -8.1268013e-22)
(50.863211 0.52715638 -4.0731246e-19)
(50.858572 0.44831086 0)
(50.854313 0.36928371 0)
(50.85096 0.28872568 -3.8462413e-19)
(50.847869 0.20840514 -5.5307791e-22)
(50.846152 0.1251335 3.7045636e-19)
(50.844608 0.043060763 0)
(36.471361 26.930177 4.657863e-21)
(37.320719 26.457976 9.1626862e-21)
(38.14291 26.046467 -4.4151955e-21)
(38.932979 25.632288 8.5172332e-21)
(39.689581 25.210106 -8.2297529e-21)
(40.413014 24.784359 -7.96322e-21)
(41.104414 24.359468 0)
(41.765386 23.93824 -9.9081264e-25)
(42.397853 23.522728 7.2742119e-21)
(43.003964 23.114534 3.1637851e-24)
(43.585983 22.714817 6.8909909e-21)
(44.146175 22.324276 6.7162644e-21)
(44.68667 21.943166 1.6482498e-24)
(45.209308 21.571345 6.4105199e-21)
(45.715489 21.208382 6.2730602e-21)
(46.206135 20.8537 -4.3708037e-25)
(46.681676 20.5067 -6.0315449e-21)
(47.142107 20.166914 9.1484812e-25)
(47.587168 19.834126 8.5062787e-25)
(48.016623 19.508355 -5.7444662e-21)
(48.430376 19.18973 -5.5168463e-26)
(48.828519 18.878415 5.6038309e-21)
(49.211405 18.574487 -2.1287686e-25)
(49.579509 18.277809 1.650677e-20)
(49.933271 17.988021 -1.6404828e-20)
(50.273002 17.704591 -1.0893579e-20)
(50.598847 17.426857 1.6304016e-20)
(50.910772 17.154065 0)
(51.20856 16.885377 0)
(51.491809 16.619884 1.645477e-20)
(51.759934 16.3566 -5.5344104e-21)
(52.01216 16.094462 -5.6000971e-21)
(52.247513 15.832317 -2.2750622e-20)
(52.464816 15.568914 5.7994264e-21)
(52.662671 15.302876 1.7819938e-20)
(52.839458 15.032662 6.1126835e-21)
(52.993295 14.756632 -1.2649587e-20)
(53.121941 14.473547 -6.5797592e-21)
(53.223287 14.176764 -2.741475e-20)
(53.294232 13.875172 3.6003965e-20)
(53.333317 13.556758 7.6980924e-21)
(53.334965 13.220271 -8.279133e-21)
(53.298571 12.866903 0)
(53.221943 12.492054 9.7597053e-21)
(53.104562 12.095741 -1.0728424e-20)
(52.949234 11.679576 0)
(52.764426 11.249335 5.2558843e-20)
(52.566822 10.817499 -1.4450247e-20)
(52.380489 10.403559 -3.1247698e-20)
(52.228052 10.026663 -1.6503952e-20)
(52.119084 9.6941858 0)
(52.047748 9.3999825 -8.672019e-20)
(52.001068 9.1326171 -3.4961707e-20)
(51.968448 8.882534 3.5071349e-20)
(51.942905 8.6442247 -5.2613304e-20)
(51.920293 8.4146165 -7.0024985e-20)
(51.898871 8.1919401 0)
(51.87792 7.9755867 7.4717902e-24)
(51.856895 7.7649445 1.7285474e-20)
(51.835943 7.5597401 -1.3741934e-19)
(51.815254 7.3597991 -1.7053528e-20)
(51.794114 7.1649013 -1.3534604e-19)
(51.77303 6.9747062 1.3415584e-19)
(51.752137 6.7891089 -1.3289041e-19)
(51.731086 6.6081921 2.6308274e-19)
(51.709757 6.4313976 -1.3013641e-19)
(51.688343 6.2588798 1.2867091e-19)
(51.667223 6.0903767 1.2716002e-19)
(51.645806 5.9258573 -1.0991718e-19)
(51.62456 5.7650905 -1.5504366e-20)
(51.603391 5.6080484 -1.2242469e-19)
(51.581765 5.4545409 1.2078554e-19)
(51.560391 5.3044325 -1.3401254e-19)
(51.539159 5.1576975 7.3396257e-21)
(51.517617 5.0142013 7.2336997e-21)
(51.496468 4.8737795 2.2805015e-19)
(51.475538 4.7364167 0)
(51.454451 4.6019709 -2.2114563e-19)
(51.433838 4.470324 6.8024958e-21)
(51.413502 4.341464 2.142033e-19)
(51.393095 4.215219 2.1074518e-19)
(51.373205 4.0916074 -6.4779399e-21)
(51.353466 3.9703475 -4.077367e-19)
(51.333677 3.8517014 2.0047143e-19)
(51.314309 3.73525 0)
(51.295057 3.6211139 1.9374981e-19)
(51.276206 3.5091855 1.8448365e-19)
(51.257578 3.399309 5.8485921e-21)
(51.239008 3.2916045 1.7816483e-19)
(51.221053 3.1855635 5.6466587e-21)
(51.203352 3.0816232 0)
(51.18589 2.9795625 2.2489188e-24)
(51.168971 2.8791607 5.3518793e-21)
(51.152452 2.7805743 -3.4162749e-19)
(51.136158 2.6836781 -6.6060091e-19)
(51.120179 2.5884574 3.2937544e-19)
(51.104725 2.4946387 -4.9750172e-21)
(51.089577 2.402405 -6.2517702e-19)
(51.074756 2.311626 3.0206766e-19)
(51.060419 2.2221139 9.4131204e-21)
(51.046363 2.133841 5.1703541e-26)
(51.032678 2.0468169 4.8829619e-26)
(51.019509 1.9608536 2.8036721e-19)
(51.006565 1.8760194 2.8388872e-19)
(50.99404 1.7921705 -4.2883469e-21)
(50.981983 1.7092649 2.6918884e-19)
(50.970275 1.6272534 -2.0636608e-21)
(50.959103 1.5460408 2.6323685e-19)
(50.948355 1.4655663 5.0463495e-19)
(50.937982 1.3857537 3.8985189e-21)
(50.928001 1.3065662 -3.8248496e-21)
(50.918463 1.2278592 -1.3475588e-26)
(50.909288 1.1496472 -4.7122544e-19)
(50.900617 1.0717288 4.640864e-19)
(50.892469 0.99401009 -4.5349394e-19)
(50.88477 0.91646123 -4.4485225e-19)
(50.877576 0.83895348 2.5952423e-24)
(50.870907 0.76141634 4.2802405e-19)
(50.864741 0.68376898 0)
(50.859102 0.60579861 4.1178994e-19)
(50.853909 0.52763188 4.0467476e-19)
(50.849387 0.44871852 2.6313274e-27)
(50.845228 0.36961224 -3.8926251e-19)
(50.841959 0.28898811 0)
(50.838932 0.20858682 -3.7366196e-19)
(50.837255 0.12523818 8.9464205e-23)
(50.835731 0.043102696 -8.7567209e-23)
(36.022322 26.241172 0)
(36.8548 25.842751 -4.2489211e-21)
(37.66619 25.496898 8.2351483e-21)
(38.452179 25.145062 -7.9866322e-21)
(39.210211 24.782382 -1.5498484e-20)
(39.939355 24.412442 2.2596685e-20)
(40.63981 24.039165 7.3259716e-21)
(41.312414 23.665241 -1.4270827e-20)
(41.95842 23.292755 6.9548165e-21)
(42.579364 22.923417 -1.3576558e-20)
(43.176944 22.558558 -1.3264373e-20)
(43.752913 22.199114 6.4876017e-21)
(44.308952 21.845639 -1.2700983e-20)
(44.846559 21.498343 0)
(45.366934 21.157174 0)
(45.870932 20.821912 0)
(46.359046 20.492281 0)
(46.831445 20.168055 0)
(47.288089 19.849149 -1.1461625e-20)
(47.728885 19.535624 -1.132049e-20)
(48.153806 19.22762 -5.5982543e-21)
(48.562938 18.925294 -5.5436415e-21)
(48.956515 18.628744 -1.1003897e-20)
(49.334851 18.337912 0)
(49.698244 18.052562 -5.4454384e-21)
(50.046907 17.772295 1.6299838e-20)
(50.380921 17.496574 0)
(50.700211 17.22475 0)
(51.004536 16.956071 5.475353e-21)
(51.293477 16.689697 -5.5156165e-21)
(51.566432 16.424693 1.1156215e-20)
(51.82261 16.160029 1.1316337e-20)
(52.061019 15.894572 -2.1862548e-24)
(52.280452 15.627074 0)
(52.479482 15.356149 -1.2091865e-20)
(52.656441 15.080242 0)
(52.80936 14.797771 1.9414968e-20)
(52.935706 14.507344 6.1945453e-25)
(53.034434 14.201737 -1.0581422e-24)
(53.101756 13.891975 3.7200489e-20)
(53.135478 13.562062 -3.1924885e-20)
(53.130681 13.214906 -3.4414024e-20)
(53.087265 12.849406 0)
(53.003419 12.462193 0)
(52.879759 12.053989 0)
(52.720949 11.627838 -3.7253362e-20)
(52.538261 11.191904 -6.8527963e-20)
(52.351349 10.761565 -1.496737e-20)
(52.184766 10.357351 -4.8069076e-20)
(52.056709 9.9948436 0)
(51.970275 9.6756653 0)
(51.916105 9.3906635 6.9590419e-20)
(51.881296 9.1287118 0)
(51.857101 8.8815848 -8.7600608e-20)
(51.838029 8.6449487 1.7501273e-20)
(51.820749 8.4163935 1.7463266e-20)
(51.804056 8.1944217 5.2196232e-20)
(51.787475 7.9786347 -1.3850786e-19)
(51.77051 7.7684264 1.3771278e-19)
(51.75341 7.5636159 1.1968331e-19)
(51.736416 7.3639883 1.6967929e-20)
(51.718704 7.1693625 1.5143447e-19)
(51.700907 6.979393 1.3338753e-19)
(51.683176 6.7939532 -1.6514763e-20)
(51.665107 6.6132032 -1.3069433e-19)
(51.646602 6.436483 2.5852413e-19)
(51.627886 6.2640594 1.4375263e-19)
(51.60936 6.095594 -1.5780669e-20)
(51.59037 5.9310893 2.649568e-19)
(51.571458 5.7703259 3.3796718e-25)
(51.552515 5.6132436 9.1096193e-20)
(51.532973 5.4596895 1.3479741e-19)
(51.513619 5.3095335 0)
(51.49432 5.162721 0)
(51.474597 5.0191561 0)
(51.455207 4.8786653 0)
(51.43596 4.7412113 0)
(51.41646 4.6066828 0)
(51.397384 4.4749535 2.0896464e-19)
(51.378512 4.3459921 6.6324072e-21)
(51.359491 4.2196478 2.0879411e-19)
(51.340928 4.095946 0)
(51.322463 3.9745447 2.0194035e-19)
(51.303888 3.8557935 3.5722757e-24)
(51.285677 3.7392247 6.1001383e-21)
(51.267531 3.624974 -5.9961842e-21)
(51.249735 3.5129451 -1.9447867e-19)
(51.232128 3.4029111 1.1582756e-20)
(51.214502 3.2951087 -1.1378551e-20)
(51.197461 3.1889522 1.1181561e-20)
(51.180666 3.0848901 -1.7574991e-19)
(51.164037 2.9827433 2.3422575e-24)
(51.147915 2.8822366 -5.2980217e-21)
(51.132174 2.7835527 3.2777014e-19)
(51.116617 2.686539 3.3206099e-19)
(51.101329 2.5912162 0)
(51.086535 2.4972981 3.1515871e-19)
(51.072035 2.4049438 3.0455604e-19)
(51.057819 2.3140655 4.7486037e-21)
(51.044048 2.2244509 0)
(51.030544 2.1360625 -4.5722377e-21)
(51.017381 2.0489359 -2.8271833e-19)
(51.004709 1.9628719 0)
(50.992239 1.8779271 -2.8094588e-19)
(50.980161 1.793985 8.4808855e-21)
(50.968529 1.7109769 -5.4109442e-19)
(50.957223 1.6288742 4.0842453e-21)
(50.946429 1.5475669 -2.5647856e-19)
(50.93604 1.4669984 -2.5164441e-19)
(50.926007 1.387093 -4.9378853e-19)
(50.916345 1.3078157 0)
(50.907108 1.2290199 0)
(50.898214 1.1507218 4.6445165e-19)
(50.8898 1.0727286 4.5921091e-19)
(50.881894 0.99492142 4.5047338e-19)
(50.874421 0.91730098 4.3673354e-19)
(50.867436 0.83971509 -4.3008074e-19)
(50.860959 0.76210642 1.6543586e-21)
(50.854966 0.68438266 -8.1133766e-22)
(50.849484 0.6063405 -8.148915e-19)
(50.84443 0.52809847 -7.805181e-22)
(50.840029 0.44911863 -3.9194708e-19)
(50.835971 0.36993453 7.6842957e-19)
(50.832787 0.28924563 3.7736461e-19)
(50.829824 0.20876505 7.3943457e-19)
(50.828191 0.12534095 3.6266734e-19)
(50.826686 0.04314425 3.5480092e-19)
(35.646436 25.545263 0)
(36.462856 25.220646 -3.9609937e-21)
(37.261326 24.936314 1.5420706e-20)
(38.038892 24.642347 -1.1264688e-20)
(38.792898 24.335463 7.3219118e-21)
(39.521896 24.018455 -7.1426278e-21)
(40.225516 23.694629 -6.974356e-21)
(40.90403 23.366459 1.362995e-20)
(41.558135 23.035984 -6.6672494e-21)
(42.188824 22.704955 6.5266095e-21)
(42.797284 22.374808 1.918365e-20)
(43.384795 22.046654 -1.8815393e-20)
(43.952627 21.721277 1.8472488e-20)
(44.501944 21.399168 -6.0520575e-21)
(45.033725 21.080579 0)
(45.548709 20.76559 0)
(46.047379 20.454195 1.1402302e-24)
(46.529981 20.146384 5.707456e-21)
(46.996586 19.842203 5.6400414e-21)
(47.447194 19.541775 5.5810149e-21)
(47.881813 19.245269 5.5315856e-21)
(48.300514 18.952853 5.4918537e-21)
(48.703445 18.664639 -1.0924062e-20)
(49.090793 18.380627 1.6318067e-20)
(49.462734 18.100671 5.4289334e-21)
(49.819377 17.824475 5.4273803e-21)
(50.160726 17.551607 0)
(50.486647 17.281509 0)
(50.796856 17.013514 1.6512677e-20)
(51.090898 16.746844 -1.6676313e-20)
(51.36814 16.480615 0)
(51.62776 16.21383 5.7277759e-21)
(51.868731 15.945374 1.7531812e-20)
(52.089812 15.674002 0)
(52.289534 15.398316 -6.1654636e-21)
(52.466189 15.116754 -6.1135096e-25)
(52.617712 14.827864 1.9907617e-20)
(52.74121 14.529774 2.0837127e-20)
(52.836696 14.21556 -7.272303e-21)
(52.899987 13.896925 4.5778354e-24)
(52.927654 13.555457 -4.6645117e-24)
(52.916029 13.197264 3.5835393e-20)
(52.865337 12.819379 0)
(52.774443 12.41986 -1.0675945e-20)
(52.645381 12.000366 5.8839482e-20)
(52.485094 11.565795 1.2989791e-20)
(52.307941 11.127094 6.6945075e-25)
(52.13596 10.702217 -1.5452408e-20)
(51.992347 10.311047 8.1830119e-20)
(51.889306 9.9640016 5.8152374e-25)
(51.824081 9.6574555 -1.7277686e-20)
(51.785391 9.3806258 -6.9731278e-20)
(51.76122 9.1234099 6.9970329e-20)
(51.744791 8.8789339 6.9990586e-20)
(51.731903 8.643892 1.3973764e-19)
(51.719843 8.4164318 0)
(51.707857 8.1952452 -6.9347707e-20)
(51.695664 7.9801279 0)
(51.682787 7.7704456 -2.7418363e-19)
(51.669576 7.5661408 -1.3611453e-19)
(51.65632 7.366913 -1.6877677e-20)
(51.642067 7.1726467 1.6729855e-20)
(51.627595 6.9829914 -1.3257025e-19)
(51.613067 6.7977764 1.4763002e-19)
(51.598015 6.6172687 -3.2454983e-20)
(51.582369 6.4406777 -1.1231217e-19)
(51.566387 6.2684172 -1.2685099e-19)
(51.550492 6.1000412 0)
(51.53396 5.9356022 -1.0825885e-19)
(51.517415 5.7748967 -1.3738464e-19)
(51.500729 5.6178151 0)
(51.483304 5.4642587 -1.3367793e-19)
(51.466002 5.3141012 2.9286668e-20)
(51.448668 5.1672462 -1.4431042e-20)
(51.430794 5.0236505 0)
(51.413194 4.8831287 -2.2405597e-19)
(51.395657 4.7456126 -1.3787825e-20)
(51.377773 4.6110324 1.3571941e-20)
(51.36026 4.4792511 -2.1369204e-19)
(51.342876 4.3502102 2.1681283e-19)
(51.325266 4.2237913 4.3908477e-24)
(51.308051 4.1000222 -1.2711485e-20)
(51.290879 3.9784984 2.0623985e-19)
(51.273542 3.859662 -1.9662276e-19)
(51.25651 3.7429932 0)
(51.23949 3.6286409 1.8998449e-19)
(51.222764 3.5165291 1.8087163e-19)
(51.206198 3.4063461 5.7333643e-21)
(51.189537 3.2984593 -1.8026541e-19)
(51.173424 3.1922034 1.7156138e-19)
(51.157554 3.088031 1.8483202e-19)
(51.141775 2.9858079 -1.7620024e-19)
(51.126464 2.8852087 -5.2437097e-21)
(51.111513 2.786436 5.1490838e-21)