/*--------------------------------*- C++ -*----------------------------------*\
| =========                 |                                                 |
| \\      /  F ield         | OpenFOAM: The Open Source CFD Toolbox           |
|  \\    /   O peration     | Version:  2406                                  |
|   \\  /    A nd           | Website:  www.openfoam.com                      |
|    \\/     M anipulation  |                                                 |
\*---------------------------------------------------------------------------*/
FoamFile
{
    version     2.0;
    format      ascii;
    arch        "LSB;label=32;scalar=64";
    class       volScalarField;
    location    "0.04";
    object      omega;
}
// * * * * * * * * * * * * * * * * * * * * * * * * * * * * * * * * * * * * * //

dimensions      [0 0 -1 0 0 0 0];

internalField   nonuniform List<scalar> 
2065
(
14.193755
10.139744
7.2516517
4953.0629
3584.6172
2566.1404
1821.0003
1283.8689
901.37861
631.50649
442.27872
310.05743
217.78387
153.35547
108.29669
76.715148
54.523441
38.882509
27.816739
19.942627
14.293983
10.20727
7.3025202
56732.254
49305.131
42387.844
35889.445
29862.851
24395.743
19568.406
15416.307
11929.474
9071.4082
6783.0037
4994.5592
3627.5772
2603.9313
1851.3069
1306.7092
917.83091
642.96451
450.05998
315.24549
221.19701
155.58187
109.74095
77.649262
55.126909
39.272423
28.069111
20.106618
14.401732
10.279713
7.3544775
52896.792
46328.508
40124.417
34237.773
28719.374
23653.185
19122.412
15176.918
11825.41
9048.493
6803.58
5033.492
3670.0264
2642.2897
1882.6021
1330.5815
935.17895
655.12462
458.35666
320.79515
224.85585
157.97203
111.29271
78.653315
55.77567
39.691628
28.340453
20.282957
14.517588
10.357425
7.4070992
49308.907
43503.836
37948.19
32623.443
27579.89
22896.444
18655.864
14917.609
11705.31
9014.5406
6817.4781
5069.2494
3711.5684
2680.997
1914.789
1355.4611
953.43398
668.01125
467.19425
326.72801
228.77739
160.53752
112.95986
79.732572
56.473179
40.142376
28.632234
20.472609
14.642182
10.440788
7.4592308
45941.257
40815.105
35849.663
31043.107
26444.138
22126.033
18168.947
14638.034
11568.48
8968.6401
6823.6634
5101.1877
3751.7703
2719.8009
1947.7478
1381.3094
972.6001
681.64597
476.5977
333.06598
232.97899
163.29051
114.75084
80.892676
57.223154
40.627096
28.946042
20.676616
14.776201
10.530224
7.5167771
42773.38
38251.762
33823.313
29495.136
25312.547
21342.875
17662.14
14338.065
11414.372
8910.0722
6821.8112
5128.6941
3790.1693
2758.4145
1981.3331
1408.0721
992.67289
696.04659
486.59085
339.83116
237.47754
166.24377
116.67461
82.139663
58.029585
41.148406
29.28359
20.896111
14.920383
10.626176
7.580888
39788.949
35806.211
31866.205
27979.224
24186.301
20548.419
17136.338
14017.887
11242.679
8838.4404
6812.6374
5151.2253
3826.2781
2796.5215
2015.3727
1435.6768
1013.6379
711.22626
497.19602
347.04561
242.29099
169.41066
118.74067
83.479989
58.896763
41.709126
29.646733
21.132317
15.075526
10.729103
7.6425586
36972.777
33472.389
29976.645
26496.161
23067.394
19744.739
16592.943
13678.055
11053.218
8752.7846
6792.4874
5167.9245
3859.568
2833.7756
2049.669
1464.0321
1035.4694
727.19258
508.43338
354.7311
247.43803
172.80605
120.9591
84.920544
59.829287
42.312296
30.037472
21.386562
15.242487
10.83953
7.7112909
34317.423
31248.681
28155.494
25048.462
21958.969
18934.724
16033.996
13319.596
10846.153
8652.7414
6761.9711
5178.081
3889.4927
2869.8032
2083.9992
1493.0284
1058.1294
743.94655
520.32036
362.90876
252.93751
176.44513
123.34045
86.468669
60.832092
42.961185
30.457968
21.660283
15.422192
10.958008
7.7885204
31817.969
29134.205
26405.06
23639.947
20865.255
18122.159
15462.271
12944.111
10622.071
8538.2284
6720.6707
5180.6783
3915.5055
2904.2143
2118.116
1522.5363
1081.5669
761.48156
532.87093
371.59861
258.80833
180.34236
125.89578
88.132165
61.910456
43.659312
30.910554
21.955034
15.615651
11.085105
7.8601671
29473.851
27132.194
24730.325
22276.289
19791.813
17311.826
14881.364
12553.882
10382.081
8409.5765
6668.6406
5176.9985
3937.2691
2936.6252
2151.7514
1552.4056
1105.7172
779.78244
546.09492
380.81922
265.06929
184.5131
128.63661
89.919313
63.070023
44.410454
31.397748
22.272496
15.823962
11.221493
7.9420026
27289.347
25248.73
23138.272
20964.652
18745.353
16509.455
14295.689
12151.879
10127.843
8267.4581
6605.8389
5165.8552
3954.33
2966.6478
2184.6273
1582.4667
1130.4981
798.82444
559.99715
390.58718
271.7389
188.97344
131.57594
91.838878
64.31682
45.218669
31.922261
22.614479
16.048312
11.367855
8.0142839
25267.77
23489.27
21635.682
19712.342
17732.985
15721.376
13710.276
11741.63
9861.4855
8112.7916
6532.0943
5145.6265
3966.1114
2993.8832
2216.4508
1612.5354
1155.814
818.57267
574.57675
400.91661
278.83498
193.73958
134.72693
93.900025
65.657261
46.088303
32.487009
22.982933
16.289984
11.525031
8.0960577
23412.749
21859.387
20229.328
18526.672
16761.944
14954.153
13130.501
11327.084
9585.5591
7946.9208
6447.9683
5117.35
3972.2623
3017.9558
2246.9238
1642.4127
1181.5553
838.98168
589.82654
411.81855
286.37436
198.82764
138.10193
96.112343
67.098156
47.024005
33.095125
23.379949
16.550344
11.693888
8.1876893
21721.936
20359.968
18922.554
17412.641
15838.05
14213.62
12561.52
10912.296
9302.8725
7771.4891
6354.1897
5080.9658
3972.099
3038.5009
2275.7527
1671.8856
1207.5984
859.99621
605.73232
423.30045
294.37251
204.25366
141.71416
98.48579
68.646726
48.030742
33.749967
23.807768
16.830842
11.875313
8.2904697
20190.981
18990.206
17717.162
16373.869
14965.974
13504.799
12008.079
10501.228
9016.3671
7588.4251
6251.9095
5037.3509
3967.8174
3055.5461
2302.6946
1700.7442
1233.8056
881.54639
622.2719
435.36548
302.84316
210.03338
145.57754
101.03178
70.310602
49.11381
34.455128
24.26878
17.133021
12.070192
8.405939
18808.159
17743.401
16610.35
15410.48
14147.864
12831.015
11473.903
10097.353
8728.8456
7399.683
6142.2064
4986.5668
3957.1605
3068.709
2327.4903
1728.7745
1260.0309
903.55156
639.41458
448.0121
311.79787
216.18193
149.70595
103.76158
72.097717
50.278833
35.214438
24.765535
17.458527
12.279371
8.5382173
17559.355
16610.319
15596.926
14520.481
13384.085
12194.19
10961.722
9703.5429
8442.8191
7207.1218
6026.1727
4928.9916
3940.4037
3077.7601
2349.892
1755.7583
1286.1192
925.92208
657.12122
461.23342
321.24558
222.71353
154.11326
106.68574
74.016309
51.531773
36.031975
25.300737
17.809097
12.503439
8.6378006
16429.912
15580.888
14670.733
13700.892
12674.069
11595.412
10473.574
9322.1666
8160.5032
7012.4956
5904.9835
4865.333
3918.2426
3082.6292
2369.6803
1781.4781
1311.9022
948.55746
675.34565
475.01683
331.19219
229.6412
158.81325
109.81602
76.07589
52.878943
36.912067
25.877243
18.186535
12.743471
8.7507353
15399.628
14639.433
13820.477
12944.404
12013.862
11033.295
10009.815
8954.5376
7883.5175
6817.2766
5779.7106
4796.1748
3890.6589
3082.7272
2386.5891
1805.7176
1337.2126
971.34539
694.02883
489.34277
341.63997
236.9765
163.81942
113.16435
78.286063
54.326915
37.859285
26.498056
18.592689
13.000425
8.8747108
14453.651
13773.896
13037.065
12244.84
11399.909
10506.416
9570.5568
8601.6846
7613.2653
6622.8461
5651.4951
4722.4005
3858.5347
3079.9652
2400.7844
1828.3287
1361.8871
994.16764
713.10302
504.18457
352.58711
244.72908
169.14468
116.74269
80.655706
55.882492
38.878433
27.166322
19.029424
13.275134
9.0104838
13577.559
12971.45
12309.752
11593.903
10826.484
10011.442
9154.4269
8263.6128
7350.5251
6430.2495
5521.2881
4644.6235
3821.8571
3072.7601
2411.9883
1849.1286
1385.7565
1016.8988
732.4939
519.50885
364.02732
252.90641
174.80118
120.56306
83.194647
57.553621
39.974542
27.88532
19.498626
13.56831
9.1563219
12759.998
12221.796
11629.589
10984.305
10288.174
9544.8662
8759.6352
7939.8679
7095.6965
6240.2699
5389.8737
4563.3701
3780.7797
3061.1439
2420.0147
1867.9322
1408.6477
1039.4019
752.1183
535.27699
375.94962
261.51334
180.80007
124.63738
85.913005
59.348135
41.152754
28.658447
20.002195
13.880611
9.3104258
11992.876
11517.054
10989.201
10409.55
9779.7181
9102.891
8383.8759
7629.449
6848.732
6053.4011
5257.9194
4479.2402
3735.7947
3045.758
2424.8878
1884.5998
1430.3977
1061.5442
771.88373
551.43858
388.33711
270.55168
187.15122
128.97722
88.821018
61.273327
42.419089
29.489207
20.542027
14.212622
9.4700202
11270.677
10851.669
10383.107
9864.4597
9296.5669
8681.904
8024.6681
7331.0093
6609.2267
5869.8676
5125.9401
4392.7611
3687.2553
3026.5923
2426.3019
1898.9486
1450.8434
1083.1891
791.69419
567.93809
401.16727
280.01986
193.86294
133.59371
91.929026
63.337335
43.779563
30.381134
21.120051
14.564838
9.6317212
10589.953
10222.161
9807.8162
9345.5771
8835.4556
8279.0807
7679.8626
7043.2077
6376.6206
5689.7167
4994.3384
4304.4494
3635.6411
3004.0952
2425.0415
1911.0408
1469.8735
1104.206
811.44836
584.71556
414.41361
289.91295
200.94177
138.49736
95.247365
65.548531
45.239713
31.338406
21.738302
14.937877
9.7933531
9947.5218
9625.3674
9260.121
8849.7134
8393.2703
7891.5361
7347.0171
6764.2315
6149.8207
5512.5198
4863.1807
4214.6454
3581.36
2978.5698
2421.0491
1920.8845
1487.4003
1124.4746
831.04285
601.70488
428.04442
300.22219
208.39212
143.6979
98.786309
67.915548
46.805818
32.365568
22.399054
15.332858
9.9648766
9340.505
9058.6869
8737.4285
8374.1882
7967.3384
7516.6777
7023.7657
6492.1312
5927.4359
5337.4771
4732.163
4123.3454
3524.4594
2949.842
2413.6308
1928.2596
1503.2959
1143.8766
850.37987
618.83448
442.0188
310.93386
216.21582
149.20399
102.55596
70.447218
48.484465
33.466592
23.10489
15.751302
10.146126
8767.7267
8521.2619
8239.0424
7918.2217
7556.6552
7153.3425
6708.8421
6225.661
5708.4074
5163.8426
4600.8866
4030.4371
3465.0106
2918.1326
2403.3967
1933.2105
1517.4745
1162.2992
869.35579
636.03104
456.29386
322.02978
224.41187
155.02299
106.5661
73.152579
50.282673
34.646015
23.85883
16.195163
10.336276
8228.3571
8012.6188
7764.7213
7481.6703
7160.97
6801.0342
6401.5701
5964.0232
5491.913
4990.9063
4468.855
3935.6651
3402.9544
2883.4819
2390.3044
1935.6536
1529.8429
1179.6278
887.86095
653.20952
470.82058
333.48922
232.97651
161.16067
110.82602
76.040825
52.207938
35.909369
24.664321
16.666851
10.535501
7722.0856
7532.8385
7314.8262
7065.0478
6780.8087
6460.1045
6101.984
5706.9842
5277.5189
4818.1258
4335.5335
3838.5816
3337.9398
2845.5822
2374.0121
1935.2442
1540.1568
1195.6892
905.7639
670.27588
485.5396
345.28301
241.90167
167.62069
115.34423
79.121182
54.268197
37.262777
25.525901
17.169259
10.745098
7248.135
7081.6511
6889.5279
6668.8588
6416.8836
6131.3327
5810.7695
5454.976
5065.4047
4645.474
4200.7604
3738.9938
3269.8486
2804.4881
2354.8682
1932.8249
1548.5664
1210.4008
922.94154
687.12917
500.38142
357.37221
251.17354
174.40381
120.12813
82.402701
56.471682
38.712764
26.448814
17.705849
10.967505
6804.4827
6657.5658
6487.8423
6292.5583
6068.9887
5814.7338
5528.0237
5208.078
4855.507
4472.7347
4064.2145
3636.5384
3198.3119
2759.7941
2332.2656
1927.1437
1554.6592
1223.5497
939.23507
703.64866
515.26733
369.7118
260.77212
181.50737
125.18355
85.894011
58.826745
40.266129
27.437874
18.280597
11.206376
6389.057
6259.081
6108.838
5935.7552
5737.2073
5510.7642
5254.453
4967.0768
4648.6094
4300.5738
3926.3673
3531.4693
3123.3935
2711.4207
2306.0623
1918.2461
1558.2915
1234.9738
954.48858
719.70223
530.10061
382.2486
270.67529
188.92589
130.5146
89.603082
61.341743
41.930026
28.498465
18.8981
11.46068
5999.5365
5884.3134
5751.094
5597.499
5421.0431
5219.3359
4990.299
4732.4465
4445.2399
4129.467
3787.5955
3424.0171
3045.1528
2659.2667
2276.0293
1905.8003
1558.6946
1244.2515
968.45778
735.1315
544.77801
394.91842
280.85049
196.64924
136.1231
93.536915
64.024806
43.711711
29.636603
19.563618
11.739362
5634.2278
5531.8563
5413.5056
5276.9981
5120.0129
4940.2488
4735.6011
4504.4024
4245.7306
3959.7778
3648.1917
3314.3984
2963.7544
2603.4999
2242.4329
1890.3219
1557.0873
1251.6224
981.08026
749.82029
559.20204
407.65404
291.25913
204.66236
142.00824
97.70128
66.88359
45.618236
30.857811
20.28088
12.040612
5292.4008
5201.2149
5095.832
4974.2771
4834.4068
4674.0434
4491.116
4283.8629
4051.0924
3792.5237
3509.1375
3203.4724
2879.8857
2544.6094
2205.5294
1871.7107
1552.6432
1256.8877
992.24436
763.65979
573.27733
420.38812
301.86182
212.94737
148.16682
102.10062
69.92515
47.656254
32.166268
21.04913
12.357264
4972.4007
4890.965
4796.9066
4688.445
4563.6175
4420.3901
4256.7684
4070.9634
3861.6128
3628.079
3370.7851
3091.5253
2793.7531
2482.699
2165.2982
1849.8049
1545.1343
1259.9532
1001.889
776.57125
586.9183
433.04963
312.61653
221.48596
154.59411
106.73811
73.155814
49.831787
33.564147
21.860484
12.670888
4673.1555
4600.2601
4516.1262
4419.155
4307.5604
4179.4619
4032.9698
3866.3183
3678.0526
3467.2804
3233.9814
2979.3202
2705.9247
2418.1006
2121.8336
1824.5261
1534.4703
1260.0681
1009.5856
788.32668
599.99293
445.55739
323.47085
230.24981
161.28114
111.61496
76.580926
52.150293
35.053291
22.707916
12.960081
4392.524
4327.1611
4251.7802
4164.9482
4065.0467
3950.3488
3819.0843
3669.5457
3500.243
3310.1136
3098.7996
2866.9484
2616.4939
2350.9008
2075.246
1796.1048
1521.1431
1258.4789
1015.5923
798.86356
612.38504
457.81719
334.36479
239.20513
168.21338
116.7295
80.204545
54.617161
36.638411
23.595129
13.227708
4129.8276
4071.1012
4003.4323
3925.5385
3835.9581
3733.1142
3615.3639
3481.0811
3328.7839
3157.3075
2966.0471
2755.2367
2526.2233
2281.7222
2025.9826
1764.7483
1504.9667
1254.2355
1019.6811
808.06583
623.98131
469.72895
345.22605
248.31229
175.37429
122.07777
84.029349
57.237511
38.32619
24.532801
13.485484
3882.9617
3830.1298
3769.3063
3699.3461
3618.9324
3526.6313
3420.9287
3300.2937
3163.2821
3008.6807
2835.7115
2644.2839
2435.259
2210.7072
1974.1035
1730.3616
1485.6627
1246.9903
1021.4289
815.70204
634.63293
481.18181
355.97609
257.52356
182.74112
127.65283
88.056418
60.015585
40.122107
25.530234
13.744283
3652.3248
3604.6813
3549.8828
3486.9086
3414.5746
3331.582
3236.5434
3128.0315
3004.6619
2865.2125
2708.792
2535.0634
2344.492
2138.5927
1920.1441
1693.2949
1463.477
1237.08
1020.8921
821.60919
644.17827
492.05644
366.53495
266.78619
190.28256
133.44185
92.284145
62.954352
42.02977
26.589865
14.008461
3435.1579
3392.1617
3342.7538
3286.0254
3220.9135
3146.2439
3060.7506
2963.1119
2852.0161
2726.2594
2584.8837
2427.3722
2253.8762
2065.4456
1864.258
1653.7712
1438.7134
1224.8732
1018.6438
825.95652
652.57512
502.25416
376.81362
276.03963
197.96565
139.43043
96.708989
66.055467
44.050631
27.70866
14.274063
3232.9212
3194.0141
3149.3491
3098.1178
3039.3659
2972.0346
2894.9723
2806.9627
2706.775
2593.2442
2465.3852
2322.5576
2164.6689
1992.3929
1807.3934
1612.4955
1411.7417
1210.2608
1013.894
828.58243
659.79205
511.7285
386.74911
285.22833
205.75562
145.6023
101.32502
69.316774
46.182052
28.876015
14.524455
3041.4509
3006.2478
2965.8745
2919.6113
2866.6031
2805.8965
2736.4471
2657.1405
2566.8305
2464.4036
2348.8736
2219.5174
2076.0546
1918.8488
1749.1185
1569.1239
1382.2654
1193.0258
1006.7059
828.94384
665.47352
520.27865
396.22653
294.2856
213.61123
151.93216
106.12094
72.735405
48.421447
30.084859
14.735598
2864.3252
2832.347
2795.712
2753.7807
2705.7867
2650.8725
2588.0934
2516.4322
2434.8288
2342.2309
2237.6726
2120.3843
1989.9496
1846.4883
1690.8501
1524.8091
1351.1937
1173.897
997.7108
827.95781
669.86964
527.90736
405.18768
303.15257
221.4902
158.40091
111.09105
76.310184
50.770455
31.341725
14.910199
2694.8171
2665.8026
2632.5979
2594.6357
2551.2303
2501.6121
2444.9287
2380.2553
2306.6164
2223.026
2128.5512
2022.4022
1904.0663
1773.4717
1631.1648
1478.502
1317.7976
1152.3844
986.51705
825.08001
672.81274
534.49904
413.52314
311.74227
229.33803
164.97806
116.22466
80.04766
53.247516
32.672132
15.084421
2540.8174
2514.3295
2484.054
2449.4854
2410.0094
2364.9347
2313.493
2254.8454
2188.0982
2112.3348
2026.6658
1930.3052
1822.6801
1703.5756
1573.2976
1432.851
1284.0989
1129.8507
973.82101
820.41035
674.28497
540.06977
421.23107
320.03111
237.12577
171.64159
121.51334
83.951021
55.862789
34.080785
15.245428
2389.978
2365.8605
2338.3315
2306.9417
2271.1434
2230.3189
2183.779
2130.7664
2070.4674
2002.0353
1924.6312
1837.4858
1739.9894
1631.8172
1513.077
1384.4706
1247.4549
1104.3522
958.36527
813.43644
673.93572
544.28417
428.07566
327.87325
244.76902
178.34684
126.93088
88.000332
58.598473
35.562966
15.41104
2257.5752
2235.4052
2210.1377
2181.3705
2148.6127
2111.31
2068.8423
2020.5253
1965.6184
1903.3423
1832.9115
1753.5844
1664.7372
1565.9715
1457.2473
1339.027
1212.437
1079.3905
942.6387
805.6991
672.61759
547.55603
434.19439
335.27097
252.21997
185.03723
132.4269
92.148103
61.398064
37.04324
15.497957
2121.4935
2101.2234
2078.1636
2051.956
2022.1668
1988.3045
1949.8177
1906.0944
1856.4677
1800.2276
1736.646
1665.0172
1584.7179
1495.2976
1396.5947
1288.8685
1172.944
1050.348
923.38984
795.13338
669.22378
549.3527
439.3341
342.11106
259.44463
191.7226
138.02977
96.424328
64.282898
38.529211
15.515929
2010.6961
1991.871
1970.494
1946.2453
1918.7346
1887.5204
1852.1066
1811.9413
1766.4194
1714.892
1656.6847
1591.1311
1517.6216
1435.6778
1345.053
1245.8544
1138.6836
1024.7625
906.02122
785.11497
665.30621
550.19265
443.67699
348.37452
266.30833
198.23016
143.58833
100.73126
67.215221
40.030521
15.507907
1885.8993
1868.5796
1848.9611
1826.7635
1801.6447
1773.2176
1741.0466
1704.6453
1663.477
1616.9612
1564.486
1505.4334
1439.2188
1365.3504
1283.5156
1193.6874
1096.2421
992.0929
882.79931
770.60409
658.37738
549.42054
446.8452
353.96543
272.93542
204.78816
149.32402
105.22125
70.274486
41.58559
15.496626
1798.7181
1782.3437
1763.8365
1742.9429
1719.3543
1692.7218
1662.6529
1628.7086
1590.4031
1547.2078
1498.5607
1443.8859
1382.6259
1314.2909
1238.5337
1155.2449
1064.6628
967.49839
865.0394
759.21384
652.56341
548.08715
449.22867
358.64519
278.66083
210.57389
154.48996
109.35895
73.163554
43.0917
15.438689
1678.5435
1663.3792
1646.2989
1627.084
1605.4708
1581.1619
1553.8224
1523.0776
1488.5106
1449.6635
1406.0425
1357.1311
1302.4137
1241.4143
1173.755
1099.2358
1017.9317
930.30108
837.30177
740.46985
641.93493
544.33924
450.35909
363.11057
284.9623
217.394
160.80886
114.50384
76.763291
44.968341
15.451692
1619.1927
1604.5453
1588.0775
1569.5852
1548.8258
1525.5267
1499.3814
1470.0467
1437.1405
1400.2414
1358.8933
1312.6156
1260.9226
1203.3571
1139.5399
1069.2434
992.48067
909.60605
821.42763
729.2864
635.09072
541.24842
450.47507
365.70034
288.77091
221.52985
164.68237
117.74526
79.133249
46.26449
15.45454
1481.6662
1468.3477
1453.4707
1436.8375
1418.2155
1397.3709
1374.0592
1348.0255
1318.9607
1286.5231
1250.3383
1210.0047
1165.1052
1115.2286
1060.0043
999.15541
932.56928
860.38539
783.09455
701.62286
617.38843
532.29176
448.6095
368.63897
295.01737
229.33276
172.47843
124.37538
83.860771
48.654162
15.312315
51509.247
54606.443
58733.12
62236.988
64903.885
66421.554
66147.48
64679.955
62233.533
58826.945
55082.123
51029.007
46711.172
42444.083
38494.806
34925.64
31803.73
29055.308
26638.444
24485.477
22555.059
20814.447
19227.898
17781.286
16457.708
15246.938
14138.375
13123.091
12192.032
11336.547
10549.28
9824.8865
9158.3733
8545.6354
7981.7478
7461.1742
6978.814
6530.6723
6114.1687
5727.6324
93293.373
89938.007
86105.028
82749.743
78530.194
73651.733
68530.702
63330.868
58110.149
52907.305
47975.029
43428.488
39343.861
35722.744
32511.063
29708.651
27249.096
25083.088
23154.745
21422.579
19855.068
18418.967
17101.358
15886.361
14765.006
13729.896
12774.672
11892.926
11077.984
10324.003
9626.9398
8982.9497
8388.8837
7840.7705
7333.807
6863.4527
6425.9375
6018.7905
5640.4941
5288.5614
4960.9755
4654.9845
4369.6935
4102.4824
3853.7851
3620.1725
3403.3561
3198.4441
3009.6058
2829.1349
2665.8458
2506.1404
2366.5931
2223.4192
2107.5179
1977.3138
1887.2143
1762.9535
1702.4609
1560.4098
96571.751
89280
82321.711
75579.395
69164.952
63159.995
57607.927
52524.404
47874.18
43626.66
39756.557
36252.861
33110.236
30297.351
27804.181
25595.617
23639.45
21893.579
20324.89
18904.471
17601.402
16401.502
15289.968
14256.981
13296.524
12403.799
11574.32
10803.014
10085.297
9418.2698
8799.157
8225.7342
7694.9821
7202.8676
6745.4743
6319.3377
5922.1445
5552.5572
5208.2861
4887.5713
4587.7811
4308.0466
4045.8758
3801.6684
3572.1757
3359.0181
3157.5025
2971.6176
2793.9301
2632.99
2475.5347
2337.7873
2196.3991
2081.7606
1952.8759
1863.4713
1740.1599
1679.9391
1538.9604
79129.606
72382.443
66368.827
60960.543
56044.751
51536.338
47373.476
43524.015
39969.098
36684.175
33662.369
30909.269
28412.885
26168.565
24159.307
22366.821
20762.189
19319.978
18015.524
16820.953
15720.7
14699.919
13747.729
12857.87
12025.775
11248.08
10520.804
9840.2512
9204.3758
8611.2842
8059.5588
7547.0609
7070.5038
6626.6121
6212.2775
5825.3728
5464.7559
5128.3467
4814.627
4521.1141
4246.9833
3989.8716
3750.1612
3524.7761
3315.2635
3117.1187
2934.1698
2759.2393
2600.6314
2445.4081
2309.4524
2169.847
2056.4797
1928.942
1840.2466
1717.9376
1657.9772
1518.1234
69088.544
63892.308
59139.117
54761.267
50707.847
46938.261
43421.61
40135.339
37063.739
34198.026
31535.008
29077.257
26824.658
24777.082
22926.893
21264.226
19770.35
18425.898
17211.31
16102.406
15082.885
14137.853
13255.795
12429.225
11653.148
10924.343
10239.453
9595.2904
8990.3475
8423.3682
7893.5741
7399.5879
6938.8032
6508.5643
6106.1419
5729.607
5378.0167
5049.5019
4742.7709
4455.5034
4186.934
3934.8256
3699.5569
3478.2142
3272.2881
3077.4497
2897.3865
2725.1575
2568.8402
2415.8079
2281.6165
2143.7713
2031.6669
1905.4866
1817.5015
1696.2335
1636.5104
1497.8463
)
;

boundaryField
{
    Side1
    {
        type            empty;
    }
    Inlet
    {
        type            inletOutlet;
        inletValue      uniform 1;
        value           nonuniform List<scalar> 
59
(
7.2516517
7.3025202
7.3544775
7.4070992
1
1
7.580888
1
1
7.7885204
1
7.9420026
1
1
1
1
1
8.5382173
1
1
1
1
1
1
1
1
1
1
1
1
1
1
1
1
1
1
1
1
1
1
1
1
1
1
1
1
1
1
1
1
1
1
1
1
1
1
1
1
1
)
;
    }
    Side2
    {
        type            empty;
    }
    Outlet
    {
        type            zeroGradient;
    }
    Botwall
    {
        type            omegaWallFunction;
        blending        binomial;
        n               2;
        value           nonuniform List<scalar> 0();
    }
    Cyli
    {
        type            omegaWallFunction;
        blending        binomial;
        n               2;
        value           nonuniform List<scalar> 0();
    }
    procBoundary3to0
    {
        type            processor;
        value           nonuniform List<scalar> 7(50337.665 95791.513 95791.513 103875.81 103875.81 86725.95 86725.95);
    }
    procBoundary3to1
    {
        type            processor;
        value           nonuniform List<scalar> 
62
(
26251.759
28426.492
31432.777
35122.17
39239.894
43369.69
47129.745
50809.028
53185.349
53625.489
52799.253
50561.511
47543.767
44190.338
40603.509
37042.999
33755.004
30776.881
28121.604
25741.781
23607.98
21691.426
19956.99
18387.301
16963.243
15671.86
14498.632
13431.496
12458.45
11568.818
10753.689
10006.44
9321.0196
8692.4747
8115.0695
7582.6667
7089.7074
6632.0505
6207.0509
5812.94
5368.2679
5368.2679
5034.0689
4722.0689
4431.365
4159.2094
3906.091
3668.399
3447.9551
3239.662
3047.8865
2864.6364
2699.0116
2537.0708
2395.7462
2250.8205
2133.6853
2002.2174
1911.4574
1786.3263
1725.5714
1582.5325
)
;
    }
    procBoundary3to2
    {
        type            processor;
        value           nonuniform List<scalar> 
35
(
14.10046
10.076796
7.2020178
4909.2811
3541.2938
2528.959
1791.6601
1262.0089
885.76488
620.70029
434.97402
305.20336
214.59807
151.28098
106.95256
75.846473
53.962525
38.520179
27.582234
19.790163
19.790163
60840.053
60840.053
52448.283
44746.553
37580.03
31008.957
25122.181
19992.585
15635.298
12017.514
9082.1397
6756.1665
6756.1665
74832.642
)
;
    }
}


// ************************************************************************* //
