/*--------------------------------*- C++ -*----------------------------------*\
| =========                 |                                                 |
| \\      /  F ield         | OpenFOAM: The Open Source CFD Toolbox           |
|  \\    /   O peration     | Version:  2406                                  |
|   \\  /    A nd           | Website:  www.openfoam.com                      |
|    \\/     M anipulation  |                                                 |
\*---------------------------------------------------------------------------*/
FoamFile
{
    version     2.0;
    format      ascii;
    arch        "LSB;label=32;scalar=64";
    class       volScalarField;
    location    "0.04";
    object      rho;
}
// * * * * * * * * * * * * * * * * * * * * * * * * * * * * * * * * * * * * * //

dimensions      [1 -3 0 0 0 0 0];

internalField   nonuniform List<scalar> 
2065
(
1.2046727
1.2044073
1.204631
1.1951916
1.1960605
1.1969629
1.1978923
1.1988026
1.1996704
1.2004881
1.2012357
1.2019046
1.2024913
1.2029883
1.203411
1.2037471
1.2040327
1.204218
1.204421
1.2044264
1.2046401
1.204371
1.2045742
1.1911703
1.1913921
1.1915969
1.1917916
1.1919943
1.1922291
1.192518
1.1928812
1.1933358
1.1938915
1.1945502
1.1953051
1.1961265
1.1969899
1.1978844
1.1987695
1.1996213
1.200429
1.2011719
1.2018409
1.2024305
1.2029313
1.2033593
1.2037007
1.2039914
1.2041812
1.2043872
1.2043944
1.2046047
1.2043302
1.2045022
1.1913634
1.1916067
1.1918353
1.192052
1.1922735
1.1925197
1.1928095
1.1931609
1.1935906
1.1941101
1.1947241
1.1954291
1.1962039
1.1970272
1.1978855
1.1987431
1.1995765
1.2003719
1.2011086
1.2017764
1.2023676
1.2028715
1.2033048
1.2036516
1.2039473
1.2041419
1.204351
1.2043603
1.204566
1.2042838
1.2044023
1.1915507
1.1918106
1.1920577
1.1922942
1.192534
1.1927927
1.1930862
1.1934304
1.193841
1.1943299
1.1949042
1.1955632
1.1962929
1.1970752
1.1978963
1.1987242
1.1995368
1.2003176
1.2010461
1.2017096
1.2023025
1.2028112
1.2032473
1.2035994
1.2039003
1.2040998
1.2043121
1.2043239
1.2045232
1.2042303
1.2043054
1.1917404
1.1920082
1.1922673
1.1925234
1.1927813
1.1930529
1.1933519
1.1936922
1.194088
1.1945513
1.1950904
1.1957073
1.1963935
1.1971346
1.1979174
1.1987139
1.199503
1.2002669
1.2009852
1.201643
1.2022357
1.2027482
1.2031869
1.203544
1.2038499
1.2040544
1.20427
1.2042848
1.2044753
1.204169
1.2042124
1.1919283
1.1922018
1.1924811
1.1927523
1.1930239
1.1933067
1.1936113
1.1939495
1.1943336
1.1947752
1.195283
1.1958614
1.1965058
1.1972059
1.1979495
1.1987132
1.1994762
1.2002209
1.2009267
1.2015778
1.2021686
1.2026827
1.2031238
1.2034858
1.2037965
1.2040061
1.2042249
1.204243
1.2044211
1.2041005
1.2040637
1.1921271
1.1924205
1.1927106
1.1929898
1.1932705
1.1935614
1.1938704
1.1942066
1.1945807
1.1950031
1.195483
1.1960257
1.1966302
1.1972895
1.1979936
1.1987228
1.1994576
1.2001808
1.2008718
1.2015144
1.2021015
1.2026158
1.2030584
1.2034251
1.2037404
1.203955
1.2041768
1.2041986
1.2043602
1.2040263
1.203937
1.1923713
1.1926683
1.1929587
1.1932422
1.1935287
1.1938244
1.1941352
1.1944682
1.1948325
1.1952373
1.1956913
1.1962007
1.196767
1.1973862
1.1980503
1.1987436
1.1994482
1.2001473
1.2008213
1.2014532
1.2020332
1.2025475
1.2029938
1.2033622
1.2036816
1.2039011
1.2041259
1.2041517
1.2042932
1.2039481
1.2038155
1.1926639
1.1929469
1.1932348
1.1935191
1.1938069
1.1941031
1.194412
1.1947396
1.195093
1.1954803
1.1959095
1.1963873
1.1969167
1.1974962
1.1981202
1.1987764
1.1994489
1.2001216
1.2007761
1.201395
1.2019664
1.2024788
1.2029277
1.2032972
1.2036204
1.2038447
1.204072
1.2041023
1.2042217
1.2038699
1.203618
1.1929928
1.1932654
1.1935483
1.1938286
1.1941124
1.1944041
1.1947071
1.1950258
1.1953661
1.1957349
1.1961394
1.1965863
1.1970798
1.1976201
1.1982039
1.1988218
1.1994604
1.2001046
1.2007371
1.2013408
1.2019024
1.2024109
1.2028594
1.20323
1.2035567
1.2037856
1.2040152
1.2040507
1.2041479
1.2037972
1.2034764
1.1933772
1.1936355
1.1939076
1.1941778
1.1944518
1.1947335
1.1950256
1.1953313
1.1956555
1.1960038
1.1963829
1.1967989
1.1972568
1.1977583
1.1983017
1.1988804
1.1994835
1.2000971
1.2007052
1.2012912
1.2018413
1.2023438
1.2027898
1.203161
1.2034906
1.2037241
1.2039557
1.2039968
1.2040736
1.2037312
1.203235
1.1938276
1.1940647
1.1943188
1.1945722
1.1948299
1.1950956
1.1953713
1.1956594
1.1959637
1.196289
1.1966411
1.1970259
1.1974482
1.1979109
1.1984139
1.1989528
1.1995188
1.2001
1.2006814
1.2012472
1.2017834
1.2022759
1.2027194
1.2030936
1.2034225
1.2036601
1.2038933
1.2039407
1.204
1.2036733
1.2030942
1.1943301
1.1945423
1.1947742
1.1950068
1.1952441
1.1954894
1.1957442
1.1960106
1.1962916
1.1965913
1.1969148
1.1972673
1.197654
1.1980781
1.1985406
1.1990391
1.1995669
1.2001139
1.2006665
1.2012097
1.2017296
1.2022107
1.2026497
1.2030248
1.2033524
1.2035937
1.2038283
1.2038826
1.2039284
1.2036222
1.2029918
1.1948793
1.1950635
1.1952692
1.195477
1.19569
1.195911
1.1961414
1.1963829
1.1966378
1.1969098
1.1972031
1.1975228
1.1978736
1.1982592
1.1986814
1.1991392
1.199628
1.2001392
1.2006611
1.2011794
1.2016807
1.2021493
1.2025813
1.202954
1.2032803
1.2035251
1.2037607
1.2038224
1.2038603
1.2035754
1.2029478
1.1954402
1.1955988
1.1957795
1.1959637
1.1961528
1.1963494
1.1965547
1.1967702
1.196998
1.1972413
1.197504
1.1977906
1.1981057
1.1984531
1.1988355
1.1992528
1.1997019
1.2001763
1.2006657
1.2011572
1.2016375
1.2020917
1.2025143
1.2028823
1.2032068
1.2034546
1.2036908
1.2037603
1.2037962
1.2035316
1.2029548
1.195999
1.1961341
1.1962911
1.1964527
1.1966192
1.1967926
1.1969738
1.1971641
1.1973656
1.1975809
1.1978136
1.1980678
1.1983481
1.1986583
1.1990016
1.1993789
1.1997884
1.2002252
1.2006807
1.2011435
1.2016007
1.202038
1.202447
1.2028107
1.2031356
1.2033823
1.2036186
1.2036963
1.2037358
1.2034901
1.2029639
1.1965299
1.1966464
1.1967837
1.1969263
1.1970736
1.1972269
1.1973869
1.1975548
1.1977322
1.1979216
1.1981263
1.1983501
1.1985974
1.1988722
1.1991778
1.1995162
1.1998865
1.2002855
1.2007062
1.2011386
1.2015709
1.2019893
1.202384
1.2027411
1.2030624
1.2033081
1.2035443
1.2036306
1.203678
1.2034496
1.2027758
1.19701
1.1971126
1.1972352
1.197364
1.1974974
1.1976359
1.19778
1.1979302
1.198088
1.1982555
1.1984356
1.1986322
1.1988494
1.1990913
1.1993616
1.1996627
1.1999951
1.2003566
1.200742
1.2011429
1.2015486
1.201946
1.2023251
1.2026729
1.2029876
1.2032328
1.2034683
1.2035631
1.2036212
1.2034116
1.2028404
1.1974615
1.1975506
1.1976585
1.1977736
1.1978938
1.198019
1.1981494
1.198285
1.1984266
1.198576
1.1987356
1.1989087
1.1990994
1.1993118
1.1995497
1.199816
1.2001122
1.2004373
1.2007876
1.2011563
1.2015341
1.2019087
1.2022703
1.2026044
1.2029128
1.2031598
1.2033908
1.2034941
1.2035648
1.2033774
1.2029538
1.1978485
1.1979281
1.1980258
1.1981317
1.1982436
1.1983606
1.1984824
1.1986085
1.1987392
1.1988755
1.1990195
1.199174
1.1993427
1.1995296
1.1997387
1.1999734
1.2002358
1.2005262
1.2008421
1.2011785
1.2015273
1.2018778
1.20222
1.2025397
1.2028396
1.2030853
1.2033118
1.2034237
1.2035092
1.2033502
1.2031329
1.198209
1.1982776
1.1983637
1.1984591
1.1985614
1.1986699
1.1987837
1.1989019
1.1990242
1.1991509
1.1992833
1.1994235
1.1995747
1.1997405
1.1999249
1.2001317
1.2003634
1.2006214
1.2009044
1.2012088
1.2015283
1.2018535
1.2021748
1.2024792
1.2027681
1.203009
1.2032323
1.2033521
1.2034544
1.2033302
1.2033717
1.1985249
1.1985846
1.1986604
1.1987466
1.1988407
1.1989421
1.1990495
1.1991621
1.1992787
1.1993989
1.1995234
1.1996535
1.1997915
1.1999408
1.200105
1.2002878
1.2004925
1.2007208
1.2009728
1.2012464
1.2015366
1.2018358
1.202135
1.2024225
1.2026963
1.2029329
1.2031553
1.2032792
1.2033999
1.2033139
1.2036575
1.1988099
1.1988623
1.1989282
1.1990047
1.1990903
1.199184
1.1992851
1.1993922
1.1995041
1.1996197
1.1997388
1.1998619
1.1999907
1.2001275
1.2002758
1.2004389
1.2006201
1.2008221
1.2010457
1.20129
1.2015516
1.2018245
1.2021007
1.2023699
1.2026285
1.2028584
1.2030757
1.2032056
1.2033445
1.2032999
1.2039725
1.1990672
1.1991143
1.1991715
1.1992383
1.1993147
1.1994003
1.1994945
1.1995959
1.1997031
1.1998148
1.1999299
1.2000484
1.2001707
1.2002987
1.2004348
1.2005821
1.2007439
1.200923
1.2011211
1.2013383
1.2015725
1.2018192
1.202072
1.2023216
1.2025643
1.2027832
1.2029951
1.2031334
1.2032865
1.2032847
1.2043005
1.1993102
1.1993453
1.1993966
1.1994546
1.1995212
1.1995976
1.1996836
1.1997782
1.19988
1.1999873
1.2000989
1.2002137
1.2003316
1.2004532
1.2005804
1.2007156
1.2008616
1.2010215
1.2011972
1.2013896
1.201598
1.2018194
1.2020486
1.2022778
1.2025033
1.2027107
1.2029152
1.2030585
1.203225
1.2032639
1.2046135
1.1995429
1.1995652
1.1996036
1.1996554
1.1997133
1.1997802
1.1998572
1.1999439
1.2000391
1.2001411
1.2002486
1.2003599
1.2004741
1.2005912
1.2007119
1.2008378
1.2009715
1.2011154
1.2012719
1.2014424
1.2016271
1.2018242
1.2020301
1.2022386
1.2024459
1.2026408
1.2028342
1.2029807
1.2031609
1.2032367
1.2048134
1.1997576
1.1997765
1.1998023
1.1998411
1.1998926
1.1999508
1.2000184
1.2000962
1.2001837
1.2002794
1.2003818
1.2004891
1.2005999
1.2007132
1.200829
1.2009481
1.2010721
1.2012032
1.2013436
1.201495
1.2016583
1.2018327
1.2020161
1.2022037
1.202392
1.2025731
1.2027539
1.2029014
1.2030905
1.2031951
1.2047235
1.1999544
1.1999689
1.1999909
1.2000182
1.2000572
1.2001091
1.2001682
1.2002369
1.2003159
1.2004044
1.2005008
1.2006034
1.2007104
1.2008203
1.2009323
1.2010461
1.2011628
1.2012838
1.2014109
1.201546
1.2016903
1.2018439
1.2020058
1.2021729
1.2023418
1.2025078
1.2026758
1.2028208
1.2030109
1.2031275
1.2045944
1.2001386
1.2001484
1.2001652
1.2001881
1.2002161
1.2002558
1.2003085
1.2003689
1.2004389
1.2005192
1.2006086
1.2007055
1.200808
1.2009141
1.2010225
1.2011322
1.2012431
1.2013561
1.2014725
1.201594
1.2017217
1.2018567
1.2019985
1.2021455
1.2022952
1.2024449
1.2025988
1.2027381
1.2029238
1.2030377
1.2043417
1.2003092
1.200315
1.2003267
1.2003444
1.2003679
1.2003969
1.2004379
1.2004919
1.2005538
1.2006255
1.2007071
1.2007973
1.2008944
1.2009962
1.2011009
1.2012068
1.2013131
1.2014198
1.2015277
1.2016378
1.2017515
1.2018699
1.2019933
1.2021212
1.2022519
1.2023843
1.2025227
1.2026536
1.20283
1.2029328
1.2041429
1.2004692
1.2004717
1.2004791
1.2004914
1.2005094
1.2005335
1.200564
1.2006067
1.2006622
1.2007256
1.2007986
1.2008812
1.2009718
1.2010684
1.2011688
1.2012709
1.2013731
1.2014747
1.2015757
1.2016766
1.2017785
1.2018824
1.2019893
1.2020992
1.2022115
1.2023261
1.2024475
1.2025659
1.2027296
1.2028198
1.2038935
1.2006185
1.2006183
1.2006221
1.2006299
1.2006425
1.2006609
1.2006857
1.2007181
1.200763
1.20082
1.2008849
1.2009591
1.2010424
1.2011328
1.201228
1.2013258
1.201424
1.2015211
1.2016164
1.2017098
1.2018019
1.2018934
1.2019856
1.202079
1.2021735
1.2022702
1.2023735
1.2024771
1.2026241
1.2027008
1.2037041
1.2007599
1.2007576
1.2007584
1.2007624
1.2007704
1.2007835
1.2008026
1.2008282
1.2008625
1.2009077
1.2009637
1.2010299
1.2011056
1.2011893
1.201279
1.2013722
1.2014663
1.2015594
1.20165
1.2017372
1.2018211
1.2019022
1.2019815
1.2020598
1.2021377
1.2022165
1.2023012
1.2023891
1.2025152
1.2025768
1.2034104
1.2008911
1.2008871
1.2008854
1.2008862
1.2008902
1.2008983
1.2009118
1.2009314
1.2009571
1.2009939
1.201043
1.2011003
1.201167
1.2012426
1.2013253
1.2014127
1.201502
1.2015908
1.2016769
1.2017589
1.201836
1.2019083
1.2019765
1.2020413
1.2021036
1.2021651
1.2022309
1.2023012
1.2024027
1.2024524
1.2032385
1.2010113
1.2010061
1.2010027
1.2010011
1.201002
1.2010062
1.2010148
1.2010291
1.2010498
1.2010777
1.2011166
1.2011671
1.2012256
1.2012928
1.2013679
1.2014487
1.2015325
1.2016165
1.2016981
1.2017753
1.2018466
1.2019115
1.2019701
1.2020231
1.2020711
1.2021159
1.2021629
1.2022142
1.2022897
1.2023266
1.2028815
1.2011241
1.2011182
1.2011135
1.2011102
1.2011087
1.2011099
1.2011146
1.2011241
1.2011394
1.2011613
1.201191
1.2012303
1.20128
1.2013392
1.2014066
1.2014805
1.2015583
1.2016373
1.2017143
1.201787
1.2018533
1.2019119
1.2019624
1.202005
1.2020401
1.2020694
1.202098
1.2021299
1.2021793
1.2021989
1.2026604
1.2012247
1.2012182
1.2012126
1.2012079
1.2012045
1.2012031
1.2012046
1.20121
1.2012203
1.2012366
1.2012594
1.2012921
1.2013353
1.2013862
1.2014452
1.2015113
1.2015823
1.2016554
1.2017274
1.2017954
1.2018569
1.20191
1.2019536
1.2019872
1.2020108
1.2020259
1.2020374
1.2020506
1.2020766
1.2020779
1.2024308
1.2013226
1.2013157
1.2013094
1.2013036
1.2012987
1.2012953
1.201294
1.2012958
1.2013017
1.201313
1.2013305
1.2013546
1.2013871
1.2014296
1.2014808
1.2015395
1.2016036
1.2016707
1.2017376
1.2018011
1.2018581
1.2019064
1.201944
1.2019701
1.2019837
1.2019859
1.2019821
1.2019793
1.2019883
1.2019826
1.2021031
1.2014102
1.201403
1.2013961
1.2013895
1.2013834
1.2013782
1.2013747
1.2013735
1.2013757
1.2013822
1.2013942
1.2014126
1.2014399
1.2014761
1.2015192
1.2015696
1.201626
1.2016863
1.2017473
1.2018057
1.2018583
1.201902
1.2019345
1.201954
1.201959
1.2019502
1.201933
1.201918
1.2019196
1.2019265
1.2020313
1.2014982
1.201491
1.2014837
1.2014765
1.2014694
1.201463
1.2014576
1.201454
1.201453
1.2014555
1.2014628
1.2014756
1.2014942
1.2015204
1.2015556
1.2015985
1.2016478
1.2017013
1.2017564
1.2018098
1.201858
1.2018976
1.2019255
1.2019395
1.2019374
1.2019193
1.201891
1.2018673
1.201871
1.2019091
1.202039
1.2015761
1.2015688
1.2015613
1.2015536
1.2015459
1.2015384
1.2015316
1.2015261
1.2015224
1.2015216
1.2015245
1.2015322
1.2015458
1.2015673
1.2015965
1.2016318
1.2016732
1.2017194
1.2017681
1.2018158
1.2018592
1.2018945
1.2019182
1.2019273
1.2019194
1.2018937
1.2018563
1.2018257
1.2018347
1.2019083
1.2020826
1.2016582
1.2016509
1.2016433
1.2016354
1.2016271
1.2016189
1.201611
1.2016038
1.201598
1.2015942
1.2015935
1.2015969
1.2016051
1.2016184
1.2016384
1.2016661
1.2017005
1.2017399
1.2017821
1.2018243
1.2018627
1.2018935
1.2019131
1.2019179
1.2019051
1.2018734
1.2018286
1.2017902
1.2017984
1.2018974
1.2021319
1.201731
1.2017238
1.2017162
1.201708
1.2016995
1.2016907
1.201682
1.2016736
1.201666
1.20166
1.2016563
1.2016559
1.2016595
1.2016683
1.201684
1.2017064
1.2017338
1.201766
1.2018014
1.2018374
1.2018703
1.2018963
1.2019113
1.2019118
1.2018946
1.2018582
1.2018069
1.2017582
1.2017522
1.201848
1.2021277
1.2018119
1.2018048
1.2017972
1.201789
1.2017802
1.201771
1.2017615
1.2017521
1.2017431
1.2017351
1.2017287
1.2017249
1.2017245
1.2017284
1.2017372
1.2017518
1.2017723
1.2017978
1.2018266
1.2018562
1.2018833
1.2019038
1.2019137
1.2019094
1.2018879
1.2018473
1.2017904
1.2017286
1.2016949
1.2017567
1.2020638
1.2018807
1.2018738
1.2018664
1.2018583
1.2018496
1.2018403
1.2018307
1.2018208
1.2018111
1.2018021
1.2017942
1.2017883
1.2017851
1.2017856
1.2017898
1.201799
1.2018141
1.2018339
1.2018568
1.2018805
1.2019017
1.2019164
1.2019205
1.2019106
1.201884
1.2018391
1.2017767
1.2017016
1.201637
1.201657
1.2019806
1.201957
1.2019502
1.2019429
1.201935
1.2019263
1.201917
1.2019071
1.2018968
1.2018864
1.2018763
1.2018668
1.2018587
1.2018528
1.2018498
1.2018504
1.2018553
1.2018651
1.2018789
1.2018957
1.201913
1.2019276
1.2019356
1.2019327
1.2019157
1.2018821
1.2018307
1.2017618
1.2016762
1.2015935
1.2016059
1.2018864
1.2020138
1.2020073
1.2020002
1.2019925
1.2019841
1.2019749
1.2019652
1.201955
1.2019445
1.2019341
1.2019243
1.2019155
1.2019085
1.2019041
1.201903
1.2019057
1.2019123
1.2019226
1.2019351
1.2019475
1.2019566
1.2019582
1.2019481
1.2019228
1.20188
1.2018188
1.2017398
1.2016449
1.2015575
1.2015824
1.2018565
1.2020725
1.2020665
1.2020599
1.2020527
1.2020449
1.2020364
1.2020272
1.2020176
1.2020076
1.2019975
1.2019877
1.2019787
1.201971
1.2019654
1.2019623
1.2019625
1.2019659
1.2019723
1.2019804
1.2019879
1.2019913
1.2019862
1.2019681
1.2019331
1.2018787
1.2018032
1.2017074
1.2015972
1.2015068
1.2015436
1.2018198
1.2021129
1.2021076
1.2021018
1.2020955
1.2020886
1.2020812
1.2020733
1.202065
1.2020564
1.2020478
1.2020393
1.2020315
1.2020246
1.2020192
1.2020161
1.2020163
1.2020191
1.2020227
1.202027
1.20203
1.2020283
1.2020171
1.2019913
1.2019465
1.2018794
1.2017871
1.2016689
1.2015321
1.2014191
1.2014461
1.2017484
1.2021604
1.2021564
1.202152
1.2021469
1.2021412
1.2021348
1.2021278
1.2021201
1.202112
1.2021037
1.2020955
1.2020878
1.202081
1.2020754
1.2020716
1.2020698
1.2020699
1.2020715
1.2020734
1.2020732
1.2020672
1.2020504
1.2020175
1.2019633
1.2018835
1.2017739
1.2016327
1.2014684
1.2013297
1.2013457
1.201651
1.2021582
1.2021544
1.2021503
1.2021459
1.2021412
1.2021361
1.2021309
1.2021254
1.2021198
1.2021143
1.202109
1.2021043
1.2021005
1.2020977
1.2020966
1.2020974
1.2020997
1.2021026
1.2021049
1.2021043
1.2020969
1.2020773
1.2020394
1.2019776
1.201887
1.2017628
1.2016037
1.2014208
1.2012653
1.2012706
1.2015665
1.2021632
1.2021657
1.2021682
1.2021699
1.2021699
1.2021683
1.2021649
1.2021596
1.2021527
1.2021447
1.2021367
1.2021295
1.2021241
1.2021212
1.2021205
1.2021209
1.2021227
1.2021261
1.2021285
1.2021268
1.202117
1.2020939
1.2020512
1.2019825
1.2018823
1.2017462
1.201575
1.2013825
1.2012198
1.2012175
1.2015086
1.2021033
1.2021012
1.2020991
1.202097
1.2020948
1.2020926
1.2020905
1.2020885
1.2020867
1.2020853
1.2020845
1.2020845
1.2020854
1.2020875
1.202091
1.2020964
1.2021031
1.2021086
1.2021118
1.2021106
1.2021007
1.2020768
1.2020321
1.2019592
1.2018516
1.2017057
1.2015239
1.2013221
1.2011538
1.2011451
1.2014145
1.2020693
1.2020676
1.2020658
1.202064
1.2020622
1.2020603
1.2020585
1.2020568
1.2020552
1.202054
1.2020532
1.2020532
1.2020543
1.2020566
1.2020603
1.2020649
1.2020706
1.2020759
1.2020775
1.2020725
1.2020583
1.2020294
1.2019788
1.201899
1.2017819
1.2016219
1.2014214
1.2012046
1.2010442
1.2010586
1.2013123
1.2019717
1.2019702
1.2019688
1.2019674
1.201966
1.2019647
1.2019635
1.2019625
1.2019617
1.2019612
1.2019613
1.2019622
1.201964
1.2019671
1.2019717
1.2019776
1.2019841
1.2019882
1.2019871
1.2019777
1.2019567
1.2019198
1.2018613
1.2017736
1.2016491
1.2014814
1.201273
1.2010531
1.200904
1.2009348
1.2011432
1.2019261
1.2019241
1.2019216
1.2019189
1.201916
1.201913
1.2019099
1.2019066
1.2019034
1.2019001
1.201897
1.201894
1.2018913
1.2018889
1.2018869
1.2018849
1.2018812
1.2018744
1.2018626
1.2018414
1.2018067
1.2017543
1.2016802
1.2015804
1.2014514
1.2012925
1.201115
1.2009517
1.2008573
1.2008495
1.200982
1.2018124
1.201808
1.2018032
1.2017981
1.2017924
1.2017861
1.2017792
1.2017715
1.2017632
1.2017542
1.2017445
1.2017341
1.2017229
1.2017109
1.2016986
1.2016865
1.2016753
1.201662
1.2016421
1.2016143
1.2015759
1.2015225
1.20145
1.2013578
1.20125
1.201137
1.2010401
1.2009843
1.200973
1.2009843
1.2010793
1.2017835
1.2017755
1.2017664
1.2017566
1.2017462
1.201735
1.201723
1.2017105
1.2016978
1.2016852
1.2016728
1.2016606
1.201648
1.2016339
1.2016166
1.2015944
1.2015653
1.2015308
1.2014931
1.2014514
1.2014044
1.2013525
1.2012966
1.2012387
1.2011836
1.2011384
1.2011116
1.2011142
1.2011662
1.2011786
1.2011782
1.190046
1.1900313
1.1900222
1.1900336
1.1900702
1.1901323
1.1902238
1.1903465
1.1905148
1.1907378
1.1910281
1.1913979
1.1918592
1.1924073
1.1930305
1.193697
1.1943822
1.1950423
1.1956694
1.1962464
1.196766
1.1972381
1.1976803
1.1980634
1.1984233
1.1987469
1.1990446
1.199319
1.19957
1.1998017
1.2000121
1.2002063
1.2003834
1.2005482
1.2007005
1.2008429
1.2009733
1.2010912
1.2012003
1.2012975
1.1896866
1.1897733
1.1898833
1.1900098
1.1901546
1.190318
1.1905008
1.1907129
1.1909662
1.1912717
1.1916401
1.1920889
1.1926105
1.1932069
1.1938402
1.1945063
1.1951339
1.1957524
1.1963043
1.1968063
1.197279
1.1976965
1.1980701
1.1984224
1.1987395
1.1990311
1.1993005
1.1995481
1.1997777
1.1999871
1.2001809
1.2003582
1.2005234
1.2006763
1.2008196
1.2009512
1.2010705
1.2011811
1.2012796
1.2013755
1.2014613
1.2015473
1.2016232
1.2017033
1.2017744
1.2018537
1.2019204
1.2019946
1.2020491
1.2021048
1.2021413
1.2021852
1.2021772
1.2021667
1.2021137
1.202078
1.2019795
1.2019379
1.2018357
1.2018262
1.1899158
1.1900958
1.1902693
1.1904453
1.1906304
1.190829
1.1910477
1.1912972
1.1915866
1.1919295
1.192339
1.1928259
1.1933858
1.19398
1.1946134
1.1952223
1.1958221
1.1963658
1.1968571
1.1973274
1.1977211
1.198095
1.1984277
1.1987405
1.1990273
1.1992913
1.1995344
1.1997608
1.1999683
1.2001609
1.2003377
1.2005025
1.2006555
1.2007991
1.2009314
1.2010516
1.2011634
1.2012629
1.2013598
1.2014464
1.2015332
1.2016099
1.2016907
1.2017624
1.2018423
1.2019097
1.2019845
1.2020396
1.2020962
1.2021337
1.2021782
1.2021721
1.2021644
1.2021107
1.2020754
1.2019771
1.2019343
1.2018293
1.2018144
1.1904739
1.1906512
1.1908251
1.1910036
1.1911928
1.1913976
1.1916269
1.1918797
1.1921972
1.1925739
1.1930234
1.193535
1.1940923
1.1946917
1.1952841
1.1958679
1.1964086
1.196895
1.1973582
1.1977489
1.1981226
1.1984417
1.1987426
1.1990252
1.1992863
1.1995255
1.1997483
1.1999535
1.2001446
1.2003204
1.2004845
1.2006371
1.2007808
1.2009134
1.2010343
1.201147
1.2012473
1.2013449
1.2014322
1.2015197
1.201597
1.2016785
1.2017507
1.2018311
1.2018991
1.2019745
1.2020303
1.2020877
1.2021262
1.2021715
1.2021671
1.2021626
1.2021079
1.202073
1.201975
1.2019311
1.2018231
1.2018031
1.1907512
1.1909415
1.1911235
1.1913048
1.1914925
1.191691
1.191898
1.1921311
1.192441
1.1927894
1.1931938
1.1936649
1.1941867
1.1947541
1.1953278
1.1958971
1.1964344
1.1969193
1.1973777
1.1977701
1.1981398
1.1984619
1.1987516
1.1990231
1.1992812
1.1995194
1.1997392
1.1999418
1.2001311
1.2003057
1.200469
1.200621
1.2007644
1.2008972
1.2010185
1.2011319
1.2012328
1.201331
1.2014188
1.2015069
1.2015847
1.2016667
1.2017394
1.2018202
1.2018887
1.2019647
1.2020211
1.2020793
1.2021189
1.2021651
1.2021622
1.2021616
1.2021053
1.2020709
1.2019731
1.2019282
1.2018172
1.2017921
)
;

boundaryField
{
    Side1
    {
        type            empty;
    }
    Inlet
    {
        type            calculated;
        value           nonuniform List<scalar> 
59
(
1.2154859
1.2154859
1.2154859
1.2154859
1.2013626
1.2013606
1.2154859
1.2013561
1.2013536
1.2154859
1.2013483
1.2154859
1.2013418
1.2013382
1.2013348
1.2013315
1.2013283
1.2154859
1.2013204
1.2013153
1.2013104
1.2013055
1.2013009
1.2012962
1.2012914
1.2012864
1.2012813
1.2012768
1.2012723
1.2015867
1.2015841
1.2015819
1.201263
1.2015825
1.2012672
1.2015883
1.2015953
1.2016031
1.2016108
1.2016244
1.2016343
1.2016438
1.2016543
1.2016655
1.2016763
1.2016884
1.2017109
1.2017323
1.2017505
1.2017648
1.2017827
1.2018017
1.2018172
1.2018324
1.201841
1.2018538
1.2018611
1.2018706
1.2018891
)
;
    }
    Side2
    {
        type            empty;
    }
    Outlet
    {
        type            calculated;
        value           nonuniform List<scalar> 
35
(
1.2015156
1.2015069
1.2014972
1.2014863
1.201474
1.2014602
1.2014447
1.2014272
1.2014074
1.2013852
1.2013606
1.2013337
1.2013052
1.201276
1.2012473
1.2012209
1.2011986
1.2011822
1.2011723
1.2011704
1.2011787
1.201199
1.2012332
1.2012826
1.2013461
1.2014215
1.20151
1.2016133
1.2017446
1.2019414
1.2021543
1.2015668
1.201553
1.2015395
1.2015263
)
;
    }
    Botwall
    {
        type            calculated;
        value           nonuniform List<scalar> 0();
    }
    Cyli
    {
        type            calculated;
        value           nonuniform List<scalar> 0();
    }
    procBoundary3to0
    {
        type            processor;
        value           nonuniform List<scalar> 7(1.1900647 1.1896056 1.1896056 1.189722 1.189722 1.1902834 1.1902834);
    }
    procBoundary3to1
    {
        type            processor;
        value           nonuniform List<scalar> 
62
(
1.1902185
1.1901891
1.1901649
1.1901562
1.1901663
1.1901984
1.1902531
1.1903374
1.1904677
1.1906572
1.1909173
1.1912641
1.1917153
1.1922651
1.1928984
1.1935837
1.194277
1.194968
1.1956031
1.196205
1.1967444
1.1972264
1.1976785
1.1980724
1.1984391
1.1987692
1.1990717
1.1993495
1.1996021
1.1998344
1.2000445
1.2002379
1.2004138
1.2005773
1.2007283
1.2008691
1.2009978
1.2011139
1.2012211
1.2013167
1.2013923
1.2013923
1.2014771
1.201562
1.201637
1.2017163
1.2017867
1.2018653
1.2019312
1.2020048
1.2020585
1.2021135
1.2021489
1.2021922
1.2021824
1.2021697
1.202117
1.2020808
1.2019822
1.2019418
1.2018423
1.2018383
)
;
    }
    procBoundary3to2
    {
        type            processor;
        value           nonuniform List<scalar> 
35
(
1.2047029
1.2044405
1.204671
1.1950892
1.1960059
1.1969455
1.1979084
1.1988415
1.1997226
1.2005483
1.2012992
1.2019669
1.2025494
1.2030425
1.2034601
1.2037909
1.2040717
1.2042527
1.2044527
1.2044562
1.2044562
1.1909656
1.1909656
1.1911611
1.1913358
1.1915065
1.1916903
1.1919161
1.1922086
1.1925896
1.193076
1.1936743
1.1943832
1.1943832
1.190542
)
;
    }
}


// ************************************************************************* //
