/*--------------------------------*- C++ -*----------------------------------*\
| =========                 |                                                 |
| \\      /  F ield         | OpenFOAM: The Open Source CFD Toolbox           |
|  \\    /   O peration     | Version:  2406                                  |
|   \\  /    A nd           | Website:  www.openfoam.com                      |
|    \\/     M anipulation  |                                                 |
\*---------------------------------------------------------------------------*/
FoamFile
{
    version     2.0;
    format      ascii;
    arch        "LSB;label=32;scalar=64";
    class       volScalarField;
    location    "0.02";
    object      alphat;
}
// * * * * * * * * * * * * * * * * * * * * * * * * * * * * * * * * * * * * * //

dimensions      [1 -1 -1 0 0 0 0];

internalField   nonuniform List<scalar> 
2065
(
0.00042676985
0.00038809216
0.00035453594
0.00032414206
0.00029292978
0.00026919301
0.00024143926
0.00023550794
0.00023769482
0.00023620017
0.00033670743
0.00066476525
0.0013997686
0.0011533151
0.0007859606
0.00069937342
0.00062437928
0.00055213174
0.0005412447
0.00056479767
0.00061235753
0.00075833325
0.0010104889
0.0012822501
0.0013119457
0.001129648
0.00089817186
0.00069099232
0.00087507013
0.0010025944
0.001020875
0.00091360878
0.00088092638
0.00087470656
0.00087978647
0.00088211123
0.0008601586
0.00085279335
0.00084837924
0.00085120112
0.00088190913
0.00089394878
0.00089506306
0.00091468552
0.0009415915
0.00097294551
0.001008845
0.0010542286
0.0010933309
0.0011436527
0.0011971889
0.0012704634
0.0013229859
0.0013880436
0.0014299789
0.0015184843
0.0015503678
0.0016085845
0.00045097132
0.00041852946
0.00038259726
0.00034935381
0.00032038556
0.00028402955
0.00026220387
0.00025492849
0.00024270671
0.00028417099
0.00047927297
0.0010704458
0.0013264061
0.00094542311
0.0007578312
0.00069401583
0.00059803764
0.00052875404
0.00052199017
0.0005578347
0.00062548723
0.00081346194
0.0010741843
0.001288726
0.0012962557
0.001119369
0.00087359246
0.00070813326
0.00091600222
0.0010266399
0.0010289697
0.00090298906
0.00087695797
0.00087267711
0.0008845345
0.00088730501
0.00086586873
0.00085027744
0.00084213068
0.00084526054
0.00087224371
0.00088323674
0.0008825773
0.00089573092
0.00092029825
0.00095051707
0.00098656411
0.0010289908
0.0010657072
0.00111649
0.0011739911
0.0012505092
0.0013032761
0.0013697892
0.0014172738
0.0015064872
0.0015442389
0.0016077342
0.00041675547
0.00045151657
0.00044313302
0.00039787174
0.00036196903
0.0003271824
0.0002997149
0.00027552202
0.00026125841
0.00025899294
0.00036312238
0.00067806737
0.001392158
0.001198534
0.00081022336
0.00076263417
0.00069643984
0.00058245449
0.00050365544
0.00050960934
0.0005504537
0.00064502257
0.00083094021
0.0010958698
0.0012920493
0.0012775426
0.0011075794
0.00083844783
0.00073539782
0.0009541858
0.0010456956
0.0010293814
0.00089612395
0.00087421681
0.0008746849
0.00089041435
0.00089252022
0.000868682
0.00084719497
0.00083864648
0.00084199055
0.00086456945
0.00087251251
0.00086805937
0.00087515259
0.00089718441
0.00092744673
0.00096047598
0.00099725134
0.001032014
0.0010806997
0.0011397739
0.0012170547
0.0012687287
0.001334932
0.0013883443
0.0014762855
0.00151555
0.0015855714
0.00034450741
0.0003694252
0.00042211081
0.00044929195
0.00042907641
0.00039291284
0.00034918005
0.00030892072
0.00028553802
0.00027140148
0.00029662738
0.00050265514
0.0010769601
0.0013488116
0.0010057781
0.00081612451
0.00080160591
0.00071109299
0.00057863013
0.00049157347
0.00049997333
0.00054673532
0.00067047934
0.00085373785
0.0011167289
0.0012883762
0.0012575094
0.0011019969
0.00080885651
0.00076769056
0.00098160948
0.0010599126
0.0010298054
0.00089191465
0.00087253838
0.00087636591
0.00090011666
0.00089782568
0.00086915688
0.00084403612
0.0008350074
0.00083995759
0.00085700759
0.00086315568
0.00085063259
0.00085363625
0.00087417356
0.00090743971
0.00093085495
0.00096025564
0.00099367649
0.0010379798
0.0010956306
0.0011708472
0.0012201668
0.0012845649
0.0013428638
0.0014286661
0.0014674002
0.0015428604
0.00048125904
0.0003508414
0.00038063495
0.00043528621
0.00044599829
0.00041728068
0.00037881578
0.00033744183
0.00031114061
0.00028093856
0.00036670872
0.00065825358
0.0013716394
0.0012529068
0.00091897526
0.00088581569
0.00086702442
0.00072589359
0.00055843997
0.00047435447
0.00048786087
0.00055044258
0.00068747517
0.00086470059
0.0011263522
0.0012796961
0.0012377238
0.0010911465
0.00077964745
0.00080041379
0.001001357
0.0010694168
0.0010265577
0.00088917173
0.00087489427
0.00088288833
0.00090913897
0.00090189183
0.00086813975
0.00084110338
0.00083147846
0.00083679522
0.00085088391
0.00085448554
0.00083258645
0.00083327873
0.00085501869
0.00088965171
0.00089856836
0.00091959266
0.00095124809
0.00099077519
0.0010426864
0.001112993
0.0011590066
0.0012200513
0.0012811199
0.001364184
0.0014010698
0.0014806457
0.00055127722
0.00054231043
0.00046607622
0.00036711579
0.00040970419
0.00045675029
0.00043266858
0.00039155977
0.00034757501
0.00031854801
0.00030846839
0.00046352901
0.00091966881
0.0014039441
0.0011387388
0.00092285782
0.0009806258
0.0009380839
0.00073485116
0.00055420365
0.00045744691
0.00047556173
0.00056158411
0.00070173043
0.0008684378
0.0011241361
0.0012679227
0.0012174973
0.0010786453
0.00075198189
0.00083574907
0.0010152656
0.0010748797
0.0010231345
0.00088570395
0.00087364901
0.00088705837
0.00091683486
0.00090653511
0.00086742158
0.00083868692
0.00082920974
0.0008331742
0.00084425486
0.0008459553
0.00081697404
0.00081890804
0.00084251184
0.00086708897
0.00086412383
0.00087818465
0.00090457348
0.00094068356
0.00098328855
0.0010451652
0.0010871799
0.0011432607
0.0012040693
0.0012837592
0.0013176681
0.0014003069
0.00094597811
0.00079684175
0.00059853136
0.00056074371
0.00042566335
0.00040395089
0.00044563338
0.00046533338
0.00041827137
0.00036887815
0.00032577141
0.00036131738
0.00059118583
0.0012784376
0.0013420396
0.0010538944
0.0010179885
0.0010708816
0.001003192
0.00073950114
0.0005396383
0.0004389337
0.00046357973
0.00057598837
0.00070506795
0.00087130266
0.0011087193
0.0012491441
0.0011981756
0.0010583863
0.00073259339
0.00086656444
0.0010253474
0.0010806191
0.0010205474
0.0008843408
0.00087051841
0.00089254356
0.00092303278
0.00090846599
0.00086866449
0.00083742884
0.00082794168
0.00083035241
0.00083478389
0.00083966134
0.00080424893
0.00081032297
0.00083076933
0.00083779348
0.00083059501
0.00083831846
0.00085646398
0.00088767111
0.00092033086
0.00097009114
0.0010072178
0.0010568194
0.0011138849
0.0011890328
0.001218715
0.0013038958
0.0013605856
0.0011648731
0.00085716129
0.00064068988
0.00049963482
0.00039511319
0.00043120465
0.00047104718
0.00044308093
0.00039819891
0.00034187308
0.00043179488
0.0007214298
0.0014401019
0.0012802164
0.0010442182
0.0011283802
0.0011527845
0.0010593106
0.00074388255
0.00053080715
0.00042097628
0.00044947149
0.00058852593
0.00070472655
0.00087339978
0.0010897353
0.0012260453
0.0011776876
0.0010285465
0.0007194209
0.00089085021
0.0010333259
0.0010830728
0.0010176269
0.00088268525
0.00086955334
0.0008887963
0.00092598242
0.0009097659
0.0008682336
0.00083732382
0.0008270184
0.0008279061
0.00083493769
0.00082566991
0.00079429843
0.00080354405
0.00081274423
0.00080877013
0.00079819524
0.00080081221
0.00081119858
0.00083358375
0.00085684464
0.00089220671
0.00092108455
0.00096573473
0.0010151358
0.0010832393
0.0011088083
0.0011932321
0.0015541523
0.0013896009
0.0012059961
0.00080828463
0.00062171459
0.00040650273
0.00042365715
0.00047721746
0.00045445328
0.0004107398
0.00036286645
0.00051294192
0.0010012669
0.0014297667
0.0012048335
0.0010948583
0.001210649
0.0012209668
0.0011036006
0.00074689976
0.0005204137
0.00040206396
0.00043307684
0.00059594816
0.00070526902
0.00086902546
0.0010759635
0.0012056751
0.0011582617
0.00099359527
0.00071717161
0.00091009741
0.0010400306
0.0010843584
0.0010150937
0.00088073411
0.00087040545
0.00088747905
0.00092934388
0.00091069133
0.00086700537
0.00083855095
0.00082700536
0.00082686396
0.00083829641
0.00080942905
0.0007884515
0.00079354657
0.00079228588
0.00078216495
0.00076890816
0.00076777621
0.0007708488
0.00078390002
0.00079659525
0.00081897679
0.00083648956
0.00087641392
0.00091481988
0.00097270844
0.00099441092
0.0010743074
0.0013684281
0.00136259
0.0013351251
0.0012830377
0.00098862198
0.0007442945
0.00045535364
0.0004175686
0.00047019743
0.00047220928
0.00041932424
0.00040411158
0.00059609103
0.0012354029
0.0013959548
0.0011843229
0.0012126905
0.0012806914
0.0012821368
0.0011409443
0.00075033271
0.00051013152
0.00038305534
0.00041283828
0.00059562777
0.00071023332
0.00085568769
0.0010576128
0.0011782678
0.001136733
0.0009533261
0.00072436369
0.0009234326
0.0010466194
0.0010834272
0.0010128726
0.00087826715
0.00087370079
0.00089200806
0.0009283108
0.00090903937
0.00086441467
0.00084125396
0.00083077332
0.00083035437
0.00083349405
0.00080049754
0.00078532904
0.00078299625
0.00077405781
0.00076021196
0.00074602576
0.00074267184
0.00073962987
0.0007439286
0.00074691838
0.00075926316
0.00076595062
0.0007978941
0.00082548973
0.00087118981
0.00088723984
0.00096156898
0.00099102288
0.0010117378
0.0010582901
0.0011267321
0.0010917491
0.00080483866
0.00053637273
0.00041880715
0.00046223867
0.00049025812
0.00042468204
0.00046247685
0.00067955019
0.0013459326
0.0013564152
0.0011985237
0.0012822814
0.001341934
0.0013395495
0.001170331
0.00075221418
0.00050216191
0.00036306907
0.00039094747
0.00058581269
0.00071712772
0.00083810925
0.0010326658
0.0011459335
0.0011107932
0.00090887254
0.00073020687
0.00093727242
0.0010524521
0.0010814979
0.0010109255
0.00087666015
0.00088002857
0.00089851989
0.00092350751
0.00090505171
0.00086110814
0.0008446746
0.00083900324
0.00083630863
0.00082097397
0.00079669944
0.00078555845
0.00077781301
0.000762663
0.0007466004
0.00073335054
0.0007294032
0.00072284191
0.00072022595
0.00071591421
0.00072194974
0.0007221885
0.0007467681
0.00076307834
0.00079819247
0.00081208554
0.0008803718
0.00074148893
0.00076626896
0.00081338421
0.00088966196
0.00108395
0.00082148322
0.00059448422
0.00042266055
0.00045674649
0.00049690479
0.00044110694
0.00052983336
0.00077674409
0.0013916759
0.0013278193
0.0012496812
0.0013677663
0.001415658
0.0014082273
0.0011937249
0.00075289541
0.00049087072
0.0003416526
0.0003667496
0.00056226427
0.00072670176
0.00081221897
0.0010000526
0.0011088559
0.0010802893
0.00086660711
0.00073727065
0.000947256
0.0010560737
0.0010779425
0.0010096953
0.00087432619
0.00088443196
0.0009001809
0.00091210976
0.00090041953
0.00085788308
0.00084764403
0.00084744662
0.0008359778
0.00081303534
0.00079724229
0.00078974824
0.00077829632
0.0007600724
0.00074447402
0.00073317705
0.00072993195
0.00072240243
0.00071614258
0.00070849104
0.00071257179
0.00071227819
0.00073330044
0.00074270547
0.00077699237
0.00079234306
0.00085557616
0.00064370221
0.0006183853
0.00065121031
0.00073170788
0.00093452805
0.00083181602
0.00060616785
0.00042003035
0.00045236469
0.00049024593
0.00047045666
0.00058468403
0.00088920861
0.0013952132
0.0013267732
0.001359095
0.0014624715
0.0015054256
0.0014826138
0.0012061131
0.00075003207
0.00048090414
0.00032087453
0.00034610083
0.00052444085
0.00073474318
0.0007841776
0.00096010353
0.0010679681
0.0010453551
0.00082987445
0.00074612752
0.00095301009
0.001057692
0.0010736253
0.0010085546
0.00087095155
0.00088419774
0.00089107143
0.00090377311
0.00090004933
0.00085651979
0.00084881595
0.00085008176
0.00083919486
0.00080935216
0.00080108308
0.00079737232
0.00078479365
0.00076582852
0.00075194204
0.00074363943
0.0007429354
0.00073691439
0.00073075668
0.00072331586
0.00072878991
0.00073291529
0.0007562684
0.00076699206
0.00080694385
0.00082992896
0.00089241163
0.00061478842
0.00056176591
0.00055624852
0.00063755945
0.00079966253
0.00076214931
0.00060651889
0.00041618878
0.0004489671
0.00048179766
0.00050651142
0.00062982233
0.00097266176
0.0013904036
0.0013411877
0.001466058
0.0015637129
0.0016008694
0.0015464265
0.0012122757
0.00074168755
0.00046718369
0.00030088497
0.00031960081
0.00046935704
0.00074393981
0.00076824553
0.00091273212
0.0010200145
0.0010062721
0.00079928595
0.00075671021
0.00095581261
0.0010567966
0.0010690157
0.0010062295
0.00086742143
0.0008839098
0.00089033584
0.00089726866
0.00090177853
0.00085608723
0.0008499996
0.00085105915
0.00084595502
0.00080846502
0.00080599489
0.00080590606
0.00079495432
0.00077783636
0.00076698309
0.00076164667
0.00076431485
0.00076147407
0.00075848991
0.00075402656
0.00076357946
0.00077492647
0.00080477071
0.00082393247
0.00086913613
0.00090421357
0.00096913745
0.00062559612
0.00054693033
0.00051154953
0.00058026778
0.00068275865
0.00067946388
0.00056981138
0.00041318704
0.00045069336
0.00048052197
0.00053490095
0.00066781393
0.001038313
0.0013825172
0.0013581741
0.0015892044
0.0016660564
0.0016896006
0.0016111951
0.0012119729
0.00072682263
0.0004546257
0.00028366651
0.00029032599
0.00041528774
0.0007356067
0.00075997984
0.00086429562
0.00096756303
0.00095565357
0.00076647007
0.0007701717
0.00095636797
0.0010545132
0.0010651211
0.0010028199
0.00086338998
0.00088184218
0.00089014175
0.00089579746
0.00089736298
0.00085350824
0.00085043848
0.00085192112
0.00085221541
0.0008098383
0.00080980862
0.00081392139
0.00080642039
0.00079261965
0.00078500693
0.00078248737
0.00078924727
0.00079058785
0.0007926324
0.00079281317
0.00080777664
0.00082698611
0.00086579712
0.00089323818
0.00094592193
0.00099162548
0.0010619064
0.00058487892
0.00051436513
0.00050501074
0.00054043743
0.00055776077
0.00047831752
0.00041326892
0.00045432229
0.00047906293
0.00056340989
0.00070501954
0.0010880095
0.0013689085
0.0014266561
0.0016986147
0.0017517394
0.001765254
0.0016703839
0.0012033586
0.00070899117
0.00043994513
0.00026931431
0.0002619308
0.00037449349
0.00070745041
0.00075543784
0.00081507346
0.0009103113
0.00090251446
0.0007400462
0.0007823124
0.00095467406
0.0010512658
0.001059861
0.0010001808
0.00085881018
0.00087880952
0.0008872097
0.00089549133
0.0008938426
0.00085115115
0.00084846961
0.0008501461
0.00085643711
0.0008130313
0.00081168898
0.00082066213
0.00081740809
0.00080743359
0.00080291066
0.00080300322
0.00081404606
0.00082004643
0.00082791994
0.00083363246
0.00085498218
0.00088191788
0.00092835899
0.00096190259
0.0010269602
0.0010789407
0.0011558736
0.00071240274
0.00058566011
0.00051724416
0.00049711436
0.00048329557
0.00044747298
0.00042976537
0.00047138814
0.00051027371
0.00060420227
0.00074591327
0.0011338998
0.0013616296
0.0015039908
0.0017766538
0.0018378306
0.0018466105
0.0017304033
0.0011825769
0.00069289726
0.00042674816
0.00025865501
0.00023737684
0.00033291951
0.0006619552
0.00075640899
0.00078204303
0.00085626879
0.00085242059
0.00072050923
0.00078693751
0.00095100518
0.0010491256
0.0010530499
0.00099750236
0.00085319313
0.00087508316
0.00088325876
0.00089602893
0.00089171179
0.00085068936
0.00084384443
0.00084735125
0.00086227802
0.00081727421
0.00081207461
0.00082521143
0.00082676079
0.00082078602
0.00081901035
0.00082145457
0.00083654923
0.00084730698
0.00086111913
0.00087294879
0.0009022628
0.00093291552
0.00098771069
0.0010269345
0.0011044912
0.0011598484
0.0012439663
0.0011160492
0.00080426735
0.00063114374
0.00054851138
0.00049616954
0.00047479122
0.00046503948
0.000500418
0.00055701417
0.00065310271
0.00079187996
0.0011803084
0.0013675655
0.001630554
0.0019078883
0.0019560159
0.0019406924
0.0017933431
0.0011488454
0.00067544267
0.00041008914
0.00024751006
0.00021558699
0.00029204094
0.00057502702
0.00075527868
0.0007537496
0.00080010905
0.00080628527
0.00070832931
0.00078696605
0.00094688444
0.0010394302
0.0010446318
0.00099182133
0.00084483645
0.00087149266
0.00087990016
0.00089721279
0.00089039283
0.00085090214
0.0008344689
0.00084084272
0.00086928121
0.00082150684
0.0008102566
0.00082733483
0.00083416019
0.00083203118
0.0008325939
0.0008371616
0.00085581182
0.00087111127
0.0008906523
0.00090964158
0.00094565644
0.0009785985
0.0010415332
0.0010869194
0.0011746076
0.0012316636
0.0013230573
0.0014336093
0.0010209721
0.0007880748
0.00065400551
0.00059241092
0.00056118387
0.00058257597
0.00063444534
0.00072315689
0.00090443665
0.0012058001
0.0013971985
0.0018092157
0.0020302947
0.0020640321
0.0020333041
0.0018588448
0.0011007634
0.00065907294
0.00039518096
0.00023821049
0.0001952674
0.00025048957
0.00044663091
0.0007627237
0.00074081067
0.00075845154
0.00076744658
0.00069816524
0.00078448014
0.00093739675
0.0010301001
0.001032554
0.00098366204
0.00083416981
0.00086627367
0.00087660547
0.00089833697
0.00089050188
0.00084806027
0.00082296576
0.00083057479
0.00087335589
0.00082555484
0.00080635797
0.00082622796
0.00084022846
0.00084104104
0.00084356849
0.00085011633
0.00087166556
0.00089099811
0.00091636249
0.00094310843
0.00098242824
0.0010187816
0.0010891602
0.0011411025
0.0012351837
0.0012934049
0.0013918015
0.00081172956
0.00082085784
0.00087129237
0.00083191432
0.00080224469
0.00082242416
0.00084506059
0.00084809204
0.00085227779
0.00086071718
0.00088431557
0.00090718507
0.00093883085
0.00097175739
0.0010126515
0.0010537191
0.0011300102
0.0011877205
0.0012862489
0.0013448387
0.0014496203
0.00013657447
0.00011710414
0.00031699292
0.00027469688
0.00021691481
0.00018374504
0.00016285417
0.00014569718
0.00013779093
0.00011588411
0.00035221849
0.0002943733
0.00025850615
0.00020776691
0.00018009994
0.00016326744
0.00014708713
0.0001403517
0.00011624408
0.0003220576
0.00027664561
0.00024732551
0.00020099491
0.00017893949
0.000164594
0.00015016712
0.00014135239
0.00011501007
0.00029326395
0.00025406725
0.00023093447
0.00019528651
0.00017994768
0.00016623064
0.00015262393
0.00014286199
0.00011363866
0.00026654781
0.00023444996
0.00021589265
0.0001921588
0.00018261498
0.00017064369
0.00015630709
0.00014333169
0.00011096679
0.00024349663
0.0002182392
0.00020491124
0.00019362041
0.00019184317
0.00017074344
0.00015675853
0.00014089557
0.00010584061
0.00022616019
0.00020970511
0.00019865514
0.00019377678
0.00019036833
0.00017013449
0.00016037657
0.0001366249
9.8550248e-05
0.00021701221
0.0002060251
0.00019956153
0.00019287914
0.00018872998
0.00016999552
0.00016539059
0.00012519478
8.9119875e-05
0.00021880373
0.00021301581
0.00020482389
0.00019823621
0.00018740019
0.00016867136
0.00015891009
0.00010882527
8.0190293e-05
0.00022197026
0.00021631266
0.00020572172
0.00020205309
0.00017778867
0.00016624901
0.00015182905
0.00010037011
7.499166e-05
0.00026414616
0.00025470693
0.00022445397
0.00019818662
0.00018113881
0.00015748913
0.0001452686
9.3830602e-05
6.9999457e-05
0.00043967942
0.00044009788
0.00033742703
0.00026741405
0.00020389641
0.00016488678
0.00014395593
9.7028866e-05
7.1401255e-05
0.0010026844
0.00096133948
0.00067181987
0.00052522472
0.00037166628
0.00024683922
0.00016858846
0.00012132704
9.3619748e-05
0.0013014035
0.0013385329
0.0013519635
0.0011692402
0.0008097121
0.00054965994
0.0003424491
0.0002221918
0.00015069752
0.00095028573
0.0010754353
0.0012223998
0.0013328157
0.0013696949
0.0011798049
0.00078201419
0.00052469301
0.00033376263
0.00071094542
0.00075944755
0.00088507604
0.0011118101
0.0012856336
0.001403458
0.0013872882
0.0011567458
0.00078005128
0.00062785232
0.00064395849
0.00066961567
0.00074830104
0.00096472013
0.0012684109
0.0014360161
0.0014822651
0.0014298686
0.00056110693
0.0005879966
0.0006154728
0.00065605455
0.00072668894
0.00093796709
0.0012752442
0.0015572305
0.0016734373
0.00055311256
0.00057681505
0.00059850451
0.00066003151
0.0007134347
0.00080955313
0.0010329946
0.001447141
0.0017517955
0.00057815779
0.00060428498
0.00062124002
0.00067361431
0.00071805592
0.00081751822
0.0009278658
0.001233224
0.0016572955
0.0006255347
0.00064443849
0.00066189024
0.00069722998
0.00075565838
0.00082311083
0.00088773889
0.0010212651
0.0013102938
0.00075904384
0.00074935963
0.0007494434
0.00076287122
0.00080002405
0.00085045215
0.00092285051
0.0010513738
0.0012530614
0.001016874
0.0010251947
0.0010131882
0.00096314549
0.00092904216
0.00093807812
0.00099402929
0.0011326248
0.0014460808
0.0012885155
0.0013136726
0.001316704
0.0013007405
0.001256614
0.0012488589
0.0013352558
0.0014822621
0.0016474463
0.0013285326
0.0013238946
0.0013337201
0.0013250482
0.0013220003
0.0013287405
0.0013515414
0.0013810001
0.0014011248
0.0011328015
0.0011081583
0.0010932708
0.0010719007
0.0010493764
0.0010209992
0.00095473316
0.00083927652
0.00066379808
0.00091829465
0.00088076608
0.00085489066
0.00078968399
0.00073852414
0.00062200108
0.00051996737
0.00041978634
0.00032709945
0.00069078588
0.00067793599
0.00066401027
0.00064189985
0.00062332792
0.00059268107
0.00055748486
0.00049691321
0.00041890536
0.00083759236
0.00081990823
0.0007957889
0.00077409072
0.00075313509
0.00073577663
0.00072456904
0.00071459623
0.00067495592
0.00097622403
0.00095510238
0.00092814934
0.00089033362
0.0008584375
0.00083478468
0.00082561207
0.00082520327
0.0008291117
0.0010077913
0.00099293206
0.00097781661
0.00095287835
0.00093334492
0.00091576151
0.00091721701
0.00094831776
0.0010002077
0.00091586738
0.0009193832
0.00092767416
0.00093233837
0.00095395939
0.0010048022
0.0010477556
0.0011064339
0.0011674646
0.00088514248
0.00090075619
0.00091191897
0.00092119199
0.0009426799
0.00098170429
0.0010211908
0.0010765438
0.00113028
0.0008770076
0.00087876599
0.00087906538
0.00088074427
0.00089113532
0.00090800153
0.00093204351
0.00097769968
0.0010370769
0.0008759925
0.0008687823
0.00086072996
0.00085375816
0.00084795407
0.00084213524
0.00084206634
0.00085199953
0.0008310466
0.00087342453
0.00085987677
0.00084890744
0.00083185141
0.00080981049
0.00078120834
0.00073977984
0.00065285584
0.00056556956
0.00085144869
0.00084081595
0.00083286501
0.00081818117
0.00079654986
0.0007611398
0.00069751308
0.0006210798
0.00054824359
0.00085289793
0.00085223203
0.00085467714
0.00085907542
0.00086563245
0.00087126957
0.00086874986
0.00085022887
0.00079668219
0.00085318757
0.00085854784
0.00086736513
0.00088111109
0.00090009216
0.00092449395
0.00095571722
0.00097805231
0.00096881094
0.0008586888
0.00087005327
0.00088660483
0.00090406878
0.00092061749
0.00093373529
0.00094820614
0.00097093682
0.00096137467
0.00089216035
0.00090261556
0.00091249933
0.00091611102
0.00091069488
0.00089683509
0.00088573362
0.00085325469
0.0008089613
0.00090339655
0.00090992245
0.00091727606
0.00091575766
0.00090475525
0.00087398716
0.00080467017
0.00072912455
0.0006500322
0.00090564474
0.00091629187
0.00092564582
0.00092703061
0.0009084884
0.0008729083
0.00081479061
0.00073708147
0.00064667148
0.00092968057
0.00094392342
0.00095827958
0.00096678884
0.00096174459
0.00094086643
0.00089957135
0.0008268334
0.00073153551
0.00095779327
0.00097205021
0.00098473444
0.00099018343
0.00098119243
0.00095598919
0.00090474196
0.00083258577
0.00074279798
0.00098957043
0.0010022798
0.0010108513
0.0010078755
0.00099054248
0.00094947645
0.00087792596
0.00078857619
0.00068953069
0.0010243877
0.0010360938
0.0010431462
0.0010371205
0.0010103608
0.00095170451
0.00087211982
0.00077515064
0.00067035987
0.0010697101
0.0010797923
0.0010829252
0.0010709631
0.001036762
0.00097459157
0.00088741902
0.00078248958
0.00067109422
0.0011106247
0.001121212
0.0011227205
0.0011084494
0.0010690777
0.0010002808
0.00090558991
0.00079370587
0.00067660542
0.0011586008
0.0011670341
0.0011659743
0.0011473098
0.0011033561
0.0010308357
0.00093114813
0.00081315372
0.0006901786
0.0012070046
0.0012095267
0.0012011738
0.0011759244
0.0011277076
0.00104882
0.00094197538
0.00081794864
0.00069048495
0.0012755037
0.0012727544
0.0012580213
0.0012249759
0.001162724
0.0010685111
0.00094932615
0.00081651305
0.00068358889
0.0013271674
0.0013226826
0.0013042936
0.0012614386
0.0011887348
0.0010873614
0.00096197275
0.000823686
0.00068638561
0.0013885824
0.0013805177
0.0013575596
0.0013109459
0.0012342409
0.0011264553
0.00099351104
0.00084753057
0.00070338645
0.0014275532
0.001417669
0.0013925651
0.001343415
0.0012630218
0.0011500134
0.0010110172
0.00085937881
0.00071095844
0.0015118212
0.0014970246
0.0014639102
0.0014041042
0.0013120303
0.0011874565
0.0010377967
0.00087713516
0.00072186681
0.0015398759
0.0015223257
0.0014862402
0.0014234966
0.0013274242
0.0011984127
0.0010445695
0.00088051692
0.00072298992
0.0015892916
0.0015650028
0.0015211364
0.0014492794
0.0013447577
0.0012077783
0.0010469951
0.00087780767
0.00071739478
0.00010861273
7.9209638e-05
4.1051579e-05
2.079834e-05
2.6500216e-05
3.9461459e-05
0.00010551038
7.4947937e-05
3.9241854e-05
2.1174141e-05
2.7040401e-05
3.6324351e-05
0.00010376015
7.0155004e-05
3.7676935e-05
2.1356801e-05
2.7518515e-05
3.2538667e-05
9.9903339e-05
6.3538691e-05
3.5511409e-05
2.1384573e-05
2.6852975e-05
2.7971898e-05
9.5836166e-05
5.8083269e-05
3.3340596e-05
2.0784206e-05
2.5760444e-05
2.5222717e-05
8.9516922e-05
5.0693946e-05
3.0937027e-05
2.0472797e-05
2.461858e-05
2.2184556e-05
8.169581e-05
4.4296296e-05
2.8343115e-05
1.970716e-05
2.3331578e-05
2.2297015e-05
7.323639e-05
4.0498368e-05
2.5743873e-05
1.8737399e-05
2.2575335e-05
2.3276011e-05
6.0190118e-05
3.5154087e-05
2.2489003e-05
1.7567255e-05
2.1728808e-05
2.5876708e-05
4.9819996e-05
3.1113693e-05
2.05439e-05
1.6895603e-05
2.1635928e-05
2.9999758e-05
4.227092e-05
2.8516005e-05
1.9660942e-05
1.5941764e-05
2.1782583e-05
3.567769e-05
3.8598317e-05
2.6501075e-05
1.8497604e-05
1.48482e-05
2.2922777e-05
4.2979091e-05
4.2644579e-05
2.6213676e-05
1.7699795e-05
1.4420653e-05
2.3792218e-05
4.7881326e-05
6.4612783e-05
3.8218731e-05
2.4094648e-05
1.6544288e-05
2.3941939e-05
4.9411954e-05
9.6923362e-05
5.9245135e-05
3.6909272e-05
2.166183e-05
2.5092157e-05
4.9792336e-05
0.00021531105
0.00012584706
6.6304306e-05
3.2827297e-05
2.6890206e-05
4.8509781e-05
0.00055951273
0.00033159701
0.00015782988
5.9632594e-05
3.4630826e-05
4.5083944e-05
0.0011825054
0.00080261476
0.00044240015
0.00014620928
5.4288783e-05
4.053925e-05
0.0016825628
0.0015125133
0.0010054003
0.00041162316
9.9246015e-05
3.064084e-05
0.0018587103
0.0018148923
0.0014740461
0.00081465049
0.00022212424
2.9230138e-05
0.0018675682
0.001932767
0.0018653849
0.0014176759
0.00048763555
4.1306057e-05
0.0017123936
0.0020126246
0.0021111912
0.0018581109
0.0010270395
6.9193002e-05
0.0016303281
0.0020036714
0.0021050581
0.0018166111
0.00098787162
9.0842405e-05
0.0017866448
0.0020596397
0.0020800122
0.0016902167
0.00082640562
8.7475961e-05
0.0017961159
0.0018740106
0.001637424
0.0011092065
0.00042485176
7.9247343e-05
0.0013012615
0.00099854678
0.00070016568
0.0003938331
0.00015112848
5.4681784e-05
0.00048542347
0.00036063642
0.00024229086
0.00013610527
5.8911976e-05
2.3934331e-05
0.0002506109
0.00019347451
0.00014179502
9.1559075e-05
4.7127679e-05
1.7901741e-05
0.0003283009
0.00023895631
0.00016694355
0.00011485523
6.2751434e-05
2.2702652e-05
0.00059980334
0.00047938294
0.00032306025
0.00018753827
9.463835e-05
4.4017134e-05
0.00082303524
0.00079040309
0.00067798119
0.00045617888
0.00020741615
6.004931e-05
0.0010823454
0.0011481638
0.0010629881
0.00076997128
0.0003603524
6.1170397e-05
0.0012387998
0.0013053029
0.0012292831
0.00091650624
0.00042636178
5.3266056e-05
0.0012021362
0.0012663657
0.0011910448
0.00088940155
0.00040978749
3.8791302e-05
0.0010823331
0.0010682173
0.0009391575
0.00066144408
0.00028044572
3.4094811e-05
0.00078122424
0.00069727437
0.00055444335
0.00035235887
0.00013274573
2.3800212e-05
0.00048310835
0.00039158783
0.0002835763
0.00016558894
5.6037207e-05
9.4570669e-06
0.0004659852
0.0003711324
0.00026444857
0.00015283115
5.3614392e-05
8.8307344e-06
0.00071438335
0.00059544778
0.00044095316
0.00026393483
9.850408e-05
1.0774672e-05
0.00091160738
0.0007942035
0.00061138873
0.00037303416
0.00013263476
1.005995e-05
0.00090696248
0.00079513789
0.00062257027
0.00038576943
0.00013427685
6.0965997e-06
0.00074274239
0.00063749323
0.00047959818
0.00028445311
8.675526e-05
2.2319893e-06
0.00056146923
0.00045458304
0.00032667736
0.00018368574
4.9766449e-05
1.3007532e-06
0.00054794637
0.00043453475
0.00030718342
0.00016942031
4.4548131e-05
1.3655314e-06
0.00062128371
0.00048996228
0.00034057855
0.00018207938
4.6518035e-05
1.412375e-06
0.00063596428
0.00050526229
0.00035291018
0.00018798472
4.608316e-05
1.2218995e-06
0.00058271664
0.00045817082
0.00031653831
0.00016524253
3.7218491e-05
9.531471e-07
0.00055876621
0.00043178124
0.00029153371
0.00014710523
3.1254763e-05
8.3548003e-07
0.00055453199
0.00042368156
0.00028168956
0.00013878264
2.8388022e-05
8.0337321e-07
0.00055529413
0.00042037024
0.00027618689
0.00013401688
2.6929017e-05
7.7629712e-07
0.00056327777
0.00042283024
0.00027461154
0.00013122385
2.5739146e-05
7.3791037e-07
0.00055995679
0.00041637394
0.00026652695
0.00012411172
2.3250021e-05
6.9400574e-07
0.00054972686
0.00040456701
0.00025597379
0.00011795157
2.1858576e-05
6.8194201e-07
0.00054891522
0.00040086894
0.00025177913
0.00011587559
2.1692609e-05
7.29017e-07
0.00055958568
0.00040534137
0.00025182232
0.00011497663
2.202454e-05
7.9378798e-07
0.00056378065
0.00040672231
0.00025199397
0.0001148388
2.2307784e-05
8.5793867e-07
0.00056910519
0.00040703356
0.00025044477
0.00011490587
2.3592485e-05
9.8375454e-07
0.00056845105
0.00040496573
0.00024796695
0.00011370625
2.3808276e-05
1.0610235e-06
0.00056123896
0.00039705266
0.00024232527
0.0001113702
2.4397742e-05
1.1852713e-06
)
;

boundaryField
{
    Side1
    {
        type            empty;
    }
    Inlet
    {
        type            calculated;
        value           nonuniform List<scalar> 0();
    }
    Side2
    {
        type            empty;
    }
    Outlet
    {
        type            zeroGradient;
    }
    Botwall
    {
        type            compressible::alphatWallFunction;
        value           nonuniform List<scalar> 
59
(
0
0
0
0
0
0
0
0
0
0
0
0
0
0
0
0
0
0
0
0
0
7.6435326e-07
4.5004534e-06
3.8562142e-06
2.3903029e-06
0
0
0
0
0
0
0
0
0
0
0
0
0
0
0
0
0
0
0
0
0
0
0
0
0
0
0
0
0
0
0
0
0
0
)
;
    }
    Cyli
    {
        type            compressible::alphatWallFunction;
        value           nonuniform List<scalar> 0();
    }
    procBoundary1to0
    {
        type            processor;
        value           nonuniform List<scalar> 
44
(
0.00045153323
0.00038010555
0.00045198459
0.00045198459