/*--------------------------------*- C++ -*----------------------------------*\
| =========                 |                                                 |
| \\      /  F ield         | OpenFOAM: The Open Source CFD Toolbox           |
|  \\    /   O peration     | Version:  2406                                  |
|   \\  /    A nd           | Website:  www.openfoam.com                      |
|    \\/     M anipulation  |                                                 |
\*---------------------------------------------------------------------------*/
FoamFile
{
    version     2.0;
    format      ascii;
    arch        "LSB;label=32;scalar=64";
    class       volScalarField;
    location    "0.02";
    object      k;
}
// * * * * * * * * * * * * * * * * * * * * * * * * * * * * * * * * * * * * * //

dimensions      [0 2 -2 0 0 0 0];

internalField   nonuniform List<scalar> 
2065
(
11.455664
9.550811
8.0059869
6.8352437
5.617919
4.7332743
3.8455795
3.6220845
3.6795969
3.6565641
5.1552156
11.729114
36.578107
36.768454
24.730121
21.004343
16.2059
11.357247
9.0838116
8.9426942
9.8070286
12.885542
18.10345
23.813155
25.734633
25.055769
19.576341
11.5436
9.4215159
9.7806735
9.5056252
8.2009444
7.8611257
7.9035607
8.6500067
8.8406394
7.0876963
5.4990016
5.1575849
5.224369
5.5761979
5.50681
4.8808025
4.6316527
4.7199584
4.8171547
4.7867448
4.7441619
4.7495365
4.8147699
4.9182648
5.0051732
5.0124628
5.0086597
5.0144534
5.0000956
4.9250615
4.6492387
12.840937
10.764367
8.8969686
7.6005623
6.4331768
5.2372278
4.433447
4.1669433
3.9103031
4.5121055
7.963805
23.306791
41.785576
30.663392
23.887055
20.45823
14.561737
9.9304194
8.3537746
8.6230186
9.9250702
14.017888
19.444654
24.011059
25.559002
24.632736
18.656961
11.129027
9.6842087
10.032248
9.5883977
8.1030421
7.8178004
7.8584246
8.622499
8.7041268
6.8812033
5.400735
5.065025
5.1134222
5.3799688
5.2841374
4.6395256
4.3999276
4.474318
4.5473034
4.503613
4.4526345
4.4612091
4.5390369
4.6656901
4.7691239
4.7915348
4.7986652
4.8319406
4.8303147
4.7770935
4.5269293
15.664524
13.961459
12.253093
9.7848569
8.1113525
6.7484588
5.6840448
4.855441
4.3627082
4.3303607
5.9960598
12.790857
39.17562
39.629293
25.934211
23.57145
19.680641
13.413375
9.0991364
7.8857718
8.357955
10.281484
14.440467
20.081808
24.318391
25.303217
24.107952
17.454731
10.872167
9.9852593
10.219297
9.5734597
8.0235322
7.8046372
7.8924329
8.6167948
8.5647611
6.6829425
5.324722
5.0139651
5.0418559
5.2175675
5.0731272
4.4087472
4.1831965
4.2353786
4.2750662
4.2040742
4.1352311
4.1425624
4.217356
4.3532848
4.4615111
4.4917567
4.5094702
4.5696507
4.5765477
4.5347786
4.3260006
33.982019
19.766274
15.050504
13.08496
11.144211
9.4313406
7.5939907
6.0649342
5.1714688
4.6715551
5.2532453
8.9338345
24.98159
43.456712
33.170172
26.283791
25.027687
19.994579
12.960943
8.4640425
7.5123525
8.2125738
10.799556
14.895587
20.5744
24.304409
24.988957
23.483821
16.378414
10.734717
10.235948
10.40029
9.5861953
7.9899857
7.805617
7.9258094
8.6661813
8.4389792
6.4925983
5.2681866
4.9727908
4.9848992
5.0775243
4.8717333
4.1941709
3.9854465
4.0115053
4.015855
3.9005819
3.8059353
3.8073982
3.8650256
3.9940101
4.0939097
4.1251274
4.1522111
4.2336777
4.247366
4.2139203
4.0515828
61.581375
30.617373
18.158539
14.411287
12.457186
10.561066
8.6033185
7.0825733
5.9323982
5.2329074
6.6640218
13.019947
38.719964
42.081422
30.484259
29.224817
27.634614
20.145261
12.02986
7.852585
7.1597186
8.1759288
11.205254
15.211498
20.856716
24.232625
24.629962
22.778762
15.308694
10.672415
10.472564
10.548909
9.5544106
7.9819733
7.905574
8.0685111
8.7229212
8.311105
6.3194937
5.2293307
4.9427648
4.9329643
4.9534729
4.6755787
4.003921
3.8104235
3.8089679
3.7756334
3.6000196
3.4769044
3.4651313
3.4999488
3.6021626
3.682309
3.7089854
3.7410026
3.8346496
3.8542743
3.8273853
3.7124151
69.348054
68.127608
52.148759
24.758919
16.083389
13.579551
11.301369
9.1058382
7.409817
6.2125194
5.8701367
8.8205605
20.661802
44.811757
38.523192
31.229744
33.042383
30.340124
20.420375
11.754175
7.3505617
6.8399327
8.269487
11.590213
15.333328
20.752471
23.993175
24.21588
22.040701
14.225476
10.717553
10.714472
10.695093
9.56557
8.0023037
7.9210172
8.1480303
8.7473524
8.1948314
6.1772188
5.2105703
4.9299278
4.8865478
4.8430639
4.4771308
3.8437752
3.6677965
3.633647
3.5315315
3.3083045
3.1621351
3.1219345
3.1363905
3.1969748
3.2465002
3.2639222
3.2939517
3.3883618
3.4125846
3.3904101
3.3214023
67.266319
67.482977
67.888842
61.43845
37.210625
19.673257
14.666689
13.154229
10.389773
8.1719775
6.6211775
7.0795689
12.109975
34.245793
44.82238
36.311436
35.095716
36.337455
32.585279
20.537688
11.113895
6.840289
6.5452519
8.4183871
11.813448
15.447408
20.208058
23.545596
23.734219
21.129844
13.354082
10.851517
10.944719
10.839055
9.5780049
8.0337574
7.8988244
8.2373011
8.759718
8.0654605
6.0858707
5.2138104
4.9342387
4.8576195
4.7387644
4.2901433
3.7082564
3.5461781
3.46508
3.2759605
3.0380197
2.8714504
2.7938943
2.7829686
2.7992243
2.8097586
2.8130578
2.8334896
2.9170049
2.9424156
2.9223845
2.8963175
84.160077
75.117488
71.228974
65.766505
46.494556
23.490468
15.843603
13.916093
11.547892
9.2185444
7.2511213
8.7702556
15.946082
43.242071
43.547883
36.281064
39.026574
39.15425
34.515482
20.776345
10.814401
6.3979012
6.2344958
8.5342018
11.946268
15.569673
19.748928
22.951832
23.153245
20.066288
12.644141
11.015107
11.146325
10.964634
9.5918145
8.0631619
7.8995236
8.1941536
8.7325862
7.9292427
6.0130358
5.2351776
4.9522103
4.8403339
4.6744748
4.0946087
3.5913531
3.428732
3.2766789
3.0379685
2.7909259
2.6104544
2.5008622
2.4542725
2.4293502
2.3987402
2.378069
2.3896267
2.4508079
2.4705185
2.4527442
2.4576401
89.352924
78.829032
74.999843
70.174908
55.011191
27.991146
17.514792
14.746496
12.158074
9.656879
7.8415791
10.853316
24.005021
45.660097
41.871865
38.398277
41.93607
41.712437
36.168504
20.927314
10.400438
5.9632185
5.8810491
8.5677201
12.072974
15.604096
19.514614
22.336254
22.446446
18.959492
12.162818
11.141188
11.310034
11.074084
9.6152251
8.0801266
7.9343228
8.1790582
8.7319263
7.7884674
5.9502809
5.278201
4.9891557
4.8346576
4.5989234
3.9297129
3.4997234
3.3011781
3.090409
2.8285014
2.5780925
2.3911587
2.2552219
2.1742494
2.1084337
2.0450925
1.9943423
1.9945598
2.0247506
2.0322641
2.0153188
2.0376376
79.83511
75.834345
69.708927
70.450366
68.631966
60.666267
32.859265
19.018946
15.483444
12.968195
10.172767
8.94689
13.247924
32.417655
45.697633
41.584524
43.017176
44.472082
44.209001
37.753293
21.106553
10.153743
5.5643334
5.4892934
8.4831478
12.251147
15.4737
19.147603
21.68761
21.664294
17.816647
11.882115
11.200483
11.440672
11.165958
9.6473732
8.0867268
7.9951134
8.2308762
8.6471795
7.6165803
5.8802478
5.3412965
5.0617684
4.8398476
4.458764
3.8259134
3.4391503
3.1880367
2.9339754
2.6624003
2.4176384
2.2307621
2.0754227
1.9634878
1.8638447
1.7785189
1.7022522
1.6821726
1.6831479
1.6743441
1.6537465
1.6834049
53.804589
54.618419
52.265456
57.320254
65.635651
60.068928
37.412142
20.721486
15.990286
13.939102
10.693068
10.470231
15.771231
37.403765
44.788584
42.294061
45.879075
46.966836
47.017619
39.373825
21.202068
9.8150338
5.1704894
5.0683282
8.2043248
12.426699
15.285102
18.711751
21.000838
20.834654
16.685504
11.625308
11.287546
11.548707
11.243686
9.6811119
8.0943432
8.099931
8.2930935
8.4734006
7.4111192
5.8120487
5.4136588
5.1659097
4.8105701
4.2969954
3.7742258
3.4243971
3.1312515
2.8374399
2.5607588
2.3288037
2.1461059
1.9812519
1.8435144
1.7195016
1.6216421
1.5326257
1.4935594
1.467162
1.4452444
1.4281023
1.4546577
35.961453
38.87423
38.845043
42.956185
59.015215
56.561573
39.540121
22.0838
16.565968
14.572853
11.251945
12.256051
18.653169
40.006124
44.046286
44.87909
49.56745
50.555038
50.678194
40.992148
21.239077
9.5431018
4.7815941
4.6318013
7.6742072
12.594668
14.98041
18.1719
20.260786
19.968561
15.613773
11.406499
11.352556
11.63469
11.313279
9.7167035
8.0963966
8.2015413
8.2783443
8.2268148
7.2298239
5.7696415
5.4734449
5.2715149
4.7536298
4.1955461
3.7719935
3.4540708
3.1287336
2.8119091
2.5407397
2.3218883
2.143788
1.9760376
1.8214551
1.6850198
1.5834213
1.4958434
1.4463248
1.4042353
1.3876618
1.3784026
1.396408
28.84252
28.839608
30.616959
34.402034
46.902778
51.405928
38.213076
21.985203
16.915224
14.823899
12.164297
13.877616
21.952681
40.77697
44.099084
50.735759
54.559542
55.538133
54.907907
42.374901
21.060409
9.1952314
4.4120362
4.2217068
6.9116043
12.611914
14.663283
17.558341
19.463076
19.072312
14.66411
11.232596
11.377421
11.706204
11.380432
9.7486917
8.0900271
8.2508121
8.1867509
8.0321477
7.0914313
5.759141
5.5173564
5.3384263
4.7560328
4.1455376
3.8065332
3.5223548
3.1785406
2.8506186
2.5882097
2.3849353
2.2159476
2.0517059
1.8909932
1.7509837
1.6511323
1.5761685
1.5302827
1.4903905
1.4917742
1.5001888
1.5137332
26.832439
25.142617
25.985168
30.265091
39.956839
44.213842
35.551154
21.343589
16.986982
14.838647
13.308867
15.341355
24.597247
40.844438
44.802327
56.486632
60.101213
61.27294
59.064965
43.51388
20.728352
8.8497498
4.0722829
3.7802624
5.9358493
12.436387
14.491332
16.882503
18.598797
18.143019
13.822764
11.088607
11.374113
11.755603
11.448766
9.7764218
8.0751558
8.2756342
8.2227366
7.9368655
6.9435909
5.7608687
5.5642184
5.3925412
4.8006932
4.1310622
3.8639945
3.6074321
3.2642093
2.9398004
2.691454
2.5015194
2.3428628
2.1869446
2.0302846
1.8945493
1.8028616
1.7477831
1.716069
1.6957504
1.7140881
1.7489033
1.7613991
27.371988
24.237651
24.033858
29.167205
35.230851
37.313767
31.219159
20.536087
17.305133
15.132886
14.322875
16.794159
26.89939
40.402456
46.103755
62.841865
65.590221
66.489509
62.988425
44.224704
20.129173
8.431917
3.765506
3.3292481
5.035505
11.797094
14.366984
16.158673
17.716473
17.163871
13.073193
10.962682
11.355684
11.806712
11.524406
9.7991085
8.0518654
8.2809893
8.2492421
7.9002543
6.7873814
5.7495266
5.6097436
5.4395684
4.8563126
4.1443307
3.9214657
3.6955859
3.3675543
3.0563454
2.8228589
2.6451796
2.5003953
2.3570132
2.2122991
2.0873511
2.0083454
1.9762026
1.9670542
1.9692923
2.0092409
2.0695034
2.0855349
26.309144
24.346362
25.336278
27.840498
28.822073
24.812549
19.6967
17.648677
15.557936
15.52409
18.258051
28.857384
39.793827
50.348247
68.718867
70.151936
70.877579
66.595263
44.597231
19.456825
8.038855
3.5175443
2.8858662
4.3473667
10.715027
14.233085
15.346772
16.747917
16.16881
12.427787
10.847461
11.334366
11.915156
11.611277
9.816832
8.020631
8.2768527
8.2316155
7.8615783
6.6739746
5.7474623
5.6367006
5.4666195
4.9059514
4.1797037
3.9707116
3.7807741
3.4746425
3.1807331
2.9621265
2.7966069
2.6682701
2.5408635
2.4134647
2.3047313
2.2434127
2.2357767
2.2491002
2.2716609
2.3447062
2.4222754
2.4444619
32.026471
27.11434
25.498305
25.142996
24.595511
22.659034
19.848441
18.481341
17.072351
17.272867
20.119847
30.920264
39.963962
54.084145
72.741932
74.813011
75.725329
70.421939
44.481447
18.677029
7.5769174
3.3188015
2.5057836
3.6641523
9.1913001
14.125048
14.772339
15.787274
15.215096
11.843784
10.704999
11.331122
12.127731
11.698512
9.8300753
7.9782773
8.2686449
8.2002245
7.8156404
6.59516
5.7755493
5.6381295
5.4735892
4.9562481
4.2244948
4.0117646
3.8556892
3.5762127
3.301591
3.0971472
2.9436301
2.8328191
2.723724
2.6169313
2.5292026
2.4927402
2.5008756
2.5414037
2.5847006
2.692482
2.7807183
2.8110243
49.042286
36.397334
30.32521
27.556157
25.276472
23.274477
21.287694
20.324997
19.456175
19.671391
22.498146
33.493919
41.137123
59.463971
79.285253
81.217586
81.481414
74.646936
43.821205
17.856834
7.1073306
3.109317
2.2024594
3.0282373
7.0894839
13.862694
14.220156
14.700299
14.2885
11.364935
10.555225
11.370001
12.196966
11.732967
9.8292263
7.9073126
8.2468682
8.1697199
7.77201
6.5466541
5.8137993
5.5888915
5.4407618
5.0171961
4.2737458
4.0405791
3.9177336
3.6687671
3.4133805
3.2217773
3.0800576
2.9864701
2.8966944
2.8123837
2.7513806
2.7389061
2.7599456
2.8295705
2.8954742
3.033252
3.1275657
3.1675044
63.824913
46.861263
37.652965
31.937218
28.515792
25.590419
24.36747
23.45929
23.618348
27.547822
36.195236
43.900002
67.410868
85.392218
87.658459
87.996587
79.133676
42.444607
16.996935
6.6537312
2.9048167
1.9465748
2.4583575
5.0465468
13.232757
14.015211
13.938844
13.523317
10.977679
10.416696
11.383105
12.138911
11.667508
9.8300442
7.7963405
8.2046052
8.137904
7.7361593
6.5354358
5.8150657
5.5109354
5.3761384
5.0703258
4.3242865
4.0567338
3.963005
3.754341
3.5141883
3.3339281
3.2038691
3.1260848
3.0552179
2.9954791
2.9649875
2.9682971
3.0061861
3.1043994
3.1943745
3.3528133
3.4513092
3.501775
5.4188942
5.306861
5.0950771
4.3868975
4.0690734
3.9949186
3.833785
3.6048154
3.4344107
3.315681
3.251143
3.1982454
3.165584
3.1618542
3.1762474
3.2353797
3.3580695
3.4702028
3.6438653
3.7439677
3.8050887
1.3112618
1.0193834
6.4912232
5.1097788
3.30081
2.3773551
1.8766764
1.5137444
1.3315793
1.02087
7.8998488
5.672515
4.5834533
2.9999786
2.2855122
1.8819798
1.5376275
1.3755033
1.0402142
6.6198181
5.0914305
4.2377706
2.7951015
2.2492003
1.906282
1.5960006
1.4054256
1.057968
5.6041191
4.3900161
3.6757495
2.6291617
2.2689204
1.9402722
1.6418263
1.4357524
1.0655628
4.6557824
3.691809
3.1710336
2.5456704
2.3276116
2.0319923
1.7107658
1.4850487
1.1038851
3.8982056
3.1909486
2.8499011
2.5664293
2.5446795
2.03865
1.7536211
1.4962691
1.092962
3.3613456
2.9404457
2.6674873
2.5601609
2.4922301
2.0171334
1.8186405
1.4785108
1.0568845
3.0988721
2.8265126
2.6766954
2.5100659
2.4287117
1.9988388
1.9561088
1.4143452
1.0277753
3.1458216
2.9947978
2.776234
2.6168362
2.3639059
1.9967843
1.9020831
1.2734227
1.0160777
3.1986659
3.0465271
2.7332268
2.6302361
2.1458034
1.9783813
1.8130564
1.1839509
0.98513534
3.8171876
3.6016603
2.9910369
2.5563181
2.1985813
1.8534598
1.7310142
1.1058413
0.91747548
6.8792007
6.8280093
4.7194786
3.5128689
2.5150444
1.8946626
1.6424697
1.0962988
0.87095486
20.406606
19.797341
11.298554
7.8052341
4.8231198
2.7878502
1.7494164
1.1568878
0.87580046
37.484727
36.598087
33.381693
24.931415
13.446757
6.7871204
3.5737685
2.0085859
1.2375253
29.056208
31.754942
34.082935
34.620549
31.880637
21.882193
10.296912
5.4455376
2.9583651
21.036613
22.106285
24.949205
29.747296
32.908658
33.423444
28.816837
18.370578
9.146335
16.25971
16.844108
17.483281
19.056615
24.352429
32.180022
35.366643
33.829734
28.521119
11.565698
12.227607
12.968263
14.090417
16.79146
23.441134
33.356172
40.746767
42.592814
9.476823
10.165071
10.907946
12.95185
14.983517
18.356732
26.822854
40.574035
49.582201
9.4412937
10.191841
10.765986
12.400727
14.090552
17.694673
23.285895
33.894678
47.368865
10.186513
10.720067
11.235145
12.220868
14.30626
16.361233
19.022189
24.52111
35.239848
13.009718
12.82248
12.876516
13.308919
14.342637
15.870984
18.557093
23.364237
31.952407
18.238526
18.365517
18.064854
17.142215
16.90198
17.85856
20.083642
25.138091
35.109248
23.805034
24.354057
24.33275
24.026176
23.666732
24.448121
27.67162
33.575356
40.10272
25.874044
26.04159
26.36045
26.655121
27.483149
28.909946
31.214137
33.819384
36.189149
25.323849
25.281019
25.57495
25.689529
26.099775
26.236796
25.467807
23.348821
19.145816
20.376895
19.859658
19.672749
18.559137
17.811501
15.378605
13.178799
11.006055
8.8948432
12.114849
11.712713
11.468632
11.081458
10.791393
10.329428
9.8728495
9.1812452
8.3379056
9.2749953
8.9945436
8.6605541
8.4088661
8.2346762
8.1461211
8.2006303
8.4768929
8.6841988
9.5387472
9.2667414
8.964816
8.550967
8.2145127
8.0205542
8.1147119
8.5173939
9.1445017
9.3824971
9.2481217
9.1037161
8.8667414
8.7203054
8.7119399
9.0814221
9.9554676
11.309978
8.2068973
8.2528075
8.3694329
8.5473347
9.0443708
10.051141
11.18583
12.759455
14.550588
7.9260709
8.1501072
8.3303686
8.540224
9.0373396
9.8800632
10.863175
12.226942
13.654839
7.9722092
8.0640289
8.1634134
8.3198853
8.6520063
9.1535435
9.8251003
10.873602
12.191732
8.7129528
8.7718044
8.8508215
8.9452193
9.1144947
9.3401016
9.6827034
10.196536
10.437633
8.8998927
8.9180773
9.075891
9.1769466
9.2708749
9.3009496
9.2317814
8.5821701
7.8763387
7.2573384
7.2791669
7.4538451
7.6083838
7.7638611
7.8163605
7.5971138
7.2131829
6.841136
5.5893816
5.6485522
5.7801798
5.9775891
6.2542567
6.5921958
6.9430934
7.2246552
7.2540436
5.2490419
5.3476281
5.5058708
5.7331562
6.0316884
6.3982736
6.848693
7.3017426
7.610635
5.3510831
5.5305914
5.7780601
6.0506024
6.3119817
6.5293416
6.7632788
7.112374
7.339675
5.7828393
5.9996481
6.2482608
6.4621458
6.5831693
6.5934996
6.5923938
6.4661657
6.3334662
5.7221138
5.9259063
6.1696138
6.3560273
6.4519746
6.3776427
5.9955023
5.5634012
5.1275284
5.1005204
5.3024319
5.5521259
5.7965894
5.909889
5.8647586
5.6288221
5.2533516
4.799627
4.8383925
5.0465383
5.2901745
5.5190436
5.6557997
5.6585182
5.5075372
5.1787604
4.7520156
4.9301644
5.1333392
5.3552464
5.5431579
5.6219076
5.5603859
5.319271
4.974455
4.5754378
5.0382991
5.2338051
5.4284302
5.5586991
5.5765527
5.4147528
5.0547994
4.6091329
4.1461676
5.0078653
5.1937829
5.3681708
5.465661
5.4196152
5.1617694
4.7740026
4.3092865
3.8348418
4.9612624
5.1360072
5.2861738
5.3477273
5.2626785
4.9995645
4.5953812
4.1179275
3.6390704
4.9585148
5.1198007
5.2457717
5.2833493
5.1663177
4.8739201
4.4506061
3.9685566
3.4952278
5.0003624
5.1374862
5.2341955
5.2359715
5.0936673
4.7950601
4.368752
3.8838224
3.4114364
5.073637
5.1760531
5.2321181
5.1997437
5.0391342
4.7180702
4.2720751
3.7767567
3.3005604
5.1372551
5.213721
5.2387204
5.1698244
4.9528067
4.5848689
4.1201915
3.6272101
3.1634976
5.127452
5.1839568
5.1819903
5.068685
4.8181901
4.446345
3.9936286
3.5197572
3.0766941
5.1091872
5.1534554
5.1403248
5.025704
4.7811675
4.4136982
3.966557
3.499739
3.0644478
5.0967664
5.1279889
5.1018735
4.9788735
4.733134
4.3711238
3.9338741
3.4784829
3.0539645
5.0626071
5.074221
5.0239253
4.8788856
4.6225317
4.2653807
3.8457329
3.4140498
3.0130468
4.9746733
4.9783263
4.923636
4.7810137
4.5305062
4.1832564
3.7771529
3.3604672
2.9736632
4.6746113
4.6632515
4.6001384
4.4587429
4.2274852
3.9148984
3.5521437
3.1798452
2.8329188
0.93540261
0.75883069
0.46649875
0.41760803
1.5094915
5.5015668
0.93408372
0.75477672
0.48060107
0.46531272
1.6465174
4.9531695
0.9500519
0.75012511
0.49697965
0.51508876
1.7250705
4.3175575
0.96182935
0.73885426
0.51214385
0.56798973
1.7446153
3.5987847
0.96130006
0.70892845
0.5259853
0.61835077
1.7367379
3.1818449
0.99270273
0.69582173
0.54540946
0.65892425
1.6659467
2.7396138
0.96141567
0.64414168
0.54598385
0.69433532
1.6216092
2.7540117
0.90967794
0.62145735
0.54907917
0.72535183
1.5937245
2.8918377
0.84699552
0.61063901
0.55182567
0.72317625
1.5150054
3.2695832
0.76423996
0.5888905
0.54178266
0.69707646
1.4530665
3.8915851
0.66387672
0.55272956
0.52530433
0.64742347
1.3880652
4.8034416
0.60365472
0.50923939
0.48438629
0.57248769
1.3243188
6.0640945
0.60710625
0.4546019
0.40472958
0.4694565
1.1988851
6.9530271
0.64933956
0.4534249
0.36526745
0.3827971
1.0118077
7.2339682
0.77993522
0.50465158
0.3779689
0.34519975
0.86101571
7.2954436
1.7485723
0.98772606
0.56307769
0.38379533
0.74887649
7.034253
5.4514294
2.8902957
1.3844869
0.65092879
0.84403216
6.3793185
18.722033
9.7746433
4.6526544
1.7636765
1.273357
5.54987
39.688958
30.836831
16.45618
5.8906182
2.2959125
3.9204106
51.183188
45.568214
30.358766
14.33329
5.6944905
3.7121904
54.052622
54.370941
48.609356
35.729079
16.471291
5.7088339
49.245861
60.387166
64.557538
60.189206
45.404457
11.418293
45.911974
59.82079
65.011271
61.764578
48.216181
16.910682
46.881987
56.950344
60.346606
56.176109
42.109333
16.047942
45.90429
50.266103
47.47433
38.975713
24.75053
13.97685
35.744851
29.842833
24.048663
17.347945
10.809118
8.1975852
14.895836
11.813611
8.8920118
6.1181094
3.8812704
2.9368426
7.3297907
6.0585887
4.8991336
3.782319
2.554272
2.10932
7.4583266
6.4791732
5.6486564
5.2361156
4.283251
2.7815519
8.7453998
8.5274307
7.9775792
7.1478279
6.5728919
6.2639539
9.946457
11.005716
11.941363
11.920528
10.84238
9.3798174
13.394876
15.982025
17.735599
17.876726
15.840708
9.5618162
16.72966
19.214615
20.650413
20.217321
16.591192
7.8680317
15.555361
17.80786
19.181432
18.650888
15.047369
5.2565831
13.598431
14.737322
15.091195
14.00207
10.391112
4.5175134
10.457515
10.26128
9.5119587
7.9266065
5.1440933
2.9458677
7.2109856
6.4260269
5.3425437
3.9512619
2.1792408
1.0570703
6.3177947
5.6103115
4.6574081
3.4473308
1.9534837
0.97810584
7.0912311
6.6871294
5.9740364
4.8687799
3.2643039
1.2094923
7.688706
7.4955119
6.9505625
5.8581317
3.8965066
1.1266295
7.3751181
7.1585635
6.6507781
5.5753384
3.5476091
0.66794313
6.1351374
5.755747
5.0262003
3.8913456
2.1212323
0.23856481
4.6558388
4.0940215
3.3792764
2.4446145
1.1781032
0.13767747
4.3010859
3.7227514
3.0339439
2.1789963
1.0477632
0.14433512
4.2731162
3.7077332
3.0321603
2.1920617
1.0692314
0.14957906
4.1257741
3.5884403
2.9409741
2.1284075
1.0272561
0.12956928
3.674529
3.1458634
2.5368199
1.794872
0.80709439
0.10091967
3.3573498
2.8351784
2.2518675
1.5630035
0.67425362
0.088340181
3.1642001
2.6524458
2.0913389
1.4405385
0.61314305
0.0849442
3.0308918
2.5341588
1.9945712
1.3733303
0.58283631
0.08212596
2.9507435
2.4605632
1.9326325
1.3292356
0.55872016
0.078085631
2.8394312
2.3521622
1.8326675
1.244286
0.50584919
0.073441585
2.7176727
2.2477798
1.7492845
1.1882558
0.48092515
0.072178666
2.6506116
2.2007152
1.724208
1.186835
0.48807151
0.077200092
2.6449448
2.2000622
1.7272704
1.194704
0.50499743
0.084105526
2.6431546
2.2055198
1.7408594
1.2143178
0.52099151
0.09095867
2.6224832
2.2006063
1.7505485
1.2445918
0.56370249
0.10441049
2.5953627
2.1853726
1.7472273
1.2520743
0.5798279
0.11269113
2.4898581
2.113155
1.7082268
1.245187
0.60572067
0.12604946
)
;

boundaryField
{
    Side1
    {
        type            empty;
    }
    Inlet
    {
        type            inletOutlet;
        inletValue      nonuniform List<scalar> 0();
        value           nonuniform List<scalar> 0();
    }
    Side2
    {
        type            empty;
    }
    Outlet
    {
        type            zeroGradient;
    }
    Botwall
    {
        type            kqRWallFunction;
        value           nonuniform List<scalar> 
59
(
5.5015668
4.9531695
4.3175575
3.5987847
3.1818449
2.7396138
2.7540117
2.8918377
3.2695832
3.8915851
4.8034416
6.0640945
6.9530271
7.2339682
7.2954436
7.034253
6.3793185
5.54987
3.9204106
3.7121904
5.7088339
11.418293
16.910682
16.047942
13.97685
8.1975852
2.9368426
2.10932
2.7815519
6.2639539
9.3798174
9.5618162
7.8680317
5.2565831
4.5175134
2.9458677
1.0570703
0.97810584
1.2094923
1.1266295
0.66794313
0.23856481
0.13767747
0.14433512
0.14957906
0.12956928
0.10091967
0.088340181
0.0849442
0.08212596
0.078085631
0.073441585
0.072178666
0.077200092
0.084105526
0.09095867
0.10441049
0.11269113
0.12604946
)
;
    }
    Cyli
    {
        type            kqRWallFunction;
        value           nonuniform List<scalar> 0();
    }
    procBoundary1to0
    {
        type            processor;
        value           nonuniform List<scalar> 
44
(
13.047984
9.3146017
14.188996
14.188996
20.586834
20.586834
60.989099
71.676221
71.676221
59.773724
59.773724
73.505346
93.677216
98.213616
98.213616
68.782847
50.345068
40.243054
35.420068
34.102305
33.277768
36.022441
33.277768
46.539809
65.019612
71.531359
71.531359
1.2707812
1.0052271
7.3228345
5.4972114
3.5973218
2.4871646
1.8879667
1.4862345
1.4862345
9.3146017
9.3146017
0.91872633
0.75658635
0.45373687
0.37756265
1.4085709
6.0301647
)
;
    }
    procBoundary1to3
    {
        type            processor;
        value           nonuniform List<scalar> 
62
(
83.814554
85.001726
74.922374
59.496932
46.182594
38.641628
33.962666
31.572538
30.866823
33.795388
40.261759
49.084273
75.143506
91.754454
95.617673
94.859908
82.145309
40.731253
15.913384
6.1206212
2.7021129
1.7311024
2.0353759
3.9433181
11.721569
13.741285
13.283466
12.484644
10.64168
10.299621
11.353018
12.011966
11.573235
9.8434849
7.6660695
8.1620993
8.1009906
7.7080016
6.5484156
5.8023425
5.8023425
5.344159
5.2473459
5.0874884
4.4599222
4.0883551
4.025038
3.9065284
3.6870712
3.526018
3.4175671
3.3626009
3.3277029
3.32252
3.3329913
3.3630873
3.4439709
3.584915
3.715884
3.9000314
3.9994457
4.0709015
)
;
    }
}


// ************************************************************************* //
