/*--------------------------------*- C++ -*----------------------------------*\
| =========                 |                                                 |
| \\      /  F ield         | OpenFOAM: The Open Source CFD Toolbox           |
|  \\    /   O peration     | Version:  2406                                  |
|   \\  /    A nd           | Website:  www.openfoam.com                      |
|    \\/     M anipulation  |                                                 |
\*---------------------------------------------------------------------------*/
FoamFile
{
    version     2.0;
    format      ascii;
    arch        "LSB;label=32;scalar=64";
    class       volScalarField;
    location    "0.065";
    object      alphat;
}
// * * * * * * * * * * * * * * * * * * * * * * * * * * * * * * * * * * * * * //

dimensions      [1 -1 -1 0 0 0 0];

internalField   nonuniform List<scalar> 
8260
(
0.040009867
0.045372804
0.051676803
0.058796581
0.066569673
0.07482303
0.083337294
0.091816765
0.099860924
0.10689582
0.11211235
0.11439232
0.11222065
0.10370378
0.086788782
0.060533407
0.032045463
0.014918081
0.0096661268
0.0080223779
0.0070659524
0.0064670765
0.0060181471
0.005661501
0.0054173191
0.005246739
0.0051352608
0.0050558281
0.0050007962
0.0049635747
0.0049439664
0.047359775
0.052883217
0.058944808
0.065613334
0.072847329
0.080516188
0.088412248
0.096239591
0.10358971
0.10988072
0.11427438
0.11563061
0.11241601
0.1027488
0.084630461
0.057656526
0.029290814
0.014047079
0.0093960684
0.0079234015
0.0070154592
0.0064356823
0.0059985779
0.0056479868
0.0054093267
0.0052419409
0.0051323571
0.0050540105
0.0049996543
0.0049628014
0.0049434513
0.055780845
0.061095692
0.066852573
0.073089608
0.079783585
0.086829988
0.094039215
0.10112373
0.10767039
0.11308341
0.11651193
0.11679094
0.1123704
0.10138911
0.081939038
0.05416604
0.026569071
0.013131259
0.0092020203
0.0078707756
0.0069888544
0.006419251
0.0059883102
0.0056409366
0.0054051059
0.0052393377
0.0051307336
0.0050528064
0.0049987814
0.0049620992
0.0049428869
0.065382113
0.070265159
0.075577431
0.081297455
0.087386823
0.093741648
0.10017834
0.10641315
0.11202915
0.11641963
0.11871987
0.11774404
0.11192929
0.099446957
0.078529895
0.049976469
0.023750002
0.012329856
0.009037283
0.0077876167
0.0069436491
0.0063902627
0.0059696336
0.0056281043
0.005397322
0.0052344322
0.0051276424
0.0050507893
0.0049974685
0.0049611649
0.0049422449
0.076159275
0.080444469
0.085187132
0.090274112
0.095653494
0.10121323
0.10676548
0.11202259
0.11656022
0.11976069
0.12074484
0.11830959
0.11088607
0.096695097
0.074180936
0.045000415
0.020900776
0.011555769
0.0088545022
0.0077119877
0.0069041852
0.006365098
0.0059533281
0.0056172399
0.0053908404
0.0052303259
0.0051250958
0.0050489914
0.0049962237
0.0049602052
0.0049415141
0.087905234
0.091522354
0.095580787
0.099916527
0.10446565
0.1091058
0.11363974
0.11777008
0.12106047
0.12287992
0.12233533
0.1182097
0.10893987
0.092821253
0.068613558
0.039195854
0.018351495
0.01084177
0.0086809522
0.0076192253
0.0068530107
0.0063313158
0.0059310445
0.0056022432
0.0053817389
0.0052244806
0.0051214577
0.0050465537
0.0049946146
0.0049590305
0.0049406813
0.10025108
0.10315867
0.10644437
0.10992565
0.11352725
0.11711646
0.12048494
0.12332248
0.12517775
0.12540437
0.12309581
0.11702604
0.10565813
0.087399411
0.061492802
0.032650843
0.015943001
0.010190307
0.0085004964
0.0075258346
0.0068027492
0.006297825
0.0059087543
0.0055877303
0.005373001
0.0052188041
0.0051179895
0.0050441179
0.0049929542
0.0049577639
0.0049397332
0.11259205
0.11475945
0.11720366
0.11974206
0.12228783
0.12469701
0.12674882
0.12811849
0.12833825
0.12674567
0.12242238
0.11414122
0.10042907
0.079861831
0.052470419
0.025726334
0.013743107
0.0096570321
0.0083237685
0.0074194728
0.0067424651
0.0062564282
0.0058810789
0.0055696262
0.0053618781
0.0052115061
0.0051135345
0.0050410739
0.0049909307
0.0049562622
0.0049386545
0.12397162
0.12537189
0.12691685
0.12843685
0.12983057
0.13094007
0.13152995
0.13125915
0.12964269
0.12600329
0.11941496
0.10866167
0.092406069
0.069492136
0.04137376
0.020146146
0.011945962
0.0092990834
0.0081409881
0.0073106
0.0066800828
0.0062129616
0.0058522188
0.0055512578
0.0053504814
0.0052039852
0.0051090072
0.0050378788
0.0049887646
0.0049546052
0.0049374282
0.13288897
0.13351396
0.13411284
0.1345533
0.13471631
0.13442564
0.13342781
0.13136302
0.1277294
0.12183944
0.11276938
0.099330817
0.080459836
0.055530163
0.028827844
0.015701998
0.010571948
0.0089209468
0.007951627
0.0071912834
0.0066065583
0.0061609087
0.0058181693
0.0055293562
0.0053364632
0.0051947829
0.0051034486
0.0050340218
0.0049861912
0.004952666
0.0049360325
0.13708664
0.13694866
0.13659006
0.13591881
0.13479887
0.13303775
0.1303614
0.12638997
0.12060908
0.11233483
0.10067038
0.084466616
0.063268273
0.037638807
0.019869575
0.012537646
0.0098404251
0.0086363395
0.0077585164
0.0070689877
0.0065287065
0.0061053149
0.0057824454
0.0055064359
0.005321382
0.0051851165
0.0050976029
0.0050298628
0.0049833757
0.0049505044
0.0049344386
0.13327827
0.13235669
0.13106322
0.12930195
0.12691591
0.12368817
0.11932107
0.11341976
0.10547657
0.094854035
0.080760481
0.062002558
0.039884535
0.023043412
0.014240866
0.010472575
0.0093059839
0.0082902964
0.0075613371
0.0069268074
0.0064387461
0.0060420033
0.0057408792
0.0054791272
0.0053030171
0.0051736679
0.00509057
0.0050249401
0.0049800569
0.0049480051
0.0049320835
0.11681978
0.11525114
0.11312761
0.11035526
0.10677184
0.10214558
0.096158647
0.088434124
0.078548089
0.066071431
0.050958663
0.036258263
0.023403248
0.015016999
0.011071754
0.0096761319
0.0088255432
0.0080373538
0.0073415402
0.0067887097
0.0063436592
0.0059696947
0.005696685
0.0054495166
0.0052830308
0.005161626
0.0050830155
0.0050196235
0.0049763738
0.0049452284
0.004929461
0.082247719
0.0800534
0.077367032
0.074228159
0.07049024
0.065967577
0.06046413
0.053911635
0.04627487
0.037634573
0.028524641
0.02023174
0.014336378
0.011186693
0.0097336578
0.0090041592
0.0084184895
0.0076939063
0.007131084
0.0066258187
0.006231701
0.0058913252
0.0056418673
0.0054152262
0.0052596236
0.0051476544
0.0050740907
0.0050135402
0.0049720803
0.0049420664
0.0049265725
0.046323401
0.044927596
0.043204543
0.041154748
0.038636132
0.035581011
0.032195001
0.028433575
0.024319089
0.019970642
0.015762197
0.012412512
0.010464414
0.0095596686
0.0091498676
0.0085420829
0.0078834495
0.007421523
0.0068792127
0.0064582766
0.0061146188
0.0057973027
0.0055868652
0.0053779193
0.0052345754
0.0051328785
0.0050646914
0.0050071516
0.0049673618
0.0049385778
0.0049234896
0.022938054
0.022439234
0.02170276
0.020769612
0.019612034
0.018229139
0.016691507
0.015034497
0.013314393
0.011666662
0.010204195
0.0092824511
0.0088658571
0.0089352901
0.0082911324
0.0078100368
0.0074574645
0.0070497128
0.0066401289
0.0062638306
0.0059712641
0.0057057809
0.0055166317
0.0053366255
0.0052074481
0.0051163818
0.005053651
0.0050000189
0.0049620616
0.0049346389
0.0049203398
0.012185025
0.012065329
0.011819671
0.011476055
0.01105108
0.010569643
0.010056992
0.0095059001
0.0089088856
0.0084808717
0.0082801304
0.008171426
0.0082907172
0.0079036175
0.007793722
0.0074309632
0.0068010411
0.0066136718
0.0063311359
0.0060533107
0.0058258894
0.0055997314
0.0054460929
0.0052908923
0.005179993
0.0050996387
0.0050424365
0.0049927219
0.0049563436
0.0049302891
0.0049163938
0.0082416239
0.0082135214
0.0081384896
0.008033552
0.007896645
0.0077581904
0.0076389578
0.0075284766
0.007469421
0.007487213
0.007587451
0.0074635938
0.0070147567
0.0069830511
0.0069042849
0.0066971074
0.0064854306
0.0062102944
0.0060638101
0.0058157188
0.0056441496
0.0054907583
0.0053643882
0.0052441111
0.005152612
0.0050811913
0.0050290338
0.0049843002
0.0049501769
0.0049254062
0.0049123956
0.006955137
0.0069100608
0.0068755778
0.0068586744
0.0068575509
0.00685591
0.0068719237
0.0068377052
0.0068002501
0.0067541148
0.0066139599
0.0065142728
0.0065083761
0.0063051291
0.0062206447
0.0062688149
0.0061193305
0.0058851813
0.0057600071
0.0056229367
0.0054656319
0.0053791619
0.0052868405
0.0051964412
0.0051236047
0.0050615168
0.0050162725
0.0049756151
0.0049435687
0.0049200767
0.0049075062
0.0063794876
0.0063757363
0.0063672902
0.0063550336
0.0063589632
0.0063745018
0.0063624834
0.0063402946
0.0062826842
0.0061592818
0.0061186488
0.0060633207
0.0059325473
0.0059066417
0.0058449406
0.0057810255
0.0057544465
0.0056900005
0.0055925493
0.0054706662
0.0053435955
0.0052803813
0.0052100637
0.0051511169
0.0050909453
0.0050417424
0.0050021459
0.0049654013
0.0049364532
0.0049142577
0.004902746
0.0059635794
0.0059606079
0.0059538647
0.0059368229
0.0059063889
0.0058609843
0.0058416936
0.0058293824
0.0058136043
0.0058111565
0.0057907529
0.0057642462
0.0056909596
0.0056483683
0.005645053
0.0055623761
0.0054945175
0.0054607039
0.0054254893
0.0053819728
0.0052758667
0.0052098942
0.0051584276
0.0051051867
0.0050634953
0.0050231898
0.0049891512
0.0049555316
0.0049285155
0.0049080936
0.0048971717
0.0055662248
0.005566759
0.0055643096
0.0055584747
0.0055526165
0.0055564039
0.0055628191
0.0055583467
0.0055493063
0.0055258619
0.0054991686
0.0054721865
0.0054993386
0.0054512787
0.005437577
0.0054278619
0.0053702358
0.00529773
0.005254749
0.0052482712
0.0052343441
0.0051703951
0.0051100731
0.0050716227
0.0050392042
0.0050062548
0.0049745741
0.0049443269
0.0049201102
0.0049014242
0.0048918823
0.0053546906
0.0053550027
0.0053527979
0.0053474318
0.0053391833
0.0053262551
0.0053091502
0.0052987712
0.00529308
0.0052883232
0.0052822386
0.0052804755
0.00526861
0.0052896315
0.0052734098
0.0052601602
0.0052721739
0.0052186413
0.0051624164
0.0051334067
0.0051533682
0.0051348842
0.0050797408
0.0050511957
0.0050200985
0.0049912732
0.0049602982
0.0049342593
0.0049109556
0.0048943981
0.0048857625
0.0051527822
0.0051540819
0.0051535845
0.0051518304
0.0051498838
0.0051484751
0.0051496729
0.0051544967
0.0051590227
0.0051603625
0.0051613926
0.0051611914
0.0051555154
0.0051355339
0.0051293783
0.0051236715
0.0051119756
0.005112264
0.0050990385
0.0050721665
0.0050651613
0.0050734412
0.0050458279
0.0050257912
0.0050034524
0.0049732961
0.0049435064
0.0049212904
0.0049014273
0.0048873825
0.0048803718
0.0050497751
0.0050516631
0.0050520271
0.0050513892
0.0050501483
0.0050482351
0.0050452029
0.0050413444
0.005038236
0.005038613
0.005041796
0.0050454972
0.0050513846
0.0050608125
0.0050489239
0.0050444661
0.0050335378
0.0050273282
0.0050348367
0.0050419652
0.0050299303
0.005009745
0.0050051561
0.0049966585
0.004971469
0.0049522384
0.0049257708
0.0049096598
0.0048920052
0.0048803011
0.0048738992
0.0049522533
0.0049532726
0.0049536177
0.004953699
0.0049540006
0.0049546711
0.0049557012
0.0049573181
0.0049611083
0.0049674726
0.0049739312
0.0049787903
0.0049798532
0.0049760406
0.0049741553
0.0049657451
0.0049730671
0.004983478
0.0049783054
0.0049915891
0.0049901054
0.004973994
0.0049556395
0.0049414657
0.0049327402
0.0049252563
0.0049073754
0.0048961066
0.0048829343
0.0048734779
0.0048677705
0.0049104794
0.0049112973
0.0049116366
0.004911767
0.0049119553
0.0049122389
0.0049125559
0.0049128553
0.0049131175
0.0049132934
0.0049132465
0.0049138958
0.0049154902
0.0049164388
0.0049171981
0.0049188267
0.0049220964
0.0049218102
0.0049312904
0.0049215466
0.0049230998
0.0049183606
0.0049181011
0.0049102413
0.004905967
0.0048995316
0.0048954797
0.0048830525
0.0048745741
0.0048677983
0.00486377
0.0048860631
0.0048864897
0.004886668
0.0048867566
0.0048868821
0.0048870727
0.0048873636
0.004887789
0.0048882948
0.0048889113
0.0048896883
0.0048910485
0.0048932264
0.0048952131
0.0048962645
0.004896264
0.0048974531
0.0048973191
0.0048977741
0.0048966175
0.004896453
0.0048949671
0.0048943435
0.0048927973
0.0048906751
0.0048862556
0.0048815679
0.0048755633
0.0048695289
0.004864501
0.004861909
0.0048736002
0.0048738022
0.0048739003
0.004873993
0.004874149
0.004874381
0.0048747144
0.0048751552
0.0048756477
0.0048762798
0.004877219
0.004878336
0.0048798397
0.0048807378
0.0048821286
0.0048837309
0.0048839608
0.0048846668
0.0048842284
0.0048855839
0.0048838232
0.0048850285
0.0048823823
0.0048815502
0.0048808377
0.0048778385
0.0048745984
0.0048706232
0.0048663969
0.0048622317
0.0048581527
0.0048664483
0.0048666048
0.0048667446
0.0048669152
0.0048671348
0.0048673882
0.0048675917
0.0048676409
0.0048676855
0.0048678671
0.0048686367
0.0048699878
0.0048710568
0.0048711574
0.0048711663
0.0048714555
0.004872181
0.0048731571
0.0048740511
0.0048750327
0.0048747962
0.0048748385
0.0048750328
0.0048739343
0.0048737233
0.0048724016
0.0048706139
0.0048681006
0.004862515
0.0048584865
0.0048586005
0.0048595085
0.0048596322
0.0048598009
0.0048600218
0.0048603162
0.0048607067
0.0048612173
0.0048618737
0.0048626944
0.0048636661
0.0048646878
0.0048661032
0.004866616
0.0048669362
0.0048667403
0.0048665288
0.0048663835
0.0048664189
0.004867573
0.0048678674
0.0048695848
0.0048675221
0.004870135
0.0048695845
0.0048692078
0.0048685498
0.0048673744
0.0048643071
0.004862563
0.0048616688
0.004859983
0.0008457417
0.0018340113
0.0036957306
0.0065089102
0.01024596
0.014997406
0.020861211
0.027892556
0.036209628
0.045240272
0.055153237
0.065502839
0.075502462
0.083916234
0.088882928
0.087758561
0.077249729
0.056299143
0.031903851
0.015552684
0.0091520787
0.0072202647
0.0064271584
0.0059433531
0.0055963184
0.0053631756
0.0052061711
0.0051041421
0.0050332698
0.0049872447
0.0049632377
0.002068892
0.0042009777
0.0070509503
0.010459293
0.014621058
0.019669031
0.025672579
0.032959347
0.041039392
0.050008176
0.059723974
0.069674972
0.079021755
0.086465077
0.090085383
0.087210517
0.07467075
0.052256958
0.028123724
0.013806471
0.0086576027
0.0070718844
0.0063665566
0.0059085918
0.0055753572
0.0053510149
0.0051995646
0.0051004617
0.0050311962
0.0049860404
0.0049626517
0.003872914
0.0062127327
0.0090954414
0.012703127
0.017184141
0.022636208
0.029169737
0.036677378
0.044981234
0.054085349
0.063721071
0.07334644
0.082084304
0.088585437
0.09088635
0.086309673
0.071875571
0.048389781
0.02520403
0.012640986
0.0082936001
0.0070069168
0.0063386371
0.0058919514
0.0055650943
0.0053444503
0.0051957947
0.0050980774
0.0050296835
0.0049850363
0.0049619784
0.0056703883
0.0082299542
0.011466114
0.015471889
0.020294672
0.026054843
0.032864307
0.040419628
0.048838538
0.057965649
0.067454757
0.076716932
0.084823284
0.090370993
0.091357478
0.085116222
0.068910542
0.044695043
0.022651004
0.011564959
0.0080909347
0.0069272752
0.0062959263
0.0058652217
0.0055484877
0.0053344912
0.0051902848
0.0050948785
0.0050278224
0.0049839027
0.0049612373
0.0074119209
0.010330632
0.013918919
0.018230267
0.02335883
0.029434469
0.036326263
0.044061978
0.052587737
0.061691654
0.070989095
0.079849888
0.087295131
0.091871799
0.091544947
0.083673418
0.06582104
0.041149225
0.02039082
0.010844556
0.0078844814
0.0068710847
0.0062677711
0.0058476274
0.005537614
0.0053276681
0.0051863972
0.0050924198
0.0050262793
0.0049828766
0.0049604603
0.0092652931
0.01248785
0.016352773
0.020937969
0.026407417
0.032698667
0.039769264
0.047659152
0.056244902
0.065280776
0.074347286
0.082772574
0.089529831
0.093120344
0.091483622
0.082013479
0.06265346
0.037759057
0.018412559
0.010140733
0.0077469327
0.0068142189
0.0062338639
0.0058257011
0.0055238654
0.0053192488
0.0051816639
0.0050895526
0.0050245602
0.0049817821
0.0049596723
0.011060397
0.014570106
0.018735134
0.023654981
0.029394123
0.035882396
0.043161324
0.051181497
0.05979535
0.068731226
0.077536369
0.085498897
0.091547426
0.094142464
0.09120402
0.080177381
0.059453081
0.034580616
0.016723947
0.0096645103
0.0076201486
0.0067677133
0.0062076157
0.0058088055
0.0055133726
0.0053126552
0.0051778893
0.0050871242
0.00502303
0.0049807497
0.0049588749
0.012798081
0.016625889
0.021105347
0.026372197
0.032324092
0.03903445
0.046491315
0.054613325
0.06322921
0.07203975
0.080559584
0.088038899
0.093365108
0.094962711
0.090736815
0.078204989
0.056259322
0.03165199
0.015341855
0.0092532087
0.0075253087
0.0067237027
0.0061797852
0.0057903935
0.0055017856
0.0053054208
0.0051737585
0.0050845167
0.0050214212
0.004979684
0.0049580738
0.014533189
0.01865993
0.023459256
0.028994042
0.035190048
0.042118472
0.049736634
0.057941167
0.066538512
0.075203429
0.083419819
0.090402252
0.095000302
0.095607593
0.090122145
0.076135354
0.053133902
0.029006049
0.014188295
0.0089591794
0.007440094
0.006685556
0.0061564507
0.0057749931
0.0054921882
0.0052993171
0.0051702256
0.0050821847
0.0050199307
0.0049786561
0.0049572684
0.016210241
0.020641775
0.025765961
0.031535337
0.037987269
0.045123921
0.052886988
0.061156134
0.069717235
0.078220552
0.086120998
0.09259974
0.096471826
0.096103548
0.089399002
0.074019489
0.05010512
0.026658974
0.013288406
0.0087340614
0.0073711159
0.0066504441
0.0061334186
0.0057594248
0.0054823892
0.0052930676
0.005166596
0.0050797995
0.0050184146
0.0049776146
0.0049564601
0.017872384
0.022599885
0.028004923
0.034019381
0.040715989
0.048042166
0.055932861
0.064250272
0.072760567
0.081090762
0.088668532
0.094643818
0.097800446
0.096479444
0.088599525
0.071898409
0.047215315
0.024618396
0.012528104
0.0085539268
0.0073096028
0.0066194287
0.0061134632
0.0057458668
0.0054739283
0.0052875829
0.0051633687
0.0050776034
0.0050169788
0.004976598
0.0049556488
0.019490695
0.024516022
0.030168703
0.036440079
0.043363001
0.0508613
0.058864962
0.067216516
0.075664875
0.083815101
0.091069465
0.096548546
0.099007111
0.096767158
0.087757977
0.069813773
0.04450697
0.02288234
0.011951295
0.0084150159
0.0072579551
0.0065913652
0.0060946873
0.0057327764
0.0054657022
0.005282207
0.0051601788
0.005075423
0.0050155464
0.0049755789
0.0049548351
0.021084004
0.026381115
0.032276
0.038788309
0.045906922
0.053571044
0.061674342
0.07004895
0.078427876
0.086396098
0.093332366
0.098329177
0.10011317
0.096991282
0.086907451
0.067804989
0.042010964
0.021433698
0.011497224
0.0083046444
0.0072123872
0.0065665678
0.0060783637
0.0057211915
0.0054584686
0.0052774047
0.0051572839
0.0050733865
0.0050141739
0.0049745778
0.004954019
0.022648296
0.028190085
0.034322442
0.041054696
0.048343422
0.056165605
0.064352822
0.072741818
0.081048912
0.088838862
0.095467371
0.10000279
0.10114166
0.097180743
0.086082628
0.065900955
0.03975113
0.020253329
0.011173686
0.0082190464
0.0071737449
0.0065445195
0.0060636365
0.005710371
0.005451672
0.0052728425
0.005154493
0.0050714031
0.0050128208
0.00497358
0.004953201
0.024187703
0.029947341
0.036300907
0.04323471
0.050699165
0.058612563
0.066895918
0.075293097
0.083527462
0.091149017
0.097482984
0.10158367
0.10211855
0.09737232
0.08532794
0.064121905
0.037741565
0.019321944
0.010943952
0.008152387
0.0071404684
0.0065252911
0.0060510773
0.0057008067
0.0054456748
0.0052687541
0.0051519366
0.0050695398
0.0050115183
0.0049725978
0.0049523802
0.025683772
0.031648678
0.038202011
0.045315064
0.052931735
0.060962195
0.069271738
0.077690549
0.085856953
0.093318128
0.099387877
0.10308786
0.10306721
0.097598081
0.084684151
0.06250329
0.035992422
0.018628736
0.010775527
0.0080994439
0.0071126004
0.0065086249
0.0060402825
0.0056921523
0.0054401958
0.0052649706
0.0051495149
0.0050677489
0.0050102461
0.0049716243
0.0049515548
0.027089817
0.033254145
0.039992955
0.047269181
0.055019531
0.063148943
0.071506738
0.079893962
0.088006229
0.095348197
0.10118154
0.10452875
0.10400865
0.097887673
0.084187773
0.06111017
0.034552838
0.018043131
0.010602869
0.0080549053
0.0070894913
0.0064945222
0.0060314708
0.0056846389
0.0054354027
0.0052616053
0.0051472919
0.0050660646
0.00500902
0.0049706646
0.0049507251
0.028372065
0.034703419
0.041604406
0.049028584
0.056908451
0.065137365
0.073561269
0.081961743
0.090010071
0.09720874
0.10285961
0.10591719
0.10496237
0.098267818
0.083870442
0.059992894
0.033399117
0.017554346
0.010457823
0.0080214006
0.0070712819
0.0064828571
0.0060244142
0.005678113
0.0054311554
0.0052585713
0.0051452165
0.0050644622
0.0050078298
0.0049697156
0.0049498912
0.029719215
0.036126442
0.043115444
0.050636323
0.05860831
0.066917339
0.075400554
0.083827611
0.091855056
0.098972896
0.1044546
0.10723529
0.10594312
0.098761768
0.083759347
0.059189964
0.032511116
0.017142046
0.010324954
0.0079969995
0.0070576951
0.0064736467
0.0060191579
0.0056726906
0.0054275323
0.0052559206
0.0051433209
0.0050629591
0.0050066846
0.0049687802
0.0049490536
0.031060149
0.037517258
0.044551276
0.052120721
0.060144808
0.068505815
0.077033595
0.085488015
0.0935113
0.10058178
0.10595321
0.10855595
0.10696848
0.099359181
0.083875586
0.058729805
0.031877056
0.016790184
0.01020647
0.0079823914
0.0070488232
0.0064668996
0.0060155748
0.0056683264
0.0054244774
0.0052536109
0.0051415823
0.0050615431
0.00500558
0.0049678568
0.0049482126
0.032372641
0.038842429
0.045884458
0.053465451
0.061507211
0.069895719
0.078454753
0.086938067
0.094974012
0.10203239
0.10734733
0.10983616
0.10804814
0.1001456
0.084227067
0.05863297
0.031497588
0.016475969
0.010095412
0.0079770437
0.0070447352
0.0064627525
0.0060136904
0.0056651039
0.0054220407
0.0052516653
0.0051400175
0.0050602219
0.0050045199
0.0049669462
0.0049473681
0.033643597
0.040086279
0.047096777
0.054653463
0.06267951
0.071079662
0.079685897
0.088224334
0.096312836
0.1033828
0.10866583
0.11108865
0.10918191
0.10108529
0.084859807
0.058922321
0.0313926
0.016168935
0.0099873064
0.0079795783
0.0070453683
0.0064613376
0.0060134574
0.0056630158
0.0054201985
0.0052500525
0.0051386102
0.0050589837
0.0050034981
0.0049660453
0.00494652
0.03488473
0.041231217
0.048153774
0.055648319
0.063670972
0.072098943
0.080743999
0.089318462
0.097429932
0.10453664
0.10985511
0.11229384
0.110368
0.10218495
0.085757755
0.059626161
0.03156349
0.015820106
0.0098822098
0.0079897374
0.0070498916
0.0064621155
0.0060142373
0.0056620182
0.0054189298
0.0052487483
0.0051373514
0.0050578217
0.0050025104
0.0049651526
0.0049456682
0.036090666
0.042238505
0.04897316
0.056317246
0.064250445
0.072641823
0.081292281
0.089916593
0.098114067
0.10531899
0.11074104
0.11327304
0.11141025
0.10323638
0.086703291
0.060470519
0.032006855
0.015371144
0.0097743504
0.0080070252
0.007058209
0.0064645125
0.006016157
0.0056619006
0.0054181266
0.0052476829
0.00513621
0.0050567216
0.0050015514
0.0049642683
0.0049448125
0.00086530783
0.0017722381
0.0035256677
0.006186897
0.0097371675
0.014205056
0.019741516
0.026457235
0.034506412
0.04334821
0.05314829
0.063488517
0.073620561
0.082372958
0.087938082
0.087708653
0.078327634
0.058202639
0.033584941
0.016092575
0.0092927842
0.007260826
0.0064452008
0.0059547694
0.0056037146
0.005368318
0.0052091436
0.0051060151
0.005034461
0.0049880261
0.0049635601
0.00091761211
0.0018174507
0.0035422866
0.0061277311
0.0095828025
0.013977675
0.01943011
0.026038508
0.033947803
0.042701399
0.052351785
0.062569609
0.072675648
0.081504262
0.087282183
0.08743779
0.07865188
0.059079005
0.034473867
0.016464608
0.0093817025
0.0072847268
0.0064562754
0.0059621423
0.0056087087
0.0053715766
0.0052110647
0.0051072482
0.0050352732
0.0049886217
0.004963882
0.00098176407
0.0018679593
0.0035672148
0.0061040931
0.0094911973
0.013798443
0.019137959
0.025612787
0.033346714
0.041974701
0.051502057
0.0616278
0.071699352
0.080597113
0.086584786
0.087130061
0.078953487
0.059970112
0.035420294
0.016884149
0.0094798229
0.0073105692
0.0064681928
0.0059698467
0.0056137617
0.0053755591
0.0052133606
0.0051087061
0.0050362118
0.0049892102
0.0049643314
0.0010567331
0.0019221485
0.0035911032
0.0060781034
0.0093965287
0.013615406
0.018842347
0.025184581
0.032742402
0.04123748
0.050635722
0.060660026
0.070691406
0.079650475
0.085843478
0.086781691
0.07922613
0.060871331
0.036423429
0.017350124
0.00958878
0.0073380866
0.0064803966
0.0059780992
0.0056195284
0.0053789193
0.0052153973
0.0051100233
0.0050371003
0.0049898933
0.0049647988
0.0011508803
0.0019875597
0.0036187823
0.0060532953
0.009302011
0.013431304
0.018544712
0.024745498
0.032134741
0.040491582
0.049754373
0.059670127
0.069652556
0.078664212
0.085056828
0.086389817
0.079464824
0.061784472
0.037480977
0.017865288
0.0097114056
0.0073692323
0.0064946404
0.005986943
0.0056251643
0.0053836698
0.0052181229
0.0051117423
0.0050381992
0.0049905993
0.0049652252
0.0012613244
0.0020576493
0.0036475991
0.0060280529
0.0092068725
0.013246661
0.018246759
0.024307161
0.031527095
0.039740992
0.048861982
0.058661676
0.06858555
0.077640047
0.084224911
0.08595257
0.079663686
0.062703367
0.038577901
0.018432317
0.0098510994
0.0074015433
0.0065084707
0.0059963784
0.0056318397
0.0053882514
0.0052208074
0.005113444
0.0050393076
0.0049913508
0.0049655915
0.0014000529
0.0021520096
0.0036872822
0.0060108499
0.009119635
0.013070012
0.017956825
0.023878871
0.03092513
0.038992238
0.047962742
0.057637496
0.06749147
0.076578374
0.083346625
0.085467047
0.079819551
0.06362028
0.039726709
0.019055405
0.010007013
0.0074371309
0.0065236728
0.0060061937
0.0056385853
0.0053931253
0.0052236792
0.0051152629
0.005040493
0.0049921504
0.004966111
0.0015680832
0.0022611477
0.0037391921
0.0060016919
0.0090388562
0.01289915
0.017672269
0.023455458
0.030334543
0.038240423
0.047054775
0.05659601
0.0663664
0.075477499
0.082419271
0.084928631
0.07993194
0.064527626
0.040957151
0.019741098
0.010181819
0.0074756386
0.0065397184
0.0060166062
0.0056457389
0.0053983333
0.0052267357
0.0051171929
0.0050417452
0.0049929945
0.004966762
0.0017678495
0.0023931558
0.0038069422
0.0060050963
0.0089703067
0.012741025
0.017400908
0.023045071
0.029753804
0.037496015
0.046147463
0.055546793
0.065230137
0.074344796
0.081447043
0.084337453
0.079994413
0.065417348
0.042247208
0.020494613
0.010378004
0.0075175513
0.0065565812
0.0060273281
0.0056532653
0.0054038358
0.005230004
0.0051192601
0.0050430879
0.0049938911
0.0049675416
0.002012495
0.0025656992
0.0039040499
0.0060315362
0.0089217085
0.012602024
0.017148484
0.022652046
0.029180694
0.036762617
0.04524637
0.054495441
0.064082838
0.073184024
0.080431677
0.083691812
0.080001552
0.066290509
0.043590354
0.021321546
0.010598516
0.0075630827
0.0065743086
0.0060387806
0.0056613011
0.0054097376
0.0052334835
0.0051214469
0.0050444956
0.0049948324
0.0049683057
0.0022970294
0.0027734541
0.004026825
0.0060816952
0.0088970251
0.012487793
0.01692137
0.022284208
0.028643072
0.036050793
0.044358878
0.053447796
0.0629198
0.071998887
0.079375615
0.082991094
0.079949171
0.067135063
0.044986566
0.022229634
0.010846667
0.0076130777
0.0065929089
0.0060503337
0.0056696502
0.0054159127
0.0052372012
0.0051237977
0.0050460116
0.0049958388
0.0049690853
0.0026187919
0.0030285735
0.0041998026
0.0061707194
0.0089070264
0.012407343
0.016728013
0.021950255
0.0281444
0.035376673
0.043494043
0.052411368
0.061754776
0.070794676
0.07828216
0.082235655
0.079832845
0.067930291
0.046390292
0.023217105
0.01112569
0.0076675223
0.0066121264
0.0060628088
0.00567874
0.0054225752
0.0052411693
0.0051262679
0.0050475807
0.004996885
0.0049699032
0.0029776159
0.0033339828
0.0044228267
0.0063098919
0.0089636048
0.012371475
0.01657833
0.021659754
0.027686611
0.034713602
0.042654847
0.051393619
0.060594994
0.069576664
0.077155402
0.081426813
0.079649431
0.068668754
0.047787546
0.024289676
0.011440039
0.0077278704
0.0066327375
0.0060749984
0.0056878347
0.0054294421
0.0052453863
0.0051289301
0.0050492807
0.0049980118
0.0049707688
0.0033599333
0.003682921
0.004696648
0.0065069777
0.009078
0.012392252
0.016484809
0.021422536
0.027280089
0.034101433
0.0418576
0.050404556
0.059448248
0.068343786
0.07600001
0.080566887
0.079396983
0.069342348
0.049191648
0.025448552
0.011793598
0.0077939411
0.006652735
0.0060882731
0.0056982303
0.0054369109
0.0052499278
0.005131701
0.005051009
0.0049991642
0.0049716875
0.0037580898
0.0040813592
0.0050470299
0.0067816585
0.0092679315
0.012485856
0.016462336
0.021252577
0.026936256
0.033561752
0.041121248
0.049456175
0.058326051
0.067133774
0.074824975
0.079659579
0.079074599
0.069942792
0.050590351
0.026697747
0.012192321
0.0078674359
0.0066765396
0.0061009822
0.0057078263
0.0054444874
0.0052546941
0.0051346869
0.0050528976
0.00500042
0.0049726571
0.0041737772
0.0045291959
0.0054745095
0.0071462091
0.0095520397
0.012671195
0.016527095
0.021165479
0.026666646
0.033089125
0.040413683
0.048551229
0.057236926
0.065935769
0.073637269
0.0787097
0.078682587
0.070462123
0.051978453
0.028018456
0.012639035
0.0079495123
0.0066959252
0.0061142301
0.0057197677
0.0054527577
0.0052599169
0.0051377656
0.0050547789
0.0050016748
0.0049736677
0.0046306926
0.0050460263
0.0060039744
0.0076391709
0.0099561606
0.012968519
0.016695866
0.021176491
0.026484764
0.032697142
0.039788972
0.047705782
0.056189853
0.064749154
0.072443456
0.077723111
0.07822317
0.070894481
0.05335023
0.02945463
0.013145942
0.0080408918
0.0067251001
0.0061280014
0.0057296784
0.0054611032
0.0052652776
0.0051410601
0.0050568556
0.0050030624
0.0049747118
0.0051796524
0.0056776427
0.0066623321
0.008256655
0.010494778
0.013395988
0.016985292
0.021299783
0.026404063
0.032399571
0.039260923
0.046950359
0.055199794
0.063594531
0.071252492
0.076706772
0.077700896
0.071242284
0.054704473
0.0309794
0.013708886
0.0081496185
0.0067438527
0.0061395051
0.0057427865
0.0054700276
0.0052712595
0.0051444571
0.0050588893
0.0050044171
0.0049757864
0.0058802138
0.0064557595
0.0074670032
0.0090221108
0.01118852
0.013965075
0.017404042
0.021542689
0.026433242
0.032202658
0.038818271
0.046234272
0.054264768
0.062479036
0.070072817
0.075667817
0.077119129
0.071510499
0.056026057
0.032522495
0.014350725
0.0082807017
0.0067770344
0.0061554391
0.0057536961
0.0054792727
0.0052772253
0.0051480142
0.0050611475
0.0050059306
0.0049768886
0.0067985311
0.0074244048
0.0084460268
0.0099613192
0.012028347
0.014673305
0.01795108
0.021903776
0.026573746
0.032107616
0.038466652
0.045610973
0.053394615
0.06140884
0.068907295
0.074612363
0.076480396
0.07168652
0.057276664
0.034142112
0.015052483
0.0084113563
0.0068038927
0.0061652808
0.0057659937
0.0054885141
0.0052838674
0.0051517906
0.0050633563
0.0050073748
0.0049780116
0.0079617014
0.0085916171
0.0095869767
0.011029234
0.012977851
0.01548934
0.018604753
0.022367719
0.026816643
0.032108593
0.038205382
0.045079229
0.052594163
0.060388133
0.067766735
0.073546071
0.075789015
0.071771336
0.058449166
0.035836043
0.015857374
0.0085957957
0.0068303446
0.0061809052
0.0057797353