/*--------------------------------*- C++ -*----------------------------------*\
| =========                 |                                                 |
| \\      /  F ield         | OpenFOAM: The Open Source CFD Toolbox           |
|  \\    /   O peration     | Version:  2406                                  |
|   \\  /    A nd           | Website:  www.openfoam.com                      |
|    \\/     M anipulation  |                                                 |
\*---------------------------------------------------------------------------*/
FoamFile
{
    version     2.0;
    format      ascii;
    arch        "LSB;label=32;scalar=64";
    class       volScalarField;
    location    "0.065";
    object      omega;
}
// * * * * * * * * * * * * * * * * * * * * * * * * * * * * * * * * * * * * * //

dimensions      [0 0 -1 0 0 0 0];

internalField   nonuniform List<scalar> 
8260
(
19410.209
16546.763
13852.893
11446.79
9364.6278
7591.3554
6098.5162
4855.2
3831.0145
2996.2091
2323.2635
1787.0613
1364.7064
1035.5634
779.45521
575.68458
395.79166
261.3349
198.20727
166.67533
145.59619
132.58316
122.68633
114.83567
109.50682
105.78095
103.32191
101.59638
100.40012
99.585849
99.163011
16026.173
13804.982
11763.691
9910.3667
8254.8545
6799.281
5538.7226
4463.0283
3558.5774
2808.7575
2195.3563
1700.4687
1306.4903
996.66609
753.07994
556.16424
379.43981
250.79879
193.9351
164.58642
144.47426
131.88587
122.26305
114.54369
109.33545
105.6793
103.26129
101.55983
100.37801
99.571761
99.154292
13125.443
11489.213
9949.9678
8520.6026
7211.0672
6029.0985
4979.3155
4062.4842
3275.4506
2611.0348
2058.885
1607.2573
1243.3966
954.26111
724.19434
534.68293
362.79467
243.65141
191.60917
163.46103
143.88097
131.52023
122.03973
114.38999
109.24423
105.62384
103.22721
101.53683
100.36202
99.559543
99.144726
10633.329
9466.4703
8330.6815
7246.5199
6226.8779
5282.9342
4423.8745
3656.1803
2983.0082
2403.663
1913.9257
1507.2203
1175.1052
907.98316
692.37959
510.59795
344.71879
235.30818
188.20257
161.61796
142.86872
130.87541
121.63405
114.11102
109.07698
105.52033
103.16313
101.49671
100.33693
99.542718
99.133816
8518.9397
7709.3155
6888.4325
6083.3067
5305.8171
4567.471
3878.8717
3248.9785
2684.3396
2188.3787
1761.2857
1400.5995
1101.5521
857.59066
657.20495
483.13529
324.7079
227.04179
185.03725
159.94028
141.97959
130.31175
121.27731
113.87338
108.93695
105.43322
103.10994
101.46173
100.31372
99.525774
99.121378
6751.2549
6198.6542
5618.2152
5033.9145
4454.9031
3890.9255
3351.799
2846.7127
2383.4508
1967.6262
1602.2745
1287.9538
1022.8499
802.90819
618.16627
451.55675
303.03977
218.69812
181.39259
157.86255
140.83587
129.56078
120.79216
113.547
108.74139
105.3098
103.03443
101.41348
100.28314
99.504699
99.107177
5289.2159
4918.0294
4516.4041
4102.3059
3681.7961
3261.9835
2850.683
2455.8789
2085.0571
1744.4903
1438.6904
1170.1637
939.29024
743.79297
574.56641
415.22436
280.53363
210.58042
177.69909
155.76056
139.70421
128.81033
120.30268
113.22896
108.55284
105.18949
102.96214
101.3658
100.25198
99.482192
99.090988
4093.105
3848.2238
3576.4687
3290.1105
2992.6257
2688.5638
2383.4107
2083.2714
1794.3983
1522.6226
1272.8109
1048.4388
851.34242
680.07057
525.31835
373.76091
258.52557
202.70264
173.67158
153.36669
138.36372
127.89182
119.69793
112.83439
108.31422
105.03528
102.86971
101.30565
100.21361
99.455258
99.072552
3126.0712
2967.8345
2788.2487
2595.2603
2390.5284
2176.5778
1956.8079
1735.3588
1516.8525
1306.0231
1107.2796
924.24679
759.5624
611.34935
468.73983
328.34191
238.79191
195.11731
169.52826
150.91432
136.97092
126.92106
119.06193
112.4314
108.06899
104.87574
102.77554
101.24286
100.17284
99.425679
99.051577
2353.6907
2253.8429
2138.2598
2011.8104
1875.0463
1729.1092
1575.7941
1417.5423
1257.3581
1098.629
944.82721
799.09769
664.24243
536.56649
402.90951
283.35783
222.46715
187.64575
165.13816
148.24975
135.35786
125.77223
118.31598
111.95405
107.7692
104.68093
102.66043
101.16656
100.12408
99.390833
99.027681
1744.4603
1683.0278
1611.041
1530.8647
1442.4889
1346.2425
1242.8381
1133.4342
1019.6757
903.65233
787.71041
674.01967
564.76079
452.13881
329.68836
246.98521
209.33718
180.21515
160.65377
145.53285
133.64934
124.53876
117.5277
111.45186
107.4456
104.47538
102.53924
101.08443
100.07092
99.352096
99.00035
1269.1439
1232.6068
1189.3806
1140.4576
1085.5153
1024.3712
957.0291
883.76034
805.20033
722.35891
636.44836
547.89246
456.90898
356.13625
267.15635
223.6474
197.25951
172.56723
156.19301
142.44358
131.71791
123.15269
116.61932
110.85905
107.05329
104.23242
102.39404
100.9867
100.00789
99.307149
98.968185
900.51792
879.93378
855.18248
826.58679
793.65333
755.89819
712.92968
664.49432
610.58309
551.38876
487.26057
417.2087
342.31486
275.06577
231.93575
206.21909
185.12051
166.04398
151.31411
139.47156
129.6755
121.5649
115.64947
110.21469
106.62382
103.97563
102.23819
100.88121
99.938017
99.257428
98.92566
610.52716
598.98902
584.84885
568.34241
548.87753
525.65498
498.29099
466.55157
430.28467
388.97803
344.50267
300.90129
262.69718
231.91175
210.119
189.76794
175.0245
158.59567
146.79909
136.06369
127.32919
119.86563
114.4641
109.47813
106.12219
103.67869
102.0547
100.76025
99.856169
99.200838
98.875453
391.21219
384.46695
376.86102
368.4461
358.29059
345.79013
331.11708
314.82755
296.49887
276.62509
256.90196
237.50391
221.03871
208.05277
191.96958
176.62345
163.30396
152.8807
141.77912
132.59232
124.84926
117.82857
113.27105
108.6771
105.58087
103.3632
101.86208
100.63365
99.766357
99.138847
98.81902
267.49716
264.28756
260.41616
256.33425
251.82833
246.68229
240.62494
234.17741
225.72169
217.62896
209.98736
203.29709
197.56316
186.90574
175.83416
162.69056
153.45918
145.286
136.75547
128.50717
121.86493
115.85331
111.77883
107.804
104.9962
103.01288
101.63649
100.49247
99.665433
99.069102
98.757757
201.47246
200.29653
198.93934
197.34147
195.75119
193.83873
191.33134
189.03221
186.70982
184.93056
179.80208
174.28735
168.78854
166.10217
161.16588
152.92333
141.78821
137.61822
130.79115
123.97038
118.71231
113.58858
110.26977
106.83242
104.39941
102.6557
101.40846
100.34906
99.556939
98.992715
98.693861
167.05277
166.17634
165.51146
164.86865
164.49821
164.77313
164.70078
163.1822
160.83882
156.73738
154.55244
152.96614
148.93104
144.74532
144.10361
141.2119
133.4911
127.93008
124.17425
118.54348
114.79795
111.278
108.54066
105.84257
103.8094
102.26579
101.13611
100.18345
99.44065
98.907448
98.621058
147.84817
147.8773
147.70797
147.13933
146.00847
144.14024
141.87433
140.47991
139.69941
139.12409
138.16412
133.85054
132.32725
129.53038
127.09985
127.45527
125.61583
120.77383
117.70742
113.87771
110.73587
108.86216
106.85444
104.815
103.1864
101.84703
100.87789
100.0138
99.317027
98.815497
98.547371
130.36025
130.19574
130.01931
129.77853
129.51721
129.51604
130.01854
129.96601
129.11596
127.05496
124.96436
123.91446
123.25157
121.91535
119.00642
117.38913
116.87763
115.43624
113.1585
110.609
107.94594
106.62934
105.15877
103.8327
102.49684
101.43058
100.59486
99.814167
99.185708
98.716534
98.464674
121.36026
121.4695
121.4556
121.30406
120.97411
120.39307
119.19401
118.52336
118.11414
117.77822
117.81628
117.56506
115.53484
114.46234
114.61509
112.73474
111.15244
110.00897
109.59765
108.77013
106.49048
105.04387
103.91872
102.82072
101.9122
101.04071
100.33844
99.624531
99.040548
98.614241
98.384259
112.57124
112.58302
112.55195
112.46442
112.35164
112.27158
112.51954
112.74651
112.60245
112.17785
111.4513
110.64025
111.25135
110.36043
110.09126
109.85069
108.51778
106.91822
106.021
106.0411
105.61009
104.19565
102.87001
102.09764
101.41474
100.7004
100.05832
99.411859
98.890874
98.505944
98.297915
108.07518
108.1633
108.16938
108.10859
107.98053
107.7791
107.43025
106.97947
106.82122
106.71545
106.57859
106.60964
106.29295
106.76302
106.26919
106.16374
106.42371
105.25454
104.05088
103.39964
103.86223
103.48681
102.27619
101.67551
101.0268
100.41264
99.789367
99.22933
98.732463
98.394831
98.215525
103.80741
103.83999
103.83555
103.8052
103.76873
103.7386
103.7354
103.8745
104.01079
104.04271
104.04233
103.96338
103.96097
103.47666
103.51833
103.23634
103.00001
102.98373
102.70433
102.12766
101.99558
102.18089
101.62225
101.20436
100.70517
100.08432
99.48053
98.995707
98.576019
98.289478
98.129046
101.67438
101.72486
101.73869
101.72761
101.70282
101.66491
101.60705
101.51624
101.43841
101.43846
101.50256
101.57913
101.65388
101.84343
101.58429
101.525
101.34918
101.22008
101.36374
101.51177
101.26783
100.85757
100.75262
100.59592
100.10005
99.694756
99.154905
98.793834
98.432133
98.188529
98.057571
99.685731
99.70771
99.714683
99.71559
99.720862
99.734027
99.755837
99.789358
99.856616
99.985845
100.12512
100.23005
100.2747
100.2077
100.17136
100.0216
100.13817
100.34014
100.24064
100.52542
100.47885
100.14919
99.809694
99.522904
99.352612
99.193094
98.820358
98.561169
98.304242
98.109002
98.009731
98.87444
98.892277
98.899686
98.902551
98.906726
98.913081
98.920293
98.927331
98.934819
98.943591
98.955398
98.991785
99.027532
99.049595
99.07052
99.098658
99.162885
99.174181
99.357781
99.201886
99.215687
99.139931
99.088863
98.962619
98.878427
98.753156
98.621948
98.393246
98.216465
98.06591
97.984566
98.442078
98.451811
98.456306
98.459104
98.463097
98.468931
98.476794
98.487321
98.501595
98.521199
98.549212
98.58437
98.626223
98.663641
98.691233
98.700327
98.725468
98.740965
98.770653
98.75249
98.752264
98.727762
98.704504
98.672744
98.631
98.545855
98.44553
98.309057
98.172092
98.048777
97.970144
98.258765
98.263695
98.266559
98.269643
98.274823
98.282871
98.294323
98.309775
98.329638
98.353566
98.380125
98.408301
98.436467
98.460244
98.485553
98.5073
98.521401
98.538454
98.554374
98.575013
98.564352
98.570028
98.543486
98.521897
98.508261
98.446862
98.371806
98.273011
98.157188
98.063047
98.024509
98.171039
98.175223
98.179076
98.183931
98.190856
98.200446
98.213221
98.229758
98.250461
98.27465
98.297168
98.323076
98.350082
98.373372
98.388251
98.401054
98.414625
98.426229
98.438737
98.453412
98.465378
98.450888
98.476849
98.46096
98.454262
98.413027
98.349613
98.269489
98.219197
98.177817
98.130299
98.277909
98.277172
98.276606
98.276098
98.275604
98.274965
98.27405
98.272968
98.272454
98.274814
98.287258
98.312371
98.33903
98.3526
98.361789
98.371166
98.383045
98.390287
98.401331
98.40562
98.432068
98.406808
98.449198
98.442603
98.447773
98.426185
98.391681
98.361566
98.344112
98.30998
98.305074
106455.32
90260.044
71117.879
54692.892
41743.121
31481.129
23453.572
17334.969
12721.062
9248.8123
6658.86
4751.9469
3364.6706
2366.0143
1653.6852
1148.8824
790.5808
530.40462
345.33284
230.71817
174.47006
147.09069
131.18968
120.83302
113.29255
108.23301
104.78298
102.54159
101.0012
99.995829
99.473489
94318.778
71196.376
54444.113
42523.542
33086.029
25483.807
19461.27
14695.324
10961.332
8076.7763
5886.3141
4248.7132
3040.5254
2159.4191
1523.2744
1067.0823
738.75639
496.96593
323.718
218.87345
169.3266
144.81456
129.98398
120.10565
112.85129
107.97635
104.64374
102.46605
100.96067
99.97405
99.465423
75435.937
59775.141
47841.419
37869.747
29494.521
22670.779
17257.276
13022.729
9737.0236
7210.9362
5290.8538
3848.0448
2775.7723
1987.2378
1412.8489
996.95548
694.06017
468.5195
306.83727
211.91696
166.93484
143.77495
129.42314
119.75815
112.63564
107.83756
104.56513
102.41849
100.93227
99.956591
99.455544
66195.16
53314.405
42359.436
33251.993
25872.159
19973.389
15295.709
11609.206
8728.0411
6501.5435
4800.4402
3514.7136
2552.9456
1840.6548
1317.8374
936.02981
654.91744
443.65696
291.89314
204.71868
163.71755
142.22781
128.53993
119.19506
112.2855
107.62757
104.4495
102.35347
100.89636
99.936371
99.444183
59005.994
47018.011
37239.587
29327.883
22938.285
17799.332
13693.249
10439.474
7887.5206
5907.5825
4387.4254
3232.0214
2362.4842
1714.3347
1235.2881
882.62101
620.30658
421.22863
278.32096
198.78883
161.47405
141.20063
127.95401
118.82188
112.05515
107.48297
104.36831
102.30439
100.86734
99.918479
99.432029
52428.462
41821.56
33224.059
26232.809
20567.461
16005.093
12354.561
9457.2956
7179.1466
5404.792
4035.9593
2990.0161
2198.3742
1604.7514
1163.1644
835.49931
589.53152
400.61892
266.09739
193.50452
159.13785
140.01989
127.2475
118.35971
111.76538
107.30541
104.26935
102.24664
100.83454
99.899133
99.419627
47327.793
37737.055
29962.603
23667.721
18587.356
14500.606
11229.381
8629.4937
6579.6505
4977.1629
3735.4143
2781.8915
2056.402
1509.3693
1099.9634
793.85726
562.05739
381.80471
255.18394
188.99191
157.25077
139.10063
126.69632
117.99973
111.54261
107.16563
104.19065
102.19832
100.80583
99.881132
99.407007
43217.118
34343.749
27236.928
21527.108
16933.36
13240.144
10283.569
7930.7373
6071.1905
4612.6136
3477.8385
2602.5485
1933.3847
1426.249
1044.5215
757.03995
537.42138
364.65117
245.52334
185.07927
155.45156
138.16457
126.11316
117.61042
111.29812
107.01297
104.10461
102.14624
100.77543
99.862431
99.394289
39691.534
31490.37
24966.117
19743.764
15549.935
12182.487
9487.2078
7340.054
5639.4492
4301.5739
3256.9622
2447.9666
1826.8047
1353.8536
995.99167
724.50405
515.46501
349.08285
237.05609
181.72679
153.90735
137.37918
125.62138
117.28169
111.09428
106.88364
104.03119
102.10007
100.74759
99.844548
99.381458
36802.831
29132.425
23078.157
18253.777
14390.234
11293.824
8816.1785
6840.5854
5272.8929
4036.3173
3067.7148
2314.8869
1734.6148
1290.9304
953.67512
695.90998
495.75602
335.00208
229.7053
178.84299
152.4849
136.62718
125.13677
116.95132
110.88724
106.75171
103.95593
102.05282
100.7192
99.826382
99.368541
34337.894
27143.668
21491.483
17002.825
13416.999
10547.165
8251.0975
6418.6966
4962.1483
3810.5382
2905.9422
2200.6277
1655.1195
1236.4413
916.89496
670.88225
478.08979
322.33441
223.37698
176.37158
151.23575
135.97579
124.71503
116.66156
110.70761
106.6356
103.88917
102.00963
100.69254
99.808753
99.355534
32259.063
25469.92
20158.726
15953.314
12601.258
9920.7774
7776.3023
6063.3107
4699.57
3619.0681
2768.2219
2102.9635
1586.898
1189.5647
885.08175
649.11604
462.34152
311.01446
217.97879
174.25429
150.10752
135.37401
124.31846
116.38287
110.53366
106.52212
103.82338
101.96682
100.66595
99.791072
99.342447
30485.185
24054.831
19038.006
15074.037
11918.716
9396.9779
7379.0248
5765.437
4478.9266
3457.6696
2651.7299
2020.0482
1528.8018
1149.4769
857.71497
630.3558
448.36037
300.99268
213.41682
172.44813
149.11565
134.84791
123.97238
116.13496
110.38021
106.42059
103.76385
101.92709
100.64063
99.773774
99.329279
28971.651
22858.638
18096.869
14339.501
11350.506
8961.7276
7048.926
5517.7661
4295.1826
3322.9529
2554.2035
1950.4781
1479.8315
1115.4741
834.38438
614.30854
436.02358
292.22775
209.60242
170.91492
148.23901
134.37434
123.66009
115.9039
110.23644
106.32436
103.70666
101.88852
100.61572
99.756545
99.316038
27683.94
21852.722
17312.621
13731.597
10882.75
8604.491
6778.3556
5314.8391
4144.5006
3212.438
2473.9758
1892.9958
1439.1637
1087.1213
814.84483
600.66229
425.20219
284.67153
206.45563
169.62565
147.48227
133.96257
123.39289
115.69885
110.10934
106.23809
103.65445
101.85252
100.59186
99.739642
99.302701
26616.69
21027.671
16675.352
13241.026
10507.017
8318.6071
6562.3195
5153.0401
4024.155
3123.8119
2409.4432
1846.4828
1406.1568
1064.0212
798.87433
589.33786
415.80951
278.2941
203.88986
168.5566
146.83686
133.60172
123.16312
115.51337
109.99346
106.15845
103.6052
101.81809
100.56864
99.722914
99.289233
25771.42
20380.595
16178.605
12860.538
10216.726
8098.232
6395.9469
5028.162
3931.1156
3054.8895
2359.0694
1810.1324
1380.2748
1045.847
786.2763
580.36832
407.8728
273.05231
201.78292
167.68957
146.3037
133.29475
122.97507
115.3517
109.89195
106.08768
103.56017
101.78592
100.54637
99.706468
99.275635
24995.189
19821.859
15770.927
12559.967
9993.6563
7932.072
6272.0236
4935.5724
3862.4288
3004.1989
2321.9581
1783.2976
1361.1089
1032.3413
776.88066
573.64907
401.44227
268.82452
200.12603
167.01097
145.87835
133.03679
122.82442
115.211
109.8021
106.02409
103.51833
101.7555
100.52484
99.690231
99.261913
24189.098
19277.009
15399.452
12304.962
9816.9242
7808.1274
6184.0914
4872.3978
3816.4645
2970.5972
2297.4255
1765.5113
1348.359
1023.3154
770.56044
569.10731
396.55517
265.54279
198.8741
166.51047
145.55974
132.82924
122.712
115.09339
109.72535
105.9687
103.48031
101.72719
100.50424
99.674264
99.248073
23528.665
18835.301
15106.023
12112.279
9691.5613
7726.7429
6130.9812
4836.9969
3792.1267
2953.3703
2284.9872
1756.4723
1341.8322
1018.6433
767.23427
566.67276
393.2446
263.14707
198.00744
166.18228
145.34574
132.67158
122.63536
114.99811
109.66065
105.9207
103.44565
101.70072
100.48447
99.658532
99.234123
22943.248
18474.323
14886.595
11982.7
9618.3918
7687.8957
6112.1739
4828.7973
3788.8947
2952.1606
2284.4153
1756.034
1341.4193
1018.2702
766.87165
566.28719
391.54859
261.59572
197.50985
166.02719
145.2375
132.56727
122.59498
114.92682
109.60894
105.88054
103.41468
101.67626
100.46561
99.643042
99.220061
22420.027
18179.25
14732.53
11912.62
9596.698
7691.0328
6125.2564
4844.5658
3803.7304
2965.14
2295.0074
1764.0174
1347.1012
1022.1989
769.49029
567.98449
391.52439
260.8876
197.38585
166.04094
145.23645
132.51906
122.58988
114.87944
109.56978
105.84759
103.38705
101.65352
100.44753
99.627727
99.205883
21931.659
17933.382
14634.384
11897.512
9620.8691
7730.4511
6168.2112
4885.8014
3840.4604
2995.0783
2317.938
1780.819
1358.9633
1030.4742
775.14781
571.82147
393.01271
260.99194
197.53667
166.1857
145.30468
132.5231
122.60524
114.85493
109.54261
105.82125
103.36252
101.63236
100.43012
99.612551
99.191588
21428.36
17706.865
14573.064
11923.101
9684.1743
7805.3078
6240.6094
4948.8119
3891.995
3035.3455
2348.1238
1802.6458
1374.2637
1041.0266
782.2543
576.62591
395.67331
261.68361
197.97042
166.44976
145.45591
132.55395
122.64547
114.84864
109.52505
105.80001
103.34044
101.61246
100.41327
99.597528
99.177182
103771.77
88117.786
70001.738
54362.778
41976.831
32170.991
24280.848
18080.191
13307.168
9692.885
6983.9053
4982.4719
3523.5415
2472.6914
1723.6226
1193.731
818.74387
547.38541
355.08498
235.03462
176.0608
147.74842
131.54842
121.07258
113.44832
108.34095
104.84464
102.57888
101.02348
100.00935
99.477618
98424.6
83818.339
67439.302
53158.728
41459.283
31926.264
24209.753
18109.709
13390.684
9788.9008
7072.1026
5054.7527
3578.6557
2512.5672
1751.2764
1212.1912
830.77931
555.03929
360.08737
237.52353
177.02404
148.14358
131.76653
121.22576
113.55247
108.40866
104.8837
102.60274
101.03817
100.01943
99.481674
93130.321
79852.088
64705.176
51572.287
40606.59
31526.531
24083.923
18125.748
13468.492
9883.7035
7161.6384
5129.4096
3636.2562
2554.6004
1780.6084
1231.8587
843.60873
563.16347
365.41532
240.22442
178.06666
148.56929
132.0028
121.38619
113.65778
108.49103
104.93052
102.63112
101.05519
100.02912
99.488144
88142.789
76131.956
62080.689
49976.671
39720.803
31094.988
23932.34
18124.152
13538.414
9975.9383
7251.6849
5206.002
3696.163
2598.7539
1811.6456
1252.7832
857.2608
571.79414
371.06551
243.1432
179.18896
149.00694
132.23826
121.55598
113.77741
108.56041
104.9715
102.65638
101.07113
100.04065
99.49493
83402.758
72685.615
59580.782
48384.051
38802.413
30628.501
23752.785
18109.562
13598.71
10064.137
7341.3224
5284.0417
3758.1671
2644.9752
1844.41
1275.0142
871.75727
581.01987
377.01313
246.31717
180.43791
149.52195
132.52552
121.74136
113.89522
108.65874
105.02719
102.68994
101.09109
100.05243
99.500448
78692.332
69475.66
57219.309
46809.641
37856.832
30126.822
23542.738
18072.696
13646.617
10146.446
7429.362
5362.8639
3821.9562
2693.1558
1878.8951
1298.5869
887.1635
590.88193
383.07905
249.62491
181.7467
150.01662
132.78872
121.93478
114.03362
108.75321
105.08169
102.72298
101.11111
100.06496
99.504404
74053.482
66389.308
54958.495
45240.718
36873.868
29580.46
23294.29
18006.482
13678.144
10220.627
7514.5846
5441.8708
3887.2964
2743.2549
1915.1498
1323.5857
903.64973
601.50394
389.55385
253.23009
183.1706
150.56728
133.08465
122.13737
114.17384
108.85361
105.13983
102.75821
101.13242
100.07823
99.511003
69506.856
63395.87
52792.663
43687.943
35863.058
28994.936
23010.144
17913.852
13691.184
10286.19
7596.6959
5520.9045
3954.1593
2795.3353
1953.2884
1350.131
921.22291
612.85639
396.71931
257.09057
184.70571
151.1556
133.39638
122.35201
114.32229
108.96053
105.20174
102.79562
101.1549
100.09219
99.520512
65067.156
60434.819
50697.014
42149.508
34822.362
28365.129
22684.149
17789.167
13684.517
10339.914
7673.3763
5598.5342
4021.7609
2849.0108
1993.1369
1378.1359
939.90985
624.98201
404.418
261.21639
186.36195
151.77663
133.7213
122.5722
114.47852
109.0734
105.26766
102.83553
101.17884
100.10692
99.532584
60857.551
57451.897
48631.256
40609.332
33747.422
27688.067
22312.964
17629.715
13658.658
10379.722
7742.8597
5673.6407
4089.4885
2904.0047
2034.6046
1407.5961
959.74035
638.01797
412.66018
265.63051
188.14995
152.44723
134.06274
122.80714
114.64483
109.19397
105.33801
102.87783
101.20395
100.12236
99.543776
56825.504
54450.237
46617.706
39082.72
32643.103
26963.089
21893.444
17430.546
13600.901
10401.409
7802.9688
5744.9267
4156.6096
2959.9583
2077.5576
1438.4906
980.73038
651.96815
421.54968
270.37033
190.0827
153.14938
134.41696
123.04305
114.81797
109.32002
105.4127
102.92302
101.2307
100.1387
99.554843
53059.997
51407.273
44521.235
37521.198
31495.877
26185.162
21421.53
17187.207
13509.658
10399.439
7851.2009
5810.9026
4222.2708
3016.4365
2121.815
1470.7771
1002.8923
666.74246
430.75249
275.40813
192.17546
153.91705
134.78323
123.29723
115.00534
109.45545
105.49282
102.97069
101.25846
100.15569
99.566295
49636.882
48368.991
42348.511
35913.57
30300.005
25350.837
20893.774
16896.31
13384.133
10381.327
7886.2175
5870.0391
4285.5041
3072.9202
2167.1443
1504.3868
1026.2332
682.38808
440.249
280.79184
194.43105
154.71635
135.17171
123.54437
115.19383
109.59467
105.57722
103.02151
101.28804
100.17373
99.578322
46446.002
45295.825
40091.753
34240.9
29045.772
24455.924
20307.221
16554.841
13220.444
10335.425
7904.4329
5920.5368
4345.2367
3128.8145
2213.2597
1539.2212
1050.7483
698.9291
450.30726
286.53911
196.87513
155.58824
135.5475
123.81235
115.40689
109.7458
105.66869
103.07475
101.31833
100.19222
99.591035
43487.711
42211.181
37703.621
32467.153
27717.078
23494.588
19659.204
16160.254
13014.654
10256.29
7901.8441
5960.4516
4400.2847
3183.4582
2259.8421
1575.1546
1076.4179
716.37742
460.96377
292.71225
199.50952
156.52056
135.99475
124.06713
115.60531
109.89783
105.76382
103.13122
101.35065
100.21195
99.60435
40651.204
39127.165
35186.546
30576.47
26303.831
22463.678
18949.134
15711.89
12765.778
10147.156
7884.9565
5989.1054
4449.5932
3236.1458
2306.5185
1612.0342
1103.208
734.73565
472.33272
299.16356
202.38245
157.49853
136.3516
124.33235
115.84892
110.0645
105.86832
103.18992
101.3833
100.23175
99.618008
37788.602
36016.408
32566.928
28584.427
24814.625
21369.494
18181.655
15212.401
12474.643
10006.505
7844.3185
6004.5615
4492.1155
3286.1742
2352.8848
1649.6882
1131.0863
754.0199
484.54065
306.41484
205.44366
158.60577
136.89826
124.60413
116.05148
110.22946
105.97519
103.25168
101.41816
100.25306
99.631801
34805.401
32897.945
29904.816
26529.323
23269.048
20226.047
17367.3
14668.646
12144.627
9834.495
7778.8523
6003.4098
4526.6094
3332.8514
2398.5402
1687.9354
1160.0343
774.33088
497.75525
314.24545
208.84278
159.78678
137.23838
124.83359
116.31931
110.40831
106.09291
103.31547
101.4531
100.27388
99.645619
31756.255
29889.888
27336.545
24513.204
21728.051
19069.304
16527.976
14093.836
11783.109
9635.0117
7693.3992
5992.9962
4553.3444
3375.7039
2443.1103
1726.5758
1189.966
795.74697
512.00398
322.01076
212.3197
160.96337
137.83634
125.14759
116.53628
110.58829
106.21169
103.38211
101.49033
100.29647
99.659353
28832.034
27120.152
24964.975
22615.224
20248.784
17938.22
15690.491
13505.672
11400.97
9414.1125
7589.9991
5967.82
4571.9206
3414.3924
2486.2674
1765.3885
1220.7495
818.123
527.08071
330.43474
216.37658
162.65836
138.33335
125.34111
116.78863
110.77064
106.33848
103.45103
101.5277
100.31777
99.672805
26181.761
24683.247
22878.391
20905.672
18883.31
16870.273
14881.842
12923.354
11011.048
9179.4638
7472.1146
5929.5762
4582.4952
3448.7681
2527.7634
1804.1692
1252.2799
841.45264
543.04649
339.64899
220.45186
163.81131
138.7535
125.65773
117.05704
110.96698
106.46634
103.52261
101.56683
100.34062
99.685778
23893.493
22622.214
21101.453
19422.127
17670.943
15900.334
14129.8
12367.338
10627.517
8940.1127
7345.014
5882.2331
4585.5903
3478.9076
2567.454
1842.7604
1284.4579
865.70167
559.86614
349.48448
225.1023
165.66763
139.60789
125.96506
117.23974
111.1458
106.59459
103.59774
101.60648
100.36151
99.698015
22005.814
20937.517
19643.543
18187.773
16641.147
15055.735
13457.072
11855.982
10264.174
8705.5319
7214.5525
5828.8113
4583.4626
3505.1754
2605.2838
1881.0159
1317.1881
890.83735
577.51887
359.68404
230.49455
168.14683
140.12732
126.14801
117.56082
111.33887
106.72257
103.67273
101.64584
100.3829
99.709284
20494.955
19599.483
18489.032
17206.803
15811.695
14359.105
12885.208
11406.889
9934.2483
8485.0147
7086.805
5772.9698
4577.7362
3528.26
2641.3127
1918.8258
1350.3797
916.84671
596.1183
370.73315
235.5612
169.6202
140.76284
126.59335
117.73402
111.5255
106.85287
103.75447
101.68618
100.40277
99.719195
19270.947
18528.832
17578.928
16444.976
15172.805
13818.583
12429.926
11035.509
9650.0305
8287.2594
6967.3456
5717.6301
4568.9046
3548.5716
2675.5806
1956.0636
1383.912
943.69058
615.71933
383.14222
241.30441
171.9008
141.94857
126.91216
117.99468
111.65889
106.96489
103.82444
101.72222
100.42098
99.72744
18242.336
17637.311
16833.748
15838.866
14682.127
13413.443
12087.551
10747.689
9419.7777
8119.0983
6860.7515
5665.4234
4558.8098
3566.4313
2707.9679
1992.5046
1417.5947
971.24098
636.25002
396.57393
247.81241
174.56457
142.54901
127.14218
118.30885
111.85813
107.10447
103.9064
101.7592
100.43927
99.733551
17319.611
16840.044
16172.627
15311.928
14272.23
13092.29
11826.62
10529.469
9240.315
7981.8928
6769.1398
5617.8494
4548.1085
3581.9406
2738.2851
2027.8134
1451.1041
999.29136
657.54843
410.77134
254.62856
176.88827
143.28771
127.79062
118.4664
111.93625
107.19241
103.96099
101.78848
100.45232
99.737152
16398.177
16037.117
15501.558
14776.05
13861.85
12784.917
11593.824
10346.347
9092.6278
7866.711
6688.7533
5573.2849
4535.9389
3594.5842
2765.8175
2061.4109
1484.0619
1027.5968
679.50215
425.79552
262.01563
179.55028
144.48022
128.08506
118.72718
112.06821
107.30705
104.02012
101.81578
100.46582
99.737724
15402.128
15147.042
14737.998
14149.792
13371.709
12417.048
11323.961
10146.578
8940.8761
7751.7057
6607.3221
5524.6675
4517.2624
3599.445
2788.2717
2092.1825
1515.871
1055.8061
701.89844
441.44976
269.59623
182.30856
145.55578
128.5273
119.08469
112.20472
107.38172
104.06401
101.8363
100.47267
99.734766
14329.391
14147.637
13838.468
13374.262
12735.402
11919.721
10949.725
9871.1076
8740.3446
7607.1785
6507.2869
5462.7648
4488.3252
3596.9808
2805.2117
2119.2334
1545.7727
1083.4823
724.52165
457.67938
277.68419
185.0467
146.61616
129.17655
119.18819
112.2065
107.43431
104.08033
101.85348
100.47228
99.727792
13202.092
13066.676
12827.405
12457.893
11937.598
11257.892
10428.232
9478.4569
8454.1477
7404.3011
6368.9442
5375.7021
4442.9279
3584.9335
2812.2008
2140.4772
1572.7282
1110.0417
747.12462
474.48701
286.74491
187.95089
147.86421
129.51613
119.37379
112.26367
107.45243
104.0793
101.85411
100.46819
99.716253
12043.831
11932.88
11741.034
11444.799
11024.29
10467.205
9774.5028
8963.8898
8067.9292
7126.548
6178.1182
5252.9424
4372.8711
3554.5826
2809.6857
2155.3289
1596.068
1135.0698
769.4526
491.77416
296.81128
191.60311
149.3657
130.27248
119.59437
112.26303
107.44138
104.0686
101.8502
100.45902
99.69975
10917.858
10816.754
10654.25
10411.072
10070.026
9617.9752
9050.2513
8374.3297
7610.6342
6788.4294
5940.2797
5095.6654
4278.3319
3507.3021
2798.6268
2163.5608
1615.39
1158.2168
791.32846
509.48382
307.89825
195.81609
150.84135
131.01718
119.57616
112.20115
107.39653
104.03096
101.83632
100.43924
99.67796
9895.21
9796.9914
9652.1223
9445.7708
9164.0416
8794.7928
8330.6777
7772.3061
7129.5101
6421.8417
5674.8852
4914.5996
4164.6166
3445.1491
2773.4714
2163.444
1630.3787
1179.3246
812.69004
527.63031
320.14546
200.73913
152.27975
131.26989
119.42834
112.12001
107.33886
103.97953
101.8108
100.41283
99.650407
9040.9484
8942.6771
8807.4753
8624.5417
8383.0257
8072.5684
7685.2387
7217.6146
6673.5152
6064.8044
5409.0974
4727.8478
4042.9978
3374.9192
2741.8495
2160.0229
1642.0387
1198.5566
833.46271
546.06497
333.44039
206.07438
153.45035
131.27346
119.32546
111.90767
107.16893
103.88226
101.7671
100.37666
99.61758
8389.3773
8291.1455
8161.5147
7992.9105
7776.7907
7504.6845
7169.1317
6765.5049
6293.9892
5760.516
5177.2341
4561.0908
3931.5831
3308.4849
2710.3654
2153.765
1651.8788
1216.4234
853.47828
564.24362
346.88933
211.38242
154.0178
131.13519
119.13382
111.60315
107.01868
103.79228
101.72754
100.33757
99.578703
7924.5296
7831.953
7710.9663
7555.7425
7358.9334
7113.0908
6811.5755
6449.5257
6025.2935
5542.0449
5008.4744
4438.4724
3849.4657
3260.2101
2688.9175
2152.6672
1662.7236
1234.0841
872.94742
581.78057
359.62985
215.91898
154.16257
130.62582
118.74964
111.40007
106.91121
103.72166
101.65794
100.2825
99.53514
7546.3158
7466.8815
7362.2105
7226.9552
7054.0177
6835.8512
6565.4418
6237.442
5849.3577
5402.6682
4904.036
4365.5663
3803.5896
3236.5604
2683.0083
2156.9055
1677.1838
1253.3984
892.95088
599.29664
372.11198
220.31797
154.23759
130.16834
118.40871
111.26595
106.73348
103.62108
101.59986
100.24508
99.486323
7161.872
7099.3275
7015.1013
6904.0986
6759.843
6575.0125
6341.8444
6053.2511
5704.5858
5295.3355
4830.3052
4319.953
3779.9298
3229.2669
2687.1369
2171.6107
1697.794
1276.0327
914.8653
618.06963
385.73396
225.78486
154.47329
130.03664
118.27516
111.21309
106.62291
103.56843
101.53569
100.17758
99.433056
6732.2049
6686.6152
6622.954
6536.0428
6419.7788
6267.3141
6071.3506
5824.7304
5521.4142
5158.0497
4735.8531
4262.1844
3750.5726
3219.3647
2692.3421
2189.7308
1721.3096
1301.2176
938.87395
638.85093
401.77085
233.80623
155.40872
130.16014
118.3118
111.23351
106.5985
103.53018
101.46295