/*--------------------------------*- C++ -*----------------------------------*\
| =========                 |                                                 |
| \\      /  F ield         | OpenFOAM: The Open Source CFD Toolbox           |
|  \\    /   O peration     | Version:  2406                                  |
|   \\  /    A nd           | Website:  www.openfoam.com                      |
|    \\/     M anipulation  |                                                 |
\*---------------------------------------------------------------------------*/
FoamFile
{
    version     2.0;
    format      ascii;
    arch        "LSB;label=32;scalar=64";
    class       surfaceScalarField;
    location    "0.03";
    object      phi;
}
// * * * * * * * * * * * * * * * * * * * * * * * * * * * * * * * * * * * * * //

dimensions      [1 0 -1 0 0 0 0];

oriented        oriented;

internalField   nonuniform List<scalar> 
3991
(
0.013264315
0.0011578195
-0.0016829737
-0.012739606
0.013718248
0.001257901
-0.0017122944
0.014091962
0.0013094561
-0.0016836456
0.014410687
0.0013393309
-0.0016585559
0.0013682305
-0.0016412276
0.0098377291
0.0004945796
-0.0091749348
0.010557894
0.00053727374
0.011221477
0.00064538688
0.011797883
0.00076241075
0.0055212508
-4.2045268e-05
-0.0049850767
0.006089285
-3.1235641e-05
0.0067015081
3.266586e-05
0.0024969258
-0.00041808038
-0.0021213729
0.0028814198
-0.00041623536
-0.0003909902
0.001290753
-0.00070817269
-0.0010011729
0.0015633618
-0.00068938974
0.00070739738
-0.00087767145
-0.00053844961
-0.0009321196
-0.00013697785
-0.00089395655
0.00031396234
0.00079322501
0.00077840034
0.0013840744
0.00094367902
0.00092696015
0.0010494926
0.00039399249
0.00014076615
0.0010785859
-0.00017058146
0.0010644212
0.0007883368
0.0010089341
-0.00071939356
0.0010240471
0.0013619471
0.00084220071
-0.0011959026
0.0014869311
0.00089831993
0.0009280976
0.0019680025
0.00058204445
-0.0017085026
0.0022055926
0.00066001793
0.0024329635
0.00069995699
0.00072541449
0.0032134906
-0.0030115353
0.0034733316
0.0037762864
0.004088951
-0.0017234523
0.016099763
-0.016059685
-0.0018028306
0.021896578
-0.021817702
-0.0018158086
0.02790948
-0.027897112
-0.0017420798
0.033050566
-0.033125003
-0.0015773831
0.036015685
-0.036181149
-0.0013690869
0.036024365
-0.036233429
-0.0011534345
0.033197215
-0.033413575
-0.00095601887
0.028443548
-0.028641571
0.022932137
-0.00079089296
-0.023097751
-0.0017695346
0.016156584
-0.0018212024
0.021947716
-0.0018194483
0.027907074
-0.0017331785
0.032963537
-0.0015760542
0.035857735
-0.0013739217
0.035821404
-0.001161034
0.03298356
-0.00096399971
0.028245856
0.022765497
-0.00079788862
-0.0017397789
0.016212277
-0.0017925905
0.021999963
-0.0017946349
0.02790842
-0.0017168939
0.032884976
-0.0015668556
0.035706802
-0.0013705174
0.035624166
-0.0011611932
0.032773404
-0.00096595304
0.028049903
0.022599421
-0.00080045075
-0.0017148561
0.016268113
-0.0017617228
0.022046228
-0.001763986
0.027909932
-0.001692394
0.032812498
-0.0015489906
0.035562428
-0.0013584266
0.035432625
-0.0011533793
0.032567452
-0.00096096097
-0.00079716976
-0.0016931091
0.016319504
-0.0017319218
-0.001730601
-0.0016611084
-0.0015228046
-0.0013378283
-0.00064658681
0.020198741
-0.020343477
-0.00050543842
0.019084903
-0.019226454
-0.00036780425
0.018019963
-0.018157974
-0.00023439617
0.017008759
-0.017142518
-0.0001080964
0.016050645
-0.016177273
0.015079397
-0.015187799
-0.00065369292
0.02005408
-0.00051204019
0.018942815
-0.00037404231
0.017881558
-0.00024088267
0.016875219
-0.00011631887
0.015925726
0.014962747
-0.00065730605
0.019910431
-0.00051650943
0.018801546
-0.00037930455
0.017743912
-0.00024674932
0.016742253
-0.00011952083
0.015798115
0.01484287
-0.0006556439
-0.00051613859
-0.00037984903
-0.00024760504
-0.0001197108
-0.0016439847
0.015947189
0.0020243761
-0.016328082
-0.0012870841
0.014989048
-0.015346402
-0.0009542445
0.014087137
-0.014420388
-0.00064390017
0.013250095
-0.013560813
-0.00034716945
0.01250337
-0.012800446
0.011945721
-0.012293212
-0.0013717565
0.015629045
0.0016894367
-0.0010729265
0.014689801
-0.0007938344
0.013807669
-0.00053238335
0.012988299
-0.00028028776
0.012250957
0.011665148
-0.0011268957
0.015367078
0.0013884307
-0.00088076948
0.01444329
-0.00065045633
0.013577011
-0.00043412471
0.012771655
-0.0002251162
0.012041657
0.011439758
-0.00090415142
0.015154058
0.0011167713
-0.00070256328
0.014241344
-0.00051191026
0.013386031
-0.0003306102
0.012590049
-0.00015469794
0.011865462
0.011284814
-0.00070596591
0.014985234
0.0008743992
-0.00054494409
0.014079973
-0.00039142026
0.013232196
-0.00024544947
0.012443798
-0.00010886166
0.011728613
0.011175714
-0.00054412289
0.014862026
0.00066694739
-0.00042822383
0.01396373
-0.00032036046
0.013124013
-0.00022147847
0.012344615
-0.00013234877
0.011639208
0.011043121
-0.00039426065
0.014779296
0.00047658176
-0.0003169885
0.013886084
-0.00024541673
0.013052104
-0.00017895842
0.012277849
-0.0001117295
0.011571688
0.010931106
-0.00024485646
0.014732335
0.00029138611
-0.00020097889
0.013841806
-0.0001600505
0.013010798
-0.0001211165
0.012238561
-7.8197822e-05
0.011528442
0.010852608
-9.6138929e-05
0.014719536
0.00010848206
-8.4319137e-05
0.013829558
-7.3057291e-05
0.012999142
-6.1484862e-05
0.012226624
-4.5185858e-05
0.011511803
0.010807094
5.4841876e-05
0.014740408
-7.6176353e-05
3.4475136e-05
0.013849488
1.5224355e-05
0.01301798
-2.2573895e-06
0.012243722
-1.4762606e-05
0.01152395
0.010791993
0.00020619647
0.014794676
-0.00026092016
0.00015337954
0.01390187
0.00010316167
0.01306779
5.6699449e-05
0.012289806
1.7055413e-05
0.011563243
0.010808708
0.00036327898
0.014879709
-0.00044873635
0.00027821236
0.013986526
0.00019485727
0.013150756
0.00011551513
0.012368784
4.6111419e-05
0.011632305
0.010854492
0.00052192218
0.014989262
-0.00063187667
0.00041218768
0.014095873
0.00030321625
0.013259357
0.00019507788
0.012476574
8.9016639e-05
0.011738041
0.010943201
0.00065775553
0.015153128
-0.00082201427
0.00050320858
0.014250045
0.00035862543
0.013403587
0.00022516801
0.012609698
0.00010468409
0.011858212
0.011047588
0.00096445196
0.015378329
-0.0011900461
0.0007487024
0.014465425
0.00054315496
0.013608784
0.00034830655
0.012804218
0.00016433877
0.012041872
0.011211644
0.0012277293
0.015659842
-0.0015096417
0.00095554408
0.014737238
0.00069450878
0.013869472
0.00044616331
0.013052237
0.00021424656
0.012273483
0.011425608
0.0014871774
0.015996168
-0.0018239175
0.0011624178
0.015061613
0.00085116488
0.014180366
0.00055299371
0.013350074
0.0002670152
0.012559149
0.011692333
0.0017625104
0.016394751
-0.0021615257
0.0013776317
0.015446091
0.0010085316
0.014549092
0.0006559752
0.013702281
0.00031974674
0.012895052
0.012011778
0.0020567653
0.016860519
-0.0025229882
0.0016078247
0.015894609
0.0011776285
0.014978895
0.00076680221
0.01411274
0.00037497803
0.013286533
0.012386437
0.0023700264
0.017398396
-0.0029083828
0.0018525565
0.016411631
0.0013570726
0.015473961
0.00088384936
0.014585573
0.000432532
0.013737487
0.012818629
0.0027002128
0.018012287
-0.0033146137
0.0021113261
0.017000041
0.0015486346
0.016036208
0.0010113597
0.015122433
0.00049613389
0.014252324
0.013314401
0.003040558
0.018708068
-0.0037368817
0.0023736723
0.017666419
0.0017370307
0.016672374
0.0011308003
0.015728219
0.00055483982
0.01482787
0.013868854
0.0034041529
0.019482091
-0.0041787549
0.0026637194
0.01840631
0.0019568298
0.017378756
0.0012808277
0.016403746
0.00062759187
0.015480661
0.014496031
0.0037290664
-0.004591072
0.002908341
0.002128579
0.0013892977
0.00069221116
-0.003857206
0.016133583
0.0035543458
-0.015831312
-0.0040557422
0.020873647
-0.020675872
-0.004092014
0.025610456
-0.025575113
-0.0039334399
0.029350244
-0.029509877
-0.0036003965
0.031122904
-0.031457059
-0.0031678066
0.03043672
-0.030870378
-0.0027246646
0.027540373
-0.027984461
-0.0023341974
0.023254735
-0.023645982
0.018536576
-0.018847003
-0.0032183326
0.016410221
0.0029411104
-0.0034307094
0.021085271
-0.0034811722
0.02566
-0.003343469
0.029211498
-0.0030485108
0.030826858
-0.0026692037
0.030056375
-0.0022856053
0.027155866
-0.0019519357
0.022920325
0.018273509
-0.0026395313
0.016672907
0.002376268
-0.0028315404
0.021276539
-0.002883644
0.025711201
-0.0027709705
0.029097801
-0.0025213119
0.030576135
-0.0022007758
0.029734832
-0.0018793093
0.026833527
-0.0016029779
0.022643292
0.018058428
-0.0021043854
0.01690653
0.0018701951
-0.0022712827
0.021442711
-0.0023219638
0.025760998
-0.0022327732
0.029007608
-0.0020287149
0.030371036
-0.0017674488
0.029472586
-0.0015076195
0.026572857
-0.0012866731
0.022421677
0.017888024
-0.00161232
0.01710873
0.0014095635
-0.0017575317
0.021587213
-0.0018016315
0.025804233
-0.0017328683
0.028937861
-0.0015743207
0.030211467
-0.0013714308
0.029268737
-0.001171368
0.026371974
-0.0010029288
0.022252587
0.017759006
-0.0011570379
0.017275316
0.00098990197
-0.0012770411
0.021706523
-0.0013193231
0.02584567
-0.0012730023
0.028890576
-0.0011575013
0.030094962
-0.0010115598
0.02912185
-0.00086984265
0.026229447
-0.00075324892
0.022135353
0.017672224
-0.0007310396
0.017406274
0.00059954556
-0.00082715601
0.021801966
-0.00086734357
0.025885038
-0.00084432568
0.028866619
-0.00077267786
0.030022329
-0.0006806452
0.029028882
-0.00059339072
0.026141381
-0.00052457198
0.022065878
0.01762373
-0.00032826159
0.017501529
0.00023246592
-0.00040154652
0.021874618
-0.00044008609
0.02592281
-0.00043960602
0.028865249
-0.00040980116
0.029991577
-0.00036841829
0.028986583
-0.00033123372
0.026103386
-0.00030553235
0.022039509
0.017609061
6.1291648e-05
0.017563583
-0.00012361664
6.1101038e-06
0.02192935
-3.2609764e-05
0.025960833
-5.3162358e-05
0.028884958
-6.1709214e-05
0.029999213
-6.7185545e-05
0.028991162
-7.6478921e-05
0.026111871
-9.0973792e-05
0.022053323
0.017626024
0.0004443016
0.017622648
-0.00050367481
0.00039119943
0.021981555
0.00034899477
0.026001987
0.00031146648
0.028921499
0.00027155873
0.030038159
0.00022618939
0.029035626
0.00017537217
0.026161882
0.00012366934
0.022104346
0.017672968
0.0005396762
0.017551647
-0.00046721085
0.00060012618
0.021915378
0.00062677017
0.025971293
0.00061474532
0.028931436
0.00056977303
0.030081773
0.00050231828
0.029102065
0.00042024181
0.026243138
0.00033636886
0.022187546
0.017747873
0.00064663839
0.01749256
-0.00058884595
0.00071522071
0.021850964
0.0007808893
0.025907522
0.00082789986
0.028884437
0.00082487221
0.030084303
0.00075612158
0.029170175
0.00065416899
0.026344446
0.00054632212
0.022294809
0.017844965
0.0013315572
0.017421274
-0.0012616552
0.0013697192
0.021813165
0.0013540563
0.025923587
0.0012668137
0.028971642
0.0011350005
0.030215744
0.00099834597
0.029306292
0.00086819872
0.026474016
0.00074524268
0.022417224
0.017957867
0.0019755805
0.01731113
-0.0018665319
0.0020316578
0.021756164
0.0020095054
0.02594504
0.0018996202
0.029080901
0.0017117231
0.030403027
0.0014744833
0.029542914
0.0012234949
0.0267244
0.00099944822
0.022640723
0.018134842
0.0024992537
0.017140551
-0.0023295106
0.0026071952
0.021647405
0.0026117373
0.025939733
0.0024985778
0.029193309
0.0022791043
0.03062176
0.0019938445
0.029827456
0.0016952402
0.02702234
0.0014204872
0.022914904
0.018364818
0.0030713384
0.016936401
-0.0028678105
0.0031985897
0.021519399
0.0032062609
0.025931237
0.0030711986
0.029327518
0.002812067
0.030880045
0.0024769097
0.030161816
0.0021209923
0.027377549
0.0017898168
0.023245481
0.018644515
0.0037542099
0.016706893
-0.0035252638
0.0038897541
0.02138313
0.0038804183
0.025939733
0.0037042716
0.029502766
0.0033834525
0.031199967
0.0029752026
0.030569225
0.002547642
0.027804364
0.0021543465
0.023638151
0.018974447
0.004558976
0.01646964
-0.0043222509
0.0046848957
0.021256522
0.004641813
0.025981992
0.0044077177
0.029735956
0.004011441
0.031595323
0.003520732
0.031059062
0.0030132815
0.028311036
0.0025495594
0.02410122
0.019361962
0.0055088121
0.01625412
-0.0052938021
0.0055962374
0.021168432
0.0054953534
0.026082071
0.0051842074
0.0300462
0.0046970477
0.032081548
0.0041116625
0.031643548
0.0035148417
0.02890705
0.002973601
0.024641779
0.019812031
0.0066044965
0.016091744
-0.0064426238
0.0066231691
0.021149106
0.006438293
0.02626615
0.0060297591
0.030453828
0.0054363363
0.03267402
0.004744686
0.032334273
0.004050253
0.029600644
0.0034257008
0.025265619
0.020328779
0.0077951126
0.016001009
-0.0077048809
0.0077288813
0.021214685
0.0074454298
0.026548803
0.0069272502
0.030971093
0.0062178361
0.033382463
0.0054118828
0.03313927
0.004613792
0.030397861
0.0039015811
0.025977083
0.020915145
0.0090443554
0.015998489
-0.0090423312
0.0088799571
0.021378435
0.008488846
0.026939113
0.0078553708
0.031603641
0.0070262166
0.03421062
0.0061028482
0.034061647
0.0051985038
0.03130129
0.0043962689
0.026778531
0.021573896
0.010232887
0.016008107
-0.010243
0.01001776
0.021592915
0.0095360696
0.027419998
0.0087920686
0.032346699
0.0078442537
0.035157408
0.0068050462
0.035099821
0.0057959824
0.032309392
0.00490632
0.027667362
0.022300786
0.01111121
-0.011163319
0.010885754
0.010407814
0.0096285395
0.0086037326
0.0074690427
0.0063638459
0.0053887551
-0.00046690886
0.012888413
-0.012421854
-0.0010264665
0.012981288
-0.012422108
-0.0016178673
0.013219087
-0.012628098
-0.0022322795
0.013608518
-0.012994562
-0.00287591
0.014090119
-0.013446993
0.014649282
-0.013971405
-0.00035726576
0.013245329
-0.00080663066
0.013430278
-0.001296461
0.013708506
-0.0018145077
0.014126113
-0.0023618106
0.014636923
0.015228029
-0.00024961101
0.013494593
-0.0006040344
0.013784328
-0.00099730987
0.014101376
-0.0014217514
0.014550109
-0.0018803971
0.015095077
0.015723356
-0.00016940829
0.013663652
-0.0004314473
0.014045994
-0.00073725932
0.014406783
-0.0010772525
0.014889662
-0.0014539106
0.015471253
0.016139109
-9.4630585e-05
0.013757923
-0.00027969832
0.014230679
-0.00050777388
0.014634449
-0.00077034282
0.015151789
-0.0010699352
0.015770368
0.016478215
-2.71082e-05
0.013784641
-0.00014818223
0.014351336
-0.00030348747
0.014789311
-0.00049477466
0.015342609
-0.00072274536
0.015997846
0.016744849
3.3920559e-05
0.013750279
-2.1402203e-05
0.014406205
-0.000113669
0.01488111
-0.00023938443
0.015467849
-0.00040048579
0.016158465
0.016943403
9.7910553e-05
0.013651811
0.00010278354
0.014400725
6.7572432e-05
0.014915643
9.4581549e-07
0.015533805
-9.7754819e-05
0.016256551
0.017077547
0.00013626677
0.013514784
0.00018184823
0.014354553
0.00021825487
0.014878768
0.00022357692
0.015528197
0.00019328687
0.016286706
0.017147078
0.00025819937
0.013257439
0.00045209708
0.014159891
0.00051320874
0.01481541
0.00053775284
0.015502127
0.00054108647
0.016282609
0.017184298
8.817432e-05
0.013164135
0.00014696441
0.014095841
0.00024775355
0.014716505
0.00032642917
0.015432056
0.00038144127
0.016234869
0.017105393
8.5984686e-05
0.013079733
0.00013104526
0.014054333
0.00022298246
0.014623804
0.00034511795
0.015302803
0.00048613791
0.016087959
0.016996979
0.00026069578
0.012820825
0.0005040074
0.013811928
0.00073470415
0.014391008
0.00094138809
0.015093332
0.0011131737
0.015913749
0.016845916
0.00056596409
0.012253393
0.00090993137
0.013468751
0.0011630251
0.014139444
0.0014026092
0.014854005
0.0016387399
0.015676772
0.016616852
0.00056684546
0.011687036
0.0009387702
0.013096981
0.0013097668
0.01376842
0.0016661601
0.014497179
0.0020049994
0.015337244
0.016291454
0.0006333726
0.011053356
0.0011267096
0.012603469
0.0015874884
0.013307352
0.0020290747
0.014055215
0.0024554974
0.014910343
0.015878539
0.00074778673
0.010305197
0.001377741
0.011973228
0.0019503616
0.01273443
0.0024954676
0.013509754
0.0030195289
0.01438585
0.015372282
0.00088762192
0.0094173031
0.001708561
0.011152028
0.002431499
0.012011192
0.0030954522
0.012845445
0.0037237291
0.013757153
0.01477327
0.0011283325
0.0082886872
0.0021757587
0.010104304
0.0030642624
0.011122357
0.0038646834
0.012044651
0.0046008626
0.013020552
0.014079851
0.0015409116
0.0067474776
0.002844002
0.0088008943
0.0039265472
0.010039466
0.0048548564
0.011115958
0.0056815217
0.012193461
0.013318272
0.0021610665
0.0045861132
0.003799702
0.0071619309
0.0049955635
0.0088432466
0.0060060073
0.01010512
0.0068954868
0.01130355
0.0125084
0.002763311
0.0018224064
0.0050235287
0.0049014354
0.0063904143
0.0074760682
0.0073661185
0.0091290597
0.0082342658
0.010434994
0.011699871
0.0023083661
-0.00048691136
0.0044987208
0.0027111361
0.0068282477
0.0051462725
0.0084266441
0.007530356
0.0094277775
0.0094334735
0.010884185
0.0010819962
-0.0015692318
0.0029560427
0.00083701003
0.0054508177
0.0026509329
0.0080316543
0.0049489918
0.0099752119
0.0074893556
0.00969552
0.00012463454
-0.0016937624
0.001497972
-0.00053679728
0.0034997882
0.00064865102
0.0063293851
0.0021188823
0.0097594296
0.004058778
0.0067147973
-0.00030048177
-0.0013934686
0.00031126473
-0.0011488321
0.0015840225
-0.00062448248
0.0034437579
0.00025871338
0.0059769672
0.0015251043
0.0035163242
-0.00012868008
-0.0012650687
-7.2662777e-05
-0.0012051689
0.00031537262
-0.0010128873
0.0012218793
-0.00064820964
0.0027067201
3.9803076e-05
0.0012374749
-5.2131583e-05
-0.0012132472
-8.3056723e-05
-0.0011745803
-4.0807499e-05
-0.0010555136
0.00019753656
-0.0008869726
0.00082531269
-0.00058843397
-5.9087434e-05
3.4444083e-05
-0.0012480134
4.3354151e-05
-0.0011838457
7.8705579e-05
-0.0010912542
0.00018069314
-0.00098938781
0.00043844622
-0.00084665576
-0.00062232855
1.4188655e-05
-0.0012625368
3.3075751e-05
-0.0012031038
7.0542667e-05
-0.0011291247
0.00014265514
-0.0010619412
0.00027966035
-0.00098414289
-0.00088164819
-9.4702502e-06
-0.0012534145
-2.9957237e-05
-0.0011829985
-3.4466993e-05
-0.0011250369
-1.9229658e-05
-0.0010776392
3.0902225e-05
-0.0010347786
-0.00098828195
-6.2125588e-05
-0.0011916491
-0.00013996785
-0.0011055524
-0.0002141905
-0.0010512487
-0.0002721078
-0.0010201976
-0.00030827236
-0.00099913728
-0.00098317097
-0.00016144151
-0.0010305798
-0.00030987482
-0.00095752836
-0.00045001698
-0.00091155424
-0.00058015371
-0.00089055344
-0.0006958633
-0.00088397115
-0.00088641053
-0.00023456334
-0.00079639853
-0.00045484317
-0.00073766885
-0.00066261072
-0.00070424791
-0.00086092053
-0.00069274868
-0.0010516575
-0.00069379428
-0.00070554869
-0.00027935327
-0.00051743372
-0.00056363302
-0.00045381404
-0.00083164009
-0.00043671117
-0.0010907834
-0.0004341223
-0.001344897
-0.00044025193
-0.00045535138
-0.00036042577
-0.00015739293
-0.00066211007
-0.00015254882
-0.00095634603
-0.00014293812
-0.0012495724
-0.00014141014
-0.001544263
-0.00014613453
-0.00015592061
-0.00036504507
0.00020727869
-0.0006966252
0.00017858495
-0.0010108871
0.00017083463
-0.0013218518
0.00016902095
-0.0016354507
0.00016687518
0.00016390643
-0.00033887307
0.00054576754
-0.00066911387
0.00050839718
-0.00098242468
0.00048366997
-0.0012895023
0.00047557119
-0.0015971473
0.00047393444
0.00047634973
-0.00030859098
0.00085398305
-0.0006001513
0.00079954067
-0.00088403614
0.00076709014
-0.0011628308
0.00075384608
-0.0014396176
0.00075014065
0.0007533972
-0.00026240849
0.0011160141
-0.00050323239
0.0010399437
-0.00073128772
0.00099467423
-0.00095197227
0.00097400253
-0.0011690759
0.00096665528
0.00096773608
-0.00018199516
0.0012976232
-0.00035392628
0.0012114492
-0.00051334512
0.0011536166
-0.00066194006
0.0011220647
-0.00079945686
0.0011035767
0.0010945716
-9.0943744e-05
0.001388179
-0.00017655095
0.0012966228
-0.00025400041
0.0012305818
-0.0003168585
0.0011843825
-0.00036503992
0.0011511554
0.0011228503
7.6496527e-06
0.0013801404
2.5891106e-06
0.0013012482
1.3701111e-05
0.0012189847
3.7537453e-05
0.0011600042
8.5021586e-05
0.001103065
0.0010366136
7.3336626e-05
0.0013064098
0.00014101417
0.0012331314
0.00022297388
0.0011365353
0.00033454825
0.0010478821
0.00049287096
0.00094412855
0.0008094035
8.6730177e-05
0.0012192741
0.00020883628
0.001110583
0.00034084098
0.0010040378
0.00051583891
0.0008723335
0.00079055087
0.00066879948
0.00040335937
0.00015654421
0.0010622989
0.00020289336
0.0010638035
0.0002894927
0.00091695271
0.0004814956
0.00067978391
0.00093340118
0.00021627978
-0.00037242952
2.8307066e-05
0.0010335894
5.6723765e-05
0.0010349355
0.0002101665
0.00076301377
0.00065164228
0.00023776116
0.0015906168
4.1067017e-05
0.00099211769
0.00022194411
0.00085361365
0.00088165252
-0.00068715487
-0.014799891
0.015486701
-0.0014363125
-0.015092087
0.015840862
-0.0022160886
-0.015461898
-0.016014619
-0.00078152773
-0.014018669
-0.0016202618
-0.01425369
-0.0024861779
-0.014596354
-0.003384776
-0.015116427
-0.0043241171
-0.015754783
-0.016488034
-0.0053109219
-0.00085859774
-0.01316034
-0.0017731616
-0.013339423
-0.0027170437
-0.013652798
-0.0036948055
-0.014139022
-0.0047117984
-0.014738177
-0.015427434
-0.0057728149
-0.00093009873
-0.01223048
-0.0019157039
-0.012354081
-0.0029308566
-0.012637935
-0.0039807595
-0.013089436
-0.0050706774
-0.013648605
-0.01429154
-0.0062069443
-0.00099186155
-0.011238835
-0.002044705
-0.011301475
-0.0031279043
-0.011554999
-0.0042462048
-0.011971425
-0.0054040298
-0.012491098
-0.013086553
-0.0066093644
-0.0010467139
-0.010192322
-0.0021670727
-0.010181339
-0.0033127984
-0.01040952
-0.0044913094
-0.010793188
-0.0057078619
-0.011274849
-0.011821253
-0.0069734967
-0.0011274037
-0.0090651122
-0.0023091394
-0.0089998191
-0.0034996109
-0.0092192881
-0.0047179995
-0.0095750664
-0.0059809096
-0.010012237
-0.010507024
-0.0072954705
-0.0012935138
-0.0077717907
-0.0024781095
-0.0078154344
-0.003679761
-0.0080178723
-0.0049196392
-0.0083354533
-0.0062135659
-0.008718608
-0.0091517352
-0.007569191
-0.0012771825
-0.0064947996
-0.0025167407
-0.006576087
-0.0037605087
-0.0067743406
-0.0050474541
-0.0070487747
-0.0063941949
-0.0073721697
-0.0077462098
-0.007800064
-0.0012839366
-0.0052110578
-0.0025391044
-0.0053211354
-0.0038253214
-0.0054883658
-0.0051615497
-0.0057128203
-0.0065459297
-0.0059881007
-0.006304292
-0.0079882015
-0.0012829858
-0.0039282716
-0.0025669213
-0.0040374214
-0.0038909696
-0.0041645661
-0.0052530495
-0.0043510222
-0.0066649421
-0.0045765285
-0.0048341125
-0.0081354868
-0.0012467153
-0.0026817601
-0.0025710855
-0.002713277
-0.0039253229
-0.0028105824
-0.0053134188
-0.0029632145
-0.0067479637
-0.0031423122
-0.0033422775
-0.0082401736
-0.0012502753
-0.0014316978
-0.002619974
-0.0013438135
-0.0039799741
-0.0014508456
-0.0053701612
-0.001573325
-0.006810103
-0.0017027087
-0.00184187
-0.0083108958
-0.0015742647
0.00014233783
-0.0028111537
-0.00010717728
-0.0040866435
-0.00017563712
-0.0054381902
-0.0002220929
-0.0068628221
-0.00027843137
-0.00034588569
-0.0083592077
-0.0012553032
0.0013974002
-0.002615695
0.0012529745
-0.003981382
0.0011897814
-0.0053778389
0.0011740539
-0.0068253029
0.0011686764
0.0011634479
-0.0083350436
-0.0012399552
0.0026371159
-0.0025559473
0.0025687112
-0.0039164504
0.0025500006
-0.0053174807
0.0025747622
-0.0067680534
0.0026188823
0.0026732654
-0.0082782885
-0.0012487982
0.0038856692
-0.0025495842
0.0038692279
-0.0038944407
0.003894557
-0.0052796256
0.0039596094
-0.0067172477
0.0040561227
0.0041713761
-0.0082157905
-0.0012851459
0.0051705612
-0.0025538465
0.0051376493
-0.0038635587
0.0052039582
-0.0052314222
0.005327124
-0.0066522719
0.0054765792
0.0056532421
-0.0081345821
-0.0012836183
0.0064539137
-0.0025497257
0.0064034652
-0.0038372577
0.0064911662
-0.0051764797
0.0066659829
-0.0065767496
0.0068764406
0.007112763
-0.0080367309
-0.001292635
0.0077462704
-0.002559212
0.0076697361
-0.0038346382
0.0077662529
-0.0051430774
0.007974043
-0.0065089278
0.0082418649
0.0085409182
-0.0079375614
-0.0013196973
0.0090656769
-0.0025415502
0.0088912676
-0.0037869194
0.009011266
-0.0050727163
0.0092594426
-0.0064097649
0.0095784683
0.0099382943
-0.00780764
-0.0011892024
0.010254572
-0.0024114572
0.010113186
-0.0036547938
0.01025423
-0.0049378055
0.010542038
-0.0062663647
0.010906562
0.011314659
-0.0076432515
-0.0011096358
0.011363882
-0.0023019123
0.011305106
-0.0035209536
0.011472879
-0.0047794392
0.011800087
-0.0060839656
0.012210599
0.012663573
-0.0074334288
-0.0010583145
-0.0021756889
-0.0033313205
-0.0045262537
-0.0057631615
-0.0070715683
-1.7272557e-05
0.0010089883
-0.016093829
-0.00060752485
-0.0068832049
-0.0074174206
0.0072285962
-0.0063970756
-0.0079200246
-0.0057822096
-0.0082585839
-0.0050457636
-0.0085445513
-0.0042035519
-0.0087802372
-0.0032601405
-0.0089806059
-0.002229286
-0.0091658988
-0.0011277486
-0.0093177884
2.7786403e-05
-0.0094342788
0.0012099116
-0.0095176203
0.0023955403
-0.0095452825
0.0035854026
-0.0095011905
0.0047571066
-0.0094122995
0.0058891814
-0.0092679714
0.0069647597
-0.0090641746
0.0079648467
-0.0088005296
0.0088800893
-0.0084847964
0.0097025071
-0.0081182366
0.010414512
-0.0076858381
0.011001874
-0.0071970568
0.011454683
-0.0066600882
0.01176521
-0.0060836919
-0.0054779009
-0.0069931831
-0.0079108382
0.0074860895
-0.0063819913
-0.0085317356
-0.0056653463
-0.0089757504
-0.0048482107
-0.0093622102
-0.0039446553
-0.0096843181
-0.0029451159
-0.0099806727
-0.0018682599
-0.010243284
-0.00073155793
-0.010455019
0.00044837362
-0.010614735
0.0016485187
-0.010718287
0.0028519619
-0.01074924
0.0040550064
-0.010704736
0.0052388828
-0.010596666
0.0063869932
-0.010416558
0.0074856815
-0.010163323
0.0085218655
-0.0098371564
0.009472506
-0.0094358608
0.010335414
-0.0089815484
0.011110941
-0.0084617481
0.011775921
-0.0078624048
0.012319028
-0.0072035559
0.012730579
-0.006495608
-0.0057553498
-0.0069069778
-0.0085364384
0.0075320165
-0.0061923618
-0.0092469285
-0.0053920441
-0.0097766516
-0.0045185545
-0.01023629
-0.0035547632
-0.010648706
-0.0025024251
-0.011033613
-0.0013892065
-0.011357109
-0.00022837293
-0.01161646
0.00096568107
-0.011809394
0.0021745555
-0.011927763
0.0033858369
-0.011961113
0.0045930137
-0.011912493
0.0057807981
-0.01178502
0.006936303
-0.011572618
0.0080477141
-0.011275273
0.0091036306
-0.010893593
0.010095026
-0.010427754
0.010997917
-0.0098849132
0.011817942
-0.0092822206
0.012549897
-0.0085947826
0.013176233
-0.0078302934
0.013686056
-0.0070058216
-0.0061417264
-0.0066255466
-0.0092731974
0.0073616845
-0.0058254543
-0.010047665
-0.0049667463
-0.010636017
-0.0040303275
-0.011173378
-0.0030027679
-0.011676947
-0.0019156674
-0.012121404
-0.00077944536
-0.012494027
0.00039426552
-0.012790868
0.0015915292
-0.013007355
0.0027987535
-0.013135681
0.0040075502
-0.013170593
0.0052096077
-0.013115222
0.006392834
-0.012968907
0.0075473119
-0.012727743
0.008663428
-0.01239202
0.0097317904
-0.011962567
0.010743789
-0.011440342
0.011687495
-0.010829181
0.012548854
-0.010144111
0.013338579
-0.0093850036
0.014042194
-0.0085343708
0.014646092
-0.0076101567
-0.0066354159
-0.0061302157
-0.010099919
0.006956244
-0.0052730555
-0.01090555
-0.0043533328
-0.011556486
-0.0033500195
-0.012177456
-0.0022870156
-0.012740731
-0.0011770305
-0.013232181
-2.9222246e-05
-0.013642635
0.0011458079
-0.013966701
0.0023365151
-0.014198865
0.003532725
-0.014332688
0.0047283327
-0.014366989
0.0059159577
-0.014303625
0.0070860502
-0.014139767
0.0082310853
-0.013873533
0.0093437439
-0.013505419
0.010416989
-0.013036534
0.01144444
-0.012468492
0.012418594
-0.011804005
0.013320099
-0.011046249
0.014150208
-0.010215704
0.014917688
-0.0093023976
0.015606491
-0.0082994652
-0.0072310502
-0.005411235
-0.0109824
0.0062929306
-0.004502608
-0.011815001
-0.0035223206
-0.012537625
-0.0024833195
-0.013217333
-0.0013979289
-0.013827017
-0.00027693595
-0.014354084
0.00087040446
-0.014790894
0.002035574
-0.015132794
0.0032094542
-0.015373669
0.0043852163
-0.015509369
0.0055585814
-0.015541264
0.0067229446
-0.01546889
0.0078715721
-0.015289289
0.0089989365
-0.015001781
0.010099566
-0.014606919
0.01116811
-0.014105932
0.012199431
-0.013500644
0.013188225
-0.012793599
0.014128945
-0.01198773
0.015002046
-0.011089518
0.015813959
-0.010114967
0.016571393
-0.0090575015
-0.0079178874
-0.0044758465
-0.011886676
0.0053792271
-0.0035159397
-0.01277585
-0.0024905636
-0.013563979
-0.0014239826
-0.01428492
-0.00032704625
-0.014924982
0.00079214434
-0.015474319
0.0019267311
-0.015926536
0.0030699935
-0.016277117
0.0042162917
-0.016521029
0.0053627097
-0.016656845
0.0065054181
-0.016685026
0.0076390672
-0.016603588
0.0087592647
-0.016410529
0.0098620945
-0.016105647
0.010943648
-0.0156895
0.01200001
-0.015163306
0.013027306
-0.014528931
0.01402169
-0.013788942
0.014979556
-0.012946511
0.015894977
-0.012005799
0.016752491
-0.010973277
0.017558548
-0.0098642859
-0.0086774831
-0.0032885541
-0.012846041
0.0042468931
-0.0022769065
-0.013788579
-0.0012286622
-0.014613346
-0.00015677996
-0.015357956
0.00093154075
-0.016014482
0.0020312598
-0.016575236
0.0031384012
-0.017034889
0.0042483771
-0.017388312
0.0053583491
-0.017632221
0.0064671931
-0.017766909
0.0075718369
-0.01779089
0.0086686628
-0.017701636
0.0097549488
-0.017498036
0.010828042
-0.017179958
0.011885253
-0.016747924
0.012923834
-0.016203088
0.013940995
-0.015547272
0.01493392
-0.014783013
0.01589986
-0.013913547
0.016835866
-0.012942838
0.017737458
-0.011875826
0.018592274
-0.010719978
-0.0094913385
-0.0018049941
-0.013848133
0.0028059092
-0.0007862378
-0.014808571
0.00025131273
-0.015652179
0.0013016346
-0.016409597
0.0023602797
-0.017074475
0.0034242617
-0.017640589
0.0044902098
-0.018102222
0.0055560507
-0.018455547
0.006622221
-0.018699793
0.0076874243
-0.018833522
0.0087490714
-0.018853954
0.0098052853
-0.018759271
0.010854466
-0.018548643
0.011894946
-0.018221867
0.012924965
-0.01777937
0.013942672
-0.017222212
0.014946134
-0.016552128
0.015933326
-0.01577156
0.016902163
-0.01488368
0.017850515
-0.013892409
0.018776148
-0.012802587
0.019675722
-0.011620586
-0.010356035
-0.00011759185
-0.014842353
0.0011104535
0.00087990771
-0.01580747
0.0018857368
-0.016659466
0.0028971233
-0.017422486
0.003911381
-0.018090267
0.0049262485
-0.018657015
0.0059409894
-0.019118539
0.006957006
-0.019473155
0.0079743627
-0.019718758
0.0089916189
-0.019852401
0.010007766
-0.019871737
0.011022054
-0.019775206
0.0120336
-0.019561844
0.013041399
-0.019231326
0.014044347
-0.018783974
0.015041264
-0.018220769
0.016030886
-0.01754336
0.017011846
-0.016754077
0.017982635
-0.015855949
0.018941592
-0.014852747
0.019886947
-0.013749208
0.020816653
-0.012551449
-0.011267465
0.001693943
-0.015800675
-0.00073715031
0.0026439877
-0.016759115
0.0035967203
-0.017613855
0.0045498692
-0.018377333