/*--------------------------------*- C++ -*----------------------------------*\
| =========                 |                                                 |
| \\      /  F ield         | OpenFOAM: The Open Source CFD Toolbox           |
|  \\    /   O peration     | Version:  2406                                  |
|   \\  /    A nd           | Website:  www.openfoam.com                      |
|    \\/     M anipulation  |                                                 |
\*---------------------------------------------------------------------------*/
FoamFile
{
    version     2.0;
    format      ascii;
    arch        "LSB;label=32;scalar=64";
    class       volScalarField;
    location    "0.043";
    object      k;
}
// * * * * * * * * * * * * * * * * * * * * * * * * * * * * * * * * * * * * * //

dimensions      [0 2 -2 0 0 0 0];

internalField   nonuniform List<scalar> 
35803
(
824.60891
805.19944
779.42262
747.02848
707.83675
661.86633
609.5859
551.98572
490.52595
427.01591
363.1838
300.71371
241.12319
185.6556
135.22173
90.520611
52.139677
21.942066
6.3645343
2.139392
1.274914
0.93858955
0.71829775
0.6098044
0.53542573
0.49223184
0.4639546
0.4266874
0.41776455
0.3995011
0.3929886
811.74005
790.24628
762.88399
729.6466
690.31096
644.82976
593.55628
537.33037
477.54042
415.82453
353.78789
292.95218
234.8049
180.57713
131.19234
87.375971
49.798734
20.547784
5.7750684
2.0434519
1.2458441
0.92576161
0.71108857
0.60563609
0.53308814
0.4910105
0.46338901
0.42639903
0.41750164
0.39944581
0.39300932
792.85574
770.02204
741.84422
708.31173
669.25489
624.63375
574.73572
520.2879
462.51285
402.89026
342.90294
283.9667
227.50161
174.71764
126.55238
83.761839
47.107258
18.938266
5.2410093
1.9524772
1.2292056
0.91842649
0.70695966
0.60287623
0.53145308
0.49013375
0.46308394
0.42615089
0.41726024
0.3994195
0.393032
766.26064
742.76087
714.56226
681.51966
643.4474
600.30628
552.34067
500.18247
444.88451
387.76796
330.19399
273.49166
219.00536
167.91748
121.18192
79.589006
44.00752
17.100132
4.7216402
1.8610554
1.2047684
0.90658001
0.70068566
0.59901556
0.52926588
0.48883912
0.46259107
0.4258996
0.41691202
0.39938057
0.39305832
731.26826
707.92133
680.44772
648.63332
612.26161
571.26971
525.85309
476.54566
424.24355
370.10671
315.37514
261.2918
209.12533
160.02523
114.96382
74.767538
40.44065
15.046466
4.2044114
1.7678262
1.180974
0.89509822
0.6944045
0.59534003
0.52750898
0.48756831
0.46219197
0.42563153
0.4165523
0.39934733
0.39308926
687.45615
665.08196
639.07978
609.20665
575.22935
537.05585
494.82278
448.95962
400.20976
349.56993
298.15537
247.12051
197.65628
150.87448
107.76843
69.199691
36.349515
12.822968
3.6933882
1.6734651
1.1534721
0.88097928
0.68701143
0.59079815
0.52536953
0.48602534
0.46169018
0.42533834
0.4161615
0.39930761
0.39310394
634.78586
614.13817
590.29758
563.02464
532.08254
497.3541
458.91324
417.07997
372.44553
325.84146
278.24907
230.72617
184.38164
140.28469
99.453836
62.782466
31.689264
10.504338
3.2013024
1.581315
1.1246575
0.86588022
0.67961104
0.58607309
0.52295673
0.48428952
0.46119899
0.42502081
0.41578044
0.39927036
0.39310509
573.70713
555.46378
534.3518
510.23203
482.86991
452.12474
418.00686
380.72779
340.73045
298.68106
255.41539
211.8795
169.0921
128.07362
89.874131
55.418352
26.450686
8.202542
2.7457741
1.4967762
1.0927558
0.84840709
0.67043625
0.58073987
0.51996412
0.48227797
0.46054734
0.42466642
0.41534032
0.39922772
0.39313457
505.54163
490.082
472.09863
451.51869
428.11658
401.73244
372.31952
339.98983
305.04707
267.99462
229.51144
190.41268
151.61392
114.07858
78.894022
47.036145
20.716075
6.2757201
2.3477249
1.4100114
1.0585472
0.82940072
0.66028854
0.57410264
0.51659776
0.4799636
0.45977
0.42426678
0.41490951
0.3991884
0.3931746
432.37704
419.81885
405.10422
388.19979
368.89323
347.01445
322.47239
295.29398
265.65609
233.90448
200.55328
166.26875
131.84804
98.189468
66.425433
37.618948
14.745059
4.6389527
2.01018
1.3268849
1.0210512
0.80789502
0.64926887
0.56610511
0.51261845
0.47720049
0.45871075
0.42381441
0.41461532
0.39914607
0.39319221
356.58905
346.84363
335.31038
321.98398
306.67456
289.21425
269.48257
247.43821
223.14773
196.81129
168.77955
139.56015
109.82222
80.398208
52.473679
27.28704
9.2363529
3.3327681
1.7390647
1.2432265
0.98050839
0.78444531
0.63713177
0.55802861
0.50817632
0.47391623
0.45738928
0.423292
0.41430865
0.39910082
0.39314638
280.6997
273.52521
264.92318
254.90046
243.29651
229.95937
214.75786
197.60191
178.46975
157.43769
134.70711
110.63059
85.758304
60.880574
37.223184
16.541143
5.6752975
2.4532785
1.5589499
1.160343
0.93641846
0.75837783
0.62337643
0.54909438
0.50307364
0.47010346
0.45543155
0.42272593
0.41384394
0.39904833
0.3931584
207.29276
202.25476
196.17774
189.05805
180.74681
171.0973
159.97452
147.26182
132.88158
116.82196
99.161432
80.112866
60.166688
40.157901
21.271222
8.1711425
3.3591888
1.883125
1.3927925
1.0737481
0.88958292
0.73031836
0.60857579
0.53954882
0.49758504
0.46601458
0.45321494
0.4218883
0.41330004
0.39899151
0.39319293
138.45314
135.13815
131.12678
126.40466
120.85791
114.3578
106.76715
97.952958
87.807883
76.269618
63.309146
48.999794
34.031229
19.637195
9.3772594
4.0097423
2.1952058
1.5894628
1.2406718
0.99256271
0.83958802
0.69961492
0.59269828
0.52880488
0.49134616
0.46155273
0.450487
0.42092436
0.41276954
0.39895635
0.39321295
76.374761
74.420368
72.051082
69.244485
65.908315
61.940181
57.238
51.696378
45.235688
37.850909
29.800987
21.727265
14.131234
7.8984937
3.9914119
2.2707299
1.6791257
1.3653368
1.1090721
0.90494726
0.78665928
0.66795293
0.5757075
0.51780709
0.48450595
0.45675242
0.44774102
0.41977123
0.41206628
0.39895061
0.39324071
31.274261
30.380564
29.335552
28.127684
26.68613
24.931542
22.821347
20.324559
17.451126
14.257341
10.94395
7.8260481
5.2386029
3.2708399
2.1234343
1.630874
1.4111144
1.1591719
0.95490998
0.82550022
0.73273639
0.63525875
0.55692375
0.50586005
0.47705373
0.45134069
0.44451656
0.41852331
0.41135249
0.39896836
0.39327932
10.268963
10.023781
9.7132284
9.3356387
8.8760241
8.3137925
7.659888
6.8828602
5.972883
4.976238
3.9762431
3.0329275
2.2720563
1.7291766
1.4790564
1.3190156
1.1070185
0.98070792
0.86455497
0.74743097
0.67540459
0.60275612
0.53740203
0.49313588
0.46906425
0.44622211
0.4418662
0.41701655
0.41069524
0.39903677
0.39332906
3.4129725
3.374826
3.3110367
3.2171776
3.0937226
2.9375326
2.7499644
2.5377936
2.2910212
2.0220423
1.761688
1.5039564
1.3092098
1.1930592
1.1670721
1.0225203
0.9343689
0.83222079
0.7412781
0.67449352
0.62391626
0.56928819
0.51463764
0.48044909
0.46082652
0.44080707
0.43799297
0.41529838
0.40983009
0.39919886
0.39339092
1.4566094
1.4488977
1.434658
1.4129009
1.3840697
1.34776
1.3023572
1.2452524
1.1830142
1.116747
1.0511262
1.0004415
0.96103151
0.91446902
0.86300339
0.84185346
0.7540987
0.7141878
0.67509644
0.61561485
0.57280868
0.53626002
0.49410754
0.46685335
0.45284128
0.43587609
0.43293723
0.41328695
0.40850297
0.39948151
0.3935061
0.89689215
0.89228385
0.88683567
0.88003994
0.87155693
0.86162659
0.85024714
0.83704677
0.8273273
0.8209425
0.80439996
0.79177816
0.75296256
0.73783295
0.70139744
0.67740763
0.65356072
0.6303687
0.58849309
0.56605713
0.53987449
0.50304514
0.47399439
0.45456002
0.44423744
0.43145538
0.4296802
0.41101297
0.40641007
0.39986639
0.39397279
0.70316723
0.70078458
0.69919446
0.698055
0.69686317
0.69633188
0.69639438
0.69580553
0.69176696
0.68063067
0.66261176
0.65129543
0.63176167
0.63010027
0.60738544
0.58737684
0.56403272
0.54441001
0.53965338
0.53015274
0.50195055
0.47333941
0.4600086
0.44106202
0.43666941
0.42679809
0.42330732
0.40847468
0.40426739
0.40026189
0.39429195
0.58956124
0.58718127
0.58406693
0.58003964
0.57654752
0.57352336
0.57072838
0.56811569
0.56576679
0.5634351
0.56325946
0.56422675
0.56344411
0.53711811
0.53435128
0.51569791
0.51601406
0.50245824
0.48859621
0.48178513
0.47172616
0.45413705
0.44279738
0.43198545
0.42642574
0.42207355
0.41960172
0.40627107
0.40251499
0.40038792
0.3944812
0.50925584
0.50943002
0.51010241
0.51114993
0.51204854
0.5127124
0.51316456
0.51311877
0.51209231
0.50874451
0.50066844
0.49001204
0.48468783
0.48220104
0.4773351
0.47594301
0.46579797
0.46883087
0.46327268
0.45648106
0.45043191
0.43688964
0.4272912
0.42066142
0.41849965
0.4171257
0.41518564
0.40425265
0.4008443
0.3998205
0.39350183
0.46262669
0.46186066
0.46066749
0.45904594
0.45760301
0.45629549
0.4551245
0.45400529
0.45283487
0.45156676
0.45023162
0.45031233
0.44972513
0.44856639
0.44384516
0.44455199
0.44190323
0.43858749
0.44716007
0.44140285
0.4313475
0.42235889
0.41435818
0.41351795
0.41183307
0.41069487
0.41015084
0.40230828
0.39953159
0.39811236
0.39369223
0.42938142
0.42929067
0.42910049
0.4288276
0.42861402
0.42867404
0.42889221
0.42892913
0.42849544
0.42724508
0.42501848
0.42295014
0.42217704
0.4218805
0.42222215
0.42152352
0.42431414
0.42151704
0.42277854
0.42263362
0.41808716
0.41382512
0.40539746
0.40753836
0.40625011
0.4063128
0.40745429
0.40103768
0.39905243
0.39749554
0.39404229
0.41287659
0.41281256
0.41263911
0.41236826
0.41203538
0.4116294
0.4111456
0.41060438
0.41027611
0.41009466
0.4098387
0.40987828
0.4101294
0.41039125
0.41013427
0.41063997
0.41026123
0.40960402
0.40966363
0.40838904
0.40675315
0.40532619
0.40112747
0.40258285
0.40329003
0.40366321
0.40479593
0.39988022
0.39899862
0.39689671
0.39485045
0.40375475
0.40375404
0.4037132
0.40363777
0.40356256
0.40351266
0.40353078
0.40370707
0.40397325
0.40424269
0.40449917
0.40458572
0.404409
0.4039405
0.40408805
0.40356055
0.40385117
0.40348194
0.40331603
0.40304786
0.4023694
0.40141188
0.39913712
0.39954239
0.40095555
0.40095037
0.40275416
0.39871411
0.39870446
0.39644946
0.3952326
0.39941738
0.39940353
0.39936144
0.39929398
0.39921708
0.3991413
0.39907479
0.39902306
0.39900646
0.39903959
0.39908456
0.39912534
0.39914977
0.39917819
0.39929241
0.39959999
0.39957633
0.40010673
0.40019294
0.40005452
0.4003731
0.3993245
0.39846046
0.39848859
0.39868321
0.3988988
0.39971411
0.39782899
0.39722577
0.39631599
0.39558521
0.39742471
0.39740397
0.39737645
0.39734193
0.39730732
0.39728279
0.39727894
0.39730046
0.39734347
0.39738628
0.39741478
0.39744594
0.39748781
0.3975492
0.39763621
0.39777609
0.39789834
0.39811849
0.39863961
0.39845841
0.39898051
0.39833927
0.39857705
0.39819845
0.39788204
0.39799769
0.39841164
0.39743887
0.39676651
0.39643829
0.39600705
0.39699487
0.39698227
0.39696788
0.39695268
0.39693893
0.39692892
0.39692458
0.39692612
0.39693193
0.39693712
0.39693978
0.39694607
0.39696613
0.39701398
0.39709163
0.39720349
0.39734174
0.39751523
0.39780425
0.39780027
0.39789616
0.39771465
0.39789398
0.3987596
0.39768527
0.39770572
0.39791602
0.39747038
0.39679623
0.39696049
0.39681039
0.3976239
0.39761433
0.39760176
0.39758702
0.39757131
0.39755572
0.39754106
0.39752776
0.39751601
0.39750576
0.39749631
0.39748691
0.39747738
0.39746812
0.39745975
0.39745365
0.3974506
0.39744959
0.39749654
0.39749477
0.3975198
0.3974076
0.39753233
0.39810798
0.39750265
0.39748261
0.39762358
0.39770574
0.3973475
0.39734288
0.39725829
126.40615
165.46228
208.15581
244.9239
296.54151
362.73424
422.42384
461.59866
476.18811
471.50336
447.97007
404.18941
351.3574
293.61836
234.7865
178.17238
126.17085
80.08454
42.151692
16.682912
5.0115428
1.7603759
1.0012811
0.75023006
0.61860879
0.54045295
0.48575629
0.4397935
0.42560639
0.40188853
0.391344
149.61604
195.21241
233.82692
273.51852
334.14329
397.17594
446.63838
475.08699
481.74273
472.57311
443.34927
397.64789
344.2445
286.74053
228.64607
172.99556
121.99963
76.865193
39.934051
15.48914
4.602578
1.6727291
0.97821523
0.7420483
0.61449718
0.53834764
0.48463608
0.43932594
0.42552329
0.40180221
0.3913675
178.22327
218.40038
248.21547
297.85561
362.34675
421.60859
463.82518
484.56948
485.69063
472.09553
438.11229
391.1018
337.31771
280.10538
222.7404
168.02078
117.99242
73.773501
37.820667
14.383473
4.2536926
1.5979331
0.96373182
0.73653956
0.61150324
0.53679087
0.48382125
0.43898793
0.42546508
0.40171234
0.39139283
205.3478
233.78473
270.68087
329.91902
392.67839
444.65127
478.54398
491.98556
488.48031
470.16358
432.61477
384.61384
330.57624
273.7003
217.05756
163.23843
114.14118
70.802277
35.807235
13.357991
3.9448789
1.532003
0.94844965
0.73041739
0.60817528
0.53503697
0.48289661
0.43859455
0.42538568
0.40162434
0.39142046
223.60478
248.9213
299.41403
361.95031
420.22355
464.64417
490.75379
497.88075
490.75392
466.93688
427.02125
378.21098
324.01734
267.51506
211.58741
158.64012
110.43887
67.946303
33.892196
12.404981
3.6678865
1.4732126
0.93487147
0.72487775
0.60509012
0.53341104
0.48204521
0.43823797
0.42530241
0.40153724
0.39145137
234.30001
272.92701
332.4251
393.54967
445.34246
481.9572
500.82188
502.68757
491.56736
462.99275
421.40156
371.91196
317.6426
261.54404
206.32277
154.21918
106.87951
65.20087
32.071563
11.518737
3.4175834
1.4205889
0.9220825
0.71947044
0.60201863
0.53177408
0.48117476
0.4378736
0.42520397
0.40145151
0.39148392
252.1336
306.02321
366.91148
423.07304
467.56147
496.68622
508.99151
506.48998
491.10975
458.75007
415.79994
365.73272
311.45547
255.78371
201.25792
149.96979
103.45771
62.562018
30.341036
10.695064
3.191076
1.3734975
0.91021786
0.71434834
0.59905628
0.53019017
0.48031888
0.43752531
0.42509614
0.40136768
0.39151826
282.74774
341.62224
399.82639
449.7153
486.91476
509.09496
515.67006
509.72398
489.29754
454.35705
410.24008
359.68779
305.46019
250.23173
196.38804
145.8868
100.1686
60.0251
28.696611
9.930626
2.9863037
1.3315585
0.89909642
0.7094333
0.59616515
0.52863368
0.47945256
0.43718243
0.42497843
0.40128582
0.39155516
318.98488
377.41222
430.43026
473.4146
503.61802
519.47624
521.26282
511.48192
486.68705
449.88206
404.74362
353.79127
299.66124
244.88639
191.709
141.96559
97.007791
57.585725
27.133685
9.2225686
2.8015346
1.2948743
0.88865029
0.7047358
0.59336555
0.52712036
0.47858292
0.43685159
0.42485439
0.40120575
0.39159459
356.76539
411.21358
457.95177
494.16482
517.91974
528.09686
526.04322
512.01537
483.80377
445.379
399.33217
348.05654
294.06293
239.74637
187.2171
138.20196
93.971359
55.242537
25.648044
8.5681598
2.6350989
1.2616359
0.87878284
0.70023022
0.59065426
0.52564785
0.47771192
0.43653029
0.42472338
0.40112673
0.391637
393.15813
441.99618
482.35831
512.23932
530.13181
535.35346
529.9154
511.6098
480.74856
440.87298
394.02653
342.49595
288.66909
234.81039
182.90896
134.59208
91.055757
52.994383
24.236586
7.9668369
2.4854815
1.2317534
0.86944223
0.69590487
0.58804
0.52422282
0.47684188
0.43621973
0.42458494
0.40104823
0.391681
426.56635
469.56043
503.87638
527.94408
540.54123
541.57549
532.66028
510.40266
477.55355
436.39306
388.84752
337.1206
283.48299
230.0772
178.78143
131.13242
88.258238
50.83896
22.895815
7.4154644
2.3511638
1.2047489
0.86056316
0.69174195
0.58552751
0.52284775
0.47597859
0.43591867
0.42443934
0.40097067
0.39172634
456.77538
494.09372
522.79744
541.57449
549.38824
547.05556
534.07438
508.88691
474.2911
431.97121
383.81471
331.94022
278.50726
225.54544
174.83149
127.81972
85.57711
48.775266
21.623272
6.9084938
2.2307418
1.1803093
0.8520979
0.68772677
0.58312423
0.52152647
0.47513484
0.43562696
0.42428726
0.40089467
0.39177326
483.79762
515.83639
539.42242
553.42347
557.05149
551.62199
534.7098
507.20411
471.0018
427.636
378.94571
326.96315
273.74392
221.21364
171.05626
124.65089
83.009805
46.801739
20.41925
6.4428172
2.1229492
1.1581267
0.84400159
0.68384458
0.58083683
0.52026087
0.47432333
0.43534335
0.42412803
0.40082026
0.39182172
507.89782
535.10813
554.0562
563.75138
563.82052
555.20757
534.9407
505.39392
467.7212
423.41414
374.25623
322.19646
269.19441
217.08019
167.45292
121.62296
80.553612
44.916802
19.282885
6.0160815
2.0266189
1.1379398
0.83623818
0.68008276
0.57867216
0.51905175
0.47355641
0.43506727
0.42396077
0.40074751
0.3918705
529.38412
552.2211
566.97672
572.76159
569.9794
557.7508
534.92962
503.4993
464.48557
419.33031
369.76005
317.64605
264.85965
213.14342
164.01875
118.73311
78.206851
43.118937
18.21295
5.6261352
1.9406645
1.1195341
0.82877798
0.67643066
0.57663601
0.51789783
0.47284325
0.43479767
0.42378513
0.4006766
0.39191917
548.58386
567.47478
578.4517
580.81345
575.26161
559.68778
534.69052
501.56326
461.32973
415.40668
365.46908
313.31676
260.74016
209.40153
160.7511
115.97863
75.967935
41.406633
17.207829
5.2708878
1.8640732
1.1027119
0.82159832
0.67288035
0.57473266
0.51679617
0.47218767
0.43453354
0.4235999
0.40060763
0.39196775
565.80541
581.13753
588.69437
588.13373
579.68924
561.25828
534.31265
499.63537
458.28598
411.66282
361.39357
309.21253
256.83604
205.85269
157.64738
113.35774
73.835123
39.778594
16.265575
4.9482739
1.7959058
1.0872703
0.8146844
0.66942686
0.57296353
0.51574308
0.47158801
0.43427336
0.42340311
0.40054069
0.39201606
581.33005
593.45083
597.90294
594.87239
583.34712
562.63013
533.86614
497.75951
455.38293
408.11581
357.54224
305.33652
253.14711
202.49502
154.70498
110.86761
71.806632
38.233615
15.384023
4.6562231
1.7352984
1.0730514
0.80802942
0.66606852
0.57132604
0.51473632
0.47103745
0.43401486
0.42319385
0.40047566
0.39206346
595.40891
604.63538
606.33677
600.906
586.58497
563.84891
533.40319
495.97387
452.64564
404.78045
353.92248
301.69123
249.67296
199.32663
151.92133
108.50456
69.878806
36.770317
14.560881
4.3926473
1.6814612
1.0599309
0.80163312
0.66280704
0.56981238
0.51377584
0.47052697
0.43375668
0.42297196
0.40041255
0.39211022
608.26431
614.86329
614.18769
606.28417
589.5721
564.97906
532.97213
494.31218
450.09602
401.6695
350.54054
298.27864
246.413
196.34567
149.29404
106.26652
68.047471
35.386923
13.79378
4.1554696
1.6336774
1.0477983
0.79550095
0.65964744
0.56840894
0.51286081
0.4700479
0.43349835
0.42273626
0.40035128
0.39215692
620.09897
624.29979
621.56176
611.13608
592.41031
566.07787
532.61547
492.80384
447.75306
398.79395
347.40168
295.10026
243.36651
193.55041
146.82272
104.15161
66.310103
34.081226
13.080266
3.942666
1.5913021
1.0365596
0.78964235
0.65659756
0.56709688
0.51198649
0.46959393
0.43324107
0.42248649
0.40029189
0.39220293
631.09664
633.12711
628.42202
615.70101
595.14572
567.19259
532.37029
491.47426
445.63321
396.16323
344.51033
292.15731
240.5327
190.93894
144.5049
102.1584
64.664131
32.851473
12.417814
3.7522962
1.5537638
1.0261332
0.78406845
0.65366719
0.56585418
0.51114493
0.46916156
0.43298804
0.4222254
0.40023454
0.39224805
641.40429
641.48385
634.8425
620.09
597.83536
568.36627
532.26933
490.34522
443.75065
393.78542
341.87021
289.45074
237.91076
188.51081
142.3366
100.28517
63.109014
31.693746
11.804079
3.5827076
1.5205732
1.0164491
0.77878942
0.65086664
0.56465606
0.51032537
0.46875018
0.4327428
0.42195615
0.40017914
0.39229209
651.13648
649.52973
640.87267
624.38147
600.52816
569.63594
532.32823
489.43521
442.11767
391.66743
339.48446
286.98138
235.49987
186.26429
140.31708
98.530407
61.644436
30.605175
11.237042
3.4325062
1.4913488
1.0074468
0.77381177
0.64820486
0.56346999
0.50951469
0.46836032
0.43250696
0.42168358
0.40012557
0.39233489
660.41542
657.21137
646.70277
628.61165
603.2655
571.0325
532.5513
488.76123
440.74496
389.81523
337.35574
284.7498
233.30281
184.19673
138.44515
96.892744
60.269616
29.583368
10.714871
3.2992965
1.4658954
0.99907494
0.76913602
0.6456872
0.56226198
0.50870001
0.46799148
0.43228128
0.42141225
0.40007382
0.39237631
669.3237
664.60045
652.4096
632.82763
606.08344
572.58684
532.99661
488.34075
439.64193
388.23405
335.48605
282.75892
231.31793
182.30824
136.71967
95.370998
58.983375
28.625866
10.235749
3.181435
1.4436297
0.99128972
0.76475508
0.64331315
0.56100562
0.50787293
0.46764243
0.43206828
0.42114375
0.40002399
0.39241616
677.93516
671.75256
658.04464
637.06532
609.0089
574.32464
533.70974
488.18711
438.81665
386.92844
333.87944
281.00796
229.54112
180.59791
135.13962
93.964125
57.784346
27.730143
9.7977982
3.077595
1.42393
0.9840572
0.76065399
0.64107464
0.55968405
0.50703579
0.4673088
0.43187107
0.42088462
0.39997635
0.39245412
686.31577
678.71222
663.64187
641.35149
612.06353
576.25859
534.66682
488.28829
438.27518
385.90568
332.54475
279.49501
227.97341
179.06483
133.70423
92.671239
56.671135
26.893805
9.3991113
2.9866618
1.406633
0.97735101
0.75681133
0.63895524
0.55829711
0.50619785
0.46698557
0.43168335
0.42064046
0.39993044
0.39249
694.50358
685.53769
669.21492
645.70569
615.26502
578.4031
535.87122
488.66003
438.02648
385.17909
331.47971
278.22348
226.61499
177.70846
132.4129
91.491634
55.642422
26.114626
9.0378162
2.9077544
1.3915066
0.97115101
0.75320164
0.63693247
0.55686191
0.50535422
0.46665598
0.43149264
0.42041059
0.39988679
0.39252378
702.49488
692.27635
674.78872
650.14521
618.62628
580.77009
537.35077
489.37483
438.08119
384.74497
330.67994
277.19378
225.466
176.52852
131.26525
90.424805
54.69703
25.390549
8.7121053
2.840404
1.3780046
0.96542807
0.74978694
0.63498203
0.55540581
0.5045055
0.46629907
0.43127652
0.42020018
0.39984539
0.39255553
710.32264
698.95715
680.39281
654.70189
622.17853
583.38783
539.12772
490.41848
438.4473
384.59865
330.15001
276.4059
224.5267
175.52494
130.26113
89.470436
53.833981
24.719785
8.4232469
2.7799133
1.3650683
0.96016897
0.74655027
0.63308326
0.55395454
0.50367675
0.46590595
0.43100887
0.42001084
0.39980616
0.39258536
718.20057
705.74543
686.1508
659.47157
626.00165
586.31181
541.22952
491.76676
439.14657
384.73049
329.89081
275.86045
223.7975
174.69786
129.4006
88.628765
53.05275
24.104519
8.1656407
2.7236909
1.3530166
0.95537376
0.74347448
0.63122459
0.55252428
0.50288795
0.46549683
0.43067788
0.41983638
0.39976916
0.39261339
726.36302
712.83645
692.21128
664.54304
630.15216
589.56604
543.63705
493.40944
440.14183
385.17921
329.90329
275.55847
223.27903
174.04764
128.68387
87.900026
52.353452
23.545528
7.935536
2.6714536
1.3417791
0.95104
0.74055356
0.62940657
0.5511204
0.50214266
0.46511412
0.43030341
0.41967436
0.39973432
0.39263978
734.64359
720.14106
698.52822
669.88192
634.54379
593.07957
546.32338
495.35964
441.44177
385.92476
330.18384
275.50109
222.97215
173.57484
128.11135
87.284315
51.736796
23.042874
7.7304754
2.622842
1.3313835
0.94716677
0.73778731
0.62764075
0.5497448
0.50143096
0.46478062
0.42992884
0.41952662
0.3997018
0.39266466
742.24042
727.0391
704.66365
675.21975
639.04956
596.79502
549.2881
497.61248
443.04894
386.96759
330.75142
275.67987
222.8777
173.28024
127.6837
86.782238
51.203876
22.596209
7.5481936
2.5775355
1.3218217
0.94375312
0.73518002
0.62594369
0.54840879
0.50073817
0.46449935
0.42958816
0.41938641
0.39967184
0.39268824
749.08601
733.35617
710.43609
680.41707
643.62943
600.70506
552.5142
500.16434
444.9647
388.30964
331.59697
276.1197
222.98724
173.16462
127.40178
86.394611
50.755863
22.205073
7.3867091
2.5352393
1.3130905
0.9407984
0.73273546
0.62432862
0.54713378
0.50005468
0.46427033
0.42928516
0.41924862
0.39964436
0.39271069
755.87293
739.5606
716.12117
685.6044
648.29573
604.79974
555.99554
503.01305
447.19026
389.9532
332.72251
276.80966
223.32521
173.22314
127.2665
86.122394
50.39413
21.869039
7.2443005
2.495681
1.3051829
0.93830252
0.73045318
0.62279797
0.54593974
0.49937439
0.46408747
0.42901428
0.41911676
0.39961947
0.39273228
762.7042
745.79501
721.84004
690.8609
653.08871
609.09036
559.73257
506.15806
449.72695
391.90063
334.13095
277.75198
223.88076
173.4717
127.278
85.966701
50.120227
21.587864
7.1194566
2.4586035
1.2980936
0.93626674
0.72832994
0.62134022
0.54483259
0.49869001
0.46394229
0.42876855
0.41898432
0.39959719
0.39275344
769.54557
752.08235
727.64074
696.23352
658.04163
613.5922
563.72948
509.60021
452.57646
394.15448
335.82549
278.94979
224.65622
173.90396
127.44075
85.928879
49.935872
21.361611
7.0108224
2.4237594
1.2918188
0.93469446
0.72636949
0.6199343
0.54379787
0.49799359
0.46382615
0.42853602
0.41885853
0.39957736
0.39277451
776.35106
758.4065
733.53142
701.74206
663.17461
618.31832
567.99178
513.34121
455.74078
396.71756
337.80973
280.40661
225.65457
174.5221
127.75476
86.009217
49.842912
21.190772
6.9171475
2.3909068
1.2864001
0.9335521
0.72459075
0.61856376
0.54280401
0.49728184
0.4637357
0.42831016
0.41873998
0.39956011
0.39279568
783.09386
764.74651
739.50417
707.38979
668.49688
623.27772
572.52546
517.38328
459.22184
399.59314
340.08762
282.12643
226.87924
175.32868
128.22193
86.211951
49.843291
21.076376
6.837228
2.3597984
1.2818755
0.93282214
0.72302164
0.61723239
0.54182079
0.49655995
0.46367176
0.42809238
0.41862143
0.39954531
0.39281689
789.75698
771.08167
745.54451
713.17037
674.00958
628.47544
577.33708
521.72817
463.02145
402.78515
342.66374
284.11378
228.33418
176.32671
128.84436
86.537299
49.939139
21.020115
6.7698383
2.3301752
1.2782792
0.93249886
0.72168829
0.6159633
0.54083222
0.49584017
0.46363646
0.42788071
0.41850717
0.39953243
0.39283779
796.31353
777.38404
751.63142
719.07068
679.70762
633.9131
582.43323
526.38093
467.14029
406.2982
345.54303
286.37357
230.02373
177.51954
129.62444
86.987093
50.132405
21.023736
6.7136337
2.3017584
1.2756628
0.93253874
0.72061825
0.61478255
0.53983214
0.49514117
0.46362762
0.42767874
0.4184022
0.39952184
0.39285906
802.71374
783.61192
757.73596
725.07293
685.58194
639.5921
587.81666
531.34901
471.58153
410.13601
348.73066
288.91115
231.95275
178.91101
130.56483
87.563216
50.425236
21.092728
6.6670817
2.2742323
1.2741
0.9329889
0.71984454
0.61371479
0.53886632
0.49448931
0.46364238
0.42748663
0.41829708
0.39951318
0.3928805
808.88479
789.71133
763.8229
731.15842
691.6269
645.5123
593.49198
536.63425
476.35253
414.30355
352.2324
291.7325
234.12673
180.50557
131.6686
88.267599
50.819525
21.230708
6.6282527
2.2472612
1.2736787
0.93378836
0.71939239
0.61278889
0.53802819
0.49391218
0.46367973
0.42730203
0.41819829
0.39950638
0.39290202
814.73017
795.61866
769.85326
737.30191
697.83872
651.67518
599.45668
542.24121
481.46054
418.80675
356.05402
294.84366
236.55136
182.30798
132.93904
89.10216
51.316747
21.444331
6.5947859
2.2208099
1.2740533
0.93497045
0.71924799
0.61202148
0.53736876
0.49342289
0.46373717
0.4271235
0.41810308
0.39950106
0.39292354
820.09806
801.23355
775.76855
743.4633
704.17901
658.05906
605.70195
548.16813
486.90423
423.64813
360.19951
298.24965
239.23187
184.32293
134.37937
90.068685
51.917688
21.742525
6.5639127
2.1953815
1.2750051
0.93648372
0.71931744
0.61139209
0.53680879
0.49301881
0.46381201
0.42695069
0.417998
0.39949748
0.39294541
824.2991
805.70375
780.63316
748.70331
709.74038
663.81886
611.47448
553.75274
492.10734
428.35016
364.28388
301.64642
241.93355
186.37244
135.85512
91.065002
52.541092
22.069769
6.5315514
2.1708655
1.2766496
0.93779193
0.71936354
0.61082014
0.53624262
0.49265672
0.46389546
0.42679291
0.41788274
0.39949518
0.39296703
123.32385
161.22101
207.40923
244.64824
289.99569
352.70316
412.0875
453.35027
471.00558
468.17106
447.50912
405.60764
353.66088
296.29995
237.54791
180.74281
128.39683
81.914893
43.483871
17.409431
5.2091158
1.7922061
1.010002
0.75408956
0.62082248
0.54160788
0.4863523
0.4400128
0.42560439
0.40195233
0.39131891
127.89664
163.52004
208.12452
244.64088
286.09463
346.36592
405.00323
446.80832
465.87304
464.6567
445.15575
404.5766
353.39252
296.58847
238.19734
181.56329
129.24827
82.729704
44.165659
17.830945
5.3431189
1.8190304
1.0160367
0.7570185
0.62254428
0.54248654
0.48679203
0.44014846
0.42559033
0.4019864
0.39129644
133.19176
167.3408
209.63872
244.72324
282.69366
340.32034
398.0821
440.34462
460.73087
460.86676
442.43485
403.26228
353.02331
296.83933
238.82155
182.36844
130.09223
83.540889
44.850626
18.258797
5.4823916
1.8458335
1.0222616
0.76003933
0.62429827
0.54337098
0.48724393
0.44028176
0.42556535
0.40202022
0.39127292
137.83526
170.9285
211.41984
245.01567
279.83692
334.62773
391.34585
433.95876
455.55538
456.83645
439.65765
401.87452
352.59707
297.04946
239.41852
183.15706
130.92798
84.348358
45.538272
18.691775
5.6264814
1.8733662
1.0287094
0.76316339
0.62609306
0.54426493
0.48771315
0.44041228
0.42554039
0.40205401
0.39124923
142.20446
174.32293
213.20898
245.49031
277.45258
329.30002
384.8051
427.65067
450.33995
452.77753
436.82188
400.41455
352.1121
297.21712
239.98701
183.9283
131.75496
85.151749
46.228247
19.128876
5.7752361
1.9018526
1.0353534
0.76636702
0.62791647
0.54515919
0.48819589
0.44053675
0.42551993
0.40208798
0.39122541
146.44006
177.56911
214.91917
245.979
275.45358
324.33228
378.47035
421.42386
445.04214
448.68865
433.92486
398.88742
351.56824
297.34143
240.52626
184.68157
132.5727
85.950994
46.920244
19.568694
5.9286903
1.9313715
1.0421785
0.7696306
0.62975809
0.54604538
0.48868854
0.44065312
0.4255049
0.40212233
0.39120159
150.59683
180.70236
216.54183
246.49745
273.7951
319.72169
372.35445
415.28819
439.7054
444.57424
430.97021
397.2952
350.96592
297.42186
241.03577
185.41642
133.38083
86.745809
47.613976
20.009891
6.0869336
1.9619842
1.0491881
0.77294456
0.63161274
0.54691894
0.48919005
0.44076088
0.42549517
0.40215728
0.39117799
154.72325
183.7573
218.0854
247.05827
272.45001
315.46218
366.47046
409.27037
434.61608
440.44792
427.96304
395.63918
350.30567
297.45784
241.51508
186.13238
134.17895
87.535961
48.309183
20.451991
6.2500378
1.9937371
1.0563906
0.77630297
0.63347667
0.54777722
0.4897006
0.44086018
0.42549016
0.40219275
0.39115549
158.86373
186.78254
219.60577
247.68814
271.3872
311.54837
360.82855
403.38197
429.59683
436.31113
424.90758
393.92105
349.58811
297.45057
241.96376
186.82903
134.9667
88.321231
49.005656
20.89455
6.4180522
2.0266824
1.0637917
0.77969982
0.6353451
0.54861827
0.49022038
0.4409515
0.42548979
0.40222829
0.39113438
163.04317
189.81757
221.15469
248.3312
270.58105
307.96667
355.43619
397.62034
424.42676
432.15813
421.80674
392.14319
348.81398
297.4049
242.3814
187.50592
135.74369
89.101391
49.703277
21.337178
6.5910158
2.0608618
1.0713949
0.7831289
0.63721213
0.54944099
0.49074933
0.44103559
0.42549386
0.40226416
0.3911145
167.27531
192.89029
222.75415
248.97462
270.00328
304.70315
350.29875
391.9952
419.29785
427.99348
418.66157
390.3093
347.98403
297.30981
242.76746
188.16259
136.50954
89.876202
50.402055
21.779653
6.7689462
2.0963234
1.0792019
0.7865848
0.63907137
0.55024567
0.49128712
0.44111351
0.42550608
0.40230043
0.39109566
171.5689
196.01856
224.4177
249.60576
269.62471
301.74807
345.41922
386.51557