/*--------------------------------*- C++ -*----------------------------------*\
| =========                 |                                                 |
| \\      /  F ield         | OpenFOAM: The Open Source CFD Toolbox           |
|  \\    /   O peration     | Version:  2406                                  |
|   \\  /    A nd           | Website:  www.openfoam.com                      |
|    \\/     M anipulation  |                                                 |
\*---------------------------------------------------------------------------*/
FoamFile
{
    version     2.0;
    format      ascii;
    arch        "LSB;label=32;scalar=64";
    class       volScalarField;
    location    "0.043";
    object      nut;
}
// * * * * * * * * * * * * * * * * * * * * * * * * * * * * * * * * * * * * * //

dimensions      [0 2 -1 0 0 0 0];

internalField   nonuniform List<scalar> 
35803
(
0.037720715
0.041485865
0.045888245
0.050902148
0.056519378
0.062711865
0.069421656
0.076556136
0.083975655
0.09144882
0.098580744
0.10477771
0.10915444
0.1104131
0.10670943
0.095654188
0.07472997
0.044557195
0.019804648
0.0096028486
0.0071433434
0.0061441096
0.0054028
0.0049860706
0.0046843085
0.0044978211
0.0043720047
0.0042003096
0.0041572179
0.0040689994
0.0040399636
0.042479497
0.046276995
0.050562459
0.055392441
0.060784621
0.066722148
0.073151668
0.079977895
0.087058556
0.094157479
0.10087787
0.10660424
0.11043705
0.11106197
0.10662339
0.094743549
0.073060051
0.042756843
0.018486489
0.0093547179
0.0070578586
0.006103575
0.0053765712
0.0049696526
0.0046745117
0.0044923585
0.0043693961
0.0041989173
0.0041559136
0.0040687341
0.0040399627
0.048082941
0.051777387
0.055913497
0.060541133
0.065683121
0.071330044
0.077434112
0.083901713
0.090584754
0.09724067
0.10346694
0.10863392
0.11182349
0.11170252
0.10640382
0.093566726
0.070998964
0.040537543
0.017283762
0.0090699644
0.0070099057
0.0060801271
0.0053614643
0.0049589799
0.0046677873
0.0044884445
0.0043679926
0.0041977107
0.0041547109
0.0040686074
0.0040399572
0.054632938
0.058131947
0.06205175
0.066427821
0.071275975
0.076585724
0.082310673
0.088357767
0.094572834
0.10070507
0.10634336
0.1108457
0.11327408
0.11227464
0.10596932
0.092021868
0.06844097
0.037858503
0.016096602
0.008802288
0.0069389696
0.0060420255
0.0053384053
0.004943724
0.0046587199
0.0044827011
0.0043657381
0.0041964833
0.0041529909
0.0040683934
0.0040399504
0.062201182
0.065442842
0.069080824
0.073142581
0.077636568
0.082547396
0.087826039
0.093376744
0.099038477
0.10455019
0.10948996
0.11320253
0.11472941
0.11269462
0.10521121
0.08997688
0.065253735
0.034697422
0.014887412
0.0085242327
0.0068704042
0.0060048411
0.0053154562
0.0049293193
0.0046515986
0.004477089
0.0043639146
0.0041951658
0.0041512214
0.004068214
0.0040399409
0.070823636
0.073749917
0.077049228
0.080733328
0.08480499
0.089243627
0.093995603
0.098959858
0.10396672
0.10874287
0.11285324
0.11562797
0.11608718
0.11283223
0.10397178
0.087251148
0.061271059
0.031065552
0.013652406
0.0082429509
0.0067906804
0.005958585
0.0052885517
0.0049113076
0.0046427225
0.0044701688
0.0043615772
0.0041937127
0.0041493039
0.0040679736
0.0040398143
0.080468624
0.083019208
0.085930118
0.089175778
0.092754222
0.096640021
0.10077407
0.10504815
0.10928214
0.11318853
0.11631667
0.11798008
0.11717664
0.11248572
0.10202082
0.083596684
0.056291098
0.027019936
0.012413736
0.0079706742
0.0067072889
0.005908657
0.0052613776
0.0048925615
0.004632511
0.0044623512
0.0043592288
0.004192133
0.0041474461
0.0040677443
0.0040395993
0.090968791
0.093120175
0.095589071
0.098333944
0.10134631
0.10459424
0.10801122
0.11147984
0.11480769
0.11769129
0.11966194
0.12001398
0.11772247
0.11134747
0.09902425
0.078676586
0.05008949
0.022700588
0.011212382
0.0077359654
0.0066140567
0.0058500478
0.005226968
0.0048711401
0.0046195708
0.0044532289
0.0043560467
0.0041903653
0.004145337
0.004067464
0.004039514
0.10200283
0.10372626
0.10570623
0.10789189
0.11026675
0.11279024
0.11538613
0.11792549
0.12020154
0.12189282
0.12250998
0.12132525
0.11729092
0.10895419
0.094500256
0.072043393
0.04248313
0.018980141
0.010113223
0.0074882638
0.0065128769
0.0057854517
0.0051888247
0.0048442942
0.0046049095
0.0044427253
0.0043522073
0.004188364
0.0041433472
0.004067196
0.0040394537
0.11298087
0.11424681
0.11569223
0.11726149
0.11892785
0.12063963
0.12230816
0.12379019
0.1248617
0.12518034
0.12423274
0.12126603
0.11521138
0.10461726
0.087768877
0.063121983
0.033487728
0.015565955
0.0091308873
0.0072589165
0.0064001729
0.0057111043
0.0051469625
0.0048119229
0.0045875392
0.0044301465
0.0043469791
0.0041860846
0.0041420464
0.0040668854
0.0040392712
0.1228664
0.12364878
0.12451821
0.12541811
0.1263097
0.12712785
0.12776843
0.12807021
0.12778793
0.12655414
0.12382728
0.11882619
0.11046686
0.097330585
0.077891785
0.051261068
0.024008404
0.012522535
0.0083166973
0.0070253373
0.0062755134
0.0056288193
0.0051001661
0.0047792975
0.004568268
0.0044152348
0.0043405607
0.0041834847
0.0041406207
0.0040664999
0.0040387396
0.1299487
0.13023188
0.1304971
0.13068842
0.13075342
0.13061185
0.13014165
0.1291595
0.12739392
0.12444758
0.11974528
0.11247333
0.10155111
0.085669635
0.063638848
0.036074727
0.017524065
0.010248191
0.0078424793
0.0067955689
0.0061361657
0.0055356472
0.0050463201
0.004742522
0.0045461439
0.0043980473
0.0043312982
0.0041806922
0.0041383846
0.0040659942
0.0040384561
0.13154256
0.13131365
0.13095906
0.13043044
0.12965455
0.12852882
0.12690817
0.12458327
0.12125367
0.1164897
0.10967447
0.099949608
0.086305744
0.067756769
0.043653361
0.022037091
0.012438034
0.0085910037
0.0073936391
0.0065418149
0.0059832519
0.0054339265
0.0049877283
0.0047025814
0.004522281
0.0043796868
0.0043210866
0.004176562
0.0041357643
0.0040653992
0.0040382556
0.12344139
0.12271508
0.1217669
0.12054918
0.11897288
0.11691276
0.11419418
0.11057597
0.10572828
0.09919325
0.090278915
0.078005436
0.06179117
0.041882808
0.024893174
0.014080248
0.009344226
0.0078492019
0.0069974949
0.0063000464
0.0058139505
0.0053206048
0.0049237562
0.0046569031
0.0044948669
0.0043594828
0.0043089396
0.0041718441
0.0041331506
0.0040649365
0.0040379266
0.099380236
0.09826956
0.096862976
0.09510812
0.092892679
0.0900673
0.086439499
0.081754923
0.075695512
0.067906456
0.058283481
0.047288707
0.035056391
0.023121488
0.014253184
0.009630654
0.0079879625
0.0073187402
0.0066218743
0.0060218084
0.0056279254
0.0052026098
0.004854286
0.0046100128
0.0044645881
0.004337382
0.0042974724
0.0041662552
0.0041295431
0.0040647019
0.0040375689
0.063232399
0.062215449
0.060982956
0.059498671
0.057653111
0.055313187
0.052363378
0.048667474
0.044091343
0.038519243
0.032030004
0.024956451
0.018427193
0.01279077
0.0093168042
0.0078605041
0.0074326147
0.0067390576
0.0061468114
0.0057595317
0.0054315688
0.0050789599
0.0047759062
0.0045585226
0.004431189
0.0043124375
0.0042843793
0.0041601948
0.0041258687
0.004064537
0.0040371814
0.032290278
0.031840836
0.031234983
0.030453552
0.029450791
0.028168735
0.026586016
0.024611052
0.022200144
0.019366803
0.016233353
0.013010997
0.010341407
0.0082562573
0.0074068555
0.0072208926
0.0065948134
0.0062760204
0.005902269
0.0054938505
0.0052196072
0.0049552481
0.0046935808
0.0045033259
0.0043950949
0.0042896077
0.0042710316
0.0041526778
0.0041224114
0.0040646067
0.0040367556
0.015354591
0.015256934
0.015053512
0.014736922
0.014310826
0.01377091
0.013123599
0.012333193
0.011383852
0.010316313
0.0091224602
0.007972754
0.00715923
0.006784894
0.0067913799
0.0063706963
0.0061628928
0.005728411
0.0054714665
0.0052280171
0.0050280498
0.0048231027
0.0045956942
0.0044471784
0.0043575409
0.0042646419
0.0042485269
0.0041438337
0.0041177043
0.0040651878
0.0040363038
0.0083301532
0.0083144142
0.0082645077
0.0081756543
0.008049963
0.0078801912
0.0076606668
0.0074171568
0.0071489096
0.0068820884
0.0065502671
0.0063272807
0.0062158619
0.0061040839
0.0059174627
0.0058248164
0.0054777434
0.0053968001
0.0052380712
0.0050053841
0.0048317674
0.0046869663
0.004507088
0.0043856267
0.0043204488
0.004242225
0.0042268999
0.0041337013
0.0041105663
0.0040663845
0.0040363014
0.0059245018
0.0059150944
0.0059065352
0.0059023088
0.0059012922
0.0058991833
0.0058696651
0.0058161878
0.0057744632
0.0057249108
0.0056213089
0.0055861715
0.0054709355
0.0054168193
0.0053314167
0.0052400916
0.0051578075
0.0050595848
0.0048952945
0.0048196518
0.0047150215
0.0045411771
0.0044165551
0.0043280878
0.004279671
0.0042213937
0.0042121798
0.0041221995
0.0040998237
0.0040681378
0.0040394383
0.0053415942
0.0053313342
0.0053227531
0.0053110769
0.0052915765
0.0052779186
0.0052730073
0.0052732821
0.005265103
0.0052347813
0.0051997157
0.0051637193
0.0050720368
0.0050590857
0.0049493257
0.0048736427
0.0048014889
0.004724717
0.0047095942
0.0046614721
0.0045350186
0.004404205
0.0043515227
0.0042635912
0.0042434317
0.0041983799
0.0041802537
0.0041092381
0.0040889293
0.0040700323
0.0040408222
0.0048811628
0.0048709423
0.0048594895
0.0048478791
0.0048448513
0.0048372609
0.0048273728
0.0048170138
0.0048074072
0.0047969038
0.0047854504
0.0047836451
0.0047871081
0.0046817831
0.004680266
0.0045964124
0.0045964715
0.0045404778
0.0044830981
0.0044505551
0.004395468
0.0043201547
0.0042658135
0.0042199305
0.0041937711
0.0041744207
0.0041633306
0.0040978306
0.0040794825
0.0040706305
0.004040641
0.0045690015
0.0045715216
0.0045758483
0.0045801854
0.0045794667
0.0045795471
0.004580363
0.0045800319
0.0045756999
0.00456155
0.0045282206
0.0044833059
0.0044593711
0.0044482726
0.0044215621
0.0044200864
0.0043768794
0.0043900171
0.0043664908
0.0043373796
0.0043137371
0.0042450505
0.0041942619
0.0041647262
0.0041562057
0.0041490174
0.0041394673
0.0040870263
0.0040702686
0.004067114
0.0040355945
0.0043545929
0.0043505555
0.0043447515
0.0043379223
0.0043347029
0.0043306151
0.0043260371
0.0043209823
0.0043154955
0.0043094555
0.0043029131
0.0043004645
0.0042976795
0.0042931891
0.0042738059
0.0042770633
0.0042662139
0.0042493564
0.0042903022
0.0042600599
0.0042130504
0.0041742363
0.0041351385
0.0041309559
0.0041230565
0.0041164354
0.0041151387
0.0040771952
0.0040628466
0.004054826
0.0040358904
0.0042055944
0.0042051844
0.004204309
0.0042030441
0.0042020168
0.0042020273
0.0042025135
0.0042021673
0.0041999544
0.0041938497
0.0041833338
0.0041746288
0.0041712349
0.0041699267
0.0041711291
0.0041684179
0.0041806861
0.0041675946
0.0041727706
0.0041732523
0.0041520433
0.0041327015
0.0040904359
0.0041009494
0.0040946935
0.0040955503
0.0041018888
0.0040702936
0.0040597897
0.004052092
0.0040360607
0.0041254869
0.0041251794
0.0041243472
0.0041230446
0.0041214386
0.0041194686
0.0041170778
0.0041143603
0.004112591
0.0041117417
0.0041106451
0.0041112719
0.0041126137
0.0041138817
0.0041127357
0.0041155559
0.0041130029
0.0041093678
0.0041094777
0.0041036041
0.0040954988
0.0040892735
0.0040684439
0.0040749578
0.0040794614
0.0040821642
0.0040873529
0.0040627485
0.0040587934
0.0040479375
0.0040376417
0.0040797845
0.0040797887
0.0040796007
0.0040792448
0.0040788883
0.0040786542
0.0040787889
0.0040797734
0.0040812499
0.0040827024
0.0040841465
0.0040847423
0.0040840264
0.0040817613
0.0040825737
0.0040792265
0.0040808827
0.0040783542
0.0040772369
0.0040765698
0.0040727017
0.0040682525
0.0040574275
0.0040590943
0.0040664277
0.0040671994
0.0040760821
0.0040549954
0.0040559399
0.0040439638
0.0040381114
0.0040572469
0.0040571904
0.0040569988
0.0040566844
0.0040563211
0.0040559518
0.0040556058
0.0040552943
0.0040550615
0.004055091
0.0040551519
0.0040552314
0.0040553228
0.0040555389
0.004056156
0.0040579272
0.0040576629
0.0040604022
0.0040604013
0.0040601666
0.0040616821
0.0040560641
0.0040536137
0.0040535033
0.0040533243
0.0040543431
0.0040579587
0.0040493134
0.0040462111
0.004042334
0.0040383835
0.0040465844
0.0040464881
0.0040463645
0.0040462113
0.0040460596
0.0040459479
0.0040459186
0.0040459834
0.0040461149
0.0040461261
0.0040459454
0.0040458034
0.0040458378
0.0040461439
0.004046575
0.0040472821
0.0040477722
0.004048789
0.0040510944
0.004050033
0.00405336
0.0040494683
0.0040526923
0.0040506101
0.0040487427
0.0040485572
0.0040496653
0.0040461752
0.00404292
0.0040387861
0.0040378398
0.0040424638
0.0040424051
0.0040423377
0.0040422658
0.0040422016
0.0040421717
0.0040421975
0.0040422699
0.0040423497
0.0040424088
0.0040424369
0.0040424677
0.0040425529
0.0040427733
0.0040431474
0.0040436829
0.0040442635
0.0040449919
0.0040451741
0.0040451863
0.0040456216
0.00404455
0.0040462839
0.0040512904
0.0040452297
0.0040450277
0.0040453772
0.0040418253
0.0040388128
0.0040413252
0.0040397299
0.0040428796
0.0040428112
0.0040427176
0.0040426044
0.00404248
0.0040423539
0.0040422332
0.0040421212
0.0040420178
0.0040419254
0.004041838
0.0040417436
0.0040416322
0.0040414982
0.004041348
0.0040411855
0.0040410028
0.0040407891
0.0040419127
0.004041995
0.0040422544
0.0040417689
0.0040411185
0.0040441619
0.0040407898
0.0040407793
0.0040416389
0.0040424836
0.0040400837
0.0040400594
0.0040392966
0.0021334064
0.0019273061
0.0019956537
0.002436128
0.0035097597
0.006066962
0.0099009661
0.014776581
0.020622044
0.027716287
0.036068313
0.045112334
0.055067739
0.065419072
0.075215714
0.082914834
0.086073761
0.08102493
0.064300425
0.039109832
0.018281572
0.0090647371
0.0064132971
0.0055131185
0.0050247601
0.0047066861
0.0044740396
0.0042664516
0.0042003583
0.0040849696
0.0040338569
0.0018846397
0.0018090039
0.0021223499
0.0027620746
0.0047033236
0.0078742383
0.011950437
0.016864191
0.022742619
0.02995861
0.038201029
0.047204774
0.057067598
0.067227229
0.076703825
0.083912418
0.086371849
0.08040568
0.062786246
0.037355372
0.017216551
0.0087550264
0.0063220397
0.0054820728
0.0050082688
0.004697685
0.0044691015
0.0042641586
0.0041997679
0.0040845054
0.0040340272
0.0017007868
0.0018376269
0.0022222052
0.0034064983
0.0058641332
0.0093029848
0.01355215
0.018615318
0.02466855
0.032028448
0.040200875
0.049211038
0.058995823
0.068967225
0.078121069
0.084834508
0.086592028
0.079713447
0.06123462
0.035653289
0.016277419
0.0084672836
0.0062670659
0.0054617936
0.0049962883
0.0046910244
0.0044655122
0.0042624813
0.004199388
0.0040840246
0.0040342044
0.001626992
0.0019069925
0.002561857
0.0044008382
0.0072068816
0.010804297
0.015157782
0.020332958
0.026557574
0.033995584
0.042136941
0.051161429
0.060866609
0.070646249
0.07947174
0.085684388
0.086737487
0.078951598
0.059652604
0.034004709
0.015425185
0.0082176306
0.0062092015
0.005438962
0.0049829117
0.0046835177
0.0044614112
0.0042605522
0.0041988486
0.0040835431
0.0040343899
0.0016527325
0.0020313931
0.003334868
0.0055797894
0.0085896216
0.012301705
0.016757141
0.022050607
0.028465094
0.035879058
0.044039014
0.053070079
0.062687891
0.072269148
0.08075935
0.086465219
0.08681156
0.078124298
0.058049053
0.03240932
0.014645168
0.0079949148
0.0061587663
0.0054185165
0.0049705223
0.0046765624
0.0044576194
0.0042588013
0.0041983041
0.0040830609
0.0040345863
0.001698035
0.0025721654
0.0043362586
0.0068333012
0.0099825528
0.01380161
0.018360977
0.023786466
0.030337966
0.037717773
0.045918392
0.054943487
0.064464169
0.07383918
0.081986663
0.087179823
0.08681745
0.077235603
0.056430503
0.030867947
0.013925559
0.0077956698
0.0061117336
0.0053985166
0.0049581596
0.004669557
0.0044537163
0.0042570217
0.0041976698
0.0040825777
0.0040347878
0.0020326758
0.0034085129
0.0054658724
0.0081264495
0.011387992
0.0153089
0.019970126
0.025537471
0.032175046
0.039539527
0.047779184
0.056784425
0.066197975
0.075358545
0.083155872
0.087830728
0.086758219
0.076289706
0.054802697
0.029382429
0.013260933
0.0076177856
0.0060686653
0.0053796116
0.0049462328
0.0046627805
0.0044498553
0.0042553238
0.0041969896
0.0040820977
0.0040349931
0.0027414836
0.0044216725
0.0066572044
0.0094355313
0.012799369
0.01682048
0.02158791
0.027316764
0.033955388
0.041351457
0.04962108
0.05859376
0.067890692
0.076828765
0.084268795
0.088420275
0.086636863
0.075290172
0.053171124
0.027955148
0.012648349
0.0074604239
0.0060287155
0.0053614431
0.0049345808
0.0046561203
0.0044459247
0.0042536577
0.0041962578
0.0040816212
0.0040352064
0.0036034035
0.0054885184
0.0078631165
0.010750524
0.014214791
0.018334959
0.023220101
0.029065821
0.035701781
0.043153594
0.051442476
0.060371493
0.069543051
0.078250951
0.08532703
0.088950723
0.086456398
0.074240497
0.051540251
0.026588688
0.01208564
0.0073253378
0.0059915466
0.0053440512
0.004923295
0.0046496448
0.0044419627
0.0042520526
0.0041954928
0.0040811481
0.0040354262
0.0045914112
0.0066222074
0.0090966436
0.012074428
0.015632677
0.0198497
0.024869285
0.030783182
0.037441462
0.044944568
0.05324145
0.062117225
0.071155411
0.079625979
0.086332066
0.089424319
0.086219918
0.073145941
0.049914386
0.02528539
0.011570343
0.0072033447
0.005956682
0.005327318
0.0049123632
0.0046433421
0.0044379834
0.0042504939
0.0041946901
0.0040806753
0.0040356527
0.0056385377
0.0077611937
0.01032219
0.013393135
0.017048389
0.021367334
0.026521655
0.032471815
0.039174406
0.046720534
0.05501607
0.063830392
0.072727932
0.080954609
0.087285357
0.089843348
0.0859306
0.072011954
0.048298475
0.024053819
0.011100146
0.0070947473
0.0059239055
0.0053111944
0.0049018257
0.0046372398
0.0044340041
0.0042489833
0.0041938475
0.0040802008
0.0040358803
0.0066865434
0.0088939661
0.01154532
0.014711089
0.018462324
0.022890908
0.028155297
0.034127828
0.040895744
0.048478338
0.056764704
0.065510388
0.074260692
0.08223756
0.088188383
0.090210183
0.085591973
0.070843308
0.04669686
0.022894643
0.010672269
0.0069975259
0.0058929035
0.0052956079
0.0048917042
0.0046313463
0.0044300609
0.0042475099
0.0041929654
0.0040797275
0.0040361074
0.0077334801
0.010025069
0.012766597
0.016025884
0.01987073
0.024423103
0.029746199
0.035773297
0.042604205
0.0502156
0.058485946
0.067156625
0.075753752
0.083475576
0.089042686
0.090527307
0.085208088
0.069645678
0.045114403
0.021800025
0.010284006
0.0069104939
0.0058634653
0.005280506
0.0048820321
0.004625676
0.0044262185
0.004246068
0.0041920447
0.0040792578
0.0040363368
0.0087722714
0.011149911
0.013982164
0.017334556
0.021275914
0.025947341
0.031311785
0.03741019
0.044296607
0.05193016
0.060178563
0.068768567
0.077207211
0.084669458
0.089849897
0.090797309
0.084782662
0.068424432
0.043558499
0.020768457
0.0099328486
0.0068324002
0.0058353875
0.0052658403
0.0048728382
0.0046202348
0.0044225365
0.0042446476
0.0041910798
0.0040787918
0.004036568
0.0098028517
0.012267254
0.015189779
0.018634536
0.022679177
0.027450264
0.032864161
0.03903424
0.045969976
0.053620229
0.061841493
0.070345758
0.078621238
0.085820094
0.090611757
0.091022881
0.08431939
0.067184974
0.042035366
0.019800088
0.0096163533
0.0067621812
0.0058085134
0.0052515755
0.0048641508
0.0046150242
0.0044190681
0.0042432432
0.0041900652
0.0040783304
0.0040367961
0.010822815
0.013373995
0.016386377
0.019922078
0.024083473
0.028917865
0.034405645
0.040641938
0.047622029
0.055284323
0.063473819
0.071887833
0.079996088
0.086928476
0.091330122
0.091206855
0.083822526
0.065932764
0.040550667
0.018895138
0.009332087
0.0066989789
0.0057827166
0.0052376873
0.0048559923
0.004610037
0.0044158461
0.0042418489
0.004188998
0.0040778747
0.0040370206
0.011829077
0.014467177
0.017569762
0.021200042
0.025469658
0.030362415
0.035929988
0.042230369
0.049250954
0.056921179
0.065074749
0.073394526
0.081332116
0.087995707
0.09200697
0.091352184
0.083296468
0.064673285
0.039109398
0.018053454
0.0090776221
0.0066419711
0.0057579029
0.0052241637
0.0048483767
0.0046052605
0.0044128764
0.0042404606
0.0041878721
0.0040774258
0.0040372436
0.012818404
0.015544157
0.018737355
0.022468652
0.026829751
0.031788881
0.037436245
0.04379775
0.050855261
0.058529688
0.066643603
0.07486567
0.082629782
0.089023005
0.092644396
0.091462251
0.082745594
0.063412182
0.037715841
0.017274417
0.0088505545
0.0065902513
0.0057340162
0.0052110048
0.0048413032
0.0046006811
0.00441014
0.0042390736
0.00418668
0.0040769846
0.0040374637
0.013788457
0.016603061
0.019887308
0.023726627
0.02815896
0.033200005
0.038923059
0.045342481
0.052433625
0.060108867
0.068179805
0.076301201
0.083889654
0.090011701
0.093244582
0.091540096
0.082174306
0.062155157
0.036373629
0.016556904
0.0086485457
0.0065431332
0.005711037
0.0051982217
0.0048347518
0.0045962931
0.0044075988
0.0042376815
0.0041854212
0.004076551
0.0040376838
0.014737954
0.017642861
0.021021027
0.02496248
0.02946648
0.034592403
0.040388578
0.046863083
0.053984847
0.061657831
0.069682871
0.077701147
0.085112399
0.090963235
0.093809822
0.091588504
0.081585996
0.060907726
0.035085795
0.015899286
0.0084693539
0.0065000994
0.005688972
0.005185836
0.0048286786
0.0045920981
0.0044052126
0.0042362842
0.0041841001
0.0040761256
0.0040379011
0.015666105
0.018662275
0.022139162
0.026171481
0.030754722
0.035964386
0.041831306
0.048358227
0.055507826
0.063175782
0.071152401
0.079065627
0.086298781
0.09187916
0.094342517
0.09161092
0.080983691
0.05967499
0.033854816
0.015299507
0.0083108577
0.0064606841
0.0056678495
0.0051738777
0.0048230152
0.0045880906
0.0044029494
0.0042348873
0.0041827172
0.0040757082
0.0040381084
0.016573079
0.019660914
0.023240466
0.027352962
0.032023729
0.0373145
0.043249893
0.049826673
0.057001541
0.064661994
0.07258807
0.080394844
0.087449655
0.092761128
0.094845753
0.09161091
0.080371254
0.058461524
0.032682581
0.014755196
0.008171083
0.0064244965
0.0056477099
0.0051623829
0.0048176718
0.0045842461
0.0044007921
0.0042335051
0.0041812807
0.0040752997
0.0040383045
0.017459579
0.020639919
0.024319005
0.028512375
0.033271245
0.038641261
0.0446431
0.05126725
0.058465029
0.066115798
0.073989613
0.081689071
0.088565948
0.093610805
0.09532199
0.091592211
0.079752439
0.05727207
0.031570404
0.014263762
0.0080482401
0.006391202
0.0056285953
0.0051513892
0.0048125492
0.0045805263
0.0043987351
0.0042321592
0.0041798121
0.0040749013
0.0040384898
0.018326438
0.021600107
0.025373338
0.029650643
0.034496192
0.039943437
0.046009809
0.052678817
0.059897379
0.067536575
0.075356821
0.082948649
0.089648656
0.094430285
0.09577328
0.091558477
0.079132132
0.056109262
0.030519349
0.013823197
0.0079407954
0.0063605166
0.0056105386
0.0051409302
0.0048075401
0.0045768807
0.0043967813
0.0042308689
0.0041783317
0.004074513
0.0040386645
0.019174374
0.022543923
0.026401664
0.030767929
0.035697638
0.041219847
0.047347839
0.054060248
0.061297716
0.068923739
0.07668952
0.084173971
0.090698815
0.095221347
0.096202656
0.091513398
0.078515319
0.054976234
0.029530479
0.013432008
0.0078476341
0.0063321994
0.0055935534
0.0051310284
0.0048025077
0.004573251
0.0043949323
0.0042296406
0.0041768655
0.0040741346
0.0040388285
0.020004923
0.023467543
0.027408665
0.031862826
0.036874656
0.042469405
0.048654292
0.055410558
0.062665201
0.070276731
0.077987566
0.085365447
0.091718184
0.095985596
0.096613024
0.091460706
0.077906637
0.053876197
0.028604727
0.013084325
0.0077685031
0.006306047
0.005577627
0.0051216857
0.0047973145
0.0045695843
0.0043931805
0.0042284758
0.004175435
0.0040737663
0.0040389814
0.020819198
0.024371227
0.028395067
0.032934803
0.038026396
0.043691441
0.049931485
0.056729094
0.063999024
0.071595014
0.079250791
0.086523837
0.092707631
0.096725221
0.097007268
0.091404137
0.077310377
0.052811973
0.027742695
0.012776699
0.0077009908
0.006281888
0.0055627165
0.005112877
0.0047918623
0.0045658547
0.004391513
0.0042273845
0.004174048
0.0040734086
0.004039123
0.021618328
0.025255214
0.029361042
0.033983295
0.039151916
0.0448851
0.051181185
0.058015029
0.065298359
0.07287804
0.080479284
0.087649383
0.093667597
0.097442205
0.097388265
0.09134741
0.076730569
0.051785983
0.026944535
0.012506532
0.0076423497
0.0062595948
0.0055487516
0.0051045451
0.0047861015
0.0045620916
0.0043899016
0.0042263761
0.0041727339
0.0040730619
0.0040392521
0.02240359
0.026119704
0.030306357
0.035007619
0.040250229
0.046048885
0.052398346
0.059264757
0.066562257
0.074125529
0.081673722
0.088742187
0.094599504
0.098138475
0.097758882
0.091294213
0.076171054
0.050800404
0.02621
0.012271741
0.0075921757
0.0062390712
0.0055356414
0.0050966022
0.004780059
0.0045583574
0.0043883139
0.0042254097
0.0041715113
0.0040727239
0.0040393683
0.023175665
0.026965751
0.031230104
0.036006976
0.041320353
0.047181628
0.053581481
0.060478153
0.0677901
0.075337719
0.082833339
0.08980299
0.095504546
0.098815965
0.098121958
0.091248194
0.07563553
0.049857219
0.025538531
0.012070905
0.0075496201
0.0062202468
0.005523285
0.0050889437
0.0047738335
0.0045546433
0.0043866657
0.0042244117
0.0041703726
0.0040723976
0.0040394716
0.023933992
0.027794275
0.032132071
0.036980646
0.042361241
0.048282165
0.054730548
0.061660503
0.068980722
0.076513168
0.083957154
0.090832167
0.096383835
0.099476578
0.098480283
0.091212955
0.075127578
0.04895823
0.024929318
0.011903936
0.0075121498
0.0062029698
0.0055115069
0.0050814704
0.0047675544
0.0045509571
0.0043848619
0.0042232625
0.0041693391
0.004072083
0.0040395625
0.024679172
0.0286055
0.033012179
0.037928379
0.043372529
0.049349993
0.055844622
0.062806541
0.070132616
0.077650377
0.085045342
0.091829969
0.097238418
0.10012215
0.098836578
0.091192022
0.074650694
0.048105256
0.024389379
0.011753121
0.0074744514
0.0061871851
0.0055002747
0.0050741131
0.0047613248
0.0045474043
0.004382878
0.0042218354
0.0041684095
0.0040717805
0.0040396416
0.025414507
0.02940201
0.033872196
0.038851295
0.044354979
0.05038529
0.056923037
0.063913121
0.071248852
0.07874567
0.086097523
0.092796652
0.098069256
0.10075444
0.099193473
0.091189009
0.074208601
0.047307363
0.023905776
0.011609024
0.0074383526
0.0061729129
0.005489538
0.0050668532
0.0047551966
0.0045440498
0.0043808331
0.0042200925
0.0041675499
0.0040714907
0.0040397096
0.026139185
0.03018357
0.034712022
0.039748592
0.045307477
0.051386356
0.05796262
0.064978079
0.072323275
0.07980599
0.087113203
0.093732421
0.098877216
0.10137507
0.099553462
0.091207326
0.073805495
0.046570494
0.023470647
0.011471344
0.0074036316
0.006160154
0.0054793026
0.0050597298
0.0047491845
0.0045408801
0.0043789376
0.0042181624
0.0041667498
0.004071214
0.0040397675
0.026845284
0.030943659
0.035526428
0.040615798
0.046224316
0.052348131
0.058960397
0.066000979
0.073355425
0.08082618
0.08809061
0.094637347
0.099663055
0.10198557
0.099918905
0.091250076
0.073445857
0.045898699
0.023079525
0.011339332
0.007370574
0.0061489175
0.0054695898
0.0050528248
0.00474331
0.0045378331
0.0043772902
0.004216277
0.0041660153
0.0040709521
0.0040398164
0.027520035
0.031669596
0.036304185
0.041444603
0.047100476
0.053267322
0.059915357
0.066980323
0.07434435
0.081805152
0.089033819
0.095508023
0.10042729
0.1025873
0.10029202
0.091320349
0.073134231
0.045294744
0.022728133
0.011212316
0.0073392698
0.0061392125
0.0054604325
0.0050462294
0.0047376436
0.0045348429
0.0043758927
0.0042145936
0.0041653129
0.004070706
0.0040398575
0.028177103
0.032368642
0.037048167
0.042234964
0.047936109
0.054143745
0.060825846
0.067914733
0.075288947
0.082741974
0.089939307
0.096352316
0.10116599
0.10318132
0.10067483
0.091421061
0.072874962
0.044760643
0.022412685
0.011089653
0.0073098232
0.0061310515
0.0054518515
0.0050400011
0.0047322846
0.0045318727
0.0043747344
0.0042131091
0.0041646239
0.004070476
0.0040398921
0.028828308
0.033051627
0.03776669
0.042991946
0.048732251
0.054976818
0.061690723
0.068802888
0.076188033
0.083635694
0.090806322
0.097165491
0.10188978
0.10376502
0.10106905
0.091554886
0.072672226
0.044297992
0.022129854
0.010970722
0.0072823105
0.0061244507
0.005443847
0.0050341345
0.0047273084
0.0045288986
0.0043737807
0.0042117787
0.0041639644
0.004070263
0.0040399212
0.029472604
0.033719594
0.03846162
0.043717226
0.049489771
0.055766256
0.062508972
0.069643486
0.077040347
0.084485255
0.091634153
0.097947107
0.10259299
0.10434782
0.10147541
0.091724231
0.072529969
0.043908265
0.021876661
0.010854911
0.0072568042
0.0061194347
0.0054364119
0.0050285582
0.0047227256
0.004525893
0.0043729942
0.0042105588
0.004163304
0.0040700668
0.0040399448
0.030107508
0.034371139
0.039132484
0.044410799
0.050208624
0.056511509
0.063279533
0.070435187
0.077844564
0.085289491
0.092421969
0.098696763
0.10327562
0.10492543
0.10189768
0.091931308
0.072451864
0.043593062
0.021650339
0.010741599
0.0072333757
0.0061160396
0.0054295718
0.005023171
0.0047184616
0.0045228324
0.0043723416
0.0042093951
0.0041626797
0.0040698866
0.0040399629
0.030731043
0.035004562
0.039778016
0.045071776
0.050888089
0.057211701
0.064001243
0.071176595
0.078599274
0.086047141
0.093168815
0.099413904
0.10393761
0.10549832
0.10233564
0.09217675
0.072441226
0.043354333
0.0214482
0.010630143
0.0072123374
0.0061140588
0.0054234059
0.0050179116
0.0047143727
0.0045197178
0.0043718116
0.0042082669
0.0041620906
0.004069723
0.0040399775
0.03134193
0.035618482
0.040396876
0.045698962
0.051527094
0.057865708
0.064672859
0.071866243
0.079302964
0.086756853
0.09387361
0.10009782
0.1045787
0.10606675
0.10279017
0.092464949
0.072500965
0.043194584
0.02126747
0.010519839
0.0071939732
0.0061133954
0.0054180179
0.0050128123
0.0047103275
0.004516582
0.0043714088
0.0042071843
0.0041615025
0.0040695749
0.0040399831
0.031939389
0.036211889
0.040987879
0.046291118
0.05212444
0.058472249
0.06529312
0.072502523
0.079954415
0.087420308
0.094539895
0.10075285
0.10520318
0.10663447
0.10326449
0.092797464
0.072634642
0.043117121
0.021105102
0.010409892
0.007178536
0.0061140401
0.0054135033
0.0050079788
0.0047062508
0.0045134791
0.0043711432
0.0042061353
0.0041609385
0.0040694404
0.0040399863
0.032523039
0.036784068
0.041549996
0.04684705
0.052678919
0.059029909
0.065861356
0.07309054
0.08056261
0.088036088
0.095157859
0.10136688
0.10580032
0.10719338
0.10375325
0.093170952
0.072842141
0.043124661
0.02095751
0.010299401
0.0071663766
0.0061157451
0.0054099607
0.0050035261
0.0047021166
0.0045104826
0.0043709891
0.0042051487
0.0041604209
0.0040693226
0.004039989
0.033093062
0.037334606
0.042082325
0.047365635
0.053189271
0.059539194
0.066383593
0.073625444
0.081104312
0.088592764
0.095728558
0.10194479
0.10637473
0.1077473
0.10425955
0.093588258
0.07312589
0.043226828
0.020820386
0.010187296
0.0071579617
0.0061188628
0.0054074997
0.0049995703
0.0046981326
0.0045076944
0.0043709479
0.004204211
0.0041599018
0.0040692211
0.0040399891
0.033650792
0.037863615
0.042584086
0.04784591
0.053654192