/*--------------------------------*- C++ -*----------------------------------*\
| =========                 |                                                 |
| \\      /  F ield         | OpenFOAM: The Open Source CFD Toolbox           |
|  \\    /   O peration     | Version:  2406                                  |
|   \\  /    A nd           | Website:  www.openfoam.com                      |
|    \\/     M anipulation  |                                                 |
\*---------------------------------------------------------------------------*/
FoamFile
{
    version     2.0;
    format      ascii;
    arch        "LSB;label=32;scalar=64";
    class       volScalarField;
    location    "0.043";
    object      omega;
}
// * * * * * * * * * * * * * * * * * * * * * * * * * * * * * * * * * * * * * //

dimensions      [0 0 -1 0 0 0 0];

internalField   nonuniform List<scalar> 
35803
(
21860.904
19409.007
16985.235
14675.775
12523.789
10554.085
8780.9184
7210.2087
5841.2876
4669.4524
3684.1252
2870.0162
2209.0094
1681.4636
1267.1957
946.33191
697.70771
492.44719
321.36568
222.78723
178.47581
152.7625
132.94917
122.3016
114.30198
109.43784
106.11942
101.58475
100.49138
98.181657
97.27528
19108.984
17076.439
15087.953
13172.313
11356.671
9664.4034
8114.0498
6718.486
5485.2784
4416.2666
3507.0913
2748.035
2126.1425
1625.9133
1230.4274
922.23663
681.61372
480.573
312.394
218.44078
176.51871
151.67531
132.25689
121.86689
114.04146
109.29905
106.05333
101.54975
100.45965
98.174469
97.280433
16489.335
14871.782
13267.713
11699.678
10189.146
8756.9517
7422.2549
6201.1594
5105.8576
4143.228
3314.1303
2613.9782
2034.4706
1564.1334
1189.3594
895.20969
663.49218
467.17845
303.23313
215.26845
175.35266
151.05383
131.85944
121.57263
113.85546
109.19902
106.01757
101.51983
100.43063
98.171059
97.28618
14025.617
12777.155
11515.586
10259.552
9027.5495
7838.3575
6710.438
5660.8772
4704.147
3850.5307
3104.9798
2467.3185
1933.4111
1495.5957
1143.5567
864.89231
642.99965
451.68539
293.33149
211.42859
173.62352
150.04571
131.25374
121.16687
113.60758
109.05013
105.95942
101.48965
100.38838
98.166655
97.292857
11756.501
10817.399
9850.0231
8868.0671
7886.2529
6920.5056
5987.4395
5103.4727
4283.6236
3539.9906
2880.4025
2308.1798
1822.7701
1419.9899
1092.6956
830.96389
619.7446
433.64797
282.41385
207.38831
171.89294
149.06277
130.63874
120.7753
113.4038
108.90297
105.91224
101.45762
100.34452
98.162815
97.300746
9706.5922
9018.0705
8294.4346
7545.9128
6782.9658
6017.8622
5264.3184
4536.7852
3849.4024
3214.6468
2641.9744
2137.2036
1702.6539
1337.1577
1036.5162
793.10923
593.2575
412.77131
270.5302
203.01772
169.86105
147.85042
129.9054
120.29345
113.1598
108.7264
105.85395
101.42286
100.2967
98.15885
97.307428
7888.6134
7397.5431
6869.5074
6313.6499
5736.4778
5146.461
4553.8822
3970.3695
3408.1097
2878.7498
2392.1685
1955.6367
1573.5358
1247.1333
974.83863
751.01623
562.95338
388.7625
257.88389
198.39162
167.67692
146.54434
129.16979
119.7886
112.88839
108.52788
105.7983
101.38534
100.24975
98.155227
97.312892
6306.6368
5965.0208
5590.093
5188.7681
4764.5533
4322.6544
3870.0318
3415.2164
2967.8365
2537.835
2134.4747
1765.4567
1436.3622
1150.2158
907.59719
704.38176
528.06858
361.3361
244.88768
193.48279
165.21718
145.02567
128.26485
119.22052
112.5568
108.29849
105.72599
101.34353
100.19459
98.151508
97.322246
4956.1532
4724.7631
4466.1383
4184.9179
3882.5539
3561.7661
3226.7268
2883.0903
2537.7967
2198.6087
1873.4102
1569.4398
1292.6314
1047.0325
834.85511
652.88631
487.63061
330.64665
232.14408
188.29618
162.53144
143.35972
127.25204
118.5111
112.18413
108.0336
105.64065
101.29654
100.13873
98.148307
97.333607
3826.9932
3674.6659
3501.5681
3310.5481
3101.8238
2876.4549
2636.5566
2385.4393
2127.6026
1868.54
1614.3352
1371.1074
1144.4012
938.55895
756.82218
595.97221
440.31232
298.01914
220.15166
182.79379
159.53495
141.46038
126.14603
117.64634
111.74149
107.71664
105.52403
101.24363
100.09915
98.145394
97.342363
2902.2503
2805.0711
2692.8622
2567.2846
2427.9574
2274.9873
2109.1484
1932.0512
1746.2348
1555.1549
1363.0239
1174.4898
994.1644
826.03231
673.67411
532.31509
384.71332
266.14165
209.10521
176.96324
156.24353
139.36232
124.92373
116.75955
111.24048
107.33659
105.37562
101.18168
100.05955
98.14357
97.343828
2160.0808
2100.2938
2030.1079
1950.4441
1860.7277
1760.6317
1650.1854
1529.9061
1400.9283
1265.0925
1124.9471
983.61616
844.48414
710.64355
584.91291
458.52442
323.85737
239.38648
198.78278
170.74995
152.60645
136.99895
123.53089
115.78109
110.65942
106.88913
105.14897
101.11386
100.00132
98.142867
97.353641
1575.8607
1540.2417
1498.0081
1449.4933
1394.0645
1331.1979
1260.5534
1182.0353
1095.8974
1002.8523
904.14326
801.53256
697.13423
592.67733
487.27569
370.79043
270.07394
219.19732
188.37713
164.13612
148.67883
134.39975
122.01462
114.7346
110.02966
106.40363
104.88448
101.0133
99.93317
98.143255
97.367024
1121.6103
1101.2351
1076.8671
1048.5733
1015.8442
978.1464
934.96143
885.84305
830.50515
768.89928
701.2617
628.15871
550.74583
468.86052
376.70003
284.77782
234.92645
202.49993
177.30228
157.54848
144.40921
131.49162
120.37523
113.55291
109.31273
105.87328
104.54707
100.89647
99.868014
98.145779
97.379918
768.51056
757.30845
743.84543
728.06071
709.51033
687.70998
662.17413
632.33352
597.60066
557.3978
511.31103
459.45991
403.10008
341.60837
280.0365
235.78148
210.20701
186.55353
167.48613
150.27832
139.77784
128.38805
118.59777
112.32227
108.52198
105.30602
104.18706
100.75504
99.784958
98.15003
97.395418
494.59236
488.31222
481.0451
472.74475
462.87406
450.73414
435.82649
417.621
395.79483
370.13555
341.67806
313.58819
284.28654
255.71877
227.91445
207.47703
189.85437
172.00801
155.35046
143.32766
134.90327
125.07654
116.61112
110.97018
107.65818
104.66023
103.75285
100.60185
99.700819
98.158379
97.414329
318.02028
314.80897
310.97274
306.55336
301.38491
295.14256
288.11719
279.66542
269.04704
256.94679
244.94281
233.10492
219.70477
209.43831
199.6875
182.66656
167.86199
156.2627
146.47841
136.04866
129.39759
121.63995
114.49723
109.50482
106.72449
104.02399
103.45655
100.42112
99.625
98.173525
97.436927
222.277
221.19948
219.95112
218.30729
216.18057
213.31435
209.54346
205.76939
201.25185
196.00435
193.11545
188.63699
182.8702
175.84051
171.84609
160.50369
151.61206
145.27952
135.4807
129.01517
124.08713
118.0336
111.98257
108.03459
105.7538
103.36321
103.0929
100.22081
99.528782
98.199365
97.463158
174.85986
174.26335
173.59267
172.81809
171.93491
171.03138
170.00573
167.8881
165.48177
162.26863
160.47074
158.11555
154.60953
149.81266
145.84011
144.52876
137.66594
132.33542
128.88264
122.99053
118.55055
114.41516
109.629
106.45077
104.81348
102.74705
102.42429
99.979877
99.378759
98.239974
97.491752
151.38693
150.84863
150.14482
149.10097
147.68917
146.05862
144.85445
143.91674
143.27346
143.3983
143.09834
141.73896
137.62958
136.21147
131.5593
129.274
126.71289
124.58902
120.21608
117.44772
114.50096
110.77417
107.3222
105.0256
103.80178
102.20686
102.00899
99.707201
99.128668
98.292243
97.531579
131.63996
131.44638
131.35955
131.4338
131.69292
131.93305
132.06778
131.94923
131.38716
130.02084
127.43231
126.12913
124.55778
124.54825
122.72085
120.52111
117.47038
115.22595
114.58596
113.73075
110.68324
107.47443
105.7121
103.44848
102.90478
101.65781
101.26355
99.403994
98.868765
98.343662
97.577157
120.78295
120.54778
120.19101
119.64812
119.00211
118.56366
118.22753
117.93939
117.68647
117.45808
117.7025
117.94912
117.70031
114.72512
114.17113
112.19574
112.26308
110.66198
108.98629
108.25282
107.32103
105.12055
103.80139
102.36791
101.68074
101.10949
100.78511
99.142963
98.66815
98.360174
97.628372
111.45889
111.43555
111.47712
111.60027
111.81401
111.95701
112.03578
112.03389
111.91562
111.52887
110.56627
109.29703
108.68973
108.40186
107.95621
107.67731
106.42239
106.79477
106.09725
105.24351
104.41803
102.91742
101.87518
101.00578
100.69272
100.53602
100.29929
98.911195
98.481045
98.305703
97.50777
106.23879
106.16131
106.0285
105.82161
105.56733
105.36505
105.20587
105.06993
104.9323
104.78511
104.63414
104.71249
104.64371
104.48326
103.85244
103.9386
103.58206
103.21269
104.22578
103.61424
102.38365
101.18231
100.20418
100.10224
99.88538
99.76954
99.668776
98.672803
98.337847
98.182353
97.547801
102.09768
102.08605
102.06207
102.02786
102.00198
102.01601
102.05612
102.07331
102.02383
101.8742
101.59803
101.31443
101.21152
101.17216
101.2249
101.12314
101.4939
101.14157
101.31842
101.272
100.69432
100.13429
99.108619
99.37659
99.213802
99.208352
99.333334
98.52795
98.293866
98.096375
97.630419
100.07948
100.07142
100.04956
100.01547
99.973678
99.922937
99.863452
99.797867
99.76098
99.737457
99.701795
99.696221
99.724756
99.75767
99.722982
99.777522
99.747371
99.675676
99.687519
99.519598
99.317122
99.119363
98.594813
98.794361
98.858645
98.884608
99.036206
98.426032
98.304737
98.049121
97.792344
98.964726
98.964451
98.958997
98.949139
98.939351
98.932795
98.93397
98.953306
98.98273
99.013509
99.0413
99.048041
99.02213
98.962303
98.97875
98.930654
98.961719
98.93254
98.918958
98.869362
98.796679
98.669363
98.371966
98.431414
98.601423
98.581438
98.809137
98.326649
98.301373
98.03487
97.875604
98.445422
98.443378
98.437654
98.428651
98.418511
98.408789
98.400784
98.395586
98.39714
98.404593
98.414208
98.422335
98.426141
98.427905
98.441088
98.47392
98.474502
98.538693
98.559948
98.531553
98.573224
98.451231
98.297589
98.307206
98.359565
98.388023
98.501277
98.246037
98.17228
98.041378
97.956325
98.212387
98.209598
98.205796
98.200982
98.196112
98.19276
98.192518
98.196266
98.203704
98.214014
98.225442
98.236592
98.246105
98.253845
98.264881
98.282274
98.300576
98.330263
98.402943
98.383991
98.432044
98.368289
98.348707
98.305796
98.272987
98.306055
98.381375
98.225817
98.138601
98.157783
98.073989
98.206165
98.204477
98.202551
98.200538
98.198696
98.196948
98.195246
98.193868
98.193367
98.193217
98.19319
98.193999
98.196891
98.203375
98.213493
98.228149
98.248234
98.27343
98.34045
98.339171
98.352293
98.333474
98.335654
98.427801
98.309687
98.319653
98.363144
98.339326
98.245759
98.225327
98.226962
98.351657
98.350953
98.350121
98.349229
98.348366
98.34758
98.346889
98.346324
98.345932
98.345643
98.345433
98.345406
98.345758
98.346727
98.348309
98.350756
98.354448
98.3594
98.343673
98.341232
98.341114
98.325166
98.371856
98.440169
98.372514
98.367808
98.381768
98.381534
98.351304
98.350752
98.348382
59250.853
85851.586
104304.58
100538.19
84490.543
59788.447
42664.911
31238.53
23091.219
17011.779
12420.045
8959.621
6380.4581
4488.2685
3121.5087
2148.8601
1465.8456
988.39383
655.54298
426.56568
274.13085
194.20043
156.1258
136.08089
123.11211
114.82664
108.57219
103.0818
101.32621
98.382258
97.014844
79387.078
107911.55
110173.59
99026.478
71044.078
50439.919
37374.23
28171.349
21182.378
15774.2
11605.689
8423.8914
6032.2234
4265.244
2980.8953
2061.6205
1412.493
955.9672
636.03183
414.6429
267.3345
191.05929
154.73095
135.35908
122.69653
114.5985
108.4415
103.02758
101.32067
98.372304
97.016574
104788.72
118849.14
111697.82
87437.474
61790.334
45319.712
34225.209
26030.686
19688.657
14739.881
10898.079
7947.4406
5717.6541
4061.4275
2851.2206
1980.5711
1362.6245
925.48377
617.63537
403.42625
261.32476
188.7185
153.77719
134.85306
122.3915
114.42935
108.34619
102.98882
101.31597
98.361881
97.018591
126213.16
122593.42
105658.07
74967.314
54486.588
41155.04
31570.845
24196.458
18393.258
13830.137
10266.877
7517.6524
5431.1591
3874.2368
2731.2546
1905.1128
1315.9382
896.7808
600.26273
392.82768
255.74273
186.42879
152.74905
134.29353
122.05219
114.23827
108.23853
102.94312
101.31008
98.351928
97.020981
135293.99
122537.24
89782.873
64868.095
48922.243
37770.712
29286.248
22579.005
17240.552
13014.19
9696.4307
7126.6332
5168.7389
3701.6496
2619.9741
1834.7276
1272.1678
869.7205
583.85442
382.75967
250.45028
184.26871
151.79525
133.7779
121.73572
114.0605
108.13961
102.90172
101.30338
98.342213
97.023917
137983.02
106107.88
76661.732
57592.905
44612.082
34920.361
27276.428
21133.344
16203.043
12275.188
9177.1847
6768.9908
4927.4288
3542.0766
2516.5407
1768.9779
1231.0832
844.18153
568.33736
373.16175
245.41804
182.22794
150.87086
133.27188
121.41978
113.88106
108.03893
102.85914
101.29524
98.332852
97.027141
124040.24
89782.031
67127.706
52061.24
41057.411
32444.28
25487.646
19833.208
15263.685
11602.316
8702.5333
6440.7225
4704.9094
3394.223
2420.2491
1707.4866
1192.4831
820.05845
553.64129
363.99522
240.63737
180.30141
149.9865
132.78809
121.11365
113.70687
107.94034
102.81834
101.28597
98.323879
97.030713
103136.76
77260.865
60059.204
47661.895
38042.091
30266.375
23886.984
18659.75
14410.012
10987.691
8267.4557
6138.6706
4499.2941
3257.0057
2330.4954
1649.9248
1156.1891
797.25015
539.70293
355.23424
236.10226
178.48296
149.13565
132.32133
120.81374
113.53523
107.84091
102.778
101.27558
98.315302
97.034728
88523.222
68763.953
54740.415
44036.422
35429.154
28332.555
22448.775
17597.367
13632.01
10425.136
7867.8876
5860.2372
4309.0034
3129.5006
2246.7558
1596.0027
1122.0429
775.66459
526.45621
346.86061
231.80689
176.76649
148.31735
131.87295
120.52204
113.36788
107.74132
102.73899
101.26448
98.307079
97.039215
77702.774
62096.148
50342.939
40926.563
33130.586
26604.777
21152.326
16632.958
12921.605
9909.5179
7500.4
5603.221
4132.6854
3010.9063
2168.5696
1545.4629
1089.9031
755.23722
513.84072
338.85812
227.74597
175.14584
147.52891
131.44142
120.23831
113.20463
107.64167
102.70107
101.25262
98.299104
97.044278
69726.967
56949.51
46730.232
38246.409
31095.712
25054.762
19980.48
15755.503
12272.007
9436.3856
7162.026
5365.719
3969.164
2900.5191
2095.5286
1498.0751
1059.643
735.91092
501.80852
331.20882
223.9143
173.61484
146.76842
131.02606
119.96347
113.04631
107.54205
102.6645
101.23996
98.291295
97.049707
63794.747
52795.393
43643.343
35887.492
29278.072
23658.978
18918.653
14955.615
11677.341
9001.8157
6850.1637
5146.0632
3817.4031
2797.7144
2027.2674
1453.6321
1031.1509
717.62544
490.30737
323.89518
220.3059
172.16784
146.03381
130.6256
119.69806
112.89325
107.4429
102.62923
101.22653
98.28369
97.055479
59064.661
49285.819
40950.416
33793.736
27648.116
22399.101
17954.374
14225.328
11132.495
8602.331
6562.5117
4942.7769
3676.4815
2701.9334
1963.4571
1411.9466
1004.3308
700.33442
479.29865
316.90302
216.9137
170.79956
145.32326
130.2388
119.44293
112.746
107.34555
102.59538
101.21249
98.276376
97.06159
55150.781
46263.724
38579.322
31926.025
26182.259
21259.288
17076.95
13557.913
10632.909
8234.8291
6297.0216
4754.5436
3545.5745
2612.6733
1903.8003
1372.8478
979.08939
683.99164
468.77763
310.22127
213.73015
169.50511
144.63506
129.86428
119.19888
112.60486
107.25142
102.56289
101.19779
98.269359
97.068033
51811.231
43620.856
36475.593
30253.041
24860.714
20225.947
16277.327
12947.451
10174.493
7896.5374
6051.8628
4580.1833
3423.9401
2529.4798
1848.0264
1336.1801
955.33911
668.55428
458.73005
303.84115
210.74714
168.27999
143.96768
129.50071
118.96674
112.47
107.16205
102.53178
101.18238
98.26264
97.074632
48913.715
41290.661
34600.492
28750.092
23666.827
19287.413
15547.728
12388.664
9753.5863
7584.9769
5825.3946
4418.6344
3310.9076
2451.9401
1795.8889
1301.8002
933.00518
653.98346
449.14057
297.75571
207.9561
167.12011
143.31983
129.14682
118.74731
112.34136
107.07874
102.50192
101.16623
98.256232
97.08129
46375.879
39224.983
32923.139
27396.806
22586.154
18433.573
14881.456
11876.838
9366.9197
7297.9283
5616.1428
4268.9391
3205.8696
2379.6789
1747.1622
1269.5769
912.01869
640.24324
439.99218
291.96008
205.34818
166.02178
142.69055
128.80154
118.54126
112.21866
107.00224
102.47319
101.1492
98.250134
97.08796
44140.082
37386.238
31418.222
26175.747
21606.21
17655.805
14272.603
11407.786
9011.5747
7033.402
5422.7796
4130.2312
3108.2744
2312.3539
1701.6397
1239.3938
892.31487
627.30208
431.2664
286.45099
202.91449
164.98162
142.07919
128.46407
118.34903
112.10146
106.93266
102.44534
101.13099
98.244348
97.094634
42160.631
35743.459
30064.549
25071.933
20716.217
16946.688
13715.935
10977.774
8684.9407
6789.6108
5244.1077
4001.7262
3017.6201
2249.6522
1659.131
1211.1371
873.83314
615.13182
422.94442
281.22548
200.64626
163.99657
141.48559
128.13392
118.17071
111.98945
106.8694
102.418
101.11141
98.238844
97.101081
40399.699
34270.825
28844.299
24072.368
19906.856
16299.79
13206.783
10583.466
8384.6796
6564.9479
5079.0456
3882.7127
2933.45
2191.2878
1619.4609
1184.6963
856.5049
603.70529
415.00786
276.27954
198.53477
163.0638
140.91001
127.81103
118.00586
111.88259
106.81141
102.39084
101.09031
98.233614
97.107435
38826.774
32946.856
27742.139
23165.834
19170.133
15709.404
12740.987
10221.884
8108.6948
6357.9664
4926.6157
3772.545
2855.3474
2136.999
1582.4683
1159.9766
840.26141
592.99421
407.43923
271.60807
196.57146
162.18071
140.35322
127.49575
117.85344
111.78088
106.75751
102.36361
101.06738
98.228642
97.114013
37416.038
31753.345
26744.806
22342.592
18499.104
15170.453
12314.839
9890.3621
7855.1046
6167.3624
4785.9336
3670.6367
2782.9328
2086.5466
1548.0158
1136.8909
825.04752
582.96847
400.22133
267.20527
194.748
161.34488
139.81638
127.18885
117.71181
111.6839
106.70668
102.33626
101.04236
98.223916
97.120694
36146.155
30674.883
25840.778
21594.167
17887.69
14678.418
11925.03
9586.515
7622.2181
5991.9602
4656.1985
3576.4553
2715.8599
2039.7104
1515.966
1115.3612
810.8107
573.60373
393.33718
263.06497
193.05634
160.55403
139.30091
126.89144
117.57889
111.59087
106.65829
102.30902
101.0154
98.219443
97.127409
34998.852
29698.179
25020.063
20913.206
17330.474
14229.278
11568.605
9308.205
7408.5154
5830.6987
4536.6857
3489.5173
2653.8129
1996.2961
1486.1828
1095.3128
797.51439
564.85765
386.77362
259.18083
191.48877
159.80606
138.80832
126.60484
117.45218
111.50069
106.61212
102.28225
100.98675
98.215206
97.134111
33958.682
28811.744
24273.95
20293.257
16822.63
13819.458
11242.926
9053.5139
7212.6288
5682.6202
4426.7386
3409.3839
2596.5044
1956.1191
1458.5573
1076.6774
785.12623
556.69828
380.52355
255.54677
190.03801
159.09904
138.33993
126.3304
117.32828
111.41192
106.56827
102.2562
100.95694
98.211181
97.140766
33012.645
28005.121
23594.829
19728.685
16359.895
13445.738
10945.618
8820.7238
7033.3287
5546.8605
4325.7632
3335.6564
2543.692
1919.0039
1432.9864
1059.392
773.61337
549.09905
374.58392
252.15641
188.69728
158.43126
137.89664
126.06927
117.20349
111.32304
106.5268
102.23099
100.92655
98.207356
97.147341
32149.351
27269.88
22976.16
19214.557
15938.493
13105.241
10674.559
8608.2946
6869.5099
5422.6409
4233.2202
3267.9887
2495.1337
1884.8056
1409.3755
1043.3991
762.94253
542.03363
368.95295
249.00289
187.46026
157.80124
137.47871
125.82215
117.07465
111.23283
106.48777
102.207
100.89576
98.203747
97.153803
31359.278
26598.569
22412.169
18746.426
15555.022
12795.441
10427.851
8414.8386
6720.1789
5309.2597
4148.6383
3206.046
2450.5926
1853.3849
1387.6377
1028.6458
753.08116
535.47584
363.6284
246.07901
186.32096
157.20781
137.08561
125.58898
116.93944
111.14108
106.45086
102.18472
100.86543
98.20041
97.160095
30634.188
25984.683
21897.778
18320.34
15206.461
12514.062
10203.887
8239.1004
6584.4399
5206.1102
4071.6248
3149.5168
2409.8795
1824.614
1367.6939
1015.0834
743.9983
529.40141
358.60784
243.37718
185.27403
156.65008
136.7161
125.36887
116.79712
111.0483
106.41572
102.16367
100.83647
98.197287
97.166183
29966.932
25422.533
21428.521
17932.794
14890.12
12259.075
10001.053
8079.9431
6461.5111
5112.6992
4001.7669
3098.1538
2372.8189
1798.3781
1349.4726
1002.6679
735.66513
523.78826
353.88943
240.88951
184.31478
156.12741
136.36842
125.16005
116.64879
110.95363
106.38057
102.14266
100.80888
98.194439
97.172059
29351.346
24907.157
21000.474
17580.688
14603.592
12028.667
9818.1142
7936.6014
6350.777
5028.4805
3938.675
3051.7138
2339.2512
1774.5737
1332.9089
991.35923
728.05528
518.61656
349.47226
238.61048
183.43678
155.63965
136.04028
124.96029
116.497
110.85701
106.34293
102.11928
100.7834
98.191857
97.177732
28782.272
24434.363
20610.358
17261.531
14344.991
11821.437
9654.0669
7808.3982
6251.6889
4952.9528
3882.0469
3009.9748
2309.0328
1753.1079
1317.9446
981.12131
721.14508
513.86869
345.36537
236.52554
182.63123
155.18672
135.72963
124.76728
116.34462
110.76138
106.30137
102.0904
100.76046
98.189518
97.183215
28259.473
24003.306
20257.051
16974.249
14113.447
11636.567
9508.0928
7694.3005
6163.56
4885.7351
3831.5947
2972.7415
2282.0353
1733.8975
1304.5274
971.92376
714.91377
509.52997
341.57606
234.61843
181.89734
154.76871
135.4348
124.57921
116.19378
110.66955
106.2576
102.05413
100.73938
98.187418
97.18852
27788.282
23616.705
19941.543
16718.656
13908.348
11473.202
9379.0972
7593.4754
6085.7564
4826.4448
3787.0641
2939.8416
2258.1444
1716.8683
1292.6107
963.73866
709.34355
505.58898
338.1047
232.88061
181.23256
154.38575
135.15471
124.39529
116.04527
110.58267
106.2162
102.01205
100.71984
98.185533
97.193657
27365.834
23272.654
19662.214
16493.137
13727.489
11329.527
9265.9378
7505.3378
6017.8476
4774.7494
3748.2297
2911.1244
2237.2598
1701.9549
1282.1532
956.53965
704.42089
502.03764
334.9495
231.3048
180.63498
154.03797
134.88897
124.21581
115.89898
110.50009
106.17999
101.96883
100.70213
98.183862
97.198641
26970.911
22957.006
19409.984
16292.103
13567.794
11203.774
9167.7347
7429.2339
5959.4164
4730.3572
3714.8965
2886.4577
2219.2941
1689.1003
1273.1193
950.30558
700.13557
498.87044
332.10795
229.8843
180.10262
153.72544
134.63769
124.04186
115.7556
110.42018
106.14962
101.92873
100.68545
98.182439
97.203487
26584.919
22656.377
19176.012
16110.279
13426.819
11094.634
9083.5433
7364.5927
5910.0933
4693.0188
3686.8971
2865.7298
2204.172
1678.2555
1265.478
945.01869
696.47876
496.08476
329.57716
228.61305
179.63368
153.44813
134.40121
123.8747
115.61726
110.34173
106.12538
101.89272
100.66902
98.181234
97.208211
26219.816
22375.921
18961.714
15947.275
13303.217
11000.996
9012.6279
7310.9292
5869.5605
4662.5212
3664.0897
2848.8475
2191.8314
1669.3789
1259.2035
940.6641
693.44415
493.68015
327.3542
227.48558
179.22648
153.20599
134.17959
123.715
115.48638
110.26398
106.10671
101.86059
100.6533
98.180257
97.212855
25878.412
22117.556
18767.801
15802.944
13196.438
10922.203
8954.4358
7267.845
5837.551
4638.6868
3646.3582
2835.7344
2182.2227
1662.4373
1254.2743
937.23
691.02784
491.65832
325.43617
226.49689
178.87951
152.99889
133.97254
123.5623
115.36402
110.18599
106.09259
101.83174
100.63746
98.179518
97.217527
25559.922
21881.217
18594.29
15677.122
13106.147
10857.827
8908.5595
7235.0231
5813.848
4621.3721
3633.6111
2826.3317
2175.3073
1657.4053
1250.6738
934.70746
689.22827
490.02319
323.82044
225.64234
178.59142
152.82675
133.78025
123.41493
115.24898
110.10657
106.08187
101.80465
100.62233
98.17899
97.222305
25262.763
21665.933
18440.624
15569.435
13032.021
10807.55
8874.6993
7212.2193
5798.2822
4610.4677
3625.7811
2820.5975
2171.0579
1654.2643
1248.3897
933.09014
688.04623
488.78096
322.5048
224.91764
178.36106
152.68942
133.60437
123.27116
115.13812
110.02497
106.07404
101.77828
100.60809
98.178699
97.227196
24985.502
21470.497
18305.974
15479.341
12973.696
10771.107
8852.6388
7199.2532
5790.7273
4605.8971
3622.8246
2818.5072
2169.4594
1653.0033
1247.4143
932.3744
687.48452
487.94025
321.48761
224.31887
178.18742
152.58659
133.44763
123.13096
115.02826
109.94153
106.06918
101.7527
100.59382
98.178635
97.23231
24726.741
21293.605
18189.39
15406.203
12930.778
10748.269
8842.2345
7196.0002
5791.0679
4607.4552
3624.5411
2819.9081
2170.4114
1653.5621
1247.7121
932.53948
687.53886
487.51203
320.76785
223.8424
178.06962
152.51762
133.31262
122.99639
114.91785
109.85764
106.06755
101.72776
100.57999
98.178716
97.237406
24484.598
21133.716
18089.807
15349.327
12902.839
10738.846
8843.3227
7201.7655
5798.4751
4615.1324
3631.2611
2825.1198
2174.1308
1656.0681
1249.353
933.6289
688.23354
487.51076
320.34501
223.48467
178.00667
152.48162
133.20212
122.86986
114.8062
109.77565
106.06927
101.70359
100.56728
98.178956
97.242606
24256.255
20988.89
18006.038
15307.996
12889.478
10742.371
8854.8485
7216.9209
5814.5063
4629.4527
3642.9114
2833.9961
2180.525
1660.4687
1252.3057
935.62182
689.56748
487.95456
320.21893
223.24199
177.9976
152.4775
133.11966
122.75351
114.69798
109.69894
106.07365
101.68058
100.55455
98.179275
97.247913
24037.615
20856.733
17936.816
15281.524
12890.454
10758.082
8877.8452
7242.6858
5838.569
4650.1161
3659.5005
2846.5863
2189.6286
1666.7867
1256.5819
938.52295
691.55069
488.86573
320.36923
223.11147
178.03824
152.50447
133.06821
122.65015
114.60321
109.63105
106.08041
101.65859
100.54263
98.17961
97.253315
23822.668
20734.276
17880.866
15269.392
12904.524
10786.017
8913.2769
7278.179
5870.6664
4677.2203
3681.1009
2862.9513
2201.4875
1675.0532
1262.1978
942.33829
694.19316
490.27187
320.85806
223.09643
178.14517
152.56328
133.04703
122.56177
114.52758
109.57378
106.08939
101.63723
100.53132
98.179867
97.258777
23601.342
20617.15
17836.623
15271.279
12931.963
10827.508
8959.8771
7323.4738
5910.8925
4710.8663
3707.7999
2883.163
2216.156
1685.3055
1269.1735
947.07435
697.50431
492.20836
321.65285
223.16844
178.28969
152.64658
133.04772
122.48674
114.46255
109.52702
106.10015
101.6165
100.519
98.180123
97.264297
23355.137
20497.084
17799.646
15283.816
12971.042
10878.068
9012.3303
7372.9861
5954.5545
4747.4257
3736.9025
2905.2728
2232.2531
1696.5732
1276.8142
952.20207
701.03463
494.29394
322.50812
223.34762
178.44064
152.72735
133.04869
122.41728
114.39652
109.48579
106.11168
101.5974
100.50544
98.180314
97.269764
51492.161
75881.689
99704.224
98368.392
84150.36
60875.647
43736.139
31995.95
23649.955
17436.262
12741.838
9197.2262
6549.719
4604.8151
3199.2819
2199.2555
1497.6096
1008.0451
667.35523
433.65419
277.73058
195.5833
156.72267
136.43267
123.33525
114.95082
108.64219
103.10612
101.32449
98.389689
97.012941
49638.88
71157.238
94399.873
96239.75
82913.847
60656.302
43752.81
32093.946
23759.289
17543.774
12840.047
9280.6093
6615.4326
4653.6739
3233.9367
2222.8465
1513.0576
1017.921
673.48093
437.61394
279.98815
196.51851
157.15124
136.70088
123.50812
115.04456
108.69388
103.12028
101.32031
98.3934
97.011095
48066.806
67394.642
89416.431
93532.376
81355.652
60256.35
43742.535
32177.291
23861.148
17646.877
12935.536
9362.4824
6680.5533
4702.4192
3268.681
2246.5852
1528.6468
1027.8977
679.68833
441.60646
282.29426
197.48153
157.59138
136.97569
123.68378
115.13856
108.74697
103.13399
101.31492
98.397112
97.009136
46629.281
64218.965
84877.298
90688.525
79808.39
59816.432
43708.81
32245.392
23954.872
17745.144
13028.055
9442.709
6744.9808
4750.9911
3303.4841
2270.4572
1544.3713
1037.9754
685.97515
445.61858
284.63357
198.47094
158.04523
137.25786
123.86295
115.23319
108.80198
103.14722
101.30964
98.400818
97.007175
45341.682
61479.363
80746.074
87820.822
78257.341
59339.293
43639.449
32297.032
24039.782
17838.215
13117.408
9521.1661
6808.6301
4799.3394
3338.3194
2294.4502
1560.2258
1048.1522
692.34028
449.6404
286.99941
199.48144
158.51014
137.54499
124.04429
115.32738
108.85842
103.15961
101.30513
98.404514
97.00521
44198.704
59078.651
76991.216
84949.787
76691.241
58824.339
43540.085
32331.614
24115.358
17925.789
13203.436
9597.7528
6871.4292
4847.42
3373.1632
2318.5528
1576.2053
1058.428
698.78289
453.65762
289.39046
200.51086
158.98438
137.83525
124.22662
115.42021
108.91581
103.17096
101.30155
98.408196
97.003256
43188.762
56953.863
73580.768
82109.365
75097.867
58278.954
43412.01
32347.828
24181.159
18007.619
13285.999
9672.3756
6933.3111
4895.191
3407.9928
2342.754
1592.3053
1068.8013
705.30225
457.65739
291.80702
201.5595
159.46775
138.12786
124.40939
115.51122
108.974
103.18125
101.29877
98.411878
97.001343
42302.002
55062.259
70483.432
79325.123
73460.907
57713.475
43256.619
32345.298
24236.831
18083.518
13364.954
9744.9397
6994.208
4942.6101
3442.785
2367.0425
1608.5209
1079.2706
711.8978
461.63758
294.24909
202.62806
159.96044
138.4225
124.59216
115.60017
109.03297
103.19055
101.29674
98.41554
96.999581
41529.259
53374.362
67673.592
76623.288
71804.042
57117.055
43074.864
32330.433
24282.276
18153.243
13440.154
9815.3482
7054.0512
4989.6339
3477.5156
2391.4064
1624.8469
1089.8347
718.56932
465.5965
296.71623
203.71692
160.46245
138.71888
124.77442
115.68694
109.0927
103.199
101.29549
98.419124
96.997991
40858.471
51865.347
65124.174
74006.665
70097.633
56510.369
42868.419
32296.557
24317.06
18216.502
13511.445
9883.5027
7112.7711
5036.2178
3512.1599
2415.8334
1641.2779
1100.4919
725.3172
469.53321
299.20786
204.82628
160.9735
139.01668
124.95556
115.77151
109.15313
103.20675
101.29504
98.422658
96.996568
40278.102
50513.529
62805.781
71483.318
68366.773
55889.51
42638.613
32243.592
24340.814
18273.07
13578.679
9949.3045
7170.2992
5082.3166
3546.6923
2440.3107
1657.8082
1111.2404
732.14278
473.44864
301.72305
205.95626
161.49315
139.31562
125.13492
115.85405
109.21417
103.21402
101.29514
98.426141
96.99522
39777.071
49299.602
60691.637
69059.618
66616.95
55224.137
42384.917
32173.325
24353.015
18322.729
13641.706
10012.654
7226.5668
5127.8856
3581.0865
2464.8249
1674.4317
1122.0781
739.04909
477.35317
304.26044
207.10691
162.02085
139.6155
125.31193
115.93488
109.27568
103.22104
101.29595
98.429533
96.994124
39344.414
48206.927
58758.515
66740.7
64819.503
54492.928
42105.401
32085.664
24352.49
18365.285
13700.388
10073.452
7281.5049
5172.8792
3615.3161
2489.3623
1691.1421
1133.0024
746.03287
481.25902
306.81859
208.27817
162.55602
139.91619
125.48611
116.0145
109.33751
103.22808
101.29744
98.432855
96.993259
38970.032
47221.088
56989.072
64550.337
63167.649
53714.759
41799.685
31980.942
24344.346
18400.748
13754.6
10131.602
7335.044
5217.2516
3649.354
2513.9088
1707.9328
1144.0104
753.07725
485.19373
309.39663
209.46989
163.09804
140.21764
125.65719
116.09347
109.39945
103.23542
101.29935
98.436125
96.992561
38645.013
46329.419
55369.015
62499.279
61648.302
52905.283
41468.505
31859.228
24324.318
18428.928
13804.222
10187.009
7387.1146
5260.9568
3683.1727
2538.4498
1724.7969
1155.1002
760.17678
489.19857
311.99386
210.68176
163.64625
140.51989
125.8251
116.17242
109.4613