/*--------------------------------*- C++ -*----------------------------------*\
| =========                 |                                                 |
| \\      /  F ield         | OpenFOAM: The Open Source CFD Toolbox           |
|  \\    /   O peration     | Version:  2406                                  |
|   \\  /    A nd           | Website:  www.openfoam.com                      |
|    \\/     M anipulation  |                                                 |
\*---------------------------------------------------------------------------*/
FoamFile
{
    version     2.0;
    format      ascii;
    arch        "LSB;label=32;scalar=64";
    class       volScalarField;
    location    "0.043";
    object      T;
}
// * * * * * * * * * * * * * * * * * * * * * * * * * * * * * * * * * * * * * //

dimensions      [0 0 0 1 0 0 0];

internalField   nonuniform List<scalar> 
35803
(
292.50038
292.50383
292.50642
292.51258
292.52252
292.53548
292.55057
292.56664
292.58208
292.59552
292.60494
292.60802
292.60323
292.58913
292.56632
292.53563
292.50332
292.48969
292.55165
292.63234
292.67283
292.69887
292.73033
292.74963
292.77971
292.79209
292.81175
292.82064
292.83475
292.85389
293.01988
292.54626
292.54706
292.54855
292.55257
292.55908
292.56796
292.57879
292.59059
292.6018
292.61153
292.61784
292.61847
292.61159
292.59582
292.57158
292.53997
292.50777
292.49633
292.56218
292.63956
292.6773
292.7022
292.73426
292.75218
292.78105
292.79322
292.81268
292.82122
292.83535
292.85698
293.01904
292.60564
292.60244
292.60049
292.60079
292.60302
292.60719
292.61306
292.61986
292.62639
292.63174
292.6344
292.63193
292.62244
292.60455
292.57847
292.54556
292.51305
292.50452
292.57443
292.64743
292.6822
292.70584
292.73798
292.75481
292.78245
292.79424
292.81379
292.82185
292.83597
292.85994
293.01778
292.67441
292.66667
292.66021
292.65585
292.65321
292.65225
292.65281
292.6543
292.65575
292.65622
292.65442
292.64823
292.63561
292.61517
292.58689
292.55233
292.51945
292.51482
292.58865
292.65624
292.6878
292.71008
292.74161
292.75744
292.78401
292.79537
292.81516
292.82256
292.837
292.86262
293.01621
292.7479
292.73632
292.72554
292.71641
292.7087
292.70237
292.69735
292.69323
292.68926
292.68451
292.67778
292.66732
292.65107
292.62765
292.59682
292.56047
292.52751
292.52795
292.60513
292.66606
292.69419
292.71497
292.74508
292.76027
292.78576
292.79674
292.8167
292.82349
292.8383
292.86493
293.01412
292.82314
292.80877
292.79449
292.78114
292.76865
292.75708
292.74648
292.73663
292.727
292.71674
292.70477
292.68955
292.66919
292.64232
292.60856
292.57028
292.53753
292.54487
292.62406
292.67697
292.70149
292.72061
292.74856
292.76371
292.78844
292.79862
292.81808
292.82467
292.83974
292.86683
293.01116
292.89861
292.88226
292.86534
292.84857
292.83196
292.81565
292.79981
292.78438
292.76904
292.75313
292.73565
292.71527
292.69033
292.65955
292.62245
292.58217
292.5502
292.56681
292.6454
292.68905
292.70979
292.7271
292.75271
292.76783
292.79179
292.80134
292.81913
292.82598
292.84114
292.86833
293.00911
292.9732
292.9556
292.93686
292.91743
292.89744
292.87708
292.85657
292.83598
292.81516
292.79361
292.7705
292.7447
292.71479
292.67968
292.63888
292.59666
292.56667
292.59463
292.66878
292.70244
292.71923
292.73454
292.75788
292.77235
292.79577
292.80467
292.82025
292.82747
292.84253
292.86946
293.01175
293.04524
293.02695
293.0071
292.98591
292.96348
292.93999
292.91565
292.89059
292.86476
292.83783
292.80918
292.77787
292.74277
292.70302
292.6583
292.61434
292.58885
292.62919
292.69347
292.71732
292.72999
292.74306
292.76378
292.7779
292.80024
292.80853
292.82201
292.82924
292.84404
292.87027
293.00966
293.1125
293.09427
293.0741
293.05208
293.02823
293.00266
292.9755
292.94688
292.9168
292.88506
292.85122
292.81456
292.77427
292.72976
292.68114
292.63626
292.61993
292.67068
292.71886
292.73385
292.74228
292.75278
292.77055
292.78412
292.80513
292.81295
292.82434
292.8314
292.84578
292.87081
293.00816
293.17384
293.15616
293.13636
293.11432
293.08994
293.06323
293.03427
293.00311
292.96976
292.93407
292.89571
292.85421
292.80906
292.76002
292.70801
292.66471
292.66474
292.71708
292.74481
292.75217
292.75634
292.76386
292.77835
292.79142
292.81052
292.81792
292.82719
292.8341
292.84847
292.87113
293.00681
293.22837
293.21109
293.19174
293.17017
293.14604
293.11917
293.08952
293.05704
293.02163
292.98313
292.9413
292.89584
292.84657
292.79381
292.74044
292.70545
292.72574
292.76252
292.77153
292.77246
292.77235
292.77651
292.78743
292.79958
292.81647
292.82339
292.8304
292.83726
292.85212
292.87126
293.01386
293.27388
293.2576
293.23904
293.21808
293.19459
293.16836
293.13907
293.10646
293.07025
293.03023
292.98618
292.93802
292.886
292.83182
292.7839
292.76987
292.79367
292.8041
292.79964
292.79474
292.79027
292.791
292.79799
292.8087
292.82304
292.82948
292.83355
292.84055
292.85647
292.87125
293.01601
293.3087
293.29392
293.27714
293.25797
293.23594
293.21079
293.18227
293.15008
293.11389
293.07345
293.02866
292.97989
292.92868
292.88034
292.85159
292.85571
292.85471
292.84171
292.8293
292.81905
292.8104
292.80702
292.81024
292.8187
292.83031
292.83623
292.83789
292.84411
292.8605
292.87131
293.01836
293.33114
293.31753
293.30199
293.28445
293.2645
293.24146
293.21487
293.18459
293.15046
293.1123
293.07038
293.02632
292.98456
292.95475
292.94318
292.92803
292.90084
292.87814
292.86012
292.84515
292.83234
292.82493
292.82388
292.82972
292.83853
292.84388
292.84334
292.84847
292.86501
292.87175
293.02027
293.34242
293.32993
293.31533
293.29844
293.2795
293.25889
293.23643
293.21157
293.18411
293.15401
293.12209
293.09046
293.06167
293.03707
293.01001
292.97471
292.94123
292.91379
292.89182
292.87258
292.85607
292.84447
292.83913
292.84181
292.8475
292.85242
292.85047
292.85377
292.86941
292.87284
293.02095
293.35999
293.35219
293.34333
293.33289
293.3197
293.30256
293.28135
293.25648
293.2301
293.20429
293.1777
293.14927
293.11826
293.0818
293.04503
293.01231
292.97804
292.94759
292.92246
292.90049
292.8812
292.86596
292.85633
292.85524
292.85738
292.8614
292.85948
292.86014
292.87446
292.87551
293.01985
293.32986
293.32332
293.31604
293.30811
293.2999
293.29192
293.28435
293.2765
293.26408
293.24266
293.21305
293.17874
293.14636
293.11107
293.07482
293.04236
293.00937
292.97755
292.95073
292.92748
292.90709
292.88929
292.87592
292.87068
292.86832
292.87057
292.86906
292.86746
292.88095
292.88123
293.01712
293.3133
293.30761
293.30088
293.29281
293.28309
293.27133
293.2573
293.24152
293.22585
293.21137
293.19944
293.18754
293.16292
293.1308
293.09728
293.06484
293.03385
293.00309
292.97534
292.95194
292.93216
292.91362
292.8979
292.88845
292.88139
292.88074
292.8781
292.87532
292.88926
292.89
293.01458
293.2713
293.26758
293.26337
293.2586
293.25321
293.24714
293.24021
293.23207
293.22221
293.2099
293.19309
293.17244
293.1564
293.14154
293.11215
293.08269
293.05622
293.02593
292.99707
292.97283
292.95477
292.93681
292.92017
292.90848
292.89701
292.89315
292.88809
292.88466
292.89934
292.90054
293.01632
293.24648
293.24326
293.23945
293.23493
293.2295
293.223
293.21525
293.20617
293.19577
293.18425
293.17233
293.16061
293.14577
293.1297
293.11851
293.09428
293.07285
293.04729
293.01925
292.99263
292.9744
292.95733
292.9412
292.92897
292.91622
292.90916
292.90209
292.89849
292.91082
292.91171
293.02301
293.20659
293.2045
293.20213
293.19942
293.19635
293.19289
293.18896
293.18447
293.17919
293.1727
293.16428
293.15303
293.13992
293.12516
293.11098
293.10164
293.0782
293.05686
293.03532
293.01388
292.99345
292.97541
292.95964
292.94916
292.93764
292.92866
292.92031
292.91564
292.92263
292.92102
293.03146
293.18737
293.18563
293.18357
293.18109
293.17808
293.17443
293.16999
293.16465
293.15835
293.15117
293.14339
293.13544
293.12694
293.117
293.10457
293.0901
293.07958
293.06689
293.04793
293.02852
293.0096
292.99109
292.97481
292.96609
292.95765
292.94902
292.93929
292.93211
292.93362
292.92784
293.04287
293.15107
293.14991
293.14858
293.14705
293.1453
293.1433
293.14105
293.13849
293.13556
293.13204
293.12758
293.12174
293.11441
293.10608
293.09677
293.08636
293.07498
293.06216
293.05262
293.03424
293.01906
293.0028
292.98787
292.97794
292.97195
292.9643
292.95614
292.94817
292.9477
292.94278
293.05358
293.1295
293.12858
293.12747
293.12614
293.12452
293.12252
293.12006
293.11703
293.11334
293.10903
293.10423
293.09923
293.09413
293.08852
293.08225
293.0746
293.06525
293.05666
293.04315
293.03683
293.02455
293.00911
292.99604
292.98564
292.97948
292.97411
292.96917
292.96206
292.9608
292.96048
293.05405
293.09324
293.09269
293.09205
293.09133
293.09052
293.08966
293.08876
293.08788
293.08702
293.08613
293.085
293.08328
293.08062
293.07693
293.07207
293.06655
293.06015
293.05067
293.04374
293.02842
293.01454
293.00875
293.00245
292.99324
292.98614
292.98438
292.97935
292.97103
292.96805
292.95752
293.04214
293.07214
293.07192
293.07164
293.07127
293.07079
293.07017
293.06937
293.06835
293.06704
293.06543
293.06352
293.06137
293.05909
293.0567
293.05419
293.051
293.04683
293.04188
293.03316
293.0276
293.01509
293.00478
293.00043
293.00024
292.99725
292.99492
292.98737
292.97848
292.97535
292.95956
293.03389
293.0461
293.04607
293.04602
293.04593
293.04581
293.04564
293.04541
293.04511
293.04475
293.04431
293.04376
293.04306
293.04219
293.04109
293.03967
293.03779
293.03522
293.03213
293.02817
293.02384
293.02313
293.01886
293.01475
293.01379
293.00943
293.00226
292.99257
292.98342
292.98192
292.96951
293.02553
293.0414
293.04128
293.04113
293.04096
293.04076
293.04052
293.04022
293.03988
293.03947
293.03901
293.03847
293.03784
293.03707
293.03618
293.03513
293.03366
293.03191
293.02999
293.02797
293.02597
293.02278
293.02203
293.02353
293.0276
293.02251
293.01381
293.00234
292.98884
292.98435
292.97068
293.0162
293.03693
293.03686
293.03677
293.03664
293.03647
293.03623
293.03591
293.03549
293.03498
293.03441
293.03382
293.03322
293.03262
293.03199
293.03134
293.03076
293.03037
293.02994
293.02878
293.02713
293.0242
293.02037
293.01583
293.02646
293.02624
293.01844
293.00556
292.99051
292.9848
292.97427
293.00281
293.03577
293.03602
293.03629
293.03656
293.03684
293.03711
293.03736
293.03761
293.03784
293.03806
293.03827
293.03847
293.03862
293.03871
293.03862
293.0382
293.03714
293.03523
293.03286
293.02781
293.02548
293.02237
293.01244
293.00815
293.01971
293.02196
293.02188
293.01067
293.00439
292.99992
292.99719
293.07396
293.15556
293.2654
293.32028
293.2793
293.18333
293.06965
292.96514
292.87677
292.80227
292.73842
292.68277
292.63363
292.5896
292.54867
292.50972
292.46869
292.42633
292.38028
292.38108
292.45477
292.55194
292.61473
292.65988
292.71008
292.74164
292.77637
292.79287
292.80903
292.82636
293.05638
293.12102
293.21084
293.28078
293.27155
293.21209
293.12008
293.02003
292.92862
292.84944
292.78111
292.72156
292.66918
292.62268
292.58074
292.54143
292.50373
292.4635
292.42217
292.3787
292.38269
292.46128
292.55697
292.61786
292.66219
292.71213
292.74324
292.77748
292.79319
292.80911
292.82633
293.05599
293.1833
293.27011
293.29549
293.25858
293.1782
293.07924
292.98385
292.8997
292.82654
292.76273
292.70663
292.65708
292.61292
292.57286
292.53501
292.49839
292.45887
292.41836
292.37739
292.38467
292.46787
292.56178
292.6208
292.66434
292.71403
292.74474
292.77854
292.79345
292.80922
292.82632
293.05583
293.25871
293.3095
293.29365
293.22843
293.13522
293.03865
292.95092
292.8737
292.80573
292.74581
292.6928
292.64585
292.60387
292.56556
292.52907
292.49344
292.45459
292.4148
292.37633
292.38707
292.47457
292.56649
292.62371
292.66649
292.71593
292.74623
292.77962
292.79367
292.80936
292.82618
293.05551
293.32233
293.32056
293.27048
293.18594
293.09098
293.00123
292.92105
292.84971
292.78617
292.72971
292.67959
292.63512
292.59523
292.55859
292.52339
292.48871
292.45055
292.41147
292.37553
292.38994
292.4814
292.57109
292.62659
292.66864
292.71778
292.74769
292.78068
292.79385
292.80954
292.82596
293.05417
293.34535
293.30419
293.22945
293.13906
293.04928
292.96736
292.8937
292.82726
292.76758
292.71429
292.66692
292.62485
292.58697
292.55193
292.51799
292.48422
292.44676
292.40842
292.37496
292.39329
292.4883
292.57554
292.62943
292.67077
292.71959
292.74912
292.78174
292.79398
292.80974
292.82568
293.05467
293.3356
293.26591
293.18194
293.09404
293.01166
292.93672
292.86836
292.80607
292.74983
292.69951
292.6548
292.61505
292.57912
292.54563
292.51288
292.47997
292.44325
292.40563
292.37455
292.39713
292.4952
292.57986
292.63223
292.67289
292.72136
292.75052
292.78277
292.79407
292.80997
292.8254
293.05428
293.30134
293.21859
293.1344
293.05307
292.97783
292.90854
292.84453
292.78587
292.73281
292.68534
292.64321
292.60571
292.57167
292.53967
292.50807
292.47599
292.44002
292.40305
292.37428
292.40149
292.50206
292.58404
292.635
292.67499
292.72307
292.75188
292.78374
292.79411
292.81023
292.82512
293.05371
293.25359
293.16974
293.09078
293.01635
292.94692
292.88211
292.82181
292.76648
292.71643
292.67175
292.63214
292.59684
292.56461
292.53404
292.50355
292.47225
292.43703
292.4007
292.37424
292.40635
292.50882
292.58808
292.63774
292.67709
292.72473
292.75321
292.78462
292.7941
292.81052
292.8249
293.05298
293.20211
293.12387
293.05146
292.98284
292.91799
292.85691
292.79996
292.74776
292.70064
292.65869
292.62157
292.58841
292.55795
292.52876
292.49932
292.46877
292.43426
292.39864
292.3745
292.41154
292.51545
292.59199
292.64046
292.67917
292.72632
292.7545
292.78541
292.79405
292.81085
292.82472
293.05151
293.15379
293.08247
293.01564
292.95154
292.89039
292.83259
292.77879
292.72962
292.6854
292.64617
292.61149
292.58042
292.55168
292.52381
292.49539
292.46554
292.43173
292.39686
292.37507
292.41701
292.52195
292.59579
292.64315
292.68124
292.72785
292.75574
292.78609
292.79397
292.8112
292.82458
293.05134
293.11024
293.04464
292.98211
292.92159
292.86363
292.8089
292.75818
292.71202
292.6707
292.63416
292.60189
292.57288
292.5458
292.5192
292.49175
292.46254
292.42944
292.39531
292.37599
292.42278
292.52833
292.59946
292.64582
292.6833
292.72932
292.75694
292.78666
292.79385
292.81159
292.82446
293.0506
293.07035
293.00904
292.94987
292.89239
292.8374
292.78569
292.73804
292.69491
292.6565
292.62267
292.59277
292.56577
292.5403
292.51492
292.48839
292.45978
292.42741
292.39401
292.37723
292.42887
292.53456
292.60304
292.64848
292.68535
292.73074
292.7581
292.7871
292.79372
292.81202
292.82437
293.04981
293.03255
292.97452
292.91818
292.86353
292.81146
292.76284
292.71832
292.67828
292.64282
292.61167
292.58413
292.55909
292.53518
292.51098
292.48533
292.45726
292.42566
292.39296
292.3788
292.43524
292.54063
292.60651
292.65111
292.68738
292.7321
292.75921
292.78744
292.79358
292.8125
292.8243
293.04851
292.99545
292.94017
292.88652
292.83471
292.78569
292.74027
292.69898
292.66211
292.62964
292.60118
292.57597
292.55284
292.53044
292.50736
292.48255
292.45499
292.42419
292.39218
292.38067
292.44186
292.54653
292.60989
292.65371
292.68939
292.73341
292.76029
292.78767
292.79346
292.81304
292.82425
293.04818
292.95799
292.9054
292.85452
292.80575
292.75998
292.71794
292.68003
292.64641
292.61696
292.5912
292.56828
292.54702
292.52608
292.50408
292.48005
292.45297
292.42297
292.3917
292.38283
292.44868
292.55224
292.61318
292.65629
292.6914
292.7347
292.76132
292.78782
292.79337
292.81363
292.82423
293.04744
292.91949
292.86977
292.82196
292.77652
292.73429
292.69584
292.66146
292.63118
292.60479
292.58172
292.56106
292.54164
292.5221
292.50114
292.47784
292.45122
292.42194
292.39155
292.38526
292.45568
292.55777
292.6164
292.65884
292.69338
292.73597
292.76232
292.7879
292.79332
292.81429
292.82426
293.04712
292.87944
292.833
292.78869
292.74698
292.7086
292.67398
292.64328
292.61644
292.59314
292.57274
292.55432
292.53668
292.5185
292.49852
292.4759
292.44975
292.42112
292.39169
292.38795
292.46281
292.56311
292.61954
292.66136
292.69534
292.73723
292.76329
292.78794
292.79333
292.81502
292.82434
293.04719
292.83752
292.79495
292.75466
292.71713
292.68294
292.65238
292.62552
292.6022
292.58201
292.56429
292.54805
292.53214
292.51527
292.49623
292.47425
292.4486
292.42051
292.39205
292.39089
292.47004
292.56825
292.62262
292.66384
292.69729
292.73852
292.76424
292.78797
292.79341
292.81583
292.82448
293.04713
292.79359
292.75558
292.71991
292.68702
292.65736
292.63109
292.60821
292.58848
292.57142
292.55635
292.54227
292.52804
292.51243
292.49428
292.47289
292.44774
292.4201
292.39262
292.3941
292.47732
292.57321
292.62563
292.66629
292.69922
292.73985
292.76518
292.78801
292.79359
292.8167
292.82469
293.04682
292.74773
292.71501
292.68456
292.65677
292.63195
292.61018
292.5914
292.5753
292.56139
292.54893
292.53696
292.52437
292.50996
292.49265
292.47183
292.44716
292.41982
292.39337
292.3976
292.48461
292.57798
292.62859
292.6687
292.70113
292.74122
292.76611
292.7881
292.79385
292.81763
292.82499
293.04635
292.70024
292.67349
292.64882
292.62653
292.60681
292.58972
292.57513
292.5627
292.55192
292.54205
292.53213
292.52113
292.50787
292.49133
292.4711
292.44684
292.41978
292.39427
292.40145
292.49187
292.58257
292.6315
292.67109
292.70303
292.74267
292.76705
292.78826
292.79423
292.8186
292.82538
293.04578
292.65163
292.63139
292.61298
292.5965
292.58209
292.56979
292.55945
292.55071
292.54303
292.5357
292.5278
292.51832
292.50615
292.49037
292.47068
292.44674
292.41999
292.39532
292.40568
292.49905
292.58699
292.63436
292.67344
292.70492
292.74419
292.76801
292.78851
292.79472
292.81958
292.82587
293.04518
292.60257
292.58924
292.57738
292.5669
292.55793
292.55048
292.54443
292.53936
292.53474
292.5299
292.52395
292.51594
292.50479
292.48978
292.47053
292.44688
292.42043
292.39653
292.41025
292.50609
292.59124
292.63718
292.67577
292.7068
292.74579
292.76899
292.7889
292.79533
292.82055
292.82646
293.04455
292.55391
292.54768
292.54232
292.53794
292.53449
292.53193
292.53013
292.52869
292.52707
292.52466
292.52059
292.51397
292.50383
292.48954
292.47066
292.44727
292.42107
292.39797
292.41515
292.51299
292.59535
292.63996
292.67809
292.70868
292.74749
292.76999
292.78943
292.79608
292.8215
292.82716
293.04392
292.50621
292.507
292.50822
292.5099
292.51195
292.51423
292.5166
292.51872
292.52004
292.51997
292.5177
292.51241
292.50331
292.48964
292.47107
292.4479
292.42191
292.39968
292.42034
292.51971
292.59931
292.64271
292.68039
292.71057
292.74925
292.77101
292.79014
292.79697
292.82239
292.82792
293.04329
292.46024
292.46781
292.47545
292.48305
292.49046
292.49747
292.50394
292.5095
292.51364
292.51582
292.51528
292.5114
292.50322
292.49002
292.47177
292.44878
292.42295
292.40161
292.42579
292.52625
292.60314
292.64542
292.68269
292.71247
292.75107
292.77204
292.79105
292.79801
292.82321
292.82869
293.04265
292.41666
292.43063
292.44436
292.45764
292.47019
292.48177
292.49217
292.50105
292.50788
292.51219
292.51341
292.51089
292.50343
292.49073
292.47276
292.44991
292.42421
292.40376
292.43145
292.53258
292.60686
292.6481
292.68499
292.71438
292.75292
292.77307
292.79214
292.79921
292.82393
292.82943
293.04202
292.37603
292.39586
292.41528
292.43389
292.45129
292.46719
292.48133
292.49335
292.50272
292.50916
292.51221
292.5108
292.50402
292.49176
292.47403
292.4513
292.42568
292.40612
292.43729
292.53872
292.61046
292.65076
292.68729
292.71629
292.75476
292.77413
292.79339
292.80056
292.82455
292.83013
293.04137
292.33878
292.36387
292.38846
292.41198
292.4339
292.45379
292.47138
292.48635
292.49832
292.50703
292.51158
292.51104
292.505
292.49313
292.4756
292.45296
292.4274
292.40863
292.44323
292.54466
292.61396
292.65338
292.68959
292.71821
292.75656
292.77524
292.79476
292.80204
292.82507
292.83079
293.0407
292.30522
292.33487
292.36406
292.39202
292.41805
292.44159
292.46234
292.48031
292.49507
292.50565
292.51135
292.51174
292.50635
292.49483
292.47746
292.45488
292.42935
292.41131
292.44924
292.55038
292.61736
292.65597
292.6919
292.72014
292.75831
292.77639
292.79618
292.8036
292.82549
292.83139
293.03999
292.27557
292.30914
292.34233
292.37418
292.4039
292.43095
292.45491
292.47576
292.49262
292.50472
292.51164
292.51292
292.50808
292.49687
292.47961
292.45707
292.43153
292.41417
292.45528
292.55592
292.62069
292.65854
292.6942
292.72208
292.76001
292.77756
292.79757
292.80516
292.82582
292.83193
293.03924
292.25121
292.28797
292.32439
292.35936
292.39228
292.42255
292.44939
292.47227
292.49071
292.50431
292.51244
292.51453
292.51019
292.49923
292.48205
292.45953
292.43393
292.41721
292.46133
292.56128
292.62397
292.66108
292.69649
292.72401
292.76166
292.77874
292.79888
292.80662
292.82605
292.83241
293.03843
292.23296
292.27204
292.31092
292.34835
292.38394
292.41645
292.44497
292.46937
292.4895
292.50448
292.51372
292.51655
292.51268
292.50191
292.48477
292.46223
292.43654
292.42045
292.46734
292.56648
292.62719
292.66358
292.69876
292.72595
292.76324
292.77992
292.80008
292.80796
292.8262
292.83282
293.03759
292.21803
292.25966
292.30079
292.3405
292.37759
292.41102
292.44112
292.46733
292.489
292.50523
292.51547
292.51899
292.51554
292.50493
292.48777
292.46516
292.43937
292.42387
292.47331
292.57153
292.63036
292.66605
292.70101
292.7279
292.76476
292.78107
292.80119
292.80918
292.82628
292.83315
293.03673
292.20347
292.24799
292.29138
292.33284
292.37127
292.40646
292.4384
292.46622
292.48923
292.50658
292.51771
292.52186
292.51878
292.50826
292.49106
292.46831
292.44242
292.42748
292.47921
292.57644
292.63348
292.66848
292.70322
292.72986
292.7662
292.78217
292.80219
292.81028
292.82634
292.83342
293.03586
292.19483
292.24035
292.28473
292.32711
292.36675
292.40351
292.43687
292.46605
292.49022
292.50854
292.52044
292.52516
292.5224
292.51193
292.49463
292.47169
292.44569
292.43127
292.48502
292.5812
292.63656
292.67088
292.70538
292.73182
292.76754
292.78319
292.8031
292.8113
292.82641
292.83366
293.03501
292.19396
292.23846
292.28222
292.32444
292.36456
292.4022
292.43659
292.46685
292.49197
292.51112
292.5237
292.52889
292.52639
292.51593
292.49849
292.4753
292.44917
292.43522
292.49074
292.58583
292.63959
292.67323
292.70748
292.73377
292.76879
292.78412
292.80387
292.81226
292.82662
292.83388
293.0342
292.19921
292.24133
292.28337
292.32463
292.36455
292.40253
292.43759
292.46867
292.49452
292.51434
292.52747
292.53306
292.53075
292.52025
292.50264
292.47914
292.45285
292.43932
292.49635
292.59032
292.64259
292.67555
292.7095
292.73567
292.76993
292.78493
292.80455
292.81315
292.82691
292.8341
293.0335
292.20846
292.24747
292.28729
292.3272
292.36655
292.40451
292.43994
292.47157
292.49789
292.51822
292.53176
292.53765
292.53549
292.52491
292.50707
292.48321
292.45672
292.44357
292.50184
292.59468
292.64554
292.67783
292.71143
292.7375
292.77096
292.78564
292.80518
292.814
292.82729
292.83435
293.03252
292.21953
292.25551
292.29324
292.33183
292.37047
292.40817
292.44369
292.47557
292.50209
292.52275
292.53657
292.54267
292.54059
292.52988
292.51178
292.4875
292.46078
292.44793
292.50722
292.59891
292.64845
292.68007
292.71326
292.73919
292.77192
292.78625
292.80579
292.81481
292.82776
292.83469
293.03109
292.23105
292.26476
292.30096
292.33849
292.37639
292.4136
292.44891
292.48072
292.50716
292.52794
292.54189
292.54811
292.54606
292.53519
292.51678
292.49202
292.46501
292.4524
292.51247
292.60302
292.65133
292.68229
292.71501
292.74074
292.77284
292.78681
292.8064
292.8156
292.82832
292.83515
293.03016
292.24341
292.27574
292.31093
292.34755
292.38455
292.42094
292.45567
292.48701
292.51311
292.5338
292.54772
292.55396
292.55189
292.54081
292.52206
292.49677
292.46938
292.45697
292.51759
292.607
292.65415
292.68447
292.7167
292.74212
292.77378
292.78736
292.80701
292.81636
292.829
292.83585
293.02926
292.25899
292.29022
292.32433
292.35972
292.39535
292.4304
292.46399
292.49442
292.51998
292.5403
292.55405
292.56023
292.55806
292.54674
292.52762
292.50174
292.4739
292.4616
292.52259
292.61086
292.65694
292.68663
292.71836
292.74334
292.77477
292.78794
292.80763
292.81709
292.82975
292.8369
293.02827
292.28107
292.31045
292.34252
292.37574
292.40913
292.4421
292.47388
292.50294
292.52771
292.54746
292.56087
292.56689
292.56457
292.55299
292.53345
292.50693
292.47856
292.46629
292.52745
292.6146
292.65968
292.68876
292.72005
292.74443
292.77579
292.78858
292.80828
292.81779
292.83061
292.83843
293.02722
292.31194
292.33788
292.36626
292.39587
292.42596
292.45591
292.4852
292.51248
292.53622
292.55523
292.56815
292.57392
292.5714
292.55952
292.53954
292.51235
292.48335
292.47102
292.53221
292.61824
292.66238
292.69086
292.72177
292.74541
292.77674
292.78926
292.80897
292.81845
292.8315
292.84059
293.02613
292.35112
292.37178
292.39476
292.41941
292.44511
292.47136
292.49773
292.52286
292.54525
292.56345
292.57582
292.58127
292.5785
292.56631
292.54584
292.51795
292.48827
292.47578
292.53689
292.62178
292.66503
292.69293
292.72354
292.74632
292.77753
292.78997
292.8097
292.81907
292.8324
292.84337
293.02496
292.39538
292.40928
292.42554
292.44441
292.46531
292.48767
292.51088
292.53369
292.55446
292.57184
292.58373
292.58885
292.5858
292.57328
292.55231
292.52371
292.49328
292.48054
292.54148
292.62516
292.66759
292.69491
292.72541
292.7472
292.77818
292.79066
292.81043
292.81964
292.83328
292.8468
293.02319
292.44173
292.44895
292.45779
292.47046
292.48649
292.50497
292.52499
292.54528
292.5643
292.58057
292.59208
292.59683
292.59345
292.58057
292.55903
292.52965
292.49838
292.48503
292.54572
292.62819
292.66994
292.69672
292.72754
292.74818
292.77884
292.79136
292.81109
292.82016
292.83411
292.85047
293.02241
293.04496
293.11254
293.21606
293.2962
293.28254
293.19689
293.08434
292.97834
292.88781
292.81146
292.7462
292.68939
292.63919
292.59421
292.55254
292.51295
292.47167
292.4288
292.38195
292.38043
292.45069
292.5489
292.6127
292.65837
292.70861
292.74039
292.77557
292.79266
292.80908
292.82631
293.05476
293.03729
293.09508
293.18252
293.26504
293.26568
293.19002
293.08479
292.98189
292.89231
292.81616
292.75085
292.69381
292.6432
292.59769
292.5555
292.51536
292.47377
292.43029
292.38343
292.37954
292.44767
292.54683
292.6113
292.65731
292.70745
292.73934
292.77493
292.79249
292.80916
292.8262
293.05469
293.03237
293.08574
293.16643
293.24919
293.25849
293.19044
293.08914
292.98762
292.89815
292.82171
292.75604
292.69859
292.64748
292.6014
292.55866
292.51793
292.47597
292.4319
292.38486
292.37859
292.44441
292.54447
292.60972
292.65614
292.70618
292.73819
292.77424
292.79226
292.80925
292.82599
293.05463
293.02767
293.07714
293.15313
293.23739
293.25434
293.19207
293.09356
292.99302
292.90361
292.82692
292.76094
292.70315
292.65162
292.60504
292.5618
292.52052
292.4782
292.43361
292.38635
292.37781
292.44123
292.54204
292.60808
292.65491
292.70485
292.737
292.77352
292.79198
292.80937
292.82571
293.05451
293.02336
293.06912
293.14045
293.22533
293.24992
293.19311
293.09745
292.99803
292.90878
292.83191
292.76569
292.70761
292.65571
292.60867
292.56495
292.52315
292.48048
292.43538
292.38793
292.37718
292.43815
292.5396
292.60642
292.65368
292.7035
292.7358
292.77278
292.79169
292.80952
292.8254
293.05435
293.01966
293.06213
293.12895
293.21258
293.24452
293.19347
293.10101
293.00285
292.91385
292.83685
292.77039
292.71204
292.6598
292.61233
292.56816
292.52586
292.48281
292.43724
292.38959
292.37668
292.43514
292.53715
292.60478
292.65245
292.70215
292.7346
292.77204
292.79137
292.80969
292.82507
293.05414
293.01659
293.05618
293.1188
293.19985
293.23794
293.19341
293.10442
293.00762
292.9189
292.84178
292.7751
292.71649
292.66392
292.61605
292.57144
292.52864
292.48522
292.43917
292.39133
292.37632
292.4322
292.53469
292.60313
292.65122
292.70079
292.73341
292.77128
292.79104
292.80987
292.82473
293.05389
293.01414
293.05116
293.10991
293.18787
293.23089
293.19303
293.1077
293.01234
292.92396
292.84673
292.77982
292.72095
292.66807
292.61982
292.57478
292.5315
292.4877
292.44119
292.39316
292.37608
292.42934
292.5322
292.60148
292.64997
292.69942
292.73223
292.77052
292.79069
292.81005
292.82439
293.05363
293.01231
293.04702
293.10218
293.17682
293.2236
293.19232
293.11085
293.01703
292.92901
292.8517
292.78456
292.72543
292.67226
292.62364
292.57819
292.53444
292.49024
292.44329
292.39508
292.37598
292.42655
292.5297
292.59982
292.64871
292.69805
292.73106
292.76973
292.79033
292.81022
292.82406
293.05327
293.01108
293.04371
293.09556
293.16675
293.21617
293.19128
293.11386
293.02169
292.93409
292.8567
292.78933
292.72995
292.67649
292.62752
292.58167
292.53745
292.49286
292.44547
292.39707
292.37601
292.42385
292.52719
292.59817
292.64744
292.69667
292.7299
292.76895
292.78995
292.81038
292.82377
293.05258
293.01045
293.04121
293.09
293.15766
293.20859
293.18988
293.11675
293.02633
292.93921
292.86175
292.79416
292.73452
292.68077
292.63146
292.58521
292.54054
292.49554
292.44774
292.39915
292.37618
292.42123
292.52466
292.59651
292.64616
292.6953
292.72876
292.76815
292.78958
292.81051
292.82351
293.05215
293.0104
293.03948
293.08544
293.14961
293.20138
293.18823
293.11954
293.03098
292.94438
292.86688
292.79904
292.73913
292.68511
292.63546
292.58882
292.54371
292.4983
292.45009
292.4013
292.37649
292.41871
292.52213
292.59486
292.64487
292.69392
292.72763
292.76736
292.7892
292.8106
292.82329
293.05155
293.01093
293.03848
293.08184
293.14264
293.19466
293.18648
293.12224
293.03563
292.94961
292.87208
292.804
292.74382
292.68951
292.63953
292.59251
292.54695
292.50113
292.45252
292.40353
292.37694
292.4163
292.51959
292.59321
292.64358
292.69256
292.72653
292.76657
292.78883
292.81065
292.82312
293.05072
293.01201
293.03817
293.07914
293.13675
293.1885
293.18475
293.12485
293.0403
292.95492
292.87737
292.80905
292.74858
292.69398
292.64367
292.59626
292.55027
292.50404
292.45501
292.4058
292.37753
292.414
292.51706
292.59156
292.64228
292.6912
292.72544
292.7658
292.78846
292.81066
292.82298
293.04967
293.01364
293.03854
293.07731
293.13192
293.18297
293.18318
293.12742
293.045
292.96031
292.88277
292.8142
292.75343
292.69852
292.64788
292.60009
292.55366
292.50701
292.45759
292.40813
292.37823
292.4118
292.51452
292.58991
292.64099
292.68987
292.72437
292.76504