/*--------------------------------*- C++ -*----------------------------------*\
| =========                 |                                                 |
| \\      /  F ield         | OpenFOAM: The Open Source CFD Toolbox           |
|  \\    /   O peration     | Version:  2406                                  |
|   \\  /    A nd           | Website:  www.openfoam.com                      |
|    \\/     M anipulation  |                                                 |
\*---------------------------------------------------------------------------*/
FoamFile
{
    version     2.0;
    format      ascii;
    arch        "LSB;label=32;scalar=64";
    class       volScalarField;
    location    "0.018";
    object      p;
}
// * * * * * * * * * * * * * * * * * * * * * * * * * * * * * * * * * * * * * //

dimensions      [1 -1 -2 0 0 0 0];

internalField   nonuniform List<scalar> 
35803
(
101221.25
101130.66
101072.59
101002.16
100933.58
100876.81
100834.83
100808.52
100798.33
100800.29
100813.71
100843.93
100885.41
100940.05
100999.23
101071.22
101141.25
101212.66
101246.84
101276.15
101299.38
101316.38
101337.12
101350.09
101371.03
101373.27
101398.03
101395.54
101408.74
101416.02
101374.15
101322.39
101262.1
101194.63
101117.16
101042.89
100979.5
100930.17
100896.05
100878.37
100870.56
100874.23
100895.48
100929.52
100976.93
101029.79
101094.52
101156.28
101222.52
101254.09
101282.51
101304.25
101320.23
101340.11
101352.52
101373.03
101375.64
101400.76
101397.2
101410.93
101417.12
101375.21
101401.85
101354.05
101286.51
101207.39
101131.32
101064.44
101009.76
100969.94
100944.1
100928.32
100922.1
100935.69
100963.32
101004.92
101054.08
101115.35
101172.9
101233.84
101263.49
101290.1
101310
101324.77
101343.63
101355.37
101375.35
101378.42
101403.52
101398.98
101413.48
101418.11
101376.53
101501.16
101450.95
101381.59
101299.82
101220.39
101148.91
101088.05
101039.89
101004.84
100981.5
100969.17
100975.59
100996.95
101032.92
101078.83
101137.22
101191.54
101246.33
101274.8
101298.79
101316.6
101330.01
101347.67
101358.67
101378.31
101381.72
101406.31
101400.9
101416.14
101418.98
101378.27
101601.75
101549.84
101479.87
101396.44
101313.92
101237.98
101170.97
101115.02
101071.52
101040.56
101022.2
101021.33
101036.08
101065.93
101108.09
101162.6
101212.9
101260.18
101288.03
101308.71
101324.18
101336.06
101352.3
101362.52
101382.24
101385.37
101409.11
101402.99
101418.74
101419.74
101380.69
101686.38
101636.83
101569.6
101487.79
101404.93
101326.81
101255.77
101194.06
101143.68
101105.75
101081.09
101073
101080.95
101104.38
101142.42
101191.98
101237.24
101276.02
101303.31
101320.04
101332.87
101343.03
101357.59
101367.02
101386.8
101389.06
101411.95
101405.13
101421.3
101420.4
101384.13
101752.43
101706.16
101644.01
101567.29
101487.72
101410.75
101338.74
101274.01
101218.96
101175.45
101144.99
101130.17
101131.4
101148.36
101182.17
101225.6
101264.75
101294.74
101320.66
101333
101342.82
101351.04
101363.63
101372.25
101390.83
101392.68
101414.87
101407.27
101423.91
101420.99
101388.81
101803.33
101757.15
101700.17
101631.95
101559.64
101487.44
101417.75
101353.02
101295.86
101248.66
101213.52
101192.8
101187.68
101198.36
101227.86
101263.7
101295.67
101317.65
101340.04
101347.8
101354.2
101360.22
101370.52
101378.28
101394.19
101396.19
101417.75
101409.55
101426.57
101421.58
101394.74
101839.57
101796.98
101746.16
101686.58
101622.5
101557
101492.11
101430.05
101373.34
101324.6
101286.28
101260.85
101250.05
101254.91
101279.73
101307.21
101329.95
101345.64
101361.43
101364.65
101367.21
101370.69
101378.42
101385.2
101397.98
101399.61
101420.27
101411.96
101429.25
101422.31
101401.63
101869.28
101829.24
101784.63
101733.32
101677.84
101620.22
101561.89
101504.63
101450.68
101402.55
101362.84
101334.15
101318.71
101318.51
101338.42
101356.5
101367.84
101378.27
101385.07
101383.7
101382.1
101382.6
101387.48
101393.12
101402.89
101403.49
101422.49
101414.67
101431.97
101423.31
101409.01
101891.68
101855.92
101816.62
101772.81
101726.56
101678.14
101627.9
101577.15
101527.85
101482.29
101443
101412.63
101393.85
101389.7
101404.37
101411.2
101411.13
101414.04
101411.35
101405.03
101399.08
101396.14
101397.91
101402.1
101408.94
101408.47
101425.01
101417.88
101434.77
101424.71
101416.48
101901.17
101886.43
101857.69
101819.12
101778.76
101737.45
101694.36
101650.14
101606.23
101564.46
101527.04
101496.53
101475.99
101469.17
101476.99
101470.95
101459.77
101451.49
101440.36
101428.62
101418.27
101411.49
101409.89
101412.2
101416.15
101414.56
101427.92
101421.87
101437.74
101426.51
101423.89
101924.61
101914.28
101896.87
101871.51
101838.93
101802.59
101764.77
101726.21
101687.67
101650.39
101616.12
101587.16
101566.55
101557.25
101553.76
101534.16
101510.45
101490.46
101471.6
101454.3
101439.59
101428.8
101423.57
101423.53
101424.68
101421.78
101431.39
101426.47
101441.06
101429.03
101431.32
101964.92
101955.42
101935.75
101911.09
101886.68
101860.6
101832.54
101802.8
101772
101741.34
101712.58
101687.35
101666.93
101649.75
101627.6
101594.93
101560.59
101530.48
101504.52
101481.92
101462.7
101447.98
101439.02
101436.19
101434.61
101430.42
101436.51
101431.75
101444.84
101433.04
101438.97
102012.22
102009.77
101999.61
101978.86
101952.69
101928.86
101908.28
101887.44
101864.31
101839.31
101813.77
101788.08
101761
101728.79
101689.79
101647.7
101606.92
101570.66
101539.12
101511.19
101487.37
101468.76
101456.14
101450.24
101446.08
101440.7
101444.22
101438.62
101449.23
101439.07
101447.22
102088.81
102092.76
102093.48
102088.8
102074.46
102049.43
102020.41
101991.25
101961.51
101931.14
101899.48
101864.79
101825.71
101782.48
101737.08
101691.66
101648.72
101609.54
101574.14
101541.7
101513.36
101491.01
101474.77
101465.67
101459.07
101452.67
101454.99
101447.61
101454.52
101446.88
101456.94
102096.04
102090.95
102081.33
102068.26
102057.86
102051.42
102044.64
102035.72
102017.39
101987.29
101951.98
101914.78
101872.47
101824.95
101776.88
101729.82
101685.58
101645.08
101607.78
101572.35
101540.37
101514.51
101494.78
101482.46
101473.3
101465.97
101467.95
101458.21
101461.2
101455.26
101470.19
102093.99
102087.72
102079.49
102069.23
102057.36
102043.11
102025.73
102005.37
101986.75
101970.45
101951.08
101929.71
101899.86
101858.15
101812.01
101764.43
101718.95
101676.94
101638.14
101601.34
101567.49
101538.87
101516.16
101500.62
101488.39
101480.03
101481.71
101469.85
101469.74
101463.27
101481.2
102064.61
102059.52
102053.22
102045.71
102036.86
102026.41
102013.96
101999.3
101983.36
101966.42
101946.33
101919.14
101889.8
101866.84
101836.75
101793.92
101748.41
101705.23
101664.77
101627.11
101593.15
101563.22
101538.26
101519.85
101504.36
101494.69
101495.42
101482.63
101480.47
101471.52
101493.92
102029.02
102024.63
102019.28
102013.04
102005.79
101997.34
101987.52
101976.17
101963.05
101947.78
101929.98
101909.87
101888.16
101861.66
101834.26
101808.91
101770.85
101728.28
101687.67
101649.59
101616.06
101586.09
101559.99
101539.43
101521
101509.88
101508.23
101496.22
101493.04
101480.4
101502.74
101987.53
101984.01
101979.73
101974.75
101968.98
101962.28
101954.48
101945.42
101934.88
101922.64
101908.46
101892.19
101873.43
101852.64
101828.24
101803.36
101780.66
101745.95
101707.19
101670.3
101636.87
101606.97
101580.43
101558.12
101537.52
101525.54
101520.7
101509.82
101505.71
101489.36
101508.36
101939.78
101937.05
101933.73
101929.89
101925.46
101920.33
101914.36
101907.41
101899.32
101889.9
101878.97
101866.31
101851.71
101834.73
101816.29
101795.07
101773.51
101754.57
101724.24
101689.69
101657.36
101627.3
101599.91
101575.13
101552.74
101541.18
101533.97
101523.23
101517.47
101496.09
101515.76
101892.68
101890.73
101888.36
101885.63
101882.47
101878.8
101874.51
101869.5
101863.64
101856.8
101848.82
101839.53
101828.75
101816.39
101801.86
101785.93
101767.95
101749.72
101733.5
101706.06
101676.14
101647.65
101619.83
101592.2
101567.84
101555.81
101546.83
101533.59
101528.28
101506.94
101527.84
101858.62
101857.14
101855.34
101853.26
101850.84
101848.02
101844.72
101840.88
101836.39
101831.17
101825.07
101817.97
101809.73
101800.19
101789.3
101776.64
101762.62
101746.25
101729.33
101714.89
101691.44
101664.28
101637.07
101611.02
101588.34
101572.44
101557.29
101542.74
101542.08
101526
101552.17
101827.93
101826.83
101825.49
101823.95
101822.17
101820.11
101817.74
101815
101811.78
101808
101803.56
101798.33
101792.15
101784.83
101776.18
101766.12
101754.1
101740.66
101725.92
101709.95
101694.16
101671.74
101649.33
101630.09
101613.27
101595.84
101576.66
101561.09
101559.56
101543.51
101568.45
101795.98
101795.2
101794.25
101793.17
101791.93
101790.46
101788.73
101786.69
101784.29
101781.48
101778.17
101774.27
101769.57
101763.99
101757.54
101750.02
101741.23
101730.73
101719.03
101707.21
101694.8
101681.02
101662.83
101645.97
101629.13
101612.03
101595.81
101581.86
101577.82
101563.6
101592.94
101774.53
101773.95
101773.25
101772.44
101771.5
101770.41
101769.13
101767.65
101765.9
101763.84
101761.43
101758.59
101755.33
101751.58
101747.06
101741.66
101735.39
101728.27
101720.12
101709.96
101696.91
101685.73
101675.01
101657.17
101637.46
101620.57
101606.27
101594.66
101594.21
101581.85
101628.61
101761.27
101760.9
101760.46
101759.94
101759.33
101758.62
101757.77
101756.75
101755.54
101754.09
101752.37
101750.28
101747.73
101744.61
101740.86
101736.46
101731.33
101725.25
101718.12
101708.91
101699.62
101691.8
101681.25
101666.01
101647.23
101630.7
101616.54
101607.75
101609.43
101595.07
101624.01
101742.79
101742.55
101742.26
101741.93
101741.54
101741.08
101740.53
101739.88
101739.09
101738.13
101736.98
101735.59
101733.93
101731.95
101729.56
101726.67
101723.22
101719.2
101714.13
101709.8
101704.26
101693.01
101680.95
101669.37
101657.7
101642.58
101633.15
101624.41
101620.7
101606.34
101625.14
101728.42
101728.27
101728.09
101727.89
101727.66
101727.38
101727.06
101726.67
101726.21
101725.64
101724.95
101724.1
101723.07
101721.77
101720.11
101717.93
101715.07
101711.46
101707.14
101701.86
101696.84
101692.35
101686.49
101680.28
101670.17
101659.82
101652.83
101640.06
101632.95
101621.26
101620.53
101717.82
101717.47
101717.09
101716.7
101716.28
101715.81
101715.3
101714.71
101714.03
101713.23
101712.31
101711.22
101709.95
101708.47
101706.79
101704.9
101702.77
101700.21
101697.24
101694.22
101686.95
101684.4
101684.44
101678.53
101664.47
101657.84
101646.31
101630.78
101627.77
101626.17
101610.27
100109.52
100113.92
100126.33
100137.26
100150.41
100165.3
100183.47
100202.38
100226.27
100258.91
100302.46
100357.81
100424.77
100502.2
100589.82
100682.26
100782.59
100880.85
100978.64
101059.14
101111.46
101165.61
101214.75
101251.01
101284.06
101303.68
101328.21
101339.47
101346.67
101353.04
101346.44
100120.14
100134.38
100155.38
100167.6
100180.61
100192.07
100202.79
100217.19
100240.24
100273.82
100319.11
100375.93
100443.96
100521.84
100609.04
100699.82
100798.08
100889.92
100987.86
101060.9
101114.58
101168.76
101217.35
101253.07
101285.71
101304.92
101329.15
101340.17
101347.33
101353.72
101347.02
100132.91
100151.86
100161.78
100166.64
100175.71
100187.5
100200.2
100217.52
100243.39
100279.42
100326.88
100385.3
100454.45
100532.91
100620.12
100710.28
100808.49
100898.36
100996.03
101063.85
101118.53
101172.19
101220.08
101255.22
101287.4
101306.18
101330.1
101340.89
101348
101354.32
101347.58
100142.86
100159.6
100161.12
100164.93
100173.62
100184.23
100197.13
100216.13
100243.99
100282.1
100331.46
100391.4
100461.71
100540.91
100628.44
100718.49
100817.3
100907.13
101003.38
101067.14
101122.73
101175.62
101222.81
101257.37
101289.1
101307.44
101331.05
101341.62
101348.68
101354.9
101348.14
100146.18
100156.8
100156.8
100160.67
100169.06
100179.4
100193.51
100214.56
100244.57
100284.94
100336.22
100397.76
100469.3
100549.3
100637.16
100727.13
100826.38
100916.42
101009.82
101070.42
101127.01
101179.03
101225.54
101259.52
101290.8
101308.69
101332
101342.35
101349.37
101355.48
101348.73
100143.52
100148.53
100149.93
100155.11
100163.29
100174.04
100189.81
100213.06
100245.39
100288.14
100341.36
100404.54
100477.3
100558.06
100646.18
100736.04
100835.55
100925.54
101015.72
101073.69
101131.34
101182.42
101228.26
101261.67
101292.5
101309.95
101332.96
101343.1
101350.07
101356.06
101349.33
100138.65
100139.52
100141.94
100147.9
100156.15
100167.97
100185.75
100211.37
100246.22
100291.37
100346.58
100411.42
100485.35
100566.83
100655.16
100744.91
100844.51
100934.45
101021.92
101076.98
101135.71
101185.79
101230.98
101263.82
101294.19
101311.19
101333.91
101343.86
101350.78
101356.66
101349.95
100131.9
100130.89
100133.01
100138.97
100147.83
100161.26
100181.34
100209.49
100247.04
100294.6
100351.83
100418.33
100493.39
100575.57
100664.07
100753.73
100853.15
100943.3
101028.83
101080.3
101140.11
101189.14
101233.69
101265.97
101295.89
101312.44
101334.87
101344.63
101351.54
101357.25
101350.59
100121.43
100119.65
100121.8
100128.28
100138.46
100153.98
100176.59
100207.5
100247.86
100297.84
100357.15
100425.29
100501.47
100584.31
100672.94
100762.48
100861.65
100951.99
101035.94
101083.78
101144.53
101192.46
101236.4
101268.12
101297.59
101313.68
101335.84
101345.41
101352.36
101357.86
101351.25
100107.8
100105.96
100108.64
100116.19
100128.2
100146.16
100171.56
100205.45
100248.68
100301.15
100362.56
100432.32
100509.58
100593.05
100681.78
100771.18
100870.26
100959.97
101042.6
101087.61
101148.95
101195.78
101239.1
101270.26
101299.28
101314.91
101336.8
101346.2
101353.27
101358.47
101351.92
100091.03
100089.76
100093.57
100102.76
100117.06
100137.83
100166.28
100203.38
100249.53
100304.55
100368.07
100439.43
100517.73
100601.81
100690.58
100779.86
100878.87
100967.33
101048.79
101091.86
101153.35
101199.07
101241.8
101272.4
101300.97
101316.14
101337.78
101347.01
101354.3
101359.08
101352.6
100071.18
100071.17
100076.66
100088.04
100105.11
100129.04
100160.85
100201.3
100250.44
100308.06
100373.7
100446.62
100525.92
100610.57
100699.33
100788.63
100887.31
100974.67
101054.55
101096.4
101157.72
101202.36
101244.49
101274.54
101302.66
101317.36
101338.75
101347.84
101355.51
101359.73
101353.28
100048.34
100050.15
100057.92
100072.06
100092.39
100119.86
100155.34
100199.25
100251.48
100311.73
100379.46
100453.9
100534.16
100619.33
100708.06
100797.52
100895.28
100982.08
101059.88
101101.1
101162.06
101205.62
101247.17
101276.67
101304.33
101318.57
101339.73
101348.67
101356.95
101360.44
101353.96
100022.44
100026.69
100037.4
100054.92
100079.01
100110.4
100149.79
100197.27
100252.67
100315.57
100385.36
100461.27
100542.45
100628.1
100716.75
100806.45
100902.74
100989.5
101064.88
101105.92
101166.36
101208.88
101249.85
101278.8
101306.01
101319.77
101340.71
101349.53
101358.6
101361.24
101354.61
99993.45
100000.85
100015.21
100036.75
100065.08
100100.77
100144.27
100195.45
100254.07
100319.61
100391.42
100468.74
100550.78
100636.87
100725.42
100815.42
100909.92
100996.82
101069.68
101110.88
101170.63
101212.12
101252.51
101280.93
101307.67
101320.97
101341.71
101350.4
101360.3
101362.1
101355.24
99961.39
99972.738
99991.518
100017.7
100050.76
100091.09
100138.87
100193.85
100255.73
100323.87
100397.65
100476.33
100559.17
100645.64
100734.09
100824.5
100916.95
101004.01
101074.36
101115.93
101174.85
101215.36
101255.17
101283.05
101309.32
101322.15
101342.7
101351.28
101361.99
101363.04
101355.83
99926.379
99942.565
99966.544
99998
100036.24
100081.5
100133.7
100192.57
100257.68
100328.39
100404.07
100484.03
100567.61
100654.41
100742.81
100833.77
100924.22
101011.09
101078.98
101121.03
101179.03
101218.58
101257.82
101285.17
101310.97
101323.33
101343.7
101352.18
101363.71
101364.08
101356.38
99888.673
99910.652
99940.609
99977.917
100021.75
100072.14
100128.89
100191.67
100259.99
100333.19
100410.69
100491.85
100576.11
100663.19
100751.68
100843.04
100931.95
101018.11
101083.58
101126.17
101183.18
101221.79
101260.45
101287.27
101312.6
101324.49
101344.71
101353.1
101365.47
101365.25
101356.89
99848.74
99877.467
99914.125
99957.781
100007.52
100063.21
100124.57
100191.24
100262.7
100338.29
100417.52
100499.8
100584.67
100671.99
100760.65
100851.55
100939.58
101025.04
101088.18
101131.33
101187.28
101224.99
101263.08
101289.38
101314.22
101325.65
101345.73
101354.02
101367.25
101366.51
101357.41
99807.302
99843.654
99887.601
99937.98
99993.835
100054.9
100120.87
100191.37
100265.86
100343.74
100424.59
100507.89
100593.29
100680.79
100769.35
100859.51
100947.18
101031.72
101092.79
101136.52
101191.34
101228.18
101265.69
101291.47
101315.83
101326.79
101346.75
101354.96
101369.06
101367.75
101357.99
99765.361
99810.02
99861.629
99918.944
99980.984
100047.44
100117.94
100192.13
100269.53
100349.55
100431.91
100516.13
100601.96
100689.67
100778.11
100867.45
100955.1
101038.05
101097.43
101141.73
101195.36
101231.36
101268.29
101293.56
101317.42
101327.92
101347.78
101355.91
101370.88
101368.93
101358.73
99724.119
99777.516
99836.85
99901.113
99969.299
100041.06
100115.91
100193.61
100273.74
100355.76
100439.49
100524.5
100610.71
100698.72
100786.63
100875.14
100963.03
101044.28
101102.15
101146.94
101199.34
101234.53
101270.88
101295.64
101319
101329.04
101348.82
101356.87
101372.7
101370.07
101359.59
99684.928
99747.205
99813.898
99884.929
99959.118
100036
100114.92
100195.9
100278.56
100362.39
100447.35
100533.03
100619.62
100707.71
100794.9
100882.85
100970.3
101050.77
101106.95
101152.16
101203.28
101237.69
101273.46
101297.71
101320.56
101330.15
101349.86
101357.84
101374.51
101371.2
101360.09
99649.125
99719.939
99793.417
99870.889
99950.793
100032.49
100115.12
100199.07
100284.03
100369.46
100455.48
100541.81
100628.92
100716.46
100803.19
100890.5
100977.1
101057.61
101111.83
101157.37
101207.19
101240.84
101276.02
101299.77
101322.11
101331.24
101350.91
101358.81
101376.3
101372.36
101360.55
99617.214
99695.751
99776.535
99859.641
99944.669
100030.66
100116.65
100203.22
100290.2
100376.99
100463.96
100551.1
100638.45
100724.9
100811.61
100898.07
100983.85
101064.68
101116.8
101162.57
101211.06
101243.97
101278.57
101301.83
101323.64
101332.32
101351.97
101359.79
101378.07
101373.58
101360.98
99590.938
99676.613
99763.428
99851.61
99940.897
100030.52
100119.64
100208.48
100297.12
100385.06
100473.05
100561.2
100647.2
100733.13
100819.98
100905.57
100990.66
101071.72
101121.88
101167.75
101214.9
101247.09
101281.11
101303.87
101325.16
101333.39
101353.05
101360.78
101379.81
101374.87
101361.41
99571.26
99663.009
99754.607
99846.99
99939.896
100032.53
100124.01
100214.78
100304.97
100394
100483.23
100570.33
100655.23
100741.99
100828.3
100912.99
100997.49
101078.59
101127.07
101172.9
101218.71
101250.2
101283.63
101305.91
101326.66
101334.44
101354.15
101361.77
101381.51
101376.24
101361.83
99558.839
99655.42
99750.563
99846.138
99941.854
100036.73
100130
100222.29
100314.14
100404.57
100493.48
100578.7
100664.42
100750.92
100836.59
100920.33
101004.31
101085.3
101132.39
101178.01
101222.49
101253.29
101286.14
101307.93
101328.14
101335.48
101355.28
101362.77
101383.17
101377.71
101362.26
99554.124
99654.217
99751.631
99849.325
99946.957
100043.37
100137.89
100231.64
100325.32
100416.41
100502.15
100587.31
100673.76
100759.81
100844.85
100927.59
101011.1
101091.87
101137.8
101183.09
101226.24
101256.37
101288.63
101309.95
101329.61
101336.52
101356.41
101363.79
101384.79
101379.27
101362.78
99557.329
99659.684
99758.122
99856.86
99955.566
100053.13
100148.87
100244.04
100338
100425.73
100510.08
100597.2
100683.13
100768.71
100853.09
100934.76
101017.84
101098.32
101143.27
101188.13
101229.96
101259.43
101291.11
101311.96
101331.09
101337.56
101357.54
101364.82
101386.35
101380.91
101363.49
99568.574
99672.324
99770.753
99869.633
99968.727
100067.41
100164.7
100258.28
100347.38
100433.76
100520.64
100607.37
100692.59
100777.66
100861.32
100941.85
101024.52
101104.68
101148.78
101193.13
101233.66
101262.47
101293.57
101313.96
101332.6
101338.62
101358.69
101365.87
101387.85
101382.62
101364.36
99588.017
99692.968
99790.899
99889.492
99988.336
100085.88
100180.53
100270.02
100355.99
100444.18
100531.75
100617.67
100702.16
100786.66
100869.54
100948.92
101031.13
101110.95
101154.31
101198.06
101237.32
101265.49
101296.02
101315.95
101334.14
101339.72
101359.88
101366.94
101389.29
101384.39
101364.88
99614.176
99719.842
99816.253
99913.924
100010.46
100103.22
100192.24
100279.15
100366.79
100456.96
100543.18
100628.19
100711.84
100795.7
100877.73
100956.06
101037.7
101117.15
101159.84
101202.93
101240.95
101268.5
101298.45
101317.93
101335.73
101340.88
101361.1
101368.05
101390.65
101386.22
101365.39
99642.212
99748.339
99841.89
99936.453
100027.7
100115.36
100203.86
100293.36
100381.96
100470.46
100555.07
100638.97
100721.64
100804.77
100885.89
100962.99
101044.24
101123.29
101165.34
101207.74
101244.56
101271.48
101300.86
101319.91
101337.39
101342.11
101362.39
101369.22
101391.92
101388.07
101365.88
99675.112
99780.659
99869.829
99956.92
100045.33
100135.31
100224.11
100311.21
100398.07
100484.6
100567.47
100650.01
100731.55
100813.89
100893.97
100969.63
101050.81
101129.34
101170.81
101212.47
101248.14
101274.44
101303.26
101321.87
101339.12
101343.42
101363.75
101370.44
101393.11
101389.94
101366.36
99740.431
99837.682
99917.507
99996.859
100079.37
100163.12
100247.39
100330.62
100415
100499.52
100580.39
100661.32
100741.58
100823.03
100901.96
100976.35
101057.32
101135.32
101176.25
101217.13
101251.69
101277.38
101305.64
101323.83
101340.92
101344.84
101365.23
101371.73
101394.21
101391.8
101366.85
99824.245
99910.278
99977.505
100045.91
100118.63
100194.58
100272.9
100351.58
100433.1
100515.26
100593.86
100672.91
100751.73
100832.21
100909.92
100983.2
101063.68
101141.22
101181.64
101221.72
101255.22
101280.29
101308
101325.78
101342.81
101346.38
101366.85
101373.12
101395.22
101393.63
101367.33
99916.521
99988.467
100041.27
100097.59
100160.39
100228.57
100300.65
100374.32
100452.48
100531.84
100607.9
100684.79
100761.99
100841.4
100917.81
100990.04
101069.89
101147.03
101186.99
101226.23
101258.72
101283.19
101310.34
101327.71
101344.79
101348.03
101368.68
101374.61
101396.14
101395.45
101367.8
100011.52
100068.3
100106.21
100150.71
100204.24
100264.98
100330.69
100398.86
100473.24
100549.28
100622.54
100696.98
100772.38
100850.61
100925.65
100996.87
101075.94
101152.75
101192.27
101230.68
101262.19
101286.05
101312.66
101329.64
101346.85
101349.81
101370.74
101376.22
101396.99
101397.24
101368.25
100099.73
100144.52
100169.87
100204.47
100250.07
100303.94
100363.06
100425.28
100495.52
100567.59
100637.81
100709.49
100782.9
100859.82
100933.42
101003.71
101081.81
101158.35
101197.5
101235.05
101265.64
101288.89
101314.96
101331.55
101348.98
101351.7
101373.07
101377.95
101397.78
101399.03
101368.69
100173.39
100213.39
100231.2
100259.03
100298.36
100345.85
100397.94
100453.73
100519.44
100586.8
100653.71
100722.34
100793.54
100869.02
100941.12
101010.58
101087.55
101163.84
101202.65
101239.34
101269.06
101291.7
101317.23
101333.45
101351.18
101353.69
101375.62
101379.78
101398.55
101400.82
101369.1
100234.9
100277.36
100292.77
100316.54
100350.61
100391.56
100435.64
100484.57
100545.04
100606.9
100670.28
100735.56
100804.31
100878.19
100948.72
101017.49
101093.29
101169.2
101207.73
101243.56
101272.46
101294.49
101319.49
101335.34
101353.44
101355.76
101378.26
101381.67
101399.32
101402.62
101369.46
100298.62
100346.14
100361.18
100381.08
100409.13
100442.12
100476.61
100518.5
100571.92
100627.9
100687.49
100749.14
100815.21
100887.31
100956.18
101024.49
101099.08
101174.43
101212.73
101247.69
101275.82
101297.24
101321.72
101337.21
101355.72
101357.9
101380.89
101383.57
101400.12
101404.42
101369.82
100386.04
100433.49
100444.74
100457.17
100476
100498.22
100521.71
100555.47
100599.47
100649.87
100705.33
100763.09
100826.23
100896.35
100963.47
101031.56
101104.84
101179.51
101217.64
101251.76
101279.17
101299.98
101323.93
101339.06
101358.01
101360.06
101383.47
101385.42
101400.98
101406.22
101370.22
100513.07
100549.49
100548.93
100547.07
100551.86
100559.86
100571.62
100594.38
100627.74
100672.53
100723.81
100777.44
100837.41
100905.32
100970.56
101038.72
101110.53
101184.43
101222.46
101255.75
101282.48
101302.68
101326.12
101340.9
101360.28
101362.24
101386.02
101387.2
101401.92
101408.01
101370.67
100681.05
100693.66
100671.85
100649.1
100635.63
100627.46
100625.46
100634.37
100657.35
100696
100743.17
100792.51
100849.04
100914.43
100977.64
101045.98
101116.17
101189.08
101227.14
101259.66
101285.75
101305.34
101328.27
101342.71
101362.53
101364.42
101388.48
101388.92
101402.94
101409.76
101371.17
100875.2
100854.59
100807.3
100761.1
100726.11
100699.95
100682.95
100678.51
100691.1
100722.21
100764.7
100809.46
100862.11
100924.52
100985.47
101053.53
101121.79
101193.24
101231.53
101263.4
101288.93
101307.94
101330.36
101344.47
101364.73
101366.6
101390.78
101390.6
101404.07
101411.46
101371.69
101075.63
101021.14
100951.67
100882.53
100825.79
100781.93
100750.74
100733.27
100736.26
100756.31
100790.99
100830.32
100878.32
100937
100995.27
101061.93
101127.57
101196.79
101235.37
101266.91
101292.01
101310.46
101332.4
101346.21
101366.89
101368.8
101392.98
101392.26
101405.37
101413.1
101372.25
101236.27
101166.92
101093.93
101011.56
100936.27
100875.3
100830.07
100801.74
100794.15
100802.25
100822.82
100855.27
100897.7
100951.92
101007.2
101071.68
101134.06
101201.11
101239.06
101270.54
101295.19
101313.07
101334.52
101347.99
101368.99
101371.03
101395.35
101393.91
101406.92
101414.64
101372.95
100142.01
100156.27
100171.08
100182.99
100190.48
100198.83
100211.21
100227.03
100249.38
100280.92
100323.04
100376.5
100441.38
100516.51
100601.37
100690.93
100786.35
100882.89
100968.65
101052.23
101106.06
101162.02
101212.09
101248.92
101282.39
101302.43
101327.26
101338.78
101346.04
101352.51
101345.67
100132.96
100144.35
100159.91
100178.71
100189.77
100198.75
100210.64
100226.48
100248.85
100280.06
100321.61
100374.37
100438.54
100513.05
100597.4
100686.94
100782.06
100881.2
100964.3
101050.87
101104.15
101160.06
101210.34
101247.45
101281.14
101301.49
101326.55
101338.22
101345.53
101352.24
101344.75
100128.04
100137.2
100151.6
100170.81
100183.52
100194.67
100208.75
100226.17
100249.38
100280.76
100321.98
100374.07
100437.43
100511.15
100594.74
100684.01
100778.69
100878.75
100961.87
101049.26
101102.27
101158.29
101208.76
101246.09
101279.97
101300.58
101325.87
101337.66
101345.02
101352.03
101343.06
100128.13
100137.08
100150.4
100167.76
100180.85
100193.74
100209.55
100228.28
100252.24
100283.79
100324.67
100376.01
100438.41
100511.13
100593.72
100682.39
100776.3
100876.31
100959.47
101047.07
101100.05
101156.34
101207.09
101244.67
101278.74
101299.63
101325.16
101337.09
101344.5
101351.75
101340.83
100128.51
100137.59
100150.36
100166.8
100180.5
100194.46
100211.24
100230.94
100255.56
100287.32
100327.93
100378.62
100440.12
100511.85
100593.4
100681.37
100774.4
100874.02
100956.88
101044.66
101097.72
101154.28
101205.34
101243.18
101277.47
101298.64
101324.41
101336.5
101343.97
101351.4
101338.14
100128.19
100137.24
100149.55
100165.64
100180.24
100195.08
100212.62
100233.22
100258.53
100290.57
100331.04
100381.19
100441.9
100512.72
100593.27
100680.52
100772.7
100871.84
100954.25
101042.17
101095.44
101152.22
101203.59
101241.68
101276.18
101297.63
101323.65
101335.92
101343.45
101350.95
101335.18
100127.56
100136.46
100148.32
100164.08
100179.53
100195.26
100213.58
100235.11
100261.16
100293.56
100333.97
100383.68
100443.68
100513.64
100593.23
100679.78
100771.12
100869.75
100951.68
101039.63
101093.21
101150.17
101201.84
101240.18
101274.89
101296.62
101322.89
101335.33
101342.92
101350.4
101332.16
100126.83
100135.57
100147.06
100162.42
100178.58
100195.21
100214.33
100236.8
100263.58
100296.4
100336.8
100386.16
100445.49
100514.65
100593.3
100679.13
100769.65
100867.73
100949.21
101037.05
101091.02
101148.14
101200.11
101238.69
101273.6
101295.6
101322.12
101334.73
101342.4
101349.76
101329.78
100126.07
100134.7
100145.87
100160.82
100177.59
100195.1
100214.99
100238.38
100265.89
100299.14
100339.6
100388.65
100447.39
100515.76
100593.5
100678.6
100768.31
100865.79
100946.82
101034.49
101088.84
101146.13
101198.38
101237.2
101272.31
101294.58
101321.34
101334.14
101341.88
101349.04
101328.16
100125.36
100133.87
100144.75
100159.29
100176.65
100195.01
100215.63
100239.9
100268.13
100301.83
100342.38
100391.18
100449.36
100516.99
100593.84
100678.2
100767.1
100863.92
100944.54
101031.92
101086.68
101144.12
101196.66
101235.71
101271.01
101293.54
101320.56
101333.54
101341.36
101348.28
101326.94
100124.79
100133.16
100143.76
100157.97
100175.87
100194.99
100216.32
100241.4
100270.34
100304.48
100345.17
100393.76
100451.42
100518.34
100594.31
100677.92
100766.02
100862.12
100942.43
101029.32
101084.53
101142.12
101194.95
101234.22
101269.71
101292.5
101319.76
101332.94
101340.84
101347.5
101325.96
100124.43
100132.67
100143.03
100157.03
100175.34
100195.12
100217.11
100242.95
100272.56
100307.15
100347.98
100396.4
100453.58
100519.81
100594.92
100677.78
100765.07
100860.4
100940.37
101026.66
101082.41
101140.15
101193.24
101232.72
101268.41
101291.45
101318.95
101332.34
101340.33
101346.7
101325.15
100124.35
100132.49
100142.68
100156.59
100175.1
100195.42
100218.05
100244.58
100274.82
100309.85
100350.84
100399.11
100455.84
100521.4
100595.68
100677.76
100764.26
100858.96
100938.39
101023.91
101080.3
101138.18
101191.55
101231.23
101267.11
101290.4
101318.13
101331.73
101339.81
101345.9
101324.45
100124.61
100132.7
100142.77
100156.62
100175.16
100195.91
100219.19
100246.35
100277.17
100312.62
100353.77
100401.91
100458.21
100523.13
100596.57
100677.87
100763.58
100857.68
100936.71
101021.37
101078.19
101136.24
101189.86
101229.75
101265.8
101289.33
101317.3
101331.11
101339.3
101345.09
101323.85
100125.26
100133.33
100143.32
100157.09
100175.58
100196.69
100220.58
100248.29
100279.66
100315.49
100356.79
100404.8
100460.7
100524.98
100597.61
100678.11
100763.03
100856.34
100935.28
101019.28
101076.12
101134.31
101188.19
101228.26
101264.49
101288.26
101316.46
101330.49
101338.78
101344.28
101323.33