/*--------------------------------*- C++ -*----------------------------------*\
| =========                 |                                                 |
| \\      /  F ield         | OpenFOAM: The Open Source CFD Toolbox           |
|  \\    /   O peration     | Version:  2406                                  |
|   \\  /    A nd           | Website:  www.openfoam.com                      |
|    \\/     M anipulation  |                                                 |
\*---------------------------------------------------------------------------*/
FoamFile
{
    version     2.0;
    format      ascii;
    arch        "LSB;label=32;scalar=64";
    class       volScalarField;
    location    "0.005";
    object      pMean;
}
// * * * * * * * * * * * * * * * * * * * * * * * * * * * * * * * * * * * * * //

dimensions      [1 -1 -2 0 0 0 0];

internalField   nonuniform List<scalar> 
23204
(
101314.49
101314.78
101314.99
101315.13
101315.17
101305.29
101306.25
101307.17
101308.04
101308.87
101309.65
101310.38
101311.07
101311.71
101312.29
101312.83
101313.31
101313.73
101314.08
101314.36
101314.57
101314.71
101314.75
101273.93
101276.37
101278.7
101280.92
101283.03
101285.05
101286.97
101288.79
101290.53
101292.18
101293.75
101295.25
101296.67
101298.03
101299.32
101300.55
101301.72
101302.83
101303.89
101304.9
101305.86
101306.77
101307.64
101308.46
101309.24
101309.97
101310.65
101311.29
101311.88
101312.41
101312.89
101313.3
101313.65
101313.94
101314.15
101314.29
101314.33
101131.31
101143.11
101154.16
101164.43
101173.87
101182.46
101190.19
101197.04
101203.02
101208.14
101212.43
101215.94
101218.74
101220.94
101222.64
101223.98
101225.09
101226.17
101227.38
101229.05
101231.53
101234.74
101238.66
101242.59
101246.36
101249.97
101253.44
101256.76
101259.95
101262.97
101265.86
101268.63
101271.28
101273.8
101276.21
101278.51
101280.71
101282.8
101284.79
101286.69
101288.5
101290.22
101291.86
101293.42
101294.91
101296.32
101297.67
101298.95
101300.17
101301.34
101302.44
101303.5
101304.5
101305.46
101306.37
101307.23
101308.05
101308.83
101309.56
101310.24
101310.87
101311.46
101311.99
101312.46
101312.88
101313.22
101313.51
101313.71
101313.86
101313.89
100541.6
100558.61
100575.88
100593.44
100611.28
100629.36
100647.67
100666.19
100684.89
100703.74
100722.73
100741.82
100760.98
100780.19
100799.41
100818.61
100837.76
100856.83
100875.79
100894.59
100913.2
100931.6
100949.74
100967.58
100985.09
101002.24
101018.99
101035.31
101051.15
101066.49
101081.31
101095.57
101109.23
101122.25
101134.63
101146.29
101157.21
101167.35
101176.68
101185.17
101192.81
101199.58
101205.49
101210.54
101214.77
101218.21
101220.94
101223.06
101224.67
101225.9
101226.88
101227.79
101228.81
101230.23
101232.4
101235.38
101239.09
101242.95
101246.65
101250.2
101253.61
101256.88
101260.01
101263
101265.85
101268.57
101271.18
101273.68
101276.06
101278.33
101280.5
101282.57
101284.54
101286.42
101288.21
101289.92
101291.54
101293.09
101294.56
101295.97
101297.31
101298.58
101299.8
101300.95
101302.05
101303.1
101304.1
101305.06
101305.96
101306.82
101307.64
101308.41
101309.13
101309.81
101310.45
101311.03
101311.56
101312.03
101312.44
101312.79
101313.07
101313.28
101313.42
101313.45
100556.1
100572.69
100589.56
100606.72
100624.16
100641.85
100659.77
100677.89
100696.2
100714.67
100733.27
100751.98
100770.76
100789.59
100808.44
100827.27
100846.07
100864.79
100883.4
100901.86
100920.14
100938.22
100956.04
100973.59
100990.81
101007.68
101024.16
101040.21
101055.81
101070.92
101085.51
101099.56
101113.02
101125.88
101138.09
101149.6
101160.37
101170.38
101179.59
101187.98
101195.53
101202.21
101208.04
101213.03
101217.18
101220.55
101223.21
101225.24
101226.76
101227.87
101228.72
101229.47
101230.3
101231.47
101233.35
101236.1
101239.56
101243.33
101246.97
101250.46
101253.8
101257.01
101260.09
101263.04
101265.85
101268.53
101271.1
101273.56
101275.91
101278.15
101280.29
101282.34
101284.29
101286.15
101287.92
101289.61
101291.22
101292.76
101294.22
101295.61
101296.94
101298.21
101299.41
101300.56
101301.66
101302.7
101303.7
101304.65
101305.55
101306.41
101307.22
101307.99
101308.71
101309.39
101310.02
101310.59
101311.12
101311.59
101312
101312.35
101312.63
101312.83
101312.97
101313.01
100570.65
100586.82
100603.28
100620.06
100637.11
100654.42
100671.96
100689.7
100707.63
100725.72
100743.94
100762.27
100780.67
100799.13
100817.61
100836.09
100854.52
100872.89
100891.15
100909.28
100927.23
100944.99
100962.5
100979.74
100996.67
101013.26
101029.47
101045.26
101060.61
101075.48
101089.84
101103.68
101116.95
101129.62
101141.64
101152.99
101163.61
101173.49
101182.58
101190.86
101198.3
101204.9
101210.64
101215.55
101219.64
101222.94
101225.52
101227.46
101228.88
101229.88
101230.6
101231.2
101231.86
101232.79
101234.38
101236.88
101240.08
101243.73
101247.3
101250.73
101254.01
101257.16
101260.19
101263.1
101265.86
101268.5
101271.03
101273.45
101275.77
101277.98
101280.09
101282.11
101284.04
101285.88
101287.63
101289.31
101290.9
101292.42
101293.87
101295.26
101296.58
101297.83
101299.03
101300.17
101301.26
101302.3
101303.29
101304.23
101305.13
101305.98
101306.79
101307.56
101308.28
101308.95
101309.58
101310.15
101310.68
101311.14
101311.55
101311.9
101312.18
101312.38
101312.52
101312.56
100585.12
100600.88
100616.97
100633.38
100650.07
100667
100684.17
100701.54
100719.09
100736.81
100754.66
100772.61
100790.65
100808.75
100826.86
100844.98
100863.06
100881.08
100899
100916.79
100934.42
100951.85
100969.05
100985.99
101002.63
101018.93
101034.87
101050.4
101065.5
101080.13
101094.27
101107.88
101120.95
101133.42
101145.26
101156.44
101166.91
101176.64
101185.61
101193.77
101201.12
101207.62
101213.28
101218.11
101222.12
101225.35
101227.85
101229.71
101231.03
101231.93
101232.53
101232.98
101233.46
101234.19
101235.48
101237.72
101240.66
101244.17
101247.67
101251.03
101254.25
101257.34
101260.31
101263.16
101265.88
101268.48
101270.97
101273.35
101275.63
101277.81
101279.9
101281.89
101283.79
101285.61
101287.35
101289
101290.58
101292.09
101293.53
101294.9
101296.21
101297.45
101298.64
101299.78
101300.86
101301.9
101302.88
101303.82
101304.71
101305.56
101306.36
101307.12
101307.84
101308.51
101309.13
101309.71
101310.23
101310.69
101311.1
101311.44
101311.72
101311.92
101312.06
101312.1
100584.3
100599.48
100614.87
100630.61
100646.66
100662.99
100679.56
100696.37
100713.38
100730.57
100747.92
100765.4
100782.99
100800.67
100818.4
100836.17
100853.93
100871.66
100889.33
100906.91
100924.37
100941.67
100958.78
100975.68
100992.31
101008.66
101024.68
101040.35
101055.62
101070.46
101084.85
101098.76
101112.15
101125.01
101137.29
101148.94
101159.94
101170.26
101179.85
101188.68
101196.72
101203.96
101210.37
101215.94
101220.69
101224.62
101227.78
101230.2
101231.98
101233.21
101234
101234.48
101234.8
101235.12
101235.64
101236.67
101238.62
101241.32
101244.64
101248.06
101251.35
101254.5
101257.53
101260.44
101263.24
101265.92
101268.47
101270.91
101273.26
101275.51
101277.65
101279.71
101281.67
101283.55
101285.35
101287.06
101288.7
101290.26
101291.76
101293.18
101294.54
101295.84
101297.07
101298.25
101299.38
101300.46
101301.48
101302.46
101303.39
101304.28
101305.13
101305.93
101306.68
101307.4
101308.06
101308.68
101309.25
101309.77
101310.24
101310.64
101310.98
101311.26
101311.46
101311.59
101311.63
100598.92
100613.74
100628.8
100644.19
100659.89
100675.87
100692.09
100708.54
100725.2
100742.03
100759.03
100776.15
100793.39
100810.71
100828.09
100845.5
100862.91
100880.3
100897.63
100914.88
100932.01
100948.99
100965.78
100982.37
100998.7
101014.76
101030.5
101045.89
101060.9
101075.49
101089.64
101103.31
101116.49
101129.13
101141.21
101152.67
101163.49
101173.65
101183.09
101191.78
101199.71
101206.83
101213.14
101218.62
101223.29
101227.15
101230.22
101232.57
101234.27
101235.41
101236.1
101236.47
101236.66
101236.83
101237.16
101237.93
101239.57
101242.05
101245.14
101248.47
101251.69
101254.78
101257.74
101260.59
101263.33
101265.96
101268.47
101270.87
101273.18
101275.39
101277.5
101279.52
101281.46
101283.32
101285.09
101286.78
101288.4
101289.94
101291.42
101292.83
101294.18
101295.46
101296.69
101297.86
101298.98
101300.05
101301.07
101302.04
101302.97
101303.85
101304.69
101305.49
101306.24
101306.95
101307.61
101308.23
101308.8
101309.31
101309.77
101310.17
101310.51
101310.79
101310.99
101311.12
101311.16
100613.4
100627.89
100642.63
100657.69
100673.06
100688.69
100704.57
100720.68
100736.98
100753.47
100770.12
100786.9
100803.79
100820.76
100837.8
100854.86
100871.93
100888.98
100905.97
100922.88
100939.69
100956.35
100972.83
100989.11
101005.15
101020.91
101036.37
101051.49
101066.24
101080.58
101094.48
101107.92
101120.87
101133.29
101145.17
101156.44
101167.08
101177.07
101186.36
101194.92
101202.72
101209.73
101215.93
101221.32
101225.9
101229.68
101232.68
101234.96
101236.57
101237.63
101238.23
101238.49
101238.55
101238.58
101238.73
101239.26
101240.59
101242.85
101245.69
101248.91
101252.05
101255.07
101257.97
101260.76
101263.44
101266.02
101268.49
101270.84
101273.1
101275.27
101277.35
101279.35
101281.25
101283.08
101284.83
101286.5
101288.1
101289.62
101291.08
101292.48
101293.81
101295.09
101296.3
101297.47
101298.58
101299.64
101300.65
101301.61
101302.54
101303.41
101304.25
101305.04
101305.79
101306.49
101307.15
101307.77
101308.33
101308.84
101309.3
101309.7
101310.04
101310.31
101310.51
101310.64
101310.68
100627.7
100641.89
100656.33
100671.08
100686.12
100701.43
100716.98
100732.75
100748.72
100764.87
100781.18
100797.62
100814.17
100830.8
100847.5
100864.22
100880.95
100897.67
100914.33
100930.92
100947.4
100963.74
100979.92
100995.89
101011.63
101027.11
101042.29
101057.14
101071.62
101085.71
101099.37
101112.57
101125.29
101137.5
101149.17
101160.25
101170.71
101180.53
101189.66
101198.08
101205.75
101212.64
101218.74
101224.03
101228.53
101232.22
101235.15
101237.35
101238.89
101239.86
101240.37
101240.53
101240.47
101240.36
101240.36
101240.67
101241.68
101243.71
101246.3
101249.37
101252.44
101255.39
101258.22
101260.95
101263.56
101266.09
101268.51
101270.82
101273.04
101275.17
101277.21
101279.17
101281.05
101282.85
101284.57
101286.22
101287.8
101289.3
101290.75
101292.13
101293.45
101294.71
101295.91
101297.07
101298.17
101299.22
101300.23
101301.18
101302.1
101302.97
101303.8
101304.59
101305.33
101306.03
101306.69
101307.3
101307.86
101308.37
101308.82
101309.22
101309.55
101309.83
101310.02
101310.16
101310.19
100641.82
100655.73
100669.88
100684.33
100699.06
100714.06
100729.29
100744.74
100760.39
100776.21
100792.19
100808.3
100824.51
100840.81
100857.17
100873.57
100889.97
100906.35
100922.69
100938.95
100955.12
100971.15
100987.02
101002.69
101018.14
101033.33
101048.23
101062.81
101077.04
101090.87
101104.29
101117.25
101129.75
101141.74
101153.19
101164.08
101174.36
101184.01
101192.98
101201.26
101208.79
101215.56
101221.56
101226.75
101231.15
101234.77
101237.62
101239.74
101241.21
101242.1
101242.52
101242.58
101242.42
101242.17
101242.02
101242.13
101242.86
101244.61
101246.99
101249.87
101252.85
101255.72
101258.49
101261.15
101263.71
101266.17
101268.54
101270.81
101272.98
101275.07
101277.08
101279
101280.85
101282.62
101284.31
101285.94
101287.5
101288.98
101290.41
101291.77
101293.08
101294.33
101295.52
101296.66
101297.76
101298.8
101299.8
101300.75
101301.66
101302.52
101303.35
101304.13
101304.87
101305.56
101306.22
101306.82
101307.38
101307.89
101308.34
101308.73
101309.06
101309.33
101309.53
101309.66
101309.7
100655.73
100669.38
100683.26
100697.42
100711.87
100726.56
100741.48
100756.62
100771.96
100787.46
100803.12
100818.91
100834.8
100850.77
100866.81
100882.88
100898.96
100915.02
100931.04
100946.98
100962.83
100978.56
100994.13
101009.5
101024.66
101039.57
101054.2
101068.51
101082.47
101096.05
101109.23
101121.96
101134.22
101146
101157.24
101167.93
101178.03
101187.5
101196.32
101204.44
101211.85
101218.49
101224.37
101229.47
101233.78
101237.31
101240.09
101242.14
101243.53
101244.34
101244.68
101244.65
101244.38
101244.01
101243.72
101243.65
101244.11
101245.55
101247.75
101250.39
101253.28
101256.08
101258.77
101261.37
101263.86
101266.27
101268.59
101270.81
101272.93
101274.98
101276.95
101278.84
101280.65
101282.39
101284.06
101285.66
101287.2
101288.66
101290.07
101291.42
101292.71
101293.95
101295.13
101296.26
101297.34
101298.38
101299.36
101300.31
101301.21
101302.07
101302.89
101303.66
101304.4
101305.09
101305.74
101306.34
101306.89
101307.4
101307.85
101308.24
101308.57
101308.84
101309.03
101309.16
101309.19
100669.42
100682.82
100696.43
100710.34
100724.5
100738.91
100753.54
100768.38
100783.41
100798.61
100813.96
100829.43
100845.01
100860.67
100876.38
100892.13
100907.9
100923.64
100939.35
100954.98
100970.53
100985.95
101001.22
101016.3
101031.18
101045.8
101060.16
101074.2
101087.91
101101.25
101114.18
101126.68
101138.71
101150.27
101161.3
101171.79
101181.71
101191.01
101199.66
101207.63
101214.9
101221.42
101227.19
101232.18
101236.4
101239.85
101242.55
101244.53
101245.85
101246.58
101246.84
101246.73
101246.36
101245.88
101245.44
101245.21
101245.43
101246.55
101248.56
101250.97
101253.74
101256.46
101259.08
101261.6
101264.03
101266.38
101268.64
101270.81
101272.89
101274.9
101276.83
101278.68
101280.46
101282.17
101283.81
101285.39
101286.9
101288.34
101289.73
101291.06
101292.34
101293.56
101294.73
101295.85
101296.92
101297.95
101298.93
101299.86
101300.76
101301.61
101302.42
101303.19
101303.92
101304.61
101305.25
101305.85
101306.4
101306.9
101307.35
101307.74
101308.06
101308.33
101308.52
101308.65
101308.68
100682.86
100696.03
100709.4
100723.04
100736.94
100751.08
100765.43
100779.99
100794.72
100809.63
100824.67
100839.84
100855.11
100870.46
100885.87
100901.31
100916.77
100932.2
100947.6
100962.94
100978.18
100993.3
101008.28
101023.08
101037.67
101052.02
101066.11
101079.89
101093.34
101106.43
101119.12
101131.39
101143.2
101154.53
101165.36
101175.66
101185.38
101194.51
101203
101210.82
101217.94
101224.34
101230
101234.89
101239.01
101242.38
101245
101246.9
101248.15
101248.82
101249
101248.8
101248.35
101247.76
101247.2
101246.81
101246.82
101247.62
101249.43
101251.61
101254.22
101256.85
101259.4
101261.85
101264.22
101266.5
101268.71
101270.83
101272.86
101274.82
101276.71
101278.53
101280.27
101281.95
101283.56
101285.11
101286.6
101288.02
101289.39
101290.71
101291.97
101293.17
101294.33
101295.44
101296.5
101297.51
101298.49
101299.41
101300.3
101301.15
101301.95
101302.72
101303.44
101304.13
101304.76
101305.36
101305.9
101306.4
101306.84
101307.23
101307.55
101307.82
101308.01
101308.13
101308.16
100696.04
100708.98
100722.12
100735.53
100749.18
100763.05
100777.14
100791.42
100805.87
100820.49
100835.25
100850.12
100865.1
100880.15
100895.25
100910.4
100925.55
100940.68
100955.78
100970.82
100985.76
101000.6
101015.29
101029.8
101044.12
101058.2
101072.02
101085.55
101098.75
101111.59
101124.05
101136.08
101147.67
101158.79
101169.41
101179.51
101189.04
101197.99
101206.32
101213.99
101220.97
101227.25
101232.78
101237.57
101241.6
101244.88
101247.43
101249.26
101250.45
101251.04
101251.15
101250.88
101250.33
101249.65
101248.97
101248.44
101248.26
101248.76
101250.32
101252.32
101254.73
101257.27
101259.74
101262.12
101264.42
101266.64
101268.79
101270.85
101272.84
101274.75
101276.6
101278.38
101280.09
101281.73
101283.31
101284.84
101286.3
101287.7
101289.05
101290.35
101291.59
101292.78
101293.93
101295.02
101296.07
101297.08
101298.04
101298.96
101299.84
101300.68
101301.48
101302.24
101302.96
101303.63
101304.27
101304.86
101305.4
101305.89
101306.33
101306.71
101307.03
101307.3
101307.48
101307.61
101307.64
100708.93
100721.66
100734.59
100747.76
100761.18
100774.8
100788.63
100802.65
100816.84
100831.18
100845.65
100860.24
100874.93
100889.69
100904.51
100919.36
100934.21
100949.06
100963.86
100978.61
100993.27
101007.81
101022.22
101036.46
101050.51
101064.33
101077.89
101091.16
101104.12
101116.72
101128.94
101140.75
101152.12
101163.02
101173.44
101183.33
101192.68
101201.46
101209.62
101217.14
101223.98
101230.13
101235.55
101240.23
101244.17
101247.37
101249.83
101251.6
101252.72
101253.25
101253.29
101252.94
101252.32
101251.54
101250.75
101250.1
101249.74
101249.97
101251.24
101253.1
101255.27
101257.71
101260.1
101262.41
101264.64
101266.79
101268.88
101270.89
101272.83
101274.69
101276.49
101278.23
101279.91
101281.52
101283.07
101284.56
101286
101287.38
101288.71
101289.99
101291.21
101292.39
101293.52
101294.6
101295.64
101296.64
101297.59
101298.5
101299.37
101300.2
101301
101301.75
101302.46
101303.13
101303.76
101304.35
101304.88
101305.37
101305.81
101306.19
101306.51
101306.77
101306.95
101307.08
101307.11
100721.5
100734.05
100746.77
100759.73
100772.92
100786.31
100799.89
100813.66
100827.59
100841.66
100855.87
100870.18
100884.59
100899.07
100913.61
100928.17
100942.74
100957.3
100971.83
100986.29
101000.67
101014.94
101029.07
101043.04
101056.82
101070.38
101083.69
101096.71
101109.42
101121.79
101133.78
101145.37
101156.52
101167.22
101177.42
101187.13
101196.29
101204.89
101212.89
101220.25
101226.96
101232.97
101238.28
101242.86
101246.7
101249.82
101252.21
101253.91
101254.97
101255.44
101255.41
101255
101254.3
101253.44
101252.54
101251.77
101251.26
101251.25
101252.18
101253.93
101255.86
101258.18
101260.48
101262.71
101264.87
101266.96
101268.98
101270.93
101272.82
101274.64
101276.39
101278.09
101279.73
101281.31
101282.83
101284.29
101285.7
101287.06
101288.37
101289.63
101290.83
101291.99
101293.11
101294.18
101295.21
101296.19
101297.13
101298.04
101298.9
101299.72
101300.51
101301.26
101301.96
101302.63
101303.25
101303.83
101304.36
101304.85
101305.28
101305.66
101305.97
101306.23
101306.42
101306.54
101306.57
100733.75
100746.12
100758.64
100771.4
100784.37
100797.54
100810.89
100824.42
100838.1
100851.92
100865.87
100879.92
100894.06
100908.27
100922.53
100936.81
100951.11
100965.4
100979.64
100993.83
101007.94
101021.94
101035.8
101049.51
101063.03
101076.34
101089.4
101102.18
101114.66
101126.79
101138.56
101149.93
101160.87
101171.35
101181.36
101190.87
101199.85
101208.28
101216.11
101223.33
101229.89
101235.78
101240.97
101245.44
101249.2
101252.23
101254.55
101256.19
101257.18
101257.59
101257.51
101257.03
101256.27
101255.33
101254.34
101253.45
101252.8
101252.59
101253.19
101254.79
101256.52
101258.66
101260.87
101263.02
101265.11
101267.13
101269.09
101270.99
101272.82
101274.59
101276.3
101277.96
101279.55
101281.1
101282.59
101284.02
101285.41
101286.74
101288.03
101289.26
101290.45
101291.6
101292.7
101293.75
101294.77
101295.74
101296.67
101297.57
101298.42
101299.24
101300.02
101300.76
101301.46
101302.12
101302.74
101303.31
101303.84
101304.32
101304.75
101305.12
101305.43
101305.69
101305.87
101305.99
101306.02
100745.65
100757.84
100770.19
100782.75
100795.52
100808.48
100821.61
100834.9
100848.35
100861.92
100875.62
100889.42
100903.3
100917.25
100931.24
100945.27
100959.3
100973.31
100987.29
101001.22
101015.06
101028.79
101042.4
101055.85
101069.12
101082.18
101095
101107.55
101119.79
101131.71
101143.25
101154.41
101165.14
101175.43
101185.24
101194.56
101203.36
101211.61
101219.28
101226.35
101232.78
101238.54
101243.61
101247.98
101251.65
101254.6
101256.85
101258.42
101259.36
101259.72
101259.58
101259.04
101258.21
101257.2
101256.13
101255.13
101254.36
101253.97
101254.27
101255.64
101257.26
101259.16
101261.28
101263.35
101265.37
101267.32
101269.21
101271.05
101272.83
101274.55
101276.21
101277.82
101279.38
101280.89
101282.35
101283.75
101285.11
101286.42
101287.68
101288.9
101290.07
101291.2
101292.28
101293.32
101294.32
101295.29
101296.21
101297.09
101297.94
101298.75
101299.52
101300.25
101300.94
101301.6
101302.21
101302.78
101303.3
101303.78
101304.2
101304.57
101304.88
101305.14
101305.32
101305.44
101305.47
100757.17
100769.2
100781.38
100793.76
100806.34
100819.09
100832.01
100845.09
100858.31
100871.65
100885.11
100898.66
100912.29
100925.99
100939.73
100953.5
100967.27
100981.03
100994.75
101008.42
101022
101035.49
101048.84
101062.05
101075.07
101087.89
101100.48
101112.8
101124.82
101136.51
101147.85
101158.8
101169.33
101179.41
101189.03
101198.17
101206.79
101214.87
101222.39
101229.3
101235.6
101241.23
101246.19
101250.46
101254.04
101256.91
101259.09
101260.61
101261.49
101261.8
101261.61
101261.02
101260.13
101259.05
101257.9
101256.81
101255.93
101255.39
101255.42
101256.48
101258.06
101259.71
101261.71
101263.7
101265.64
101267.52
101269.34
101271.12
101272.84
101274.51
101276.13
101277.7
101279.22
101280.69
101282.11
101283.48
101284.81
101286.1
101287.33
101288.53
101289.68
101290.79
101291.86
101292.89
101293.88
101294.83
101295.74
101296.61
101297.45
101298.25
101299.01
101299.74
101300.43
101301.07
101301.68
101302.24
101302.76
101303.23
101303.65
101304.02
101304.33
101304.58
101304.76
101304.88
101304.9
100768.29
100780.18
100792.19
100804.4
100816.8
100829.36
100842.08
100854.95
100867.95
100881.07
100894.3
100907.62
100921.01
100934.47
100947.96
100961.48
100975.01
100988.52
101001.99
101015.41
101028.75
101041.99
101055.1
101068.07
101080.86
101093.45
101105.81
101117.9
101129.71
101141.19
101152.32
101163.07
101173.4
101183.3
101192.73
101201.69
101210.13
101218.05
101225.41
101232.19
101238.34
101243.86
101248.71
101252.88
101256.37
101259.17
101261.28
101262.74
101263.58
101263.84
101263.6
101262.97
101262.02
101260.89
101259.67
101258.49
101257.5
101256.82
101256.63
101257.36
101258.88
101260.31
101262.16
101264.06
101265.92
101267.73
101269.49
101271.2
101272.87
101274.48
101276.05
101277.57
101279.05
101280.48
101281.87
101283.21
101284.51
101285.77
101286.99
101288.16
101289.29
101290.39
101291.44
101292.45
101293.43
101294.36
101295.27
101296.13
101296.96
101297.75
101298.5
101299.22
101299.9
101300.54
101301.14
101301.7
101302.22
101302.68
101303.1
101303.46
101303.76
101304.01
101304.19
101304.31
101304.33
100779
100790.74
100802.61
100814.65
100826.88
100839.26
100851.79
100864.45
100877.25
100890.16
100903.16
100916.26
100929.43
100942.65
100955.91
100969.2
100982.48
100995.75
101008.99
101022.17
101035.27
101048.28
101061.16
101073.9
101086.46
101098.83
101110.97
101122.85
101134.45
101145.73
101156.66
101167.21
101177.36
101187.07
101196.33
101205.1
101213.38
101221.14
101228.35
101234.98
101241.01
101246.41
101251.15
101255.23
101258.63
101261.35
101263.41
101264.82
101265.6
101265.82
101265.55
101264.87
101263.88
101262.69
101261.41
101260.16
101259.06
101258.26
101257.89
101258.28
101259.66
101260.99
101262.63
101264.43
101266.21
101267.95
101269.64
101271.29
101272.89
101274.46
101275.98
101277.45
101278.89
101280.28
101281.63
101282.95
101284.22
101285.45
101286.64
101287.79
101288.9
101289.98
101291.01
101292.01
101292.97
101293.9
101294.79
101295.64
101296.46
101297.24
101297.99
101298.7
101299.37
101300
101300.6
101301.15
101301.66
101302.12
101302.53
101302.89
101303.19
101303.44
101303.61
101303.73
101303.76
100789.26
100800.87
100812.59
100824.49
100836.55
100848.76
100861.1
100873.58
100886.18
100898.88
100911.69
100924.57
100937.52
100950.52
100963.56
100976.61
100989.67
101002.72
101015.72
101028.68
101041.55
101054.33
101066.99
101079.51
101091.85
101104.01
101115.94
101127.62
101139.01
101150.1
101160.84
101171.21
101181.17
101190.71
101199.79
101208.4
101216.52
101224.12
101231.18
101237.68
101243.58
101248.86
101253.5
101257.49
101260.81
101263.46
101265.46
101266.82
101267.56
101267.75
101267.44
101266.72
101265.69
101264.46
101263.12
101261.8
101260.62
101259.7
101259.18
101259.28
101260.42
101261.75
101263.13
101264.82
101266.52
101268.18
101269.8
101271.38
101272.93
101274.44
101275.91
101277.34
101278.73
101280.08
101281.4
101282.68
101283.92
101285.12
101286.29
101287.42
101288.51
101289.56
101290.58
101291.56
101292.51
101293.42
101294.3
101295.14
101295.95
101296.72
101297.46
101298.17
101298.83
101299.46
101300.05
101300.59
101301.1
101301.55
101301.96
101302.32
101302.61
101302.85
101303.03
101303.14
101303.17
100799.06
100810.55
100822.13
100833.88
100845.79
100857.83
100870.01
100882.31
100894.72
100907.23
100919.83
100932.51
100945.25
100958.05
100970.87
100983.71
100996.55
101009.38
101022.17
101034.9
101047.56
101060.13
101072.57
101084.88
101097.02
101108.96
101120.69
101132.18
101143.39
101154.29
101164.85
101175.04
101184.83
101194.2
101203.12
101211.56
101219.53
101226.98
101233.9
101240.26
101246.04
101251.21
101255.76
101259.65
101262.9
101265.49
101267.43
101268.75
101269.46
101269.61
101269.27
101268.53
101267.46
101266.19
101264.8
101263.42
101262.16
101261.13
101260.48
101260.35
101261.17
101262.54
101263.66
101265.23
101266.84
101268.42
101269.97
101271.49
101272.97
101274.42
101275.84
101277.22
101278.57
101279.89
101281.16
101282.41
101283.62
101284.8
101285.94
101287.04
101288.11
101289.15
101290.15
101291.12
101292.05
101292.95
101293.81
101294.64
101295.44
101296.2
101296.93
101297.63
101298.29
101298.91
101299.49
101300.03
101300.53
101300.98
101301.38
101301.73
101302.03
101302.26
101302.43
101302.55
101302.58
100808.38
100819.75
100831.2
100842.82
100854.57
100866.46
100878.48
100890.6
100902.84
100915.17
100927.58
100940.07
100952.61
100965.2
100977.83
100990.46
101003.1
101015.71
101028.3
101040.82
101053.28
101065.64
101077.88
101089.99
101101.93
101113.68
101125.22
101136.52
101147.55
101158.27
101168.66
101178.68
101188.31
101197.52
101206.28
101214.58
101222.39
101229.7
101236.49
101242.73
101248.39
101253.46
101257.91
101261.72
101264.89
101267.42
101269.32
101270.59
101271.27
101271.4
101271.04
101270.27
101269.18
101267.87
101266.44
101265.01
101263.67
101262.56
101261.78
101261.47
101261.95
101263.27
101264.27
101265.65
101267.16
101268.67
101270.15
101271.6
101273.02
101274.41
101275.78
101277.11
101278.42
101279.69
101280.93
101282.14
101283.32
101284.47
101285.58
101286.66
101287.71
101288.73
101289.71
101290.66
101291.58
101292.46
101293.32
101294.14
101294.92
101295.68
101296.4
101297.08
101297.73
101298.35
101298.92
101299.46
101299.95
101300.4
101300.79
101301.14
101301.43
101301.67
101301.83
101301.95
101301.97
100817.2
100828.45
100839.79
100851.27
100862.89
100874.63
100886.48
100898.45
100910.52
100922.67
100934.91
100947.21
100959.57
100971.97
100984.4
100996.84
101009.28
101021.7
101034.09
101046.42
101058.68
101070.84
101082.89
101094.81
101106.57
101118.14
101129.5
101140.62
101151.47
101162.03
101172.26
101182.13
101191.6
101200.66
101209.28
101217.43
101225.1
101232.28
101238.94
101245.06
101250.61
101255.58
101259.94
101263.68
101266.78
101269.26
101271.11
101272.35
101273
101273.11
101272.73
101271.95
101270.84
101269.5
101268.04
101266.56
101265.16
101263.96
101263.08
101262.61
101262.79
101263.92
101264.99
101266.1
101267.5
101268.93
101270.33
101271.71
101273.07
101274.41
101275.72
101277
101278.26
101279.49
101280.7
101281.87
101283.02
101284.14
101285.23
101286.28
101287.31
101288.31
101289.27
101290.2
101291.11
101291.98
101292.82
101293.63
101294.4
101295.15
101295.86
101296.53
101297.18
101297.78
101298.35
101298.88
101299.37
101299.81
101300.2
101300.54
101300.83
101301.06
101301.23
101301.34
101301.36
100825.5
100836.64
100847.86
100859.22
100870.7
100882.3
100894.02
100905.83
100917.74
100929.73
100941.8
100953.93
100966.11
100978.33
100990.58
101002.83
101015.09
101027.32
101039.52
101051.67
101063.74
101075.72
101087.59
101099.33
101110.91
101122.31
101133.5
101144.46
101155.15
101165.55
101175.63
101185.35
101194.68
101203.6
101212.08
101220.1
101227.64
101234.69
101241.23
101247.24
101252.69
101257.57
101261.84
101265.51
101268.56
101270.98
101272.8
101274.01
101274.64
101274.73
101274.35
101273.55
101272.43
101271.07
101269.59
101268.07
101266.62
101265.35
101264.36
101263.76
101263.69
101264.55
101265.75
101266.57
101267.85
101269.19
101270.52
101271.83
101273.13
101274.4
101275.66
101276.9
101278.11
101279.3
101280.46
101281.6
101282.72
101283.81
101284.87
101285.9
101286.9
101287.88
101288.83
101289.74
101290.63
101291.49
101292.31
101293.11
101293.87
101294.61
101295.31
101295.98
101296.61
101297.21
101297.77
101298.29
101298.77
101299.21
101299.6
101299.94
101300.22
101300.45
101300.61
101300.72
101300.75
100833.28
100844.3
100855.41
100866.65
100878.01
100889.48
100901.05
100912.72
100924.47
100936.31
100948.22
100960.19
100972.2
100984.25
100996.33
101008.41
101020.49
101032.55
101044.57
101056.55
101068.45
101080.26
101091.96
101103.52
101114.94
101126.18
101137.21
101148.01
101158.56
101168.81
101178.75
101188.33
101197.53
101206.32
101214.68
101222.57
101229.99
101236.93
101243.36
101249.26
101254.62
101259.41
101263.61
101267.21
101270.21
101272.59
101274.37
101275.56
101276.18
101276.27
101275.88
101275.08
101273.95
101272.59
101271.08
101269.53
101268.04
101266.7
101265.63
101264.9
101264.65
101265.19
101266.41
101267.11
101268.22
101269.46
101270.72
101271.96
101273.19
101274.41
101275.61
101276.79
101277.96
101279.1
101280.23
101281.33
101282.42
101283.47
101284.51
101285.51
101286.5
101287.45
101288.38
101289.28
101290.15
101290.99
101291.8
101292.59
101293.34
101294.06
101294.76
101295.42
101296.04
101296.63
101297.19
101297.7
101298.17
101298.6
101298.99
101299.32
101299.6
101299.83
101299.99
101300.09
101300.12
100840.51
100851.43
100862.43
100873.55
100884.79
100896.13
100907.57
100919.1
100930.71
100942.41
100954.16
100965.97
100977.83
100989.72
101001.64
101013.56
101025.47
101037.37
101049.23
101061.04
101072.77
101084.42
101095.96
101107.38
101118.64
101129.72
101140.61
101151.27
101161.67
101171.79
101181.6
101191.06
101200.14
101208.81
101217.05
101224.84
101232.15
101238.97
101245.3
101251.11
101256.38
101261.1
101265.23
101268.78
101271.73
101274.08
101275.83
101277.01
101277.62
101277.71
101277.32
101276.53
101275.4
101274.03
101272.51
101270.94
101269.41
101268.02
101266.87
101266.04
101265.63
101265.87
101266.95
101267.76
101268.6
101269.74
101270.92
101272.09
101273.25
101274.41
101275.56
101276.69
101277.81
101278.91
101280
101281.06
101282.11
101283.14
101284.14
101285.13
101286.08
101287.02
101287.92
101288.81
101289.66
101290.49
101291.29
101292.06