/*--------------------------------*- C++ -*----------------------------------*\
| =========                 |                                                 |
| \\      /  F ield         | OpenFOAM: The Open Source CFD Toolbox           |
|  \\    /   O peration     | Version:  2406                                  |
|   \\  /    A nd           | Website:  www.openfoam.com                      |
|    \\/     M anipulation  |                                                 |
\*---------------------------------------------------------------------------*/
FoamFile
{
    version     2.0;
    format      ascii;
    arch        "LSB;label=32;scalar=64";
    class       volVectorField;
    location    "0.045";
    object      U;
}
// * * * * * * * * * * * * * * * * * * * * * * * * * * * * * * * * * * * * * //

dimensions      [0 1 -1 0 0 0 0];

internalField   nonuniform List<vector> 
8260
(
(40.187402 29.048371 0)
(41.566107 27.756875 -2.4717837e-20)
(42.881273 26.46638 2.1360114e-20)
(44.154295 25.173038 -3.6541588e-20)
(45.382555 23.837834 1.5497637e-20)
(46.548413 22.478805 -2.6160711e-20)
(47.640956 21.132183 -1.095799e-20)
(48.651266 19.830932 -1.4661865e-23)
(49.614965 18.599503 4.9300326e-21)
(50.572426 17.438277 0)
(51.468403 16.362817 4.6248885e-20)
(52.324255 15.365869 0)
(53.13203 14.428902 0)
(53.854654 13.516863 -7.1232569e-20)
(54.325823 12.570609 1.8795659e-23)
(54.376753 11.497327 0)
(53.766386 9.9952881 0)
(52.871561 8.3591031 6.7531705e-19)
(52.408291 7.203295 5.6541332e-21)
(52.131328 6.29152 -6.8847249e-19)
(51.918398 5.4356544 -1.253485e-18)
(51.72262 4.6967146 -1.1314254e-18)
(51.533651 4.0132012 -2.0548885e-18)
(51.365548 3.3870238 1.8409054e-18)
(51.214518 2.8407969 1.637513e-18)
(51.10384 2.3361924 0)
(51.008703 1.8817395 2.578239e-18)
(50.929832 1.4483578 2.2750668e-18)
(50.862527 1.0389304 4.0165303e-18)
(50.820801 0.62346076 0)
(50.791878 0.2129634 6.2338772e-18)
(39.188266 28.272648 2.4210454e-20)
(40.627068 27.104426 -1.7458807e-23)
(41.994241 25.99707 -1.8831368e-20)
(43.324527 24.855465 4.9557181e-20)
(44.619084 23.656164 0)
(45.862354 22.416256 2.4682836e-20)
(47.040721 21.16592 4.2338584e-20)
(48.14777 19.936176 2.7131664e-20)
(49.200087 18.752298 -3.1012882e-20)
(50.217573 17.620491 1.3357988e-20)
(51.176969 16.552017 -5.2413041e-20)
(52.084212 15.54823 0)
(52.928847 14.594123 0)
(53.669247 13.659742 1.4667214e-19)
(54.140632 12.659362 -1.5346006e-19)
(54.159166 11.544459 1.9022887e-19)
(53.530428 9.9538964 2.6146214e-24)
(52.685467 8.3245166 -2.1230355e-20)
(52.290531 7.1918562 2.2035659e-20)
(52.044863 6.2857425 -6.5985576e-19)
(51.849939 5.430443 -9.4285059e-21)
(51.668835 4.6923205 1.0957926e-18)
(51.490047 4.0106279 1.9727946e-18)
(51.331052 3.3844152 -3.4508323e-21)
(51.187439 2.8398412 6.1797841e-21)
(51.082097 2.3357549 -2.7314811e-21)
(50.990989 1.8817178 -2.4784779e-18)
(50.914954 1.4484388 -2.1912823e-18)
(50.849727 1.0388432 -3.8761429e-18)
(50.809445 0.62303993 3.4221423e-18)
(50.781459 0.2126112 -6.0393093e-18)
(38.147421 27.222062 -2.0319396e-20)
(39.566517 26.280171 1.8239521e-20)
(40.978747 25.377671 0)
(42.37334 24.41035 -3.0150747e-20)
(43.740762 23.366767 2.6928577e-20)
(45.06612 22.26433 0)
(46.33496 21.1287 -4.1671719e-20)
(47.538436 19.987924 -9.0955867e-21)
(48.682637 18.867443 3.9651924e-20)
(49.777008 17.777153 0)
(50.808448 16.727176 4.9096582e-20)
(51.775575 15.7242 0)
(52.665451 14.756749 0)
(53.430605 13.799762 -7.5004942e-20)
(53.910538 12.748009 -5.2809755e-21)
(53.906687 11.582908 -2.1024627e-19)
(53.267256 9.8941043 2.8055192e-19)
(52.492461 8.3062807 -1.3515505e-18)
(52.163794 7.2022895 0)
(51.947731 6.3007063 6.2500647e-19)
(51.772122 5.4439484 0)
(51.607762 4.703859 -8.0096918e-21)
(51.440598 4.021639 1.4362815e-20)
(51.291912 3.3925439 -1.2823428e-20)
(51.1566 2.8470995 -1.4544799e-18)
(51.057142 2.3415649 0)
(50.970687 1.8863042 0)
(50.897928 1.4519181 1.9791135e-21)
(50.83512 1.0411602 -1.7483436e-21)
(50.796519 0.62443349 -3.1613237e-18)
(50.769603 0.21312736 -4.2505266e-23)
(37.278113 26.031719 6.7655958e-20)
(38.651262 25.310751 -4.670757e-20)
(40.059094 24.611102 2.9337275e-20)
(41.477087 23.830761 2.7210505e-20)
(42.88691 22.958949 -7.4788514e-20)
(44.270759 22.010468 -2.2569041e-20)
(45.611683 21.00708 2.0250375e-20)
(46.896674 19.972914 -1.8039309e-20)
(48.123367 18.931666 1.6032148e-20)
(49.294001 17.89642 0)
(50.396267 16.87789 5.1239179e-20)
(51.423985 15.884852 0)
(52.360489 14.909264 -8.7855477e-20)
(53.149772 13.930239 0)
(53.635655 12.828548 -1.8477359e-19)
(53.604429 11.601448 6.9748616e-21)
(52.961489 9.812353 4.4079614e-23)
(52.276591 8.2904651 6.5468278e-19)
(52.018446 7.2085755 -6.3893129e-19)
(51.835924 6.3103156 0)
(51.682498 5.452072 -1.0552218e-18)
(51.537322 4.7102471 -7.4088452e-21)
(51.383594 4.0282376 6.6202707e-21)
(51.24676 3.3970643 -1.5093763e-18)
(51.12118 2.8514701 0)
(51.028556 2.3453013 0)
(50.947467 1.8893493 0)
(50.878459 1.4543215 -1.8556448e-18)
(50.818452 1.0426648 0)
(50.781774 0.62516415 2.8931683e-18)
(50.756114 0.21330397 5.1049924e-18)
(36.593776 24.744194 -1.3963607e-20)
(37.90024 24.222049 0)
(39.26716 23.711425 -2.5463477e-20)
(40.670855 23.117116 2.4293299e-20)
(42.090164 22.424326 2.2818956e-20)
(43.504479 21.641637 4.2281766e-20)
(44.894009 20.785352 1.9394401e-20)
(46.241682 19.874482 -1.7657985e-20)
(47.537484 18.929235 -1.5994e-20)
(48.776085 17.964198 8.697356e-20)
(49.943918 16.990932 -1.319001e-20)
(51.029715 16.018369 0)
(52.011595 15.04139 1.747778e-19)
(52.822382 14.04155 -4.6197681e-24)
(53.308059 12.889578 2.1268575e-19)
(53.243537 11.582429 1.5060717e-20)
(52.608573 9.7091873 -3.2015057e-19)
(52.042683 8.2727513 6.1620036e-19)
(51.855549 7.2106279 6.3257138e-19)
(51.709481 6.3178389 2.3606416e-24)
(51.580888 5.4598159 9.5537091e-19)
(51.457415 4.7172673 8.6878331e-19)
(51.319004 4.0362165 6.0488411e-21)
(51.19554 3.403245 1.3705805e-18)
(51.08103 2.8572211 1.2200788e-18)
(50.996058 2.3503749 0)
(50.921074 1.893424 -3.727779e-21)
(50.856308 1.4575833 1.6889983e-18)
(50.799511 1.0447484 -2.9766223e-18)
(50.765006 0.62631202 -2.6277124e-18)
(50.740774 0.21366786 5.6582408e-22)
(36.109307 23.38296 2.2993283e-20)
(37.331051 23.038279 -2.213143e-20)
(38.629342 22.698811 -2.1920826e-20)
(39.986092 22.28002 4.2832045e-20)
(41.381602 21.763842 -4.1201014e-20)
(42.794805 21.151263 0)
(44.204414 20.451489 0)
(45.590261 19.677189 0)
(46.936077 18.843579 3.1544494e-20)
(48.229121 17.964173 3.4968214e-23)
(49.452919 17.050206 -5.3965182e-20)
(50.590529 16.109516 1.1423251e-19)
(51.613329 15.139049 -2.083498e-19)
(52.440333 14.119399 -1.11566e-19)
(52.915818 12.914686 2.6861591e-20)
(52.814548 11.504744 -1.5982879e-20)
(52.207965 9.5840106 1.8693466e-20)
(51.7894 8.2507011 -6.1599197e-19)
(51.67246 7.2061276 -1.7145691e-20)
(51.566397 6.3206036 -4.9446055e-19)
(51.465644 5.4642782 -8.7115789e-19)
(51.366557 4.7218984 -1.5790605e-18)
(51.245583 4.0425644 -1.4149794e-18)
(51.137127 3.408528 -8.1535123e-25)
(51.035348 2.8620843 8.6490759e-21)
(50.959072 2.3550714 1.9504544e-18)
(50.89105 1.8971926 0)
(50.831078 1.4607377 1.52442e-18)
(50.777973 1.0466925 2.6832614e-18)
(50.745916 0.62732315 0)
(50.723332 0.21394708 0)
(35.83971 21.970662 8.6713861e-21)
(36.963434 21.787306 -3.7041643e-20)
(38.171947 21.599557 3.7552686e-20)
(39.453657 21.339058 -1.8736782e-20)
(40.793314 20.988039 -1.84557e-20)
(42.172244 20.540899 0)
(43.569719 19.999334 0)
(44.964106 19.368911 0)
(46.33482 18.658583 -3.0746702e-20)
(47.662901 17.878183 -5.7824843e-20)
(48.92755 17.036547 0)
(50.105607 16.138933 -1.0431533e-19)
(51.160072 15.183132 1.2783449e-19)
(51.993669 14.142287 -3.5931366e-23)
(52.443914 12.880304 1.712493e-19)
(52.305686 11.340813 3.318014e-20)
(51.769165 9.4440185 -3.6084016e-20)
(51.515701 8.2193401 5.8703632e-19)
(51.467725 7.1923546 0)
(51.405017 6.3169947 4.4903343e-19)
(51.335494 5.4648221 8.0105222e-19)
(51.263713 4.7243313 1.4256014e-18)
(51.162506 4.0478654 -9.9501711e-21)
(51.070717 3.4138856 8.7553459e-21)
(50.983523 2.8668569 3.321906e-23)
(50.91706 2.3601858 -1.752297e-18)
(50.856967 1.9012678 0)
(50.802373 1.4642919 2.5311326e-23)
(50.753509 1.048855 0)
(50.724197 0.62848652 0)
(50.703518 0.21428238 1.8766589e-18)
(35.796711 20.5767 -2.3968367e-23)
(36.809783 20.515505 -2.330884e-20)
(37.91127 20.449437 8.0260866e-21)
(39.095081 20.322068 1.6358777e-20)
(40.351059 20.115632 1.643422e-20)
(41.664474 19.819515 0)
(43.016984 19.428628 0)
(44.387447 18.941299 0)
(45.753214 18.359336 0)
(47.090915 17.686721 -2.8515745e-20)
(48.375038 16.927478 2.7399323e-20)
(49.575735 16.0823 0)
(50.645698 15.148038 -2.650124e-20)
(51.470809 14.077238 2.7429769e-20)
(51.874387 12.754194 -4.7934279e-19)
(51.703165 11.066462 3.3466741e-20)
(51.305089 9.2933557 -3.4027187e-20)
(51.219819 8.173359 -5.0463499e-19)
(51.239229 7.165696 0)
(51.223423 6.3043787 0)
(51.189035 5.4593375 0)
(51.147638 4.7229368 2.0050778e-20)
(51.068663 4.0506537 1.1255198e-18)
(50.995214 3.4182568 5.1131987e-25)
(50.924726 2.8705265 -1.7817248e-18)
(50.869352 2.3650263 1.5613885e-18)
(50.818284 1.9051039 1.3891923e-18)
(50.769711 1.467873 -2.4424096e-18)
(50.725708 1.0509459 0)
(50.699468 0.62958949 0)
(50.681039 0.21456752 -1.6773402e-18)
(35.966148 19.219961 -6.1665665e-21)
(36.863838 19.24725 2.619734e-20)
(37.847795 19.274481 -3.4474834e-20)
(38.918104 19.252436 -1.4302394e-20)
(40.069314 19.164957 1.4658301e-20)
(41.290871 18.998324 -2.9633464e-20)
(42.56805 18.742111 2.9616884e-20)
(43.882061 18.388223 0)
(45.210451 17.931327 0)
(46.527519 17.368246 0)
(47.803585 16.696057 0)
(49.00159 15.908687 1.0831952e-19)
(50.061282 14.999012 -1.3679803e-19)
(50.859182 13.870239 2.8365898e-20)
(51.184094 12.498696 2.4568264e-19)
(51.010011 10.671836 0)
(50.835894 9.1390395 0)
(50.898969 8.107256 4.569722e-19)
(50.985114 7.1214616 2.5528701e-20)
(51.019549 6.2797228 -2.2728708e-20)
(51.024838 5.4457831 0)
(51.017107 4.7166366 -5.5443499e-19)
(50.963066 4.0503581 8.9247891e-25)
(50.909797 3.4214773 -8.9573686e-19)
(50.858172 2.8730762 -3.3560029e-23)
(50.81527 2.3696922 -1.4082049e-18)
(50.774376 1.9088235 -1.2331979e-18)
(50.732572 1.4716046 1.0881449e-18)
(50.694092 1.0530513 -1.8751621e-21)
(50.671292 0.63071932 8.2715147e-22)
(50.65555 0.21484105 7.2963824e-22)
(36.32022 17.919351 0)
(37.107211 17.999343 -4.4579837e-20)
(37.971923 18.091779 4.7896797e-20)
(38.920284 18.14769 0)
(39.951577 18.150376 -7.9034508e-20)
(41.06003 18.086112 2.2318464e-23)
(42.235495 17.940893 5.5187791e-20)
(43.462772 17.701725 2.7781688e-20)
(44.721217 17.356994 0)
(45.984536 16.895979 -2.3693127e-23)
(47.21971 16.307458 -6.4703008e-24)
(48.381561 15.576757 -1.6537698e-19)
(49.393263 14.686625 5.6423508e-20)
(50.125231 13.483999 5.8950029e-20)
(50.351176 12.012343 6.2218768e-20)
(50.281154 10.197171 2.4784876e-19)
(50.372897 8.9728212 -5.6928377e-20)
(50.550598 8.0145036 9.0203135e-23)
(50.704361 7.0549548 0)
(50.791476 6.2393565 -3.4410929e-19)
(50.841327 5.4213367 -5.5820024e-19)
(50.870402 4.7034679 0)
(50.844485 4.0455909 0)
(50.813681 3.4222821 7.844477e-19)
(50.782844 2.873838 7.1471617e-19)
(50.754054 2.3735518 1.2422592e-18)
(50.724398 1.9120363 -8.5636098e-21)
(50.690322 1.4751725 3.7774299e-21)
(50.658069 1.0549584 1.7096758e-18)
(50.639145 0.63173156 0)
(50.626611 0.21502289 1.3278273e-18)
(36.819438 16.668454 -3.0094722e-20)
(37.495365 16.786299 3.4228403e-20)
(38.243899 16.916928 -4.275633e-20)
(39.070905 17.016877 -4.574364e-20)
(39.976482 17.077106 1.2101011e-20)
(40.959651 17.08153 5.0547683e-20)
(42.014962 17.01533 0)
(43.131156 16.862745 -2.6735057e-20)
(44.290084 16.606878 0)
(45.46578 16.229344 -4.2280609e-23)
(46.622232 15.709878 0)
(47.704525 15.022707 -5.6699264e-20)
(48.615274 14.126469 5.8609638e-20)
(49.218734 12.805225 6.0416608e-20)
(49.400652 11.257399 -2.4188801e-19)
(49.60305 9.7844181 -5.1044602e-19)
(49.898562 8.8368044 5.1205062e-20)
(50.185428 7.8413666 -4.1357796e-19)
(50.39563 6.9893424 -2.8578323e-19)
(50.541693 6.1536176 -3.6240589e-20)
(50.637221 5.3829703 4.7932747e-19)
(50.705193 4.681313 4.797316e-19)
(50.711324 4.0351845 2.4995041e-20)
(50.706043 3.4193326 6.8532116e-19)
(50.69761 2.872798 0)
(50.684822 2.3761954 -2.2040573e-18)
(50.667326 1.9146488 -7.595865e-21)
(50.642187 1.4784187 6.7006813e-21)
(50.616975 1.0566232 3.9881692e-23)
(50.602446 0.63261655 1.3036568e-21)
(50.593637 0.21509303 -1.1786428e-18)
(37.469838 15.419593 0)
(38.02598 15.540383 0)
(38.650755 15.678439 0)
(39.347246 15.800165 0)
(40.118971 15.889552 0)
(40.96697 15.932191 -1.1001849e-19)
(41.888161 15.913511 1.0253192e-19)
(42.873324 15.816109 0)
(43.905141 15.618595 -1.0969439e-19)
(44.956415 15.295111 1.1248257e-19)
(45.985806 14.815474 5.7711268e-20)
(46.92409 14.135654 0)
(47.66936 13.166596 1.8250613e-19)
(48.133751 11.810192 -6.0465346e-20)
(48.52526 10.400221 1.7022367e-19)
(48.979056 9.4823636 5.1431522e-20)
(49.446702 8.515593 -1.8454523e-19)
(49.790609 7.6922161 -3.687477e-19)
(50.069021 6.8485261 6.1743339e-19)
(50.267077 6.0865969 5.1450561e-19)
(50.409433 5.3465712 0)
(50.520824 4.6433128 -2.5031347e-20)
(50.561497 4.0069009 2.2153398e-20)
(50.585525 3.410287 -6.2679569e-19)
(50.601383 2.8697129 0)
(50.606298 2.3766968 1.9520882e-18)
(50.602082 1.9161841 0)
(50.58722 1.4808404 -5.9336254e-21)
(50.570109 1.0578123 -2.6745959e-18)
(50.560597 0.63321699 0)
(50.555871 0.21495755 0)
(38.121444 14.08127 0)
(38.571021 14.177585 0)
(39.084109 14.293701 0)
(39.658773 14.405383 8.8428126e-20)
(40.300596 14.48969 -1.788185e-19)
(41.01276 14.533746 2.1653447e-19)
(41.79315 14.523823 -1.3482298e-19)
(42.63146 14.441355 2.8273811e-20)
(43.507555 14.260818 1.4686186e-19)
(44.391463 13.950164 -7.3692257e-23)
(45.247535 13.463979 -6.1856843e-20)
(46.01277 12.744578 -2.4808297e-19)
(46.6038 11.7388 1.2101022e-19)
(47.142989 10.663427 0)
(47.795291 9.8364527 0)
(48.441333 9.0181463 9.2448089e-20)
(48.954284 8.2718233 3.2862259e-19)
(49.384929 7.4641005 7.2822232e-19)
(49.72266 6.703446 -3.223401e-19)
(49.979225 5.9641993 -5.6979177e-20)
(50.165752 5.2576164 5.0393936e-20)
(50.313517 4.6114218 -3.7824363e-19)
(50.393466 3.9753136 1.9642532e-20)
(50.450143 3.3932463 0)
(50.493242 2.8641232 0)
(50.516997 2.3744507 -8.6239851e-19)
(50.527774 1.9160756 0)
(50.524463 1.4819925 0)
(50.516819 1.0583755 1.1849914e-18)
(50.513037 0.63343444 -1.0453407e-18)
(50.512425 0.21457691 -9.220451e-19)
(38.743194 12.265101 -2.5301999e-23)
(39.104587 12.333031 -1.7761635e-19)
(39.514181 12.421617 9.1014602e-20)
(39.981817 12.500126 0)
(40.508109 12.5664 9.6430917e-24)
(41.088331 12.608151 1.3517211e-19)
(41.719318 12.598161 -4.501786e-23)
(42.393122 12.516527 -3.2399188e-20)
(43.091516 12.337193 -3.2812036e-20)
(43.787359 12.041481 -6.5424705e-20)
(44.456828 11.598537 -6.4059392e-20)
(45.100723 11.014216 0)
(45.760996 10.354053 0)
(46.502656 9.7876863 0)
(47.235941 9.2031055 0)
(47.885929 8.5948572 -1.6460892e-19)
(48.477889 7.8909086 -1.4588044e-19)
(48.961505 7.206689 -2.5829048e-19)
(49.364182 6.50089 0)
(49.676251 5.8356796 -2.0190052e-19)
(49.905469 5.1750168 0)
(50.093912 4.529663 3.148867e-19)
(50.206109 3.939957 0)
(50.298316 3.3669793 0)
(50.371495 2.858579 0)
(50.416447 2.3665894 0)
(50.443889 1.9111044 0)
(50.453245 1.4812908 -9.2705951e-21)
(50.4565 1.0580023 8.1800801e-21)
(50.459256 0.63300821 1.8490277e-18)
(50.462363 0.21392822 8.1306637e-19)
(39.222597 10.254805 2.6336659e-23)
(39.45019 10.318741 0)
(39.736363 10.404055 2.065342e-21)
(40.091452 10.480508 1.2131485e-19)
(40.533147 10.501444 -2.5892359e-19)
(41.015046 10.51141 -3.5844377e-20)
(41.526527 10.468383 -2.1547279e-19)
(42.076202 10.377098 5.6357848e-19)
(42.665212 10.228136 -2.7228283e-19)
(43.270782 10.069252 -6.5426248e-20)
(43.89805 9.8596943 -2.2828847e-23)
(44.581007 9.6120994 5.7437163e-20)
(45.312418 9.3445843 0)
(46.042457 9.036301 0)
(46.736211 8.6044424 0)
(47.401343 8.0644841 2.9194049e-19)
(47.999799 7.5085228 0)
(48.530776 6.8927292 -2.287061e-19)
(48.98725 6.2773402 0)
(49.361871 5.6587302 0)
(49.637473 5.0457171 0)
(49.860786 4.4609422 -2.4341011e-19)
(50.006483 3.8799803 -3.0683419e-20)
(50.130007 3.333262 -4.6012523e-19)
(50.23577 2.831802 2.3872865e-20)
(50.304632 2.3581045 0)
(50.350055 1.9108373 0)
(50.373429 1.4758859 5.2410045e-19)
(50.388586 1.0563334 9.3175524e-19)
(50.398808 0.63163953 -3.1544904e-21)
(50.40482 0.21312503 -2.8098164e-21)
(40.144163 8.0001804 0)
(40.304892 8.1015792 -1.0707572e-20)
(40.474749 8.2393422 1.090526e-20)
(40.662265 8.3820415 -1.0927779e-20)
(40.877081 8.5830065 -2.0912694e-20)
(41.173715 8.7146578 2.0218717e-20)
(41.532386 8.8490243 -3.8694265e-20)
(41.957069 8.9519 -3.6310157e-20)
(42.480859 8.856193 0)
(43.032047 8.7682749 -2.407689e-19)
(43.620012 8.6909777 4.9454364e-19)
(44.254965 8.5097772 -5.0890642e-20)
(44.933344 8.3802184 -9.167013e-20)
(45.647662 8.2385332 1.6435091e-19)
(46.338811 7.9360319 -2.9187784e-19)
(46.981991 7.5515317 8.2110885e-24)
(47.576941 7.067939 -1.1436583e-19)
(48.110303 6.5501803 4.0435141e-19)
(48.60185 6.0027271 0)
(49.029505 5.4581701 0)
(49.355112 4.9129946 6.9597666e-20)
(49.621996 4.3448626 -6.8656056e-24)
(49.798206 3.8134922 -2.7089971e-20)
(49.949001 3.2898635 -2.3934952e-20)
(50.0868 2.8030745 -3.3714382e-19)
(50.181236 2.3400773 0)
(50.247025 1.8959664 0)
(50.28493 1.4725314 -4.5527835e-19)
(50.312616 1.052478 -1.6317743e-18)
(50.331234 0.62910136 -7.2528741e-19)
(50.339097 0.21213862 0)
(40.91109 6.4414461 0)
(41.080265 6.5188871 1.2631534e-20)
(41.271786 6.6167008 -4.0967785e-19)
(41.484179 6.7219607 4.3471481e-23)
(41.703346 6.8447668 3.8098349e-19)
(41.938915 6.9717018 -2.0911896e-20)
(42.206091 7.0726932 3.8830188e-20)
(42.463366 7.1846745 3.5545225e-20)
(42.703364 7.5312103 0)
(43.102772 7.6303175 5.5550469e-20)
(43.563289 7.8083815 -5.0017664e-20)
(44.098024 7.5951204 1.7490102e-19)
(44.679585 7.482171 -3.1511465e-19)
(45.293336 7.3392583 1.4409579e-19)
(45.96627 7.1984261 0)
(46.613077 6.9674708 1.1428149e-19)
(47.203227 6.6248453 2.2952623e-23)
(47.73416 6.1806514 -1.7855337e-19)
(48.230061 5.7097762 2.3661475e-19)
(48.687625 5.2192737 6.9607527e-20)
(49.057198 4.7249818 -3.0717696e-19)
(49.367837 4.2337389 -2.1678815e-19)
(49.584403 3.7206662 0)
(49.76151 3.2223951 3.3724259e-19)
(49.928011 2.7648222 2.6024e-19)
(50.045691 2.3146313 3.2788736e-20)
(50.13359 1.8835131 0)
(50.187576 1.4615129 0)
(50.228347 1.0451291 -5.6610033e-21)
(50.255872 0.6258413 4.9599573e-21)
(50.264712 0.21045426 0)
(41.530589 5.5225603 -8.8697287e-19)
(41.635261 5.6000558 8.404662e-19)
(41.757385 5.6887158 7.847872e-19)
(41.902041 5.7807881 -7.2387187e-19)
(42.074711 5.8766527 -6.8138327e-19)
(42.283083 5.9770315 6.4494628e-19)
(42.541867 6.0791513 -6.046338e-19)
(42.866271 6.1664344 5.1427002e-19)
(43.198944 6.2518925 -4.5932425e-19)
(43.501589 6.3673507 -5.120318e-20)
(43.828734 6.314708 4.1437391e-19)
(44.151441 6.6849137 3.5417831e-19)
(44.629981 6.6533625 -4.1021869e-19)
(45.131432 6.5481585 0)
(45.66653 6.3744543 2.2445174e-19)
(46.244024 6.2615138 -4.027603e-19)
(46.849703 6.0799416 8.9292851e-20)
(47.397383 5.780918 0)
(47.898138 5.3989931 -2.0877793e-19)
(48.355798 4.9567448 1.2928584e-23)
(48.744474 4.5254118 4.3356555e-19)
(49.095208 4.0665367 2.3901689e-19)
(49.359492 3.6159125 4.2161388e-20)
(49.567578 3.1538078 -3.7186315e-19)
(49.760188 2.7075841 2.9513993e-19)
(49.899036 2.2794959 2.0243372e-19)
(50.008572 1.8565202 1.2751706e-20)
(50.080564 1.4467642 3.7110322e-19)
(50.134931 1.0361887 6.4465519e-19)
(50.171889 0.62029516 5.5116426e-19)
(50.18152 0.20923539 0)
(42.274081 4.6013662 -6.517669e-21)
(42.373389 4.6702097 -2.4000959e-20)
(42.48701 4.7496397 -7.2145437e-19)
(42.61544 4.8334902 1.3394302e-18)
(42.758522 4.9229831 -1.2310471e-18)
(42.915186 5.0180362 5.786183e-19)
(43.081584 5.1163908 0)
(43.255753 5.2168987 0)
(43.457721 5.3174581 -2.5638717e-20)
(43.717075 5.4086134 4.5808935e-20)
(44.062207 5.5022191 2.8560033e-19)
(44.435518 5.5322131 -6.1266294e-19)
(44.74699 5.698395 3.122317e-19)
(45.103899 5.900779 0)
(45.534433 5.6695015 0)
(46.014062 5.5400175 0)
(46.527488 5.4197773 -1.5753422e-19)
(47.075596 5.2849775 2.0873552e-19)
(47.593306 5.0451623 0)
(48.053043 4.685674 -1.0837086e-19)
(48.443512 4.2832275 9.5621638e-20)
(48.804559 3.8893276 -3.3730067e-19)
(49.114483 3.4685143 1.4873131e-19)
(49.363779 3.0585163 -9.8407905e-20)
(49.583347 2.6418465 -2.0239328e-19)
(49.740741 2.2322052 -2.0397912e-19)
(49.870204 1.8223221 3.3730905e-19)
(49.962804 1.4256879 -2.9745013e-19)
(50.031612 1.0206847 0)
(50.07838 0.61361405 -4.9366742e-19)
(50.089606 0.20704252 0)
(42.85727 3.8885295 7.6103718e-19)
(42.922611 3.9459009 2.8971625e-24)
(42.998202 4.0105477 1.0112496e-20)
(43.086473 4.0777987 0)
(43.190767 4.1492616 -1.7150032e-20)
(43.315391 4.225646 4.9914665e-19)
(43.466694 4.3072696 -4.5127825e-19)
(43.65045 4.3943707 0)
(43.862472 4.4858542 2.2730155e-20)
(44.089334 4.5774065 3.4496251e-19)
(44.315608 4.6621844 3.6089902e-20)
(44.585546 4.7281944 -5.1333304e-19)
(44.915924 4.7979969 5.6919486e-20)
(45.252736 4.6454957 2.0143927e-19)
(45.533843 5.0399115 0)
(45.919801 4.8794547 0)
(46.367109 4.7293553 -6.8567828e-20)
(46.838495 4.6920812 9.6576052e-24)
(47.310211 4.5837106 1.0831229e-19)
(47.771684 4.3428834 -2.0224833e-23)
(48.175858 4.0405476 -2.5289249e-19)
(48.528296 3.6698822 7.4344604e-20)
(48.848968 3.2973374 6.557494e-20)
(49.144138 2.9358579 2.8908665e-19)
(49.395713 2.5549749 -5.6912041e-24)
(49.571834 2.1708823 -2.2484117e-20)
(49.719011 1.7762117 -6.3439129e-19)
(49.83282 1.3917741 -1.7484015e-20)
(49.917961 1.0021893 0)
(49.974682 0.60355762 0)
(49.989139 0.20514972 0)
(43.502586 3.1961399 1.3583638e-18)
(43.56189 3.2458029 1.2511644e-18)
(43.629942 3.3018845 -1.1670838e-18)
(43.707626 3.3609057 1.0692114e-18)
(43.795791 3.4246742 -9.6342841e-19)
(43.895091 3.4942098 8.7511012e-19)
(44.004893 3.5689404 -8.023357e-19)
(44.124437 3.6472512 0)
(44.258315 3.7273249 0)
(44.418153 3.8079107 5.5642959e-19)
(44.613792 3.8856228 -4.7896161e-19)
(44.817839 3.975896 0)
(45.03773 4.0352329 -5.022842e-20)
(45.323019 4.1656827 0)
(45.668799 4.0330636 0)
(45.924309 4.3547243 -6.7776338e-20)
(46.285581 4.1787001 2.9562613e-19)
(46.701064 4.0463697 -4.2855848e-19)
(47.1136 4.034591 -9.5487923e-20)
(47.521201 3.8910854 2.5282736e-19)
(47.936957 3.719464 -2.5224896e-23)
(48.290931 3.4366868 -6.5558666e-20)
(48.597261 3.0906253 0)
(48.914236 2.7857018 0)
(49.19322 2.442261 0)
(49.395043 2.0905652 0)
(49.5586 1.7171926 3.1456551e-19)
(49.691259 1.3500328 -1.54142e-20)
(49.792997 0.97296761 -1.359374e-20)
(49.860553 0.59092963 -5.9950041e-21)
(49.880299 0.20164138 3.4372034e-19)
(44.036671 2.6329668 1.2112002e-18)
(44.075966 2.674411 -1.1124095e-18)
(44.121386 2.720465 8.0799757e-21)
(44.174188 2.768616 9.5976001e-19)
(44.236125 2.8206647 -8.6941591e-19)
(44.30941 2.877478 7.8802335e-19)
(44.39693 2.9391154 -1.4204069e-18)
(44.50222 3.0055637 -1.9871379e-20)
(44.626949 3.0767416 5.5165865e-19)
(44.768592 3.1515324 0)
(44.924293 3.2295398 -4.7924131e-19)
(45.102466 3.2991932 2.5051537e-20)
(45.291068 3.3822451 3.7672635e-19)
(45.48664 3.4172706 -3.1370401e-19)
(45.729183 3.5338406 2.4270054e-19)
(46.052229 3.3622731 1.1040869e-24)
(46.286461 3.7122919 2.1168161e-19)
(46.610561 3.5361079 -2.3143414e-19)
(46.967231 3.4288741 3.33034e-19)
(47.33489 3.3696915 -7.4129698e-20)
(47.712921 3.3222294 6.5528481e-20)
(48.07817 3.1383844 1.5796627e-23)
(48.38843 2.871715 1.019328e-19)
(48.701501 2.6066372 0)
(48.984888 2.2929516 -1.5850916e-19)
(49.211479 1.9853737 1.3977215e-19)
(49.39127 1.6392255 3.0810969e-20)
(49.540373 1.2937747 -2.7174011e-20)
(49.656315 0.93743964 1.1982404e-20)
(49.735715 0.5725119 3.2237628e-19)
(49.763205 0.19764719 -2.9364798e-19)
(44.599633 2.1016987 2.1759745e-18)
(44.634759 2.1368478 -1.9789595e-18)
(44.675076 2.1756991 -1.4352772e-20)
(44.72112 2.216562 -6.5991039e-21)
(44.773387 2.2611179 -6.0167747e-21)
(44.832223 2.3102104 1.4062215e-18)
(44.897876 2.3639225 -4.8785234e-23)
(44.970402 2.4218667 -1.1179158e-18)
(45.050679 2.4833042 2.961988e-24)
(45.14242 2.5476197 0)
(45.2514 2.6135542 -2.4882099e-20)
(45.382038 2.6845412 -4.4139225e-20)
(45.543214 2.7488121 -1.9547495e-20)
(45.723572 2.833489 2.7667556e-19)
(45.900695 2.8926908 -2.4459682e-19)
(46.105252 3.0338198 2.7008502e-20)
(46.379961 2.9155886 0)
(46.593254 3.172787 -4.1282477e-20)
(46.862427 3.0261236 -7.2108522e-20)
(47.187897 2.8479966 -6.4421685e-20)
(47.526043 2.8666296 0)
(47.857103 2.7421188 -1.0183137e-19)
(48.211911 2.6122332 0)
(48.526593 2.4070113 0)
(48.784331 2.1220517 1.3971372e-19)
(49.019946 1.8519418 -2.4640908e-19)
(49.216841 1.5423448 1.086502e-19)
(49.3808 1.221987 0)
(49.5093 0.88976156 -1.7957265e-19)
(49.600175 0.54867472 -2.8880807e-19)
(49.637658 0.19081074 0)
(45.074386 1.6899868 -1.9388959e-18)
(45.095808 1.7186152 3.4362898e-21)
(45.120612 1.7499707 1.2741407e-20)
(45.149466 1.7829424 1.4974033e-18)
(45.1833 1.8190155 -1.3586129e-18)
(45.22335 1.8589897 -2.0753264e-24)
(45.271165 1.9030649 0)
(45.328687 1.9513641 1.5410497e-24)
(45.39809 2.0041481 8.8819949e-19)
(45.480789 2.0616039 -7.784434e-19)
(45.576895 2.1237933 2.1954302e-20)
(45.685944 2.1881243 1.9468478e-20)
(45.808399 2.255906 0)
(45.952277 2.3143608 0)
(46.11131 2.3718172 4.8522823e-19)
(46.262641 2.3918346 2.3773877e-20)
(46.429562 2.4898871 -3.3639095e-19)
(46.664094 2.3565225 3.7104638e-19)
(46.849112 2.6570707 -2.2528719e-19)
(47.117114 2.4882966 -5.6057656e-20)
(47.401483 2.416288 0)
(47.683475 2.318962 -8.9560815e-20)
(48.033853 2.2834302 7.9217601e-20)
(48.360986 2.1722838 -8.2750967e-24)
(48.593252 1.9274211 -6.1589704e-20)
(48.824652 1.6819446 1.0860242e-19)
(49.033643 1.4199672 -9.5767595e-20)
(49.213497 1.1334689 -1.6892698e-19)
(49.354032 0.83094334 1.8608145e-20)
(49.454727 0.51716586 -2.4638927e-20)
(49.503004 0.18143358 7.2440952e-21)
(45.548009 1.2592842 -1.7164611e-18)
(45.568159 1.2817715 -6.0699408e-21)
(45.591338 1.3061772 1.4374293e-18)
(45.617863 1.3318455 0)
(45.647992 1.3600111 -1.2053119e-18)
(45.681903 1.3912676 -8.4967265e-21)
(45.719732 1.4257265 2.1648741e-23)
(45.761693 1.4633413 1.7635668e-18)
(45.808367 1.5039024 -2.1143889e-23)
(45.861253 1.5469253 -7.087236e-19)
(45.922789 1.5916091 0)
(45.995392 1.6379128 0)
(46.080577 1.6850187 0)
(46.181343 1.7351027 0)
(46.309443 1.7847288 -2.3772726e-20)
(46.458037 1.8544073 3.3592259e-19)
(46.597205 1.8952717 -2.5951586e-19)
(46.733799 2.0358464 -2.940562e-19)
(46.946016 1.8452819 2.0205106e-19)
(47.122586 2.1024289 8.8859927e-25)
(47.342949 2.041515 0)
(47.592249 1.9269898 1.5674363e-19)
(47.883999 1.9504069 -1.3967418e-19)
(48.164314 1.8566035 6.151085e-20)
(48.401267 1.6931214 0)
(48.635015 1.4971479 -1.4361959e-19)
(48.847009 1.2648751 4.2217279e-20)
(49.041525 1.0227052 1.8612901e-19)
(49.192381 0.75785983 9.8490352e-20)
(49.301148 0.47688492 0)
(49.359622 0.16821365 -2.0435627e-19)
(45.908234 0.99626933 0)
(45.917517 1.0140566 2.6932185e-21)
(45.928575 1.033256 0)
(45.942013 1.0534181 0)
(45.958127 1.0756357 -4.1570369e-21)
(45.97757 1.1003676 -1.9239877e-18)
(46.001353 1.1277904 1.729981e-18)
(46.030748 1.158118 6.0500284e-21)
(46.067084 1.1916712 1.079916e-20)
(46.111572 1.228833 -1.2204614e-18)
(46.165454 1.2699845 2.1849552e-18)
(46.230354 1.3152408 -9.6872319e-19)
(46.307438 1.3659778 0)
(46.397346 1.4204078 0)
(46.499523 1.4733401 0)
(46.618675 1.5099312 0)
(46.750305 1.5559547 -1.6344175e-20)
(46.884455 1.5577624 2.5929182e-19)
(47.017248 1.6532073 -2.5413177e-20)
(47.183841 1.6643622 -1.5579224e-19)
(47.33602 1.7531872 1.5601342e-19)
(47.549142 1.6513439 -2.7725341e-19)
(47.789832 1.615045 2.4626076e-19)
(47.995113 1.5024834 -1.0848565e-19)
(48.223153 1.4108072 1.4358926e-19)
(48.465497 1.2633443 8.4403029e-20)
(48.675612 1.0923094 0)
(48.869481 0.8920877 3.2818538e-20)
(49.028276 0.66997417 -2.2041141e-24)
(49.142549 0.42455329 -1.2765961e-19)
(49.208656 0.15092536 1.80143e-19)
(46.292276 0.66805552 -2.6984946e-18)
(46.302881 0.68103737 2.4351158e-18)
(46.314533 0.69505124 0)
(46.327182 0.71010286 0)
(46.341359 0.72681992 7.3373241e-21)
(46.357576 0.74561626 0)
(46.376326 0.76664189 0)
(46.398115 0.78993626 -1.3717006e-18)
(46.423493 0.81546385 1.2191975e-18)
(46.453045 0.84310685 -1.1794781e-24)
(46.487413 0.87263625 7.5271975e-21)
(46.527489 0.90349418 0)
(46.574501 0.93333635 0)
(46.62733 0.9618721 0)
(46.684688 0.99244481 0)
(46.752438 1.0283347 0)
(46.844304 1.0655504 -1.4410022e-20)
(46.96534 1.1125504 -1.2716501e-20)
(47.098768 1.1062536 -3.1353114e-19)
(47.207207 1.1884441 6.3325753e-19)
(47.372712 1.0503526 -3.1378108e-19)
(47.547226 1.2360908 -3.0780059e-20)
(47.732338 1.1806551 -1.0855475e-19)
(47.908289 1.1365411 9.5728333e-20)
(48.112366 1.0984159 -4.2199421e-20)
(48.326405 1.0085418 -7.4418517e-20)
(48.528622 0.89948564 5.721659e-24)
(48.708053 0.74129206 5.7875327e-20)
(48.86668 0.56720528 2.5522896e-20)
(48.982109 0.36515788 1.12544e-19)
(49.052052 0.12985468 7.9419296e-20)
(46.51709 0.51042415 -2.3832103e-18)
(46.52352 0.51963949 2.1473205e-18)
(46.531206 0.52944023 -1.9405662e-21)
(46.540266 0.53989822 1.82146e-18)
(46.550827 0.55156035 -1.6599591e-18)
(46.563055 0.56470754 -1.5002224e-18)
(46.57718 0.5794834 1.1301946e-23)
(46.593511 0.59603612 2.4105097e-18)
(46.612417 0.61454946 -1.0754332e-18)
(46.634269 0.63523576 -3.7390218e-21)
(46.659365 0.65834396 -7.5230619e-25)
(46.688071 0.68433864 5.8864817e-21)
(46.722439 0.71277486 0)
(46.764306 0.74461946 9.2201493e-21)
(46.818849 0.77738405 -5.2149042e-19)
(46.884748 0.80905619 4.5338957e-19)
(46.954334 0.83699853 0)
(47.031661 0.85814153 -3.6999355e-19)
(47.135126 0.87817155 2.9675257e-19)
(47.250062 0.86923343 1.7449466e-20)
(47.383055 0.91788663 1.5388858e-20)
(47.539641 0.89827787 2.6854774e-20)
(47.681502 0.81917201 0)
(47.854802 0.8443154 1.6832702e-19)
(48.037504 0.83851214 -1.8606075e-19)
(48.209316 0.76935709 -3.2811525e-20)
(48.39347 0.69770016 -5.7861931e-20)
(48.559403 0.59160009 0)
(48.707757 0.45391787 4.0528939e-24)
(48.822853 0.29499284 -7.9393539e-20)
(48.894094 0.10506955 6.2676525e-24)
(46.785695 0.33211696 -4.2145756e-18)
(46.791156 0.3390138 9.3712274e-22)