/*--------------------------------*- C++ -*----------------------------------*\
| =========                 |                                                 |
| \\      /  F ield         | OpenFOAM: The Open Source CFD Toolbox           |
|  \\    /   O peration     | Version:  2406                                  |
|   \\  /    A nd           | Website:  www.openfoam.com                      |
|    \\/     M anipulation  |                                                 |
\*---------------------------------------------------------------------------*/
FoamFile
{
    version     2.0;
    format      ascii;
    arch        "LSB;label=32;scalar=64";
    class       volScalarField;
    location    "0.08";
    object      k;
}
// * * * * * * * * * * * * * * * * * * * * * * * * * * * * * * * * * * * * * //

dimensions      [0 2 -2 0 0 0 0];

internalField   nonuniform List<scalar> 
2065
(
169.16893
182.74899
194.14682
203.12765
210.32205
90.716932
102.76858
115.94274
128.7012
140.88403
49.1362
55.135215
64.148515
75.340097
36.69785
41.509218
48.375625
34.494389
38.901964
44.778888
36.553339
40.950651
40.655656
45.339613
49.802367
53.109195
49.575788
45.519163
41.150173
45.087212
36.615206
40.626984
31.957181
36.038158
40.597576
27.793481
32.04348
37.148842
43.160955
26.403826
30.791415
37.377877
44.811667
52.64229
290.98905
381.20233
460.81488
510.98287
530.42415
527.97991
508.98264
479.27839
445.88072
290.9486
376.73336
452.81595
501.23506
520.37989
518.42415
499.78723
470.79799
437.84332
290.69079
371.97546
444.27751
490.8717
509.72276
508.18329
490.00562
461.68735
429.19073
289.9895
366.60219
435.07746
479.90366
498.4289
497.23713
479.58278
451.92186
419.90924
288.81275
360.83538
425.43492
468.39303
486.51503
485.59875
468.47919
287.25986
410.9211
371.23515
322.86642
261.23063
175.40002
57.501622
403.17927
363.78631
315.72004
254.4878
169.64253
55.625729
394.85561
355.77743
308.06107
247.34687
163.7362
53.607782
385.94985
347.23625
299.95435
239.91245
157.77278
51.478569
294.85655
254.71628
212.25482
164.19887
102.94792
23.118198
321.49587
279.61568
234.57295
182.6451
115.30028
27.464311
346.97069
303.46405
255.98861
200.48744
127.74516
31.781534
370.42479
325.48874
275.8379
217.10146
139.41013
35.987579
391.196
345.1874
293.8745
232.70476
151.44171
40.383009
408.90534
362.23283
309.6929
246.45903
161.4491
44.427529
423.12906
376.18949
322.84433
257.98545
169.89894
48.11808
433.6246
386.79931
333.09744
267.17512
176.87229
51.367833
440.46355
394.09445
340.4532
274.04189
182.45692
54.225622
443.87794
398.34816
345.12903
278.61208
186.34133
56.564288
444.03173
399.5059
347.22364
281.36739
189.18496
58.518449
442.57864
398.65247
346.89367
281.52811
189.97203
59.908994
440.31713
396.94275
345.59526
280.63893
189.52776
60.846578
437.22268
394.58514
343.68561
278.95217
188.2592
61.239755
433.66374
391.80467
341.43995
277.07006
186.85944
61.368755
430.14442
388.81449
338.94786
275.00738
185.32247
61.283532
426.95249
385.87665
336.387
272.86988
183.73375
61.029121
424.20059
383.2804
333.94635
270.76795
182.22693
60.68383
421.92223
381.02735
331.752
268.79606
180.78231
60.265335
419.98081
379.12461
329.88805
267.16015
179.64934
59.878403
418.37412
377.57914
328.3839
265.88488
178.65808
59.488403
417.03695
376.41231
327.4148
265.05298
178.18214
59.236194
416.0906
375.5822
326.50436
263.95802
177.03768
58.906216
418.27409
378.59032
330.07497
267.81586
180.60801
59.208115
819.94497
786.22418
734.90825
668.75369
594.37995
519.40897
449.77575
388.81313
337.65005
828.20201
798.10593
750.23698
687.61727
616.65218
544.52826
476.78928
416.63752
365.3465
832.76612
806.21867
762.23016
703.72226
636.65456
567.73215
502.15378
443.01455
391.71591
833.69976
810.99619
771.24617
717.07781
654.07238
588.45596
525.12983
467.10598
415.91009
831.43845
812.38667
776.87061
727.09242
668.19422
605.9108
544.89664
488.10013
437.17397
826.788
810.46402
778.68341
733.25209
678.36669
619.43171
560.80906
505.42105
455.0316
817.72202
805.42286
776.73741
735.06335
684.17526
628.54994
572.40418
518.62282
469.05489
805.26685
796.41582
771.83556
733.00143
685.3178
633.04699
579.4778
527.50087
479.02236
789.42923
783.8006
763.19614
728.19812
682.91925
632.95044
581.96362
532.11642
485.02742
772.26331
769.34555
751.60693
720.09068
677.97349
630.13395
580.81364
532.65459
487.18407
754.12442
753.09386
737.71441
708.73321
669.83859
624.92981
577.68151
530.83344
486.40077
732.30957
733.48495
720.86047
694.84802
658.89639
617.0365
572.5392
527.57765
484.24678
708.26952
711.97952
702.54581
679.77746
646.90306
607.67371
565.4498
522.74878
480.99081
684.73527
691.21268
684.75394
665.1076
635.04384
598.35999
558.22569
517.09393
476.76432
662.49098
671.8475
668.28653
651.79194
624.28669
589.77755
551.42425
511.68181
472.37438
640.31401
653.19179
652.87595
639.88457
614.89208
582.34977
545.47209
506.80355
468.27807
617.93797
634.90324
638.38131
628.91641
606.68301
576.01579
540.42759
502.62966
464.69487
594.49945
616.36425
624.31545
618.49261
599.50026
570.65436
536.23461
499.16262
461.67865
568.97868
596.77691
610.09423
608.13391
592.98878
566.03053
532.74867
496.33416
459.2264
538.87384
573.89749
593.98119
596.94431
586.13183
561.72992
529.66875
493.92715
457.14084
503.57282
548.2039
576.43323
585.28668
578.55856
557.54651
526.79432
491.72723
455.32522
455.25351
510.85167
551.08555
569.60894
568.27686
552.50666
523.60987
489.52892
453.67707
406.65105
477.33611
528.17489
554.92576
558.28655
546.63721
520.18158
487.09305
452.19771
296.91416
393.32212
474.87217
524.62211
542.38585
538.03529
518.13533
487.26681
453.41901
233.93608
578.55735
744.53826
819.02334
845.04105
842.71725
230.10924
561.46562
729.1644
808.82553
840.21333
844.11963
226.38872
543.94373
713.28981
798.0393
835.08541
843.79165
222.86665
525.87308
696.57316
785.50616
827.69225
841.32504
219.44779
508.14022
679.21161
771.33992
817.56664
835.0881
215.8359
488.96477
660.286
755.18054
804.97139
826.32262
212.34251
471.35288
641.20443
737.41221
789.80151
814.23737
208.17429
448.95958
619.19954
717.11286
771.8247
798.93743
203.9418
431.06648
598.17364
695.31539
751.16896
780.37108
198.10783
404.11456
571.33955
670.41251
728.81091
760.60506
192.0167
381.84783
548.19865
648.93218
708.56308
741.2464
186.34734
366.12879
527.80032
625.6733
684.88549
718.07919
179.97662
345.99159
503.49972
599.23533
658.13018
692.19361
172.14695
319.68902
475.26059
570.89095
630.75727
666.41691
162.1999
292.80161
448.37534
543.54449
604.44074
641.80594
151.40619
264.75749
418.52265
513.96955
576.75164
616.60363
141.00211
236.24967
386.82371
483.19492
547.99077
590.69815
127.08478
206.31464
351.73661
448.71837
516.60236
562.80188
111.03053
174.75831
314.04167
411.10162
481.95669
532.17123
92.61128
140.76717
269.47392
366.62035
440.92859
495.75867
75.114605
105.05808
210.87743
312.87293
391.21533
451.46542
49.702453
71.318059
140.29778
238.70983
326.73353
394.42078
18.482583
33.982077
74.40865
155.43871
238.64917
315.71293
3.1596594
14.729434
32.847487
77.188482
158.86981
226.17647
2.6783055
7.6277907
13.801632
29.600778
66.278095
142.50629
3.1845485
9.8524277
16.305903
20.196486
32.63445
74.136148
2.907464
8.8047174
14.633439
20.062541
26.474672
44.310699
3.2219317
10.356896
16.191898
20.822743
26.858741
32.607353
3.7493726
11.692014
18.463843
23.008987
26.957311
30.437304
4.6506011
14.838719
21.836231
26.320373
29.770283
32.827606
5.6863893
18.369333
26.0117
30.674332
34.102717
37.093239
6.8739647
22.22379
30.562518
35.464503
38.983985
41.978347
7.9191324
25.722515
34.91222
40.123164
43.736387
46.698324
8.789463
28.786609
38.741036
44.233419
47.907424
50.779153
9.3314572
31.016471
41.672092
47.406992
51.121666
53.899102
9.7683586
32.604453
43.540264
49.358395
53.071234
55.758162
10.098279
32.884972
44.09182
49.891398
53.601831
56.26011
9.6002927
32.153378
43.285172
49.14729
52.859874
55.524609
9.2812975
30.66365
41.302855
47.049
50.747342
53.480056
8.6957305
28.315139
38.293225
43.835106
47.535946
50.391376
7.898308
25.414146
34.630105
39.93823
43.617417
46.573471
6.7643805
21.778551
30.427651
35.601026
39.277052
42.287718
5.6704785
18.278491
26.19184
31.154403
34.778229
37.771761
4.6036616
14.074684
21.78376
26.669676
30.273258
33.171654
3.6595156
10.428563
17.557011
22.336213
25.913918
28.507511
2.6897439
7.6174795
14.021493
18.605816
22.269298
24.242936
1.9891721
6.3584227
11.749641
15.904707
21.86072
24.067789
1.5688225
4.4745785
8.1091705
12.299161
233.19092
548.81694
710.83843
786.46149
233.78762
558.3699
721.34424
797.11103
825.9991
827.06258
233.61291
565.74115
729.96871
805.87447
834.7717
835.95489
232.99552
572.25446
737.15461
812.85709
841.59887
842.7996
231.92951
577.5319
743.08538
818.45588
846.84805
848.3079
230.62132
581.84736
747.80182
822.82189
850.94384
852.48933
229.33601
585.55333
751.40245
826.14399
854.17508
855.76733
227.70589
588.86352
754.30514
829.13485
857.07989
858.54802
222.9527
588.74126
756.28412
832.09289
860.06694
861.04046
219.40024
590.04679
758.81646
834.66347
862.07328
862.62914
215.38263
590.55977
760.29861
835.71045
862.88051
863.12443
210.98512
590.13029
760.31628
835.61768
862.61468
862.59454
208.06916
589.13013
758.88303
833.94071
860.87967
860.80282
211.14292
588.36078
758.10163
832.44925
859.16557
858.87901
203.76733
588.1611
758.01939
832.67894
859.0344
858.04747
206.03637
587.47521
757.52271
832.31185
858.44359
856.87356
209.82675
587.74037
757.25302
831.72332
857.50392
855.33859
214.22876
587.50194
755.94219
830.57818
856.20822
853.61821
218.42465
587.75584
754.84094
829.11681
854.82511
851.87946
222.84231
588.89409
754.79615
828.10504
853.47408
850.34411
228.30684
590.70277
755.45595
827.87336
852.66097
849.06447
231.57023
591.03571
756.10588
828.30429
852.63708
847.96795
234.12976
590.20925
755.86544
827.79088
851.56292
845.61765
238.08988
594.33708
757.37954
826.88394
849.11889
841.52771
1.0478161
2.2692109
1.0858636
230.42744
232.11383
538.72177
817.72429
822.12363
824.69501
826.01516
827.09042
828.51779
830.2992
832.26932
834.26152
835.95166
837.45038
839.69895
841.72541
842.75811
842.89185
842.07799
840.42573
838.26751
835.54755
831.94896
827.15352
821.00537
812.84325
789.67719
791.7181
792.06634
791.60825
791.29689
791.82939
792.90992
794.42332
796.20624
797.94564
799.80069
802.25017
804.5748
806.33532
807.54845
808.11264
807.96086
807.42812
806.47761
804.72325
801.98238
798.16677
792.75815
749.7719
748.56067
746.13767
743.59346
741.98267
741.40257
741.57867
742.4668
743.8863
745.5931
747.72368
750.41091
753.16506
755.75597
758.14919
760.25472
761.99013
763.26784
764.41098
765.11203
765.0375
764.0615
761.76244
697.0407
692.50077
687.56589
683.45097
680.66114
678.94985
678.32865
678.68265
679.78961
681.49254
683.86883
686.83826
690.09166
693.51127
697.03566
700.58318
704.08724
707.4348
710.60594
713.78946
716.59733
718.76919
719.88566
632.32841
625.10204
618.46404
613.24605
609.39786
606.92636
605.77465
605.76518
606.68658
608.43611
611.02676
614.30425
618.07093
622.26317
626.81376
631.6514
636.71279
641.91051
647.14327
652.50423
657.93548
663.11436
667.65071
557.55297
548.7652
541.30644
535.39542
531.06044
528.26066
526.85981
526.68096
527.55485
529.41211
532.20318
535.77009
539.99635
544.83323
550.2193
556.09889
562.42243
569.13209
576.14594
583.3845
590.92544
598.63315
606.16738
475.80887
466.69945
459.11115
453.16575
448.85743
446.08149
444.69626
444.53546
445.49089
447.50517
450.47478
454.27903
458.85039
464.14279
470.10734
476.70364
483.89807
491.65833
499.94348
508.6879
517.83555
527.40606
537.23717
391.11767
382.50929
375.39
369.91042
366.0038
363.55201
362.41421
362.44979
363.58738
365.75806
368.85538
372.8014
377.55219
383.06853
389.31732
396.27383
403.92032
412.24368
421.23075
430.8568
441.08047
451.86003
463.17992
307.35372
299.75425
293.57573
288.93271
285.71912
283.81383
283.07334
283.40231
284.74414
287.01519
290.1421
294.08188
298.80365
304.28245
310.50162
317.45195
325.13049
333.53931
342.68317
352.56434
363.17687
374.50464
386.52669
228.26719
222.05872
217.1066
213.48448
211.07551
209.76792
209.44131
210.0357
211.48734
213.73507
216.74146
220.48202
224.94018
230.1077
235.98394
242.57457
249.89025
257.94543
266.75694
276.34168
286.71405
297.88518
309.86345
157.27318
152.53176
148.81316
146.16662
144.48831
143.69123
143.67597
144.39406
145.79821
147.85825
150.55604
153.88258
157.83741
162.42785
167.66782
173.57646
180.17674
187.49396
195.55447
204.38439
214.00873
224.45016
235.72854
96.60584
93.18596
90.550111
88.716661
87.612154
87.163785
87.292653
87.962447
89.147693
90.838763
93.035078
95.743549
98.977847
102.75762
107.10781
112.05795
117.64107
123.89216
130.84637
138.5378
147.00035
156.26904
166.37311
47.758892
45.456003
43.676795
42.440163
41.686121
41.368842
41.434175
41.871411
42.672015
43.838324
45.383985
47.327039
49.688382
52.492523
55.768755
59.551715
63.881299
68.801554
74.35804
80.593602
87.543582
95.230753
17.982258
16.83617
16.030877
15.504331
15.199672
15.082294
15.127551
15.335274
15.704971
16.237917
16.944062
17.841415
18.948619
20.288206
21.88874
23.78611
26.025467
28.663738
31.772385
35.439909
39.769653
44.850583
5.8452772
5.5407527
5.3411219
5.209677
5.1380534
5.1171732
5.1433607
5.2165251
5.337396
5.5082188
5.7327164
6.0173974
6.3700638
6.8000643
7.3189949
7.9411825
8.6848087
9.5735327
10.639404
11.930417
13.537687
15.625086
2.1846568
2.1569649
2.131555
2.1120085
2.1043297
2.1075847
2.1208531
2.1440922
2.1779943
2.2237575
2.2830657
2.3581895
2.4517252
2.566819
2.7073583
2.8781277
3.0851007
3.3361357
3.6420989
4.0181109
4.4897924
5.1039909
1.2087201
1.2333534
1.2424732
1.2456622
1.249439
1.2543012
1.259929
1.2664734
1.2744349
1.2844896
1.2973655
1.3138236
1.3345727
1.3605628
1.39283
1.4326307
1.4813512
1.5408181
1.6143248
1.7072852
1.8271914
1.9860879
0.92318073
0.95216573
0.9654315
0.97111284
0.97482977
0.97752838
0.97914078
0.97980796
0.97989278
0.97990013
0.98027891
0.98135752
0.9833164
0.9865806
0.9914955
0.99827021
1.0069173
1.0171552
1.0296036
1.0482543
1.0762006
1.114519
0.79372696
0.81465522
0.8225747
0.82418199
0.82403499
0.82300724
0.8210414
0.81816206
0.8146076
0.81088969
0.80742544
0.80435571
0.80177927
0.80030337
0.80034892
0.80229542
0.80628448
0.81153727
0.81773288
0.82361315
0.82873859
0.83548681
0.6529447
0.66618525
0.67032084
0.67028833
0.66937685
0.6680428
0.6662709
0.66418269
0.66200383
0.65997351
0.65825115
0.65718128
0.65724366
0.65781018
0.65826699
0.65830548
0.65828142
0.65966216
0.66217554
0.66559822
0.67019135
0.67661667
0.57624662
0.5852005
0.58756145
0.58695383
0.58568237
0.58402738
0.58213179
0.58011881
0.57811433
0.57621124
0.57447016
0.57289722
0.5715089
0.57060923
0.57055351
0.57149124
0.57324974
0.57531207
0.57748926
0.57981061
0.58260398
0.58645715
0.50589108
0.51111781
0.5122482
0.51161712
0.5106418
0.50954516
0.50836411
0.50714465
0.50596422
0.5048851
0.50394508
0.50316246
0.50254316
0.50208858
0.50180047
0.50169793
0.50177717
0.50205816
0.50254607
0.5032733
0.50437072
0.5060576
0.46661269
0.46972254
0.47031257
0.46982027
0.46909971
0.46835157
0.46759674
0.46686491
0.46619479
0.46561562
0.46514733
0.46480525
0.46460124
0.46454031
0.46461587
0.46480545
0.46508157
0.46541233
0.46578827
0.46624168
0.46687213
0.46778503
0.43547829
0.437293
0.43763619
0.43737437
0.43700044
0.43660933
0.43620502
0.43580028
0.43541611
0.43506862
0.43476643
0.43451258
0.43430706
0.43414939
0.43404075
0.43398365
0.43397542
0.43399973
0.43403962
0.43409298
0.43420825
0.43445365
0.41807185
0.41898417
0.41916321
0.41904966
0.41888318
0.41871218
0.4185463
0.41839627
0.4182735
0.41818596
0.41813704
0.41812625
0.41814954
0.41820142
0.41827685
0.41837456
0.41847885
0.41856724
0.41861692
0.41860694
0.4185642
0.41855616
0.4070515
0.40746471
0.40758111
0.40754665
0.40746502
0.40735897
0.4072387
0.40711243
0.40698525
0.40686614
0.40675837
0.4066608
0.40657023
0.40648267
0.40639577
0.40631711
0.40622911
0.40614497
0.40609616
0.40608537
0.40612487
0.4062176
0.40102299
0.40118915
0.40125002
0.40123847
0.4011968
0.40114621
0.40109612
0.40105141
0.40101098
0.40098235
0.40096424
0.40095218
0.40094348
0.40093468
0.40091986
0.40089283
0.4008555
0.40082097
0.40080469
0.40081763
0.4008613
0.40091439
0.39818789
0.39827315
0.3983001
0.39826212
0.39820879
0.39816679
0.398134
0.39810756
0.39809243
0.39808244
0.39807702
0.39807468
0.39807475
0.39807508
0.3980745
0.39807266
0.39807032
0.39807205
0.39808323
0.39810717
0.39814353
0.39818375
0.3971202
0.39718899
0.39719986
0.39714169
0.39709483
0.3970785
0.39707873
0.39708682
0.39709757
0.39711073
0.3971268
0.39714582
0.39716632
0.39718512
0.39720107
0.39721327
0.39722064
0.39722706
0.39723906
0.39726105
0.39729385
0.39732978
0.39714827
0.39714578
0.39715772
0.39717451
0.39717547
0.39712681
0.39709302
0.39709145
0.39709135
0.39709257
0.39709557
0.39709951
0.39710393
0.39710724
0.39710763
0.39710404
0.39709575
0.39708554
0.39708111
0.39708328
0.39709253
0.39710566
0.3977444
0.39774655
0.39774772
0.39774893
0.3977511
0.39775285
0.3977519
0.39774967
0.39774704
0.3977442
0.39774144
0.39773906
0.39773726
0.39773602
0.3977352
0.39773449
0.39773334
0.39773037
0.39772182
0.39770592
0.39769433
0.39768896
311.77752
361.84242
422.24088
492.04485
568.0583
644.4046
713.50062
768.45404
804.24291
283.79268
331.6344
389.61805
457.0091
530.93049
606.02933
675.44213
733.04143
773.69843
253.46558
298.51996
353.47778
417.77702
488.85181
561.84577
630.48755
689.06776
732.78597
220.92895
262.64706
313.88726
374.25517
441.47012
511.12119
577.45694
635.16814
680.04843
186.74139
224.59311
271.41436
326.96871
389.24901
454.2712
516.81009
572.01452
616.20467
151.74845
185.29488
227.06535
276.97433
333.29892
392.49575
449.89238
501.1217
542.9359
117.06365
146.01753
182.26212
225.85664
275.38729
327.7798
378.91816
424.91661
462.94818
83.94718
108.20669
138.68414
175.56119
217.74531
262.65887
306.75304
346.67203
380.00607
53.613055
73.289123
98.024087
128.0938
162.71998
199.85232
236.53489
269.89775
297.99719
27.183544
42.556816
61.92565
85.45331
112.70573
142.1033
171.33218
198.03428
220.66457
8.9445477
17.898044
31.345426
48.761265
69.243996
91.399744
113.57585
133.9607
151.34739
2.3148048
5.2351959
10.983021
20.585672
33.63522
48.977149
64.801804
79.53672
92.179892
0.61120248
1.3197382
3.1418529
6.4413779
11.918141
19.563805
28.277973
36.970451
44.8141
0.47710433
0.60096184
0.95757005
1.9360899
3.6754984
6.2152495
9.4118087
13.000386
16.511119
0.4727295
0.54285829
0.65262707
0.88721052
1.3336662
2.1020708
3.1258774
4.2333081
5.3136747
0.46435757
0.5322767
0.62709466
0.73324741
0.87276522
1.1271348
1.41046
1.7219218
2.0139319
0.45614511
0.50986947
0.58993991
0.69234729
0.7866926
0.8786089
0.98749375
1.0877749
1.1602167
0.44253296
0.49298039
0.55629105
0.62488048
0.70564589
0.787514
0.85031267
0.89081294
0.90725639
0.4282052
0.46534837
0.51900304
0.57896954
0.63252762
0.68238706
0.73392886
0.77341201
0.78455199
0.41478758
0.44595251
0.47979289
0.51759652
0.55720708
0.5949759
0.6261777
0.64564079
0.64881525
0.4024204
0.42573699
0.45532178
0.48476449
0.51043913
0.53349865
0.55462235
0.57004181
0.57320997
0.39584856
0.41456185
0.43287502
0.45121858
0.46877566
0.48437887
0.4970057
0.50496552
0.50504982
0.39016501
0.40444665
0.41905563
0.43228163
0.44340193
0.45272838
0.4606514
0.46587279
0.46614913
0.38732408
0.39794712
0.40721935
0.41530845
0.42189562
0.42710592
0.43169956
0.4349012
0.43517572
0.38605571
0.39401664
0.40051349
0.40592859
0.4099881
0.41272692
0.41521132
0.41726431
0.41778927
0.38564572
0.39208418
0.39657779
0.40004563
0.40279618
0.40488858
0.40626934
0.40702235
0.40704016
0.38741237
0.39156378
0.39480215
0.3969581
0.39849276
0.39958438
0.40037086
0.40086083
0.40097424
0.38950848
0.39264756
0.3947407
0.39616552
0.39701114
0.39755147
0.39789664
0.39809585
0.398156
0.39306025
0.39448079
0.3953479
0.3959364
0.39639277
0.39670931
0.39690482
0.39701117
0.39706667
0.39523878
0.39610947
0.39665619
0.39696935
0.3971202
0.39717652
0.39718573
0.39717367
0.3971597
0.39693908
0.39721104
0.39741281
0.39754925
0.3976337
0.39768325
0.39771176
0.39772804
0.39773728
270.51893
244.59794
216.81509
187.22143
156.35701
124.95958
93.999794
64.6099
37.78828
15.482827
4.1458013
0.83453664
0.412212
0.39742702
0.39756536
0.39558387
0.39387356
0.38780935
0.38441126
0.37762154
0.37412344
0.37221826
0.37165002
0.37172499
0.3745545
0.37604296
0.38122349
0.38451019
0.39055074
0.39377497
0.39654939
232.25983
208.40814
183.22428
156.49099
128.78412
100.7029
73.057996
46.896643
23.012554
6.8248873
1.3982681
0.3599006
0.31649682
0.31618282
0.31971117
0.32160158
0.32536608
0.32725346
0.33031438
0.33184696
0.33528179
0.33760379
0.34317216
0.34692057
0.35509509
0.35944151
0.36925957
0.37459852
0.38513247
0.39071842
0.39575378
192.3987
170.64427
148.52596
124.83559
100.45975
75.748006
51.303424
27.947556
9.4088969
2.1482711
0.32821277
0.22468113
0.22389717
0.22645175
0.23155549
0.2369157
0.24652539
0.25207916
0.2611712
0.26797112
0.27558187
0.28354069
0.29354325
0.30232395
0.31697973
0.32581918
0.34272524
0.35225554
0.37161205
0.38322626
0.3938084
147.97686
128.38949
110.35579
89.845824
69.113761
47.851146
26.179562
9.0240579
2.1417944
0.28649943
0.13095353
0.12722144
0.12781339
0.12911281
0.13101301
0.13422311
0.13749666
0.14553636
0.15217099
0.16374779
0.17035295
0.18463272
0.19433598
0.21179596
0.2312063
0.24926884
0.27400935
0.29352819
0.33003321
0.35867962
0.38716177
92.323385
75.497216
63.604146
45.951338
29.536038
13.765704
5.874753
1.3002723
0.24778659
0.15650129
0.14703046
0.14062139
0.13478677
0.12863716
0.12205525
0.11456841
0.10028007
0.090442356
0.080367862
0.07255633
0.067123017
0.064470103
0.064376626
0.068008681
0.0805455
0.093044686
0.11530507
0.14169267
0.19047223
0.25639312
0.34945755
18.518299
14.301957
10.535003
6.5849043
3.5629611
1.7090535
1.1672657
1.0652271
1.091313
1.1225755
1.1399159
1.1394992
1.1199302
1.0837937
1.0245559
0.86030283
0.71898647
0.62349134
0.50015538
0.3812984
0.28669599
0.19631733
0.1206577
0.070870562
0.047157489
0.034832786
0.024084164
0.018715424
0.021419232
0.043011673
0.13440382
)
;

boundaryField
{
    Side1
    {
        type            empty;
    }
    Inlet
    {
        type            inletOutlet;
        inletValue      uniform 0.39740317;
        value           uniform 0.39740317;
    }
    Side2
    {
        type            empty;
    }
    Outlet
    {
        type            zeroGradient;
    }
    Botwall
    {
        type            kqRWallFunction;
        value           nonuniform List<scalar> 
59
(
57.501622
55.625729
53.607782
51.478569
23.118198
27.464311
31.781534
35.987579
40.383009
44.427529
48.11808
51.367833
54.225622
56.564288
58.518449
59.908994
60.846578
61.239755
61.368755
61.283532
61.029121
60.68383
60.265335
59.878403
59.488403
59.236194
58.906216
59.208115
18.518299
14.301957
10.535003
6.5849043
3.5629611
1.7090535
1.1672657
1.0652271
1.091313
1.1225755
1.1399159
1.1394992
1.1199302
1.0837937
1.0245559
0.86030283
0.71898647
0.62349134
0.50015538
0.3812984
0.28669599
0.19631733
0.1206577
0.070870562
0.047157489
0.034832786
0.024084164
0.018715424
0.021419232
0.043011673
0.13440382
)
;
    }
    Cyli
    {
        type            kqRWallFunction;
        value           nonuniform List<scalar> 
76
(
233.93608
230.10924
226.38872
222.86665
219.44779
215.8359
212.34251
208.17429
203.9418
198.10783
192.0167
186.34734
179.97662
172.14695
162.1999
151.40619
141.00211
127.08478
111.03053
92.61128
75.114605
49.702453
18.482583
3.1596594
2.6783055
3.1845485
2.907464
3.2219317
3.7493726
4.6506011
5.6863893
6.8739647
7.9191324
8.789463
9.3314572
9.7683586
10.098279
9.6002927
9.2812975
8.6957305
7.898308
6.7643805
5.6704785
4.6036616
3.6595156
2.6897439
1.9891721
1.5688225
233.19092
233.78762
233.61291
232.99552
231.92951
230.62132
229.33601
227.70589
222.9527
219.40024
215.38263
210.98512
208.06916
211.14292
203.76733
206.03637
209.82675
214.22876
218.42465
222.84231
228.30684
231.57023
234.12976
238.08988
1.0478161
1.0858636
230.42744
232.11383
)
;
    }
    procBoundary0to1
    {
        type            processor;
        value           nonuniform List<scalar> 
44
(
215.92144
215.92144
151.73485
88.825384
88.825384
58.231116
58.231116
52.437115
46.250223
46.250223
45.012475
45.012475
49.403793
53.410023
53.584928
53.584928
56.407374
58.053088
58.481779
57.78424
55.922476
55.922476
56.012826
52.919401
49.227624
49.227624
49.225429
441.42197
409.92438
354.40011
415.10662
456.20197
473.88202
473.20898
441.42197
456.662
354.40011
285.28749
376.38835
338.09764
291.34405
232.13987
151.73387
49.255319
)
;
    }
    procBoundary0to2
    {
        type            processor;
        value           nonuniform List<scalar> 
55
(
37.319443
42.795953
48.886541
55.662155
63.123049
23.759872
30.933532
6.2332024
23.759872
14.826008
699.47039
814.84647
774.5659
814.84647
815.29548
6.2332024
5.0489947
5.0489947
7.550211
228.01261
527.23882
527.23882
699.47039
802.21041
784.90859
757.55892
719.36186
670.93221
612.99097
546.89834
474.76716
399.10547
322.5517
247.79095
177.25657
103.68938
103.68938
50.75129
18.297424
5.9237312
2.204183
1.16913
0.84990891
0.68496524
0.59131427
0.50809678
0.46875085
0.43470933
0.41856948
0.40630488
0.40096442
0.39821428
0.39734913
0.3971181
0.39768726
)
;
    }
    procBoundary0to3
    {
        type            processor;
        value           nonuniform List<scalar> 7(44.940898 44.940898 45.762937 45.762937 49.95191 49.95191 60.882687);
    }
}


// ************************************************************************* //
