/*--------------------------------*- C++ -*----------------------------------*\
| =========                 |                                                 |
| \\      /  F ield         | OpenFOAM: The Open Source CFD Toolbox           |
|  \\    /   O peration     | Version:  2406                                  |
|   \\  /    A nd           | Website:  www.openfoam.com                      |
|    \\/     M anipulation  |                                                 |
\*---------------------------------------------------------------------------*/
FoamFile
{
    version     2.0;
    format      ascii;
    arch        "LSB;label=32;scalar=64";
    class       volScalarField;
    location    "0.08";
    object      T;
}
// * * * * * * * * * * * * * * * * * * * * * * * * * * * * * * * * * * * * * //

dimensions      [0 0 0 1 0 0 0];

internalField   nonuniform List<scalar> 
2065
(
293.43861
293.39535
293.35468
293.32
293.28866
293.6237
293.57719
293.52566
293.47419
293.4273
293.63589
293.61602
293.58491
293.5479
293.56782
293.55694
293.54246
293.53073
293.52553
293.51824
293.51805
293.51459
293.51386
293.51399
293.51689
293.55267
293.55713
293.56193
293.5675
293.56744
293.5746
293.57417
293.5858
293.58441
293.58267
293.61058
293.60572
293.60068
293.59573
293.67958
293.66307
293.64675
293.63217
293.61901
293.23567
293.07928
292.93574
292.80826
292.70288
292.6223
292.56448
292.52437
292.49679
293.21194
293.05815
292.92377
292.80763
292.71263
292.63982
292.58726
292.5506
292.52528
293.18926
293.04409
292.91934
292.81307
292.7264
292.66013
292.61224
292.57879
292.55567
293.17008
293.03454
292.91752
292.81953
292.74052
292.68044
292.63709
292.60684
292.5859
293.15151
293.02554
292.91633
292.82624
292.7546
292.70054
292.66167
293.13432
292.47474
292.45372
292.43349
292.41182
292.38314
292.3271
292.50493
292.48538
292.46658
292.44636
292.41914
292.36605
292.53692
292.5187
292.501
292.48172
292.45548
292.40521
292.56878
292.55201
292.53555
292.51739
292.49248
292.44498
292.89337
292.89376
292.89446
292.89578
292.89968
292.91289
292.78726
292.78701
292.78701
292.78817
292.79411
292.81305
292.67357
292.67245
292.67142
292.6714
292.67596
292.69663
292.55411
292.55233
292.55089
292.55112
292.55743
292.57509
292.43141
292.4288
292.42625
292.42426
292.42394
292.42669
292.30659
292.30198
292.29699
292.29221
292.28982
292.30075
292.18434
292.17724
292.16931
292.16128
292.15637
292.17219
292.07061
292.06138
292.05111
292.04061
292.03331
292.04861
291.96998
291.95869
291.94619
291.93317
291.92274
291.93385
291.88744
291.87435
291.86008
291.84517
291.83199
291.83584
291.82655
291.81096
291.794
291.77591
291.75827
291.75382
291.79237
291.77456
291.75577
291.73634
291.71706
291.70369
291.78652
291.76525
291.74207
291.71719
291.69308
291.6616
291.80004
291.78104
291.76016
291.73656
291.70668
291.66837
291.82973
291.81089
291.79072
291.7683
291.74098
291.69678
291.87508
291.85397
291.83164
291.80678
291.77699
291.73054
291.93618
291.91387
291.89108
291.86614
291.83453
291.78334
292.0068
291.98357
291.96014
291.93497
291.90356
291.84793
292.08272
292.05868
292.0345
292.00839
291.97571
291.91832
292.16022
292.13591
292.1118
292.08607
292.05385
291.99426
292.23584
292.21135
292.18702
292.16067
292.12716
292.06797
292.3082
292.28424
292.26091
292.2362
292.20475
292.14411
292.37381
292.34997
292.32653
292.30118
292.26863
292.21017
292.43968
292.41718
292.39543
292.37218
292.34192
292.28236
292.78719
292.79424
292.80549
292.82086
292.83737
292.85288
292.86664
292.87853
292.88865
292.64739
292.66545
292.68736
292.7099
292.73064
292.74827
292.76262
292.7741
292.78324
292.51062
292.53824
292.56777
292.59567
292.61958
292.63848
292.65265
292.66307
292.67073
292.37269
292.40851
292.44451
292.47727
292.50402
292.52385
292.53749
292.54653
292.55249
292.23722
292.28018
292.32211
292.35871
292.38724
292.40722
292.41977
292.42703
292.4311
292.10984
292.15813
292.20417
292.2433
292.27255
292.29166
292.30233
292.30712
292.30852
291.99534
292.04674
292.0947
292.13456
292.16333
292.18075
292.1889
292.19071
292.18898
291.8982
291.95018
291.99782
292.03663
292.06368
292.07872
292.08395
292.08261
292.07779
291.8245
291.87316
291.91807
291.95419
291.97833
291.99025
291.99219
291.98756
291.97965
291.76503
291.81365
291.85818
291.89199
291.91256
291.92056
291.91859
291.91039
291.89943
291.77438
291.81299
291.84233
291.86361
291.87514
291.87621
291.86865
291.85598
291.8414
291.79419
291.82703
291.8534
291.86833
291.87011
291.86122
291.84632
291.82844
291.81006
291.84522
291.86372
291.87509
291.87793
291.87363
291.86351
291.84809
291.82848
291.80726
291.92279
291.92469
291.92163
291.91248
291.89849
291.88038
291.85933
291.83827
291.81861
292.04138
292.02347
292.00137
291.97631
291.9491
291.92128
291.89456
291.87022
291.84885
292.1859
292.14654
292.10414
292.06139
292.02071
291.98345
291.95031
291.92142
291.89675
292.34536
292.28369
292.2201
292.15923
292.10476
292.058
292.01877
291.98621
291.95939
292.51115
292.42759
292.34322
292.26458
292.19653
292.14039
292.09528
292.05947
292.03106
292.67235
292.56868
292.46572
292.37106
292.2907
292.2262
292.17598
292.13743
292.10777
292.81833
292.69838
292.58058
292.47289
292.38234
292.31095
292.25663
292.21603
292.18562
292.94386
292.81149
292.68291
292.56577
292.46764
292.39114
292.3339
292.29199
292.26131
293.0459
292.90663
292.77156
292.64827
292.54491
292.4649
292.40596
292.36358
292.33321
293.12928
292.98046
292.84162
292.71662
292.61154
292.53011
292.47053
292.42822
292.3984
293.23877
293.08848
292.93636
292.79807
292.68397
292.59731
292.53532
292.49246
292.46322
292.17015
292.35723
292.4935
292.597
292.68155
292.7534
291.98872
292.18621
292.32971
292.43931
292.52901
292.6056
291.81248
292.01585
292.16616
292.28176
292.37715
292.45963
291.6439
291.85313
292.00826
292.12833
292.22803
292.3148
291.489
291.70316
291.86111
291.98371
292.08578
292.17463
291.35394
291.5712
291.73106
291.85381
291.95587
292.04451
291.24847
291.46436
291.6226
291.74355
291.84346
291.92958
291.17306
291.39283
291.54421
291.65928
291.75391
291.83462
291.14057
291.34615
291.49858
291.60879
291.69539
291.76725
291.17488
291.377
291.50014
291.58607
291.65333
291.71283
291.23707
291.39261
291.48299
291.57794
291.65971
291.72481
291.2537
291.41453
291.5551
291.63966
291.70531
291.75599
291.34616
291.55338
291.67726
291.74307
291.78767
291.82106
291.52881
291.73352
291.82181
291.8687
291.89749
291.9152
291.88667
291.98343
292.0242
292.04247
292.05041
292.05135
292.21753
292.24406
292.25544
292.24803
292.23387
292.21579
292.54436
292.51528
292.5021
292.47132
292.43455
292.39605
292.87749
292.83991
292.782
292.71201
292.64535
292.58294
293.18371
293.12888
293.04638
292.94742
292.85229
292.76517
293.51215
293.4598
293.31037
293.16875
293.0416
292.92955
293.6477
293.66105
293.52417
293.3584
293.20557
293.07046
293.90011
293.80716
293.64375
293.48919
293.3279
293.18081
293.69611
293.82798
293.73049
293.56989
293.43183
293.2776
293.47684
293.66885
293.78356
293.68639
293.4973
293.36023
293.53031
293.56698
293.66232
293.74658
293.69005
293.50625
293.49204
293.53039
293.56445
293.62802
293.68718
293.66466
293.5125
293.52233
293.53656
293.55911
293.60309
293.64074
293.51012
293.5162
293.52414
293.53431
293.54951
293.57082
293.51045
293.51377
293.51756
293.52169
293.52631
293.53103
293.50911
293.51228
293.51456
293.51643
293.51797
293.51898
293.50876
293.5119
293.51364
293.51471
293.51523
293.51501
293.5101
293.51326
293.51486
293.51562
293.51571
293.51514
293.51334
293.5163
293.51783
293.51849
293.51851
293.5179
293.51819
293.52087
293.52222
293.5228
293.5228
293.5223
293.52471
293.52652
293.52751
293.528
293.52803
293.52766
293.53107
293.53242
293.53313
293.53351
293.53358
293.53336
293.53624
293.53771
293.53819
293.53857
293.53879
293.53882
293.53914
293.54013
293.54148
293.54249
293.54317
293.54359
293.5394
293.54256
293.54466
293.54601
293.54707
293.54785
293.5402
293.54479
293.54753
293.54941
293.55084
293.55197
293.54207
293.54771
293.55092
293.55311
293.55483
293.55626
293.54565
293.55148
293.55481
293.55719
293.55916
293.56091
293.55002
293.55627
293.55963
293.56215
293.56435
293.56641
293.55607
293.56139
293.5649
293.56778
293.57052
293.57327
293.56248
293.56701
293.57095
293.57489
293.57923
293.58404
293.56775
293.57255
293.57859
293.58626
293.59632
293.60904
293.57095
293.57915
293.59085
293.60936
293.641
293.68508
293.57421
293.5841
293.60287
293.64927
291.67803
291.90289
292.06597
292.19202
291.83314
292.03881
292.18875
292.30423
292.4004
292.48327
292.00049
292.1856
292.32131
292.42594
292.51297
292.58809
292.17171
292.33693
292.4587
292.55262
292.63073
292.69817
292.34366
292.48994
292.59783
292.68102
292.75021
292.81004
292.51279
292.64236
292.73634
292.80858
292.86856
292.92057
292.67609
292.79215
292.87183
292.93261
292.9831
293.0271
292.82669
292.93163
292.99811
293.0481
293.09012
293.12699
292.97826
293.05609
293.10919
293.15055
293.18574
293.21749
293.10719
293.16613
293.2082
293.24206
293.2717
293.29841
293.21666
293.26133
293.29396
293.32146
293.34576
293.36793
293.30757
293.33791
293.36331
293.38562
293.4057
293.42432
293.37315
293.39602
293.41574
293.43349
293.45013
293.46611
293.40915
293.43442
293.44913
293.46334
293.47776
293.4923
293.41928
293.4371
293.45359
293.46957
293.4852
293.50064
293.38337
293.41033
293.43286
293.45331
293.47238
293.49059
293.32551
293.36388
293.39329
293.41882
293.44207
293.46389
293.24345
293.2973
293.33515
293.36649
293.39488
293.42129
293.13791
293.20882
293.25771
293.29696
293.3315
293.36347
293.01306
293.10257
293.16395
293.21251
293.2545
293.29248
292.86175
292.97987
293.05574
293.11412
293.16421
293.20886
292.70463
292.83966
292.9299
292.99967
293.05933
293.11261
292.53154
292.68012
292.78796
292.87194
292.94331
293.00642
292.34804
292.52347
292.64842
292.74508
292.8267
292.89746
293.57712
293.58954
293.57195
291.4111
291.5371
291.7774
292.97126
293.07272
293.17043
293.2578
293.33395
293.39802
293.44927
293.48633
293.50871
293.51559
293.50609
293.48121
293.44227
293.39004
293.32581
293.25089
293.16682
293.07454
292.97571
292.87271
292.76784
292.66391
292.56335
293.05218
293.15121
293.23891
293.31577
293.38222
293.43717
293.48005
293.51011
293.52709
293.53028
293.51962
293.49604
293.4603
293.413
293.35514
293.28774
293.21178
293.12823
293.03842
292.9442
292.84722
292.74977
292.65317
293.13704
293.22708
293.3038
293.37058
293.42752
293.4739
293.50904
293.5328
293.54498
293.54512
293.53362
293.5112
293.47829
293.4354
293.38326
293.32263
293.25421
293.17897
293.09774
293.01197
292.92288
292.8323
292.74144
293.22086
293.29916
293.36517
293.4222
293.47006
293.50814
293.53622
293.55429
293.56214
293.55975
293.54764
293.52626
293.4959
293.45699
293.41008
293.35571
293.29441
293.22682
293.15398
293.07635
292.99518
292.91175
292.82705
293.30049
293.36665
293.42251
293.47019
293.50933
293.53969
293.5613
293.57419
293.57826
293.57378
293.56119
293.54076
293.51273
293.47743
293.43527
293.38666
293.332
293.27176
293.20646
293.13678
293.0635
292.98755
292.90945
293.37425
293.42903
293.47511
293.51377
293.54474
293.56803
293.58379
293.59202
293.59289
293.5867
293.57376
293.55423
293.52831
293.49628
293.45842
293.41502
293.3664
293.31289
293.25483
293.1927
293.12706
293.05867
292.98771
293.44067
293.48507
293.52208
293.5522
293.57562
293.59254
293.60303
293.60727
293.60548
293.59792
293.58475
293.56609
293.54211
293.51304
293.47906
293.4404
293.39728
293.34995
293.29864
293.24364
293.18532
293.12423
293.0606
293.49892
293.53362
293.56189
293.58425
293.60103
293.61234
293.61837
293.61931
293.61537
293.60673
293.59347
293.57567
293.5535
293.52711
293.49665
293.46228
293.42415
293.38244
293.33733
293.289
293.23767
293.18365
293.12712
293.5478
293.57324
293.59361
293.60924
293.62029
293.62684
293.62908
293.62737
293.62177
293.61233
293.5991
293.58218
293.56171
293.53779
293.51051
293.48001
293.4464
293.4098
293.37034
293.32813
293.28334
293.23614
293.18655
293.58569
293.60322
293.61675
293.62649
293.63258
293.63496
293.63426
293.63055
293.62367
293.61365
293.6006
293.58461
293.56575
293.54411
293.51975
293.49277
293.46326
293.43129
293.39696
293.36036
293.32159
293.28078
293.23792
293.61109
293.62172
293.62936
293.63409
293.6362
293.63597
293.63313
293.62755
293.61953
293.60913
293.5964
293.58139
293.56412
293.54464
293.52302
293.49929
293.47353
293.44579
293.41614
293.38465
293.35141
293.31649
293.27992
293.62142
293.62644
293.62954
293.63087
293.62991
293.62684
293.62176
293.61487
293.60621
293.59579
293.58362
293.56973
293.55413
293.53684
293.51789
293.4973
293.4751
293.45134
293.42606
293.39933
293.3712
293.34172
293.31079
293.61491
293.61521
293.6138
293.61128
293.60747
293.60238
293.59603
293.58847
293.57971
293.56974
293.55856
293.54617
293.53255
293.51769
293.50157
293.48418
293.46554
293.44564
293.42454
293.4023
293.379
293.35471
293.58476
293.58072
293.57616
293.57109
293.56546
293.55931
293.55264
293.54545
293.53769
293.52931
293.52022
293.51035
293.49964
293.48801
293.47542
293.46178
293.44706
293.43122
293.41429
293.3963
293.37738
293.35759
293.52572
293.52086
293.51576
293.51052
293.50521
293.49984
293.49437
293.48876
293.48294
293.47686
293.47046
293.46369
293.45649
293.44878
293.44049
293.43156
293.42188
293.41136
293.39985
293.38722
293.3734
293.35839
293.46604
293.46183
293.45775
293.45368
293.44954
293.44526
293.44079
293.43609
293.43114
293.42592
293.42045
293.41473
293.40876
293.40257
293.39618
293.38961
293.38289
293.37602
293.36904
293.36191
293.35461
293.34704
293.42652
293.42204
293.41756
293.413
293.40835
293.40366
293.39896
293.39426
293.38957
293.38487
293.38014
293.37535
293.37045
293.36539
293.36011
293.35454
293.34863
293.34235
293.33568
293.32868
293.3215
293.31433
293.38171
293.3767
293.37183
293.36707
293.36241
293.35785
293.35335
293.34891
293.34448
293.34009
293.33572
293.33142
293.3272
293.32309
293.31913
293.31536
293.31182
293.30848
293.30531
293.30219
293.29902
293.2957
293.33994
293.3353
293.33078
293.32632
293.32189
293.3175
293.31316
293.30885
293.30458
293.30036
293.29618
293.29202
293.28786
293.28368
293.27948
293.27525
293.271
293.26678
293.26266
293.25871
293.25499
293.25146
293.2934
293.28888
293.28453
293.28033
293.27628
293.27239
293.26865
293.26505
293.26159
293.25825
293.25502
293.25193
293.24897
293.24618
293.24356
293.24112
293.23881
293.23663
293.23452
293.23246
293.23044
293.22846
293.24983
293.24612
293.24255
293.23907
293.23567
293.23234
293.22906
293.22583
293.22264
293.21951
293.21644
293.21342
293.21045
293.20754
293.20467
293.20187
293.19915
293.19654
293.19408
293.19178
293.18963
293.18762
293.20578
293.20258
293.19951
293.19657
293.19376
293.19107
293.18852
293.18609
293.18381
293.18165
293.17962
293.17772
293.17596
293.17432
293.17281
293.17142
293.17014
293.16895
293.16784
293.16681
293.16585
293.16498
293.16534
293.16294
293.16064
293.15842
293.15628
293.1542
293.15218
293.1502
293.14826
293.14636
293.14449
293.14267
293.14087
293.13913
293.13742
293.13578
293.13421
293.13271
293.13131
293.12999
293.12878
293.12767
293.12812
293.12623
293.12445
293.12278
293.1212
293.11972
293.11833
293.11705
293.11586
293.11477
293.11377
293.11288
293.11208
293.11136
293.11074
293.1102
293.10974
293.10935
293.10903
293.10876
293.10853
293.10832
293.09494
293.0937
293.09253
293.09142
293.09034
293.08931
293.08829
293.08729
293.08631
293.08532
293.08434
293.08336
293.08238
293.0814
293.08042
293.07946
293.07853
293.07766
293.07688
293.07621
293.07567
293.07526
293.06481
293.0639
293.06307
293.0623
293.06159
293.06095
293.06037
293.05985
293.0594
293.05902
293.0587
293.05845
293.05824
293.05806
293.05791
293.05779
293.05768
293.05756
293.05745
293.05734
293.05724
293.05717
293.04017
293.0397
293.03922
293.03874
293.03827
293.03779
293.03732
293.03685
293.03637
293.03587
293.03535
293.0348
293.03425
293.03374
293.03327
293.03285
293.03249
293.03219
293.03193
293.03171
293.03152
293.03133
293.02809
293.02782
293.02756
293.02733
293.02712
293.02693
293.02675
293.02658
293.02643
293.0263
293.02621
293.02615
293.02613
293.02611
293.02608
293.02603
293.02595
293.02584
293.02568
293.02551
293.02531
293.0251
293.02655
293.0266
293.02662
293.02656
293.02665
293.02673
293.02682
293.0269
293.02698
293.02705
293.02711
293.02714
293.02715
293.02713
293.02708
293.02699
293.02685
293.02667
293.02644
293.02617
293.02588
293.02557
293.03366
293.03349
293.03332
293.03314
293.03292
293.03255
293.03231
293.03204
293.03173
293.0314
293.03104
293.03066
293.03026
293.02985
293.0294
293.02893
293.02842
293.02786
293.02726
293.02664
293.0261
293.0256
293.02373
293.02339
293.02308
293.02279
293.02251
293.02224
293.02197
293.02172
293.02147
293.02123
293.02099
293.02076
293.02054
293.02033
293.02014
293.01998
293.01986
293.01973
293.01955
293.01937
293.01917
293.01902
292.97467
292.96451
292.95365
292.94241
292.93142
292.92177
292.91593
292.91792
292.92639
293.03782
293.0293
293.02052
293.01224
293.00529
293.00052
292.9992
293.00342
293.01325
293.10333
293.09635
293.08969
293.08433
293.08114
293.08073
293.08346
293.09
293.10004
293.16987
293.16451
293.15992
293.15722
293.15729
293.16048
293.1666
293.17536
293.18584
293.23646
293.23266
293.23001
293.22966
293.23244
293.23847
293.24713
293.25744
293.2682
293.30169
293.29943
293.29856
293.30023
293.30516
293.31327
293.32358
293.33472
293.34532
293.3637
293.363
293.36381
293.36718
293.37368
293.38299
293.39395
293.40506
293.41516
293.42016
293.42116
293.42365
293.42846
293.43593
293.44552
293.45605
293.46658
293.47662
293.46939
293.47226
293.47624
293.48208
293.49006
293.49992
293.51095
293.52154
293.53033
293.50691
293.51336
293.51972
293.52717
293.53642
293.54685
293.55685
293.5655
293.57264
293.52369
293.53785
293.54876
293.55898
293.56912
293.57892
293.58803
293.59589
293.60211
293.50033
293.53219
293.55501
293.57007
293.58201
293.59269
293.60202
293.60968
293.61559
293.46919
293.48798
293.52206
293.55297
293.57395
293.5882
293.59858
293.60617
293.61152
293.47056
293.4683
293.47525
293.49705
293.52582
293.54948
293.56577
293.57643
293.58344
293.45844
293.46601
293.46482
293.46387
293.47104
293.4859
293.50185
293.51469
293.52373
293.44024
293.4396
293.44355
293.44931
293.45266
293.45446
293.45743
293.46162
293.46581
293.41227
293.41507
293.41577
293.41603
293.41811
293.42154
293.42455
293.42664
293.42809
293.37982
293.37951
293.38068
293.38252
293.38351
293.38375
293.38389
293.38406
293.38419
293.33785
293.33941
293.33999
293.3402
293.34079
293.34163
293.34223
293.34245
293.34241
293.29821
293.29761
293.29761
293.29787
293.29785
293.29753
293.29709
293.29657
293.29603
293.24969
293.25107
293.25188
293.25229
293.25259
293.25274
293.25267
293.25239
293.25201
293.21079
293.2102
293.20986
293.20967
293.20944
293.20913
293.20873
293.20826
293.20777
293.16546
293.16629
293.16688
293.16725
293.16746
293.16749
293.16737
293.16713
293.16683
293.13278
293.13213
293.13156
293.13112
293.13076
293.13042
293.13008
293.12972
293.12937
293.09233
293.09342
293.09439
293.09511
293.09558
293.09582
293.09589
293.09583
293.09573
293.06753
293.06721
293.06689
293.06656
293.06626
293.06601
293.06581
293.06563
293.06547
293.03847
293.0388
293.03919
293.03963
293.04005
293.04033
293.04047
293.04051
293.04049
293.03003
293.02984
293.0296
293.02933
293.02907
293.02884
293.02865
293.02847
293.02832
293.02608
293.02612
293.02617
293.02623
293.02629
293.02635
293.02641
293.02646
293.02651
293.03404
293.03409
293.03412
293.03414
293.03413
293.03408
293.034
293.0339
293.03379
293.02567
293.02558
293.02546
293.0253
293.02509
293.02485
293.02459
293.02433
293.02411
292.97994
293.0421
293.10684
293.17243
293.23808
293.3023
293.36326
293.41842
293.46568
293.49805
293.50106
293.47076
293.46546
293.4676
293.45502
293.44081
293.40949
293.38068
293.33602
293.29931
293.24802
293.21164
293.1645
293.13345
293.09125
293.0678
293.03818
293.03017
293.02605
293.03399
293.02571
292.98172
293.04317
293.10753
293.17257
293.23773
293.30118
293.36141
293.41545
293.45969
293.48139
293.46638
293.45646
293.4652
293.46787
293.4534
293.43968
293.40829
293.38087
293.33475
293.30053
293.24646
293.21269
293.16363
293.13401
293.09043
293.068
293.03802
293.03027
293.02598
293.03394
293.02579
292.98441
293.04472
293.10875
293.17311
293.2379
293.30011
293.35939
293.41116
293.44671
293.44589
293.43994
293.45668
293.46207
293.46317
293.45182
293.43736
293.40689
293.37978
293.33377
293.30077
293.24544
293.21283
293.1631
293.13376
293.09012
293.06793
293.038
293.0302
293.02584
293.03392
293.02587
292.98832
293.04623
293.10987
293.17297
293.23787
293.29756
293.35458
293.3958
293.40566
293.41171
293.43404
293.44653
293.45341
293.4557
293.44473
293.43191
293.40218
293.37559
293.33184
293.29751
293.24588
293.20922
293.16412
293.13066
293.0912
293.06673
293.03833
293.02956
293.02546
293.03393
293.02598
292.99433
293.04632
293.10865
293.16713
293.23344
293.28493
293.31878
293.32789
293.35082
293.37651
293.3989
293.41602
293.42431
293.42922
293.42286
293.4074
293.39217
293.3528
293.32951
293.27678
293.24905
293.19315
293.16564
293.11867
293.09456
293.06128
293.03985
293.02733
293.02447
293.03368
293.02604
293.0063
293.04017
293.09463
293.12086
293.15645
293.1611
293.21707
293.24041
293.27839
293.30453
293.32812
293.34557
293.35398
293.36337
293.35985
293.35131
293.33512
293.31072
293.28079
293.24373
293.20864
293.16984
293.13777
293.10831
293.08179
293.0569
293.03087
293.0239
293.02209
293.03064
293.02505
)
;

boundaryField
{
    Side1
    {
        type            empty;
    }
    Inlet
    {
        type            totalTemperature;
        gamma           1.4;
        T0              uniform 294.31799;
        value           uniform 293.00245;
    }
    Side2
    {
        type            empty;
    }
    Outlet
    {
        type            zeroGradient;
    }
    Botwall
    {
        type            zeroGradient;
    }
    Cyli
    {
        type            zeroGradient;
    }
    procBoundary0to1
    {
        type            processor;
        value           nonuniform List<scalar> 
44
(
293.25995
293.25995
293.38667
293.50898
293.50898
293.52507
293.52507
293.50895
293.50977
293.50977
293.51132
293.51132
293.51201
293.51532
293.5215
293.5215
293.52704
293.53291
293.5386
293.54367
293.54825
293.54825
293.55272
293.55727
293.56204
293.56204
293.56709
292.63454
292.61575
293.01817
292.91652
292.83356
292.76904
292.72077
292.63454
292.68617
293.01817
293.11931
292.60026
292.58498
292.56986
292.55305
292.5298
292.48504
)
;
    }
    procBoundary0to2
    {
        type            processor;
        value           nonuniform List<scalar> 
55
(
293.79043
293.76641
293.73694
293.70795
293.68093
293.73576
293.80078
293.6551
293.73576
293.77781
291.94877
292.29771
292.07947
292.29771
292.38822
293.6551
293.68983
293.68983
293.76479
291.31376
291.66356
291.66356
291.94877
292.47121
292.55679
292.64742
292.73815
292.82674
292.91197
292.99253
293.06684
293.13367
293.19221
293.24118
293.27814
293.32929
293.32929
293.33668
293.34208
293.33897
293.30722
293.29224
293.24808
293.22655
293.18574
293.1642
293.12668
293.10812
293.07499
293.05713
293.03116
293.02489
293.02524
293.02511
293.01888
)
;
    }
    procBoundary0to3
    {
        type            processor;
        value           nonuniform List<scalar> 7(293.57342 293.57342 293.58061 293.58061 293.59065 293.59065 293.60662);
    }
}


// ************************************************************************* //
