/*--------------------------------*- C++ -*----------------------------------*\
| =========                 |                                                 |
| \\      /  F ield         | OpenFOAM: The Open Source CFD Toolbox           |
|  \\    /   O peration     | Version:  2406                                  |
|   \\  /    A nd           | Website:  www.openfoam.com                      |
|    \\/     M anipulation  |                                                 |
\*---------------------------------------------------------------------------*/
FoamFile
{
    version     2.0;
    format      ascii;
    arch        "LSB;label=32;scalar=64";
    class       volScalarField;
    location    "0.033";
    object      p;
}
// * * * * * * * * * * * * * * * * * * * * * * * * * * * * * * * * * * * * * //

dimensions      [1 -1 -2 0 0 0 0];

internalField   nonuniform List<scalar> 
92813
(
101069.35
101010.78
100985.2
100956.48
100927.94
100903.65
100883.42
100866.9
100853.87
100843.99
100836.82
100831.81
100828.36
100826.12
100824.81
100824.7
100826.11
100829.4
100834.56
100841.57
100850.03
100859.71
100870.34
100881.84
100894.05
100906.87
100920.2
100933.97
100948.12
100962.56
100977.24
100992.1
101007.07
101022.09
101037.09
101051.97
101066.82
101081.01
101094.6
101107.68
101121.51
101135.56
101147.74
101159.09
101169.72
101179.49
101188.35
101196.28
101203.33
101209.66
101215.46
101220.8
101225.75
101230.44
101234.93
101239.25
101243.43
101247.49
101251.41
101255.23
101258.94
101262.56
101266.08
101269.52
101272.88
101276.15
101279.34
101282.45
101285.46
101288.39
101291.23
101293.98
101296.65
101299.23
101301.73
101304.16
101306.53
101308.85
101311.11
101313.33
101315.49
101317.6
101319.65
101321.63
101323.56
101325.42
101327.22
101328.97
101330.66
101332.31
101333.92
101335.48
101337
101338.47
101339.91
101341.29
101342.63
101343.92
101345.17
101346.39
101347.56
101348.7
101349.79
101350.85
101351.87
101352.85
101353.79
101354.7
101355.56
101356.38
101357.16
101357.88
101358.56
101359.18
101359.76
101360.31
101360.81
101361.29
101361.73
101362.14
101362.52
101362.84
101363.13
101363.35
101363.57
101363.67
101363.81
101202.29
101163.08
101127.43
101088.59
101053.46
101024.01
100999.45
100979.05
100962.32
100948.82
100938.05
100929.5
100922.58
100916.77
100911.87
100908.01
100905.38
100904.2
100904.88
100907.44
100911.69
100917.49
100924.76
100933.23
100942.62
100952.76
100963.53
100974.81
100986.53
100998.61
101010.97
101023.56
101036.3
101049.14
101062.01
101074.82
101087.6
101100.08
101112.03
101122.83
101135.27
101148.05
101158.87
101169.09
101178.76
101187.74
101195.97
101203.43
101210.17
101216.31
101221.96
101227.14
101231.91
101236.39
101240.65
101244.74
101248.69
101252.51
101256.22
101259.82
101263.33
101266.76
101270.1
101273.36
101276.55
101279.66
101282.7
101285.67
101288.55
101291.35
101294.06
101296.69
101299.24
101301.72
101304.11
101306.45
101308.73
101310.95
101313.13
101315.26
101317.35
101319.38
101321.36
101323.28
101325.14
101326.94
101328.69
101330.38
101332.01
101333.61
101335.17
101336.68
101338.16
101339.59
101340.98
101342.33
101343.63
101344.89
101346.11
101347.29
101348.43
101349.54
101350.61
101351.64
101352.64
101353.59
101354.51
101355.4
101356.24
101357.05
101357.8
101358.51
101359.17
101359.78
101360.35
101360.88
101361.37
101361.84
101362.27
101362.67
101363.04
101363.36
101363.65
101363.86
101364.07
101364.17
101364.31
101270.82
101240.83
101201.66
101158.8
101120.93
101088.98
101061.84
101038.8
101019.4
101003.18
100989.7
100978.51
100969.18
100961.33
100954.8
100949.47
100945.35
100942.64
100941.62
100942.35
100944.82
100949.04
100954.8
100961.82
100969.85
100978.73
100988.32
100998.52
101009.23
101020.34
101031.8
101043.52
101055.43
101067.46
101079.54
101091.6
101103.6
101115.51
101126.51
101136.31
101148.45
101160.43
101170.47
101180.01
101189.01
101197.36
101205
101211.92
101218.2
101223.96
101229.24
101234.05
101238.49
101242.66
101246.64
101250.46
101254.15
101257.73
101261.2
101264.58
101267.88
101271.1
101274.25
101277.34
101280.35
101283.3
101286.18
101289
101291.73
101294.4
101296.99
101299.49
101301.93
101304.29
101306.58
101308.81
101310.99
101313.12
101315.21
101317.26
101319.26
101321.22
101323.12
101324.97
101326.77
101328.51
101330.19
101331.82
101333.4
101334.95
101336.45
101337.92
101339.35
101340.74
101342.09
101343.4
101344.66
101345.88
101347.07
101348.22
101349.33
101350.41
101351.45
101352.45
101353.42
101354.35
101355.25
101356.11
101356.94
101357.72
101358.46
101359.15
101359.8
101360.39
101360.95
101361.46
101361.95
101362.4
101362.82
101363.21
101363.57
101363.88
101364.17
101364.38
101364.59
101364.68
101364.82
101327.24
101301.03
101262.36
101218.59
101179.11
101145.1
101115.64
101090.09
101068.08
101049.25
101033.21
101019.6
101008.08
100998.36
100990.25
100983.64
100978.49
100974.89
100972.92
100972.64
100974.02
100977.03
100981.51
100987.25
100994.08
101001.85
101010.4
101019.64
101029.46
101039.77
101050.47
101061.49
101072.74
101084.16
101095.66
101107.16
101118.64
101130.19
101140.14
101149.57
101161.71
101172.87
101182.31
101191.3
101199.73
101207.49
101214.54
101220.89
101226.66
101231.93
101236.75
101241.14
101245.21
101249.06
101252.74
101256.28
101259.71
101263.04
101266.28
101269.43
101272.52
101275.53
101278.49
101281.39
101284.23
101287.01
101289.73
101292.39
101294.98
101297.51
101299.96
101302.35
101304.66
101306.91
101309.09
101311.22
101313.3
101315.33
101317.33
101319.3
101321.21
101323.09
101324.92
101326.7
101328.43
101330.1
101331.72
101333.3
101334.82
101336.31
101337.76
101339.18
101340.57
101341.91
101343.22
101344.48
101345.71
101346.9
101348.05
101349.16
101350.24
101351.29
101352.3
101353.28
101354.22
101355.13
101356
101356.84
101357.65
101358.41
101359.14
101359.81
101360.43
101361.01
101361.55
101362.06
101362.53
101362.97
101363.38
101363.77
101364.12
101364.42
101364.7
101364.91
101365.11
101365.2
101365.34
101378.81
101354.43
101316.9
101273.37
101233.34
101198.26
101167.37
101140.15
101116.3
101095.52
101077.52
101061.99
101048.66
101037.29
101027.72
101019.81
101013.53
101008.86
101005.85
101004.49
101004.73
101006.53
101009.76
101014.27
101019.91
101026.53
101034.01
101042.24
101051.11
101060.52
101070.38
101080.6
101091.1
101101.8
101112.62
101123.46
101134.33
101145.28
101154.24
101163.52
101175.28
101185.56
101194.41
101202.83
101210.65
101217.8
101224.24
101230.01
101235.25
101240.02
101244.36
101248.33
101252.04
101255.56
101258.94
101262.21
101265.37
101268.44
101271.44
101274.36
101277.23
101280.04
101282.8
101285.51
101288.17
101290.78
101293.34
101295.85
101298.29
101300.68
101303
101305.25
101307.44
101309.57
101311.64
101313.67
101315.65
101317.59
101319.5
101321.37
101323.2
101325.01
101326.76
101328.46
101330.12
101331.73
101333.29
101334.8
101336.27
101337.7
101339.1
101340.47
101341.8
101343.1
101344.37
101345.59
101346.78
101347.93
101349.04
101350.12
101351.17
101352.19
101353.17
101354.12
101355.04
101355.92
101356.77
101357.59
101358.37
101359.12
101359.82
101360.48
101361.08
101361.65
101362.17
101362.66
101363.12
101363.55
101363.96
101364.33
101364.67
101364.97
101365.24
101365.44
101365.64
101365.73
101365.87
101424.73
101400.64
101363.91
101321.42
101281.81
101246.54
101215.02
101186.85
101161.81
101139.69
101120.25
101103.26
101088.5
101075.78
101064.94
101055.87
101048.51
101042.81
101038.77
101036.35
101035.52
101036.19
101038.28
101041.66
101046.19
101051.74
101058.2
101065.46
101073.4
101081.92
101090.94
101100.36
101110.1
101120.06
101130.17
101140.33
101150.54
101160.75
101168.83
101177.96
101189.13
101198.53
101206.76
101214.56
101221.74
101228.24
101234.05
101239.24
101243.94
101248.21
101252.07
101255.63
101258.98
101262.17
101265.25
101268.23
101271.12
101273.94
101276.69
101279.38
101282.03
101284.63
101287.18
101289.7
101292.19
101294.62
101297.02
101299.37
101301.66
101303.9
101306.09
101308.21
101310.28
101312.29
101314.25
101316.17
101318.05
101319.88
101321.7
101323.48
101325.23
101326.95
101328.63
101330.26
101331.85
101333.39
101334.88
101336.33
101337.74
101339.12
101340.46
101341.78
101343.07
101344.32
101345.54
101346.72
101347.87
101348.98
101350.06
101351.1
101352.12
101353.1
101354.06
101354.98
101355.87
101356.73
101357.55
101358.35
101359.11
101359.83
101360.52
101361.15
101361.75
101362.29
101362.8
101363.28
101363.73
101364.14
101364.54
101364.9
101365.24
101365.53
101365.79
101365.99
101366.18
101366.27
101366.4
101465.83
101440.59
101404.21
101363.34
101324.85
101290.02
101258.45
101229.89
101204.18
101181.19
101160.75
101142.68
101126.82
101113.01
101101.13
101091.06
101082.74
101076.11
101071.12
101067.75
101065.93
101065.6
101066.66
101069.01
101072.52
101077.08
101082.58
101088.91
101095.96
101103.64
101111.84
101120.48
101129.46
101138.7
101148.1
101157.58
101167.16
101176.49
101183.76
101192.78
101203.24
101211.75
101219.35
101226.48
101232.99
101238.81
101243.97
101248.58
101252.74
101256.48
101259.88
101263.04
101266.02
101268.89
101271.67
101274.36
101276.98
101279.54
101282.04
101284.49
101286.91
101289.3
101291.65
101293.98
101296.27
101298.53
101300.76
101302.95
101305.09
101307.19
101309.24
101311.23
101313.17
101315.06
101316.9
101318.71
101320.49
101322.22
101323.94
101325.64
101327.3
101328.94
101330.53
101332.09
101333.61
101335.07
101336.5
101337.89
101339.24
101340.56
101341.85
101343.12
101344.35
101345.56
101346.73
101347.87
101348.98
101350.05
101351.09
101352.1
101353.08
101354.04
101354.96
101355.85
101356.72
101357.55
101358.35
101359.12
101359.86
101360.57
101361.23
101361.85
101362.42
101362.95
101363.45
101363.91
101364.34
101364.75
101365.13
101365.49
101365.81
101366.1
101366.36
101366.55
101366.74
101366.82
101366.95
101502.45
101475.53
101439.46
101400.41
101363.39
101329.4
101298.2
101269.67
101243.72
101220.26
101199.2
101180.39
101163.72
101149.08
101136.35
101125.45
101116.3
101108.84
101103.02
101098.79
101096.08
101094.84
101094.96
101096.37
101098.94
101102.58
101107.17
101112.62
101118.83
101125.68
101133.09
101140.96
101149.19
101157.71
101166.4
101175.21
101184.18
101192.4
101198.95
101208.01
101217.59
101225.21
101232.15
101238.58
101244.37
101249.5
101254.01
101258.02
101261.63
101264.85
101267.8
101270.56
101273.18
101275.72
101278.19
101280.59
101282.92
101285.22
101287.47
101289.68
101291.88
101294.05
101296.19
101298.32
101300.43
101302.51
101304.57
101306.6
101308.58
101310.53
101312.44
101314.3
101316.11
101317.88
101319.61
101321.3
101322.97
101324.61
101326.23
101327.83
101329.41
101330.96
101332.47
101333.95
101335.4
101336.8
101338.16
101339.48
101340.77
101342.03
101343.27
101344.48
101345.66
101346.82
101347.95
101349.05
101350.11
101351.14
101352.15
101353.12
101354.07
101354.99
101355.88
101356.74
101357.58
101358.38
101359.16
101359.91
101360.63
101361.31
101361.95
101362.55
101363.11
101363.62
101364.1
101364.55
101364.97
101365.36
101365.74
101366.08
101366.4
101366.68
101366.93
101367.11
101367.3
101367.38
101367.51
101534.96
101506.47
101470.8
101433.59
101398.16
101365.22
101334.69
101306.51
101280.64
101257.05
101235.67
101216.42
101199.22
101183.97
101170.6
101159.03
101149.19
101141.02
101134.47
101129.48
101125.98
101123.91
101123.2
101123.74
101125.45
101128.23
101131.98
101136.6
101141.99
101148.05
101154.68
101161.79
101169.29
101177.08
101185.05
101193.21
101201.58
101208.35
101214.54
101223.67
101232.14
101238.89
101245.11
101250.81
101255.87
101260.28
101264.14
101267.55
101270.6
101273.31
101275.81
101278.18
101280.44
101282.64
101284.8
101286.91
101288.97
101291
101292.99
101294.96
101296.93
101298.87
101300.81
101302.74
101304.66
101306.56
101308.44
101310.31
101312.13
101313.94
101315.71
101317.42
101319.11
101320.75
101322.36
101323.94
101325.5
101327.03
101328.56
101330.07
101331.55
101333.02
101334.45
101335.85
101337.22
101338.55
101339.84
101341.1
101342.33
101343.53
101344.71
101345.86
101347
101348.11
101349.19
101350.24
101351.26
101352.26
101353.22
101354.16
101355.07
101355.96
101356.82
101357.65
101358.46
101359.24
101359.99
101360.71
101361.41
101362.07
101362.69
101363.27
101363.81
101364.31
101364.77
101365.2
101365.61
101365.99
101366.35
101366.69
101367
101367.27
101367.51
101367.69
101367.87
101367.96
101368.08
101563.4
101534.04
101499.12
101463.65
101429.76
101397.98
101368.29
101340.68
101315.15
101291.68
101270.26
101250.82
101233.31
101217.68
101203.85
101191.77
101181.39
101172.63
101165.45
101159.8
101155.6
101152.81
101151.34
101151.11
101152.03
101154.02
101156.98
101160.81
101165.42
101170.71
101176.59
101182.96
101189.73
101196.79
101204.05
101211.51
101219.08
101224.63
101230.78
101239.48
101246.8
101252.74
101258.22
101263.15
101267.44
101271.14
101274.34
101277.15
101279.64
101281.85
101283.91
101285.9
101287.79
101289.67
101291.52
101293.33
101295.1
101296.86
101298.59
101300.31
101302.05
101303.78
101305.5
101307.23
101308.96
101310.67
101312.38
101314.09
101315.75
101317.4
101319.02
101320.6
101322.15
101323.68
101325.16
101326.63
101328.08
101329.5
101330.93
101332.34
101333.73
101335.11
101336.47
101337.79
101339.08
101340.33
101341.56
101342.75
101343.91
101345.06
101346.18
101347.28
101348.36
101349.42
101350.45
101351.46
101352.44
101353.39
101354.32
101355.22
101356.09
101356.95
101357.78
101358.58
101359.35
101360.11
101360.83
101361.53
101362.2
101362.84
101363.44
101364
101364.52
101365
101365.45
101365.87
101366.26
101366.63
101366.98
101367.31
101367.61
101367.87
101368.11
101368.28
101368.46
101368.54
101368.66
101587.9
101558.42
101524.92
101491.11
101458.66
101428.07
101399.35
101372.47
101347.47
101324.34
101303.08
101283.66
101266.05
101250.21
101236.1
101223.67
101212.87
101203.65
101195.96
101189.75
101184.95
101181.52
101179.37
101178.45
101178.66
101179.92
101182.14
101185.23
101189.1
101193.66
101198.8
101204.45
101210.49
101216.82
101223.36
101230.12
101236.74
101241.28
101247.42
101255.39
101261.6
101266.74
101271.44
101275.57
101279.08
101282.06
101284.6
101286.8
101288.74
101290.47
101292.11
101293.72
101295.24
101296.79
101298.33
101299.84
101301.32
101302.81
101304.28
101305.75
101307.26
101308.76
101310.26
101311.79
101313.33
101314.85
101316.39
101317.93
101319.42
101320.92
101322.4
101323.83
101325.25
101326.65
101328.01
101329.36
101330.7
101332.02
101333.34
101334.66
101335.96
101337.25
101338.52
101339.76
101340.97
101342.15
101343.31
101344.43
101345.53
101346.61
101347.67
101348.72
101349.75
101350.75
101351.74
101352.7
101353.64
101354.55
101355.43
101356.29
101357.13
101357.95
101358.75
101359.52
101360.27
101360.99
101361.69
101362.37
101363.01
101363.63
101364.21
101364.75
101365.25
101365.71
101366.14
101366.54
101366.92
101367.28
101367.62
101367.93
101368.23
101368.48
101368.71
101368.88
101369.05
101369.13
101369.25
101608.92
101580.03
101548.14
101516.04
101485.09
101455.78
101428.12
101402.12
101377.8
101355.18
101334.26
101315.04
101297.51
101281.64
101267.4
101254.75
101243.67
101234.1
101226
101219.32
101214.02
101210.03
101207.3
101205.75
101205.31
101205.9
101207.44
101209.83
101213
101216.85
101221.29
101226.22
101231.53
101237.14
101242.99
101249.08
101254.49
101258.17
101264.4
101271.41
101276.52
101280.86
101284.73
101288.02
101290.76
101293.02
101294.9
101296.49
101297.91
101299.17
101300.39
101301.63
101302.78
101303.99
101305.22
101306.43
101307.62
101308.84
101310.05
101311.26
101312.54
101313.81
101315.09
101316.42
101317.77
101319.1
101320.46
101321.83
101323.16
101324.5
101325.83
101327.12
101328.41
101329.67
101330.9
101332.14
101333.37
101334.58
101335.8
101337.02
101338.22
101339.42
101340.6
101341.76
101342.9
101344
101345.09
101346.15
101347.18
101348.2
101349.2
101350.18
101351.16
101352.12
101353.05
101353.97
101354.86
101355.72
101356.57
101357.39
101358.19
101358.98
101359.74
101360.48
101361.2
101361.89
101362.56
101363.21
101363.84
101364.43
101364.99
101365.51
101365.99
101366.43
101366.85
101367.23
101367.6
101367.94
101368.27
101368.58
101368.86
101369.1
101369.33
101369.49
101369.66
101369.73
101369.86
101627.05
101599.2
101569.04
101538.71
101509.32
101481.37
101454.89
101429.88
101406.37
101384.39
101363.96
101345.09
101327.78
101312.01
101297.77
101285.04
101273.79
101263.98
101255.57
101248.53
101242.81
101238.35
101235.1
101233
101231.98
101231.95
101232.86
101234.6
101237.11
101240.28
101244.02
101248.24
101252.85
101257.73
101262.89
101268.33
101272.13
101275.4
101281.74
101287.49
101291.53
101295.03
101298.03
101300.49
101302.45
101303.99
101305.21
101306.21
101307.15
101307.94
101308.76
101309.64
101310.4
101311.28
101312.2
101313.12
101314.01
101314.96
101315.89
101316.84
101317.89
101318.94
101320
101321.13
101322.28
101323.41
101324.59
101325.79
101326.95
101328.14
101329.32
101330.46
101331.61
101332.75
101333.85
101334.97
101336.08
101337.18
101338.3
101339.42
101340.52
101341.64
101342.73
101343.8
101344.86
101345.89
101346.9
101347.89
101348.85
101349.81
101350.75
101351.68
101352.6
101353.5
101354.39
101355.25
101356.1
101356.92
101357.72
101358.51
101359.27
101360.02
101360.75
101361.46
101362.15
101362.81
101363.46
101364.08
101364.68
101365.25
101365.78
101366.28
101366.74
101367.17
101367.56
101367.94
101368.29
101368.62
101368.94
101369.23
101369.5
101369.74
101369.96
101370.12
101370.28
101370.35
101370.47
101642.92
101616.37
101587.99
101559.45
101531.68
101505.15
101479.9
101455.97
101433.37
101412.15
101392.32
101373.92
101356.95
101341.41
101327.3
101314.59
101303.28
101293.33
101284.71
101277.39
101271.33
101266.47
101262.78
101260.2
101258.65
101258.07
101258.39
101259.52
101261.39
101263.9
101266.97
101270.5
101274.39
101278.54
101282.95
101287.51
101290.03
101293.27
101299.09
101303.5
101306.58
101309.2
101311.32
101312.94
101314.12
101314.96
101315.52
101315.95
101316.45
101316.78
101317.19
101317.73
101318.08
101318.63
101319.27
101319.88
101320.48
101321.15
101321.81
101322.5
101323.32
101324.14
101324.97
101325.9
101326.85
101327.78
101328.79
101329.82
101330.8
101331.84
101332.87
101333.86
101334.87
101335.87
101336.84
101337.84
101338.84
101339.82
101340.84
101341.86
101342.87
101343.89
101344.89
101345.88
101346.86
101347.81
101348.74
101349.66
101350.56
101351.45
101352.33
101353.2
101354.06
101354.91
101355.75
101356.57
101357.36
101358.14
101358.9
101359.65
101360.37
101361.09
101361.78
101362.45
101363.11
101363.75
101364.36
101364.96
101365.53
101366.08
101366.59
101367.07
101367.51
101367.92
101368.3
101368.65
101368.99
101369.31
101369.61
101369.89
101370.16
101370.39
101370.6
101370.75
101370.91
101370.98
101371.1
101657.11
101631.98
101605.36
101578.6
101552.45
101527.38
101503.43
101480.63
101459.01
101438.63
101419.51
101401.68
101385.15
101369.94
101356.05
101343.47
101332.19
101322.19
101313.44
101305.92
101299.59
101294.42
101290.35
101287.34
101285.32
101284.23
101284
101284.56
101285.82
101287.7
101290.11
101292.95
101296.12
101299.54
101303.19
101306.72
101308.22
101311.42
101316.34
101319.46
101321.62
101323.33
101324.54
101325.33
101325.76
101325.9
101325.81
101325.71
101325.81
101325.66
101325.7
101325.9
101325.81
101326.05
101326.43
101326.73
101327.03
101327.43
101327.79
101328.21
101328.82
101329.41
101330
101330.73
101331.5
101332.22
101333.04
101333.9
101334.71
101335.59
101336.47
101337.3
101338.18
101339.05
101339.89
101340.76
101341.65
101342.52
101343.42
101344.34
101345.25
101346.18
101347.09
101347.99
101348.89
101349.76
101350.62
101351.47
101352.29
101353.12
101353.94
101354.75
101355.55
101356.35
101357.13
101357.9
101358.65
101359.38
101360.1
101360.81
101361.49
101362.17
101362.83
101363.47
101364.09
101364.7
101365.29
101365.86
101366.41
101366.93
101367.42
101367.87
101368.29
101368.68
101369.04
101369.38
101369.7
101370.01
101370.3
101370.57
101370.83
101371.05
101371.25
101371.4
101371.55
101371.62
101371.73
101670
101646.37
101621.47
101596.46
101571.94
101548.33
101525.71
101504.09
101483.51
101464.03
101445.69
101428.5
101412.5
101397.7
101384.11
101371.73
101360.56
101350.59
101341.79
101334.14
101327.62
101322.18
101317.8
101314.42
101311.98
101310.43
101309.69
101309.71
101310.39
101311.65
101313.41
101315.57
101318.02
101320.72
101323.61
101325.83
101326.54
101329.75
101333.47
101335.36
101336.58
101337.35
101337.66
101337.63
101337.34
101336.79
101336.05
101335.46
101335.21
101334.59
101334.31
101334.11
101333.62
101333.58
101333.66
101333.64
101333.64
101333.77
101333.83
101333.98
101334.39
101334.75
101335.09
101335.63
101336.21
101336.72
101337.36
101338.05
101338.68
101339.39
101340.13
101340.8
101341.54
101342.28
101342.98
101343.73
101344.5
101345.25
101346.05
101346.86
101347.67
101348.51
101349.33
101350.14
101350.96
101351.75
101352.53
101353.31
101354.06
101354.82
101355.57
101356.32
101357.07
101357.81
101358.54
101359.26
101359.96
101360.65
101361.33
101361.99
101362.64
101363.27
101363.9
101364.5
101365.1
101365.67
101366.23
101366.77
101367.29
101367.79
101368.26
101368.69
101369.09
101369.46
101369.8
101370.12
101370.43
101370.72
101371
101371.26
101371.51
101371.72
101371.91
101372.06
101372.2
101372.27
101372.38
101681.94
101659.83
101636.61
101613.32
101590.41
101568.28
101546.99
101526.58
101507.08
101488.54
101471.01
101454.53
101439.11
101424.79
101411.57
101399.46
101388.47
101378.59
101369.8
101362.09
101355.43
101349.79
101345.14
101341.44
101338.63
101336.65
101335.44
101334.93
101335.05
101335.71
101336.83
101338.3
101340.03
101342.01
101344.13
101344.59
101345.08
101348.23
101350.39
101351.13
101351.39
101351.22
101350.63
101349.82
101348.83
101347.56
101346.21
101345.27
101344.6
101343.7
101342.98
101342.3
101341.62
101341.21
101340.89
101340.57
101340.31
101340.17
101339.93
101339.84
101340.04
101340.14
101340.23
101340.59
101340.99
101341.27
101341.73
101342.26
101342.7
101343.25
101343.84
101344.36
101344.95
101345.55
101346.12
101346.75
101347.4
101348.03
101348.71
101349.43
101350.14
101350.87
101351.61
101352.33
101353.06
101353.77
101354.47
101355.18
101355.86
101356.55
101357.24
101357.93
101358.62
101359.3
101359.98
101360.65
101361.3
101361.94
101362.57
101363.19
101363.8
101364.4
101364.99
101365.56
101366.12
101366.66
101367.19
101367.7
101368.2
101368.67
101369.11
101369.52
101369.9
101370.25
101370.57
101370.88
101371.17
101371.45
101371.72
101371.96
101372.2
101372.4
101372.59
101372.73
101372.87
101372.93
101373.04
101693.09
101672.53
101651.01
101629.43
101608.14
101587.48
101567.53
101548.32
101529.91
101512.34
101495.66
101479.91
101465.12
101451.32
101438.52
101426.74
101415.98
101406.24
101397.52
101389.79
101383.04
101377.25
101372.39
101368.4
101365.24
101362.87
101361.21
101360.21
101359.78
101359.84
101360.31
101361.09
101362.1
101363.29
101364.33
101363.49
101364.03
101366.34
101367.02
101366.7
101366.01
101364.9
101363.41
101361.83
101360.11
101358.07
101356.57
101355.35
101354.04
101352.76
101351.63
101350.59
101349.63
101348.85
101348.18
101347.57
101347.02
101346.57
101346.12
101345.84
101345.72
101345.55
101345.45
101345.64
101345.82
101345.86
101346.16
101346.53
101346.77
101347.17
101347.61
101347.96
101348.4
101348.88
101349.3
101349.81
101350.34
101350.85
101351.42
101352.03
101352.64
101353.28
101353.92
101354.55
101355.2
101355.83
101356.45
101357.08
101357.69
101358.31
101358.93
101359.56
101360.19
101360.81
101361.44
101362.06
101362.66
101363.25
101363.84
101364.42
101364.98
101365.54
101366.09
101366.63
101367.15
101367.67
101368.17
101368.65
101369.12
101369.56
101369.98
101370.37
101370.73
101371.06
101371.36
101371.65
101371.93
101372.19
101372.44
101372.68
101372.9
101373.1
101373.28
101373.41
101373.55
101373.6
101373.72
101704.04
101684.9
101665.03
101645.13
101625.42
101606.2
101587.57
101569.56
101552.22
101535.62
101519.8
101504.8
101490.65
101477.4
101465.05
101453.63
101443.15
101433.6
101424.98
101417.28
101410.49
101404.58
101399.53
101395.29
101391.83
101389.08
101386.99
101385.49
101384.52
101383.99
101383.81
101383.89
101384.18
101384.54
101384.18
101382.46
101383.01
101384.04
101383.33
101382
101380.36
101378.31
101375.88
101373.56
101371.13
101368.9
101367.13
101365.24
101363.47
101361.82
101360.32
101358.93
101357.65
101356.53
101355.53
101354.61
101353.78
101353.05
101352.37
101351.84
101351.43
101351.06
101350.79
101350.73
101350.66
101350.53
101350.67
101350.85
101350.89
101351.14
101351.43
101351.61
101351.91
101352.26
101352.53
101352.91
101353.33
101353.71
101354.18
101354.68
101355.19
101355.73
101356.27
101356.81
101357.38
101357.92
101358.46
101359.02
101359.55
101360.1
101360.66
101361.22
101361.79
101362.36
101362.93
101363.49
101364.04
101364.59
101365.13
101365.66
101366.18
101366.71
101367.22
101367.72
101368.21
101368.69
101369.16
101369.62
101370.06
101370.47
101370.87
101371.23
101371.57
101371.88
101372.16
101372.44
101372.69
101372.94
101373.18
101373.41
101373.62
101373.81
101373.98
101374.11
101374.24
101374.29
101374.4
101715.17
101697.17
101678.89
101660.68
101642.53
101624.72
101607.35
101590.5
101574.21
101558.55
101543.57
101529.32
101515.83
101503.14
101491.26
101480.23
101470.04
101460.71
101452.23
101444.59
101437.78
101431.79
101426.58
101422.11
101418.35
101415.24
101412.73
101410.75
101409.23
101408.09
101407.24
101406.62
101406.22
101405.67
101403.37
101401.48
101401.89
101401.23
101399.26
101396.95
101394.37
101391.32
101387.97
101385.05
101382.44
101379.9
101377.42
101375.07
101372.91
101370.89
101369.03
101367.3
101365.7
101364.25
101362.92
101361.7
101360.59
101359.58
101358.67
101357.88
101357.22
101356.63
101356.15
101355.83
101355.55
101355.29
101355.23
101355.18
101355.06
101355.17
101355.3
101355.3
101355.47
101355.69
101355.81
101356.06
101356.36
101356.62
101356.97
101357.37
101357.77
101358.21
101358.66
101359.1
101359.59
101360.04
101360.5
101360.98
101361.44
101361.92
101362.41
101362.91
101363.42
101363.93
101364.44
101364.95
101365.45
101365.95
101366.44
101366.93
101367.41
101367.89
101368.37
101368.83
101369.29
101369.74
101370.17
101370.6
101371.01
101371.4
101371.77
101372.11
101372.43
101372.71
101372.98
101373.23
101373.48
101373.71
101373.94
101374.15
101374.35
101374.53
101374.7
101374.81
101374.94
101374.99
101375.1
101726.39
101710.23
101693.15
101676.49
101659.83
101643.33
101627.15
101611.37
101596.06
101581.3
101567.13
101553.6
101540.76
101528.62
101517.23
101506.59
101496.72
101487.62
101479.3
101471.74
101464.94
101458.88
101453.52
101448.84
101444.8
101441.33
101438.39
101435.92
101433.83
101432.06
101430.52
101429.19
101428.03
101426.16
101422.42
101420.71
101420.11
101417.83
101414.72
101411.42
101407.84
101403.67
101400.09
101396.93
101393.69
101390.56
101387.63
101384.89
101382.35
101379.97
101377.75
101375.68
101373.76
101371.98
101370.35
101368.84
101367.44
101366.16
101365
101363.96
101363.05
101362.25
101361.56
101361
101360.52
101360.09
101359.81
101359.57
101359.33
101359.25
101359.18
101359.04
101359.08
101359.15
101359.12
101359.26
101359.44
101359.57
101359.8
101360.1
101360.4
101360.74
101361.09
101361.43
101361.83
101362.2
101362.58
101362.98
101363.37
101363.78
101364.2
101364.63
101365.08
101365.52
101365.98
101366.44
101366.89
101367.33
101367.78
101368.22
101368.66
101369.1
101369.54
101369.96
101370.38
101370.8
101371.2
101371.6
101371.98
101372.35
101372.69
101373.01
101373.3
101373.56
101373.81
101374.05
101374.27
101374.49
101374.71
101374.91
101375.1
101375.27
101375.42
101375.54
101375.65
101375.7
101375.81
101737.67
101725.69
101709.84
101693.82
101677.98
101662.45
101647.23
101632.37
101617.95
101604
101590.59
101577.76
101565.53
101553.95
101543.02
101532.78
101523.23
101514.37
101506.22
101498.75
101491.97
101485.84
101480.35
101475.46
101471.12
101467.29
101463.91
101460.91
101458.24
101455.8
101453.53
101451.46
101449.54
101445.84
101441.37
101439.73
101437.58
101433.79
101429.53
101425.23
101420.65
101416.22
101412.41
101408.45
101404.68
101401.13
101397.8
101394.68
101391.77
101389.03
101386.47
101384.07
101381.83
101379.74
101377.8
101376
101374.33
101372.78
101371.37
101370.09
101368.94
101367.91
101367
101366.22
101365.54
101364.93
101364.44
101364.02
101363.63
101363.36
101363.12
101362.87
101362.75
101362.64
101362.49
101362.51
101362.56
101362.56
101362.67
101362.87
101363.07
101363.3
101363.55
101363.8
101364.11
101364.39
101364.69
101365.01
101365.32
101365.66
101366.01
101366.37
101366.76
101367.15
101367.55
101367.95
101368.34
101368.74
101369.14
101369.54
101369.93
101370.33
101370.73
101371.11
101371.5
101371.88
101372.25
101372.62
101372.97
101373.31
101373.63
101373.92
101374.19
101374.43
101374.66
101374.88
101375.09
101375.29
101375.49
101375.68
101375.86
101376.02
101376.16
101376.27
101376.38
101376.43
101376.53
101750.3
101741.45
101728.36
101712.29
101696.83
101682.02
101667.61
101653.56
101639.93
101626.74
101614.04
101601.86
101590.22
101579.16
101568.7
101558.84
101549.61
101540.99
101533
101525.63
101518.85
101512.66
101507.03
101501.91
101497.27
101493.05
101489.2
101485.65
101482.33
101479.16
101476.09
101473.14
101470.17
101465.22
101460.49
101457.9
101453.95
101448.9
101443.53
101438.44
101433.62
101428.83
101424.19
101419.74
101415.56
101411.62
101407.91
101404.43
101401.16
101398.07
101395.18
101392.46
101389.9
101387.51
101385.27
101383.18
101381.24
101379.43
101377.77
101376.25
101374.86
101373.61
101372.49
101371.49
101370.6
101369.81
101369.13
101368.52
101367.98
101367.52
101367.11
101366.73
101366.44
101366.18
101365.93
101365.8
101365.7
101365.59
101365.58
101365.68
101365.78
101365.9
101366.06
101366.2
101366.43
101366.62
101366.83
101367.08
101367.31
101367.57
101367.85
101368.15
101368.47
101368.8
101369.14
101369.49
101369.83
101370.17
101370.52
101370.88
101371.22
101371.58
101371.94
101372.28
101372.63
101372.98
101373.32
101373.66
101373.98
101374.29
101374.58
101374.85
101375.09
101375.31
101375.52
101375.72
101375.91
101376.1
101376.29
101376.46
101376.63
101376.78
101376.92
101377.02
101377.13
101377.17
101377.27
101764.46
101757.57
101744.8
101729.77
101715.49
101701.65
101688.11
101674.88
101662.01
101649.54
101637.51
101625.95
101614.88
101604.32
101594.29
101584.81
101575.87
101567.49
101559.65
101552.35
101545.57
101539.3
101533.5
101528.13
101523.15