/*--------------------------------*- C++ -*----------------------------------*\
| =========                 |                                                 |
| \\      /  F ield         | OpenFOAM: The Open Source CFD Toolbox           |
|  \\    /   O peration     | Version:  2406                                  |
|   \\  /    A nd           | Website:  www.openfoam.com                      |
|    \\/     M anipulation  |                                                 |
\*---------------------------------------------------------------------------*/
FoamFile
{
    version     2.0;
    format      ascii;
    arch        "LSB;label=32;scalar=64";
    class       volVectorField;
    location    "0.033";
    object      U;
}
// * * * * * * * * * * * * * * * * * * * * * * * * * * * * * * * * * * * * * //

dimensions      [0 1 -1 0 0 0 0];

internalField   nonuniform List<vector> 
92813
(
(39.069018 29.361391 -5.003044e-21)
(39.909282 28.614848 1.7361097e-20)
(40.708311 27.91337 -1.0603075e-20)
(41.454346 27.243704 -1.082307e-20)
(42.14054 26.581119 -8.9763057e-21)
(42.777212 25.930167 7.210006e-21)
(43.370625 25.297576 5.6479841e-21)
(43.925928 24.687573 0)
(44.448725 24.102705 -3.147143e-21)
(44.944539 23.544095 -1.1685149e-24)
(45.41859 23.011805 -1.5496555e-21)
(45.875592 22.505161 -1.0771766e-21)
(46.31965 22.022936 0)
(46.754556 21.563302 0)
(47.180813 21.124159 4.2494185e-23)
(47.600392 20.703706 0)
(48.013291 20.30013 -1.2226077e-21)
(48.41641 19.911726 -1.5661182e-21)
(48.805918 19.537715 2.3077279e-25)
(49.180943 19.177689 -8.3212214e-21)
(49.540844 18.83166 0)
(49.883975 18.500471 0)
(50.21388 18.182771 0)
(50.532626 17.87727 5.4820368e-21)
(50.841107 17.582865 -1.0807978e-20)
(51.139726 17.29846 -5.337866e-21)
(51.428587 17.022956 0)
(51.70757 16.755257 0)
(51.976361 16.494271 5.2169909e-21)
(52.234472 16.238894 -1.5613994e-20)
(52.481248 15.98801 -1.0416171e-20)
(52.715865 15.740475 5.2278856e-21)
(52.937331 15.495109 -1.5796456e-20)
(53.144478 15.250681 0)
(53.335967 15.005885 0)
(53.510234 14.759275 -1.6535433e-20)
(53.665355 14.509747 1.1295989e-20)
(53.80095 14.25504 -1.163943e-20)
(53.913122 13.993465 1.206569e-20)
(53.995922 13.722255 -3.1329301e-20)
(54.050504 13.444912 -4.6025907e-20)
(54.077286 13.151215 1.4000528e-20)
(54.068805 12.842928 3.7480194e-20)
(54.022318 12.516704 3.2351774e-20)
(53.935426 12.170353 8.8116401e-21)
(53.806715 11.80266 2.9107232e-20)
(53.637112 11.413796 0)
(53.432163 11.007169 0)
(53.20508 10.591802 0)
(52.978399 10.184149 5.9012974e-20)
(52.778903 9.8044545 6.3472773e-20)
(52.624378 9.4658417 6.6516023e-20)
(52.514784 9.1672567 1.70733e-20)
(52.438196 8.8988214 -1.730717e-20)
(52.381478 8.6503602 6.9696906e-20)
(52.335378 8.4150239 -8.7379049e-20)
(52.294498 8.1889449 -4.3718509e-20)
(52.256243 7.9701229 3.4418225e-25)
(52.219343 7.7575946 -1.4811143e-19)
(52.183358 7.5507688 0)
(52.148367 7.349396 1.2959968e-19)
(52.114063 7.1533593 -1.3745369e-19)
(52.080293 6.9623272 8.5332429e-21)
(52.047254 6.7760662 1.4397718e-19)
(52.014834 6.5945899 1.2598007e-19)
(51.982684 6.4175513 8.3227519e-21)
(51.951046 6.2447737 1.153895e-19)
(51.920028 6.0762073 2.6101671e-19)
(51.8892 5.9116562 1.6139802e-20)
(51.858911 5.7508338 -7.9755317e-21)
(51.829201 5.5937787 1.3395956e-19)
(51.799663 5.4402897 -1.5563949e-20)
(51.770694 5.290177 1.3058156e-19)
(51.742346 5.1435033 1.2883424e-19)
(51.714181 5.0000733 1.8209739e-25)
(51.686586 4.8597592 2.3580566e-19)
(51.659536 4.7225725 -7.2620968e-21)
(51.632603 4.5883451 2.2180951e-19)
(51.606205 4.456993 1.409465e-20)
(51.580237 4.3284406 -6.9392513e-21)
(51.55451 4.202596 -2.1860544e-19)
(51.529316 4.0793532 0)
(51.504458 3.9586213 -2.1832057e-19)
(51.480051 3.8403041 -2.0176266e-19)
(51.456225 3.7243077 3.1313389e-24)
(51.432695 3.6106275 0)
(51.409735 3.4991307 -1.9186249e-19)
(51.387386 3.389782 -6.0838073e-21)
(51.365339 3.282534 2.502548e-24)
(51.343855 3.1772763 0)
(51.322918 3.073895 0)
(51.30239 2.9724128 -3.6294294e-19)
(51.282461 2.8727152 -4.0040051e-24)
(51.26305 2.7746596 -5.4702151e-21)
(51.244081 2.6782328 1.0743294e-20)
(51.22574 2.583386 3.27013e-19)
(51.207932 2.4900299 3.3142243e-19)
(51.190538 2.3980861 -3.2029049e-19)
(51.17371 2.30753 0)
(51.157388 2.2183239 -3.1353911e-19)
(51.141421 2.1303382 0)
(51.12589 2.0436211 2.9733748e-19)
(51.110887 1.9580023 4.6319527e-21)
(51.096206 1.8735086 0)
(51.081997 1.7900078 -2.8549786e-19)
(51.068317 1.7074126 0)
(51.055014 1.6257481 2.7490011e-19)
(51.042242 1.5448157 -2.7183503e-19)
(51.029955 1.4645718 4.1350017e-21)
(51.018107 1.3850514 -2.0283729e-21)
(51.006812 1.3059826 0)
(50.996096 1.2274477 0)
(50.985883 1.1492509 4.8829268e-19)
(50.976284 1.0713938 -1.1174378e-26)
(50.967291 0.99371084 -4.6979817e-19)
(50.958818 0.91617453 0)
(50.950894 0.83870717 2.479943e-24)
(50.94352 0.76122031 0)
(50.936685 0.68362662 -4.3640513e-19)
(50.930477 0.60571958 -2.2216085e-24)
(50.924754 0.52761288 0)
(50.919778 0.44872998 -4.1117182e-19)
(50.915248 0.36966581 4.0319213e-19)
(50.911671 0.28902696 0)
(50.90841 0.20865283 0)
(50.906589 0.12531635 3.8047081e-19)
(50.904998 0.043108187 -3.7235411e-19)
(38.361623 28.886209 -6.1447815e-21)
(39.260608 28.168462 -1.7710008e-20)
(40.076243 27.528975 0)
(40.832294 26.912683 -1.0582581e-20)
(41.538845 26.304866 2.0105024e-20)
(42.20169 25.707695 -9.5798998e-21)
(42.825044 25.12571 6.4278391e-24)
(43.412765 24.561882 0)
(43.968883 24.018185 8.410979e-21)
(44.497568 23.495825 1.6166851e-20)
(45.002993 22.995278 -2.0589392e-24)
(45.489176 22.516361 1.5038218e-20)
(45.959776 22.058248 0)
(46.417759 21.619411 -7.0460455e-21)
(46.864607 21.197982 1.367569e-20)
(47.301198 20.792237 -2.8967189e-24)
(47.727306 20.400582 6.4689612e-21)
(48.141471 20.0217 6.3091329e-21)
(48.54192 19.655056 0)
(48.927915 19.300664 0)
(49.299219 18.958601 5.9153805e-21)
(49.655682 18.629091 1.0684566e-24)
(49.998685 18.311734 -5.7173053e-21)
(50.329457 18.005774 -5.6344949e-21)
(50.648785 17.710251 1.1129085e-20)
(50.957096 17.424132 -5.5097483e-21)
(51.254541 17.146372 5.4654122e-21)
(51.54104 16.87592 1.0871452e-20)
(51.816322 16.611719 -5.4185869e-21)
(52.079929 16.352696 1.6249109e-20)
(52.331231 16.097752 -5.430479e-21)
(52.569423 15.845755 5.461947e-21)
(52.793523 15.595524 -1.1021813e-20)
(53.002366 15.34582 5.5818818e-21)
(53.194603 15.095325 -1.7030935e-20)
(53.368682 14.842595 2.31982e-20)
(53.522813 14.586296 0)
(53.655832 14.324659 1.2294762e-20)
(53.763762 14.055152 6.3841542e-21)
(53.843091 13.773527 2.6563924e-20)
(53.893335 13.488338 -1.3971616e-20)
(53.912872 13.184103 7.4521651e-21)
(53.89618 12.865111 -2.3962888e-20)
(53.840914 12.527058 -8.6316609e-21)
(53.744752 12.168184 3.7665196e-20)
(53.606997 11.787662 0)
(53.430046 11.386477 0)
(53.221906 10.969617 3.8372366e-20)
(52.999114 10.548685 7.0766018e-20)
(52.786545 10.142732 -1.5410518e-20)
(52.609158 9.7716042 -4.9128646e-20)
(52.478432 9.4440505 -6.7955016e-20)
(52.388595 9.1546151 0)
(52.326093 8.8919972 0)
(52.278977 8.6466936 -7.0247318e-20)
(52.239727 8.4129328 5.2741365e-20)
(52.204165 8.1876194 8.7817019e-20)
(52.170427 7.9691811 0)
(52.137578 7.7568699 1.7458633e-20)
(52.105355 7.5501906 -1.7375797e-20)
(52.073948 7.348942 1.72766e-20)
(52.043015 7.1530303 1.2012384e-19)
(52.012413 6.9621048 -1.4477059e-19)
(51.982407 6.7759372 8.4497536e-21)
(51.952861 6.5945656 -2.5940755e-19)
(51.923399 6.4176055 1.3258911e-19)
(51.894342 6.2449062 -2.6243493e-19)
(51.865784 6.0764172 -1.3789425e-19)
(51.837252 5.9119329 -1.2830039e-19)
(51.809173 5.7511704 1.346948e-19)
(51.781571 5.594176 -1.5648942e-20)
(51.754015 5.4407421 7.7236417e-21)
(51.726965 5.2906863 0)
(51.70045 5.1440686 0)
(51.674008 5.0006833 -2.3713707e-19)
(51.648081 4.8604157 -2.3371305e-19)
(51.622616 4.7232623 7.196047e-21)
(51.597177 4.5890615 -2.3390493e-19)
(51.572222 4.4577342 2.2335687e-19)
(51.547622 4.329197 6.8715713e-21)
(51.523195 4.2033688 -6.7634212e-21)
(51.499252 4.0801417 0)
(51.475575 3.9594242 -2.1608695e-19)
(51.4523 3.8411198 2.0610814e-19)
(51.429564 3.7251354 -1.9636227e-19)
(51.407072 3.6114713 0)
(51.38511 3.4999986 -2.8668975e-24)
(51.363715 3.3906684 0)
(51.342574 3.2834417 -1.8928835e-19)
(51.321952 3.1782078 0)
(51.301837 3.0748346 1.8274118e-19)
(51.282098 2.9733701 1.7951271e-19)
(51.262914 2.8736908 7.0527686e-19)
(51.244207 2.7756337 5.4113815e-21)
(51.225919 2.6792117 3.3478712e-19)
(51.208229 2.5843644 -6.6790888e-19)
(51.191035 2.4909953 5.126708e-21)
(51.174228 2.3990352 3.1186928e-19)
(51.157966 2.3084582 -3.1111617e-19)
(51.142178 2.2192249 3.1026022e-19)
(51.126721 2.1312078 0)
(51.111678 2.0444552 2.5209978e-24)
(51.097137 1.9588037 0)
(51.082897 1.8742667 0)
(51.069101 1.7907304 0)
(51.055817 1.7080942 2.7737847e-19)
(51.042886 1.626398 2.1266016e-21)
(51.030459 1.5454289 -2.0868093e-21)
(51.018508 1.46515 2.6415354e-19)
(51.006973 1.3856012 -5.1636591e-19)
(50.995971 1.3064983 1.9713409e-21)
(50.985533 1.2279328 4.951342e-19)
(50.97558 1.149704 -1.8975161e-21)
(50.966224 1.0718233 0)
(50.957454 0.99410626 4.6932789e-19)
(50.949192 0.91653913 -3.5828332e-21)
(50.941464 0.83904015 -8.979654e-19)
(50.934268 0.76152345 0)
(50.927595 0.68389547 -2.329071e-24)
(50.921534 0.60595679 4.2537832e-19)
(50.915939 0.52781454 -8.1329693e-22)
(50.911076 0.44890173 4.0841022e-19)
(50.906638 0.36980003 -8.011075e-19)
(50.903143 0.28913216 0)
(50.899941 0.20871449 0)
(50.89816 0.12532962 -9.0353014e-23)
(50.896585 0.043112584 9.0286524e-23)
(37.62759 28.265907 -1.3925804e-23)
(38.512819 27.636241 -1.0794665e-20)
(39.342621 27.077387 -5.1371929e-21)
(40.121228 26.527573 4.8979338e-21)
(40.854294 25.980067 9.3729854e-21)
(41.545996 25.439102 -8.9817264e-21)
(42.199846 24.908985 -8.6242197e-21)
(42.819173 24.392325 -8.2940438e-21)
(43.407364 23.890939 3.0542114e-24)
(43.967891 23.406105 0)
(44.504258 22.938533 1.516657e-24)
(45.019879 22.488347 -7.3562499e-25)
(45.517903 22.055084 1.0124239e-24)
(46.000929 21.637701 -6.8192185e-21)
(46.470583 21.234849 1.3274095e-20)
(46.927707 20.845151 -1.2938588e-20)
(47.37232 20.467275 1.2631851e-20)
(47.803677 20.100185 0)
(48.220718 19.743459 -6.0465902e-21)
(48.622861 19.397122 -5.930788e-21)
(49.009935 19.061266 -7.1458775e-25)
(49.382022 18.736075 -5.7337888e-21)
(49.739853 18.421501 5.6530069e-21)
(50.084332 18.117087 -1.117279e-20)
(50.416183 17.822093 0)
(50.735852 17.535645 0)
(51.043535 17.256812 1.0902305e-20)
(51.339202 16.984624 -1.0860114e-20)
(51.622621 16.718087 -5.4248662e-21)
(51.893373 16.456171 -5.4323071e-21)
(52.150858 16.19781 1.0914513e-20)
(52.394291 15.94189 -1.0999098e-20)
(52.622704 15.687238 1.6685289e-20)
(52.834938 15.43261 5.6473105e-21)
(53.029635 15.176673 1.7265256e-20)
(53.205241 14.917958 2.5866229e-24)
(53.359992 14.654964 6.067108e-21)
(53.492239 14.386207 -6.2766245e-21)
(53.598034 14.108285 -6.5371849e-21)
(53.675644 13.818594 -2.72702e-20)
(53.723306 13.52383 2.8775613e-20)
(53.737446 13.208881 -3.0815773e-20)
(53.714705 12.878889 3.3126056e-20)
(53.652817 12.528838 0)
(53.549757 12.157488 4.9112487e-20)
(53.40571 11.764578 8.5677755e-25)
(53.224693 11.352299 4.8115796e-20)
(53.017323 10.927746 -1.2016432e-19)
(52.80313 10.505431 -1.0279272e-19)
(52.607907 10.106066 8.6334752e-25)
(52.452804 9.7468717 -1.665983e-20)
(52.34298 9.4311493 5.142827e-20)
(52.268997 9.1501176 8.6992953e-20)
(52.217431 8.8923962 0)
(52.177975 8.6496922 7.0250315e-20)
(52.144567 8.4172988 4.0034903e-24)
(52.113852 8.1927542 1.7534861e-20)
(52.084431 7.9747979 1.2237365e-19)
(52.055549 7.7628295 0)
(52.027042 7.556417 0)
(51.999196 7.3553837 1.7209871e-20)
(51.971621 7.1596607 -1.7086812e-20)
(51.944172 6.9688783 2.5426991e-19)
(51.917188 6.7828083 -1.176227e-19)
(51.890518 6.6015205 1.6640466e-20)
(51.863748 6.4245983 -1.647334e-20)
(51.837273 6.251917 -4.5221947e-24)
(51.811189 6.0834212 0)
(51.784967 5.9189093 -7.9666232e-21)
(51.759103 5.7580968 -1.1804062e-19)
(51.733628 5.6010345 -7.769891e-21)
(51.708069 5.4475208 7.66809e-21)
(51.682941 5.2973738 1.2859945e-19)
(51.658271 5.1506496 1.7127706e-25)
(51.63356 5.0071442 2.3529888e-19)
(51.609298 4.8667516 -7.2459683e-21)
(51.585425 4.7294515 -7.1382925e-21)
(51.561486 4.5951001 7.0301949e-21)
(51.537976 4.4636178 -2.2150207e-19)
(51.514753 4.3349156 0)
(51.491635 4.2089269 -6.7059797e-21)
(51.46895 4.085536 -1.2579025e-25)
(51.446465 3.964658 6.4872619e-21)
(51.424328 3.8461927 -1.9791229e-19)
(51.402693 3.7300459 -6.2779324e-21)
(51.381247 3.6162262 6.172633e-21)
(51.360284 3.5046102 1.9417043e-19)
(51.339848 3.3951314 -1.1927854e-20)
(51.319615 3.2877644 -1.8169054e-19)
(51.299852 3.1823977 0)
(51.28056 3.0788765 -1.8103735e-19)
(51.261613 2.9772791 0)
(51.24317 2.8774737 -5.4540254e-21)
(51.225169 2.7792725 5.3601814e-21)
(51.207565 2.6827189 -3.3687202e-19)
(51.190523 2.5877389 6.6155206e-19)
(51.173944 2.4942289 -3.2983879e-19)
(51.157726 2.4021296 9.963981e-21)
(51.142029 2.3114129 3.0812403e-19)
(51.126777 2.2220381 -3.0727351e-19)
(51.111832 2.1338797 -4.7127974e-21)
(51.09728 2.046986 -2.9604918e-19)
(51.083203 1.9612011 -2.8149183e-19)
(51.069405 1.8765229 -8.9119577e-21)
(51.056025 1.7928584 4.3731288e-21)
(51.04314 1.7100916 -2.7466642e-19)
(51.030582 1.6282788 0)
(51.018503 1.5471925 2.06637e-21)
(51.006892 1.4668 -2.6155855e-19)
(50.995671 1.3871483 -3.4361693e-24)
(50.984964 1.3079402 0)
(50.974807 1.2292749 -4.9025169e-19)
(50.965116 1.1509484 4.8097492e-19)
(50.956003 1.0729802 4.7185094e-19)
(50.947457 0.99516778 -4.6287858e-19)
(50.939405 0.91751071 -4.5229438e-19)
(50.931874 0.83992307 -2.5270489e-24)
(50.924857 0.76232116 -2.5599789e-21)
(50.918344 0.68460585 4.2854696e-19)
(50.912431 0.60658308 8.2097719e-22)
(50.906965 0.52835522 0)
(50.902216 0.44936254 0)
(50.897871 0.37017541 3.9657834e-19)
(50.894457 0.28943051 3.8893978e-19)
(50.891315 0.20892282 0)
(50.889574 0.12545243 -7.4812708e-19)
(50.888014 0.043160953 0)
(37.009787 27.608088 1.0147031e-20)
(37.877543 27.060972 -9.9205533e-21)
(38.707507 26.57914 4.7487622e-21)
(39.49634 26.098699 0)
(40.245323 25.614512 -8.7633586e-21)
(40.956661 25.131497 1.6885321e-20)
(41.632751 24.654204 8.1428495e-21)
(42.276113 24.185372 -7.8723096e-21)
(42.889422 23.726934 0)
(43.47549 23.280328 7.3838217e-21)
(44.037189 22.846499 0)
(44.577342 22.425868 -6.9658267e-21)
(45.098567 22.018345 9.9404609e-25)
(45.603066 21.623365 -6.6071305e-21)
(46.092392 21.240069 0)
(46.567474 20.867481 0)
(47.02859 20.504638 9.1208222e-25)
(47.475433 20.150797 -6.0443516e-21)
(47.907421 19.805622 5.9340004e-21)
(48.324153 19.469102 5.833645e-21)
(48.725479 19.141338 -7.9835977e-25)
(49.111474 18.822493 0)
(49.482631 18.512611 -5.5979274e-21)
(49.839618 18.211433 5.5379381e-21)
(50.183024 17.918435 5.4965833e-21)
(50.513249 17.632924 5.4612152e-21)
(50.830483 17.35411 -2.1758428e-20)
(51.13471 17.081129 0)
(51.425721 16.813064 -5.4356567e-21)
(51.703116 16.548945 5.4547979e-21)
(51.966311 16.287746 -1.6474779e-20)
(52.214534 16.02838 5.5450407e-21)
(52.44682 15.769689 0)
(52.662006 15.510427 -1.7152162e-20)
(52.858721 15.249246 -5.8430761e-21)
(53.035383 14.98464 -5.9953786e-21)
(53.190192 14.715002 -2.4748944e-20)
(53.321181 14.439048 2.5684024e-20)
(53.425195 14.151263 6.3897933e-25)
(53.499843 13.856816 -3.4888147e-20)
(53.544213 13.550186 0)
(53.552636 13.224464 3.1904639e-20)
(53.52359 12.883138 -3.4388566e-20)
(53.454815 12.520948 0)
(53.344874 12.137246 -5.1270224e-20)
(53.195084 11.732548 1.1331303e-20)
(53.011457 11.310613 -6.2847723e-20)
(52.807535 10.881057 8.3395288e-20)
(52.60551 10.461161 1.0617826e-19)
(52.430532 10.071775 0)
(52.298476 9.725741 5.0600951e-20)
(52.208591 9.42116 1.7250392e-20)
(52.149145 9.147337 -1.7437741e-20)
(52.107604 8.8936056 1.7525849e-20)
(52.075351 8.6529932 1.7550171e-20)
(52.047607 8.4217143 -1.7531246e-20)
(52.021692 8.1978153 0)
(51.996603 7.9802731 7.3778756e-24)
(51.971725 7.7685974 1.734928e-20)
(51.94698 7.5624105 -1.7249733e-20)
(51.92275 7.3615485 0)
(51.898583 7.1659694 1.700604e-20)
(51.874332 6.9752832 -2.8669186e-19)
(51.850421 6.789263 -1.6711555e-20)
(51.826678 6.6080128 1.6543151e-20)
(51.802642 6.4310816 -1.1464133e-19)
(51.778799 6.2583772 -1.6203799e-20)
(51.755236 6.0898327 -1.2811501e-19)
(51.731364 5.9252555 0)
(51.707762 5.7643618 0)
(51.684458 5.6072026 0)
(51.660938 5.4535855 -1.1416059e-19)
(51.637776 5.3033306 3.4394146e-24)
(51.614992 5.1564847 -7.4005496e-21)
(51.59205 5.0128484 0)
(51.569493 4.8723264 -2.2998202e-19)
(51.547251 4.7348753 -7.0789898e-21)
(51.524847 4.6003737 2.3004417e-19)
(51.502818 4.4687409 -6.862853e-21)
(51.481007 4.3398807 -2.0939821e-19)
(51.45923 4.2137429 -2.1270773e-19)
(51.437839 4.0901977 0)
(51.416576 3.9691744 4.1812834e-19)
(51.395608 3.850565 1.8978908e-19)
(51.375106 3.7342729 6.220523e-21)
(51.354735 3.6203151 -1.9570249e-19)
(51.334802 3.5085769 -1.9236831e-19)
(51.315352 3.3989699 0)
(51.296055 3.2914847 1.7997435e-19)
(51.277176 3.1860082 5.7040287e-21)
(51.25873 3.0823602 0)
(51.240601 2.9806527 1.7062367e-19)
(51.222922 2.8807451 -3.3514021e-19)
(51.205646 2.7824208 6.946082e-26)
(51.188747 2.685758 3.3360407e-19)
(51.172372 2.590668 -6.6022363e-19)
(51.156426 2.4970376 0)
(51.140814 2.4048197 3.1572317e-19)
(51.125699 2.3139839 0)
(51.110999 2.2244869 2.994876e-19)
(51.09658 2.1362057 9.3323815e-21)
(51.082534 2.0491893 -4.5799326e-21)
(51.068936 1.9632891 -2.4455439e-24)
(51.055594 1.8784863 -2.8234586e-19)
(51.042642 1.79471 -2.7276244e-19)
(51.030168 1.7118283 -4.248789e-21)
(51.017997 1.6299143 0)
(51.006276 1.548726 0)
(50.995015 1.4682343 -2.5692831e-19)
(50.984118 1.3884943 5.0417975e-19)
(50.973716 1.3091951 0)
(50.963849 1.2304433 0)
(50.954429 1.1520322 -4.7798251e-19)
(50.945566 1.0739891 -9.3235127e-19)
(50.93725 0.99609367 1.7898684e-21)
(50.929417 0.91835867 8.9895534e-19)
(50.922088 0.84069416 8.8008579e-19)
(50.915254 0.7630182 -4.3248335e-19)
(50.908908 0.68522684 0)
(50.903147 0.60713021 -8.1266413e-22)
(50.897814 0.52882731 -4.0730533e-19)
(50.893182 0.44976446 0)
(50.888934 0.37050177 0)
(50.885603 0.28968966 -3.8461873e-19)
(50.882523 0.20910173 -5.5307056e-22)
(50.880823 0.12555395 3.7045156e-19)
(50.879281 0.043201269 0)
(36.483441 26.933219 4.6559016e-21)
(37.333198 26.460975 9.1588773e-21)
(38.155721 26.049568 -4.4133818e-21)
(38.946072 25.635631 8.5137639e-21)
(39.702911 25.21377 -8.2264335e-21)
(40.426549 24.788394 -7.9600435e-21)
(41.11813 24.363897 0)
(41.779261 23.943067 -9.948001e-25)
(42.411868 23.527947 7.2714111e-21)
(43.018102 23.120139 3.1637013e-24)
(43.600228 22.720802 6.8884196e-21)
(44.160514 22.330643 6.7137959e-21)
(44.70109 21.949921 1.6458047e-24)
(45.223798 21.578496 6.4082349e-21)
(45.730038 21.215942 6.2708632e-21)
(46.220738 20.861683 -4.320969e-25)
(46.696333 20.515119 -6.0294849e-21)
(47.156822 20.175776 9.1784221e-25)
(47.601965 19.843431 8.5342538e-25)
(48.031548 19.518078 -5.7425566e-21)
(48.445481 19.199822 -5.69166e-26)
(48.843845 18.888811 5.6019859e-21)
(49.226973 18.585116 -2.1204406e-25)
(49.595329 18.288599 1.6501345e-20)
(49.949348 17.998906 -1.6399422e-20)
(50.289344 17.71551 -1.0889969e-20)
(50.615464 17.437757 1.6298573e-20)
(50.927677 17.164894 0)
(51.225769 16.896091 0)
(51.509342 16.630445 1.644895e-20)
(51.777813 16.366979 -5.5323978e-21)
(52.030407 16.104639 -5.5979821e-21)
(52.266152 15.842281 -2.2741617e-20)
(52.483871 15.578664 5.7970153e-21)
(52.682167 15.312428 1.7812074e-20)
(52.859419 15.042043 6.1098111e-21)
(53.013745 14.765883 -1.2643203e-20)
(53.142902 14.482729 -6.5761867e-21)
(53.244794 14.185964 -2.7398624e-20)
(53.316326 13.884366 3.5976523e-20)
(53.356041 13.566253 7.6917471e-21)
(53.35836 13.229938 -8.2729337e-21)
(53.322627 12.876898 0)
(53.246682 12.502431 9.7512423e-21)
(53.129974 12.106533 -1.0718545e-20)
(52.975287 11.690785 0)
(52.791051 11.260912 5.2507668e-20)
(52.593909 10.82935 -1.4436464e-20)
(52.407896 10.415559 -3.1219568e-20)
(52.255651 10.038722 -1.6490136e-20)
(52.146773 9.706224 0)
(52.075575 9.4118686 -8.6656694e-20)
(52.029335 9.1442768 -3.4937509e-20)
(51.996957 8.8939153 3.505065e-20)
(51.97148 8.6551129 -5.2589137e-20)
(51.949233 8.4248531 -7.0000783e-20)
(51.928073 8.2015969 0)
(51.907331 7.9845073 7.4823867e-24)
(51.886497 7.7731762 1.7284638e-20)
(51.865559 7.5672795 -1.3742315e-19)
(51.844999 7.366651 -1.7055005e-20)
(51.824289 7.171277 -1.3536148e-19)
(51.803278 6.9807468 1.3417844e-19)
(51.782487 6.7948344 -1.3292106e-19)
(51.761716 6.6136772 2.6316223e-19)
(51.740454 6.4367888 -1.3018783e-19)
(51.719286 6.2641169 1.2873088e-19)
(51.698287 6.0955707 1.2722564e-19)
(51.676802 5.9309763 -1.0997516e-19)
(51.655501 5.7700506 -1.5511936e-20)
(51.634407 5.6128376 -1.2247451e-19)
(51.612959 5.4591607 1.2082173e-19)
(51.591799 5.3088415 -1.3403864e-19)
(51.570932 5.1619109 7.3403083e-21)
(51.549791 5.0181799 7.2337611e-21)
(51.528968 4.8775656 2.2804028e-19)
(51.508383 4.7399933 0)
(51.487542 4.6053722 -2.2113187e-19)
(51.467022 4.4736181 6.802462e-21)
(51.446649 4.3446262 2.142227e-19)
(51.426237 4.2183673 2.1078555e-19)
(51.406164 4.0946877 -6.4799885e-21)
(51.386148 3.9735418 -4.079048e-19)
(51.366368 3.8548102 2.0056335e-19)
(51.34702 3.7383907 0)
(51.327746 3.6243104 1.9384915e-19)
(51.308862 3.5124661 1.845787e-19)
(51.290416 3.4027433 5.8513508e-21)
(51.272072 3.2951528 1.7823886e-19)
(51.254093 3.1895781 5.6486033e-21)
(51.236507 3.0858114 0)
(51.219211 2.9840015 2.2351117e-24)
(51.202307 2.8839999 5.3522535e-21)
(51.185768 2.7855568 -3.4162925e-19)
(51.169587 2.68879 -6.6057852e-19)
(51.153889 2.5935953 3.2935499e-19)
(51.138587 2.4998475 -4.9746321e-21)
(51.123591 2.4075142 -6.2511614e-19)
(51.109067 2.3165622 3.0203211e-19)
(51.094928 2.2269446 9.4118104e-21)
(51.081045 2.1385421 4.7059657e-26)
(51.067515 2.0514041 4.4756852e-26)
(51.054402 1.9653895 2.8031655e-19)
(51.041525 1.8804625 2.838403e-19)
(51.029009 1.7965744 -4.2876612e-21)
(51.016955 1.7135777 2.6915053e-19)
(51.005177 1.6315621 -2.0634124e-21)
(50.993821 1.5502722 2.6321432e-19)
(50.982917 1.4696807 5.0461555e-19)
(50.972351 1.3898522 3.8985031e-21)
(50.962259 1.3104621 -3.8248901e-21)
(50.952686 1.2316231 -1.1703033e-26)
(50.943543 1.1531274 -4.7122457e-19)
(50.934934 1.0750084 4.6407993e-19)
(50.926853 0.99702973 -4.5348222e-19)
(50.919241 0.91921627 -4.4483873e-19)
(50.912119 0.84147454 2.5781983e-24)
(50.905472 0.76372372 4.2801318e-19)
(50.899295 0.6858561 0)
(50.893688 0.60768446 4.1178217e-19)
(50.888492 0.52930614 4.0466785e-19)
(50.883978 0.45017181 2.1733424e-27)
(50.879829 0.37083284 -3.8925703e-19)
(50.876581 0.28995265 0)
(50.873565 0.2092839 -3.7365702e-19)
(50.871907 0.12565849 8.9463049e-23)
(50.870384 0.043243218 -8.7566114e-23)
(36.034495 26.243354 0)
(36.867432 25.845178 -4.2471428e-21)
(37.679146 25.499532 8.2317377e-21)
(38.465388 25.147972 -7.9833557e-21)
(39.223632 24.785649 -1.5492199e-20)
(39.952962 24.416106 2.2587619e-20)
(40.653584 24.043243 7.3230738e-21)
(41.326341 23.669732 -1.426525e-20)
(41.972486 23.29765 6.952137e-21)
(42.593555 22.928707 -1.3571404e-20)
(43.191247 22.564236 -1.3259419e-20)
(43.767313 22.20518 6.4852182e-21)
(44.323438 21.852097 -1.269639e-20)
(44.86112 21.505205 0)
(45.381562 21.164451 0)
(45.885623 20.829619 0)
(46.373801 20.500427 0)
(46.846272 20.176647 0)
(47.303009 19.85818 -1.1457791e-20)
(47.743937 19.545065 -1.1316728e-20)
(48.169032 19.237424 -5.5964078e-21)
(48.578372 18.935399 -5.5418197e-21)
(48.97218 18.639081 -1.1000292e-20)
(49.35076 18.348413 0)
(49.714408 18.063161 -5.443648e-21)
(50.063337 17.782929 1.6294457e-20)
(50.397629 17.507188 0)
(50.717212 17.235291 0)
(51.021847 16.966495 5.4734635e-21)
(51.311118 16.699965 -5.513673e-21)
(51.584424 16.434776 1.1152148e-20)
(51.840975 16.169906 1.131205e-20)
(52.079779 15.904234 -2.1847808e-24)
(52.299632 15.636523 0)
(52.499106 15.365401 -1.208651e-20)
(52.676534 15.089327 0)
(52.829946 14.806734 1.9405132e-20)
(52.956809 14.51625 6.1089187e-25)
(53.056077 14.210668 -1.056338e-24)
(53.123993 13.900919 3.7173202e-20)
(53.158351 13.571299 -3.1899595e-20)
(53.1542 13.224335 -3.4388432e-20)
(53.111434 12.859185 0)
(53.028247 12.472364 0)
(52.905229 12.06458 0)
(52.747013 11.638839 -3.7219049e-20)
(52.564839 11.203252 -6.8464832e-20)
(52.378333 10.773158 -1.4954067e-20)
(52.212032 10.369074 -4.8029337e-20)
(52.084155 10.006645 0)
(51.9978 9.6874795 0)
(51.943747 9.4023578 6.9545553e-20)
(51.909399 9.1401929 0)
(51.885418 8.8927614 -8.7557388e-20)
(51.866362 8.6556242 1.7495025e-20)
(51.849479 8.426377 1.7458786e-20)
(51.833042 8.203822 5.2188204e-20)
(51.816667 7.9872709 -1.3849901e-19)
(51.799912 7.7763724 1.3771317e-19)
(51.782821 7.5708648 1.1969117e-19)
(51.765978 7.3705598 1.6969847e-20)
(51.748766 7.1754742 1.5145405e-19)
(51.731029 6.985179 1.3341208e-19)
(51.713399 6.7994494 -1.6518831e-20)
(51.69564 6.6184514 -1.3073566e-19)
(51.677183 6.4416666 2.5862977e-19)
(51.658728 6.2690909 1.4382048e-19)
(51.640329 6.1005925 -1.5788763e-20)
(51.621263 5.9360308 2.6509349e-19)
(51.602298 5.7751237 3.3671111e-25)
(51.583447 5.6178979 9.1131007e-20)
(51.564105 5.464202 1.348344e-19)
(51.544978 5.3138599 0)
(51.526058 5.1668769 0)
(51.506745 5.0230833 0)
(51.487685 4.8824099 0)
(51.468783 4.7447413 0)
(51.44953 4.6100276 0)
(51.430545 4.478178 2.0896829e-19)
(51.411636 4.3490753 6.6331616e-21)
(51.392612 4.2227212 2.088372e-19)
(51.373882 4.0989233 0)
(51.355136 3.9776736 2.0202368e-19)
(51.336565 3.8588407 3.5530426e-24)
(51.318393 3.7423095 6.1030475e-21)
(51.300238 3.6281211 -5.9991049e-21)
(51.282422 3.5161862 -1.9457311e-19)
(51.264999 3.4063593 1.1587838e-20)
(51.247628 3.2986764 -1.1382862e-20)
(51.230563 3.1930156 1.1184969e-20)
(51.213854 3.0891394 -1.7578465e-19)
(51.197409 2.9872361 2.3241849e-24)
(51.181293 2.8871501 -5.2982362e-21)
(51.165504 2.7885948 3.2776432e-19)
(51.150057 2.691731 3.320442e-19)
(51.135047 2.5964393 0)
(51.120399 2.5025794 3.1513063e-19)
(51.106031 2.4101366 3.0452404e-19)
(51.09211 2.3190743 4.747991e-21)
(51.078542 2.2293403 0)
(51.065205 2.1408208 -4.5714647e-21)
(51.0522 2.0535656 -2.8266657e-19)
(51.039583 1.96744 0)
(51.027178 1.882392 -2.8089775e-19)
(51.015109 1.798395 8.4795696e-21)
(51.003483 1.7152862 -5.4101758e-19)
(50.992107 1.6331713 4.0837556e-21)
(50.981123 1.5517829 -2.5645646e-19)
(50.970584 1.4710937 -2.5163448e-19)
(50.960356 1.3911794 -4.9378629e-19)
(50.95058 1.3117012 0)
(50.941308 1.2327768 0)
(50.932448 1.1541991 4.6445166e-19)
(50.924099 1.0760058 4.5920537e-19)
(50.916257 0.9979463 4.5046268e-19)
(50.908871 0.92005627 4.3672093e-19)
(50.901959 0.84223948 -4.3006886e-19)
(50.895503 0.76441522 1.6543176e-21)
(50.889499 0.68647363 -8.1132134e-22)
(50.884049 0.60822808 -8.1487661e-19)
(50.878992 0.52977627 -7.8050531e-22)
(50.874599 0.45057134 -3.9194124e-19)
(50.870552 0.37115752 7.6841899e-19)
(50.867389 0.29021059 3.7735949e-19)
(50.864437 0.20946259 7.3942499e-19)
(50.862821 0.12576108 3.6266277e-19)
(50.861319 0.043284818 3.5479649e-19)
(35.658888 25.546837 0)
(36.475709 25.22257 -3.9593302e-21)
(37.274454 24.938496 1.5414291e-20)
(38.052232 24.644841 -1.1260053e-20)
(38.806423 24.338345 7.3189304e-21)
(39.53559 24.021758 -7.1397539e-21)
(40.239366 23.698366 -6.9715872e-21)
(40.918027 23.370623 1.3624628e-20)
(41.572268 23.040566 -6.6646833e-21)
(42.203083 22.709941 6.5241333e-21)
(42.811658 22.380191 1.9176501e-20)
(43.399272 22.052432 -1.8808491e-20)
(43.967194 21.727455 1.8465821e-20)
(44.516592 21.405757 -6.0499052e-21)
(45.048448 21.087589 0)
(45.563504 20.773033 0)
(46.062249 20.462079 1.1384257e-24)
(46.544933 20.15471 5.705531e-21)
(47.01164 19.850961 5.6381567e-21)
(47.46238 19.550936 5.579165e-21)
(47.897167 19.254785 5.5297656e-21)
(48.316067 18.962663 5.490056e-21)
(48.719218 18.67468 -1.0920497e-20)
(49.106803 18.390832 1.6312742e-20)
(49.478995 18.110975 5.4271595e-21)
(49.835904 17.834815 5.4255962e-21)
(50.177534 17.561925 0)
(50.503753 17.291754 0)
(50.814276 17.02364 1.6506994e-20)
(51.108653 16.756812 -1.6670431e-20)
(51.386251 16.490396 0)
(51.646249 16.223404 5.7256078e-21)
(51.88762 15.954733 1.7524852e-20)
(52.109125 15.68315 0)
(52.309295 15.40727 -6.1627173e-21)
(52.486423 15.125547 -6.0048803e-25)
(52.638444 14.836543 1.9897499e-20)
(52.762466 14.538409 2.0825723e-20)
(52.858486 14.224224 -7.2680173e-21)
(52.922372 13.905635 4.5704584e-24)
(52.950683 13.564446 -4.659155e-24)
(52.939683 13.206475 3.5809031e-20)
(52.889625 12.828954 0)
(52.799363 12.429834 -1.0667104e-20)
(52.670901 12.01076 5.8788801e-20)
(52.511155 11.576585 1.2978432e-20)
(52.334452 11.138203 6.8851529e-25)
(52.162821 10.713541 -1.5439695e-20)
(52.019465 10.322487 8.1768287e-20)
(51.916606 9.9755421 5.9783736e-25)
(51.851452 9.6690364 -1.7266912e-20)
(51.81285 9.3921201 -6.9692713e-20)
(51.789152 9.134705 6.9934221e-20)
(51.772902 8.8898759 6.9962833e-20)
(51.759978 8.6543415 1.3970165e-19)
(51.748354 8.4261447 0)
(51.736616 8.204376 -6.9341931e-20)
(51.724628 7.9884683 0)
(51.711989 7.7780999 -2.7419522e-19)
(51.698782 7.5730938 -1.3612723e-19)
(51.685702 7.3732102 -1.6879847e-20)
(51.672025 7.1785005 1.6732129e-20)
(51.657594 6.9885247 -1.3259579e-19)
(51.643163 6.8030591 1.476677e-19)
(51.628454 6.6222881 -3.2465462e-20)
(51.612834 6.4456703 -1.1235869e-19)
(51.59713 6.2732599 -1.2691049e-19)
(51.581367 6.104859 0)
(51.564753 5.9403824 -1.0831243e-19)
(51.548158 5.7795487 -1.3744515e-19)
(51.531586 5.6223523 0)
(51.514381 5.4686807 -1.3371051e-19)
(51.497318 5.3183604 2.929105e-20)
(51.480376 5.1713587 -1.4431937e-20)
(51.462919 5.0275369 0)
(51.445649 4.8868411 -2.2404793e-19)
(51.428457 4.7491029 -1.3787132e-20)
(51.410818 4.6143263 1.3571574e-20)
(51.393395 4.4824101 -2.1370008e-19)
(51.375976 4.3532177 2.1684173e-19)
(51.358362 4.2267973 4.3634487e-24)
(51.341 4.1028991 -1.2715627e-20)
(51.323548 3.9815645 2.0632407e-19)
(51.306207 3.8626543 -1.9670839e-19)
(51.289232 3.7460284 0)
(51.272217 3.6317483 1.9007142e-19)
(51.25549 3.5197398 1.8095359e-19)
(51.23911 3.4098211 5.7356851e-21)
(51.22273 3.3020598 -1.8032652e-19)
(51.206595 3.1963255 1.7160686e-19)
(51.190777 3.0923499 1.8486185e-19)
(51.175201 2.9903624 -1.7621469e-19)
(51.159886 2.8902019 -5.2437665e-21)
(51.144858 2.7915418 5.1488817e-21)