/*--------------------------------*- C++ -*----------------------------------*\
| =========                 |                                                 |
| \\      /  F ield         | OpenFOAM: The Open Source CFD Toolbox           |
|  \\    /   O peration     | Version:  2406                                  |
|   \\  /    A nd           | Website:  www.openfoam.com                      |
|    \\/     M anipulation  |                                                 |
\*---------------------------------------------------------------------------*/
FoamFile
{
    version     2.0;
    format      ascii;
    arch        "LSB;label=32;scalar=64";
    class       volScalarField;
    location    "0.012";
    object      p;
}
// * * * * * * * * * * * * * * * * * * * * * * * * * * * * * * * * * * * * * //

dimensions      [1 -1 -2 0 0 0 0];

internalField   nonuniform List<scalar> 
23203
(
100310.79
100312.52
100314.53
100316.6
100318.9
100321.48
100324.34
100327.46
100330.85
100334.49
100338.38
100342.52
100346.89
100351.5
100356.34
100361.42
100366.73
100372.28
100378.07
100384.11
100390.39
100396.92
100403.7
100321.85
100323.56
100325.6
100327.69
100329.98
100332.54
100335.36
100338.43
100341.75
100345.31
100349.11
100353.15
100357.41
100361.9
100366.62
100371.56
100376.73
100382.13
100387.76
100393.63
100399.73
100406.08
100412.67
100332.81
100334.54
100336.61
100338.72
100341.02
100343.56
100346.35
100349.38
100352.64
100356.13
100359.84
100363.78
100367.94
100372.31
100376.9
100381.71
100386.74
100391.98
100397.45
100403.15
100409.08
100415.25
100421.65
100343.68
100345.45
100347.55
100349.69
100352
100354.54
100357.31
100360.3
100363.51
100366.93
100370.57
100374.41
100378.46
100382.72
100387.19
100391.86
100396.74
100401.84
100407.15
100412.68
100418.44
100424.43
100430.64
100354.44
100356.25
100358.4
100360.58
100362.91
100365.46
100368.22
100371.18
100374.34
100377.7
100381.26
100385.02
100388.97
100393.12
100397.46
100402
100406.75
100411.69
100416.85
100422.21
100427.8
100433.61
100365.08
100366.94
100369.15
100371.37
100373.74
100376.3
100379.06
100382
100385.12
100388.43
100391.92
100395.59
100399.45
100403.49
100407.71
100412.12
100416.73
100421.53
100426.53
100431.73
100437.15
100442.78
100375.59
100377.52
100379.78
100382.06
100384.47
100387.05
100389.81
100392.74
100395.83
100399.09
100402.52
100406.11
100409.87
100413.81
100417.92
100422.21
100426.68
100431.33
100436.18
100441.23
100446.48
100451.94
100385.96
100387.95
100390.28
100392.62
100395.08
100397.69
100400.46
100403.38
100406.45
100409.67
100413.04
100416.56
100420.24
100424.07
100428.07
100432.24
100436.58
100441.1
100445.8
100450.69
100455.78
100461.06
100396.2
100398.26
100400.65
100403.05
100405.55
100408.2
100410.99
100413.91
100416.96
100420.14
100423.46
100426.92
100430.52
100434.26
100438.16
100442.21
100446.42
100450.8
100455.36
100460.1
100465.03
100470.15
100406.21
100408.36
100410.84
100413.32
100415.88
100418.57
100421.38
100424.31
100427.35
100430.5
100433.78
100437.18
100440.7
100444.36
100448.15
100452.09
100456.19
100460.44
100464.86
100469.45
100474.23
100479.18
100416.09
100418.33
100420.89
100423.44
100426.06
100428.79
100431.63
100434.57
100437.6
100440.73
100443.97
100447.31
100450.77
100454.34
100458.05
100461.89
100465.87
100470
100474.28
100478.74
100483.36
100488.16
100425.84
100428.15
100430.78
100433.4
100436.08
100438.85
100441.72
100444.67
100447.7
100450.81
100454.02
100457.31
100460.71
100464.21
100467.83
100471.57
100475.44
100479.46
100483.62
100487.94
100492.42
100497.07
100435.41
100437.8
100440.5
100443.19
100445.93
100448.74
100451.64
100454.6
100457.64
100460.74
100463.91
100467.17
100470.51
100473.94
100477.48
100481.13
100484.91
100488.81
100492.85
100497.05
100501.4
100505.91
100444.82
100447.28
100450.05
100452.8
100455.6
100458.46
100461.38
100464.36
100467.4
100470.49
100473.64
100476.86
100480.15
100483.53
100487
100490.56
100494.25
100498.05
100501.98
100506.05
100510.28
100514.66
100454.07
100456.59
100459.43
100462.24
100465.08
100467.99
100470.94
100473.94
100476.98
100480.06
100483.2
100486.38
100489.63
100492.95
100496.36
100499.85
100503.45
100507.16
100510.99
100514.95
100519.06
100523.31
100463.14
100465.73
100468.63
100471.49
100474.38
100477.32
100480.31
100483.32
100486.37
100489.45
100492.57
100495.73
100498.94
100502.22
100505.56
100508.99
100512.51
100516.13
100519.87
100523.73
100527.72
100531.86
100472.05
100474.75
100477.67
100480.58
100483.5
100486.47
100489.48
100492.51
100495.56
100498.64
100501.75
100504.89
100508.07
100511.3
100514.6
100517.96
100521.42
100524.96
100528.61
100532.38
100536.27
100540.3
100480.8
100483.46
100486.45
100489.43
100492.4
100495.41
100498.45
100501.5
100504.56
100507.64
100510.73
100513.86
100517.01
100520.21
100523.46
100526.77
100530.16
100533.64
100537.21
100540.89
100544.69
100548.62
100489.35
100492.07
100495.1
100498.11
100501.13
100504.16
100507.22
100510.28
100513.35
100516.43
100519.52
100522.63
100525.76
100528.93
100532.15
100535.41
100538.75
100542.16
100545.67
100549.27
100552.99
100556.82
100497.74
100500.52
100503.58
100506.62
100509.66
100512.72
100515.79
100518.87
100521.95
100525.03
100528.11
100531.21
100534.33
100537.47
100540.65
100543.88
100547.17
100550.53
100553.97
100557.5
100561.14
100564.89
100505.97
100508.78
100511.87
100514.94
100518
100521.08
100524.17
100527.26
100530.34
100533.42
100536.51
100539.6
100542.7
100545.82
100548.98
100552.17
100555.42
100558.73
100562.12
100565.59
100569.16
100572.84
100514.02
100516.85
100519.97
100523.06
100526.15
100529.24
100532.34
100535.44
100538.54
100541.62
100544.7
100547.79
100550.88
100553.99
100557.12
100560.29
100563.5
100566.77
100570.11
100573.53
100577.04
100580.65
100521.88
100524.74
100527.88
100531
100534.1
100537.21
100540.33
100543.44
100546.53
100549.62
100552.71
100555.79
100558.87
100561.97
100565.08
100568.23
100571.41
100574.65
100577.95
100581.32
100584.78
100588.33
100529.52
100532.45
100535.66
100538.77
100541.88
100544.99
100548.12
100551.23
100554.34
100557.43
100560.52
100563.6
100566.68
100569.76
100572.86
100575.99
100579.16
100582.37
100585.63
100588.97
100592.38
100595.87
100537.1
100540
100543.14
100546.29
100549.42
100552.56
100555.7
100558.83
100561.95
100565.05
100568.14
100571.22
100574.3
100577.38
100580.47
100583.59
100586.73
100589.92
100593.16
100596.46
100599.84
100603.28
100544.45
100547.32
100550.45
100553.62
100556.78
100559.94
100563.1
100566.24
100569.36
100572.47
100575.57
100578.66
100581.74
100584.82
100587.91
100591.02
100594.15
100597.32
100600.54
100603.81
100607.15
100610.56
100551.54
100554.45
100557.63
100560.81
100563.98
100567.15
100570.31
100573.46
100576.6
100579.72
100582.82
100585.92
100589
100592.08
100595.17
100598.28
100601.4
100604.56
100607.76
100611.01
100614.33
100617.71
100558.48
100561.42
100564.61
100567.81
100570.99
100574.16
100577.34
100580.5
100583.65
100586.78
100589.9
100593
100596.09
100599.18
100602.27
100605.38
100608.5
100611.65
100614.84
100618.08
100621.37
100624.72
100565.22
100568.16
100571.4
100574.65
100577.83
100581.01
100584.19
100587.36
100590.52
100593.67
100596.79
100599.91
100603.01
100606.11
100609.21
100612.32
100615.44
100618.59
100621.77
100625
100628.28
100631.61
100571.84
100574.81
100578.01
100581.22
100584.42
100587.63
100590.83
100594.03
100597.21
100600.37
100603.51
100606.64
100609.76
100612.87
100615.98
100619.1
100622.23
100625.38
100628.56
100631.78
100635.05
100638.37
100578.24
100581.22
100584.4
100587.6
100590.83
100594.07
100597.3
100600.51
100603.71
100606.9
100610.06
100613.21
100616.35
100619.47
100622.6
100625.73
100628.87
100632.02
100635.21
100638.43
100641.69
100645
100584.41
100587.38
100590.59
100593.84
100597.09
100600.34
100603.59
100606.83
100610.05
100613.25
100616.44
100619.61
100622.77
100625.92
100629.06
100632.2
100635.36
100638.53
100641.72
100644.94
100648.21
100651.52
100590.4
100593.37
100596.59
100599.9
100603.2
100606.46
100609.72
100612.97
100616.21
100619.44
100622.65
100625.85
100629.03
100632.2
100635.37
100638.53
100641.7
100644.89
100648.09
100651.32
100654.59
100657.9
100596.24
100599.24
100602.49
100605.76
100609.03
100612.32
100615.62
100618.91
100622.19
100625.45
100628.69
100631.92
100635.13
100638.33
100641.52
100644.71
100647.9
100651.1
100654.33
100657.57
100660.86
100664.17
100601.86
100604.86
100608.11
100611.4
100614.69
100618.03
100621.36
100624.68
100627.99
100631.28
100634.56
100637.82
100641.06
100644.29
100647.52
100650.74
100653.96
100657.18
100660.43
100663.69
100666.99
100670.32
100607.28
100610.26
100613.52
100616.83
100620.22
100623.61
100626.95
100630.29
100633.63
100636.95
100640.26
100643.56
100646.84
100650.11
100653.36
100656.62
100659.87
100663.13
100666.4
100669.69
100673
100676.35
100612.55
100615.54
100618.82
100622.19
100625.54
100628.9
100632.29
100635.69
100639.07
100642.44
100645.79
100649.13
100652.45
100655.76
100659.06
100662.35
100665.64
100668.93
100672.23
100675.55
100678.89
100682.26
100617.6
100620.58
100623.86
100627.23
100630.6
100634.04
100637.52
100640.94
100644.35
100647.76
100651.16
100654.54
100657.9
100661.26
100664.6
100667.93
100671.26
100674.59
100677.93
100681.28
100684.65
100688.05
100622.49
100625.45
100628.75
100632.16
100635.6
100639.05
100642.51
100645.98
100649.44
100652.9
100656.34
100659.77
100663.19
100666.59
100669.98
100673.36
100676.74
100680.11
100683.49
100686.88
100690.29
100693.72
100627.2
100630.14
100633.45
100636.9
100640.38
100643.82
100647.28
100650.8
100654.33
100657.85
100661.35
100664.83
100668.31
100671.76
100675.21
100678.64
100682.07
100685.49
100688.92
100692.35
100695.8
100699.27
100631.71
100634.62
100637.91
100641.37
100644.86
100648.36
100651.96
100655.57
100659.12
100662.66
100666.21
100669.74
100673.27
100676.78
100680.28
100683.77
100687.25
100690.72
100694.2
100697.69
100701.18
100704.69
100636.07
100638.95
100642.26
100645.76
100649.31
100652.88
100656.42
100659.98
100663.61
100667.24
100670.85
100674.45
100678.04
100681.62
100685.18
100688.73
100692.27
100695.81
100699.34
100702.88
100706.44
100710
100640.24
100643.07
100646.36
100649.88
100653.45
100657.02
100660.62
100664.33
100668.06
100671.72
100675.37
100679.02
100682.67
100686.3
100689.93
100693.54
100697.15
100700.74
100704.34
100707.94
100711.55
100715.17
100644.28
100647.05
100650.33
100653.88
100657.49
100661.13
100664.79
100668.42
100672.15
100675.96
100679.68
100683.39
100687.1
100690.8
100694.5
100698.18
100701.86
100705.52
100709.19
100712.86
100716.53
100720.21
100648.15
100650.85
100654.12
100657.68
100661.33
100665
100668.71
100672.43
100676.18
100679.96
100683.76
100687.56
100691.34
100695.12
100698.89
100702.65
100706.4
100710.14
100713.88
100717.62
100721.36
100725.11
100651.89
100654.49
100657.73
100661.32
100664.99
100668.69
100672.44
100676.21
100679.94
100683.8
100687.75
100691.6
100695.44
100699.28
100703.12
100706.95
100710.78
100714.6
100718.41
100722.23
100726.05
100729.87
100655.49
100657.99
100661.2
100664.8
100668.5
100672.23
100676.01
100679.84
100683.69
100687.53
100691.39
100695.34
100699.28
100703.22
100707.14
100711.06
100714.97
100718.88
100722.78
100726.68
100730.58
100734.48
100658.97
100661.35
100664.51
100668.11
100671.82
100675.57
100679.37
100683.22
100687.09
100690.95
100694.98
100699.08
100703.07
100707.05
100711.03
100715.02
100719.01
100722.99
100726.97
100730.96
100734.95
100738.93
100662.34
100664.59
100667.7
100671.3
100675.03
100678.8
100682.63
100686.52
100690.46
100694.42
100698.31
100702.37
100706.58
100710.66
100714.71
100718.78
100722.85
100726.92
100730.99
100735.06
100739.14
100743.22
100665.63
100667.72
100670.76
100674.36
100678.09
100681.86
100685.7
100689.61
100693.58
100697.59
100701.6
100705.59
100709.79
100714.09
100718.23
100722.36
100726.5
100730.66
100734.82
100738.98
100743.16
100747.33
100668.84
100670.76
100673.73
100677.31
100681.04
100684.82
100688.67
100692.6
100696.6
100700.66
100704.77
100708.84
100712.95
100717.16
100721.42
100725.67
100729.92
100734.18
100738.44
100742.71
100746.98
100751.25
100672
100673.73
100676.61
100680.17
100683.88
100687.65
100691.49
100695.42
100699.42
100703.5
100707.63
100711.77
100715.82
100720.12
100724.6
100728.93
100733.23
100737.55
100741.9
100746.25
100750.62
100754.99
100675.11
100676.66
100679.43
100682.95
100686.64
100690.39
100694.22
100698.14
100702.15
100706.24
100710.39
100714.6
100718.8
100722.93
100727.33
100731.92
100736.34
100740.73
100745.15
100749.6
100754.06
100758.53
100678.21
100679.55
100682.21
100685.69
100689.34
100693.06
100696.86
100700.77
100704.77
100708.85
100713.01
100717.24
100721.53
100725.79
100730
100734.52
100739.23
100743.73
100748.22
100752.74
100757.3
100761.86
100681.32
100682.44
100684.98
100688.4
100692.01
100695.68
100699.45
100703.32
100707.3
100711.38
100715.53
100719.77
100724.09
100728.44
100732.75
100737.04
100741.7
100746.52
100751.12
100755.7
100760.33
100764.98
100684.45
100685.34
100687.76
100691.11
100694.66
100698.28
100702
100705.83
100709.78
100713.82
100717.97
100722.2
100726.52
100730.91
100735.34
100739.68
100744.07
100748.88
100753.8
100758.48
100763.16
100767.89
100687.62
100688.29
100690.57
100693.84
100697.33
100700.88
100704.53
100708.31
100712.21
100716.22
100720.34
100724.55
100728.86
100733.26
100737.74
100742.25
100746.66
100751.17
100756.02
100760.93
100765.74
100770.56
100690.85
100691.31
100693.44
100696.63
100700.03
100703.5
100707.07
100710.78
100714.62
100718.58
100722.65
100726.83
100731.11
100735.49
100739.96
100744.51
100749.08
100753.5
100758.22
100763.23
100768.13
100773.03
100694.15
100694.4
100696.39
100699.47
100702.78
100706.16
100709.65
100713.27
100717.04
100720.93
100724.94
100729.06
100733.3
100737.64
100742.08
100746.62
100751.24
100755.85
100760.33
100765.19
100770.38
100775.37
100697.55
100697.59
100699.44
100702.41
100705.62
100708.89
100712.28
100715.81
100719.49
100723.29
100727.23
100731.29
100735.47
100739.76
100744.16
100748.66
100753.26
100757.94
100762.62
100767.21
100772.19
100777.47
100701.05
100700.9
100702.6
100705.46
100708.55
100711.71
100714.99
100718.41
100721.99
100725.7
100729.55
100733.53
100737.64
100741.87
100746.21
100750.67
100755.23
100759.9
100764.64
100769.39
100774.05
100779.13
100704.66
100704.33
100705.89
100708.62
100711.59
100714.63
100717.79
100721.1
100724.56
100728.17
100731.92
100735.8
100739.82
100743.97
100748.25
100752.64
100757.15
100761.77
100766.5
100771.31
100776.12
100780.86
100708.39
100707.9
100709.31
100711.91
100714.76
100717.67
100720.7
100723.88
100727.22
100730.71
100734.35
100738.13
100742.05
100746.11
100750.29
100754.61
100759.05
100763.61
100768.28
100773.07
100777.93
100782.81
100712.24
100711.6
100712.88
100715.34
100718.05
100720.83
100723.73
100726.78
100729.99
100733.35
100736.86
100740.52
100744.33
100748.28
100752.37
100756.59
100760.95
100765.43
100770.03
100774.75
100779.58
100784.51
100716.2
100715.44
100716.59
100718.92
100721.49
100724.12
100726.88
100729.8
100732.87
100736.09
100739.47
100743.01
100746.69
100750.52
100754.49
100758.61
100762.86
100767.25
100771.77
100776.4
100781.16
100786.05
100720.28
100719.42
100720.44
100722.63
100725.06
100727.55
100730.16
100732.93
100735.86
100738.95
100742.19
100745.58
100749.13
100752.83
100756.68
100760.67
100764.81
100769.09
100773.5
100778.05
100782.71
100787.52
100724.47
100723.53
100724.43
100726.48
100728.76
100731.11
100733.58
100736.2
100738.98
100741.92
100745.01
100748.26
100751.67
100755.23
100758.94
100762.8
100766.81
100770.97
100775.27
100779.7
100784.26
100788.98
100728.77
100727.76
100728.55
100730.45
100732.59
100734.79
100737.11
100739.59
100742.22
100745.01
100747.95
100751.05
100754.31
100757.72
100761.29
100765.01
100768.88
100772.91
100777.08
100781.38
100785.83
100790.43
100733.16
100732.1
100732.79
100734.56
100736.55
100738.6
100740.78
100743.1
100745.58
100748.22
100751
100753.95
100757.05
100760.31
100763.73
100767.3
100771.03
100774.91
100778.94
100783.11
100787.43
100791.91
100737.65
100736.55
100737.14
100738.77
100740.62
100742.53
100744.56
100746.73
100749.06
100751.54
100754.17
100756.96
100759.91
100763.01
100766.27
100769.69
100773.26
100776.99
100780.88
100784.9
100789.08
100793.43
100742.21
100741.1
100741.6
100743.09
100744.8
100746.56
100748.45
100750.47
100752.65
100754.98
100757.45
100760.08
100762.87
100765.81
100768.92
100772.17
100775.59
100779.17
100782.89
100786.77
100790.79
100795
100746.84
100745.73
100746.14
100747.51
100749.07
100750.7
100752.44
100754.32
100756.35
100758.52
100760.84
100763.32
100765.94
100768.73
100771.67
100774.76
100778.02
100781.43
100785
100788.72
100792.59
100796.65
100751.53
100750.43
100750.77
100752
100753.43
100754.93
100756.52
100758.26
100760.14
100762.17
100764.34
100766.65
100769.12
100771.75
100774.52
100777.46
100780.55
100783.8
100787.21
100790.76
100794.47
100798.37
100756.29
100755.19
100755.46
100756.58
100757.88
100759.23
100760.7
100762.3
100764.03
100765.91
100767.93
100770.09
100772.41
100774.87
100777.49
100780.26
100783.19
100786.27
100789.51
100792.91
100796.45
100800.19
100761.09
100760.02
100760.22
100761.22
100762.39
100763.62
100764.95
100766.42
100768.01
100769.75
100771.62
100773.63
100775.79
100778.1
100780.56
100783.17
100785.93
100788.85
100791.93
100795.16
100798.54
100802.12
100765.94
100764.89
100765.04
100765.92
100766.97
100768.08
100769.28
100770.62
100772.08
100773.67
100775.4
100777.27
100779.28
100781.43
100783.73
100786.18
100788.79
100791.55
100794.46
100797.52
100800.74
100804.15
100770.83
100769.81
100769.91
100770.68
100771.61
100772.6
100773.68
100774.89
100776.22
100777.68
100779.27
100781
100782.86
100784.86
100787.01
100789.31
100791.75
100794.35
100797.1
100800
100803.05
100806.3
100775.77
100774.78
100774.82
100775.49
100776.31
100777.18
100778.15
100779.24
100780.44
100781.77
100783.23
100784.82
100786.54
100788.39
100790.39
100792.54
100794.83
100797.27
100799.86
100802.59
100805.48
100808.57
100780.74
100779.78
100779.78
100780.35
100781.06
100781.83
100782.69
100783.66
100784.74
100785.95
100787.27
100788.72
100790.31
100792.03
100793.88
100795.87
100798.01
100800.3
100802.73
100805.31
100808.04
100810.97
100785.76
100784.83
100784.78
100785.26
100785.87
100786.53
100787.28
100788.14
100789.11
100790.2
100791.4
100792.72
100794.17
100795.76
100797.47
100799.32
100801.31
100803.45
100805.73
100808.15
100810.72
100813.5
100790.83
100789.92
100789.82
100790.21
100790.73
100791.29
100791.94
100792.7
100793.56
100794.53
100795.61
100796.81
100798.14
100799.58
100801.16
100802.88
100804.73
100806.71
100808.85
100811.12
100813.54
100816.16
100795.94
100795.05
100794.91
100795.22
100795.64
100796.11
100796.67
100797.32
100798.07
100798.94
100799.91
100800.99
100802.19
100803.51
100804.96
100806.54
100808.25
100810.1
100812.09
100814.21
100816.48
100818.95
100801.1
100800.23
100800.05
100800.28
100800.61
100800.99
100801.46
100802.01
100802.67
100803.42
100804.29
100805.26
100806.34
100807.54
100808.86
100810.31
100811.89
100813.6
100815.45
100817.43
100819.56
100821.88
100806.31
100805.45
100805.23
100805.38
100805.63
100805.93
100806.31
100806.78
100807.34
100807.99
100808.75
100809.61
100810.59
100811.67
100812.87
100814.2
100815.65
100817.23
100818.94
100820.78
100822.77
100824.94
100811.58
100810.73
100810.46
100810.55
100810.72
100810.94
100811.24
100811.62
100812.08
100812.65
100813.31
100814.06
100814.93
100815.9
100816.99
100818.19
100819.52
100820.97
100822.55
100824.26
100826.11
100828.15
100816.91
100816.05
100815.75
100815.77
100815.87
100816.01
100816.23
100816.53
100816.91
100817.38
100817.95
100818.61
100819.37
100820.24
100821.21
100822.3
100823.51
100824.84
100826.3
100827.88
100829.59
100831.49
100822.29
100821.43
100821.09
100821.04
100821.07
100821.15
100821.29
100821.51
100821.82
100822.2
100822.68
100823.24
100823.91
100824.67
100825.54
100826.52
100827.62
100828.83
100830.16
100831.62
100833.2
100834.97
100827.74
100826.87
100826.49
100826.38
100826.35
100826.36
100826.43
100826.58
100826.8
100827.11
100827.5
100827.97
100828.54
100829.21
100829.98
100830.86
100831.84
100832.94
100834.16
100835.49
100836.95
100838.59
100833.24
100832.36
100831.94
100831.78
100831.69
100831.63
100831.64
100831.72
100831.87
100832.1
100832.4
100832.8
100833.28
100833.85
100834.53
100835.3
100836.18
100837.17
100838.27
100839.49
100840.83
100842.35
100838.81
100837.91
100837.46
100837.24
100837.09
100836.98
100836.92
100836.93
100837.02
100837.17
100837.4
100837.71
100838.11
100838.6
100839.18
100839.85
100840.63
100841.52
100842.51
100843.62
100844.85
100846.25
100844.44
100843.52
100843.03
100842.76
100842.56
100842.39
100842.28
100842.23
100842.24
100842.33
100842.49
100842.72
100843.04
100843.44
100843.93
100844.52
100845.2
100845.99
100846.88
100847.88
100848.99
100850.28
100850.13
100849.18
100848.66
100848.35
100848.09
100847.87
100847.7
100847.59
100847.55
100847.57
100847.66
100847.82
100848.06
100848.38
100848.79
100849.29
100849.88
100850.57
100851.36
100852.26
100853.27
100854.44
100855.88
100854.91
100854.34
100853.99
100853.69
100853.42
100853.2
100853.03
100852.93
100852.89
100852.91
100853
100853.17
100853.42
100853.74
100854.16
100854.66
100855.26
100855.96
100856.76
100857.66
100858.73
100861.68
100860.68
100860.08
100859.69
100859.35
100859.03
100858.76
100858.54
100858.38
100858.28
100858.24
100858.27
100858.37
100858.55
100858.8
100859.13
100859.55
100860.06
100860.67
100861.37
100862.18
100863.14
100867.53
100866.5
100865.87
100865.44
100865.06
100864.7
100864.39
100864.12
100863.91
100863.75
100863.66
100863.62
100863.66
100863.76
100863.94
100864.2
100864.54
100864.97
100865.49
100866.1
100866.81
100867.68
100873.43
100872.38
100871.71
100871.25
100870.83
100870.43
100870.07
100869.76
100869.5
100869.29
100869.14
100869.05
100869.02
100869.06
100869.17
100869.36
100869.63
100869.97
100870.41
100870.94
100871.56
100872.33
100879.38
100878.3
100877.6
100877.1
100876.65
100876.21
100875.82
100875.46
100875.16
100874.9
100874.7
100874.55
100874.46
100874.44
100874.49
100874.61
100874.8
100875.07
100875.43
100875.87
100876.41
100877.08
100885.37
100884.25
100883.53
100883
100882.51
100882.05
100881.61
100881.22
100880.87
100880.57
100880.31
100880.12
100879.98
100879.9
100879.88
100879.93
100880.06
100880.26
100880.54
100880.9
100881.36
100881.95
100891.4
100890.25
100889.49
100888.94
100888.42
100887.92
100887.45
100887.02
100886.63
100886.29
100885.99
100885.74
100885.55
100885.42
100885.34
100885.34
100885.4
100885.53
100885.74
100886.02
100886.4
100886.9
100897.45
100896.27
100895.49
100894.91
100894.37
100893.84
100893.34
100892.87
100892.44
100892.06
100891.72
100891.43
100891.19
100891
100890.87
100890.81
100890.81
100890.87
100891.01
100891.23
100891.53
100891.95
100903.53
100902.33
100901.52
100900.92
100900.35
100899.79
100899.26
100898.76
100898.3
100897.88
100897.5
100897.16
100896.88
100896.64
100896.46
100896.34
100896.28
100896.29
100896.36
100896.51
100896.73
100897.08
100909.64
100908.4
100907.57
100906.95
100906.35
100905.77
100905.21
100904.68
100904.19
100903.73
100903.31
100902.94
100902.61
100902.33
100902.1
100901.93
100901.81
100901.76
100901.78
100901.86
100902.01
100902.29
100915.76
100914.49
100913.64
100912.99
100912.38
100911.77
100911.19
100910.63
100910.11
100909.62
100909.17
100908.76
100908.39
100908.06
100907.79
100907.57
100907.4
100907.29
100907.25
100907.27
100907.36
100907.57
100921.89
100920.6
100919.72
100919.06
100918.43
100917.8
100917.19
100916.61
100916.06
100915.54
100915.05
100914.6
100914.2
100913.83
100913.51
100913.25
100913.03
100912.87
100912.77
100912.73
100912.76
100912.91
100928.03
100926.71
100925.81
100925.13
100924.48
100923.83
100923.2
100922.6
100922.02
100921.47
100920.96
100920.48
100920.03
100919.63
100919.27
100918.96
100918.7
100918.49
100918.34
100918.24
100918.22
100918.3
100934.17
100932.82
100931.91
100931.21
100930.55
100929.88
100929.23
100928.6
100928
100927.42
100926.88
100926.37
100925.89
100925.46
100925.06
100924.71
100924.4
100924.15
100923.94
100923.8
100923.71
100923.73
100940.3
100938.93
100938
100937.29
100936.61
100935.93
100935.26
100934.61
100933.98
100933.39
100932.82
100932.28
100931.77
100931.3
100930.87
100930.48
100930.13
100929.83
100929.58
100929.38
100929.25
100929.21
100946.43
100945.03
100944.09
100943.37
100942.67
100941.97
100941.29
100940.62
100939.97
100939.35
100938.76
100938.19
100937.66
100937.15
100936.69
100936.26
100935.88
100935.53
100935.24
100935
100934.81
100934.72
100952.54
100951.13
100950.16
100949.43
100948.72
100948.01
100947.31
100946.62
100945.96
100945.32
100944.7
100944.11
100943.55
100943.01
100942.52
100942.06
100941.63
100941.25
100940.92
100940.63
100940.39
100940.25
100958.63
100957.2
100956.22
100955.48
100954.76
100954.04
100953.32
100952.62
100951.94
100951.28
100950.64
100950.02
100949.43
100948.88
100948.35
100947.86
100947.4
100946.98
100946.61
100946.28
100945.99
100945.8
100964.71
100963.26
100962.27
100961.51
100960.79
100960.05
100959.32
100958.6
100957.9
100957.22
100956.57
100955.93
100955.32
100954.73
100954.18
100953.65
100953.16
100952.71
100952.3
100951.93
100951.61
100951.37
100970.75
100969.29
100968.28
100967.52
100966.79
100966.04
100965.29
100964.56
100963.85
100963.15
100962.48
100961.82
100961.19
100960.58
100960
100959.45
100958.93
100958.44
100957.99
100957.58
100957.22
100956.94
100976.77
100975.29
100974.27
100973.51
100972.76
100972
100971.25
100970.5
100969.78
100969.07
100968.37
100967.69
100967.04
100966.41
100965.8
100965.22
100964.68
100964.16
100963.68
100963.23
100962.83
100962.51
100982.75
100981.26
100980.23
100979.46
100978.7
100977.94
100977.17
100976.42
100975.68
100974.95
100974.24
100973.55
100972.87
100972.22
100971.59
100970.99
100970.41
100969.87
100969.35
100968.87
100968.44
100968.07
100988.7
100987.19
100986.16
100985.37
100984.61
100983.84
100983.06
100982.3
100981.54
100980.8
100980.08
100979.37
100978.68
100978
100977.35
100976.73
100976.13
100975.55
100975.01
100974.5
100974.03
100973.63
100994.6
100993.08
100992.04
100991.25
100990.49
100989.7
100988.92
100988.14
100987.38
100986.63
100985.89
100985.16
100984.45
100983.76
100983.09
100982.44
100981.82
100981.22
100980.65
100980.1
100979.6
100979.16
101000.46
100998.93
100997.88
100997.09
100996.32
100995.52
100994.73
100993.95
100993.17
100992.41
100991.66
100990.92
100990.19
100989.48
100988.79
100988.12
100987.47
100986.85
100986.25
100985.68
100985.14
100984.68
101006.27
101004.74
101003.68
101002.88
101002.1
101001.3
101000.5
100999.71
100998.92
100998.15
100997.38
100996.63
100995.89
100995.17
100994.46
100993.77
100993.1
100992.45
100991.83
100991.23
100990.66
100990.16
101012.03
101010.49
101009.42
101008.62
101007.84
101007.03
101006.23
101005.42
101004.63
101003.84
101003.07
101002.3
101001.55
101000.81
101000.08
100999.37
100998.68
100998.01
100997.37
100996.74
100996.15
100995.62
101017.73
101016.19
101015.12
101014.31
101013.52
101012.71
101011.9
101011.09
101010.29
101009.49
101008.7
101007.92
101007.16
101006.4
101005.66
101004.93
101004.23
101003.54
101002.87
101002.22
101001.59
101001.03
101023.38
101021.83
101020.75
101019.94
101019.15
101018.33
101017.51
101016.7
101015.89
101015.08
101014.28
101013.49
101012.71
101011.95
101011.19
101010.45
101009.72
101009.01
101008.32
101007.65
101007
101006.41
101028.96
101027.41
101026.33
101025.51
101024.72
101023.9
101023.07
101022.25
101021.43
101020.62
101019.81
101019.01
101018.22
101017.44
101016.66
101015.91
101015.16
101014.43
101013.72
101013.03
101012.36
101011.74
101034.48
101032.92
101031.84
101031.02
101030.22
101029.4
101028.57
101027.74
101026.91
101026.09
101025.27
101024.46
101023.66
101022.87
101022.08
101021.31
101020.55
101019.8
101019.07
101018.36
101017.66
101017.02
101039.92
101038.37
101037.29
101036.46
101035.66
101034.83
101034
101033.16
101032.33
101031.5
101030.68
101029.86
101029.04
101028.24
101027.44
101026.65
101025.88
101025.11
101024.36
101023.63
101022.91
101022.25
101045.3
101043.75
101042.66
101041.84
101041.03
101040.2
101039.36
101038.52
101037.68
101036.84
101036.01
101035.18
101034.36
101033.54
101032.73
101031.93
101031.14
101030.36
101029.6
101028.84
101028.11
101027.42
101050.6
101049.05
101047.96
101047.14
101046.33
101045.49
101044.65
101043.8
101042.96
101042.12
101041.28
101040.44
101039.61
101038.78
101037.96
101037.15
101036.34
101035.55
101034.76
101033.99
101033.24
101032.53
101055.82
101054.28
101053.19
101052.36
101051.55
101050.71
101049.86
101049.01
101048.16
101047.31
101046.47
101045.62
101044.78
101043.94
101043.11
101042.29
101041.47
101040.66
101039.86
101039.08
101038.3
101037.57
101060.96
101059.42
101058.34
101057.5
101056.69
101055.85
101054.99
101054.14
101053.29
101052.43
101051.58
101050.73
101049.88
101049.03
101048.19
101047.36
101046.53
101045.71
101044.89
101044.09
101043.3
101042.55
101066.02
101064.49
101063.4
101062.57
101061.75
101060.9
101060.05
101059.19
101058.33
101057.47
101056.62
101055.76
101054.9
101054.05
101053.2
101052.35
101051.51
101050.67
101049.85
101049.03
101048.22
101047.45
101070.99
101069.47
101068.38
101067.54
101066.72
101065.88
101065.02
101064.16
101063.3
101062.43
101061.57
101060.7
101059.84
101058.98
101058.12
101057.26
101056.41
101055.57
101054.73
101053.89
101053.07
101052.28
101075.87
101074.35
101073.27
101072.43
101071.61
101070.76
101069.9
101069.04
101068.17
101067.31
101066.44
101065.57
101064.7
101063.83
101062.96
101062.09
101061.23
101060.38
101059.52
101058.68
101057.84
101057.03
101080.66
101079.15
101078.07
101077.23
101076.41
101075.56
101074.7
101073.83
101072.96
101072.09
101071.22
101070.34
101069.47
101068.59
101067.71
101066.84
101065.97
101065.1
101064.24
101063.38
101062.52
101061.71
101085.35
101083.86
101082.78
101081.94
101081.12
101080.27
101079.4
101078.53
101077.66
101076.79
101075.91
101075.03
101074.15
101073.27
101072.38
101071.5
101070.62
101069.75
101068.87
101068
101067.13
101066.3
101089.95
101088.47
101087.4
101086.56
101085.73
101084.88
101084.01
101083.14
101082.27
101081.39
101080.51
101079.62
101078.74
101077.85
101076.96
101076.07
101075.19