/*--------------------------------*- C++ -*----------------------------------*\
| =========                 |                                                 |
| \\      /  F ield         | OpenFOAM: The Open Source CFD Toolbox           |
|  \\    /   O peration     | Version:  2406                                  |
|   \\  /    A nd           | Website:  www.openfoam.com                      |
|    \\/     M anipulation  |                                                 |
\*---------------------------------------------------------------------------*/
FoamFile
{
    version     2.0;
    format      ascii;
    arch        "LSB;label=32;scalar=64";
    class       volScalarField;
    location    "0.012";
    object      rho;
}
// * * * * * * * * * * * * * * * * * * * * * * * * * * * * * * * * * * * * * //

dimensions      [1 -3 0 0 0 0 0];

internalField   nonuniform List<scalar> 
23203
(
1.1866415
1.1867913
1.1869559
1.1871292
1.1873091
1.1874924
1.1876756
1.187856
1.188032
1.1882025
1.1883673
1.1885265
1.1886805
1.1888298
1.1889752
1.1891173
1.1892567
1.189394
1.1895297
1.1896644
1.1897984
1.1899321
1.1900658
1.18677
1.1869177
1.1870804
1.1872515
1.187429
1.1876097
1.1877904
1.1879684
1.1881421
1.1883106
1.1884735
1.1886309
1.1887832
1.1889309
1.1890747
1.1892151
1.1893529
1.1894884
1.1896224
1.1897552
1.1898873
1.190019
1.1901507
1.1868985
1.1870443
1.1872052
1.187374
1.1875491
1.1877273
1.1879055
1.1880811
1.1882526
1.188419
1.18858
1.1887356
1.1888862
1.1890323
1.1891744
1.1893132
1.1894493
1.1895831
1.1897153
1.1898463
1.1899765
1.1901063
1.1902359
1.1870271
1.1871713
1.1873301
1.1874968
1.1876694
1.1878451
1.1880208
1.1881941
1.1883634
1.1885278
1.1886868
1.1888406
1.1889895
1.1891339
1.1892744
1.1894115
1.1895459
1.189678
1.1898084
1.1899375
1.1900659
1.1901937
1.1903214
1.1871555
1.1872981
1.187455
1.1876195
1.1877897
1.1879629
1.1881362
1.1883072
1.1884743
1.1886366
1.1887937
1.1889457
1.1890929
1.1892356
1.1893744
1.1895099
1.1896426
1.189773
1.1899016
1.1900289
1.1901554
1.1902814
1.1872838
1.1874247
1.1875797
1.187742
1.1879098
1.1880806
1.1882514
1.1884201
1.188585
1.1887453
1.1889005
1.1890507
1.1891962
1.1893372
1.1894744
1.1896082
1.1897392
1.1898679
1.1899948
1.1901204
1.190245
1.190369
1.1874118
1.1875511
1.1877041
1.1878642
1.1880296
1.1881979
1.1883663
1.1885326
1.1886954
1.1888536
1.189007
1.1891554
1.1892992
1.1894386
1.1895741
1.1897063
1.1898357
1.1899627
1.1900879
1.1902116
1.1903344
1.1904566
1.1875394
1.187677
1.187828
1.1879858
1.1881489
1.1883146
1.1884806
1.1886446
1.1888052
1.1889615
1.189113
1.1892596
1.1894017
1.1895395
1.1896734
1.189804
1.1899317
1.1900571
1.1901806
1.1903026
1.1904236
1.1905439
1.1876669
1.1878026
1.1879514
1.1881069
1.1882675
1.1884307
1.1885942
1.1887559
1.1889143
1.1890686
1.1892182
1.1893631
1.1895035
1.1896397
1.1897721
1.1899011
1.1900273
1.190151
1.1902729
1.1903932
1.1905125
1.1906309
1.1877928
1.187927
1.1880739
1.1882271
1.1883852
1.1885459
1.1887069
1.1888662
1.1890225
1.1891747
1.1893225
1.1894658
1.1896045
1.1897392
1.18987
1.1899975
1.1901221
1.1902443
1.1903646
1.1904833
1.1906008
1.1907175
1.1879185
1.1880509
1.1881956
1.1883465
1.1885019
1.1886601
1.1888186
1.1889755
1.1891296
1.1892798
1.1894258
1.1895673
1.1897045
1.1898376
1.189967
1.190093
1.1902161
1.1903369
1.1904556
1.1905727
1.1906886
1.1908035
1.1880438
1.1881742
1.1883166
1.1884649
1.1886177
1.1887732
1.1889291
1.1890836
1.1892355
1.1893837
1.1895278
1.1896677
1.1898033
1.1899349
1.1900628
1.1901874
1.1903092
1.1904284
1.1905456
1.1906612
1.1907756
1.1908889
1.1881684
1.1882967
1.1884366
1.1885823
1.1887324
1.1888851
1.1890383
1.1891904
1.18934
1.1894862
1.1896285
1.1897667
1.1899008
1.1900309
1.1901574
1.1902807
1.190401
1.1905189
1.1906347
1.1907489
1.1908617
1.1909735
1.1882921
1.1884183
1.1885557
1.1886986
1.1888459
1.1889957
1.1891463
1.1892959
1.1894432
1.1895873
1.1897278
1.1898643
1.1899968
1.1901255
1.1902507
1.1903726
1.1904917
1.1906082
1.1907227
1.1908354
1.1909469
1.1910572
1.1884151
1.1885389
1.1886737
1.1888139
1.1889582
1.1891051
1.1892529
1.1893999
1.1895448
1.1896868
1.1898254
1.1899603
1.1900913
1.1902186
1.1903424
1.1904631
1.1905809
1.1906962
1.1908094
1.1909209
1.1910309
1.1911398
1.1885371
1.1886586
1.1887906
1.1889279
1.1890692
1.1892131
1.189358
1.1895023
1.1896449
1.1897848
1.1899215
1.1900546
1.1901841
1.1903101
1.1904326
1.190552
1.1906687
1.1907828
1.1908948
1.191005
1.1911138
1.1912214
1.1886583
1.1887779
1.1889068
1.1890408
1.1891789
1.1893198
1.1894617
1.1896033
1.1897434
1.1898811
1.1900159
1.1901473
1.1902753
1.1903999
1.1905212
1.1906394
1.1907549
1.1908679
1.1909788
1.1910878
1.1911955
1.1913018
1.1887785
1.1888944
1.1890207
1.189152
1.1892871
1.1894249
1.1895639
1.1897028
1.1898404
1.1899759
1.1901086
1.1902383
1.1903648
1.190488
1.190608
1.1907251
1.1908395
1.1909514
1.1910612
1.1911692
1.1912758
1.191381
1.1888973
1.1890107
1.189134
1.1892621
1.189394
1.1895287
1.1896647
1.1898007
1.1899357
1.190069
1.1901997
1.1903277
1.1904526
1.1905744
1.1906932
1.1908092
1.1909225
1.1910334
1.1911422
1.1912492
1.1913547
1.1914588
1.1890151
1.189126
1.1892462
1.1893711
1.1894997
1.1896311
1.189764
1.1898972
1.1900296
1.1901605
1.1902892
1.1904153
1.1905386
1.1906591
1.1907767
1.1908915
1.1910038
1.1911137
1.1912216
1.1913276
1.1914322
1.1915353
1.1891319
1.1892399
1.1893571
1.1894787
1.189604
1.1897322
1.1898619
1.1899922
1.190122
1.1902505
1.1903771
1.1905014
1.1906231
1.1907421
1.1908585
1.1909722
1.1910834
1.1911924
1.1912994
1.1914045
1.1915082
1.1916104
1.1892473
1.1893525
1.1894665
1.189585
1.189707
1.1898319
1.1899585
1.1900858
1.1902129
1.1903389
1.1904634
1.1905858
1.1907059
1.1908235
1.1909386
1.1910512
1.1911615
1.1912696
1.1913756
1.1914799
1.1915827
1.1916841
1.1893612
1.1894637
1.1895747
1.1896899
1.1898086
1.1899302
1.1900537
1.1901781
1.1903024
1.190426
1.1905483
1.1906688
1.1907872
1.1909033
1.1910172
1.1911287
1.1912379
1.1913451
1.1914503
1.1915538
1.1916558
1.1917564
1.1894733
1.1895736
1.189682
1.1897938
1.1899091
1.1900273
1.1901476
1.190269
1.1903906
1.1905117
1.1906317
1.1907503
1.190867
1.1909817
1.1910942
1.1912046
1.1913128
1.1914191
1.1915235
1.1916262
1.1917275
1.1918273
1.1895855
1.1896822
1.1897868
1.1898955
1.1900078
1.1901229
1.1902401
1.1903586
1.1904774
1.190596
1.1907139
1.1908304
1.1909454
1.1910585
1.1911698
1.191279
1.1913863
1.1914916
1.1915952
1.1916972
1.1917977
1.1918969
1.1896956
1.189789
1.1898901
1.1899959
1.1901051
1.1902172
1.1903313
1.1904469
1.190563
1.1906791
1.1907947
1.1909092
1.1910225
1.1911341
1.1912439
1.191352
1.1914582
1.1915627
1.1916655
1.1917667
1.1918666
1.1919651
1.1898033
1.1898943
1.1899929
1.1900955
1.1902015
1.1903104
1.1904215
1.190534
1.1906475
1.1907611
1.1908743
1.1909869
1.1910983
1.1912083
1.1913168
1.1914237
1.1915289
1.1916324
1.1917344
1.1918349
1.1919341
1.1920319
1.18991
1.1899983
1.1900941
1.1901937
1.1902966
1.1904023
1.1905104
1.1906201
1.1907308
1.1908419
1.1909529
1.1910633
1.1911729
1.1912814
1.1913885
1.1914941
1.1915983
1.1917009
1.1918021
1.1919018
1.1920003
1.1920975
1.1900148
1.1901005
1.1901938
1.190291
1.1903907
1.1904933
1.1905983
1.1907051
1.1908131
1.1909216
1.1910303
1.1911387
1.1912465
1.1913533
1.191459
1.1915634
1.1916664
1.1917681
1.1918685
1.1919675
1.1920653
1.1921619
1.1901192
1.1902024
1.1902923
1.1903859
1.1904828
1.1905826
1.1906848
1.1907889
1.1908942
1.1910003
1.1911068
1.1912131
1.191319
1.1914242
1.1915284
1.1916315
1.1917335
1.1918342
1.1919337
1.192032
1.1921292
1.1922252
1.1902216
1.1903022
1.1903891
1.1904795
1.1905737
1.1906708
1.1907702
1.1908716
1.1909744
1.191078
1.1911822
1.1912865
1.1913905
1.191494
1.1915968
1.1916987
1.1917995
1.1918992
1.1919979
1.1920954
1.1921919
1.1922873
1.190322
1.1903999
1.1904842
1.1905724
1.1906639
1.1907581
1.1908548
1.1909534
1.1910536
1.1911549
1.1912568
1.191359
1.1914612
1.191563
1.1916643
1.1917648
1.1918645
1.1919633
1.192061
1.1921578
1.1922536
1.1923484
1.190421
1.1904963
1.1905782
1.1906642
1.1907533
1.1908447
1.1909385
1.1910344
1.1911321
1.1912309
1.1913306
1.1914307
1.191531
1.1916311
1.1917309
1.1918301
1.1919286
1.1920264
1.1921232
1.1922192
1.1923144
1.1924086
1.1905192
1.1905923
1.1906718
1.1907547
1.1908404
1.1909293
1.1910207
1.1911143
1.1912095
1.191306
1.1914035
1.1915016
1.1916
1.1916985
1.1917967
1.1918946
1.1919919
1.1920886
1.1921845
1.1922797
1.1923742
1.1924678
1.1906155
1.1906862
1.1907631
1.1908434
1.1909268
1.1910133
1.1911022
1.1911933
1.1912861
1.1913803
1.1914757
1.1915718
1.1916683
1.1917651
1.1918618
1.1919583
1.1920544
1.19215
1.192245
1.1923394
1.1924331
1.1925261
1.1907103
1.1907785
1.1908528
1.1909309
1.1910126
1.191097
1.1911833
1.1912717
1.1913621
1.1914541
1.1915472
1.1916413
1.191736
1.1918311
1.1919262
1.1920213
1.1921162
1.1922107
1.1923048
1.1923983
1.1924913
1.1925837
1.1908042
1.1908702
1.1909425
1.1910186
1.1910972
1.1911784
1.1912626
1.1913489
1.1914371
1.1915269
1.191618
1.1917101
1.191803
1.1918964
1.19199
1.1920837
1.1921774
1.1922708
1.1923639
1.1924566
1.1925488
1.1926405
1.1908965
1.19096
1.19103
1.1911036
1.1911799
1.1912595
1.1913419
1.1914258
1.1915117
1.1915993
1.1916883
1.1917784
1.1918695
1.1919612
1.1920533
1.1921456
1.192238
1.1923303
1.1924223
1.1925142
1.1926057
1.1926967
1.1909877
1.191049
1.1911167
1.1911885
1.191263
1.1913401
1.1914197
1.1915015
1.1915853
1.1916708
1.1917579
1.1918462
1.1919354
1.1920254
1.192116
1.1922069
1.192298
1.1923892
1.1924803
1.1925712
1.1926619
1.1927523
1.1910777
1.1911367
1.1912024
1.1912723
1.1913448
1.1914193
1.1914962
1.1915762
1.1916581
1.1917417
1.1918269
1.1919133
1.1920008
1.1920892
1.1921783
1.1922678
1.1923576
1.1924477
1.1925377
1.1926278
1.1927177
1.1928074
1.1911663
1.1912229
1.1912864
1.1913541
1.1914244
1.1914972
1.1915733
1.1916516
1.1917312
1.1918126
1.1918957
1.1919803
1.192066
1.1921527
1.1922402
1.1923283
1.1924169
1.1925057
1.1925948
1.1926839
1.192773
1.192862
1.1912542
1.1913085
1.19137
1.1914361
1.1915049
1.1915761
1.191649
1.1917242
1.1918023
1.1918821
1.1919636
1.1920464
1.1921305
1.1922157
1.1923017
1.1923885
1.1924758
1.1925635
1.1926514
1.1927396
1.1928279
1.1929162
1.1913406
1.1913925
1.191452
1.1915161
1.1915829
1.1916519
1.1917231
1.1917977
1.1918745
1.1919523
1.1920317
1.1921126
1.192195
1.1922785
1.192363
1.1924484
1.1925344
1.1926209
1.1927078
1.1927951
1.1928826
1.1929701
1.1914264
1.1914759
1.1915334
1.1915959
1.1916611
1.1917287
1.1917984
1.1918697
1.191944
1.1920212
1.192099
1.1921782
1.1922589
1.1923409
1.192424
1.192508
1.1925927
1.1926781
1.192764
1.1928503
1.1929369
1.1930237
1.191511
1.1915581
1.1916136
1.1916745
1.1917381
1.191804
1.1918721
1.1919422
1.1920145
1.1920889
1.1921652
1.1922431
1.1923223
1.1924029
1.1924846
1.1925673
1.1926508
1.192735
1.1928199
1.1929052
1.192991
1.1930771
1.1915948
1.1916392
1.1916928
1.1917522
1.1918142
1.1918785
1.1919449
1.1920134
1.1920832
1.1921563
1.1922322
1.1923083
1.1923859
1.1924649
1.1925451
1.1926264
1.1927087
1.1927918
1.1928756
1.19296
1.193045
1.1931303
1.1916778
1.1917196
1.1917712
1.191829
1.1918896
1.1919523
1.1920173
1.1920845
1.1921536
1.1922241
1.1922966
1.1923717
1.1924482
1.192526
1.192605
1.1926852
1.1927663
1.1928483
1.1929311
1.1930146
1.1930988
1.1931833
1.1917598
1.1917989
1.1918485
1.1919048
1.191964
1.1920251
1.1920883
1.1921538
1.1922211
1.1922898
1.1923621
1.1924369
1.1925117
1.1925878
1.1926653
1.192744
1.1928239
1.1929048
1.1929865
1.1930691
1.1931524
1.1932362
1.1918412
1.1918774
1.1919251
1.1919801
1.1920379
1.1920976
1.1921594
1.1922235
1.1922898
1.1923576
1.1924262
1.1924983
1.1925736
1.1926488
1.1927249
1.1928024
1.1928811
1.1929609
1.1930417
1.1931234
1.1932058
1.1932889
1.1919219
1.1919552
1.1920009
1.1920544
1.1921108
1.1921691
1.1922294
1.192292
1.1923567
1.1924233
1.1924914
1.1925606
1.1926337
1.1927094
1.1927844
1.1928605
1.1929381
1.1930168
1.1930966
1.1931774
1.193259
1.1933414
1.192002
1.1920323
1.192076
1.1921281
1.1921832
1.1922401
1.1922991
1.1923603
1.1924237
1.1924892
1.1925565
1.1926248
1.1926948
1.1927674
1.1928418
1.1929174
1.1929941
1.193072
1.193151
1.193231
1.1933119
1.1933936
1.1920815
1.1921087
1.1921503
1.1922011
1.1922548
1.1923103
1.1923678
1.1924276
1.1924894
1.1925534
1.1926193
1.1926865
1.1927541
1.1928257
1.1929008
1.1929753
1.1930506
1.1931273
1.1932053
1.1932844
1.1933645
1.1934455
1.1921605
1.1921846
1.1922242
1.1922736
1.1923259
1.19238
1.1924361
1.1924944
1.1925549
1.1926174
1.192682
1.1927484
1.192816
1.1928838
1.192956
1.1930317
1.1931065
1.1931821
1.1932591
1.1933373
1.1934167
1.193497
1.1922392
1.1922601
1.1922975
1.1923455
1.1923965
1.1924492
1.1925038
1.1925607
1.1926198
1.1926809
1.192744
1.1928092
1.192876
1.1929437
1.193012
1.1930851
1.1931614
1.1932365
1.1933124
1.1933897
1.1934682
1.1935479
1.1923175
1.1923353
1.1923706
1.1924172
1.1924668
1.192518
1.1925712
1.1926266
1.1926842
1.1927439
1.1928057
1.1928694
1.1929351
1.1930024
1.1930701
1.1931389
1.193213
1.1932899
1.1933653
1.1934415
1.1935192
1.193598
1.1923957
1.1924103
1.1924435
1.1924886
1.1925368
1.1925865
1.1926381
1.1926921
1.1927482
1.1928065
1.1928669
1.1929293
1.1929936
1.1930599
1.1931275
1.1931952
1.1932644
1.1933397
1.1934172
1.1934928
1.1935693
1.1936474
1.1924737
1.1924852
1.1925164
1.1925599
1.1926066
1.1926548
1.1927049
1.1927573
1.192812
1.1928688
1.1929277
1.1929887
1.1930517
1.1931167
1.1931836
1.1932518
1.1933198
1.1933899
1.1934649
1.1935416
1.193618
1.1936955
1.1925516
1.1925602
1.1925893
1.1926312
1.1926764
1.192723
1.1927716
1.1928224
1.1928754
1.1929307
1.1929881
1.1930476
1.1931091
1.1931726
1.1932382
1.1933055
1.1933739
1.1934415
1.1935135
1.1935899
1.1936657
1.1937425
1.1926297
1.1926354
1.1926624
1.1927027
1.1927463
1.1927913
1.1928382
1.1928873
1.1929387
1.1929924
1.1930481
1.1931061
1.193166
1.193228
1.193292
1.193358
1.1934257
1.1934942
1.193562
1.1936351
1.193713
1.1937893
1.1927078
1.1927109
1.1927358
1.1927745
1.1928165
1.1928597
1.1929049
1.1929524
1.1930021
1.193054
1.1931081
1.1931644
1.1932228
1.1932832
1.1933456
1.1934101
1.1934764
1.1935445
1.1936134
1.1936819
1.1937559
1.1938343
1.1927861
1.1927867
1.1928096
1.1928467
1.192887
1.1929285
1.1929719
1.1930176
1.1930655
1.1931157
1.1931681
1.1932227
1.1932794
1.1933382
1.193399
1.1934619
1.1935268
1.1935936
1.1936621
1.1937313
1.1938003
1.1938749
1.1928646
1.1928629
1.192884
1.1929193
1.1929578
1.1929976
1.1930392
1.1930831
1.1931292
1.1931776
1.1932282
1.1932809
1.1933359
1.193393
1.1934522
1.1935134
1.1935767
1.193642
1.1937092
1.1937781
1.1938476
1.193917
1.1929433
1.1929397
1.1929588
1.1929924
1.1930292
1.1930672
1.1931069
1.1931489
1.1931932
1.1932397
1.1932884
1.1933394
1.1933925
1.1934478
1.1935052
1.1935648
1.1936264
1.19369
1.1937556
1.1938231
1.1938923
1.1939622
1.1930223
1.1930168
1.1930343
1.1930661
1.1931011
1.1931372
1.1931751
1.1932153
1.1932576
1.1933022
1.193349
1.193398
1.1934492
1.1935027
1.1935582
1.193616
1.1936758
1.1937377
1.1938015
1.1938674
1.1939352
1.1940048
1.1931015
1.1930945
1.1931103
1.1931403
1.1931735
1.1932078
1.1932438
1.193282
1.1933225
1.1933651
1.1934099
1.193457
1.1935062
1.1935577
1.1936113
1.1936671
1.1937251
1.1937851
1.1938472
1.1939113
1.1939774
1.1940456
1.1931809
1.1931726
1.1931868
1.1932151
1.1932465
1.1932789
1.193313
1.1933493
1.1933878
1.1934284
1.1934712
1.1935163
1.1935635
1.193613
1.1936646
1.1937184
1.1937744
1.1938325
1.1938927
1.1939549
1.1940191
1.1940855
1.1932604
1.1932511
1.1932638
1.1932904
1.1933199
1.1933505
1.1933827
1.1934171
1.1934536
1.1934922
1.193533
1.193576
1.1936212
1.1936685
1.1937181
1.1937699
1.1938238
1.1938799
1.1939381
1.1939983
1.1940606
1.1941251
1.19334
1.1933299
1.1933412
1.1933661
1.1933938
1.1934225
1.1934529
1.1934853
1.1935198
1.1935565
1.1935952
1.1936361
1.1936792
1.1937245
1.193772
1.1938216
1.1938734
1.1939274
1.1939836
1.1940417
1.194102
1.1941645
1.1934196
1.1934089
1.193419
1.1934421
1.1934681
1.193495
1.1935235
1.193554
1.1935866
1.1936212
1.1936579
1.1936967
1.1937377
1.1937809
1.1938262
1.1938737
1.1939234
1.1939752
1.1940292
1.1940852
1.1941434
1.1942039
1.1934991
1.193488
1.193497
1.1935185
1.1935427
1.1935678
1.1935945
1.1936231
1.1936537
1.1936863
1.193721
1.1937578
1.1937966
1.1938376
1.1938808
1.1939261
1.1939736
1.1940233
1.1940751
1.194129
1.1941849
1.1942433
1.1935785
1.1935673
1.1935752
1.193595
1.1936175
1.1936409
1.1936657
1.1936925
1.1937212
1.1937518
1.1937845
1.1938192
1.193856
1.1938949
1.1939359
1.193979
1.1940243
1.1940718
1.1941213
1.194173
1.1942267
1.1942829
1.1936578
1.1936465
1.1936534
1.1936717
1.1936925
1.1937141
1.1937373
1.1937622
1.193789
1.1938178
1.1938484
1.1938811
1.1939158
1.1939526
1.1939914
1.1940324
1.1940755
1.1941207
1.194168
1.1942175
1.1942689
1.194323
1.1937369
1.1937257
1.1937317
1.1937485
1.1937676
1.1937876
1.193809
1.1938321
1.1938571
1.193884
1.1939127
1.1939434
1.1939761
1.1940107
1.1940475
1.1940863
1.1941272
1.1941701
1.1942152
1.1942624
1.1943116
1.1943634
1.1938157
1.1938047
1.1938099
1.1938252
1.1938427
1.1938611
1.1938809
1.1939023
1.1939255
1.1939505
1.1939774
1.1940061
1.1940368
1.1940694
1.194104
1.1941407
1.1941794
1.1942202
1.194263
1.1943079
1.1943549
1.1944045
1.1938943
1.1938835
1.193888
1.1939019
1.1939179
1.1939347
1.1939528
1.1939726
1.1939941
1.1940173
1.1940423
1.1940692
1.1940979
1.1941285
1.194161
1.1941956
1.1942322
1.1942708
1.1943115
1.1943541
1.1943989
1.1944462
1.1939726
1.1939622
1.1939659
1.1939784
1.193993
1.1940083
1.1940249
1.1940431
1.1940629
1.1940844
1.1941076
1.1941326
1.1941594
1.1941881
1.1942186
1.1942511
1.1942856
1.1943221
1.1943606
1.1944011
1.1944436
1.1944886
1.1940507
1.1940406
1.1940437
1.1940549
1.1940681
1.194082
1.1940971
1.1941137
1.194132
1.1941518
1.1941733
1.1941965
1.1942214
1.1942482
1.1942768
1.1943073
1.1943397
1.1943741
1.1944104
1.1944488
1.1944891
1.194532
1.1941286
1.1941189
1.1941213
1.1941313
1.1941431
1.1941556
1.1941694
1.1941845
1.1942012
1.1942194
1.1942392
1.1942607
1.1942839
1.1943088
1.1943355
1.194364
1.1943945
1.1944268
1.1944611
1.1944973
1.1945354
1.1945762
1.1942064
1.194197
1.1941988
1.1942077
1.1942181
1.1942294
1.1942417
1.1942555
1.1942707
1.1942873
1.1943056
1.1943254
1.1943468
1.1943699
1.1943948
1.1944215
1.19445
1.1944803
1.1945126
1.1945467
1.1945828
1.1946214
1.1942841
1.1942749
1.1942763
1.1942839
1.1942932
1.1943032
1.1943142
1.1943266
1.1943404
1.1943556
1.1943723
1.1943905
1.1944103
1.1944317
1.1944548
1.1944796
1.1945062
1.1945347
1.1945649
1.1945971
1.1946311
1.1946676
1.1943617
1.1943528
1.1943536
1.1943602
1.1943683
1.1943771
1.1943869
1.194398
1.1944104
1.1944242
1.1944394
1.1944561
1.1944743
1.194494
1.1945154
1.1945385
1.1945633
1.1945899
1.1946182
1.1946484
1.1946804
1.194715
1.1944393
1.1944307
1.194431
1.1944366
1.1944435
1.1944511
1.1944598
1.1944697
1.1944808
1.1944932
1.194507
1.1945222
1.1945388
1.194557
1.1945768
1.1945982
1.1946212
1.194646
1.1946725
1.1947008
1.1947309
1.1947634
1.1945171
1.1945086
1.1945084
1.194513
1.1945189
1.1945254
1.194533
1.1945416
1.1945515
1.1945627
1.1945751
1.1945889
1.1946041
1.1946207
1.1946389
1.1946586
1.19468
1.194703
1.1947278
1.1947542
1.1947824
1.1948131
1.194595
1.1945867
1.1945859
1.1945896
1.1945945
1.1946
1.1946065
1.194614
1.1946227
1.1946326
1.1946437
1.1946562
1.19467
1.1946852
1.1947018
1.19472
1.1947397
1.1947611
1.1947841
1.1948087
1.1948351
1.1948639
1.1946732
1.1946649
1.1946636
1.1946664
1.1946704
1.1946749
1.1946803
1.1946868
1.1946944
1.1947031
1.194713
1.1947241
1.1947366
1.1947504
1.1947656
1.1947822
1.1948004
1.1948201
1.1948415
1.1948644
1.1948891
1.194916
1.1947517
1.1947433
1.1947415
1.1947436
1.1947466
1.1947502
1.1947547
1.1947601
1.1947666
1.1947742
1.1947829
1.1947928
1.194804
1.1948164
1.1948302
1.1948454
1.1948621
1.1948803
1.1949
1.1949213
1.1949442
1.1949695
1.1948305
1.1948221
1.1948198
1.194821
1.1948232
1.1948259
1.1948294
1.1948339
1.1948394
1.1948459
1.1948535
1.1948622
1.1948721
1.1948833
1.1948958
1.1949096
1.1949248
1.1949415
1.1949596
1.1949793
1.1950006
1.1950242
1.1949097
1.1949012
1.1948984
1.1948989
1.1949002
1.1949021
1.1949048
1.1949083
1.1949128
1.1949183
1.1949248
1.1949324
1.1949411
1.1949511
1.1949622
1.1949747
1.1949885
1.1950038
1.1950205
1.1950386
1.1950583
1.1950802
1.1949894
1.1949806
1.1949774
1.1949771
1.1949777
1.1949788
1.1949806
1.1949833
1.1949869
1.1949914
1.1949969
1.1950034
1.195011
1.1950197
1.1950297
1.1950409
1.1950534
1.1950672
1.1950825
1.1950991
1.1951173
1.1951376
1.1950696
1.1950605
1.1950568
1.1950559
1.1950557
1.1950561
1.1950571
1.1950589
1.1950616
1.1950652
1.1950697
1.1950752
1.1950817
1.1950893
1.1950981
1.195108
1.1951193
1.1951318
1.1951456
1.1951609
1.1951776
1.1951964
1.1951502
1.1951409
1.1951366
1.1951351
1.1951342
1.1951339
1.1951341
1.1951352
1.195137
1.1951397
1.1951433
1.1951478
1.1951533
1.1951598
1.1951675
1.1951763
1.1951862
1.1951975
1.19521
1.1952239
1.1952392
1.1952565
1.1952313
1.1952216
1.1952169
1.1952148
1.1952133
1.1952122
1.1952118
1.1952121
1.1952131
1.1952149
1.1952176
1.1952212
1.1952257
1.1952312
1.1952378
1.1952455
1.1952543
1.1952643
1.1952756
1.1952881
1.195302
1.1953179
1.1953129
1.1953029
1.1952977
1.195295
1.1952929
1.1952912
1.1952901
1.1952896
1.1952899
1.1952909
1.1952928
1.1952955
1.195299
1.1953036
1.1953091
1.1953157
1.1953234
1.1953322
1.1953423
1.1953535
1.1953661
1.1953806
1.195395
1.1953846
1.1953789
1.1953756
1.195373
1.1953707
1.1953689
1.1953678
1.1953673
1.1953676
1.1953687
1.1953705
1.1953732
1.1953768
1.1953813
1.1953869
1.1953935
1.1954012
1.1954101
1.1954201
1.1954315
1.1954446
1.1954775
1.1954667
1.1954605
1.1954568
1.1954536
1.1954507
1.1954483
1.1954466
1.1954454
1.195445
1.1954453
1.1954463
1.1954482
1.1954509
1.1954545
1.1954591
1.1954646
1.1954713
1.195479
1.1954879
1.195498
1.1955099
1.1955604
1.1955492
1.1955426
1.1955384
1.1955347
1.1955313
1.1955283
1.1955259
1.1955242
1.195523
1.1955226
1.1955229
1.1955239
1.1955258
1.1955285
1.1955321
1.1955367
1.1955423
1.195549
1.1955567
1.1955657
1.1955764
1.1956438
1.1956321
1.1956251
1.1956204
1.1956162
1.1956123
1.1956088
1.1956059
1.1956035
1.1956017
1.1956006
1.1956001
1.1956004
1.1956014
1.1956033
1.1956061
1.1956097
1.1956143
1.19562
1.1956266
1.1956344
1.195644
1.1957274
1.1957153
1.1957079
1.1957028
1.1956982
1.1956938
1.1956898
1.1956863
1.1956833
1.1956809
1.1956792
1.195678
1.1956776
1.1956778
1.1956789
1.1956808
1.1956836
1.1956872
1.1956919
1.1956975
1.1957043
1.1957126
1.1958114
1.1957989
1.195791
1.1957856
1.1957805
1.1957757
1.1957712
1.1957672
1.1957637
1.1957607
1.1957583
1.1957565
1.1957554
1.1957549
1.1957552
1.1957563
1.1957582
1.195761
1.1957647
1.1957693
1.195775
1.1957823
1.1958957
1.1958827
1.1958745
1.1958686
1.1958632
1.1958579
1.195853
1.1958485
1.1958445
1.195841
1.195838
1.1958356
1.1958338
1.1958326
1.1958322
1.1958325
1.1958336
1.1958355
1.1958383
1.195842
1.1958468
1.195853
1.1959801
1.1959668
1.1959581
1.195952
1.1959462
1.1959405
1.1959351
1.1959302
1.1959257
1.1959216
1.1959181
1.1959151
1.1959127
1.1959109
1.1959098
1.1959093
1.1959097
1.1959108
1.1959127
1.1959155
1.1959193
1.1959246
1.1960648
1.196051
1.196042
1.1960355
1.1960293
1.1960233
1.1960175
1.1960122
1.1960072
1.1960027
1.1959986
1.1959951
1.1959921
1.1959897
1.1959879
1.1959867
1.1959863
1.1959867
1.1959878
1.1959897
1.1959926
1.1959969
1.1961495
1.1961353
1.196126
1.1961192
1.1961127
1.1961063
1.1961002
1.1960944
1.196089
1.196084
1.1960795
1.1960754
1.1960719
1.1960688
1.1960664
1.1960646
1.1960635
1.1960631
1.1960635
1.1960646
1.1960666
1.19607
1.1962343
1.1962197
1.1962101
1.196203
1.1961962
1.1961895
1.196183
1.1961768
1.196171
1.1961656
1.1961606
1.196156
1.196152
1.1961484
1.1961454
1.196143
1.1961412
1.1961401
1.1961397
1.19614
1.1961412
1.1961437
1.1963191
1.1963041
1.1962942
1.1962868
1.1962798
1.1962727
1.1962659
1.1962594
1.1962532
1.1962474
1.1962419
1.1962369
1.1962323
1.1962282
1.1962247
1.1962217
1.1962193
1.1962175
1.1962164
1.196216
1.1962164
1.1962181
1.1964039
1.1963885
1.1963783
1.1963707
1.1963634
1.196356
1.1963489
1.1963421
1.1963355
1.1963293
1.1963234
1.196318
1.1963129
1.1963083
1.1963042
1.1963007
1.1962976
1.1962952
1.1962935
1.1962924
1.196292
1.1962929
1.1964886
1.1964729
1.1964623
1.1964545
1.1964469
1.1964393
1.1964319
1.1964247
1.1964178
1.1964113
1.196405
1.1963991
1.1963936
1.1963886
1.196384
1.1963799
1.1963763
1.1963733
1.1963709
1.1963691
1.196368
1.1963682
1.1965731
1.1965571
1.1965463
1.1965382
1.1965304
1.1965226
1.1965148
1.1965074
1.1965002
1.1964933
1.1964866
1.1964804
1.1964745
1.1964689
1.1964639
1.1964592
1.1964551
1.1964515
1.1964485
1.1964461
1.1964443
1.1964438
1.1966574
1.1966411
1.1966301
1.1966218
1.1966138
1.1966057
1.1965977
1.1965899
1.1965824
1.1965752
1.1965682
1.1965616
1.1965553
1.1965493
1.1965438
1.1965387
1.1965341
1.1965299
1.1965263
1.1965233
1.1965209
1.1965196
1.1967416
1.1967249
1.1967136
1.1967051
1.1966969
1.1966886
1.1966804
1.1966724
1.1966646
1.196657
1.1966497
1.1966427
1.1966361
1.1966297
1.1966238
1.1966182
1.1966131
1.1966084
1.1966043
1.1966007
1.1965976
1.1965957
1.1968254
1.1968085
1.1967969
1.1967883
1.1967799
1.1967713
1.1967629
1.1967546
1.1967466
1.1967387
1.1967311
1.1967238
1.1967167
1.19671
1.1967037
1.1966977
1.1966921
1.1966869
1.1966823
1.1966781
1.1966745
1.1966719
1.1969089
1.1968917
1.19688
1.1968711
1.1968625
1.1968538
1.1968451
1.1968366
1.1968283
1.1968202
1.1968123
1.1968047
1.1967973
1.1967902
1.1967834
1.196777
1.196771
1.1967654
1.1967602
1.1967555
1.1967514
1.1967482
1.1969921
1.1969746
1.1969627
1.1969536
1.1969449
1.196936
1.1969271
1.1969184
1.1969098
1.1969014
1.1968933
1.1968853
1.1968776
1.1968702
1.1968631
1.1968563
1.1968498
1.1968438
1.1968381
1.1968329
1.1968282
1.1968245
1.1970748
1.1970571
1.197045
1.1970358
1.1970269
1.1970178
1.1970087
1.1969998
1.196991
1.1969824
1.1969739
1.1969657
1.1969577
1.1969499
1.1969425
1.1969353
1.1969285
1.196922
1.1969159
1.1969102
1.196905
1.1969007
1.1971571
1.1971392
1.1971269
1.1971176
1.1971085
1.1970992
1.1970899
1.1970808
1.1970718
1.1970629
1.1970543
1.1970458
1.1970375
1.1970294
1.1970216
1.1970141
1.1970068
1.197
1.1969934
1.1969873
1.1969816
1.1969768
1.1972389
1.1972208
1.1972083
1.1971989
1.1971896
1.1971802
1.1971708
1.1971614
1.1971522
1.1971431
1.1971342
1.1971254
1.1971169
1.1971085
1.1971004
1.1970925
1.197085
1.1970777
1.1970707
1.1970642
1.197058
1.1970527
1.1973202
1.1973019
1.1972893
1.1972797
1.1972703
1.1972607
1.1972511
1.1972416
1.1972322
1.1972229
1.1972137
1.1972047
1.1971959
1.1971872
1.1971788
1.1971706
1.1971627
1.1971551
1.1971477
1.1971407
1.1971341
1.1971283
1.1974009
1.1973825
1.1973697
1.1973599
1.1973504
1.1973407
1.1973309
1.1973212
1.1973116
1.1973021
1.1972928
1.1972835
1.1972744
1.1972655
1.1972568
1.1972483
1.1972401
1.1972321
1.1972244
1.197217
1.1972099
1.1972037
1.1974811
1.1974625
1.1974495
1.1974396
1.19743
1.1974201
1.1974102
1.1974003
1.1973906
1.1973809
1.1973713
1.1973618
1.1973525
1.1973434
1.1973344
1.1973256
1.197317
1.1973087
1.1973006
1.1972928
1.1972854
1.1972787
1.1975606
1.1975418
1.1975287
1.1975187
1.197509
1.197499
1.1974889
1.1974789
1.1974689
1.1974591
1.1974493
1.1974396
1.19743
1.1974206
1.1974114
1.1974023
1.1973934
1.1973848
1.1973764
1.1973682
1.1973604
1.1973533
1.1976394
1.1976205
1.1976073
1.1975972
1.1975873
1.1975772
1.197567
1.1975568
1.1975467
1.1975366
1.1975266
1.1975168
1.197507
1.1974973
1.1974878
1.1974785
1.1974694
1.1974604
1.1974517
1.1974432
1.1974349
1.1974274
1.1977175
1.1976985
1.1976852
1.197675
1.197665
1.1976547
1.1976443
1.197634
1.1976238
1.1976135
1.1976034
1.1975933
1.1975833
1.1975735
1.1975637
1.1975541
1.1975447
1.1975354
1.1975264
1.1975176
1.197509
1.1975011
1.1977948
1.1977758
1.1977623
1.197752
1.1977419
1.1977315
1.197721
1.1977106
1.1977001
1.1976898
1.1976794
1.1976692
1.197659
1.1976489
1.1976389
1.1976291
1.1976194
1.1976099
1.1976005
1.1975914
1.1975824
1.1975742
1.1978713
1.1978523
1.1978387
1.1978283
1.1978181
1.1978076
1.197797
1.1977864
1.1977758
1.1977653
1.1977548
1.1977443
1.1977339
1.1977236
1.1977135
1.1977034
1.1976934
1.1976836
1.197674
1.1976645
1.1976553
1.1976467
1.1979471
1.1979279
1.1979143
1.1979038
1.1978935
1.1978828
1.1978721
1.1978614
1.1978507
1.19784
1.1978293
1.1978187
1.1978081
1.1977977
1.1977873
1.197777
1.1977668
1.1977567
1.1977468
1.197737
1.1977275
1.1977185
1.1980219
1.1980027
1.1979891
1.1979784
1.197968
1.1979573
1.1979464
1.1979356
1.1979247
1.1979139
1.1979031
1.1978923
1.1978816
1.1978709
1.1978603
1.1978498
1.1978394
1.1978291
1.1978189
1.1978089
1.197799
1.1977897
1.1980958
1.1980767
1.1980629
1.1980522
1.1980417
1.1980308
1.1980199
1.1980089
1.1979979
1.197987
1.197976
1.1979651
1.1979542
1.1979433
1.1979325
1.1979218
1.1979112
1.1979006
1.1978902
1.1978799
1.1978698
1.1978601
1.1981689
1.1981497
1.1981359
1.1981251
1.1981144
1.1981035
1.1980924
1.1980814
1.1980703
1.1980592
1.1980481
1.198037
1.1980259
1.1980149
1.1980039
1.197993
1.1979822
1.1979714
1.1979607
1.1979502
1.1979397
1.1979298
1.1982409
1.1982217
1.1982079
1.198197
1.1981863
1.1981752
1.1981641
1.1981529
1.1981417
1.1981305
1.1981192
1.198108
1.1980968
1.1980856
1.1980744
1.1980633
1.1980523
1.1980413
1.1980304
1.1980196
1.1980089
1.1979987
1.1983119
1.1982928
1.1982789
1.1982679
1.1982571
1.198246
1.1982347
1.1982234
1.1982121
1.1982008
1.1981894
1.1981781
1.1981667
1.1981554
1.198144
1.1981328
1.1981215
1.1981103
1.1980992
1.1980882
1.1980773
1.1980668
1.1983819
1.1983628
1.1983489
1.1983378
1.1983269
1.1983157
1.1983044
1.198293
1.1982816
1.1982701
1.1982587
1.1982472
1.1982357
1.1982242
1.1982127
1.1982012
1.1981898
1.1981785
1.1981672
1.1981559
1.1981447
1.198134
1.1984508
1.1984318
1.1984178
1.1984067
1.1983957
1.1983845
1.198373
1.1983616
1.19835
1.1983385
1.1983269
1.1983153
1.1983037
1.198292
1.1982804
1.1982688
1.1982572
1.1982456
1.1982341
1.1982226
1.1982112
1.1982003
1.1985185
1.1984997
1.1984857
1.1984745
1.1984635
1.1984521
1.1984406
1.198429
1.1984174
1.1984058
1.1983941
1.1983824
1.1983706
1.1983588
1.1983471
1.1983353
1.1983236
1.1983118
1.1983001
1.1982885
1.1982768
1.1982656
1.1985852
1.1985664
1.1985524
1.1985412
1.1985301
1.1985187
1.1985071
1.1984954
1.1984838
1.198472
1.1984602
1.1984484
1.1984365