/*--------------------------------*- C++ -*----------------------------------*\
| =========                 |                                                 |
| \\      /  F ield         | OpenFOAM: The Open Source CFD Toolbox           |
|  \\    /   O peration     | Version:  2406                                  |
|   \\  /    A nd           | Website:  www.openfoam.com                      |
|    \\/     M anipulation  |                                                 |
\*---------------------------------------------------------------------------*/
FoamFile
{
    version     2.0;
    format      ascii;
    arch        "LSB;label=32;scalar=64";
    class       volScalarField;
    location    "0.05";
    object      k;
}
// * * * * * * * * * * * * * * * * * * * * * * * * * * * * * * * * * * * * * //

dimensions      [0 2 -2 0 0 0 0];

internalField   nonuniform List<scalar> 
2065
(
171.44188
186.85219
200.16163
210.7221
219.24284
89.527274
102.62357
116.99485
131.74939
145.75793
50.797805
57.348788
66.470277
79.118429
40.514829
45.781281
52.932227
38.978101
43.812509
49.991625
41.236039
46.055158
44.952699
49.115566
52.978422
48.100658
42.975297
37.68729
32.961715
36.815037
30.261813
34.038194
33.353766
37.438615
42.68202
52.923841
58.87631
67.101666
77.185776
105.99692
115.88598
126.22182
136.79258
146.55061
304.04535
409.40523
507.74716
575.28345
607.00384
610.71238
595.05758
564.33525
527.02501
304.61903
404.96596
498.9244
564.23966
595.0518
599.18339
583.45453
553.29754
516.45484
305.41616
400.22054
489.47493
552.32905
582.37141
586.74408
571.11964
541.50659
505.15161
305.38863
394.92767
479.40205
539.78521
569.00077
573.4662
558.03897
528.93279
493.07682
305.08547
389.03947
468.67781
526.48347
554.85371
559.33551
544.21207
304.34401
486.70483
440.16045
382.8192
309.54958
208.13637
69.487618
476.49876
430.3461
373.48337
300.88893
200.87042
67.110374
465.61583
419.91391
363.61443
291.85726
193.54836
64.584204
453.99763
408.79303
353.13921
282.37066
186.07226
61.947497
428.20208
374.6985
316.04509
248.01466
160.42809
42.935492
458.66718
403.49381
342.32463
270.41408
176.57182
47.176101
486.86641
430.28468
366.9297
291.71016
192.64403
51.751336
511.96871
454.33103
389.22331
311.19911
207.36308
56.717971
533.18928
474.86857
408.45661
328.15426
220.29188
61.580123
549.89502
491.32407
424.16872
342.34592
231.46708
66.524009
562.06563
503.6849
436.28996
353.55673
240.42523
70.811909
569.74371
511.86159
444.41432
360.78918
245.33363
73.965133
572.41863
515.67738
449.00809
365.4682
249.05606
76.506187
571.11372
515.03845
448.86572
365.61259
249.2857
78.223379
568.07147
512.64628
446.92573
363.97679
248.01575
79.300813
563.13404
508.80769
443.86859
361.45777
246.06529
79.792288
556.12154
503.33612
439.50608
357.91853
243.38225
79.941596
547.79171
495.97489
433.46776
353.20854
239.98915
79.551105
539.82561
488.79281
426.95652
347.57707
235.97604
78.902687
532.21636
481.82918
420.61944
342.05441
231.93059
78.034099
525.17941
475.29021
414.60299
336.72452
227.81664
77.014705
518.85033
469.3538
409.1178
331.90021
224.05654
75.951337
513.27823
464.07537
404.16341
327.4526
220.57053
74.872813
508.40036
459.50179
399.92152
323.68828
217.66923
73.888591
503.99218
455.41171
396.15496
320.32689
215.09611
72.962957
500.35321
452.08181
393.06552
317.62691
213.40667
72.260641
495.77735
448.17626
389.81497
315.231
211.60369
71.575693
496.87149
450.24029
392.7657
318.75039
215.19988
71.695811
943.92397
920.58687
880.83499
825.66122
759.0405
686.38285
613.28446
544.35165
482.64373
953.00377
934.41608
898.98797
847.84722
784.69726
714.8328
643.71106
575.74014
514.06333
958.65651
944.66332
913.64087
866.6091
807.1145
740.2782
671.29059
604.44619
542.96574
960.80418
951.19558
924.55522
881.63922
825.79103
761.98441
695.18885
629.5998
568.50175
959.1751
953.32212
931.05487
892.15146
839.88738
779.07941
714.52484
650.34324
589.85158
953.61398
951.15053
932.41935
897.43107
848.69351
790.87577
728.63642
666.02168
606.36028
943.90005
945.67291
929.42851
896.99593
851.57238
796.98899
737.25
676.46535
617.9526
929.59853
934.25371
922.1175
892.65843
849.36911
797.08205
740.00608
681.5697
624.6681
910.77967
918.21856
909.365
883.90617
843.74285
793.55564
738.08669
681.26651
625.96662
890.23038
899.99548
893.57218
870.6087
833.73383
786.60133
733.50548
678.18512
623.876
868.4341
879.45671
874.75381
854.00823
819.5213
775.43368
725.45376
672.52877
619.83138
841.76341
854.64336
852.31954
834.42456
802.83429
761.47719
714.04274
663.79598
613.33986
812.52598
827.59851
828.16034
813.6332
785.17161
746.59643
701.60146
653.38461
604.64696
783.47366
801.10025
804.52263
793.16305
767.69606
731.85137
689.12409
642.6753
595.28583
755.61593
775.96176
782.29566
773.96424
751.43152
717.98638
677.3099
632.50723
586.36837
727.71908
751.5111
761.34981
756.17947
736.7496
705.51389
666.56431
623.09042
577.96944
699.40924
727.35164
741.24182
739.45138
723.4607
694.37068
656.97653
614.62295
570.32104
669.84359
702.80847
721.46883
723.51845
711.1499
684.41152
648.47134
607.11003
563.49579
637.53115
676.81801
701.29527
708.03193
699.249
675.40656
640.89923
600.47643
557.4947
599.77495
646.84242
678.78062
691.62854
686.92914
666.78937
633.8874
594.47299
552.16067
555.84671
613.57787
654.69537
674.60795
674.03185
658.27182
627.2953
588.91318
547.27892
496.84714
566.56765
621.19717
652.28785
658.88056
648.03053
620.62438
583.69626
543.04976
437.27774
525.13943
591.8835
632.31366
644.67573
637.49315
613.54593
577.65679
537.65083
308.61578
422.79223
524.33639
591.43982
622.0712
623.41315
607.31532
575.42205
537.52048
253.22034
621.86331
812.84483
906.95859
947.28392
955.97112
247.42999
598.89445
792.3542
892.95851
941.1654
957.62093
242.24112
577.74748
772.69405
878.81175
933.81011
957.12289
237.46368
555.7682
752.64873
863.8337
924.9427
954.4528
233.26584
536.71783
733.85665
848.40473
914.18164
948.80172
228.74351
513.08288
712.12004
830.27997
900.10141
938.8863
224.67679
496.22871
692.99493
811.71662
883.81454
925.67487
219.40643
468.90358
667.27426
788.80509
863.78447
908.48209
214.72421
453.8068
647.24883
766.31079
841.30349
887.37866
208.15686
423.48812
616.25317
737.67756
815.76182
864.46632
201.60525
402.46516
593.53922
715.53293
793.56825
842.18351
195.90014
388.53679
572.16016
689.74205
766.26715
814.65485
189.11089
366.99292
546.22245
660.33235
735.6788
784.14714
180.69151
338.87874
515.10293
628.39366
703.8985
753.28674
169.97506
310.54452
485.81063
597.31247
672.97718
723.449
158.37791
280.71239
452.89979
563.63104
640.41114
692.82461
146.87846
249.70737
417.40688
528.36022
606.48717
661.16805
132.24789
218.16863
379.01078
489.02781
569.49554
627.40279
114.72777
182.6424
335.02887
444.9263
528.07211
589.74228
94.805867
145.47249
284.89065
393.63608
479.47005
545.37049
74.746164
105.361
214.23758
329.91389
420.27439
491.56062
45.643936
69.121964
138.60907
242.19949
342.79127
422.73968
13.638401
30.034161
70.165218
154.63855
242.156
328.56267
2.6841739
10.724877
27.959161
71.340373
158.67216
228.86176
2.60786
6.9530141
12.690221
26.522417
62.959011
141.67176
3.1351513
9.4862808
16.231234
20.279511
32.293615
72.431721
3.2095099
9.4448208
15.762244
21.382296
29.337351
46.129061
3.7162055
11.586863
18.406742
23.606372
29.508002
35.328889
4.4844831
13.473577
20.981886
26.138914
30.566127
34.458744
5.480057
17.092932
24.75029
29.658116
33.518744
37.032395
6.6044885
20.771024
28.978483
33.959757
37.679085
41.016556
7.820858
24.614167
33.461443
38.589537
42.287088
45.502527
8.8303591
28.053596
37.699888
43.041947
46.709386
49.757879
9.645793
30.96559
41.302169
46.829109
50.442939
53.291153
10.121834
32.880492
43.756443
49.393622
52.960872
55.612698
10.783345
33.783752
44.770045
50.3145
53.836535
56.399014
10.124511
33.341277
44.141563
49.738889
53.234112
55.764022
9.5990281
31.474628
41.950945
47.447769
50.929553
53.523744
8.9685058
28.87471
38.525378
43.713143
47.127902
49.813674
7.9826166
25.409529
34.167623
39.017042
42.344694
45.099837
6.748175
21.393486
29.298846
33.834118
37.03626
39.769901
5.5339584
17.491608
24.566152
28.770632
31.800992
34.413496
4.4669954
13.584653
20.123611
24.164022
27.167891
29.676156
3.5246167
10.467488
16.491646
20.268696
23.656554
26.569267
2.7450656
7.8455581
12.348219
16.17584
21.755555
29.733244
2.1267041
5.4219754
10.926257
14.148146
21.376587
45.75686
1.560612
4.2537387
10.367167
18.062704
37.195838
92.252011
1.7479992
9.0202851
20.44988
45.424129
279.71995
672.85616
865.15466
952.23279
279.4469
681.54118
874.5175
961.5028
993.24741
992.25129
278.41735
687.89222
881.70911
968.34012
999.78118
999.39727
277.1726
693.54367
887.62245
973.69418
1004.7507
1004.4973
275.91931
698.39983
892.38694
978.0251
1008.9082
1008.7487
274.51548
703.16616
896.40536
982.00466
1012.8192
1012.5248
269.04968
703.28465
899.0745
985.88716
1016.7275
1016.1209
264.61246
704.93539
902.44187
989.50601
1019.8828
1018.9499
259.66142
705.56785
904.42283
991.26207
1021.5985
1020.5613
254.12639
704.8937
904.3192
991.37112
1021.7759
1020.7438
250.51855
702.91087
902.25328
989.23053
1019.8235
1019.108
254.50392
701.74007
899.64565
985.90679
1016.5713
1016.1506
242.63554
699.41991
897.57082
984.14927
1014.5076
1013.6089
244.22334
694.86776
893.72204
980.53257
1010.769
1009.6425
247.43111
691.05085
888.19445
975.12568
1005.411
1004.1847
250.72242
686.49947
881.0998
967.72
998.51011
997.56752
253.1359
681.63281
873.8904
959.37346
990.21344
989.89218
254.86861
675.79385
866.83089
951.81859
982.54777
982.42672
258.237
672.4126
860.70345
945.1414
976.01925
976.16909
258.04507
665.1611
854.0618
939.1928
970.697
971.28052
257.80463
657.77439
847.56352
933.89393
966.21759
967.40793
258.24804
652.79758
842.04007
929.15781
962.19834
964.02054
258.11216
642.74967
833.74679
923.18284
957.79933
960.21296
259.81686
644.43444
831.81911
919.34054
953.13457
955.13513
13.495805
26.801905
45.213005
278.81484
279.55745
663.72047
937.92233
941.8499
944.83773
947.28175
950.33688
954.46963
959.85675
966.65914
973.46524
979.60595
984.95096
989.00861
991.97745
994.84241
996.50577
996.68918
995.64072
993.59023
990.98765
987.91578
984.28397
979.72706
973.32293
914.0503
915.14199
915.40722
915.65748
916.76755
919.01645
922.84125
927.89287
933.06616
938.07673
942.69699
946.47941
949.66477
952.615
954.75701
955.99332
956.40048
956.05184
955.41571
954.57882
953.19827
951.04387
947.49077
877.48252
874.662
871.6551
869.22047
867.95352
868.25496
870.47302
873.63155
877.25973
881.16375
885.04415
888.5962
891.97818
895.21437
898.05751
900.49611
902.56945
904.31305
905.78395
907.39495
908.8668
909.79596
909.65097
826.68779
820.02828
813.97297
809.0492
805.76434
804.59686
805.14468
806.70805
809.08115
812.05595
815.33101
818.73442
822.29792
825.92823
829.54321
833.15026
836.77452
840.4579
844.20752
848.08913
852.29819
856.38265
859.84285
762.33148
752.63589
744.22731
737.53244
733.04014
730.68522
729.85915
730.29481
731.78881
734.1025
736.9886
740.34975
744.11209
748.18906
752.56185
757.23594
762.22926
767.57316
773.28141
779.32949
785.82565
792.66011
799.3688
686.37569
674.83759
665.15968
657.75915
652.68688
649.52212
647.9916
647.87072
648.91534
650.89167
653.63585
657.04667
661.02956
665.53777
670.56299
676.1083
682.18892
688.83057
696.05635
703.85603
712.19435
721.11657
730.39482
601.95173
589.99896
580.36006
573.16446
568.10176
564.91773
563.36538
563.19706
564.175
566.12039
568.90667
572.43246
576.63638
581.49383
586.99679
593.14902
599.96395
607.46361
615.67533
624.61784
634.27572
644.61464
655.61073
513.24468
502.38151
493.9067
487.67572
483.42617
480.89663
479.82942
479.99195
481.20233
483.32337
486.25139
489.92006
494.2941
499.36061
505.1182
511.57514
518.74682
526.65438
535.32422
544.78505
555.0559
566.12891
577.97047
425.37842
416.76616
410.238
405.65674
402.74631
401.24921
400.94598
401.65985
403.25499
405.63222
408.72585
412.49735
416.92921
422.02031
427.77915
434.22158
441.36897
449.24641
457.88169
467.30493
477.5482
488.63741
500.56901
343.70632
337.85507
333.6478
330.94872
329.51569
329.14383
329.66921
330.96896
332.95234
335.55834
338.75081
342.513
346.843
351.75037
357.25311
363.37446
370.14237
377.58804
385.74468
394.64684
404.33221
414.84211
426.2045
272.60645
269.39464
267.34719
266.35684
266.23492
266.838
268.05715
269.81453
272.05878
274.76036
277.90688
281.499
285.54723
290.06954
295.09
300.63658
306.74104
313.43825
320.76545
328.76186
337.47005
346.93784
357.20953
214.52558
213.43634
213.05866
213.33135
214.1369
215.38329
217.00801
218.97321
221.25939
223.86087
226.7822
230.03561
233.63903
237.61483
241.98907
246.7908
252.05184
257.80666
264.09223
270.94803
278.41728
286.54845
295.38965
169.83238
170.07534
170.68584
171.6446
172.888
174.37024
176.0663
177.96669
180.07223
182.39092
184.93597
187.72447
190.77644
194.11429
197.76251
201.74765
206.0982
210.84475
216.02008
221.65942
227.8015
234.48975
136.63435
137.41414
138.36277
139.47929
140.73841
142.12524
143.63619
145.27557
147.05266
148.98007
151.07275
153.34741
155.82209
158.51602
161.44956
164.6443
168.12323
171.91091
176.03364
180.51981
185.40074
190.7114
111.42731
112.23097
113.11719
114.08864
115.13999
116.27101
117.48667
118.79546
120.208
121.73621
123.39289
125.19142
127.14573
129.27024
131.57996
134.09068
136.81911
139.78313
143.00194
146.49638
150.28961
154.40755
90.735204
91.370266
92.062084
92.810956
93.6192
94.491417
95.434179
96.455333
97.563421
98.767355
100.07625
101.49938
103.04618
104.7263
106.54976
108.52703
110.66921
112.98817
115.49674
118.2089
121.14033
124.30871
72.298689
72.771552
73.298201
73.876175
74.508866
75.200766
75.956931
76.782761
77.683841
78.665843
79.734484
80.895524
82.15481
83.518329
84.99229
86.583203
88.297981
90.144029
92.129335
94.262624
96.55378
99.014005
55.237524
55.628215
56.071127
56.562145
57.103605
57.698583
58.350263
59.061885
59.836752
60.678209
61.589632
62.574436
63.636105
64.778226
66.004527
67.318934
68.725611
70.229013
71.833919
73.545535
75.369806
77.313475
39.61586
39.985564
40.402025
40.859778
41.360258
41.905468
42.497362
43.137857
43.828896
44.572463
45.370582
46.225328
47.138835
48.113316
49.151072
50.254509
51.42616
52.668694
53.984928
55.377885
56.85103
58.408273
25.794167
26.160291
26.56574
27.004199
27.476249
27.982997
28.525513
29.104846
29.722097
30.378445
31.075165
31.813668
32.59549
33.422245
34.295599
35.217254
36.188949
37.212445
38.289526
39.422025
40.612001
41.8617
13.986448
14.366245
14.771881
15.19853
15.646778
16.117501
16.611423
17.129107
17.670978
18.237308
18.828212
19.44569
20.092087
20.769463
21.479663
22.224375
23.005165
23.823501
24.680773
25.578324
26.517599
27.500088
5.5894915
5.8438234
6.1146108
6.3991853
6.698792
7.0151261
7.3499147
7.7048911
8.0816794
8.4815214
8.9053776
9.3543097
9.8285907
10.32862
10.854928
11.408148
11.988976
12.598129
13.236321
13.904269
14.602786
15.332726
1.7941796
1.8952732
2.0032508
2.1171054
2.2374116
2.364962
2.5008282
2.6464982
2.8041113
2.9765126
3.1662435
3.3723798
3.5945261
3.8328372
4.0878596
4.3604431
4.6515854
4.962332
5.2937318
5.6468253
6.022663
6.4221803
0.64792194
0.68529442
0.7246003
0.76615289
0.81003563
0.8562323
0.90462004
0.95496287
1.0069101
1.060523
1.1177285
1.1794503
1.2461909
1.3182604
1.3957889
1.479412
1.5698727
1.6678691
1.7740856
1.8892282
2.0141511
2.1499223
0.45523527
0.46284315
0.47089177
0.47938061
0.48829204
0.49757398
0.50715366
0.51692137
0.52718921
0.53814368
0.54997229
0.56288486
0.57710496
0.59286794
0.61042394
0.63004899
0.65205859
0.67680901
0.7046309
0.73558622
0.76967149
0.8069323
0.42299199
0.42584546
0.4287248
0.43162485
0.43455219
0.43750936
0.44049693
0.44351841
0.44659009
0.44971318
0.45289579
0.45623921
0.45982435
0.46372269
0.46800097
0.4727235
0.47794967
0.4838003
0.49015472
0.49680037
0.5035713
0.51060322
0.41269652
0.41414622
0.41554255
0.41685164
0.41808445
0.41925724
0.42037979
0.42145979
0.42250496
0.42352415
0.42452774
0.42552857
0.42654312
0.42759285
0.42870552
0.42991672
0.43125679
0.43270405
0.43424407
0.43585979
0.43753626
0.43926961
0.40732534
0.40795537
0.4085607
0.40914224
0.40970562
0.41025459
0.41079123
0.41131667
0.41183142
0.41233548
0.41282861
0.41331036
0.41378018
0.41423758
0.41468209
0.41511337
0.41553119
0.41593527
0.41632525
0.41670074
0.41706178
0.417408
0.40424867
0.40450414
0.40474721
0.40497892
0.40520119
0.40541578
0.40562391
0.40582631
0.40602339
0.40621529
0.40640193
0.40658305
0.40675822
0.40692688
0.4070884
0.40724198
0.4073869
0.40752254
0.40764814
0.40776295
0.40786637
0.4079576
0.40158214
0.40160394
0.40161785
0.40163093
0.40164511
0.40166185
0.40168221
0.40170682
0.40173597
0.4017697
0.40180779
0.40184974
0.40189486
0.40194231
0.4019911
0.40204036
0.40208917
0.40213662
0.40218202
0.40222458
0.40226361
0.40229866
0.39899218
0.39902287
0.39904677
0.39906421
0.39907658
0.39908494
0.39909026
0.39909345
0.39909542
0.39909713
0.39909959
0.39910382
0.39911082
0.39912149
0.39913656
0.39915647
0.39918129
0.39921059
0.39924382
0.39928001
0.39931678
0.39935076
452.2284
513.03733
581.77902
655.55622
729.82276
799.29121
858.50042
903.03939
929.41036
418.17826
477.21034
544.24131
616.61797
690.17049
760.11103
821.48142
870.33592
902.57108
380.857
437.41311
502.00345
572.2061
644.29671
713.82317
776.19683
827.70011
864.4201
340.30622
393.65928
454.98766
522.14337
591.74733
659.63205
721.48434
773.78737
813.12575
297.1867
346.59175
403.78576
466.91828
532.90654
597.84998
657.69692
709.14477
749.20362
252.78088
297.51464
349.69619
407.77691
468.98908
529.70675
586.1474
635.21387
674.27262
209.03376
248.41868
294.76741
346.82002
402.14936
457.43818
509.18843
554.50706
591.10791
168.37187
201.87476
241.72263
286.93544
335.43244
384.26085
430.22403
470.64187
503.60345
133.33543
160.697
193.65386
231.47851
272.46582
314.06897
353.43825
388.17236
416.71229
105.97996
127.33304
153.40319
183.72168
216.97079
251.03157
283.44568
312.13666
335.85485
86.743742
102.93485
122.79109
146.10889
171.95878
198.64521
224.17002
246.82459
265.64525
73.516664
85.982706
101.04017
118.58093
137.9795
158.04084
177.26207
194.3376
208.5759
64.088078
74.067009
85.763653
99.049975
113.46861
128.19747
142.21905
154.64412
164.99521
56.273298
64.663788
74.179928
84.614837
95.576356
106.48075
116.6619
125.56513
132.91442
48.601641
55.828749
63.835364
72.354517
81.008849
89.345987
96.921253
103.40676
108.67078
40.411827
46.573311
53.324114
60.390384
67.413427
74.015274
79.872321
84.783217
88.695868
31.66519
36.808428
42.405464
48.216375
53.933714
59.241549
63.885598
67.728113
70.749808
22.450862
26.673019
31.239274
35.960166
40.583753
44.85205
48.566075
51.62233
54.01066
13.483018
16.910107
20.562275
24.317119
27.985775
31.368474
34.309101
36.726729
38.614022
5.7334831
8.1634317
10.935352
13.849262
16.716363
19.349533
21.630355
23.506155
24.972474
1.7264089
2.6492752
3.9716205
5.618951
7.4207291
9.2204631
10.84904
12.222027
13.310982
0.56298204
0.81913838
1.228832
1.7506878
2.401316
3.1369017
3.9055098
4.6060306
5.1889032
0.39798646
0.43029086
0.49398712
0.61489538
0.79985445
1.0255845
1.2532937
1.4664197
1.6522748
0.38866186
0.39852697
0.41067766
0.42647241
0.44877397
0.48156809
0.52254465
0.56661267
0.60838701
0.38971277
0.39672533
0.40251688
0.40859786
0.41679776
0.42492455
0.43314363
0.44113054
0.44828112
0.39079621
0.39656869
0.40094305
0.40472891
0.40826671
0.41165431
0.41491961
0.41794184
0.42048062
0.39225006
0.39664714
0.40011375
0.4027391
0.40494741
0.40687679
0.40861164
0.41015982
0.41142659
0.39514077
0.39819546
0.40038621
0.40209984
0.40345659
0.40455526
0.40550301
0.40623531
0.40678154
0.39788793
0.39959498
0.4008695
0.40183103
0.40253408
0.40306842
0.40348029
0.40379597
0.40402887
0.39863771
0.39967984
0.40039695
0.40086183
0.40115446
0.40133536
0.40144743
0.40151812
0.40156306
0.3980499
0.39829767
0.39847678
0.39861447
0.39872529
0.39881508
0.39888523
0.39893655
0.39897135
399.38914
367.15687
332.3439
294.841
255.35846
215.13634
176.1032
140.55113
110.80475
88.498365
73.366145
62.925624
55.308756
48.669534
41.934685
34.681269
26.853841
18.470125
10.203433
3.7117095
1.0670446
0.42816587
0.37615237
0.37593781
0.37962904
0.38228841
0.38575665
0.3903309
0.39518543
0.39712275
0.39765303
347.81112
317.54063
285.54097
251.24814
215.51354
179.47858
145.12092
114.58213
89.99529
72.437773
60.896923
52.750263
46.607332
40.95286
35.073943
28.732222
21.805607
14.224167
6.7226114
2.0442282
0.58151385
0.35740601
0.35016533
0.35663472
0.36083219
0.36694894
0.37359438
0.38073425
0.38958663
0.39427287
0.39683288
291.96563
263.80268
235.47549
204.91853
173.58202
142.28671
113.2207
88.25332
69.296115
56.546053
48.271327
42.095313
37.23974
32.473324
27.443722
22.04305
16.030771
9.1819708
3.2291269
0.87074341
0.32831871
0.29865618
0.30909253
0.31478738
0.32398605
0.334147
0.34694286
0.35914639
0.37587375
0.38712102
0.39484391
228.04319
202.34206
179.38758
153.25523
127.56693
101.98766
79.418221
60.989878
48.332118
40.245952
34.7623
30.250377
26.570666
22.620828
18.447538
13.987584
8.8157884
3.2748599
0.80906981
0.243546
0.19240399
0.20788181
0.21580118
0.22863473
0.23875299
0.25765381
0.27842499
0.30177821
0.33429508
0.3626783
0.38834605
146.83529
125.35276
111.12862
90.573351
73.681545
55.986564
42.782912
32.573476
26.621767
22.299349
19.195381
16.151837
13.682
10.625055
7.1394384
4.0312086
1.9393882
0.45990488
0.090993211
0.057719798
0.058467694
0.062526459
0.06815652
0.075405563
0.084199503
0.097866353
0.1186688
0.14708967
0.19491322
0.26363
0.35201081
38.182464
32.875995
28.128777
22.819141
18.160959
13.998952
11.006849
8.9693917
7.6683171
6.6275143
5.6790223
4.7210868
3.7302901
2.6980715
1.7960595
1.0680942
0.56278521
0.2732125
0.13960497
0.088264251
0.063285282
0.049522307
0.044629142
0.041050018
0.037108383
0.032185628
0.027620947
0.025978453
0.029743843
0.054461613
0.15045396
)
;

boundaryField
{
    Side1
    {
        type            empty;
    }
    Inlet
    {
        type            inletOutlet;
        inletValue      uniform 0.39740317;
        value           uniform 0.39740317;
    }
    Side2
    {
        type            empty;
    }
    Outlet
    {
        type            zeroGradient;
    }
    Botwall
    {
        type            kqRWallFunction;
        value           nonuniform List<scalar> 
59
(
69.487618
67.110374
64.584204
61.947497
42.935492
47.176101
51.751336
56.717971
61.580123
66.524009
70.811909
73.965133
76.506187
78.223379
79.300813
79.792288
79.941596
79.551105
78.902687
78.034099
77.014705
75.951337
74.872813
73.888591
72.962957
72.260641
71.575693
71.695811
38.182464
32.875995
28.128777
22.819141
18.160959
13.998952
11.006849
8.9693917
7.6683171
6.6275143
5.6790223
4.7210868
3.7302901
2.6980715
1.7960595
1.0680942
0.56278521
0.2732125
0.13960497
0.088264251
0.063285282
0.049522307
0.044629142
0.041050018
0.037108383
0.032185628
0.027620947
0.025978453
0.029743843
0.054461613
0.15045396
)
;
    }
    Cyli
    {
        type            kqRWallFunction;
        value           nonuniform List<scalar> 
76
(
253.22034
247.42999
242.24112
237.46368
233.26584
228.74351
224.67679
219.40643
214.72421
208.15686
201.60525
195.90014
189.11089
180.69151
169.97506
158.37791
146.87846
132.24789
114.72777
94.805867
74.746164
45.643936
13.638401
2.6841739
2.60786
3.1351513
3.2095099
3.7162055
4.4844831
5.480057
6.6044885
7.820858
8.8303591
9.645793
10.121834
10.783345
10.124511
9.5990281
8.9685058
7.9826166
6.748175
5.5339584
4.4669954
3.5246167
2.7450656
2.1267041
1.560612
1.7479992
279.71995
279.4469
278.41735
277.1726
275.91931
274.51548
269.04968
264.61246
259.66142
254.12639
250.51855
254.50392
242.63554
244.22334
247.43111
250.72242
253.1359
254.86861
258.237
258.04507
257.80463
258.24804
258.11216
259.81686
13.495805
45.213005
278.81484
279.55745
)
;
    }
    procBoundary0to1
    {
        type            processor;
        value           nonuniform List<scalar> 
44
(
226.34186
226.34186
158.70889
94.333722
94.333722
62.91807
62.91807
57.90576
51.699304
51.699304
49.673942
49.673942
53.434157
56.71475
56.088416
56.088416
58.034133
58.6563
58.007139
55.936679
52.531024
52.531024
51.727135
46.989036
41.755814
41.755814
41.530308
515.71234
480.38419
382.72433
457.50561
512.63324
540.08637
544.5148
515.71234
529.68666
382.72433
303.25247
441.81732
397.18149
342.29014
272.70478
178.66798
59.241481
)
;
    }
    procBoundary0to2
    {
        type            processor;
        value           nonuniform List<scalar> 
55
(
193.63697
206.71763
216.96418
224.85059
230.83452
96.984537
165.95094
54.847953
96.984537
109.83218
855.14409
983.44482
941.94773
983.44482
981.93968
54.847953
63.053113
63.053113
76.055877
277.23516
653.38044
653.38044
855.14409
964.40293
941.76586
907.70039
861.89889
805.2544
739.42891
666.85894
590.39199
513.20505
438.32099
368.24065
304.9333
241.76948
241.76948
196.49258
158.88395
127.74013
101.66258
79.390647
60.06001
43.178792
28.531485
16.098087
6.8477965
2.2983141
0.84742118
0.51800322
0.44109462
0.41776213
0.40801753
0.40229306
0.39938188
)
;
    }
    procBoundary0to3
    {
        type            processor;
        value           nonuniform List<scalar> 7(38.972183 38.972183 49.515365 49.515365 88.603624 88.603624 156.38839);
    }
}


// ************************************************************************* //
