/*--------------------------------*- C++ -*----------------------------------*\
| =========                 |                                                 |
| \\      /  F ield         | OpenFOAM: The Open Source CFD Toolbox           |
|  \\    /   O peration     | Version:  2406                                  |
|   \\  /    A nd           | Website:  www.openfoam.com                      |
|    \\/     M anipulation  |                                                 |
\*---------------------------------------------------------------------------*/
FoamFile
{
    version     2.0;
    format      ascii;
    arch        "LSB;label=32;scalar=64";
    class       volScalarField;
    location    "0.05";
    object      p;
}
// * * * * * * * * * * * * * * * * * * * * * * * * * * * * * * * * * * * * * //

dimensions      [1 -1 -2 0 0 0 0];

internalField   nonuniform List<scalar> 
2065
(
100598.55
100608.75
100614.68
100618.45
100621.58
100611.3
100614.55
100617.83
100619.42
100620.19
100618.14
100615.66
100613.59
100611.41
100608.53
100605.41
100602.66
100598.64
100596.52
100593.61
100591.53
100589.99
100588.15
100587.82
100589.3
100584.39
100582.39
100582.08
100585.29
100583.56
100592.04
100588.91
100602.13
100597.91
100594.08
100600.53
100599.1
100598.09
100597.11
100589.11
100593.53
100596.79
100598.13
100599.06
100595.21
100569.04
100536.13
100504.34
100478.27
100458.25
100441.9
100427.68
100415.08
100603.52
100578.86
100549.77
100522.53
100500.15
100480.96
100465.14
100451.39
100439.35
100604.43
100582.64
100560.36
100538.04
100518.6
100502.15
100487.75
100474.97
100463.8
100608.65
100591.98
100574.66
100556.25
100539.01
100524.24
100511.02
100499.16
100488.81
100614.22
100602.19
100588.62
100573.46
100558.74
100545.62
100533.67
100618.78
100401.34
100386.43
100372.15
100359.5
100349.88
100343.03
100426.45
100413.01
100400.27
100389.08
100380.78
100375.41
100451.91
100439.61
100428
100417.83
100410.13
100404.98
100477.86
100466.49
100455.75
100446.26
100438.94
100433.94
101881.68
101964.19
102046.76
102119.48
102168.66
102190.7
101733.9
101818.45
101901.18
101972.85
102021.91
102044.05
101573.67
101658.54
101739.85
101809.88
101858.91
101882.97
101402.13
101485.99
101565.02
101632.85
101681.14
101705.38
101221.58
101302.18
101376.9
101440.35
101486.14
101508.45
101032.67
101107.8
101176.55
101235.71
101278.59
101301.19
100845.9
100916.48
100981.05
101035.85
101075.96
101100.57
100662.89
100727.7
100786.16
100835.17
100870.25
100892.26
100486.74
100543.68
100594.21
100635.76
100664.62
100681.83
100326.02
100374.61
100416.99
100451.36
100474.96
100488.66
100188.96
100229.34
100263.93
100291.63
100310.61
100321.46
100080.45
100112.4
100139.24
100160.35
100174.61
100182.78
100004.42
100028.07
100047.6
100062.94
100073.44
100079.37
99963.63
99978.038
99988.785
99996.303
100001.02
100003.72
99946.743
99956.86
99964.155
99968.958
99971.535
99972.638
99955.579
99960.893
99963.764
99964.865
99964.838
99964.328
99984.674
99984.58
99982.744
99979.923
99977.063
99974.684
100027.19
100022.83
100017.34
100011.61
100006.69
100003.03
100080.2
100072.3
100063.83
100055.75
100049.2
100044.47
100138.73
100128.07
100117.27
100107.32
100099.4
100093.8
100198.8
100186.1
100173.66
100162.47
100153.77
100147.66
100256.99
100243.05
100229.55
100217.41
100207.9
100201.23
100312.65
100297.68
100283.43
100270.89
100261.28
100254.65
100360.01
100345.95
100332.34
100319.91
100309.83
100302.32
102154.09
102006.9
101865.1
101731.21
101640.04
101608.71
101636.26
101706.97
101796.16
101850.54
101725.92
101599.82
101495.95
101433.15
101424.24
101468.95
101550.65
101645.88
101515.62
101431.33
101336.84
101262.72
101226.24
101238.2
101296.25
101385.26
101483.97
101182.54
101133.98
101073.33
101029.44
101017.7
101048.14
101117.71
101212.07
101312.42
100850.49
100834.56
100807.68
100794.54
100807.76
100855.57
100935.04
101033.28
101133.64
100525.53
100540.24
100546.32
100563.21
100600.59
100664.34
100751.67
100851.42
100949.02
100215.82
100260.05
100297.35
100342.29
100401.74
100479.4
100572.74
100672.51
100766.53
99934.981
100003.54
100068.35
100138.32
100216.88
100305.76
100402.78
100500.46
100589.15
99683.508
99774.618
99864.711
99956.891
100051.27
100148.45
100246.53
100339.58
100420.71
99488.947
99590.323
99696.941
99805.371
99911.221
100013.52
100109.96
100196.31
100268.56
99262.493
99392.47
99541.453
99676.518
99796.613
99904.756
99998.651
100077.32
100140.19
99213.5
99347.344
99470.321
99593.456
99715.602
99827.785
99917.615
99987.983
100040.89
99167.929
99309.391
99454.038
99595.267
99709.5
99795.184
99870.134
99931.25
99974.092
99180.518
99317.195
99458.226
99592.893
99710.428
99805.662
99872.421
99914.749
99943.669
99248.184
99371.733
99499.839
99622.128
99729.371
99812.746
99870.359
99907.849
99931.65
99367.67
99472.732
99582.402
99689.458
99780.997
99850.416
99898.572
99928.812
99945.925
99524.475
99605.16
99692.73
99780.146
99855.617
99912.494
99950.069
99971.282
99981.076
99707.019
99760.518
99821.583
99886.054
99943.248
99985.962
100012.4
100025.09
100028.53
99903.349
99927.213
99959.385
99999.341
100037.35
100065.78
100081.87
100087.27
100085.55
100095.17
100091.34
100095.94
100112.2
100131.75
100146.85
100153.77
100153.05
100147.24
100262.37
100238.73
100221.67
100217.88
100221.32
100224.77
100224.01
100218.45
100209.59
100396.73
100360.3
100328.56
100310.34
100301.59
100295.98
100289.24
100280.1
100269.2
100493.33
100458.54
100420.53
100392.26
100373.69
100360.84
100349.64
100338.06
100325.84
100542.93
100505.73
100469.24
100441.39
100420.94
100406.64
100394.99
100383.79
100372.45
102168.86
102321.6
102356.7
102350.67
102337.53
102320.67
101678.7
101862.07
101915.88
101935.92
101951.13
101966.28
101193.48
101404.59
101475.56
101521.67
101561.12
101598.45
100718.04
100953.02
101043.5
101112
101174.15
101233.49
100259.45
100514
100621.62
100708.47
100791.18
100870.76
99824.983
100095.11
100215.83
100320.44
100419.72
100517.3
99422.44
99704.929
99837.204
99956.152
100070.46
100181.16
99060.557
99351.593
99496.207
99626.513
99752.488
99873.323
98754.844
99051.548
99200.864
99337.679
99471.283
99599.513
98495.196
98805.455
98971.474
99118.876
99260.21
99393.282
98319.076
98670.107
98808.394
98913.223
99033.708
99158.933
98216.994
98453.506
98554.45
98721.911
98894.331
99062.605
97993.14
98330.245
98503.611
98686.26
98862.037
99021.824
97948.93
98378.453
98564.606
98727.818
98887.299
99037.692
98135.389
98527.457
98665.744
98811.391
98966.142
99112.358
98393.2
98704.483
98827.934
98963.607
99108.597
99244.319
98675.037
98936.648
99053.976
99175.363
99303.675
99422.571
98995.37
99216.28
99321.971
99429.213
99535.813
99631.324
99391.743
99564.012
99635.972
99709.721
99786.645
99856.746
99819.919
99922.657
99957.61
99994.323
100037
100077.71
100189.29
100247.5
100245.71
100243.58
100252.9
100267.04
100451.38
100483.04
100461.43
100436.95
100423.37
100416.63
100562.05
100565.8
100553.69
100537.85
100523.24
100510.28
100571.35
100574.85
100580.37
100578.16
100574.1
100565.68
100560.84
100585.99
100588.6
100590.85
100588.19
100591.85
100577.33
100583.33
100587.37
100590.78
100596.04
100612.48
100582.2
100584.98
100587.6
100591.85
100598.27
100620.47
100583.82
100586.94
100588.92
100592.42
100598.56
100612.08
100584.44
100587.32
100588.98
100591.16
100594.55
100600.09
100586.64
100588.7
100589.36
100590.15
100591.28
100593.19
100591.29
100591.74
100591.32
100590.87
100590.52
100590.55
100597.98
100596.72
100594.79
100592.79
100591.36
100590.37
100606.78
100604.17
100600.22
100596.41
100593.52
100591.64
100617.19
100612.51
100606.48
100600.87
100596.63
100594.02
100626.21
100619.09
100611.74
100604.65
100599.4
100596.11
100630.96
100618.86
100611.42
100604.65
100599.69
100596.49
100627.16
100620.35
100612.47
100604.94
100599.45
100595.98
100620.76
100615.52
100608.65
100601.88
100596.96
100593.74
100609.82
100606.05
100600.76
100595.91
100592.45
100590.03
100599.17
100596.92
100593.75
100590.69
100588.33
100586.66
100590.23
100589.59
100588.25
100586.79
100585.65
100584.79
100583.53
100584.69
100584.45
100584.28
100583.98
100584.08
100579.73
100581.81
100582.63
100583.51
100584.92
100587.01
100578.23
100581.31
100582.71
100584.54
100588.48
100595.3
100578.11
100582.01
100583.55
100585.65
100590.6
100604.92
100578.06
100583.21
100585.09
100586.5
100589.71
100604.62
100578.96
100583.21
100585.09
100586.7
100584.79
100589.39
100575.39
100579.51
100580.34
100574.5
102514.43
102642.02
102676.3
102654.55
103066.63
103152.08
103155
103103.44
103024.22
102927.65
103601.62
103646.84
103618.12
103535.69
103427.24
103299.09
104113.32
104117.75
104056.45
103943.38
103807.07
103653.81
104585.19
104549.39
104455.89
104314.14
104152.83
103980.56
104984.61
104923.81
104804.55
104641.98
104460.43
104272.06
105332.21
105268.54
105125.24
104942.14
104745.38
104538.32
105645.11
105564.24
105402.55
105201.38
104983.64
104761.04
105899.49
105800.83
105625.85
105405.64
105172.7
104938.37
106094.98
105985.21
105794.43
105559.25
105314.47
105070.9
106227.1
106095.46
105895.72
105656.53
105407.24
105158.49
106289.61
106103.85
105902.99
105677.39
105437.49
105193.12
106250.37
106127.16
105926.12
105684.95
105435.1
105186.87
106168.8
106055.48
105864.22
105627.72
105380.63
105135.02
106007.34
105901.35
105718.75
105498.89
105265.74
105031.03
105790.75
105696.59
105525.2
105317.58
105101.36
104879.83
105526.11
105450.7
105297.85
105103.02
104901.29
104698.65
105213.63
105155.43
105023.86
104850.31
104666
104474.37
104877.15
104822.76
104713.26
104563.97
104397.59
104217.89
104507.44
104473.98
104386.87
104256.26
104105.16
103940.4
104083.06
104083.43
104022.8
103914.77
103784.08
103639.26
103627.34
103661.68
103627.59
103544.22
103436.86
103314.19
103155.9
103223.46
103214.73
103155.69
103071.83
102976.79
102667.47
102769.38
102782.63
102743.44
102679.43
102626.33
100558.32
100570.28
100468.61
101395.34
101955.54
102126.13
102795.58
103043.47
103324.61
103607.25
103868.42
104109.7
104328.06
104524.64
104682.74
104812.96
104901.16
104948.45
104956.8
104925.45
104852.09
104740.03
104589.46
104397.99
104173.63
103919.36
103636.79
103330.12
103019.88
102887.18
103060.27
103314.56
103567.97
103798.98
104011.04
104197.13
104356.66
104492.89
104601.59
104674.54
104715.53
104722.54
104694.32
104632.89
104538.13
104409.28
104248.38
104060.94
103843.48
103595.86
103321.69
103041.56
102955.63
103088.3
103315.49
103532.59
103728.19
103902.04
104059.44
104188.92
104300.67
104387.79
104447.1
104481.4
104486.74
104463.49
104414.16
104337.54
104233.54
104104.07
103948.82
103769.32
103561.29
103326.97
103078.95
103003.52
103109.08
103303.39
103485.53
103646.57
103787.54
103909.64
104017.89
104108.5
104177.32
104225.42
104253
104256.66
104238.28
104199.09
104137.98
104055.03
103951.53
103827.99
103678.27
103510.76
103316.7
103107.35
103034.58
103117.37
103279.86
103430.01
103557.13
103667.48
103765.56
103852.04
103922.62
103976.4
104014.58
104035.23
104037.48
104023.08
103991.93
103943.46
103877.58
103794.4
103694.41
103579.33
103445.72
103288.23
103115.55
103051.89
103117.58
103250.46
103365.46
103461.8
103549.08
103627.08
103693.74
103747.51
103789.08
103817.69
103832.2
103833.31
103821.5
103796.48
103758.08
103706.29
103641.07
103562.64
103472.41
103368.44
103245.2
103106.04
103062.6
103112.81
103210.04
103294
103369.34
103437.59
103497.16
103547
103587.47
103618.06
103637.98
103647.59
103647.13
103636.52
103615.74
103584.79
103543.67
103492.42
103431.11
103360.3
103279.54
103185.59
103080.29
103066.91
103091.09
103159.61
103225.34
103283.94
103335.11
103378.87
103415.66
103444.64
103465.47
103478.47
103483.63
103480.92
103470.42
103452.22
103426.36
103392.85
103351.69
103302.96
103246.83
103182.97
103109.84
103029.6
103050.88
103057.62
103109.98
103162.05
103206.07
103243.61
103275.36
103300.82
103320.12
103333.22
103340.11
103340.87
103335.59
103324.42
103307.48
103284.82
103256.44
103222.33
103182.46
103136.43
103082.81
103021.91
102967.8
103023.59
103032.39
103069.47
103107.4
103139.44
103165.56
103186.71
103202.93
103214.13
103220.38
103221.78
103218.48
103210.62
103198.35
103181.82
103161.11
103136.28
103107.36
103074.38
103036.87
102993.09
102943.35
102903.76
103010.9
103010.95
103035.88
103061.28
103082.08
103098.34
103110.58
103118.88
103123.24
103123.74
103120.5
103113.7
103103.49
103090.02
103073.46
103053.9
103031.43
103006.12
102978.04
102946.87
102911.2
102871.39
102841.12
102996.14
102986.6
102997.1
103012.83
103025.82
103034.81
103040.31
103042.59
103041.73
103037.86
103031.13
103021.71
103009.77
102995.47
102978.95
102960.33
102939.72
102917.19
102892.84
102866.39
102836.65
102804.28
102781.88
102961.56
102950.21
102952.84
102961.15
102967.51
102970.52
102970.67
102968.31
102963.58
102956.61
102947.54
102936.52
102923.71
102909.23
102893.22
102875.77
102856.99
102836.97
102815.8
102793.23
102768.27
102741.7
102907
102897.8
102896.64
102898.6
102899.13
102897.4
102893.74
102888.36
102881.35
102872.78
102862.77
102851.42
102838.83
102825.11
102810.36
102794.66
102778.1
102760.76
102742.74
102723.8
102703.09
102681.52
102827.2
102820.63
102817.33
102815.4
102812.65
102808.58
102803.3
102796.88
102789.38
102780.83
102771.3
102760.86
102749.59
102737.56
102724.85
102711.53
102697.67
102683.36
102668.67
102653.38
102636.78
102619.86
102725.23
102721.43
102717.74
102714.24
102710.27
102705.58
102700.17
102694.03
102687.18
102679.66
102671.5
102662.73
102653.43
102643.63
102633.4
102622.77
102611.81
102600.58
102589.15
102577.3
102564.36
102551.39
102607.68
102606.34
102603.32
102599.72
102595.83
102591.63
102587.02
102581.97
102576.49
102570.58
102564.27
102557.59
102550.58
102543.26
102535.69
102527.89
102519.91
102511.81
102503.63
102495.15
102485.75
102476.52
102481.78
102482.59
102480.85
102478.05
102475.05
102471.96
102468.65
102465.08
102461.23
102457.12
102452.76
102448.17
102443.38
102438.42
102433.32
102428.1
102422.82
102417.52
102412.23
102406.75
102400.53
102394.68
102354.21
102356.89
102356.7
102355.21
102353.55
102351.87
102350.08
102348.1
102345.93
102343.57
102341.04
102338.35
102335.52
102332.57
102329.54
102326.43
102323.29
102320.16
102317.07
102313.82
102309.94
102306.52
102233.29
102237.43
102238.73
102238.68
102238.44
102238.22
102237.9
102237.42
102236.78
102235.98
102235.03
102233.95
102232.76
102231.46
102230.09
102228.67
102227.22
102225.78
102224.38
102222.83
102220.76
102219.19
102129.58
102134.16
102136.38
102137.47
102138.44
102139.43
102140.35
102141.14
102141.77
102142.24
102142.55
102142.7
102142.71
102142.59
102142.36
102142.04
102141.65
102141.23
102140.78
102140.15
102139.1
102138.51
102048.06
102051.78
102054.24
102056.17
102058.08
102059.98
102061.8
102063.52
102065.13
102066.63
102068
102069.26
102070.37
102071.33
102072.15
102072.83
102073.39
102073.83
102074.16
102074.26
102073.98
102073.98
102009.88
102010.62
102011.01
102011.24
102011.47
102011.78
102012.14
102012.54
102012.99
102013.5
102014.08
102014.72
102015.39
102016.09
102016.83
102017.64
102018.47
102019.3
102020.07
102020.74
102021.22
102021.93
101997.13
101996.69
101996.35
101996.06
101995.83
101995.66
101995.56
101995.5
101995.48
101995.48
101995.49
101995.52
101995.53
101995.48
101995.32
101995.05
101994.76
101994.51
101994.32
101994.16
101994.02
101994.06
101986.51
101986.14
101985.76
101985.41
101985.09
101984.77
101984.42
101984.03
101983.62
101983.22
101982.82
101982.42
101982.03
101981.63
101981.24
101980.85
101980.46
101980.11
101979.81
101979.54
101979.27
101979.05
101965.47
101965
101964.5
101964.02
101963.56
101963.11
101962.67
101962.24
101961.82
101961.39
101960.95
101960.5
101960.06
101959.63
101959.2
101958.79
101958.41
101958.09
101957.82
101957.53
101957.18
101956.83
101946.83
101946.4
101945.95
101945.48
101945.01
101944.53
101944.04
101943.54
101943.04
101942.52
101942
101941.48
101940.95
101940.42
101939.88
101939.36
101938.83
101938.31
101937.81
101937.31
101936.82
101936.36
101928.34
101928.01
101927.65
101927.28
101926.9
101926.51
101926.11
101925.7
101925.28
101924.85
101924.4
101923.95
101923.49
101923.02
101922.55
101922.07
101921.59
101921.11
101920.62
101920.14
101919.65
101919.17
101914.18
101913.9
101913.6
101913.28
101912.94
101912.58
101912.2
101911.81
101911.4
101910.97
101910.53
101910.07
101909.59
101909.1
101908.6
101908.08
101907.56
101907.02
101906.47
101905.92
101905.35
101904.79
101903.95
101903.72
101903.47
101903.19
101902.89
101902.58
101902.25
101901.9
101901.53
101901.15
101900.76
101900.35
101899.93
101899.49
101899.04
101898.57
101898.1
101897.61
101897.11
101896.59
101896.07
101895.54
101888.51
101888.36
101888.19
101887.99
101887.78
101887.54
101887.27
101886.99
101886.68
101886.35
101886
101885.64
101885.26
101884.86
101884.45
101884.02
101883.58
101883.09
101882.46
101881.97
101881.48
101880.98
101913.6
101828.72
101761.88
101737.11
101767.19
101859.57
101994.07
102123.59
102259.26
102015.69
101935.4
101872.55
101849.32
101879.86
101973.24
102114.52
102262.76
102385.11
102121.58
102047.96
101988.57
101962.94
101990.73
102079
102215.63
102364.15
102477.05
102230.75
102163.29
102107.24
102080.27
102103.21
102182.76
102307.53
102444.07
102547.5
102339.37
102278.95
102226.87
102199.5
102216.43
102284.55
102393.38
102513.35
102606.01
102443.7
102391.57
102344.71
102317.91
102328.63
102383.74
102474.4
102575.91
102656.02
102539.6
102497.11
102457.09
102432.49
102437.83
102479.92
102552.01
102634.88
102702.65
102623.01
102591.08
102559.65
102539.64
102541.66
102572.78
102629.01
102696.37
102755.53
102691.33
102671.25
102650.22
102636.75
102639.68
102666.19
102715.62
102770.39
102809.34
102738.9
102732.7
102726.7
102724.65
102733.31
102756.96
102791.07
102821.08
102831.85
102761.81
102767.11
102771.59
102774.8
102782.78
102797.65
102817.23
102840.8
102859.21
102754.02
102760.76
102771.87
102789.65
102812.52
102838.85
102866.22
102887.26
102895.32
102735.88
102749.5
102767.65
102790.09
102816.18
102844.5
102872.15
102892.73
102899.19
102686.55
102702.89
102724.72
102751.26
102780.83
102810.92
102838.69
102860.15
102870.6
102617.73
102635.64
102659.17
102687.15
102717.49
102747.4
102774.31
102795.99
102809.57
102527.84
102546.64
102570.81
102598.8
102628.61
102657.38
102682.9
102704.22
102719.75
102423.94
102442.42
102466.08
102493.56
102522.22
102549.05
102572.66
102593
102609.25
102315
102332.13
102354.05
102379.28
102405.58
102430.6
102452.46
102471.15
102486.94
102207.37
102222.24
102241.45
102263.73
102287.03
102309.03
102328.32
102345.41
102360.47
102112.1
102122.66
102137.97
102156.45
102176.01
102194.62
102211.02
102225.7
102239.02
102050.42
102052.96
102058.94
102069.2
102082.7
102097.08
102110.37
102122.4
102133.38
102019.95
102019.97
102020.48
102021.94
102024.92
102029.64
102035.71
102042.42
102049.01
102007.14
102007.05
102006.96
102006.91
102007.05
102007.43
102008.12
102009.19
102010.52
101998.13
101998.15
101998.15
101998.12
101998.08
101998.02
101997.95
101997.89
101997.77
101984.82
101984.98
101985.19
101985.45
101985.73
101986.01
101986.27
101986.51
101986.67
101964.9
101964.98
101965.09
101965.21
101965.34
101965.46
101965.57
101965.68
101965.74
101947.22
101947.22
101947.23
101947.24
101947.23
101947.2
101947.17
101947.16
101947.14
101928.55
101928.57
101928.61
101928.64
101928.65
101928.65
101928.63
101928.61
101928.58
101914.88
101914.87
101914.84
101914.8
101914.74
101914.66
101914.57
101914.49
101914.41
101904.72
101904.69
101904.66
101904.6
101904.53
101904.44
101904.33
101904.24
101904.16
101886.02
101886.3
101886.61
101886.94
101887.32
101887.74
101888.18
101888.57
101888.75
101998.34
102098.86
102199.43
102301.43
102401.21
102495.39
102580.03
102651.55
102708.03
102744.26
102759
102749.74
102726.38
102675.08
102604.84
102514.17
102410.24
102302.26
102196.53
102106.19
102049.72
102020.13
102007.24
101998.13
101984.71
101964.85
101947.22
101928.52
101914.89
101904.72
101885.63
102076.75
102172.09
102267
102361.89
102453
102537.41
102611.53
102672.54
102719.13
102747.28
102757.02
102746.31
102719.14
102666.52
102595.15
102503.97
102399.96
102292.86
102189.35
102103.86
102049.84
102020.39
102007.36
101998.17
101984.67
101964.85
101947.26
101928.53
101914.91
101904.72
101885.37
102156.39
102245.26
102332.83
102419.33
102500.91
102574.95
102638.31
102689.45
102727.53
102749.82
102755.71
102743.97
102713.54
102659.98
102587.71
102496.13
102392.26
102286.35
102185.61
102103.41
102050.11
102020.59
102007.46
101998.18
101984.63
101964.85
101947.28
101928.53
101914.93
101904.84
101885.13
102227.44
102309.41
102389.41
102467.44
102539.79
102604.14
102657.89
102700.98
102733.04
102751.77
102754.91
102742.47
102709.49
102655.45
102582.62
102490.95
102387.68
102283.19
102184.59
102103.57
102050.35
102020.73
102007.53
101998.21
101984.59
101964.85
101947.3
101928.52
101914.91
101904.65
101884.51
102275.23
102351.64
102426.13
102497.58
102563.42
102621.09
102668.57
102706.87
102736.27
102753.06
102753.96
102741.54
102707.11
102653.02
102580.1
102488.62
102386.04
102282.37
102184.57
102103.8
102050.52
102020.81
102007.58
101998.22
101984.57
101964.86
101947.32
101928.53
101914.95
101904.92
101887.04
102299.51
102372.76
102443.54
102511.42
102573.91
102628.28
102672.98
102708.86
102737.3
102753.84
102753.99
102741.35
102706.44
102652.41
102579.53
102488
102385.66
102282.58
102184.74
102103.87
102050.6
102020.85
102007.59
101998.23
101984.57
101964.85
101947.32
101928.52
101914.93
101904.71
101879.72
)
;

boundaryField
{
    Side1
    {
        type            empty;
    }
    Inlet
    {
        type            totalPressure;
        rho             rho;
        psi             none;
        gamma           1;
        p0              uniform 102920.87;
        value           uniform 101328.54;
    }
    Side2
    {
        type            empty;
    }
    Outlet
    {
        type            freestreamPressure;
        freestreamValue nonuniform List<scalar> 0();
        value           nonuniform List<scalar> 0();
    }
    Botwall
    {
        type            zeroGradient;
    }
    Cyli
    {
        type            zeroGradient;
    }
    procBoundary0to1
    {
        type            processor;
        value           nonuniform List<scalar> 
44
(
100623.64
100623.64
100620.11
100609.19
100609.19
100599.57
100599.57
100590.37
100588.04
100588.04
100587.17
100587.17
100587.01
100588.62
100591.75
100591.75
100593.95
100594.56
100593.79
100591.47
100587.83
100587.83
100583.71
100581.42
100580.73
100580.73
100580.75
100522.84
100513.36
100610.42
100600.28
100588.51
100576.69
100565.63
100522.84
100555.27
100610.42
100621.98
100503.41
100493.06
100483.24
100474.56
100467.8
100463.15
)
;
    }
    procBoundary0to2
    {
        type            processor;
        value           nonuniform List<scalar> 
55
(
100570.71
100579.44
100584.87
100589.36
100593.76
100567.59
100565.76
100556.7
100567.59
100538.05
102190.16
102605.19
102202.8
102605.19
102555.12
100556.7
100500.95
100500.95
100247.55
100845.01
101609.2
101609.2
102190.16
102734.85
102836.51
102914.84
102978.59
103019.28
103033.54
103026.71
102997.06
102953.98
102903.81
102844.98
102790.51
102724.69
102724.69
102669.03
102611.83
102547.11
102475.73
102396.91
102310.49
102224.05
102143.08
102077.6
102024.71
101994.91
101978.97
101956.51
101935.92
101918.7
101904.22
101894.99
101880.46
)
;
    }
    procBoundary0to3
    {
        type            processor;
        value           nonuniform List<scalar> 7(100585.68 100585.68 100590.08 100590.08 100595.27 100595.27 100599.12);
    }
}


// ************************************************************************* //
