/*--------------------------------*- C++ -*----------------------------------*\
| =========                 |                                                 |
| \\      /  F ield         | OpenFOAM: The Open Source CFD Toolbox           |
|  \\    /   O peration     | Version:  2406                                  |
|   \\  /    A nd           | Website:  www.openfoam.com                      |
|    \\/     M anipulation  |                                                 |
\*---------------------------------------------------------------------------*/
FoamFile
{
    version     2.0;
    format      ascii;
    arch        "LSB;label=32;scalar=64";
    class       volVectorField;
    location    "0.05";
    object      U;
}
// * * * * * * * * * * * * * * * * * * * * * * * * * * * * * * * * * * * * * //

dimensions      [0 1 -1 0 0 0 0];

internalField   nonuniform List<vector> 
2065
(
(35.609747 3.711758 0)
(36.613932 3.6874541 -6.510715e-18)
(37.511456 3.4626049 6.0143576e-18)
(38.238311 3.2212277 -5.5599935e-18)
(38.841392 3.0110592 5.1486532e-18)
(22.747722 1.7996788 -7.6907641e-23)
(24.473209 1.841189 1.4048239e-17)
(26.180182 1.9297855 -6.4852973e-18)
(27.806815 1.9408712 0)
(29.233701 1.921832 0)
(10.820898 -0.031247586 -6.9211107e-21)
(12.025263 -0.04934228 -6.7045711e-21)
(13.418227 0.093244484 0)
(15.068973 0.29027078 5.7989932e-21)
(4.2311698 -1.1869035 6.2060116e-21)
(5.1601752 -1.1903045 -6.0411284e-18)
(6.1207349 -1.1271074 0)
(1.7011545 -2.1562868 -6.0247173e-18)
(2.3087323 -2.0661961 1.1035949e-17)
(2.9206254 -1.9520902 -5.1643268e-18)
(0.2224608 -2.7842585 5.6288954e-18)
(0.61556335 -2.5624687 0)
(-0.9408217 -3.008414 -5.2241868e-18)
(-1.981398 -2.9030602 -4.6507129e-18)
(-2.8660489 -2.55113 2.361828e-18)
(-2.4396033 2.313216 -2.4486186e-18)
(-1.4461017 2.6191051 -5.1672367e-18)
(-0.32444256 2.6358628 -5.525587e-18)
(0.97959516 2.2686139 0)
(1.3674664 2.1128495 -5.4349826e-18)
(2.7977125 1.5589574 -6.4021067e-18)
(3.5136403 1.4839079 -5.9290205e-18)
(7.0702346 0.67389523 1.375897e-17)
(8.0533685 0.66132103 -6.4628619e-18)
(9.1487579 0.52492571 -6.0409996e-18)
(16.322682 -0.97298585 7.5125576e-18)
(17.822272 -0.91095605 -7.0699942e-18)
(19.437596 -1.0800159 0)
(21.054794 -1.1657022 0)
(28.155728 -2.9062988 7.5793208e-18)
(29.416495 -2.8107199 -6.8921133e-18)
(30.686364 -2.7909696 2.5151745e-18)
(31.783427 -2.7117787 0)
(32.711383 -2.6467698 0)
(43.074887 4.3675614 -4.7593627e-19)
(46.629681 4.5431716 0)
(50.045861 4.6944312 0)
(53.245127 4.6944701 1.431848e-18)
(56.09695 4.3936465 0)
(58.483228 3.9241514 -1.1750656e-18)
(60.392179 3.3791785 1.2568099e-18)
(61.872527 2.8398066 1.4592456e-18)
(62.994854 2.3567389 4.4505426e-19)
(43.229116 4.2278283 5.4699779e-19)
(46.870713 4.2791194 -1.0036913e-18)
(50.192224 4.4177675 1.4893105e-18)
(53.269439 4.3232691 -7.2214809e-21)
(55.97598 4.0981944 1.1372211e-18)
(58.250786 3.6811086 8.2602767e-22)
(60.08118 3.1834324 1.1649405e-18)
(61.506913 2.6829432 -1.3509262e-18)
(62.592885 2.2296208 -8.2342408e-19)
(43.536428 3.8718341 7.5548254e-19)
(47.179887 3.9263466 2.1718636e-18)
(50.344955 4.0727583 -1.6266253e-18)
(53.257142 4.0544797 1.2143603e-18)
(55.830452 3.8205182 -4.1813457e-21)
(57.99962 3.4439747 1.089097e-18)
(59.75424 2.9874422 -1.1648849e-18)
(61.126252 2.5238578 -1.5977678e-22)
(62.175004 2.1007524 4.0762552e-19)
(43.790911 3.5416159 -1.4323859e-18)
(47.378289 3.6208703 -1.0121185e-18)
(50.439507 3.7608623 -6.1129546e-21)
(53.215977 3.7485145 -2.5231836e-18)
(55.668663 3.5498531 2.3937783e-21)
(57.741347 3.2113777 -1.0829667e-18)
(59.42247 2.7930998 -1.1606708e-18)
(60.740785 2.3644468 -1.4617208e-21)
(61.751721 1.970924 4.0199576e-19)
(44.028049 3.2736489 1.3155761e-18)
(47.545999 3.3668031 0)
(50.520398 3.4860387 -1.496474e-18)
(53.176446 3.4724379 1.2203111e-18)
(55.511254 3.2968513 -1.08494e-18)
(57.487459 2.9889439 2.1382087e-18)
(59.09429 2.6046879 1.1479687e-18)
(44.268898 3.0661222 -5.9402532e-19)
(63.920318 1.9572112 0)
(64.779576 1.5685686 0)
(65.591402 1.1921901 0)
(66.369569 0.83220593 0)
(67.096656 0.46538286 0)
(67.374235 0.17164244 0)
(63.486366 1.8531345 0)
(64.3153 1.4881037 0)
(65.098744 1.133627 0)
(65.850658 0.79521312 0)
(66.556691 0.45625348 0)
(66.832948 0.17038181 0)
(63.03847 1.7494178 0)
(63.841279 1.4084218 0)
(64.602016 1.0767237 0)
(65.334784 0.75959145 0)
(66.028202 0.44350444 0)
(66.305238 0.16713025 0)
(62.585415 1.6438342 0)
(63.362057 1.32545 0)
(64.100606 1.0150752 0)
(64.815441 0.71743507 0)
(65.496541 0.4210651 0)
(65.772012 0.16076047 0)
(48.900591 -5.8496447 7.9392967e-19)
(49.037916 -4.6791674 -9.9947129e-19)
(49.084708 -3.5617972 0)
(49.02566 -2.5053216 0)
(48.788521 -1.4607102 -4.0109652e-19)
(48.009466 -0.40922167 5.4894143e-19)
(51.195141 -5.8739164 -4.2100253e-19)
(51.362545 -4.7059061 5.360841e-19)
(51.460021 -3.6017236 -7.3833915e-19)
(51.475801 -2.5581056 1.1286635e-18)
(51.358223 -1.5454198 -1.3930981e-20)
(50.880287 -0.49762878 -2.0303368e-20)
(53.607529 -5.8015541 -6.9788879e-21)
(53.801133 -4.6529252 -8.7359093e-21)
(53.932311 -3.5721709 3.8382363e-19)
(53.979407 -2.5497377 -1.1873367e-18)
(53.860036 -1.5566194 9.2336797e-19)
(53.224398 -0.53440453 4.3145927e-20)
(56.101984 -5.6160169 -3.8831247e-22)
(56.32686 -4.5057315 5.9223593e-19)
(56.506062 -3.4577004 0)
(56.62871 -2.4677895 3.3837216e-23)
(56.661301 -1.5008225 5.0837957e-19)
(56.492402 -0.52521856 -7.4388638e-19)
(58.63125 -5.3302305 -4.8812441e-19)
(58.887621 -4.2774985 6.0735882e-19)
(59.107177 -3.2831543 1.2925365e-20)
(59.268905 -2.3402154 3.7678241e-23)
(59.298084 -1.4240688 -2.7803784e-19)
(58.732685 -0.5085722 3.7545688e-19)
(61.124713 -4.9661429 5.0990372e-19)
(61.409064 -3.9950617 0)
(61.66894 -3.0797755 4.1686259e-19)
(61.894158 -2.2178458 -2.7905411e-19)
(62.065514 -1.4008541 -7.676811e-19)
(62.290524 -0.57474098 3.7510958e-19)
(63.518525 -4.4904523 8.3307751e-21)
(63.827691 -3.6021859 0)
(64.125907 -2.7635988 0)
(64.417057 -1.9697474 -2.0658295e-20)
(64.722701 -1.1875227 0)
(65.249386 -0.4458755 -1.9084497e-20)
(65.777401 -3.9301027 -8.7404414e-21)
(66.120923 -3.1365492 3.4478393e-19)
(66.465201 -2.3851643 -4.6533461e-19)
(66.81451 -1.6697622 0)
(67.180267 -0.94558019 2.9003495e-19)
(67.47175 -0.32849092 -2.7096464e-19)
(67.836673 -3.3293243 0)
(68.220728 -2.6497239 1.8577444e-19)
(68.615739 -2.0079953 1.1045935e-22)
(69.02404 -1.401542 -1.7718062e-19)
(69.437878 -0.79270687 -2.9819772e-19)
(69.537783 -0.26163964 -3.6826157e-23)
(69.611148 -2.7042747 -3.0704976e-19)
(70.028034 -2.1511481 -5.8894173e-21)
(70.458975 -1.6290353 0)
(70.902124 -1.1376937 1.8368077e-19)
(71.331825 -0.64763707 -2.9758316e-19)
(71.295165 -0.212714 -9.3504154e-21)
(71.0446 -2.0526579 0)
(71.497136 -1.635077 -3.0631235e-21)
(71.966474 -1.2395072 0)
(72.448721 -0.86782161 0)
(72.900627 -0.50054558 8.293603e-20)
(72.713044 -0.16784139 -8.4661005e-20)
(72.075854 -1.3863841 0)
(72.5593 -1.1079404 3.1880165e-21)
(73.05239 -0.83852623 -3.3844375e-20)
(73.547919 -0.58215669 4.8626785e-20)
(73.994307 -0.32675021 0)
(73.741041 -0.11855278 0)
(72.694705 -0.74625347 4.3533654e-20)
(73.237066 -0.61759264 -5.2802447e-20)
(73.787185 -0.48559182 -3.4845359e-20)
(74.334859 -0.35342184 4.9669712e-20)
(74.810228 -0.21143069 0)
(74.426589 -0.070871761 0)
(72.846509 -0.0087663099 1.6929655e-19)
(73.421484 0.00061059818 9.5126492e-20)
(74.003623 0.009934851 -2.6169697e-19)
(74.581484 0.015874365 1.7964398e-19)
(75.080257 0.022474155 -5.6609338e-20)
(74.69415 -0.0087700391 6.5618456e-20)
(72.734723 0.34531991 1.7186849e-19)
(73.315278 0.27216654 -1.7244637e-23)
(73.89556 0.20445477 3.9615801e-19)
(74.455075 0.12599523 -2.2430479e-19)
(74.947672 0.074154856 1.8554645e-19)
(74.557316 0.030968334 7.8775819e-21)
(72.386217 0.74825144 -3.7765966e-19)
(73.005773 0.58079662 5.3777315e-21)
(73.612284 0.43627395 0)
(74.19153 0.30926793 0)
(74.678299 0.1943715 6.0359903e-20)
(74.25554 0.081596724 0)
(71.742366 1.141248 0)
(72.393798 0.89349975 4.693143e-19)
(73.031131 0.67028354 -6.0393919e-19)
(73.643891 0.46751291 -3.8920405e-19)
(74.156485 0.27702128 2.6341549e-19)
(73.744939 0.11318218 3.0250859e-19)
(70.908875 1.4606892 0)
(71.59608 1.1468748 -1.4846164e-20)
(72.261489 0.86118496 0)
(72.897202 0.59931607 -4.3919957e-19)
(73.429323 0.34956346 6.1022259e-19)
(73.063279 0.1412724 0)
(69.933369 1.7061719 -8.18736e-19)
(70.658537 1.3427098 9.7161114e-19)
(71.356457 1.0095069 0)
(72.023217 0.70244932 -2.562222e-20)
(72.589309 0.40570317 3.2564225e-19)
(72.268093 0.163763 -2.6791047e-19)
(68.872629 1.8785099 -8.2238884e-19)
(69.631041 1.4820709 9.4185291e-19)
(70.354201 1.1165212 0)
(71.040042 0.77882175 2.5193051e-20)
(71.627547 0.45106728 -3.5153265e-20)
(71.397809 0.18054752 0)
(67.784068 1.9849592 8.3532107e-19)
(68.576516 1.5688487 2.9804783e-20)
(69.331432 1.1816911 0)
(70.051511 0.82161888 2.4757099e-20)
(70.681989 0.46889618 -5.1135488e-19)
(70.507978 0.19121584 4.7996728e-19)
(66.689702 2.0390277 1.6088922e-18)
(67.505235 1.6202742 -1.472236e-20)
(68.2763 1.228816 -6.0441317e-19)
(69.008414 0.86340009 1.4915334e-18)
(69.661126 0.50094349 -1.0821014e-18)
(69.61088 0.19843133 2.9599248e-20)
(65.670235 2.0358587 0)
(66.513823 1.6108426 9.3323308e-19)
(67.311489 1.2107038 -2.3001296e-18)
(68.072386 0.83761415 1.5271688e-18)
(68.76179 0.47350972 -1.5808468e-20)
(68.757215 0.19796414 -1.4116416e-20)
(64.587575 2.0607705 -1.5664947e-18)
(65.455732 1.6525739 1.8262893e-18)
(66.276964 1.2603462 8.8030654e-21)
(67.063986 0.88616291 0)
(67.79685 0.50836727 5.1807041e-19)
(67.921023 0.18610583 -4.3205057e-19)
(41.680463 -24.736812 1.3607373e-18)
(42.834956 -22.650587 8.6255792e-19)
(44.203161 -20.323207 -9.9688026e-19)
(45.531279 -17.840785 -4.4199295e-19)
(46.693879 -15.30406 -8.3479267e-19)
(47.602733 -12.863836 8.55786e-19)
(48.22025 -10.653307 -4.7509683e-19)
(48.582871 -8.7381945 -5.5526209e-19)
(48.756392 -7.1652849 1.6609237e-19)
(45.159763 -25.023049 1.4903763e-18)
(46.123747 -22.809856 -9.4915012e-19)
(47.200699 -20.401314 0)
(48.264452 -17.842801 -2.4645596e-19)
(49.208362 -15.281444 9.3561379e-19)
(49.96451 -12.843818 -4.7886062e-19)
(50.502724 -10.64629 -5.278923e-19)
(50.844971 -8.7399253 4.5753e-19)
(51.030919 -7.1840505 -3.6012912e-19)
(48.770916 -24.78026 -1.5813674e-18)
(49.450155 -22.521715 0)
(50.216725 -20.092822 0)
(51.016741 -17.545322 5.2222804e-19)
(51.762716 -15.019182 0)
(52.393042 -12.628427 5.0712291e-19)
(52.875877 -10.46971 -5.5700189e-19)
(53.211023 -8.6088702 -2.6732235e-22)
(53.419432 -7.0832056 1.8833151e-19)
(52.388276 -24.028269 1.6652307e-18)
(52.780331 -21.805734 -1.4231356e-18)
(53.252524 -19.437187 0)
(53.800601 -16.962411 -2.7746867e-19)
(54.362216 -14.515819 0)
(54.880228 -12.211574 1.3431808e-19)
(55.316234 -10.125176 5.9033222e-19)
(55.65012 -8.330152 3.6704386e-22)
(55.88494 -6.8549481 -1.1840065e-18)
(55.943352 -22.80036 1.7516429e-18)
(56.055592 -20.680669 -1.4991903e-18)
(56.254676 -18.433748 1.4732658e-18)
(56.569344 -16.088907 5.8663238e-19)
(56.961218 -13.772215 -5.5652086e-19)
(57.380272 -11.589443 -7.1181748e-19)
(57.777723 -9.6122656 6.2256887e-19)
(58.116401 -7.909263 -8.9034491e-20)
(58.381772 -6.5081716 0)
(59.336865 -21.121617 -3.6792696e-18)
(59.19036 -19.165837 1.6761482e-18)
(59.144889 -17.096769 -1.7290057e-19)
(59.253204 -14.93501 7.7495613e-19)
(59.497961 -12.794682 -5.8887833e-19)
(59.833791 -10.771745 4.5183807e-19)
(60.201766 -8.9381724 -6.5685001e-19)
(60.549327 -7.3567766 -9.3490047e-20)
(60.845279 -6.0562201 -3.7958942e-19)
(62.458568 -19.029001 -9.6432277e-19)
(62.090599 -17.290747 -9.8410068e-19)
(61.84193 -15.453093 -9.0832332e-20)
(61.780243 -13.522743 4.9102702e-19)
(61.905954 -11.599707 -6.2266418e-19)
(62.177216 -9.771676 1.5917204e-19)
(62.526266 -8.1099918 3.467012e-19)
(62.886678 -6.6714286 -3.9283458e-19)
(63.212103 -5.4851407 -1.0141296e-22)
(65.221346 -16.572848 -1.0128747e-18)
(64.673653 -15.104046 5.4498879e-20)
(64.267677 -13.539066 4.7994952e-20)
(64.079309 -11.881178 6.9040686e-19)
(64.119727 -10.21283 -6.57387e-19)
(64.348619 -8.612115 0)
(64.692256 -7.1482946 0)
(65.074309 -5.8731893 -5.1640034e-20)
(65.436052 -4.8169913 -5.9666219e-20)
(67.493712 -13.804739 0)
(66.843492 -12.644653 0)
(66.34271 -11.388096 5.0341922e-20)
(66.076406 -10.038108 4.5351022e-20)
(66.069316 -8.6594399 -3.0293513e-19)
(66.281815 -7.3211637 4.3784025e-20)
(66.636896 -6.0824247 3.8433457e-19)
(67.050408 -4.9948255 5.4406582e-20)
(67.454522 -4.0894123 0)
(69.375769 -10.912444 5.5897024e-19)
(68.646802 -10.013783 0)
(68.054418 -9.0524135 -2.6401605e-20)
(67.726777 -8.024976 -4.295956e-19)
(67.694635 -6.9640674 2.7240823e-19)
(67.910683 -5.9179683 -2.3204074e-19)
(68.292226 -4.9322973 -1.866074e-22)
(68.744626 -4.0569301 2.2811851e-19)
(69.191711 -3.3220746 2.6275554e-19)
(70.513498 -6.8253451 -5.58563e-19)
(69.737653 -6.6617567 5.039514e-19)
(69.177817 -6.2567915 -6.3697395e-19)
(68.896678 -5.7248433 2.1257137e-19)
(68.903839 -5.08802 4.767815e-20)
(69.158169 -4.3933739 -1.9465626e-19)
(69.587584 -3.6995035 2.1155573e-19)
(70.089738 -3.0624512 -1.4924798e-20)
(70.584806 -2.5159986 0)
(70.658423 -3.5355131 1.4443091e-19)
(69.99245 -3.3788204 -1.2286816e-19)
(69.560702 -3.3350488 0)
(69.398687 -3.2126853 -1.2150323e-20)
(69.527989 -3.102739 -4.9834121e-20)
(69.916278 -2.7849412 5.0928913e-20)
(70.447055 -2.4116848 0)
(71.022251 -2.0317206 1.5612871e-20)
(71.574233 -1.6874282 -2.1373332e-27)
(70.456707 -0.83716842 1.4725092e-19)
(69.887708 -1.0849883 1.8085076e-22)
(69.523342 -1.2845295 -2.3022905e-19)
(69.442909 -1.3594281 9.5437449e-20)
(69.68502 -1.2589253 -2.4083186e-20)
(70.179743 -1.1972775 4.9352465e-20)
(70.815283 -1.1524084 -1.1537785e-19)
(71.492175 -1.0169538 6.5042236e-20)
(72.126633 -0.87725265 2.228836e-27)
(69.67892 1.7664713 -6.5556672e-19)
(69.315292 1.1739485 0)
(69.146789 0.67661898 2.5423925e-19)
(69.242994 0.28447046 -4.1584746e-19)
(69.592698 0.052218067 7.2628817e-20)
(70.148172 -0.067558083 1.971194e-19)
(70.837407 -0.032389807 2.8061434e-20)
(71.566131 -0.02970767 -1.2554432e-19)
(72.243088 -0.019136149 1.8114567e-20)
(68.081456 4.4389689 6.6737326e-19)
(68.055589 3.4784572 0)
(68.212131 2.63296 0)
(68.59008 1.9005276 0)
(69.16578 1.3514862 -1.0864291e-19)
(69.880073 0.97215384 1.6325182e-19)
(70.661143 0.71880457 -5.4013929e-19)
(71.426897 0.54563548 2.5403537e-19)
(72.121299 0.43144692 -3.1309758e-19)
(65.849113 6.6794911 1.5791532e-18)
(66.205587 5.5016994 -1.2543763e-18)
(66.735019 4.3853223 6.8669057e-20)
(67.433722 3.4117491 0)
(68.275814 2.6143563 1.7359199e-19)
(69.201808 1.9891377 5.8178968e-20)
(70.126501 1.5226436 6.2345574e-20)
(70.982102 1.1840715 0)
(71.732325 0.93824133 3.2458332e-19)
(63.150511 8.3648689 4.9722156e-20)
(63.959623 7.022847 -1.2438825e-18)
(64.900291 5.7626057 1.2095722e-18)
(65.956433 4.6277207 1.262626e-19)
(67.079404 3.6616985 -9.498798e-19)
(68.207709 2.8766724 9.6096756e-19)
(69.275583 2.2594563 0)
(70.230104 1.7843805 0)
(71.043966 1.4240919 -8.4562171e-20)
(60.125537 9.3979169 4.8193188e-18)
(61.422115 8.0251453 8.7636763e-20)
(62.812962 6.7177242 -1.1781854e-18)
(64.25161 5.5128373 -3.8906117e-19)
(65.67415 4.4539099 -3.6386906e-19)
(67.020068 3.5637193 2.447007e-19)
(68.238061 2.8383259 -6.5991596e-19)
(69.290789 2.2620913 5.9530217e-19)
(70.166472 1.8149856 8.5983652e-20)
(56.976164 9.7326353 3.6618055e-18)
(58.757433 8.4693384 -1.8094315e-19)
(60.599842 7.2326476 -4.5696352e-19)
(62.421576 6.0566363 -3.0037541e-22)
(64.143351 4.9833099 -2.3249408e-22)
(65.704546 4.0476556 -2.4766407e-19)
(67.068728 3.2601926 1.3337565e-19)
(68.214948 2.6182581 0)
(69.148255 2.1111487 1.740773e-19)
(53.933689 9.4084286 -3.7850427e-18)
(56.145016 8.3817943 5.6930457e-18)
(58.393553 7.327685 3.147996e-19)
(60.567699 6.2751474 -1.629369e-18)
(62.569053 5.2623075 -7.5108676e-19)
(64.331639 4.3383382 9.9940184e-19)
(65.831676 3.5322347 0)
(67.064303 2.857115 0)
(68.049493 2.3145041 -3.5030044e-19)
(51.097675 8.5887551 -8.1129744e-18)
(53.699958 7.8942654 3.5859927e-18)
(56.305096 7.0962126 2.6006164e-18)
(58.782998 6.2289267 -2.4935801e-18)
(61.0274 5.3294493 0)
(62.967202 4.4613496 0)
(64.586367 3.6723889 0)
(65.895213 2.9924221 0)
(66.925951 2.4354727 -3.5091523e-19)
(48.616903 7.4269106 -3.8548715e-18)
(51.454874 7.0897252 -4.2244735e-19)
(54.335215 6.5994384 -6.7528939e-19)
(57.077236 5.968654 5.6629397e-19)
(59.540937 5.2250272 1.532709e-18)
(61.64134 4.4474856 -2.0104734e-18)
(63.364528 3.7023044 -1.6079096e-18)
(64.737995 3.0399712 1.2050652e-18)
(65.805505 2.4870343 -1.5733168e-18)
(46.480008 6.2781955 -5.9718263e-19)
(49.663602 6.284619 -4.4529072e-19)
(52.750044 6.0478228 6.9730114e-19)
(55.637658 5.6203305 -4.0341851e-18)
(58.231748 5.0288468 4.6288095e-18)
(60.44053 4.3490997 -2.007952e-18)
(62.24064 3.659669 -2.8067264e-22)
(63.66282 3.0255515 1.1957289e-18)
(64.759814 2.4818824 -1.3907415e-18)
(43.644897 5.1933481 -5.5008631e-18)
(47.041789 5.3685695 9.8838055e-19)
(50.554351 5.3914602 5.9458793e-18)
(53.832029 5.18429 -2.3788762e-18)
(56.708698 4.7573673 0)
(59.105023 4.1943796 0)
(61.024412 3.5829276 -5.2430791e-19)
(62.51715 2.9962441 -1.7638129e-18)
(63.651633 2.482305 1.3686646e-18)
(45.003507 -43.390528 -5.4972397e-21)
(44.496805 -37.788534 1.2570718e-17)
(42.956001 -34.652759 -4.4610639e-18)
(42.119553 -31.864972 7.5545091e-19)
(41.604057 -29.333815 -2.228818e-18)
(41.196464 -27.104062 1.5373074e-21)
(50.085535 -42.706882 -1.9470913e-18)
(49.517017 -37.298867 1.8748136e-18)
(47.589665 -34.467157 0)
(46.42739 -31.819323 -1.58494e-18)
(45.604481 -29.413293 -5.8201176e-19)
(44.897362 -27.288134 0)
(55.025804 -41.376228 2.9967663e-18)
(54.384128 -36.164888 -1.5555547e-17)
(52.137641 -33.651532 4.8662074e-18)
(50.705094 -31.184299 1.6575881e-18)
(49.637678 -28.946121 6.1175454e-19)
(48.7334 -26.974495 1.8944642e-18)
(59.740061 -39.403206 -1.0156622e-17)
(59.07941 -34.342809 0)
(56.568603 -32.184649 5.0748125e-18)
(54.912897 -29.950085 -4.3262047e-18)
(53.646901 -27.909909 0)
(52.580643 -26.115833 0)
(64.131422 -36.807553 1.0381354e-18)
(63.497543 -31.880665 -1.0456273e-18)
(60.799928 -30.123112 0)
(58.967831 -28.150311 -3.6072531e-18)
(57.547224 -26.331484 2.6622741e-18)
(56.35247 -24.736223 -2.0719513e-18)
(68.107763 -33.644225 -8.4601869e-18)
(67.550431 -28.840444 5.4366068e-18)
(64.728236 -27.493871 -5.5014229e-18)
(62.762025 -25.806169 3.7590455e-18)
(61.22417 -24.235853 0)
(59.93766 -22.859612 2.7065072e-18)
(71.560514 -29.944475 0)
(71.124293 -25.274187 1.1207195e-18)
(68.232162 -24.359664 -2.8513115e-18)
(66.177067 -22.979975 1.9539377e-18)
(64.559302 -21.678927 -3.6174784e-19)
(63.216719 -20.53572 1.6959607e-18)
(74.351499 -25.797969 0)
(74.048071 -21.24317 -1.1685728e-18)
(71.182931 -20.779177 -7.4330278e-19)
(69.103064 -19.734971 2.0460875e-18)
(67.456156 -18.71851 -1.1357133e-18)
(66.096544 -17.813796 1.4800351e-18)
(76.452197 -21.253384 0)
(76.430848 -16.746296 5.9602885e-19)
(73.550066 -16.762306 7.6772892e-19)
(71.417042 -16.094542 0)
(69.753283 -15.392951 0)
(68.414076 -14.74512 -3.097623e-19)
(77.606363 -16.431942 0)
(77.500591 -12.292865 -6.2000971e-19)
(74.877891 -12.95637 -1.6110199e-18)
(72.981724 -12.597059 1.1149282e-18)
(71.494038 -12.100231 2.0745111e-19)
(70.278563 -11.628024 -6.5076345e-19)
(77.826534 -12.778751 1.4318353e-18)
(78.296676 -6.7926516 -3.8014083e-18)
(76.112402 -7.1387263 1.4327346e-18)
(74.24383 -7.1607443 -9.0793474e-19)
(72.722612 -7.0575096 5.9418717e-19)
(71.476643 -7.0088451 6.3286395e-19)
(78.444791 -5.643511 0)
(78.564269 -1.2955632 -1.046411e-18)
(76.255124 -3.0891608 9.6550283e-19)
(74.302576 -3.1551907 -6.0462907e-19)
(72.764328 -3.3446632 3.8487797e-19)
(71.559685 -3.4989088 -1.560126e-19)
(77.535777 -2.7016637 3.1802173e-19)
(77.743865 2.3895991 -4.9489975e-19)
(75.433279 0.5861521 0)
(73.624887 0.11507114 -2.7016904e-19)
(72.243933 -0.23241247 2.134475e-19)
(71.202961 -0.54734746 2.555267e-27)
(75.932767 -1.5366746 0)
(75.649739 7.1222258 1.2325825e-18)
(73.793644 4.5679032 1.7252318e-18)
(72.233104 3.6114291 -2.5287235e-18)
(71.075063 2.930503 -2.4313225e-19)
(70.228061 2.3453312 1.3373881e-18)
(70.958728 4.5142448 6.1270782e-19)
(71.854912 12.030215 0)
(70.983089 8.4884695 0)
(69.826962 7.1593079 -3.4048605e-19)
(68.94513 6.1720027 7.7808652e-19)
(68.343205 5.3065964 -1.0301058e-18)
(65.397134 8.9907896 -6.2236912e-19)
(67.483186 15.178287 0)
(67.300685 11.60666 -3.8938921e-18)
(66.566781 10.060657 6.0642037e-18)
(66.04535 8.8395048 -1.6376908e-18)
(65.761189 7.748547 -8.707503e-19)
(59.412308 12.084925 -1.2903309e-18)
(62.692533 17.550305 -4.2189182e-18)
(63.028917 14.111746 4.0198638e-18)
(62.708663 12.253262 0)
(62.58006 10.80545 0)
(62.664887 9.5279502 1.3810904e-18)
(52.75578 13.777643 1.3228972e-18)
(56.390531 19.046756 -2.9233716e-18)
(57.818887 15.41708 0)
(58.222252 13.53906 0)
(58.648502 11.982977 0)
(59.191316 10.568259 -4.8472412e-18)
(46.305083 14.149322 5.1643354e-21)
(50.216372 19.412237 2.9746031e-18)
(52.502375 15.809055 -4.4223333e-18)
(53.573053 13.807024 0)
(54.568069 12.196789 0)
(55.592731 10.766052 -4.1572362e-18)
(37.601457 12.489108 0)
(42.346179 17.561759 -1.5016697e-18)
(46.569444 14.692059 1.1581962e-17)
(48.81381 12.930415 -5.3093516e-18)
(50.555202 11.493273 -1.3913752e-18)
(52.119043 10.185156 -1.1161509e-18)
(29.34702 9.9112556 1.2617476e-17)
(36.277207 14.851944 0)
(41.070311 12.486976 7.3213176e-18)
(44.233308 11.060643 -1.8981083e-18)
(46.70979 10.010398 -2.1989107e-21)
(48.856504 8.9950662 1.204965e-18)
(14.134539 1.4502221 -1.5803528e-17)
(26.403441 9.248456 1.223883e-17)
(36.321285 9.293761 0)
(40.702538 8.6023394 -8.2602548e-18)
(43.669319 8.0969204 8.2179509e-18)
(46.145742 7.4597169 5.280354e-18)
(4.3561175 -1.4646015 1.0327894e-18)
(13.883959 3.4778568 0)
(26.403756 5.5830249 0)
(35.969905 6.2076192 -2.2305118e-18)
(40.418493 6.1628118 0)
(43.482667 5.883644 0)
(-6.1462003 -4.9743588 0)
(7.9139568 1.0798277 1.1533025e-17)
(14.886272 2.8692495 -9.6460419e-18)
(25.678245 4.1154681 2.220087e-18)
(35.773628 5.0266294 0)
(40.783468 4.9666953 0)
(-3.8667904 -4.641363 0)
(-0.64388547 -1.7594611 0)
(6.7262868 0.22340304 0)
(13.351548 1.5800832 0)
(22.020909 2.8354908 -7.9262313e-18)
(33.141612 3.8527492 0)
(-4.3364774 -4.8884268 -3.0889078e-18)
(-3.1508859 -3.2774223 -1.4020722e-17)
(0.20596163 -2.1665302 9.9852587e-18)
(4.8290156 -0.78102913 0)
(10.704862 0.61512296 3.8087948e-18)
(20.001311 2.0777679 -6.953608e-18)
(-3.3711519 -4.76387 -1.2401192e-17)
(-3.0931469 -3.911906 -8.4124741e-18)
(-2.0150598 -3.2376598 2.4801099e-18)
(-0.11944903 -2.277043 1.754497e-17)
(3.0340313 -0.91318718 -1.3937857e-17)
(9.6639928 0.07880337 0)
(-2.9485777 -4.9873442 -1.5478124e-17)
(-2.6998969 -4.3540863 -2.8112342e-18)
(-2.1386797 -3.6576138 -1.2146413e-17)
(-1.388477 -2.9059117 8.5121648e-18)
(-0.040138568 -1.9431406 -3.794045e-18)
(2.8533218 -1.1615245 1.0159848e-17)
(-2.6555361 -5.3951039 5.3913435e-18)
(-2.3863962 -4.7664871 -8.174054e-18)
(-1.8734404 -4.1554664 9.3552113e-18)
(-1.3517359 -3.5505998 -2.0323896e-18)
(-0.60464151 -2.9445858 0)
(0.75132867 -2.3706033 0)
(-2.4398366 -5.7394275 -9.2071767e-18)
(-2.2155363 -5.025536 -1.0577179e-17)
(-1.8333822 -4.4389787 1.1189771e-17)
(-1.4763867 -3.944019 1.9259968e-18)
(-1.0281037 -3.4920922 0)
(-0.3431896 -3.0831283 -6.0881224e-18)
(-2.1763437 -5.8516467 0)
(-2.0695624 -5.1145091 0)
(-1.8794713 -4.5132444 -4.418949e-18)
(-1.7081924 -4.0343657 0)
(-1.5170203 -3.6293597 0)
(-1.1992794 -3.3013916 -1.4379669e-18)
(-1.9288141 -5.6595436 0)
(-1.9431154 -4.8388889 1.3404932e-18)
(-1.9878427 -4.255006 1.0928021e-18)
(-2.0251544 -3.8123565 0)
(-2.0274436 -3.4578693 -2.3038519e-23)
(-1.9940808 -3.1616756 2.7370444e-18)
(-1.4298536 -4.7542522 0)
(-1.7739134 -4.1699878 -1.32265e-18)
(-2.0407462 -3.6775239 1.0659312e-18)
(-2.2886264 -3.2979637 -3.5262346e-18)
(-2.5100224 -2.9927461 4.5021281e-18)
(-2.6772947 -2.7607559 -1.2968464e-18)
(-1.0677502 -3.6780362 -3.9660011e-18)
(-1.5569893 -3.1886667 2.5821114e-18)
(-2.0208376 -2.8255321 -2.0714711e-18)
(-2.4586434 -2.5399606 1.7195785e-18)
(-2.8541186 -2.323203 -7.3682198e-19)
(-3.2012726 -2.1621085 2.5894871e-18)
(-0.81790176 -2.2866855 3.5244635e-18)
(-1.3272321 -1.9119237 -2.5680748e-18)
(-2.0081283 -1.6975015 -2.052472e-18)
(-2.5635495 -1.5609517 1.6878378e-18)
(-3.0811253 -1.4538358 1.0859154e-18)
(-3.560613 -1.3692335 1.6093845e-18)
(-1.3908743 -0.74634982 0)
(-1.2983453 -0.66824832 -6.2596021e-23)
(-2.069646 -0.59254906 -3.6124929e-23)
(-2.64685 -0.55131653 -4.1978446e-19)
(-3.1982141 -0.52510194 -3.6028244e-19)
(-3.7236884 -0.50696634 -6.426734e-19)
(-0.63289052 1.4881692 -3.9204633e-19)
(-1.2712913 0.93071815 6.4037138e-19)
(-1.9609886 0.6814059 -2.5631624e-19)
(-2.550939 0.55432734 -2.2818577e-23)
(-3.1112415 0.4621333 3.6143695e-19)
(-3.6413032 0.38898555 -9.6830916e-19)
(-0.7703506 2.5943249 2.7480434e-18)
(-1.3087792 2.1471667 -1.5432034e-22)
(-1.9031431 1.8205747 2.5892674e-19)
(-2.4227507 1.5837708 -4.2666552e-19)
(-2.9122622 1.3981409 7.3059582e-19)
(-3.3678818 1.2515737 -1.3084046e-18)
(-1.0776025 3.9374358 7.9907286e-19)
(-1.518644 3.3501775 0)
(-1.9145076 2.8692534 3.1316252e-18)
(-2.2699504 2.5106828 -8.6767983e-19)
(-2.6216631 2.2111825 -7.5041401e-19)
(-2.925861 1.9964178 0)
(-1.4678424 5.0592924 0)
(-1.6551924 4.225894 0)
(-1.8447919 3.6312803 4.3383558e-18)
(-2.0227945 3.187005 -9.0335324e-19)
(-2.1827358 2.8322796 -3.1112822e-18)
(-2.2981924 2.5551001 2.7436925e-18)
(-1.7878283 5.5868633 6.2068653e-18)
(-1.7362077 4.7583006 -5.4221402e-18)
(-1.7062653 4.1188544 -1.1165358e-18)
(-1.6661959 3.6315672 0)
(-1.6148037 3.2312308 0)
(-1.5127575 2.9067633 1.4388695e-18)
(-2.039342 5.6445662 0)
(-1.8535962 4.8783822 0)
(-1.5790726 4.2494522 0)
(-1.3561616 3.7315048 0)
(-1.0834199 3.2929174 0)
(-0.66901339 2.939993 3.0321645e-18)
(-2.2360372 5.4006365 -6.1766855e-18)
(-1.972267 4.7055778 -2.6973457e-18)
(-1.5387387 4.0958762 0)
(-1.1391993 3.5596154 0)
(-0.6007292 3.0421125 1.7926386e-18)
(0.25401319 2.5728477 1.6176405e-18)
(-2.3294385 4.9600257 0)
(-2.1167081 4.3790487 -1.1163057e-17)
(-1.5992514 3.7454129 9.6832297e-18)
(-1.0571682 3.1121836 0)
(-0.13194348 2.3660483 -9.4780235e-18)
(1.7016804 1.7220416 1.6962085e-17)
(-2.4522896 4.5337861 4.3333052e-19)
(-2.3357423 3.9574918 2.87601e-18)
(-1.6021093 3.3607215 0)
(-0.5429764 2.6516712 8.8969631e-18)
(1.6257271 1.3626564 -7.9148321e-18)
(6.0147508 0.64143791 0)
(-2.4810604 4.236379 0)
(-2.5638728 3.4567035 -2.5902375e-17)
(-0.46094232 2.7702902 1.0102029e-17)
(2.5218092 1.6411424 0)
(7.2632706 0.1698927 0)
(14.386199 -1.2540604 2.7216406e-19)
(-3.2965909 3.5642364 -3.2177501e-18)
(-1.5203116 2.3319792 1.7192413e-17)
(4.2453436 0.48261328 -2.4948939e-18)
(9.6184975 -0.86897614 0)
(15.97448 -1.8283736 -3.5353154e-18)
(25.820536 -3.1350684 -1.0700166e-17)
(-3.5165876 3.6406009 1.2560517e-17)
(5.026659 -0.30746371 -1.3965523e-17)
(11.417236 -2.2470957 1.6532638e-18)
(19.621951 -3.2369162 2.2535148e-18)
(43.588387 47.582778 9.225555e-18)
(44.04421 42.271488 0)
(43.270234 39.077581 0)
(43.026939 36.436881 2.7513786e-18)
(37.942302 46.707107 -1.8798898e-18)
(38.659358 41.647655 -8.4332921e-18)
(38.410536 38.431751 4.0705726e-18)
(38.580612 35.827446 0)
(39.02984 33.502071 9.8120861e-19)
(39.728324 31.279181 1.4318128e-18)
(32.420477 45.057093 -7.7254928e-18)
(33.337606 40.304013 -5.0246784e-18)
(33.59956 37.144167 1.0095325e-18)
(34.173081 34.632604 5.3256813e-18)
(34.967009 32.417291 -3.8501422e-18)
(35.969368 30.328335 7.0636437e-19)
(27.169057 42.641509 -9.9186657e-18)
(28.227125 38.227024 -1.6660945e-18)
(28.984836 35.215553 -4.9662411e-18)
(29.950261 32.863971 2.6271917e-18)
(31.075451 30.815438 -9.4783524e-19)
(32.361596 28.903257 -6.9471344e-19)
(22.381655 39.507481 4.1003395e-18)
(23.489905 35.433686 -4.9485642e-18)
(24.695546 32.674825 3.9264484e-18)
(26.021438 30.550617 -6.4224523e-19)
(27.428091 28.735921 0)
(28.968727 27.024938 0)
(18.313647 35.881079 -6.8901254e-18)
(19.405646 32.049014 -6.5010804e-18)
(20.882485 29.654768 4.7982279e-18)
(22.46723 27.820919 6.2242916e-19)
(24.117457 26.235349 0)
(25.828606 24.773387 1.3537899e-18)
(13.295198 30.503049 0)
(15.549151 28.114252 0)
(17.330861 26.269943 -1.8749743e-18)
(19.151921 24.766678 0)
(21.083891 23.383642 1.3629973e-18)
(22.978363 22.158978 -3.1127655e-18)
(9.8723092 25.844977 0)
(12.161995 23.974301 7.9109269e-19)
(14.15217 22.508017 4.7237583e-19)
(16.28587 21.237503 0)
(18.39268 20.152082 -9.2832484e-22)
(20.478341 19.187513 6.9432598e-19)
(7.0464933 20.486398 0)
(9.2546669 19.375216 -8.0100839e-19)
(11.595415 18.254771 4.7955435e-19)
(13.88499 17.360359 -1.2602764e-18)
(16.150415 16.598343 1.363432e-18)
(18.36841 15.928601 -3.4661836e-19)
(4.6036731 15.005014 -3.3788061e-18)
(7.0469983 14.322236 1.6212774e-18)
(9.5484777 13.697668 -9.5597089e-19)
(11.985127 13.213995 6.2999526e-19)
(14.370475 12.802199 -2.2674404e-19)
(16.680458 12.444438 6.9353052e-19)
(3.3865156 9.7202915 3.0189388e-18)
(5.5297808 8.9972929 -1.5953024e-18)
(8.155645 8.8706159 -9.5005519e-19)
(10.66189 8.8355398 6.2753332e-19)
(13.095337 8.806963 3.3911298e-19)
(15.441841 8.7824729 4.3380528e-19)
(5.8025352 3.2525742 0)
(5.0699707 4.0326911 -7.1092817e-22)
(7.5942989 4.3085698 -4.7615678e-22)
(10.011777 4.565519 -1.5658359e-19)
(12.385069 4.8190574 -1.1302833e-19)
(14.6948 5.0722383 -1.7386262e-19)
(2.2312787 -3.6549063 -3.366691e-19)
(4.6300158 -1.4561774 4.0002842e-19)
(7.1740595 -0.45137996 -1.1949607e-19)
(9.6356416 0.21114312 -2.2934199e-22)
(12.033683 0.78816049 1.1361247e-19)
(14.343487 1.3346574 -2.6262753e-19)
(2.9700577 -8.1800278 2.2839763e-18)
(5.0747566 -6.5460255 -2.2543716e-21)
(7.525991 -5.2812493 1.1774635e-19)
(9.9011603 -4.2486794 -1.5968345e-19)
(12.225667 -3.3255496 2.2774161e-19)
(14.468584 -2.4676798 -3.52857e-19)
(4.4054811 -13.619157 6.7172857e-19)
(6.4536564 -11.583368 0)
(8.5649211 -9.9556641 1.4283561e-18)
(10.792321 -8.5224929 -3.2086355e-19)
(12.970675 -7.2607104 -2.316067e-19)
(15.089203 -6.1115377 0)
(6.5656992 -19.018082 0)
(8.3942359 -16.309979 0)
(10.26752 -14.300047 1.8854793e-18)
(12.20736 -12.634816 -3.2203102e-19)
(14.223085 -11.076239 -9.4084965e-19)