/*--------------------------------*- C++ -*----------------------------------*\
| =========                 |                                                 |
| \\      /  F ield         | OpenFOAM: The Open Source CFD Toolbox           |
|  \\    /   O peration     | Version:  2406                                  |
|   \\  /    A nd           | Website:  www.openfoam.com                      |
|    \\/     M anipulation  |                                                 |
\*---------------------------------------------------------------------------*/
FoamFile
{
    version     2.0;
    format      ascii;
    arch        "LSB;label=32;scalar=64";
    class       volScalarField;
    location    "0.024";
    object      T;
}
// * * * * * * * * * * * * * * * * * * * * * * * * * * * * * * * * * * * * * //

dimensions      [0 0 0 1 0 0 0];

internalField   nonuniform List<scalar> 
8260
(
292.75479
292.75596
292.75812
292.76569
292.77727
292.791
292.8052
292.81829
292.82856
292.83467
292.83552
292.83018
292.81832
292.80039
292.77907
292.76126
292.78141
292.85404
292.90313
292.92713
292.94432
292.95897
292.97155
292.98267
292.99312
293.00124
293.0073
293.01229
293.01628
293.0188
293.02053
292.82146
292.81617
292.81376
292.81564
292.82049
292.82729
292.83497
292.84219
292.84747
292.84942
292.84694
292.83898
292.82511
292.80564
292.78398
292.76778
292.79281
292.86553
292.90971
292.9314
292.94754
292.96149
292.97354
292.98423
292.99437
293.00226
293.00814
293.013
293.01688
293.01933
293.02101
292.89299
292.88303
292.87537
292.87109
292.86917
292.86903
292.86996
292.87087
292.87054
292.86784
292.86141
292.85026
292.8339
292.81247
292.79014
292.77554
292.80655
292.87779
292.91657
292.93609
292.95113
292.96431
292.97578
292.98599
292.99578
293.00343
293.00911
293.01381
293.01758
293.01994
293.02157
292.96592
292.95195
292.93944
292.92945
292.9213
292.91463
292.909
292.90364
292.89754
292.88966
292.87882
292.86402
292.84472
292.82103
292.79782
292.78529
292.82321
292.89124
292.92424
292.94149
292.95531
292.9676
292.97839
292.98805
292.99742
293.00478
293.01022
293.01474
293.01838
293.02064
293.0222
293.03826
293.02104
293.00449
292.98955
292.97584
292.96318
292.95135
292.93984
292.92789
292.91461
292.89901
292.88018
292.85757
292.8314
292.80731
292.79818
292.8434
292.90574
292.93278
292.94766
292.96009
292.97136
292.98136
292.99039
292.99929
293.00631
293.01149
293.0158
293.01929
293.02143
293.02292
293.10894
293.08939
293.06974
293.05073
293.03224
293.01422
292.99665
292.97925
292.96151
292.94274
292.92214
292.89894
292.87267
292.84387
292.81916
292.81546
292.86746
292.92115
292.94229
292.95467
292.96554
292.97566
292.98476
292.99308
293.00143
293.00806
293.01293
293.01701
293.02032
293.02234
293.02374
293.17681
293.1558
293.134
293.11189
293.08952
293.06696
293.04431
293.02148
292.9982
292.974
292.9483
292.92051
292.89031
292.85889
292.83431
292.83872
292.89514
292.93735
292.95286
292.96265
292.97175
292.98055
292.98864
292.99614
293.00385
293.01005
293.01457
293.01838
293.0215
293.02336
293.02466
293.24051
293.21879
293.19567
293.17148
293.14626
293.12015
293.09329
293.06574
293.03741
293.00808
292.9774
292.94497
292.91074
292.87708
292.85434
292.86998
292.92547
292.95431
292.96464
292.97172
292.97881
292.98611
292.99305
292.99963
293.00661
293.01232
293.01643
293.01994
293.02283
293.02453
293.02572
293.29861
293.27691
293.2533
293.22796
293.20092
293.1723
293.14223
293.11085
293.07824
293.04436
293.00908
292.97227
292.93424
292.89947
292.88187
292.91084
292.95632
292.97203
292.97774
292.982
292.98686
292.99243
292.99806
293.00362
293.00973
293.0149
293.01855
293.02171
293.02434
293.02586
293.02691
293.35002
293.32876
293.30536
293.27971
293.25177
293.22163
293.18944
293.15532
293.11943
293.08187
293.04275
293.00224
292.96138
292.92775
292.92192
292.95935
292.9857
292.99074
292.99226
292.99355
292.99601
292.99963
293.00377
293.00817
293.01328
293.01782
293.02097
293.02373
293.02605
293.02738
293.02827
293.39376
293.37298
293.34997
293.32456
293.29662
293.26608
293.23297
293.19737
293.15944
293.11939
293.07755
293.03465
292.99358
292.96751
292.97962
293.00732
293.01323
293.01069
293.00813
293.00637
293.00639
293.00783
293.01028
293.01337
293.01733
293.02114
293.02372
293.02605
293.028
293.0291
293.02981
293.42782
293.40821
293.3862
293.36165
293.33435
293.30419
293.27114
293.23525
293.19665
293.15564
293.113
293.07117
293.03748
293.02915
293.04468
293.04799
293.03967
293.03184
293.02536
293.02061
293.01794
293.01712
293.01771
293.0193
293.02199
293.0249
293.02686
293.0287
293.03024
293.03107
293.03156
293.45049
293.43205
293.41127
293.38818
293.36247
293.3339
293.30235
293.26788
293.23085
293.19208
293.15354
293.12084
293.10497
293.10558
293.09794
293.08123
293.06646
293.05383
293.04393
293.03615
293.0307
293.02746
293.0261
293.02608
293.02731
293.02917
293.03041
293.03171
293.0328
293.03331
293.03358
293.46143
293.44539
293.42755
293.40756
293.38497
293.35941
293.33098
293.3004
293.26889
293.23845
293.21225
293.19363
293.18071
293.16124
293.13548
293.11251
293.09288
293.07645
293.06338
293.05301
293.04464
293.03873
293.03546
293.03374
293.0333
293.03402
293.03442
293.03512
293.03573
293.03588
293.0359
293.47668
293.46236
293.44557
293.42642
293.40587
293.38507
293.3638
293.34164
293.31908
293.29704
293.27571
293.25331
293.22565
293.19534
293.16681
293.14149
293.1192
293.09898
293.08326
293.07076
293.05976
293.05101
293.04564
293.04214
293.04005
293.03946
293.03893
293.03895
293.03906
293.0388
293.03858
293.48111
293.47394
293.46639
293.45789
293.44658
293.43083
293.41088
293.38706
293.36175
293.3367
293.31038
293.28101
293.25052
293.22195
293.19404
293.16816
293.14413
293.1214
293.10305
293.08886
293.07575
293.06432
293.05668
293.05123
293.04741
293.04559
293.04402
293.04322
293.04278
293.04212
293.04167
293.45862
293.45034
293.44106
293.43107
293.4206
293.41008
293.40044
293.39241
293.38057
293.35856
293.32958
293.30111
293.27339
293.24502
293.21643
293.19073
293.16693
293.14307
293.12249
293.10645
293.09193
293.07863
293.06874
293.06101
293.05539
293.05232
293.04973
293.048
293.04689
293.04584
293.04521
293.4452
293.4399
293.43377
293.42637
293.41745
293.40662
293.39307
293.37666
293.3604
293.34762
293.33566
293.31497
293.28935
293.26297
293.2361
293.20895
293.18556
293.1631
293.14115
293.12303
293.10751
293.09353
293.08182
293.07165
293.06398
293.05966
293.05607
293.0533
293.05141
293.04996
293.04919
293.4155
293.41063
293.40511
293.39889
293.39196
293.38436
293.37622
293.36734
293.35682
293.34302
293.32712
293.31503
293.30131
293.2776
293.25173
293.22628
293.20124
293.17985
293.1584
293.13852
293.12216
293.10831
293.09543
293.08309
293.07324
293.06754
293.0629
293.05914
293.05638
293.05447
293.05363
293.39617
293.39298
293.38929
293.38494
293.37978
293.37358
293.36611
293.35719
293.34703
293.33615
293.32412
293.30815
293.29184
293.28125
293.26379
293.24041
293.21738
293.19553
293.17367
293.15299
293.13602
293.12224
293.10839
293.09475
293.08325
293.0758
293.07018
293.06549
293.06187
293.05941
293.05852
293.36785
293.36489
293.3615
293.35764
293.35324
293.34828
293.34274
293.33657
293.32955
293.32124
293.31163
293.30195
293.29074
293.27514
293.26586
293.25352
293.2306
293.20893
293.18866
293.16714
293.14901
293.13486
293.11984
293.10592
293.09375
293.08464
293.07789
293.07232
293.06792
293.06483
293.06384
293.34877
293.34692
293.34478
293.34226
293.33926
293.33567
293.33137
293.32622
293.32011
293.31308
293.30497
293.29518
293.28458
293.27476
293.25915
293.24825
293.24014
293.22055
293.19973
293.1793
293.16201
293.14638
293.1306
293.11651
293.10445
293.0943
293.08616
293.07961
293.07458
293.07081
293.06962
293.32239
293.32065
293.31866
293.31636
293.31372
293.31073
293.30735
293.30357
293.29936
293.29461
293.28927
293.28341
293.27642
293.26761
293.25895
293.24478
293.23391
293.22612
293.20986
293.19086
293.17508
293.15882
293.143
293.1275
293.11528
293.10442
293.09513
293.08744
293.08175
293.0774
293.07584
293.30462
293.30369
293.30261
293.30132
293.29976
293.29785
293.2955
293.29265
293.2892
293.28505
293.28003
293.27384
293.26669
293.25882
293.24989
293.2415
293.22863
293.21671
293.2101
293.20227
293.18725
293.17002
293.15489
293.13971
293.1258
293.11434
293.10465
293.09575
293.08929
293.08455
293.08251
293.28011
293.27913
293.27801
293.27672
293.27527
293.27364
293.27182
293.26976
293.2674
293.26469
293.26164
293.25833
293.25452
293.24984
293.24411
293.23674
293.22943
293.221
293.21017
293.19915
293.18651
293.17416
293.16252
293.1497
293.13596
293.12363
293.11376
293.1044
293.09718
293.09214
293.08957
293.26605
293.26567
293.26519
293.26457
293.26379
293.26281
293.26162
293.26017
293.25844
293.25637
293.25386
293.2508
293.24702
293.24253
293.23753
293.23221
293.22532
293.21715
293.21002
293.1987
293.18712
293.17608
293.16568
293.15585
293.14481
293.13218
293.12194
293.11314
293.1053
293.10001
293.09701
293.24559
293.24509
293.24453
293.24393
293.24325
293.2425
293.24165
293.24066
293.23951
293.23817
293.23663
293.23492
293.23313
293.23111
293.22835
293.22435
293.21953
293.21363
293.20464
293.19959
293.19171
293.18025
293.1691
293.15941
293.1509
293.14038
293.12994
293.12148
293.11357
293.10806
293.10481
293.23523
293.23506
293.23483
293.23454
293.23417
293.23371
293.23313
293.23241
293.23152
293.23042
293.22905
293.22733
293.22509
293.22216
293.21859
293.21464
293.21059
293.20662
293.20327
293.19751
293.19368
293.18611
293.17486
293.16534
293.15639
293.14772
293.13803
293.1294
293.122
293.11623
293.11282
293.22177
293.22154
293.22127
293.22095
293.22057
293.22012
293.21959
293.21897
293.21823
293.21734
293.21629
293.21505
293.21369
293.21248
293.2114
293.20983
293.20741
293.20404
293.19988
293.19487
293.18807
293.1848
293.18022
293.1709
293.16153
293.1535
293.14531
293.13716
293.13018
293.12454
293.12095
293.21672
293.21653
293.2163
293.21604
293.21572
293.21535
293.21491
293.21439
293.21377
293.21302
293.21212
293.21104
293.20971
293.20812
293.20614
293.20387
293.20141
293.19864
293.19539
293.19178
293.18758
293.18146
293.1764
293.17202
293.1652
293.15795
293.15067
293.14355
293.1371
293.13181
293.12833
293.21034
293.21016
293.20995
293.20969
293.20939
293.20903
293.2086
293.20809
293.2075
293.20681
293.20603
293.2051
293.20399
293.20259
293.20093
293.19918
293.19723
293.19499
293.1924
293.18933
293.18577
293.18198
293.17754
293.17301
293.16815
293.16192
293.15528
293.14869
293.14258
293.13748
293.1342
293.85222
293.73011
293.60578
293.49146
293.39283
293.30571
293.22675
293.15533
293.08941
293.03003
292.97693
292.92951
292.88649
292.84647
292.8077
292.76753
292.72754
292.69757
292.71367
292.78267
292.84361
292.88107
292.90777
292.93046
292.94956
292.96426
292.97599
292.98542
292.99267
292.99764
293.00112
293.68179
293.56955
293.47618
293.3937
293.31604
293.24196
293.17206
293.10764
293.04833
292.99523
292.94796
292.90561
292.86677
292.83014
292.79387
292.75605
292.71807
292.69488
292.72002
292.79333
292.85062
292.88538
292.91099
292.93306
292.95166
292.96597
292.97739
292.98659
292.99368
292.99854
293.0019
293.61759
293.52053
293.43175
293.34764
293.26802
293.19448
293.12752
293.06723
293.01333
292.96563
292.92331
292.88523
292.84992
292.8161
292.78186
292.74618
292.71016
292.69362
292.7273
292.80311
292.85649
292.8891
292.91389
292.93542
292.95359
292.96755
292.9787
292.98769
292.99463
292.99938
293.00265
293.54638
293.45206
293.36584
293.28563
293.2114
293.14376
293.08299
293.02885
292.98095
292.93871
292.90117
292.86708
292.83498
292.80369
292.77116
292.73752
292.70401
292.69335
292.73552
292.81266
292.86215
292.89288
292.91689
292.93786
292.95558
292.96917
292.98003
292.98881
292.9956
293.00024
293.00339
293.46607
293.37711
293.29701
293.22303
293.1552
293.09415
293.03998
292.9923
292.95048
292.91368
292.88079
292.8505
292.82142
292.79245
292.76154
292.72982
292.69967
292.69414
292.74516
292.82186
292.86742
292.89655
292.91984
292.94025
292.95754
292.97078
292.98137
292.98994
292.99657
293.00111
293.00413
293.37453
293.29574
293.22411
293.15799
293.09808
293.04489
292.99821
292.95749
292.9219
292.89049
292.86209
292.8354
292.80916
292.78235
292.75304
292.72321
292.69677
292.69604
292.75594
292.83052
292.8724
292.90017
292.92278
292.94265
292.95951
292.9724
292.98271
292.99107
292.99755
293.00197
293.00488
293.27804
293.20998
293.14793
293.09138
293.04097
292.9967
292.95816
292.92467
292.89537
292.86923
292.84511
292.82182
292.79822
292.7734
292.74574
292.71771
292.69451
292.69913
292.76751
292.83857
292.87712
292.90372
292.92568
292.94502
292.96146
292.97402
292.98405
292.9922
292.99853
293.00285
293.00567
293.17279
293.11828
293.06879
293.02418
292.9847
292.95016
292.92017
292.89405
292.87096
292.84991
292.82987
292.80975
292.7886
292.76556
292.73954
292.71324
292.69268
292.70399
292.7794
292.84596
292.88163
292.90722
292.92856
292.94737
292.96339
292.97563
292.98539
292.99334
292.99952
293.00372
293.00647
293.06263
293.0244
292.98972
292.95832
292.93037
292.90591
292.8846
292.8658
292.84873
292.83256
292.81635
292.79919
292.78028
292.75873
292.73433
292.70973
292.69173
292.71078
292.79104
292.85275
292.88598
292.91067
292.9314
292.94969
292.96532
292.97724
292.98674
292.99449
293.00051
293.0046
293.00728
292.95395
292.93268
292.91326
292.89514
292.87879
292.86449
292.85176
292.84005
292.82876
292.81719
292.80455
292.79012
292.77322
292.75299
292.73021
292.70715
292.69182
292.71919
292.80209
292.859
292.8902
292.91407
292.9342
292.95199
292.96723
292.97884
292.98808
292.99563
293.0015
293.00548
293.00809
292.84984
292.84559
292.84066
292.83561
292.83082
292.82644
292.82192
292.81696
292.81111
292.80382
292.79449
292.78254
292.76739
292.74849
292.72735
292.70549
292.69303
292.72847
292.81239
292.86482
292.89432
292.91742
292.93697
292.95425
292.96911
292.98043
292.98942
292.99677
293.00249
293.00637
293.0089
292.75245
292.76407
292.7735
292.78128
292.78755
292.79221
292.79529
292.79663
292.79583
292.79248
292.78614
292.77642
292.76285
292.74548
292.72553
292.70473
292.69526
292.73842
292.82201
292.87028
292.89835
292.92071
292.93971
292.95649
292.97098
292.98202
292.99075
292.99791
293.00349
293.00726
293.00972
292.66541
292.69122
292.71366
292.73295
292.74913
292.76221
292.77222
292.77914
292.78289
292.78309
292.77947
292.7718
292.75985
292.74383
292.72437
292.70488
292.69841
292.74882
292.83093
292.87546
292.90229
292.92395
292.9424
292.9587
292.97283
292.98359
292.99208
292.99905
293.00449
293.00815
293.01054
292.59262
292.6295
292.66258
292.69155
292.71623
292.73662
292.75271
292.7646
292.77235
292.77575
292.77464
292.76884
292.75833
292.74324
292.72418
292.70577
292.70243
292.75942
292.83915
292.88041
292.90615
292.92714
292.94505
292.96087
292.97466
292.98515
292.9934
293.00019
293.00548
293.00904
293.01137
292.53761
292.58208
292.62249
292.65848
292.68973
292.71601
292.73722
292.75357
292.7649
292.77106
292.77216
292.76771
292.75798
292.74349
292.72492
292.70721
292.70737
292.76997
292.84671
292.88517
292.90993
292.93027
292.94766
292.96301
292.97646
292.9867
292.99472
293.00132
293.00648
293.00993
293.01219
292.49677
292.54856
292.59437
292.63508
292.67089
292.70157
292.72679
292.74676
292.76107
292.76914
292.77115
292.76762
292.75868
292.74468
292.72658
292.70948
292.71323
292.7802
292.85367
292.88978
292.91364
292.93335
292.95023
292.96513
292.97824
292.98823
292.99602
293.00245
293.00747
293.01082
293.01302
292.45661
292.51787
292.57151
292.61813
292.6584
292.69275
292.72125
292.74326
292.75874
292.76825
292.77152
292.76885
292.76048
292.74693
292.72916
292.71282
292.71989
292.79001
292.86024
292.89429
292.91729
292.93639
292.95276
292.96721
292.98
292.98975
292.99733
293.00358
293.00847
293.01171
293.01385
292.43149
292.49309
292.55045
292.60191
292.64676
292.68485
292.71622
292.74061
292.75813
292.76912
292.77351
292.7715
292.7635
292.75024
292.73266
292.71695
292.72728
292.79937
292.86645
292.89871
292.92089
292.93939
292.95527
292.96927
292.98174
292.99126
292.99862
293.0047
293.00946
293.01261
293.01468
292.43665
292.49227
292.54609
292.5965
292.64202
292.68165
292.7148
292.74091
292.75988
292.77203
292.77721
292.77562
292.76777
292.75463
292.73708
292.72177
292.73504
292.80829
292.87236
292.90304
292.92444
292.94235
292.95773
292.9713
292.98346
292.99276
292.9999
293.00581
293.01045
293.0135
293.01552
292.45513
292.50594
292.55543
292.60252
292.64605
292.68493
292.71815
292.74473
292.76432
292.77706
292.78267
292.78124
292.77332
292.76006
292.74238
292.72725
292.74298
292.81679
292.87802
292.9073
292.92793
292.94527
292.96016
292.97329
292.98514
292.99423
293.00117
293.00692
293.01144
293.01439
293.01635
292.48583
292.53065
292.575
292.61777
292.65791
292.69445
292.72618
292.75211
292.77153
292.78423
292.78988
292.78835
292.78014
292.76651
292.74855
292.73337
292.75097
292.82491
292.88344
292.91146
292.93136
292.94813
292.96253
292.97524
292.9868
292.99567
293.00243
293.00801
293.01242
293.01528
293.01719
292.52863
292.56548
292.60321
292.64051
292.67627
292.70921
292.73829
292.76273
292.78133
292.79342
292.79872
292.79685
292.78817
292.77394
292.75551
292.74008
292.75891
292.83266
292.88861
292.91548
292.93467
292.95089
292.96482
292.97713
292.9884
292.99709
293.00366
293.0091
293.01339
293.01617
293.01802
292.5834
292.60957
292.63818
292.66841
292.6986
292.72733
292.75346
292.77571
292.79297
292.80416
292.80884
292.80647
292.7972
292.78219
292.76315
292.74725
292.76666
292.83985
292.89339
292.91928
292.93782
292.95353
292.96703
292.97896
292.98997
292.99848
293.00488
293.01017
293.01437
293.01706
293.01887
292.65528
292.66943
292.68545
292.70528
292.72769
292.75077
292.77273
292.79197
292.80703
292.81694
292.82066
292.81754
292.8075
292.79143
292.77146
292.75447
292.77351
292.84606
292.89774
292.92293
292.9409
292.95614
292.96923
292.98078
292.99154
292.99988
293.00612
293.01127
293.01536
293.01797
293.01974
293.85288
293.74982
293.62937
293.51412
293.41244
293.32402
293.24463
293.1713
293.10494
293.04473
292.99033
292.94135
292.89679
292.85535
292.81549
292.77458
292.73391
292.70131
292.71179
292.77751
292.84018
292.87875
292.90595
292.92897
292.94832
292.96325
292.97516
292.98473
292.99208
292.99713
293.00061
293.83001
293.72724
293.61184
293.50382
293.40769
293.32298
293.24681
293.17643
293.11187
293.05262
292.99841
292.94902
292.90373
292.86141
292.82067
292.77908
292.73779
292.70415
292.71084
292.77444
292.83823
292.87732
292.90473
292.9279
292.94737
292.96241
292.97443
292.98409
292.99152
292.99662
293.00004
293.80893
293.71148
293.60058
293.49811
293.40687
293.32556
293.25189
293.18354
293.12018
293.06151
293.00731
292.95742
292.91133
292.86806
292.82635
292.78399
292.74185
292.70692
292.70978
292.77072
292.83586
292.87565
292.90332
292.92669
292.94629
292.96146
292.97361
292.98338
292.99088
292.99603
292.99938
293.79015
293.70036
293.59363
293.49509
293.40714
293.32842
293.25681
293.19011
293.12792
293.06999
293.01599
292.96581
292.91907
292.87497
292.83236
292.78932
292.74635
292.7099
292.70911
292.76678
292.83314
292.87372
292.90172
292.92531
292.94508
292.96039
292.97269
292.98258
292.99018
292.99542
292.99871
293.77215
293.68991
293.58766
293.49252
293.40726
293.33085
293.26118
293.19615
293.13526
293.07821
293.0246
292.97431
292.92708
292.88224
292.83879
292.79514
292.75139
292.71327
292.70886
292.76279
292.83024
292.87164
292.89998
292.92381
292.94375
292.95927
292.97173
292.98175
292.98945
292.99476
292.99815
293.7526
293.67934
293.58191
293.4897
293.40715
293.33304
293.26531
293.20199
293.14247
293.08637
293.03327
292.98301
292.93541
292.88993
292.84571
292.80149
292.75696
292.71708
292.70905
292.75881
292.8272
292.86949
292.89819
292.92228
292.94239
292.95806
292.97069
292.98085
292.98865
292.99404
292.9976
293.73239
293.66817
293.57638
293.48748
293.40749
293.33551
293.26957
293.20788
293.1497
293.09457
293.04205
292.99195
292.94408
292.89806
292.85314
292.80839
292.76303
292.72147
292.70969
292.75493
292.82405
292.86727
292.89633
292.92065
292.94094
292.95679
292.96959
292.97989
292.98781
292.99328
292.99687
293.71315
293.65703
293.57151
293.48612
293.4085
293.3384
293.27409
293.21391
293.157
293.10285
293.05097
293.00111
292.95311
292.90664
292.86111
292.81578
292.76966
292.72659
292.71073
292.75112
292.82077
292.86498
292.89442
292.91896
292.93942
292.95545
292.96843
292.97888
292.98691
292.99247
292.99602
293.69667
293.64705
293.56786
293.4861
293.41068
293.3422
293.27926
293.22037
293.1646
293.11135
293.06011
293.01055
292.96249
292.91568
292.8696
292.82366
292.77686
292.73257
292.71224
292.74748
292.81736
292.86262
292.89244
292.91721
292.93782
292.95403
292.9672
292.97781
292.98596
292.99162
292.99498
293.68354
293.63887
293.56577
293.48767
293.41431
293.3472
293.28536
293.2275
293.17267
293.1202
293.06954
293.02031
292.97227
292.92518
292.87861
292.83205
292.78461
292.73924
292.7144
292.74408
292.81382
292.86018
292.89041
292.91538
292.93615
292.95254
292.9659
292.97668
292.98495
292.9907
292.99408
293.67378
293.6331
293.56561
293.49109
293.41964
293.35363
293.29263
293.23552
293.18139
293.12954
293.07938
293.03044
292.98245
292.93515
292.88817
292.84101
292.79291
292.74643
292.71764
292.74105
292.81016
292.85769
292.88833
292.91349
292.9344
292.95098
292.96453
292.97547
292.98388
292.98973
292.9932
293.66825
293.63022
293.56779
293.49669
293.42696
293.36179
293.30127
293.24462
293.19094
293.13951
293.08971
293.04102
292.99309
292.94563
292.89827
292.85053
292.80175
292.75408
292.7218
292.7386
292.80639
292.85515
292.88622
292.91155
292.93259
292.94934
292.96309
292.9742
292.98275
292.9887
292.99228
293.66567
293.63024
293.5724
293.50454
293.43639
293.3718
293.31148
293.25495
293.20145
293.15022
293.10063
293.0521
293.00422
292.95662
292.90892
292.86064
292.81118
292.76237
292.72683
292.73691
292.80251
292.85259
292.88408
292.90955
292.9307
292.94762
292.96157
292.97286
292.98154
292.98761
292.99125
293.66608
293.63323
293.57958
293.51474
293.44798
293.38374
293.32333
293.26662
293.21301
293.16178
293.11224
293.06377
293.01588
292.96815
292.92014
292.87134
292.82122
292.7715
292.73273
292.73609
292.79857
292.85001
292.88193
292.90752
292.92875
292.94583
292.95998
292.97145
292.98028
292.98645
292.99015
293.66852
293.63835
293.58887
293.52705
293.46157
293.39752
293.33679
293.27964
293.22567
293.17424
293.12459
293.07607
293.02813
292.98025
292.93194
292.88266
292.83191
292.78138
292.73959
292.73632
292.79465
292.84744
292.87981
292.90546
292.92675
292.94397
292.95832
292.96997
292.97894
292.98522
292.98898
293.67271
293.645
293.59959
293.54099
293.47692
293.41297
293.35177
293.294
293.23946
293.1876
293.13771
293.08905
293.04099
292.99294
292.94436
292.89465
292.84337
292.79207
292.74757
292.7375
292.79084
292.8449
292.87771
292.90339
292.9247
292.94205
292.95659
292.96841
292.97752
292.98392
292.98777
293.67839
293.65287
293.61139
293.55615
293.49368
293.42991
293.36815
293.30961
293.25435
293.20192
293.15164
293.10275
293.05451
293.00628
292.95744
292.90738
292.85578
292.80383
292.7566
292.73953
292.78728
292.84246
292.87568
292.90132
292.92262
292.94006
292.95479
292.96679
292.97604
292.98255
292.98648
293.6858
293.66204
293.62409
293.5723
293.51168
293.44822
293.38589
293.32648
293.27037
293.21723
293.16642
293.11719
293.06872
293.02028
292.97121
292.92092
292.8692
292.81675
292.76689
292.74223
292.78394
292.84008
292.87373
292.89927
292.92051
292.93803
292.95292
292.96509
292.97448
292.9811
292.98513
293.69483
293.67236
293.63742
293.58905
293.53063
293.46776
293.40495
293.34463
293.28755
293.23358
293.18213
293.13243
293.08366
293.03498
292.9857
292.93521
292.88331
292.83033
292.7777
292.74641
292.78126
292.83795
292.87194
292.8973
292.91841
292.93595
292.95101
292.96332
292.97285
292.97958
292.98369
293.70595
293.68414
293.65148
293.60628
293.55036
293.48846
293.42538
293.36417
293.30604
293.2511
293.19888
293.14858
293.09939
293.05042
293.0009
292.95019
292.89792
292.84401
292.78956
292.75221
292.77943
292.83582
292.87027
292.8954
292.91631
292.93385
292.94903
292.96149
292.97115
292.97798
292.98217
293.71882
293.69732
293.66631
293.62381
293.57047
293.51001
293.44708
293.38516
293.32596
293.26995
293.21678
293.16575
293.11598
293.06662
293.01682
292.96583
292.91313
292.85843
292.80265
292.75966
292.77793
292.83426
292.86877
292.89358
292.91427
292.93175
292.94704
292.9596
292.96938
292.97631
292.98057
293.73355
293.7118
293.68163
293.6413
293.59064
293.53212
293.46987
293.40757
293.34741
293.29024
293.23598
293.18402
293.13353
293.08362
293.03343
292.98211
292.92897
292.87353
292.81647
292.76906
292.77777
292.83236
292.86766
292.89205
292.91232
292.92964
292.94499
292.95766
292.96755
292.97457
292.9789
293.749
293.72765
293.69814
293.65896
293.61026
293.55375
293.49276
293.4307
293.36998
293.3118
293.25642
293.20341
293.15205
293.10146
293.05074
292.99902
292.94543
292.8893
292.83099
292.77938
292.77995
292.83159
292.86626
292.89055
292.91038
292.92761
292.94295
292.95568
292.96566
292.97275
292.97716
293.76044
293.73981
293.71168
293.67454
293.62806
293.57395
293.51487
293.45376
293.39305
293.33421
293.27783
293.22378
293.17145
293.12006
293.06872
293.01652
292.9625
292.90582
292.84664
292.79183
292.78239
292.83066
292.86602
292.88941
292.9087
292.92558
292.94094
292.95367
292.9637
292.97087
292.97535
293.76529
293.7458
293.71938
293.68478
293.64166
293.59093
293.53466
293.47543
293.41554
293.35665
293.29966
293.24473
293.19149
293.13929
293.0873
293.03458
292.98016
292.92312
292.86345
292.80541
292.78581
292.82962
292.86599
292.88886
292.90706
292.92371
292.93888
292.95164
292.96172
292.96892
292.97347
293.76187
293.74398
293.71991
293.68855
293.64936
293.60281
293.55033
293.49404
293.43602
293.37797
293.32102
293.26564
293.21174
293.15886
293.10627
293.05307
292.99829
292.94101
292.88087
292.82084
292.79045
292.82953
292.86633
292.88831
292.90555
292.92195
292.93707
292.94963
292.95968
292.96692
292.97152
293.74983
293.7339
293.71253
293.68474
293.64993
293.60816
293.56038
293.50812
293.45309
293.39693
293.34091
293.28574
293.23164
293.17836
293.12534
293.07179
293.01674
292.95925
292.8987
292.83699
292.79786
292.82974
292.86656
292.88826
292.90475
292.92029
292.93501
292.9476
292.95765
292.96488
292.9695
293.72962
293.71592
293.69762
293.67379
293.6437
293.60727
293.56489
293.51745
293.46628
293.4129
293.35862
293.30438
293.25061
293.19734
293.14418
293.09047
293.03531
292.97772
292.91695
292.85414
292.80693
292.83067
292.86757
292.88817
292.90359
292.91897
292.93347
292.94568
292.95558
292.9628
292.96744
293.70342
293.69235
293.67746
293.65786
293.63283
293.60186
293.56495
293.52264
293.47587
293.42587
293.37396
293.3212
293.26828
293.21542
293.16245
293.10884
293.05377
292.99626
292.93547
292.87192
292.81842
292.83254
292.86846
292.88855
292.90341
292.91782
292.9317
292.94378
292.95358
292.96072
292.96532
293.67331
293.66453
293.65277
293.63732
293.61731
293.592
293.5609
293.52408
293.48214
293.43607
293.38703
293.33621
293.2845
293.23239
293.17991
293.12665
293.07189
293.01468
292.95408
292.89017
292.83223
292.83616
292.86949
292.88931
292.90337
292.91662
292.93012
292.94196
292.95156
292.95862
292.9632
293.64166
293.63501
293.62605
293.61417
293.59861
293.57853
293.55319
293.52214
293.48544
293.44373
293.39806
293.34958
293.2994
293.24826
293.19644
293.14372
293.08947
293.03277
292.9726
292.90873
292.84779
292.83985
292.8711
292.89018
292.90356
292.91623
292.92935
292.94041
292.94964
292.95656
292.96106
293.61119
293.60535
293.59798
293.58858
293.57645
293.56075
293.54063
293.51532
293.48438
293.44785
293.40635
293.36094
293.31282
293.26298
293.21202
293.15998
293.10638
293.05036
292.99085
292.9273
292.8637
292.84437
292.87322
292.8913
292.9042
292.91621
292.92776
292.9387
292.94783
292.95453
292.95897
293.58943
293.58382
293.57682
293.56814
293.55739
293.54399
293.52716
293.50608
293.47995
293.44833
293.41132
293.36961
293.32423
293.27624
293.2265
293.17533
293.12251
293.0673
293.00864
292.94567
292.88024
292.85064
292.87576
292.89375
292.9047
292.91564
292.92719
292.93759
292.94603
292.95259
292.95691
293.57579
293.57032
293.56391
293.55621
293.54669
293.53467
293.5195
293.50047
293.47698
293.44862
293.41514
293.37677
293.33417
293.2883
293.24001
293.18986
293.13789
293.08354
293.02584
292.96369
292.89788
292.85849
292.87828
292.89506
292.90558
292.91678
292.92721
292.93651
292.94461
292.95076
292.95495
293.57277
293.56648
293.55936
293.55118
293.54165
293.53031
293.51653
293.49953
293.47844
293.45245
293.42125
293.38507
293.34451
293.30032
293.25326
293.20401
293.15277
293.09919
293.04243
292.98129
292.91586
292.86759
292.88104
292.89685
292.90752
292.91763
292.92664
292.93535
292.94302
292.94907
292.9531
293.58137
293.57473
293.56716
293.55845
293.54833
293.53646
293.52233
293.50529
293.48463
293.45977
293.43018
293.39565
293.3564
293.31316
293.26683
293.21814
293.16741
293.11444
293.05849
292.9984
292.93379
292.87923
292.88425
292.89961
292.90938
292.91809
292.92701
292.93522
292.94208
292.94753
292.95142
293.59056
293.58444
293.57731
293.56892
293.55895
293.54705
293.53281
293.51575
293.49529
293.47077
293.44163
293.40765
293.36912
293.3265
293.28065
293.23234
293.18198
293.12943
293.0741
293.01496
292.95124
292.89193
292.88783
292.90237
292.91064
292.91954
292.92785
292.93477
292.94095
292.94631
292.94994
293.59144
293.5865
293.58058
293.57344
293.56472
293.55403
293.54088
293.52475
293.50509
293.4814
293.45325
293.42028
293.38232
293.34016
293.29462
293.24652
293.19635
293.14411
293.08929
293.03095
292.96802
292.9056
292.89212
292.90529
292.91352
292.92153
292.92832
292.93459
292.94027
292.94507
292.94872
293.57887
293.57532
293.57096
293.56558
293.55884
293.55033
293.53953
293.52584
293.50857
293.48705
293.46064
293.42908
293.39281
293.35216
293.30769
293.26019
293.21034
293.1584
293.10403
293.04637
292.98407
292.91865
292.8971
292.90849
292.9168
292.9234
292.92913
292.93506
292.94018
292.94441
292.94765
293.55246
293.54982
293.5466
293.54262
293.53763
293.53125
293.52304
293.51239
293.4986
293.48087
293.45866
293.43152
293.39909
293.36144
293.31916
293.27309
293.22404
293.17256
293.11861
293.06149
292.99976
292.93338
292.90288
292.91215