/*--------------------------------*- C++ -*----------------------------------*\
| =========                 |                                                 |
| \\      /  F ield         | OpenFOAM: The Open Source CFD Toolbox           |
|  \\    /   O peration     | Version:  2406                                  |
|   \\  /    A nd           | Website:  www.openfoam.com                      |
|    \\/     M anipulation  |                                                 |
\*---------------------------------------------------------------------------*/
FoamFile
{
    version     2.0;
    format      ascii;
    arch        "LSB;label=32;scalar=64";
    class       volScalarField;
    location    "0.011";
    object      alphat;
}
// * * * * * * * * * * * * * * * * * * * * * * * * * * * * * * * * * * * * * //

dimensions      [1 -1 -1 0 0 0 0];

internalField   nonuniform List<scalar> 
23204
(
0.00523359
0.0052252951
0.0052193985
0.0052134969
0.0052209692
0.0055062391
0.0054720941
0.0054404436
0.0054113513
0.0053847971
0.0053606532
0.0053386681
0.005318613
0.0053003075
0.0052838642
0.005269245
0.0052564873
0.0052451274
0.0052355096
0.0052272046
0.0052213311
0.0052154922
0.0052230659
0.30598972
0.26515146
0.22330009
0.18082616
0.13822188
0.096250761
0.056437327
0.023670205
0.008944335
0.0063234808
0.0059904346
0.0058975607
0.0058332826
0.0057760099
0.0057231366
0.0056740582
0.0056284671
0.0055861008
0.0055466351
0.0055097838
0.0054754476
0.0054436239
0.0054143765
0.0053876749
0.0053633882
0.0053412661
0.0053210816
0.0053026564
0.0052860988
0.0052713636
0.0052585198
0.0052471036
0.0052374403
0.0052291265
0.0052232763
0.0052174985
0.0052251656
0.42807361
0.44780012
0.46793886
0.48836225
0.50892618
0.52945865
0.54975755
0.5695912
0.58870101
0.6068062
0.62361076
0.63881228
0.6521122
0.66322705
0.67189938
0.67790778
0.68107475
0.68127171
0.67842062
0.67249209
0.6635003
0.6514957
0.6365563
0.6187793
0.59827382
0.57515584
0.54954531
0.52156494
0.49133949
0.45899522
0.42465982
0.38846475
0.35055244
0.31101638
0.27020604
0.22834273
0.18579416
0.14304121
0.10079622
0.060466441
0.026325438
0.0096019189
0.0063993516
0.0060030009
0.0059043109
0.0058390692
0.0057813147
0.0057280476
0.0056786241
0.0056327383
0.0055901139
0.0055504149
0.0055133484
0.0054788217
0.0054468259
0.0054174231
0.0053905728
0.0053661414
0.00534388
0.0053235644
0.0053050182
0.0052883444
0.0052734926
0.0052605634
0.0052490905
0.0052393853
0.0052310638
0.0052252372
0.0052195187
0.0052272705
0.060446471
0.06521604
0.070224805
0.075477711
0.080981154
0.086742372
0.092769343
0.099070786
0.10565618
0.11253579
0.11972071
0.12722287
0.1350551
0.14323113
0.1517656
0.16067414
0.16997328
0.1796805
0.18981421
0.20039367
0.21143892
0.22297067
0.23501014
0.24757885
0.26069827
0.27438942
0.28867233
0.3035653
0.31908396
0.33524014
0.35204036
0.36948409
0.38756061
0.4062381
0.42532659
0.44497815
0.46506385
0.48546128
0.50602923
0.52659915
0.5469725
0.56692086
0.58618822
0.60449551
0.62154722
0.63703999
0.65067284
0.66215816
0.67123285
0.67766845
0.68127934
0.68192827
0.6795284
0.67404204
0.66547609
0.65387508
0.63931285
0.62188406
0.60169693
0.57886771
0.55351737
0.52576984
0.49575104
0.46358794
0.4294084
0.39334281
0.35552816
0.31608341
0.27530808
0.23343762
0.19082154
0.14792947
0.10542727
0.064616698
0.029229326
0.010403594
0.0064940724
0.0060171474
0.0059112355
0.0058449053
0.0057866538
0.0057329869
0.0056832155
0.0056370334
0.0055941489
0.005554215
0.0055169348
0.0054822188
0.0054500521
0.0054204936
0.0053934933
0.0053689152
0.0053465122
0.005326064
0.0053073955
0.0052906038
0.0052756349
0.0052626212
0.0052510911
0.0052413469
0.0052330187
0.0052272155
0.0052215545
0.005229382
0.060510488
0.065240192
0.070207044
0.075416283
0.080874116
0.086587616
0.092564654
0.098813871
0.10534467
0.11216726
0.11929263
0.12673262
0.13449992
0.14260814
0.15107178
0.15990625
0.16912793
0.17875412
0.18880301
0.1992937
0.21024608
0.22168078
0.23361897
0.24608223
0.25909221
0.27267026
0.28683692
0.30161122
0.3170097
0.33304529
0.34972568
0.36705106
0.38501003
0.40356589
0.42261772
0.44220319
0.46223659
0.4826057
0.50317413
0.5237774
0.54422082
0.56427937
0.58369982
0.60220493
0.61949981
0.63528035
0.64924318
0.66109669
0.67057217
0.67743414
0.68148891
0.68259045
0.68064312
0.67560081
0.66746303
0.65626826
0.64208598
0.62500825
0.60514222
0.58260437
0.55751665
0.53000427
0.50019429
0.46821452
0.43419302
0.39825941
0.360548
0.32119264
0.2804581
0.23858545
0.19590896
0.15288647
0.11014255
0.068883118
0.032373647
0.011374486
0.0066130511
0.0060333473
0.005918369
0.0058507925
0.0057920271
0.0057379549
0.0056878334
0.0056413538
0.0055982073
0.0055580372
0.0055205451
0.0054856409
0.0054533043
0.0054235898
0.0053964381
0.0053717114
0.0053491645
0.0053285822
0.0053097902
0.0052928787
0.0052777928
0.0052646953
0.0052531077
0.0052433261
0.0052349921
0.0052292122
0.0052236066
0.0052315004
0.060617293
0.065307172
0.070232083
0.075397416
0.080809308
0.086474752
0.092401558
0.098598315
0.10507438
0.11183989
0.11890577
0.12628376
0.13398646
0.14202732
0.1504207
0.15918185
0.16832695
0.17787312
0.18783836
0.19824158
0.2091025
0.22044163
0.2322801
0.24463948
0.25754156
0.271008
0.28505976
0.2997165
0.31499565
0.33091116
0.34747184
0.36467891
0.38252164
0.40096856
0.41995652
0.43947587
0.45945614
0.47979416
0.50035915
0.5209912
0.54149971
0.56166333
0.58123177
0.59992983
0.61746342
0.63352782
0.64781743
0.66003674
0.66991149
0.67719924
0.68169818
0.68325349
0.68176059
0.67716486
0.66945819
0.65867292
0.64487399
0.62815068
0.60860899
0.58636553
0.56154321
0.53426854
0.50466981
0.47287569
0.43901459
0.4032156
0.36561188
0.32634557
0.28565662
0.24378668
0.20105747
0.15791199
0.11494094
0.073261861
0.03574613
0.012540621
0.0067636157
0.0060522209
0.0059257566
0.0058567337
0.0057974353
0.0057429526
0.0056924794
0.0056457011
0.0056022909
0.0055618837
0.005524181
0.0054890898
0.0054565842
0.0054267131
0.0053994083
0.0053745309
0.0053518381
0.0053311202
0.0053122032
0.0052951702
0.0052799673
0.0052667869
0.0052551413
0.0052453234
0.0052369842
0.0052312273
0.0052256749
0.0052336254
0.060765395
0.06541473
0.070298141
0.075419801
0.080785742
0.086402995
0.0922794
0.09842355
0.10484479
0.11155321
0.11855969
0.12587589
0.1335143
0.14148826
0.14981197
0.15850053
0.16756995
0.17703714
0.1869199
0.19723695
0.20800785
0.21925295
0.23099328
0.24325041
0.25604623
0.26940259
0.28334087
0.2978813
0.31304208
0.32883815
0.34527948
0.36236863
0.38009686
0.3984385
0.41734953
0.43680005
0.45672536
0.47702942
0.49758714
0.51824344
0.5388121
0.55907561
0.57878687
0.59767285
0.61544052
0.63178467
0.64639765
0.65898017
0.66925252
0.67696531
0.68190861
0.68391876
0.68288213
0.67873544
0.67146287
0.66109036
0.64767817
0.63131266
0.61209855
0.5901525
0.56559835
0.53856392
0.50917881
0.47757263
0.44387426
0.40821251
0.37072009
0.3315434
0.29090413
0.24904167
0.2062674
0.16300552
0.11982164
0.077749949
0.039331994
0.013928885
0.0069550045
0.0060746034
0.0059334588
0.0058627346
0.0058028804
0.005747982
0.0056971557
0.0056500775
0.0056064018
0.0055657565
0.0055278445
0.005492567
0.0054598929
0.0054298641
0.0054024047
0.0053773743
0.0053545332
0.0053336784
0.0053146347
0.0052974785
0.0052821589
0.0052688962
0.0052571923
0.0052473386
0.0052389948
0.0052332603
0.0052277588
0.0052357562
0.056540955
0.060941508
0.065558764
0.07040323
0.075482123
0.080802432
0.086371571
0.092197557
0.098289069
0.10465548
0.11130688
0.11825411
0.12550877
0.13308327
0.14099082
0.14924551
0.15786227
0.16685694
0.17624621
0.18604773
0.19627998
0.20696235
0.218115
0.22975888
0.24191549
0.25460677
0.26785475
0.28168113
0.29610665
0.31115024
0.32682778
0.34315045
0.36012238
0.37773735
0.39597505
0.41480109
0.43417954
0.45404753
0.47431474
0.49486151
0.51553772
0.53616172
0.55652004
0.57636894
0.59543782
0.61343483
0.63005452
0.64498731
0.65793028
0.66859835
0.67673523
0.68212288
0.68458875
0.68401006
0.68031475
0.67347907
0.66352246
0.65050029
0.63449586
0.61561247
0.59396675
0.56968345
0.54289173
0.51372251
0.48230648
0.44877307
0.41325107
0.37587302
0.3367871
0.29620123
0.25435086
0.21153788
0.16816704
0.12478418
0.082345017
0.043115714
0.015566297
0.0071985132
0.0061016168
0.0059415566
0.0058688035
0.0058083652
0.0057530457
0.0057018651
0.0056544854
0.0056105423
0.0055696577
0.0055315369
0.0054960736
0.0054632312
0.0054330433
0.0054054273
0.0053802416
0.00535725
0.0053362566
0.0053170844
0.0052998033
0.0052843674
0.0052710232
0.0052592605
0.0052493715
0.0052410231
0.0052353103
0.0052298574
0.0052378916
0.056786379
0.061157134
0.065740746
0.070546805
0.075583484
0.0808585
0.086379706
0.092155371
0.098194318
0.104506
0.11110052
0.11798872
0.12518216
0.13269316
0.14053486
0.14872121
0.15726699
0.16618786
0.17550036
0.18522189
0.19537076
0.20596613
0.21702802
0.2285772
0.24063511
0.2532237
0.26636511
0.28008133
0.29439353
0.30932132
0.32488149
0.34108646
0.35794204
0.3754447
0.39357863
0.41231539
0.43161765
0.45142587
0.47165339
0.49218567
0.51287765
0.53355233
0.55400049
0.57398194
0.5932287
0.61145029
0.6283412
0.64359012
0.65689059
0.66795231
0.67651213
0.68234391
0.68526616
0.68514687
0.68190506
0.67550893
0.66597119
0.65334219
0.63770198
0.61915233
0.59780976
0.57379988
0.5472532
0.51830205
0.48707828
0.45371197
0.41833211
0.38107116
0.34207755
0.30154862
0.25971471
0.21686859
0.173397
0.129828
0.087045046
0.047082537
0.017476864
0.0075082347
0.0061347492
0.0059501578
0.0058749514
0.0058138932
0.0057581466
0.0057066104
0.0056589272
0.0056147144
0.0055735892
0.0055352596
0.0054996105
0.0054665992
0.0054362507
0.0054084759
0.0053831322
0.0053599878
0.0053388544
0.0053195517
0.0053021441
0.0052865924
0.0052731673
0.0052613454
0.0052514213
0.0052430684
0.0052373766
0.0052319695
0.0052400306
0.057076252
0.061413252
0.065961367
0.070728664
0.075723267
0.080953214
0.086426684
0.092152194
0.098138733
0.10439585
0.11093372
0.11776317
0.12489576
0.13234375
0.14012019
0.14823891
0.15671457
0.16556266
0.17479952
0.18444238
0.19450931
0.20501929
0.21599213
0.22744844
0.23940956
0.2518974
0.26493418
0.2785421
0.29274276
0.30755634
0.32300053
0.33908898
0.35582924
0.37322035
0.39125034
0.40989512
0.4291183
0.44886343
0.46904847
0.48956293
0.51026671
0.5309876
0.55152076
0.57162975
0.59104937
0.60949076
0.62664849
0.6422097
0.65586459
0.66731768
0.67629909
0.68257456
0.68595364
0.68629501
0.68350864
0.67755452
0.66843848
0.65620565
0.64093267
0.62271967
0.60168295
0.57794894
0.55164953
0.52291853
0.49188901
0.45869188
0.42345642
0.38631503
0.34741555
0.30694689
0.26513383
0.22226021
0.17869572
0.13495266
0.091848168
0.051219365
0.019680087
0.007901567
0.0061759656
0.0059594048
0.005881192
0.0058194679
0.0057632877
0.0057113944
0.0056634053
0.0056189201
0.0055775527
0.0055390136
0.0055031782
0.0054699972
0.0054394859
0.0054115499
0.0053860456
0.0053627462
0.0053414708
0.0053220357
0.0053045001
0.0052888333
0.0052753279
0.0052634466
0.0052534876
0.0052451297
0.005239458
0.0052340943
0.005242172
0.057406839
0.061709002
0.066220484
0.070948513
0.075900959
0.08108595
0.086511865
0.092187419
0.098121764
0.10432457
0.11080606
0.11757712
0.12464929
0.13203478
0.13974659
0.14779845
0.15620488
0.16498122
0.17414364
0.18370915
0.19369564
0.20412186
0.21500741
0.22637273
0.23823903
0.25062814
0.26356234
0.27706398
0.291155
0.30585615
0.32118596
0.33715927
0.35378535
0.37106567
0.38899159
0.40754259
0.42668445
0.44636375
0.46650295
0.48699642
0.50770823
0.52847104
0.54908452
0.56931611
0.58890364
0.60755999
0.62498008
0.64084964
0.65485567
0.6666977
0.67609912
0.68281763
0.68665377
0.68745686
0.68512769
0.67961788
0.6709262
0.65909239
0.64418954
0.62631596
0.60558768
0.5821319
0.5560819
0.52757302
0.49673967
0.46371367
0.42862473
0.39160522
0.35280183
0.31239662
0.27060861
0.22771296
0.18406383
0.1401579
0.096752569
0.055514863
0.022189012
0.0083994356
0.0062278704
0.0059694853
0.0058875423
0.0058250926
0.0057684718
0.0057162196
0.0056679216
0.0056231611
0.0055815497
0.0055427996
0.005506777
0.0054734247
0.0054427483
0.0054146484
0.0053889808
0.0053655242
0.0053441051
0.0053245354
0.0053068706
0.0052910895
0.0052775044
0.0052655633
0.0052555696
0.0052472062
0.0052415536
0.0052362305
0.0052443148
0.057776425
0.062043368
0.066517575
0.071205915
0.076116066
0.081256155
0.086634676
0.092260495
0.098142906
0.10429169
0.11071716
0.11743023
0.12444245
0.13176602
0.13941388
0.14739966
0.15573777
0.16444342
0.1735326
0.18302212
0.19292968
0.20327379
0.21407386
0.22535012
0.23712362
0.24941611
0.26224986
0.27564734
0.28963078
0.30422145
0.31943865
0.33529838
0.35181156
0.36898193
0.38680379
0.40525984
0.4243186
0.44392987
0.46402019
0.48448909
0.50520539
0.52600602
0.54669527
0.56704464
0.58679513
0.60566163
0.62333953
0.63951338
0.65386714
0.66609546
0.67591512
0.68307581
0.68736906
0.68863473
0.68676432
0.68170095
0.67343615
0.6620041
0.64747414
0.62994267
0.6095253
0.58635001
0.56055145
0.53226656
0.50163118
0.46877818
0.4338378
0.39694233
0.3582371
0.31789839
0.27613946
0.23322717
0.18950314
0.14544327
0.10175644
0.059959401
0.025007425
0.0090264247
0.0062938897
0.0059806506
0.0058940231
0.005830771
0.0057737016
0.0057210882
0.0056724781
0.0056274389
0.0055855811
0.0055466181
0.005510407
0.0054768814
0.0054460372
0.0054177707
0.0053919371
0.005368321
0.0053467563
0.0053270499
0.0053092549
0.0052933603
0.0052796959
0.005267695
0.0052576668
0.0052492971
0.0052436625
0.0052383773
0.0052464582
0.058183928
0.062415437
0.066851997
0.071500359
0.076368095
0.081463325
0.086794611
0.092370932
0.098201701
0.1042968
0.11066664
0.11732217
0.12427497
0.13153723
0.13912184
0.14704236
0.1553131
0.16394913
0.17296628
0.18238119
0.19221133
0.20247501
0.21319141
0.22438057
0.23606334
0.24826137
0.26099687
0.27429242
0.28817046
0.30265273
0.31775926
0.33350714
0.34990885
0.36697023
0.38468829
0.40304871
0.42202298
0.44156432
0.46160333
0.48204415
0.50276115
0.5235957
0.54435635
0.56481878
0.58472737
0.60379918
0.62173029
0.63820426
0.65290219
0.66551398
0.67574992
0.68335172
0.6881019
0.68983081
0.68842056
0.6838056
0.67597007
0.66494237
0.65078797
0.63360118
0.61349713
0.59060448
0.56505931
0.53700019
0.5065645
0.47388626
0.43909636
0.40232699
0.36372203
0.3234528
0.28172688
0.23880333
0.19501281
0.15080759
0.10685803
0.064544875
0.028130652
0.009810727
0.0063784419
0.0059932478
0.005900661
0.0058365064
0.0057789793
0.0057260021
0.0056770761
0.0056317547
0.005589648
0.0055504698
0.0055140679
0.0054803668
0.0054493516
0.0054209157
0.0053949133
0.0053711356
0.0053494232
0.0053295781
0.005311652
0.005295645
0.0052819019
0.0052698412
0.0052597785
0.0052514014
0.0052457837
0.0052405338
0.0052486014
0.058628502
0.062824413
0.067223103
0.071831309
0.076656567
0.081707
0.086991223
0.092518303
0.098297754
0.10433956
0.11065419
0.11725268
0.12414662
0.13134821
0.13887029
0.14672639
0.15493071
0.1634982
0.17244455
0.18178621
0.19154046
0.20172539
0.21235995
0.22346397
0.23505812
0.24716389
0.25980342
0.27299932
0.28677426
0.30115035
0.31614829
0.3317862
0.34807801
0.36503155
0.38264629
0.40091077
0.41979957
0.43926939
0.45925492
0.47966488
0.50037855
0.52124307
0.54207091
0.56264182
0.58270371
0.601976
0.62015568
0.63692551
0.6519639
0.66495617
0.67560623
0.68364788
0.68885462
0.69104725
0.69009838
0.68593366
0.67852963
0.66790879
0.65413251
0.63729288
0.61750445
0.59489652
0.56960658
0.54177492
0.51154055
0.47903875
0.44440112
0.40775984
0.36925728
0.32906042
0.2873714
0.24444176
0.20059128
0.15625048
0.11205578
0.069264568
0.031547942
0.010783561
0.0064872703
0.0060077508
0.0059074905
0.0058423022
0.0057843072
0.0057309631
0.0056817172
0.0056361095
0.0055937509
0.0055543547
0.0055177596
0.0054838799
0.0054526906
0.0054240824
0.0053979084
0.0053739669
0.0053521049
0.0053321191
0.0053140615
0.0052979431
0.0052841217
0.0052720014
0.0052619042
0.0052535185
0.0052479164
0.0052426991
0.0052507437
0.059109398
0.063269584
0.067630278
0.072198244
0.076981026
0.081986766
0.087224127
0.092702248
0.098430732
0.10441965
0.11067955
0.11722152
0.12405719
0.13119877
0.13865908
0.1464516
0.15459047
0.1630905
0.17196726
0.18123703
0.1909169
0.20102475
0.2115793
0.22260016
0.23410779
0.24612352
0.2586694
0.27176804
0.28544223
0.29971446
0.31460604
0.33013601
0.34631967
0.36316667
0.38067883
0.39884742
0.4176501
0.43704713
0.45697728
0.47735385
0.49806103
0.51895098
0.53984192
0.56051685
0.58072733
0.60019529
0.61861887
0.63568019
0.65105521
0.66442481
0.67548665
0.68396668
0.68962943
0.69228608
0.69179965
0.68808685
0.68111646
0.67090486
0.65750917
0.6410191
0.62154851
0.59922728
0.57419435
0.54659176
0.51656024
0.48423645
0.44975281
0.4132415
0.37484347
0.33472182
0.29307347
0.25014282
0.20623912
0.16177191
0.11734795
0.074112882
0.035243578
0.011978039
0.0066280924
0.006024795
0.0059145565
0.0058481624
0.0057896871
0.0057359726
0.0056864023
0.0056405045
0.0055978906
0.005558273
0.0055214816
0.0054874199
0.005456053
0.0054272696
0.0054009214
0.005376814
0.0053548001
0.0053346718
0.0053164826
0.005300254
0.0052863546
0.005274175
0.0052640433
0.0052556475
0.0052500597
0.0052448722
0.0052528846
0.05962592
0.063750302
0.068072952
0.072600677
0.077341053
0.082302253
0.087492989
0.092922467
0.098600365
0.10453683
0.1107425
0.1172285
0.12400651
0.13108877
0.13848808
0.14621788
0.15429224
0.16272589
0.17153426
0.18073349
0.19034047
0.20037288
0.21084923
0.22178889
0.23321212
0.24514005
0.25759461
0.27059839
0.2841743
0.29834508
0.31313262
0.32855681
0.34463421
0.3613762
0.37878674
0.39685979
0.41557606
0.43489934
0.4547725
0.4751134
0.49581113
0.51672295
0.53767211
0.55844676
0.57880121
0.59846011
0.61712287
0.63447126
0.65017895
0.66392258
0.67539368
0.68431044
0.69042845
0.69354925
0.69352618
0.69026684
0.68373211
0.67393204
0.66091932
0.64478114
0.62563053
0.60359794
0.5788237
0.5514517
0.52162448
0.48948018
0.45515214
0.41877261
0.38048118
0.3404375
0.29883351
0.2559067
0.21195615
0.16737139
0.12273313
0.079085185
0.039197579
0.013428777
0.0068114838
0.0060452492
0.0059219189
0.0058540918
0.0057951207
0.0057410318
0.0056911325
0.0056449402
0.0056020675
0.0055622247
0.0055252333
0.0054909859
0.0054594378
0.0054304761
0.0054039511
0.0053796757
0.0053575078
0.0053372354
0.0053189148
0.005302577
0.0052886
0.0052763616
0.0052661951
0.0052577876
0.0052522126
0.0052470524
0.0052550235
0.060177394
0.064265956
0.068550591
0.073038155
0.077736265
0.082653136
0.08779753
0.093178716
0.098806442
0.10469093
0.11084288
0.11727349
0.12399448
0.1310181
0.13835718
0.14602511
0.15403591
0.16240424
0.17114541
0.18027542
0.18981097
0.19976956
0.21016948
0.22102987
0.23237078
0.24421314
0.25657874
0.2694901
0.2829702
0.29704204
0.31172797
0.32704867
0.34302186
0.35966051
0.37697067
0.39494882
0.41357867
0.43282757
0.45264242
0.47294563
0.49363122
0.51456152
0.53556481
0.55643425
0.57692816
0.59677329
0.61567054
0.63330151
0.64933781
0.66345201
0.67532968
0.68468136
0.69125371
0.69483862
0.69527966
0.69247521
0.68637804
0.67699171
0.66436428
0.64858025
0.62975171
0.6080096
0.58349568
0.55635572
0.52673415
0.49477073
0.46059981
0.42435375
0.38617097
0.34620793
0.30465182
0.26173351
0.21774218
0.17304959
0.12821019
0.0841777
0.043388395
0.015170903
0.0070509287
0.0060703151
0.0059296591
0.0058600965
0.0058006092
0.0057461415
0.0056959085
0.0056494174
0.0056062817
0.0055662095
0.0055290141
0.0054945768
0.0054628438
0.0054337007
0.0054069964
0.0053825508
0.0053602269
0.005339809
0.0053213573
0.0053049115
0.0052908572
0.0052785606
0.005268359
0.0052599378
0.0052543742
0.0052492388
0.0052571598
0.060763155
0.064815961
0.069062693
0.073510257
0.078166316
0.083039131
0.088137518
0.093470804
0.099048804
0.10488181
0.11098059
0.11735641
0.12402102
0.13098671
0.13826632
0.14587322
0.15382141
0.16212545
0.17080057
0.17986262
0.18932817
0.19921452
0.20953973
0.22032276
0.2315834
0.24334239
0.25562137
0.26844276
0.28182958
0.29580502
0.31039184
0.32561145
0.34148262
0.35801981
0.37523103
0.39311517
0.41165893
0.4308331
0.45058862
0.47085241
0.49152341
0.51246907
0.53352274
0.55448234
0.57511076
0.59513749
0.61426454
0.63217356
0.64853432
0.66301551
0.6752969
0.68508151
0.69210712
0.69615595
0.69706173
0.69471347
0.68905568
0.68008521
0.66784532
0.65241764
0.63391321
0.61246338
0.58821133
0.56130477
0.53189014
0.50010887
0.46609648
0.42998553
0.39191334
0.35203352
0.3105287
0.26762334
0.22359714
0.17880767
0.13377744
0.089388209
0.047795299
0.017235973
0.0073632785
0.0061016324
0.0059378881
0.0058661849
0.0058061541
0.0057513021
0.005700731
0.0056539365
0.0056105335
0.0055702271
0.0055328231
0.0054981916
0.0054662696
0.005436942
0.0054100558
0.0053854381
0.0053629561
0.0053423915
0.0053238095
0.0053072569
0.0052931255
0.0052807714
0.005270534
0.0052620974
0.0052565435
0.0052514306
0.0052592931
0.061382541
0.065399748
0.069608779
0.074016589
0.078630888
0.083459988
0.088512758
0.093798582
0.099327343
0.1051094
0.11115558
0.11747721
0.1240861
0.13099457
0.13821547
0.14576218
0.15364866
0.16188942
0.1704996
0.17949494
0.18889185
0.19870746
0.20895966
0.21966714
0.23084952
0.24252731
0.25472198
0.26745584
0.28075191
0.29463352
0.30912382
0.32424482
0.34001629
0.35645407
0.37356799
0.39135931
0.40981756
0.42891696
0.44861243
0.46883536
0.48948959
0.5104477
0.53154819
0.55259383
0.57335169
0.59355517
0.61290736
0.63108987
0.64777085
0.66261534
0.67529747
0.68551286
0.69299048
0.69750289
0.6988739
0.69698303
0.69176635
0.68321381
0.67136366
0.65629448
0.63811615
0.61696035
0.59297167
0.56629981
0.53709329
0.50549539
0.47164281
0.4356685
0.39770878
0.35791463
0.31646438
0.27357629
0.22952118
0.18464366
0.1394338
0.094713571
0.052399881
0.019649024
0.0077699089
0.0061414217
0.0059467578
0.0058723686
0.0058117565
0.0057565138
0.0057055999
0.0056584975
0.0056148226
0.0055742769
0.0055366594
0.0055018288
0.005469714
0.0054401987
0.0054131281
0.0053883363
0.0053656942
0.0053449822
0.0053262709
0.0053096125
0.0052954043
0.0052829934
0.0052727195
0.0052642653
0.0052587193
0.0052536269
0.005261423
0.062034891
0.066016759
0.070188387
0.074556778
0.079129692
0.083915489
0.088923091
0.094161943
0.099641988
0.10537365
0.11136783
0.1176359
0.12418973
0.13104168
0.13820463
0.14569197
0.15351762
0.16169607
0.17024237
0.17917218
0.18850177
0.1982481
0.20842888
0.2190626
0.23016866
0.24176735
0.25387997
0.26652871
0.27973655
0.29352694
0.30792332
0.32294829
0.33862249
0.35496305
0.37198153
0.38968141
0.40805503
0.42707991
0.44671489
0.46689581
0.48753137
0.50849929
0.52964325
0.55077094
0.5716538
0.59202862
0.61160127
0.6300527
0.64704962
0.66225361
0.67533336
0.68597723
0.69390548
0.69888099
0.70071761
0.69928523
0.6945113
0.68637871
0.67492045
0.66021191
0.64236163
0.62150155
0.59777769
0.57134175
0.54234446
0.510931
0.47723945
0.44140318
0.4035577
0.36385157
0.32245904
0.27959242
0.2355141
0.19055585
0.14517863
0.10015105
0.057186415
0.022426681
0.0082969957
0.0061926891
0.0059564757
0.0058786639
0.0058174176
0.0057617765
0.005710515
0.0056631004
0.0056191484
0.0055783583
0.0055405219
0.0055054874
0.0054731756
0.0054434694
0.005416212
0.005391244
0.0053684401
0.0053475802
0.0053287408
0.0053119775
0.0052976927
0.0052852258
0.0052749146
0.0052664407
0.0052609007
0.0052558268
0.0052635488
0.062719555
0.066666449
0.070801075
0.075130477
0.079662463
0.084405443
0.089368392
0.094560813
0.099992708
0.10567457
0.11161736
0.11783251
0.12433196
0.1311281
0.13823384
0.1456626
0.15342828
0.16154535
0.1700288
0.1788942
0.18815771
0.19783614
0.20794702
0.21850867
0.22954026
0.2410619
0.25309467
0.26566065
0.27878275
0.29248452
0.30678962
0.32172118
0.33730063
0.35354629
0.37047136
0.38808145
0.40637154
0.42532245
0.44489681
0.46503485
0.48565011
0.50662544
0.52780974
0.5490157
0.57001922
0.59056063
0.61034829
0.6290641
0.64637264
0.66193225
0.6754064
0.68647633
0.69485367
0.70029167
0.70259416
0.70162129
0.69729172
0.68958102
0.67851678
0.66417097
0.64665067
0.626088
0.60263035
0.57643151
0.54764447
0.51641646
0.48288702
0.44719009
0.40946051
0.36984464
0.32851282
0.28567171
0.24157566
0.19654415
0.15101091
0.1056981
0.062141579
0.025573623
0.0089757773
0.006259512
0.0059673266
0.0058850927
0.0058231394
0.0057670902
0.0057154759
0.0056677444
0.0056235103
0.0055824701
0.0055444095
0.0055091658
0.0054766529
0.0054467524
0.0054193058
0.0053941599
0.0053711927
0.0053501846
0.0053312184
0.0053143511
0.00529999
0.0052874679
0.0052771182
0.0052686225
0.0052630865
0.0052580294
0.0052656702
0.06343591
0.067348305
0.07144643
0.075737366
0.080228968
0.084929692
0.089848567
0.094995152
0.10037951
0.1060122
0.11190424
0.11806714
0.12451287
0.13125391
0.13830318
0.14567412
0.15338066
0.16143724
0.1698588
0.17866084
0.18785943
0.19747126
0.2075137
0.21800487
0.22896376
0.24041028
0.25236534
0.26485085
0.27788966
0.29150536
0.30572184
0.32056264
0.33604995
0.35220316
0.36903701
0.38655913
0.40476707
0.42364479
0.44315867
0.46325326
0.48384688
0.50482749
0.52604922
0.54732985
0.56844984
0.58915324
0.60915085
0.62812595
0.64574175
0.66165302
0.67551823
0.68701168
0.69583647
0.70173625
0.70450477
0.70399234
0.70010866
0.69282179
0.68215367
0.66817269
0.65098429
0.63072068
0.6075306
0.58156996
0.55299412
0.52195245
0.48858611
0.45302971
0.41541759
0.37589406
0.33462583
0.2918141
0.24770555
0.20260786
0.15693015
0.11135259
0.067253959
0.029082329
0.0098424734
0.0063473934
0.0059797123
0.0058916848
0.0058289244
0.0057724548
0.0057204818
0.0056724286
0.005627907
0.005586611
0.0055483205
0.0055128627
0.0054801445
0.0054500463
0.0054224081
0.0053970825
0.0053739507
0.0053527947
0.0053337032
0.0053167326
0.0053022952
0.0052897189
0.0052793295
0.0052708098
0.0052652754
0.005260234
0.0052677865
0.06418339
0.068061864
0.072124085
0.076377171
0.080829013
0.085488119
0.090363563
0.095464962
0.10080244
0.10638661
0.11222857
0.11833989
0.12473261
0.13141923
0.13841275
0.14572663
0.15337482
0.16137173
0.16973231
0.17847199
0.18760676
0.19715319
0.20712852
0.21755071
0.22843857
0.23981182
0.25169118
0.26409843
0.27705634
0.29058849
0.30471897
0.31947169
0.3348695
0.35093281
0.36767777
0.38511393
0.4032413
0.42204689
0.44150072
0.46155157
0.48212247
0.50310649
0.524363
0.54571491
0.56694734
0.58780821
0.60801101
0.62724011
0.64515857
0.66141749
0.67567036
0.68758467
0.69685515
0.70321588
0.70645051
0.70639939
0.70296309
0.69610196
0.68583207
0.67221801
0.65536341
0.6354005
0.61247933
0.58675796
0.55839419
0.52753969
0.49433731
0.45892252
0.42142926
0.38200005
0.34079814
0.29801951
0.25390348
0.20874656
0.16293803
0.11711235
0.072515137
0.032936966
0.01093743
0.0064636629
0.0059941979
0.0058984814
0.005834777
0.0057778714
0.0057255322
0.0056771516
0.005632337
0.0055907795
0.0055522534
0.0055165764
0.0054836486
0.0054533492
0.0054255173
0.0054000105
0.005376713
0.0053554095
0.0053361943
0.0053191211
0.0053046076
0.0052919777
0.0052815472
0.0052730014
0.0052674662
0.0052624396
0.0052698974
0.064961522
0.068806743
0.072833747
0.07704968
0.081462468
0.08608066
0.090913381
0.095970298
0.1012616
0.10679795
0.11259053
0.11865096
0.12499134
0.13162425
0.13856272
0.14582026
0.15341084
0.16134889
0.16964933
0.17832756
0.18739951
0.19688165
0.20679111
0.21714571
0.22796409
0.23926579
0.25107138
0.26340249
0.27628177
0.28973284
0.3037799
0.31844721
0.3337582
0.34973422
0.36639273
0.38374511
0.4017937
0.42052844
0.4399229
0.45992998
0.48047739
0.50146322
0.5227521
0.5441721
0.56551312
0.58652709
0.60693035
0.62640861
0.64462451
0.661227
0.67586406
0.6881965
0.69791081
0.70473158
0.70843232
0.70884333
0.70585587
0.69942238
0.68955284
0.67630779
0.65978894
0.64012837
0.61747743
0.59199635
0.56384546
0.53317884
0.50014119
0.46486895
0.42749587
0.38816282
0.34702982
0.30428787
0.26016924
0.21496004
0.1690326
0.12297419
0.07792312
0.037115215
0.012303222
0.0066181221
0.0060115586
0.0059055376
0.005840703
0.0057833413
0.0057306268
0.005681912
0.0056367985
0.0055949735
0.0055562063
0.0055203052
0.0054871636
0.0054566596
0.0054286318
0.0054029424
0.0053794786
0.0053580284
0.005338691
0.0053215155
0.0053069262
0.0052942435
0.0052837704
0.0052751963
0.0052696578
0.0052646454
0.0052720021
0.065769969
0.06958268
0.073575229
0.077754778
0.082129285
0.086707333
0.091498092
0.096511281
0.10175714
0.10724641
0.11299032
0.11900056
0.12528931
0.13186919
0.13875331
0.14595521
0.15348889
0.16136882
0.1696099
0.17822752
0.18723756
0.19665643
0.20650115
0.21678943
0.22753975
0.23877151
0.25050512
0.26276206
0.27556492
0.28893727
0.30290344
0.31748797
0.33271483
0.34860621
0.36518082
0.38245172
0.40042349
0.41908888
0.4384249
0.45838847
0.47891186
0.49989818
0.52121726
0.54270239
0.56414833
0.58531113
0.6059102
0.6256328
0.64414128
0.6610827
0.67610041
0.68884818
0.69900438
0.70628418
0.71045097
0.71132488
0.70878771
0.70278377
0.69331671
0.68044282
0.66426168
0.64490512
0.62252572
0.59728592
0.56934867
0.53887056
0.5059983
0.47086945
0.43361773
0.39438255
0.35332092
0.31061911
0.26650264
0.22124787
0.17521079
0.128936
0.083468716
0.041589455
0.013984321
0.006824527
0.0060328804
0.0059129273
0.0058467095
0.005788867
0.0057357659
0.0056867083
0.0056412892
0.0055991909
0.0055601772
0.0055240469
0.0054906875
0.0054599754
0.0054317498
0.0054058767
0.0053822465
0.0053606505
0.0053411924
0.0053239151
0.00530925
0.0052965151
0.0052859978
0.0052773934
0.0052718486
0.0052668504
0.0052741001
0.066608581
0.070389578
0.074348489
0.078492482
0.082829535
0.087368261
0.092117869
0.097088125
0.10228932
0.10773227
0.11342824
0.11938902
0.12562683
0.13215437
0.13898481
0.14613173
0.1536092
0.16143169
0.16961413
0.17817191
0.18712087
0.19647737
0.20625836
0.21648145
0.22716501
0.2383283
0.24999159
0.26217623
0.27490472
0.28820062
0.30208833
0.31659266
0.33173806
0.34754748
0.36404079
0.38123262
0.39912969
0.41772743
0.43700616
0.4569267
0.47742582
0.49841155
0.51975893
0.54130645
0.56285381
0.58416134
0.60495167
0.62491382
0.64371016
0.66098576
0.67638028
0.68954048
0.70013657
0.70787435
0.71250706
0.71384463
0.7117592
0.70618675
0.69712434
0.6846238
0.66878238
0.64973152
0.62762499
0.60262745
0.57490454
0.54461551
0.5119092
0.47692446
0.43979516
0.40065944
0.35967152
0.31701317
0.27290351
0.22760966
0.1814722
0.13499686
0.089146176
0.04633071
0.016024538
0.0071005857
0.0060596895
0.0059207499
0.0058528056