/*--------------------------------*- C++ -*----------------------------------*\
| =========                 |                                                 |
| \\      /  F ield         | OpenFOAM: The Open Source CFD Toolbox           |
|  \\    /   O peration     | Version:  2406                                  |
|   \\  /    A nd           | Website:  www.openfoam.com                      |
|    \\/     M anipulation  |                                                 |
\*---------------------------------------------------------------------------*/
FoamFile
{
    version     2.0;
    format      ascii;
    arch        "LSB;label=32;scalar=64";
    class       volScalarField;
    location    "0.011";
    object      nutMean;
}
// * * * * * * * * * * * * * * * * * * * * * * * * * * * * * * * * * * * * * //

dimensions      [0 2 -1 0 0 0 0];

internalField   nonuniform List<scalar> 
23204
(
0.004170715
0.0041655746
0.0041615781
0.004156702
0.004160185
0.0042859856
0.004271793
0.0042587788
0.0042469562
0.0042363209
0.0042267861
0.0042181564
0.0042102314
0.0042027559
0.0041956696
0.004188861
0.0041827194
0.0041769669
0.004171385
0.0041662298
0.0041622255
0.0041573631
0.0041608106
0.063040157
0.053391607
0.044002817
0.035016562
0.026608546
0.018984034
0.012438494
0.0075086688
0.0050981391
0.0045718557
0.0044873634
0.0044534528
0.0044262495
0.0044014888
0.004378605
0.0043574226
0.0043378303
0.0043197057
0.0043029364
0.0042874252
0.004273137
0.004260035
0.0042481305
0.0042374189
0.0042278133
0.0042191185
0.0042111351
0.0042036061
0.0041964722
0.0041896179
0.0041834386
0.0041776625
0.0041720576
0.0041668876
0.0041628752
0.0041580254
0.0041614346
0.17124511
0.17622745
0.18118868
0.18607385
0.19081846
0.19534291
0.19955118
0.20333196
0.20656223
0.20911264
0.21085457
0.21167007
0.2114634
0.2101707
0.20776591
0.20426433
0.19972049
0.19422593
0.18792454
0.18104419
0.1739705
0.16725505
0.16078013
0.15393836
0.14655532
0.13864834
0.13026787
0.12147817
0.11234567
0.10294067
0.09332993
0.08358383
0.073775246
0.063972328
0.054305058
0.044885063
0.035851682
0.027377444
0.019663632
0.012994157
0.0078718654
0.0052103526
0.0045879937
0.0044913488
0.004456219
0.0044287213
0.0044037619
0.004380703
0.0043593619
0.0043396267
0.004321374
0.004304489
0.0042888722
0.0042744877
0.0042612971
0.0042493102
0.0042385214
0.0042288445
0.004220084
0.0042120417
0.0042044589
0.0041972773
0.0041903773
0.00418416
0.0041783605
0.0041727328
0.004167548
0.0041635272
0.0041586885
0.0041620568
0.046220677
0.048572393
0.051004444
0.053512037
0.056093628
0.058748625
0.061476866
0.064278457
0.067153712
0.070103143
0.073127454
0.076227551
0.079404536
0.082659713
0.085994563
0.089410703
0.092909832
0.096493655
0.10016379
0.1039217
0.10776863
0.11170552
0.11573304
0.11985158
0.12406121
0.12836183
0.13275301
0.137234
0.14180352
0.14645946
0.15119853
0.15601581
0.1609039
0.16584845
0.17077178
0.17573808
0.1806914
0.18557865
0.19033668
0.19488785
0.19913813
0.20297787
0.20628493
0.20892984
0.2107826
0.21172253
0.21164958
0.21049438
0.20822462
0.20484865
0.20041391
0.19500389
0.18875122
0.18186624
0.1746994
0.1678219
0.16131566
0.15453555
0.14722166
0.13937708
0.13105144
0.12230872
0.11321515
0.10384073
0.094252251
0.084519615
0.07471489
0.064910161
0.055225736
0.045775749
0.036696817
0.028158202
0.020357553
0.01356789
0.0082613947
0.0053422349
0.0046074506
0.0044956326
0.0044590247
0.0044312114
0.0044060503
0.0043828145
0.0043613129
0.0043414334
0.0043230512
0.0043060497
0.0042903266
0.0042758448
0.0042625649
0.0042504949
0.0042396286
0.0042298797
0.0042210529
0.0042129512
0.0042053144
0.0041980847
0.0041911389
0.0041848838
0.0041790609
0.0041734104
0.0041682108
0.004164181
0.0041593524
0.0041626768
0.04676486
0.049083576
0.051483324
0.053959942
0.056511313
0.059136406
0.061834812
0.064606511
0.067451764
0.07037107
0.073365138
0.076434896
0.079581474
0.082806204
0.086110598
0.089496301
0.092965037
0.096518534
0.10015844
0.10388623
0.10770317
0.11161023
0.1156081
0.11969718
0.12387759
0.12814919
0.1325116
0.13696414
0.14150559
0.14613393
0.15084594
0.15563657
0.16049744
0.1654119
0.17033742
0.17529164
0.18023723
0.18512531
0.18989501
0.19447074
0.19876073
0.20265712
0.20603883
0.20877634
0.2107385
0.21180195
0.21186249
0.21084524
0.20871166
0.20546312
0.20114002
0.19581827
0.18961998
0.18273917
0.1754935
0.16844097
0.16186246
0.15513401
0.14788879
0.14010707
0.13183657
0.12314123
0.11408707
0.10474384
0.095178304
0.08545994
0.075660408
0.065853922
0.056153735
0.046674998
0.03755208
0.028950898
0.021065761
0.014159482
0.0086766132
0.0054962141
0.0046310649
0.0045002934
0.0044618769
0.0044337202
0.0044083536
0.004384939
0.0043632757
0.0043432505
0.0043247375
0.0043076182
0.0042917879
0.0042772083
0.0042638384
0.0042516845
0.0042407399
0.0042309187
0.004222025
0.0042138633
0.0042061722
0.0041988943
0.0041919028
0.0041856099
0.0041797633
0.0041740901
0.0041688756
0.0041648366
0.0041600165
0.004163294
0.047355529
0.049643027
0.052011477
0.054457311
0.056978275
0.059573134
0.062241327
0.064982755
0.067797643
0.070686483
0.073649998
0.076689137
0.07980506
0.082999135
0.086272902
0.089628039
0.0930663
0.096589438
0.10019912
0.10389686
0.10768392
0.11156132
0.11552975
0.11958962
0.12374108
0.127984
0.13231801
0.13674244
0.14125611
0.14585708
0.15054218
0.15530626
0.16014079
0.16503023
0.1699474
0.17488991
0.17982745
0.184715
0.18949442
0.1940924
0.19841951
0.2023699
0.20582371
0.20865159
0.21072138
0.21190725
0.21210088
0.211222
0.20922582
0.20610676
0.201898
0.19666829
0.19053004
0.18366193
0.17635235
0.16912318
0.1624267
0.15573412
0.14855643
0.14083803
0.13262319
0.12397571
0.1149615
0.1056501
0.09610823
0.086404945
0.076611738
0.066803803
0.057089123
0.047582887
0.038417518
0.029755547
0.021788188
0.014768709
0.0091167748
0.0056746302
0.0046598725
0.0045054344
0.0044647826
0.0044362483
0.004410672
0.0043870767
0.0043652501
0.0043450778
0.0043264327
0.0043091946
0.0042932564
0.0042785779
0.0042651173
0.0042528787
0.0042418553
0.0042319611
0.004223
0.0042147779
0.004207032
0.0041997059
0.0041926686
0.0041863377
0.0041804677
0.0041747717
0.0041695423
0.0041654935
0.0041606804
0.0041639081
0.047995819
0.050251516
0.052590021
0.055005866
0.057496653
0.06006118
0.062698908
0.065409742
0.068193921
0.071051951
0.073984582
0.076992795
0.080077786
0.083240958
0.086483891
0.089808294
0.093215954
0.096708652
0.10028809
0.10395578
0.10771304
0.11156089
0.11550004
0.11953093
0.12365369
0.12786821
0.13217413
0.13657075
0.14105695
0.14563079
0.15028914
0.15502694
0.15983588
0.16470222
0.16960599
0.17453594
0.17946469
0.18435043
0.18913761
0.19375553
0.1981171
0.20211873
0.20564193
0.20855774
0.21073315
0.21204004
0.21236618
0.21162593
0.20976825
0.20678061
0.20268889
0.19755484
0.19148195
0.18463467
0.17727554
0.16987835
0.16301813
0.1563373
0.14922477
0.14156999
0.13341138
0.12481226
0.11583857
0.10655964
0.097042145
0.087354733
0.077568842
0.067759943
0.058031933
0.048499461
0.039293125
0.030572145
0.022524742
0.015395347
0.0095811
0.0058796671
0.00469513
0.0045111881
0.0044677491
0.0044387978
0.0044130054
0.0043892276
0.0043672361
0.0043469151
0.0043281366
0.0043107786
0.0042947316
0.0042799533
0.0042664012
0.0042540773
0.0042429744
0.0042330067
0.0042239776
0.0042156947
0.0042078938
0.0042005191
0.0041934362
0.0041870673
0.0041811737
0.004175455
0.0041702105
0.0041661516
0.0041613438
0.0041645187
0.046496822
0.048668408
0.050907414
0.053220546
0.055608051
0.058069237
0.060603522
0.063210635
0.06589061
0.068643755
0.071470633
0.074372039
0.077348997
0.080402751
0.083534745
0.086746599
0.090040064
0.093416958
0.096879097
0.10042821
0.10406585
0.10779333
0.11161171
0.11552172
0.11952378
0.12361804
0.12780442
0.13208252
0.13645165
0.14091064
0.14545761
0.15008947
0.15480128
0.1595852
0.16442914
0.16931672
0.17423301
0.17915203
0.18403462
0.1888277
0.19346325
0.19785665
0.20190663
0.2054964
0.2084975
0.2107763
0.21220264
0.21266045
0.21205886
0.21034063
0.20748623
0.20351413
0.19847919
0.19247666
0.18565784
0.17826249
0.17071351
0.16365003
0.15694606
0.14989414
0.1423031
0.13420121
0.12565097
0.11671836
0.10747255
0.097980117
0.088309355
0.078531691
0.068722425
0.058982195
0.049424731
0.040178876
0.031400687
0.023275312
0.016039159
0.010068814
0.0061131962
0.0047383405
0.0045177255
0.0044707895
0.0044413672
0.0044153546
0.0043913912
0.0043692334
0.0043487623
0.0043298491
0.00431237
0.0042962132
0.0042813344
0.0042676899
0.0042552799
0.0042440969
0.0042340551
0.0042249576
0.0042166132
0.0042087571
0.0042013337
0.0041942052
0.0041877984
0.004181881
0.0041761397
0.0041708801
0.0041668104
0.0041620064
0.0041651255
0.047245579
0.049400277
0.051619168
0.053907588
0.056267523
0.058699502
0.061203628
0.063780003
0.066428869
0.069150665
0.07194604
0.07481586
0.07776121
0.080783387
0.083883888
0.08706438
0.090326657
0.093672577
0.097103993
0.10062266
0.10423017
0.10792787
0.11171681
0.11559774
0.11957112
0.12363708
0.12779551
0.13204601
0.13638791
0.14081999
0.14534036
0.14994599
0.15463211
0.15939145
0.16421314
0.16908288
0.1739844
0.17889267
0.18377074
0.18856797
0.19321884
0.19764147
0.2017369
0.20539025
0.20847384
0.21085362
0.21239755
0.21298596
0.21252288
0.21094485
0.20822533
0.20437531
0.19944275
0.19351526
0.18673207
0.17931265
0.17163236
0.16433867
0.15756464
0.15056496
0.14303747
0.13499277
0.12649193
0.11760096
0.10838885
0.098922183
0.089268821
0.079500247
0.069691285
0.059939912
0.05035868
0.041074734
0.032241106
0.02403976
0.016699886
0.010579182
0.0063766204
0.0047912844
0.0045252689
0.0044739188
0.0044439578
0.0044177189
0.0043935687
0.0043712419
0.0043506191
0.0043315699
0.0043139684
0.0042977007
0.0042827204
0.0042689829
0.0042564862
0.0042452224
0.0042351061
0.0042259395
0.0042175332
0.0042096215
0.0042021494
0.0041949753
0.0041885306
0.0041825895
0.0041768254
0.0041715506
0.0041674698
0.0041626678
0.004165728
0.048068387
0.050198648
0.052393808
0.054656566
0.056988828
0.059391619
0.061865521
0.064410974
0.067028455
0.069718561
0.072482058
0.075319901
0.078233251
0.081223472
0.084292121
0.087440918
0.090671707
0.093986392
0.097386864
0.10087491
0.10445216
0.10811999
0.11187946
0.11573136
0.11967613
0.12371391
0.12784457
0.1320677
0.13638258
0.14078799
0.14528201
0.14986168
0.15452243
0.15925745
0.16405689
0.16890771
0.17379346
0.17868997
0.18356218
0.18836181
0.19302579
0.19747502
0.20161299
0.2053268
0.20848993
0.21096806
0.21262751
0.21334522
0.21302022
0.21158291
0.20899971
0.20527409
0.20044702
0.19459895
0.18785806
0.18042566
0.17263569
0.16510143
0.15819998
0.15123796
0.14377318
0.13578613
0.12733522
0.11848635
0.10930856
0.099868318
0.090233131
0.080474463
0.070666532
0.060905053
0.051301268
0.041980636
0.033093291
0.024817931
0.01737727
0.011111528
0.0066708528
0.0048560309
0.0045341032
0.0044771578
0.0044465713
0.0044200976
0.0043957587
0.0043732611
0.0043524851
0.0043332984
0.0043155735
0.0042991939
0.0042841113
0.0042702799
0.0042576957
0.0042463504
0.0042361591
0.004226923
0.0042184544
0.0042104869
0.0042029658
0.0041957462
0.0041892638
0.0041832987
0.0041775121
0.0041722219
0.0041681293
0.0041633277
0.0041663261
0.04896455
0.051068149
0.053237268
0.055473097
0.057777094
0.06015038
0.062593789
0.065108023
0.067693769
0.070351793
0.073082989
0.075888416
0.078769327
0.081727159
0.084763539
0.087880251
0.091079192
0.094362318
0.097731562
0.10118876
0.10473555
0.10837336
0.11210328
0.1159261
0.11984227
0.12385194
0.12795496
0.13215088
0.13643892
0.14081785
0.14528576
0.14983972
0.15447536
0.15918625
0.16396336
0.16879452
0.17366363
0.17854739
0.18341243
0.18821275
0.19288774
0.19736091
0.20153847
0.20530956
0.20854908
0.21112276
0.21289541
0.21374082
0.21355323
0.21225693
0.20981132
0.20621222
0.20149357
0.19572899
0.18903668
0.1816014
0.17372238
0.16595396
0.15886305
0.15191445
0.14451034
0.13658125
0.12818078
0.11937457
0.11023166
0.10081849
0.091202235
0.081454265
0.071648138
0.061877576
0.052252431
0.042896504
0.033957114
0.025609667
0.018071047
0.011665243
0.0069963092
0.0049349243
0.0045445969
0.004480534
0.0044492087
0.0044224897
0.0043979596
0.0043752915
0.0043543601
0.0043350346
0.0043171847
0.0043006922
0.0042855063
0.0042715802
0.0042589079
0.0042474805
0.0042372137
0.0042279076
0.0042193764
0.0042113529
0.0042037826
0.0041965178
0.0041899977
0.0041840084
0.0041781994
0.0041728937
0.0041687887
0.0041639859
0.0041669192
0.049937957
0.052013806
0.054155342
0.056363021
0.058637929
0.060981132
0.063393582
0.065876155
0.068429714
0.071055181
0.073753582
0.076526091
0.079374055
0.082299
0.08530263
0.088386797
0.09155346
0.09480463
0.098142288
0.10156831
0.10508439
0.10869196
0.11239215
0.11618577
0.12007329
0.12405485
0.12813027
0.13229907
0.13656043
0.14091306
0.14535504
0.14988349
0.1544942
0.1591811
0.16393578
0.16874675
0.17359844
0.17846853
0.18332514
0.18812446
0.19280837
0.19730289
0.20151706
0.2053422
0.20865481
0.21132102
0.21320431
0.21417559
0.21412443
0.21296917
0.21066213
0.20719154
0.2025841
0.19690679
0.19026881
0.18284
0.17489045
0.16690757
0.15957001
0.15259683
0.14524917
0.1373781
0.1290286
0.12026557
0.11115809
0.10177264
0.092176048
0.082439567
0.072636044
0.06285741
0.053212081
0.043822233
0.034832437
0.026414825
0.018780969
0.012239776
0.0073529162
0.0050305616
0.0045572223
0.0044840843
0.0044518712
0.0044248949
0.0044001724
0.004377332
0.0043562438
0.0043367775
0.0043188016
0.0043021951
0.0042869051
0.0042728836
0.0042601224
0.0042486124
0.0042382695
0.0042288932
0.0042202989
0.0042122191
0.0042045996
0.0041972896
0.004190732
0.0041847185
0.0041788869
0.0041735656
0.0041694476
0.0041646419
0.004167507
0.050994292
0.053041459
0.055154173
0.057332541
0.059577409
0.061889764
0.064270606
0.066720924
0.069241718
0.071834046
0.074499067
0.077238068
0.0800525
0.082943981
0.085914297
0.088965378
0.092099252
0.095317986
0.098623615
0.10201807
0.10550307
0.10908009
0.1127503
0.11651453
0.12037325
0.12432659
0.12837438
0.13251609
0.13675084
0.14107729
0.14549348
0.14999657
0.1545825
0.1592455
0.1639776
0.16876796
0.17360157
0.1784571
0.18330412
0.18810078
0.19279153
0.19730493
0.20155264
0.20542858
0.20881082
0.21156629
0.21355746
0.21465246
0.2147365
0.213722
0.21155429
0.20821395
0.20372038
0.19813385
0.19155551
0.18414179
0.17613793
0.16796806
0.16034217
0.15328951
0.14599005
0.13817667
0.12987861
0.12115926
0.11208779
0.1027307
0.093154481
0.083430277
0.073630169
0.063844461
0.054180108
0.044757706
0.035719103
0.027233287
0.019506795
0.012834642
0.0077401841
0.005145742
0.0045726025
0.0044878597
0.0044545617
0.0044273135
0.0044023956
0.0043793812
0.0043581357
0.0043385271
0.0043204238
0.0043037021
0.0042883071
0.0042741895
0.0042613388
0.0042497455
0.0042393262
0.0042298792
0.0042212215
0.0042130852
0.0042054165
0.0041980613
0.0041914664
0.0041854285
0.0041795747
0.0041742373
0.0041701058
0.0041652954
0.0041680894
0.052140274
0.054157739
0.056240457
0.05838835
0.060602129
0.062882718
0.065231133
0.067648441
0.07013575
0.072694238
0.075325181
0.078029983
0.080810197
0.083667541
0.086603889
0.089621249
0.092721723
0.095907446
0.099180511
0.10254289
0.10599636
0.10954244
0.11318232
0.11691684
0.12074651
0.12467145
0.12869147
0.132806
0.13701413
0.14131444
0.14570494
0.15018278
0.15474401
0.1593831
0.1640925
0.16886188
0.17367683
0.17851694
0.18335324
0.18814571
0.19284122
0.19737102
0.20164927
0.20557261
0.20902098
0.21186225
0.21395825
0.21517458
0.21539228
0.21451798
0.21249005
0.20928148
0.20490425
0.19941183
0.19289797
0.18550723
0.1774633
0.16913615
0.16120344
0.15400038
0.14673364
0.13897705
0.1307307
0.12205561
0.11302068
0.10369256
0.094137428
0.084426248
0.074630406
0.064838614
0.055156394
0.045702791
0.036616948
0.028064937
0.020248289
0.013449398
0.0081573057
0.005283427
0.0045915429
0.0044919243
0.0044572828
0.0044297435
0.0044046274
0.0043814384
0.0043600348
0.0043402831
0.0043220506
0.0043052127
0.0042897118
0.0042754973
0.0042625564
0.0042508795
0.0042403833
0.0042308653
0.0042221438
0.0042139509
0.0042062329
0.0041988328
0.0041922006
0.0041861383
0.0041802622
0.0041749088
0.0041707627
0.0041659463
0.0041686658
0.053383438
0.055370035
0.057421522
0.059537711
0.061719242
0.063966998
0.066282008
0.068665392
0.071118345
0.073642149
0.076238189
0.078907978
0.081653176
0.0844756
0.087377214
0.090360112
0.093426475
0.096578505
0.099818358
0.10314806
0.10656944
0.11008405
0.11369312
0.11739753
0.1211978
0.12509404
0.12908605
0.13317325
0.13735463
0.14162873
0.14599352
0.15044615
0.15498271
0.15959787
0.16428442
0.16903247
0.1738282
0.17865211
0.18347656
0.18826338
0.19296163
0.1975053
0.20181114
0.20577844
0.20928935
0.21221274
0.21441027
0.21574528
0.21609479
0.21535979
0.21347179
0.21039625
0.20613765
0.20074248
0.19429754
0.18693699
0.17886555
0.1704092
0.16217578
0.15474283
0.14748134
0.13977937
0.13158485
0.12295449
0.11395662
0.1046581
0.095124733
0.085427331
0.075636597
0.065839712
0.056140792
0.046657334
0.037525838
0.028909628
0.021005233
0.014083639
0.0086032725
0.0054466299
0.0046150576
0.0044963671
0.0044600396
0.0044321854
0.0044068683
0.0043835032
0.0043619399
0.0043420441
0.0043236818
0.0043067263
0.0042911187
0.0042768065
0.0042637749
0.0042520138
0.0042414404
0.004231851
0.0042230656
0.004214816
0.0042070485
0.0041996036
0.0041929344
0.0041868474
0.0041809493
0.0041755795
0.0041714182
0.0041665941
0.0041692358
0.054732054
0.056686443
0.058705347
0.060788496
0.062936492
0.0651502
0.067430662
0.069779041
0.072196608
0.074684732
0.077244899
0.079878728
0.082587982
0.085374575
0.088240569
0.091188145
0.094219562
0.097337098
0.10054297
0.10383928
0.10722788
0.11071039
0.11428806
0.11796182
0.12173218
0.1255993
0.12956295
0.13362249
0.13777691
0.14202466
0.14636362
0.15079096
0.1553028
0.15989396
0.16455747
0.16928383
0.17405981
0.17886675
0.1836783
0.18845802
0.19315708
0.19771209
0.2020426
0.20605035
0.20962007
0.21262181
0.21491731
0.21636807
0.21684722
0.21625031
0.21450206
0.21156052
0.20742264
0.20212765
0.19575572
0.18843188
0.18034418
0.17178317
0.16327461
0.15553769
0.1482359
0.14058378
0.13244104
0.12385583
0.11489558
0.10562718
0.096116236
0.086433371
0.076648572
0.066847602
0.057133148
0.047621171
0.038445611
0.029767182
0.021777393
0.014736991
0.0090769947
0.0056382003
0.004644415
0.0045013067
0.0044628422
0.00443464
0.0044091184
0.0043855742
0.0043638505
0.0043438095
0.0043253165
0.0043082424
0.0042925271
0.0042781165
0.0042649936
0.004253148
0.0042424969
0.004232836
0.0042239863
0.00421568
0.0042078631
0.0042003736
0.0041936676
0.0041875557
0.0041816356
0.0041762493
0.0041720719
0.0041672386
0.0041697992
0.056195087
0.058115754
0.060100574
0.062149207
0.064262234
0.066440521
0.068685124
0.070997249
0.073378228
0.075829512
0.078352682
0.080949453
0.083621689
0.086371404
0.089200754
0.092112011
0.095107516
0.098189623
0.10136062
0.10462266
0.10797767
0.11142731
0.11497286
0.11861529
0.12235514
0.12619258
0.13012736
0.13415883
0.1382859
0.14250698
0.14681992
0.15122178
0.15570876
0.16027575
0.16491599
0.16962031
0.17437601
0.17916523
0.18396282
0.18873401
0.19343202
0.1979959
0.20234805
0.20639283
0.21001749
0.2130937
0.21548335
0.21704662
0.21765296
0.21719257
0.21558355
0.21277667
0.20876134
0.20356933
0.19727421
0.18999295
0.18189907
0.17325407
0.16450679
0.15641344
0.14900281
0.14139065
0.13329935
0.12475958
0.11583744
0.10659971
0.097111829
0.087444223
0.077666182
0.067862112
0.058133274
0.048594113
0.039376093
0.030637382
0.02256453
0.015409099
0.0095773948
0.0058606882
0.0046811862
0.0045069014
0.0044657008
0.0044371058
0.0044113767
0.0043876514
0.0043657656
0.0043455788
0.0043269537
0.0043097606
0.0042939364
0.0042794268
0.0042662121
0.0042542815
0.0042435524
0.0042338198
0.0042249059
0.0042165426
0.0042086764
0.0042011423
0.0041943996
0.0041882628
0.0041823208
0.0041769176
0.0041727233
0.0041678794
0.0041703554
0.057782185
0.05966743
0.061616497
0.063628975
0.06570544
0.067846761
0.07005402
0.072328462
0.074671476
0.07708459
0.079569469
0.082127921
0.084761909
0.087473546
0.09026508
0.093138875
0.096097358
0.099142959
0.10227804
0.10550482
0.10882527
0.11224111
0.11575368
0.11936395
0.12307253
0.12687956
0.13078483
0.13478764
0.13888686
0.14308085
0.14736737
0.15174347
0.15620531
0.16074788
0.16536456
0.17004646
0.17478132
0.17955206
0.18433465
0.18909591
0.19379102
0.19836134
0.20273211
0.20681049
0.21048614
0.21363276
0.21611258
0.2177848
0.21851557
0.21818981
0.21671915
0.21404726
0.21015604
0.20506961
0.19885481
0.19162146
0.18353039
0.17481877
0.1658716
0.15740197
0.14979248
0.14220082
0.13415982
0.12566565
0.11678213
0.10757561
0.098111385
0.088459735
0.07868927
0.068883052
0.059140973
0.049575965
0.04031711
0.031519991
0.023366434
0.016099645
0.010103458
0.0061161922
0.0047272881
0.0045133594
0.0044686269
0.0044395831
0.0044136404
0.0043897338
0.0043676843
0.0043473504
0.0043285929
0.0043112799
0.0042953463
0.0042807368
0.0042674297
0.0042554138
0.0042446065
0.004234802
0.0042258236
0.0042174035
0.0042094879
0.0042019094
0.0041951304
0.0041889684
0.0041830047
0.0041775843
0.004173372
0.0041685161
0.004170904
0.059503639
0.061351581
0.063263046
0.065237557
0.067275689
0.069378326
0.071546576
0.073781722
0.076085212
0.078458642
0.080903759
0.08342246
0.086016804
0.088688996
0.091441383
0.094276415
0.097196608
0.10020447
0.10330244
0.10649279
0.10977757
0.11315854
0.11663707
0.12021423
0.12389059
0.12766636
0.13154129
0.13551469
0.1395854
0.1437517
0.14801128
0.15236117
0.15679748
0.16131526
0.16590799
0.17056701
0.17528048
0.18003196
0.18479852
0.18954844
0.1942388
0.19881319
0.20319957
0.20730806
0.21103071
0.21424351
0.21680938
0.2185867
0.21943881
0.21924544
0.2179119
0.21537498
0.21160913
0.20663067
0.20049951
0.19331882
0.18523865
0.17647523
0.16736361
0.15853093
0.15062349
0.14301613
0.13502245
0.12657401
0.11772958
0.10855476
0.099114752
0.089479715
0.07971762
0.069910213
0.060156034
0.05056653
0.04126845
0.032414775
0.024182931
0.016808288
0.010654243
0.0064061511
0.004784998
0.0045209504
0.0044716402
0.0044420746
0.0044159109
0.0043918221
0.0043696073
0.0043491244
0.0043302334
0.0043127992
0.0042967558
0.0042820455
0.0042686459
0.0042565444
0.0042456586
0.0042357821
0.0042267392
0.0042182623
0.0042102973
0.0042026747
0.0041958594
0.0041896722
0.0041836867
0.0041782489
0.0041740177
0.0041691485
0.0041714449
0.061370359
0.063178925
0.06505076
0.066985312
0.068983161
0.071045212
0.073172598
0.07536665
0.077628866
0.079960913
0.082364612
0.084841951
0.087395074
0.090026285
0.09273802
0.095532823
0.098413291
0.10138202
0.1044415
0.1075941
0.11084192
0.11418677
0.11763009
0.12117295
0.12481599
0.12855945
0.13240306
0.13634614
0.14038748
0.14452531
0.14875728
0.15308034
0.15749059
0.16198306
0.16655135
0.17118696
0.17587839
0.18060982
0.18535929
0.19009645
0.19478019
0.1993563
0.2037553
0.20789036
0.21165609
0.21493064
0.21757827
0.21945661
0.22042659
0.22036306
0.21916507
0.21676273
0.21312317
0.20825482
0.20221042
0.19508674
0.18702455
0.17822221
0.16897587
0.15981723
0.15152534
0.1438405
0.13588747
0.12748465
0.11867959
0.10953697
0.10012176
0.090503973
0.080751033
0.070943405
0.061178258
0.0515656
0.042229904
0.033321512
0.025013843
0.017534677
0.011228895
0.0067312662
0.0048569721
0.0045300395
0.0044747652
0.0044445821
0.0044181878
0.0043939153
0.0043715327
0.0043508999
0.0043318731
0.0043143176
0.0042981643
0.004283353
0.0042698598
0.0042576726
0.0042467082
0.0042367597
0.0042276523
0.0042191187
0.0042111042
0.0042034376
0.0041965863
0.0041903738
0.0041843666
0.0041789109
0.0041746598
0.004169776
0.0041719777
0.063393828
0.065160762
0.066990753
0.06888317
0.070838604
0.072857977
0.074942461
0.077093427
0.079312431
0.081601202
0.083961641
0.086395816
0.088905963
0.091494473
0.094163876
0.096916803
0.099755936
0.10268395
0.10570342
0.10881677
0.11202616
0.11533346
0.11874017
0.12224741
0.12585585
0.12956575
0.13337688
0.13728852
0.14129945
0.14540786
0.14961134
0.15390678
0.15829025
0.16275677
0.16729997
0.17191151
0.17658018
0.18129071
0.186022
0.19074498
0.19542024
0.1999957
0.20440439
0.2085624
0.21236723
0.21569904
0.21842391
0.22039898
0.22148302
0.22154643
0.22048208
0.21821357
0.21470083
0.20994447
0.20398976
0.19692706
0.18888911
0.18005912
0.17070214
0.16126521
0.15253717
0.14468225
0.13675541
0.12839747
0.119632
0.11052211
0.10113226
0.091532385
0.081789339
0.07198243
0.062207433
0.052572953
0.043201243
0.034239984
0.025858938
0.018278482
0.011826647
0.0070915906
0.0049462189
0.0045411063
0.0044780369
0.0044471033
0.0044204699
0.0043960103
0.0043734594
0.0043526748
0.0043335126
0.0043158351
0.0042995707
0.004284658
0.0042710712
0.0042587979
0.0042477549
0.0042377342
0.0042285624
0.0042199721
0.0042119084
0.0042041979
0.0041973108
0.0041910727
0.0041850438
0.0041795701
0.0041752979
0.0041703982
0.0041725021
0.065586047
0.067308912
0.069094669
0.070942596
0.072853295
0.074827718
0.076867071
0.078972771
0.081146431
0.083389846
0.085704989
0.088094012
0.090559235
0.093103139
0.095728344
0.098437566
0.10123357
0.10411912
0.10709685
0.11016926
0.11333857
0.11660672
0.11997525
0.12344533
0.12701768
0.13069258
0.13446984
0.13834873
0.14232802
0.14640585
0.15057977
0.15484661
0.15920241
0.16364214
0.16815946
0.17274614
0.17739122
0.18207988
0.18679185
0.1914992
0.19616411
0.20073653
0.20515197
0.20932937
0.21316918
0.21655382
0.21935113
0.22141847
0.22261246
0.2227995
0.22186654
0.21973074
0.216345
0.21170217
0.20583986
0.19884181
0.19083361
0.18198577
0.17253783
0.16286988
0.15369868
0.14555776
0.13762759
0.1293125
0.12058676
0.11151007
0.10214614
0.09256477
0.082832359
0.07302707
0.063243339
0.053588363
0.044182234
0.035169978
0.026717966
0.01903934
0.012446828
0.0074866124
0.0050560303
0.0045547782
0.0044815005
0.004449642
0.0044227584
0.004398108
0.0043753871
0.0043544505
0.0043351511
0.0043173504
0.004300974
0.0042859599
0.0042722794
0.0042599197
0.0042487979
0.0042387052
0.004229469
0.0042208223
0.0042127093
0.0042049552
0.0041980324
0.0041917687
0.0041857181
0.004180226
0.0041759314
0.0041710147
0.0041730175
0.067959471
0.069635666
0.071374624
0.073175531
0.075039003
0.076966022
0.078957833
0.081015901
0.083141899
0.085337685
0.087605308
0.089946998
0.092365162
0.094862368
0.097441319
0.10010482
0.10285572
0.10569685
0.10863093
0.11166053
0.11478792
0.1180151
0.12134368
0.12477487
0.12830944
0.13194771
0.13568951
0.13953414
0.14348031
0.14752618
0.15166926
0.15590631
0.16023332
0.16464523
0.16913571
0.17369658
0.17831707
0.18298282
0.18767422
0.19236442
0.19701708
0.20158408
0.20600333
0.21019652
0.21406715
0.21750014
0.22036497
0.22251982
0.22381937
0.22412639
0.22332225
0.22131769
0.21805868
0.21353058
0.20776316
0.2008332
0.19285961
0.1840024
0.1744799
0.16462159
0.15503888
0.14649625
0.1385071
0.13022985
0.12154388
0.11250067
0.1031632
0.093600938
0.083879896
0.074077133
0.064285776
0.054611624
0.045172657
0.036111264
0.027590618
0.019816872
0.01308897
0.0079153441
0.0051899327
0.0045718973
0.0044852196
0.0044522071
0.0044250515
0.0044002067
0.0043773165
0.0043562248
0.0043367875
0.004318862
0.0043023735
0.0042872579
0.0042734835
0.0042610375
0.0042498368
0.0042396723
0.0042303718
0.0042216688
0.0042135066
0.004205709
0.0041987506
0.0041924611
0.004186389
0.0041808782
0.00417656
0.0041716251
0.0041735238
0.070526931
0.072153694
0.073843141
0.075594343
0.077407927
0.079284918
0.0812266
0.083234494
0.085310328
0.087456031
0.089673723
0.091965715
0.094334496
0.09678272
0.099313175
0.10192875
0.10463237
0.10742695
0.11031528
0.11329998
0.11638341
0.11956761
0.12285426
0.12624463
0.12973953
0.1333393
0.13704384
0.14085243
0.14476382
0.14877614
0.15288685
0.15709269
0.16138959
0.16577245
0.17023491
0.17476883
0.1793636
0.18400521
0.18867468
0.19334614
0.19798459
0.20254376
0.20696386
0.21116925
0.21506648
0.21854323
0.22147062
0.22370793
0.22510844
0.2255314
0.22485315
0.22297801
0.21984513
0.21543249
0.20976216
0.20290351
0.19496892
0.18610962
0.17652643
0.16651028
0.15656962
0.14754184
0.13940099
0.13114994
0.12250327
0.11349382
0.1041833
0.094640731
0.084931764
0.075132447
0.065334546
0.055642515
0.046172267
0.037063599
0.028476589
0.020610781
0.013752473
0.0083764775
0.0053515734
0.0045935689
0.0044892833
0.004454798
0.0044273479
0.0044023073
0.004379245
0.0043579969
0.0043384203
0.0043203698
0.0043037691
0.0042885513
0.0042746831
0.0042621506
0.0042508711
0.0042406348
0.0042312704
0.0042225112
0.0042143
0.0042064589
0.0041994652
0.0041931498
0.004187056
0.0041815263
0.0041771832
0.0041722288
0.0041740206
0.073301553
0.074876004
0.076513074
0.078211735
0.079972628
0.081796811
0.083685621
0.08564063
0.08766363
0.089756618
0.091921792
0.094161538
0.096478431
0.098875205
0.10135473
0.10391999
0.10657397
0.10931967
0.11215994
0.11509747
0.1181347
0.12127372
0.12451626
0.12786364
0.13131672
0.13487594
0.13854116
0.14231174
0.14618643
0.15016335
0.15423994
0.15841291
0.16267815
0.16703049
0.17146354
0.17596914
0.18053687
0.18515297
0.18979901
0.19444998
0.19907218
0.20362108
0.20803907
0.21225312
0.21617267
0.21968842
0.22267342
0.22498789
0.22648446
0.22701904
0.22646334
0.22471547
0.2217077
0.21741091
0.21183951
0.20505516
0.19716356
0.18830838
0.17867631
0.16852787
0.15828761
0.14874527
0.14032431
0.13207384
0.12346487
0.11448941
0.10520627
0.095684018
0.085987798
0.076192814
0.066389448
0.056680814
0.047180838
0.038026751
0.029375599
0.021420792
0.014436705
0.0088685563
0.0055444514
0.0046212076
0.0044938091
0.0044574192
0.0044296484
0.0044044087
0.004381172
0.0043597675
0.0043400498
0.0043218742
0.0043051605
0.0042898391
0.0042758769
0.0042632585
0.0042519003
0.0042415924
0.0042321643
0.0042233492
0.004215089
0.0042072047
0.0042001755
0.0041938343
0.004187719
0.0041821698
0.0041778005
0.0041728254
0.004174508
0.076296656
0.077815802
0.079397529
0.081040692
0.082745955
0.084514418
0.086347467
0.088246733
0.090214074
0.092251557
0.094361458
0.096546243
0.098808565
0.10115125
0.10357724
0.10608959
0.1086914
0.11138568
0.1141754
0.11706331
0.12005188
0.12314328
0.1263393
0.12964132
0.13305027
0.13656661
0.14019025
0.1439206
0.14775643
0.15169585
0.15573632
0.15987452
0.16410626
0.16842637
0.17282835
0.1773041
0.18184324
0.18643226
0.19105318
0.1956818
0.2002856
0.20482168
0.20923454
0.21345366