/*--------------------------------*- C++ -*----------------------------------*\
| =========                 |                                                 |
| \\      /  F ield         | OpenFOAM: The Open Source CFD Toolbox           |
|  \\    /   O peration     | Version:  2406                                  |
|   \\  /    A nd           | Website:  www.openfoam.com                      |
|    \\/     M anipulation  |                                                 |
\*---------------------------------------------------------------------------*/
FoamFile
{
    version     2.0;
    format      ascii;
    arch        "LSB;label=32;scalar=64";
    class       volScalarField;
    location    "0.011";
    object      omega;
}
// * * * * * * * * * * * * * * * * * * * * * * * * * * * * * * * * * * * * * //

dimensions      [0 0 -1 0 0 0 0];

internalField   nonuniform List<scalar> 
23204
(
99.0816
99.041397
99.012797
99.008266
98.837916
100.8034
100.58484
100.38434
100.19875
100.02598
99.865926
99.719272
99.587656
99.470969
99.368103
99.274604
99.192331
99.124806
99.073554
99.033079
99.003627
98.998019
98.825329
113.71844
112.45572
111.30338
110.24297
109.27191
108.40221
107.68466
107.00167
105.82558
104.65145
103.97603
103.47466
103.02419
102.61232
102.23515
101.89014
101.57496
101.2874
101.02528
100.78661
100.56884
100.36918
100.18446
100.01257
99.853364
99.707465
99.576544
99.460573
99.358466
99.265758
99.18399
99.116671
99.065437
99.024677
98.994368
98.987721
98.812837
483.58749
447.11094
413.78039
383.37477
355.67664
330.48239
307.6023
286.85928
268.08756
251.1315
235.84459
222.08862
209.73306
198.65454
188.73654
179.86911
171.94878
164.87853
158.5678
152.9327
147.89609
143.38781
139.34478
135.71092
132.43694
129.47985
126.80225
124.37163
122.15975
120.14243
118.29972
116.61591
115.07953
113.70486
112.43779
111.2804
110.21527
109.23956
108.36408
107.63965
106.98506
105.86287
104.65796
103.95506
103.45149
103.00147
102.59041
102.21406
101.86986
101.55548
101.2687
101.00736
100.76961
100.55268
100.35388
100.17006
99.999069
99.840726
99.695602
99.565392
99.450146
99.348798
99.256876
99.175601
99.108476
99.057182
99.016127
98.984958
98.977313
98.800392
8482.0006
7770.8482
7121.2232
6527.7599
5985.4351
5489.6542
5036.2396
4621.4016
4241.706
3894.0412
3575.5884
3283.7929
3016.3383
2771.1225
2546.237
2339.9471
2150.6753
1976.9856
1817.5698
1671.2353
1536.894
1413.5525
1300.3034
1196.3174
1100.8362
1013.1665
932.67403
858.77879
790.95023
728.70319
671.594
619.2171
571.20399
527.22916
487.14685
450.40451
416.81268
386.15186
358.20763
332.77819
309.67492
288.7214
269.75226
252.61202
237.15413
223.24025
210.73955
199.52833
189.48967
180.51321
172.49504
165.33765
158.95002
153.24771
148.15301
143.59512
139.5102
135.84138
132.5385
129.55769
126.8607
124.4142
122.1893
120.16127
118.30967
116.61855
115.07707
113.69033
112.41829
111.25609
110.18684
109.20647
108.32547
107.59277
106.9595
105.89816
104.6709
103.93451
103.42777
102.97819
102.56801
102.19255
101.84922
101.53568
101.24973
100.98922
100.75238
100.5363
100.33839
100.15548
99.985422
99.827963
99.683631
99.554143
99.439629
99.339039
99.247895
99.167101
99.100154
99.048748
99.007388
98.975358
98.966756
98.787961
8400.5116
7704.5428
7067.658
6484.8558
5951.4581
5463.1499
5015.9815
4606.3517
4230.9845
3886.9021
3571.3993
3282.0182
3016.5244
2772.8862
2549.2549
2343.9469
2155.4281
1982.2995
1823.2845
1677.2172
1543.0322
1419.7552
1306.4951
1202.4363
1106.8321
1018.9989
938.31082
864.19473
796.12624
733.62554
676.25402
623.61143
575.33508
531.10979
490.69337
453.67991
419.82933
388.9173
360.73058
335.06877
311.74436
290.58171
271.41596
254.09189
238.46307
224.39105
211.74484
200.40048
190.24068
181.15471
173.03824
165.79332
159.32845
153.55867
148.40569
143.79804
139.67117
135.96739
132.63568
129.63128
126.91505
124.4529
122.21525
120.17678
118.3166
116.61843
115.07138
113.67454
112.39723
111.23042
110.15761
109.1727
108.28658
107.54492
106.92497
105.92831
104.68829
103.91457
103.4035
102.95436
102.54512
102.17059
101.82819
101.51554
101.23046
100.9708
100.73489
100.51968
100.32267
100.14071
99.971593
99.815035
99.67151
99.542757
99.428981
99.329147
99.238773
99.158443
99.091661
99.040107
98.998435
98.965544
98.956033
98.775533
8313.7853
7633.5701
7009.9579
6438.3145
5914.2924
5433.8538
4993.2794
4589.1616
4218.3878
3878.1189
3565.7677
3278.9767
3015.5975
2773.6714
2551.4121
2347.1893
2159.5144
1987.0271
1828.4836
1682.7461
1548.7728
1425.6096
1312.3825
1208.2902
1112.5981
1024.6328
943.77711
869.46535
801.17944
738.44517
680.82904
627.93581
579.40763
534.92677
494.21581
456.93561
422.83037
391.6716
363.24632
337.3553
313.8121
292.44195
273.08058
255.57318
239.7735
225.54314
212.75101
201.27294
190.99138
181.79527
173.57988
166.24687
159.70425
153.86657
148.65494
143.99727
139.82826
136.08941
132.72883
129.70086
126.96551
124.48788
122.23767
120.18901
118.3205
116.6155
115.06265
113.65714
112.3745
111.20331
110.1275
109.13814
108.24734
107.4963
106.882
105.95193
104.70871
103.89554
103.37867
102.93
102.52173
102.14818
101.80675
101.49504
101.21086
100.9521
100.7171
100.50279
100.30671
100.12571
99.957554
99.801915
99.659213
99.531209
99.418178
99.319097
99.229484
99.149603
99.082971
99.031249
98.989259
98.95551
98.945139
98.763107
8222.2985
7558.3976
6948.4553
6388.3639
5874.0972
5401.8792
4968.2153
4569.8911
4203.9595
3867.7232
3558.7161
3274.6844
3013.5682
2773.4847
2552.7122
2349.6758
2162.9339
1991.1665
1833.1641
1687.818
1554.1113
1431.1109
1317.9604
1213.8735
1118.1285
1030.0626
949.06753
874.58547
806.10488
743.15734
685.31446
632.18555
583.41611
538.6868
497.70515
460.1664
425.81216
394.41168
365.7522
339.63549
315.87621
294.30048
274.74478
257.05477
241.08453
226.69579
213.75746
202.14525
191.74141
182.43458
174.11971
166.69806
160.07722
154.17121
148.9006
144.19263
139.98129
136.20725
132.81778
129.76629
127.01192
124.51896
122.25642
120.1978
118.32121
116.60958
115.05092
113.63781
112.34997
111.17465
110.09609
109.10265
108.20754
107.44684
106.83182
105.96844
104.73148
103.8777
103.35329
102.90506
102.49781
102.1253
101.78489
101.47415
101.19092
100.93308
100.699
100.48561
100.29048
100.11046
99.943287
99.788586
99.646726
99.519483
99.407204
99.308876
99.220015
99.140568
99.074073
99.022173
98.979861
98.94526
98.934081
98.750694
8833.8555
8128.0678
7479.6891
6883.4969
6335.2305
5831.0305
5367.3382
4940.8687
4548.596
4187.7381
3855.7406
3550.2607
3269.1502
3010.4404
2772.326
2553.1522
2351.401
2165.6796
1994.7097
1837.3173
1692.424
1559.0384
1436.2494
1323.2191
1219.1769
1123.4141
1035.2791
954.17325
879.54656
810.89437
747.75416
689.70264
636.35342
587.35479
542.38702
501.15423
463.36676
428.77034
397.13383
368.24493
341.90644
317.9341
296.15505
276.40657
258.53495
242.39468
227.84772
214.76309
203.01645
192.48992
183.07192
174.65709
167.14635
160.44685
154.47215
149.14226
144.38377
140.12994
136.32064
132.90225
129.8273
127.05404
124.54594
122.27128
120.20296
118.31855
116.6005
115.03615
113.61632
112.3235
111.1443
110.06303
109.06629
108.16692
107.39644
106.77602
105.97678
104.75533
103.86135
103.32734
102.87953
102.47333
102.1019
101.76255
101.45285
101.17059
100.9137
100.68056
100.46812
100.27397
100.09496
99.928784
99.77504
99.634041
99.507576
99.396058
99.29848
99.210364
99.131336
99.064965
99.012882
98.970248
98.9348
98.922869
98.738305
8717.0376
8029.7667
7397.4668
6815.2903
6279.1098
5785.247
5330.3472
4911.325
4525.338
4169.767
3842.2009
3540.4208
3262.3859
3006.2198
2770.1969
2552.7304
2352.3609
2167.7459
1997.6498
1840.9353
1696.5553
1563.545
1441.016
1328.1494
1224.1909
1128.4455
1040.2734
959.0854
884.34
815.53956
752.22757
693.98589
640.43227
591.21786
546.02384
504.555
466.5314
431.70046
399.83418
370.72108
344.16507
319.98305
298.00326
278.06386
260.01188
243.70233
228.99753
215.76667
203.88548
193.236
183.70647
175.19132
167.5911
160.81262
154.76893
149.37951
144.57031
140.27387
136.42925
132.98197
129.88364
127.09164
124.5686
122.28206
120.20429
118.31234
116.5881
115.01826
113.59241
112.29491
111.1121
110.0283
109.02903
108.12517
107.34497
106.71606
105.97442
104.77946
103.84669
103.30081
102.85337
102.44823
102.07794
101.73972
101.43109
101.14986
100.89396
100.66177
100.45031
100.25717
100.07918
99.91404
99.761275
99.621158
99.495489
99.384741
99.287913
99.200532
99.121907
99.055649
99.003382
98.960427
98.924143
98.911515
98.725953
8595.3516
7927.5427
7311.8593
6744.0166
6220.1789
5736.8959
5291.0235
4879.6733
4500.1828
4150.0939
3827.1375
3529.2191
3254.4059
3000.9148
2767.1008
2551.4468
2352.553
2169.1282
1999.9808
1844.0112
1700.2044
1567.6231
1445.4022
1332.7426
1228.9069
1133.2142
1045.0367
963.79552
888.95752
820.03241
756.56983
698.1568
644.41529
594.99952
549.59262
507.90173
469.65341
434.59811
402.50885
373.1772
346.40831
322.02033
299.84266
279.7145
261.48367
245.00584
230.14378
216.76697
204.75126
193.9787
184.33744
175.72168
168.03172
161.17397
155.06106
149.61192
144.75187
140.41274
136.5328
133.05666
129.93507
127.12448
124.58671
122.28855
120.20162
118.30239
116.57224
114.99717
113.56592
112.26405
111.07789
109.99175
108.99053
108.082
107.29232
106.65305
105.95934
104.80242
103.83386
103.27371
102.82652
102.42249
102.05341
101.71636
101.40885
101.1287
100.87383
100.64262
100.43218
100.24007
100.06315
99.899055
99.747294
99.608081
99.483224
99.373256
99.277179
99.190524
99.112287
99.04613
98.99368
98.950409
98.913299
98.900032
98.71365
8469.7473
7821.7919
7223.0988
6669.8723
6158.6113
5686.1231
5249.4843
4846.0046
4473.1993
4128.7696
3810.5872
3516.6813
3245.2272
2994.5358
2763.0434
2549.3032
2351.9762
2169.8234
2001.6981
1846.5393
1703.3647
1571.2655
1449.4005
1336.991
1233.3169
1137.7122
1049.5612
968.2957
893.39134
824.36531
760.77353
702.20833
648.29596
598.69402
553.08829
511.18893
472.72741
437.45755
405.15399
375.60984
348.63305
324.04317
301.67083
281.35633
262.94845
246.30358
231.28507
217.76276
205.61273
194.71712
184.96402
176.24751
168.46761
161.53041
155.3481
149.83909
144.92811
140.54625
136.63099
133.12608
129.98134
127.15236
124.60009
122.29057
120.19476
118.28855
116.55276
114.97276
113.53664
112.23076
111.04149
109.95321
108.95053
108.03716
107.23846
106.58782
105.93133
104.82275
103.82268
103.24612
102.79897
102.39607
102.02826
101.69245
101.38613
101.1071
100.8533
100.62312
100.41372
100.22268
100.04685
99.883834
99.733101
99.594814
99.470789
99.361611
99.266283
99.180346
99.102481
99.036415
98.983782
98.940202
98.902278
98.888431
98.701406
8340.8416
7712.9279
7131.4637
6593.0714
6094.5828
5633.0733
5205.8465
4810.4106
4444.458
4105.847
3792.5887
3502.8351
3234.869
2987.0953
2758.032
2546.3032
2350.6312
2169.83
2002.7986
1848.515
1706.0309
1574.4662
1453.0043
1340.8876
1237.4139
1141.9321
1053.8395
972.57859
897.63418
828.53109
764.83174
706.13382
652.06807
602.2957
556.50565
514.41136
475.74838
440.27382
407.76475
378.01558
350.83626
326.04884
303.48533
282.98723
264.40434
247.59392
232.41996
218.75281
206.46885
195.45035
185.58546
176.76813
168.89819
161.88142
155.62961
150.06067
145.0987
140.6741
136.72356
133.18996
130.02224
127.17506
124.60855
122.28795
120.18357
118.27068
116.52954
114.94494
113.50443
112.19488
111.00276
109.91253
108.90876
107.99047
107.1834
106.521
105.89178
104.83876
103.81291
103.21816
102.77069
102.36895
102.00248
101.66798
101.36289
101.08504
100.83238
100.60326
100.39494
100.20501
100.03029
99.868382
99.7187
99.581363
99.458189
99.349811
99.255232
99.170003
99.092493
99.026508
98.973694
98.929813
98.891091
98.87672
98.689226
8209.1424
7601.3454
7037.2455
6513.8377
6028.2723
5577.8914
5160.2262
4772.9835
4414.0305
4081.3808
3773.1829
3487.7102
3223.3523
2978.6075
2752.0757
2542.4518
2348.52
2169.1476
2003.28
1849.935
1708.1985
1577.22
1456.208
1344.4265
1241.1914
1145.8675
1057.865
976.63755
901.67937
832.52317
768.73798
709.92705
655.72572
605.79911
559.83955
517.56393
478.71148
443.0425
410.3366
380.39035
353.0149
328.03463
305.28375
284.60506
265.84948
248.87523
233.54708
219.73594
207.31858
196.17753
186.201
177.28291
169.32293
162.22656
155.9052
150.27628
145.26332
140.79602
136.81027
133.24811
130.05756
127.19241
124.61191
122.28054
120.16789
118.24864
116.50247
114.91359
113.46915
112.15627
110.96156
109.86955
108.86473
107.94193
107.12724
106.45307
105.84266
104.84845
103.80547
103.18999
102.74167
102.34111
101.97606
101.64293
101.33915
101.06253
100.81104
100.58304
100.37584
100.18705
100.01348
99.852704
99.704098
99.567735
99.44543
99.337862
99.24403
99.159499
99.082328
99.016412
98.963419
98.919249
98.879746
98.864907
98.677113
8075.1108
7487.4182
6940.7347
6432.3979
5959.8596
5520.7215
5112.7391
4733.8149
4381.9885
4055.4261
3752.4115
3471.3376
3210.6995
2969.0882
2745.1848
2537.7554
2345.6458
2167.7772
2003.1415
1850.797
1709.8644
1579.5229
1459.007
1347.6025
1244.6442
1149.5127
1061.6318
980.46661
905.5209
836.33552
772.48631
713.58223
659.26339
609.199
563.085
520.64178
481.61206
445.75924
412.86559
382.72997
355.16559
329.9979
307.06373
286.20773
267.28205
250.14595
234.66506
220.71096
208.16093
196.8978
186.80993
177.79125
169.74132
162.56538
156.17449
150.48562
145.42169
140.91174
136.89089
133.3003
130.08713
127.20424
124.61002
122.26817
120.14759
118.2223
116.47142
114.87863
113.43066
112.1148
110.91776
109.82416
108.8182
107.89185
107.07006
106.38441
105.78581
104.8518
103.8019
103.16181
102.71192
102.31255
101.949
101.6173
101.31489
101.03957
100.78931
100.56247
100.35643
100.16881
99.996419
99.836806
99.689301
99.553934
99.432517
99.325768
99.23268
99.148838
99.071986
99.006132
98.952962
98.908516
98.86825
98.852999
98.665069
7939.1804
7371.5018
6842.2148
6348.9767
5889.5236
5461.7068
5063.4997
4692.9959
4348.4037
4028.0387
3730.3172
3453.7494
3196.9343
2958.5543
2737.3712
2532.2216
2342.0131
2165.7208
2002.3835
1851.1
1711.0263
1581.372
1461.3977
1350.4117
1247.7678
1152.863
1065.135
984.06055
909.15343
839.96276
776.07136
717.09407
662.67595
612.49044
566.23725
523.6403
484.44569
448.41991
415.34792
385.03098
357.28448
331.93588
308.82297
287.79322
268.70026
251.4045
235.77255
221.67675
208.99494
197.61035
187.41156
178.29257
170.15285
162.89746
156.43713
150.68837
145.57356
141.02105
136.96521
133.34636
130.11076
127.21037
124.60273
122.25073
120.12253
118.19155
116.43631
114.83996
113.38886
112.07036
110.87124
109.77624
108.76929
107.84041
107.01189
106.31529
105.72272
104.85038
103.80227
103.13395
102.68145
102.28329
101.9213
101.5911
101.29012
101.01616
100.76718
100.54155
100.33672
100.1503
99.97912
99.820693
99.674312
99.539965
99.419455
99.313533
99.221187
99.138021
99.061472
98.995667
98.942324
98.89762
98.856613
98.841
98.653093
7801.7637
7253.9357
6741.9605
6263.7943
5817.4408
5400.9888
5012.6213
4650.6169
4313.3477
3999.2747
3706.9432
3434.9785
3182.0812
2947.0238
2728.6476
2525.8592
2337.6276
2162.9818
2001.0073
1850.8439
1711.6832
1582.7654
1463.3775
1352.8507
1250.5585
1155.9143
1068.3702
987.41495
912.57237
843.40017
779.48836
720.45781
665.9587
615.66883
569.29181
526.55511
487.20817
451.02053
417.7799
387.29001
359.36854
333.84505
310.55919
289.35953
270.10237
252.64938
236.86826
222.63219
209.81967
198.31439
188.00523
178.78632
170.55709
163.22244
156.6928
150.88426
145.71867
141.12373
137.03304
133.38611
130.1283
127.21068
124.58991
122.22808
120.09262
118.15628
116.39703
114.79748
113.34366
112.02286
110.82194
109.72575
108.71801
107.78752
106.9527
106.24592
105.65485
104.8452
103.8054
103.10673
102.65028
102.25334
101.89296
101.56432
101.26485
100.9923
100.74466
100.52029
100.31671
100.13153
99.961585
99.80437
99.659138
99.525834
99.406247
99.30116
99.209552
99.12705
99.050784
98.985021
98.931511
98.886566
98.844841
98.828915
98.641182
7663.2539
7135.0446
6640.2372
6177.0656
5743.7845
5338.7071
4960.2161
4606.7676
4276.8917
3969.19
3682.3334
3415.0586
3166.1658
2934.5158
2719.028
2518.6781
2332.4962
2159.5644
1999.0154
1850.0299
1711.8349
1583.7019
1464.9447
1354.9175
1253.0137
1158.6638
1071.3343
990.52619
915.77386
846.64372
782.73316
723.66925
669.10743
618.73001
572.24457
529.38217
489.89557
453.55737
420.15803
389.50385
361.41485
335.72279
312.26939
290.90477
271.4867
253.87914
237.95093
223.57621
210.63422
199.00918
188.59033
179.27198
170.95359
163.53994
156.94119
151.07304
145.85682
141.2196
137.09423
133.41941
130.13962
127.20503
124.57144
122.20011
120.05773
118.11641
116.35351
114.75114
113.29497
111.97222
110.7698
109.67265
108.66441
107.73326
106.89235
106.17634
105.58376
104.8355
103.81024
103.08046
102.61845
102.22271
101.86401
101.537
101.23908
100.96801
100.72176
100.4987
100.2964
100.11249
99.943819
99.787842
99.643782
99.511543
99.392897
99.288652
99.197777
99.115926
99.039926
98.974194
98.920524
98.875361
98.832943
98.816748
98.629333
7524.0257
7015.1398
6537.3009
6088.9997
5668.7246
5274.9992
4906.395
4561.5372
4239.1069
3937.8412
3656.5319
3394.0241
3149.2145
2921.0503
2708.5273
2510.6894
2326.6265
2155.4741
1996.4113
1848.6598
1711.4825
1584.1818
1466.0987
1356.6108
1255.1317
1161.1092
1074.0246
993.39147
918.75484
849.69012
785.80229
726.72479
672.11846
621.67025
575.09179
532.11777
492.50427
456.02693
422.47902
391.66943
363.4206
337.56657
313.95116
292.42649
272.85166
255.09239
239.01938
224.50782
211.43774
199.694
189.16627
179.74908
171.34198
163.84966
157.18205
151.25449
145.98782
141.30848
137.14862
133.44612
130.14459
127.19331
124.54721
122.16672
120.0178
118.07186
116.30567
114.70087
113.24274
111.9184
110.71478
109.61695
108.60851
107.67725
106.83088
106.10717
105.5108
104.81882
103.81577
103.05541
102.58598
102.19144
101.83446
101.50913
101.21282
100.94328
100.69848
100.47678
100.27581
100.09321
99.925829
99.771114
99.628248
99.497097
99.379407
99.27601
99.185864
99.104651
99.028898
98.96319
98.909367
98.864009
98.820927
98.804502
98.61754
7384.4351
6894.5186
6433.3981
5999.7997
5592.4273
5210.0004
4851.2677
4515.0141
4200.0644
3905.2849
3629.5837
3371.9102
3131.2548
2906.6483
2697.1616
2501.9049
2320.0276
2150.7173
1993.1996
1846.7369
1710.6278
1584.2061
1466.8398
1357.9304
1256.9117
1163.2493
1076.4395
996.00881
921.51301
852.53681
788.69295
729.62143
674.98865
624.48631
577.83015
534.75857
495.03095
458.426
424.7398
393.78388
365.38314
339.37396
315.60237
293.92251
274.19538
256.28779
240.07247
225.42603
212.22943
200.3682
189.7325
180.21718
171.7219
164.15131
157.41515
151.42842
146.1115
141.39025
137.19609
133.46613
130.1431
127.17543
124.51713
122.12783
119.97272
118.02254
116.25346
114.64661
113.18692
111.86136
110.65688
109.55866
108.55034
107.61918
106.76874
106.03801
105.43674
104.79266
103.82063
103.03173
102.55291
102.15955
101.80434
101.48074
101.1861
100.91813
100.67483
100.45454
100.25494
100.07367
99.907617
99.75419
99.61254
99.482497
99.365779
99.263237
99.173813
99.093227
99.017702
98.952008
98.898045
98.852518
98.808802
98.792179
98.605797
7244.8182
6773.4643
6328.7657
5909.6622
5515.0547
5143.8438
4794.9429
4467.2866
4159.8353
3871.5782
3601.5342
3348.7528
3112.3148
2891.3319
2684.9477
2492.3377
2312.7091
2145.3014
1989.3858
1844.2651
1709.2737
1583.7765
1467.1691
1358.8767
1258.3538
1165.0838
1078.5784
998.37704
924.04687
855.18196
791.40304
732.35684
677.71546
627.17546
580.45682
537.30164
497.47267
460.75166
426.93756
395.84452
367.29998
341.1427
317.22097
295.39105
275.51586
257.46401
241.10912
226.32997
213.00854
201.03116
190.28854
180.67588
172.09302
164.44462
157.64027
151.59467
146.22774
141.46478
137.23654
133.47934
130.13508
127.15129
124.48112
122.08337
119.92244
117.96841
116.19683
114.58833
113.12748
111.80108
110.59608
109.4978
108.48992
107.55917
106.7062
105.96884
105.36171
104.75515
103.82315
103.00949
102.5193
102.12704
101.77365
101.45185
101.15892
100.89258
100.65082
100.43199
100.23379
100.0539
99.889189
99.737072
99.59666
99.467747
99.352015
99.250334
99.161626
99.081653
99.006339
98.940653
98.886561
98.840892
98.796576
98.779781
98.594098
7105.4898
6652.2453
6223.6305
5818.777
5436.7649
5076.6601
4737.528
4418.4424
4118.4911
3836.7787
3572.4297
3324.589
3092.4237
2875.1239
2671.9037
2482.0017
2304.682
2139.2347
1984.9761
1841.2493
1707.4238
1582.896
1467.0888
1359.4513
1259.4589
1166.6131
1080.4411
1000.4958
926.3557
857.62451
793.93116
734.92931
680.29692
629.73553
582.96943
539.7445
499.82686
463.00135
429.06976
397.84893
369.16884
342.87068
318.80505
296.83039
276.81165
258.61927
242.12839
227.21882
213.7744
201.68233
190.83394
181.12483
172.45508
164.7294
157.85726
151.75309
146.33641
141.53198
137.26988
133.48568
130.12044
127.12082
124.43912
122.03326
119.86691
117.90941
116.13575
114.52601
113.06441
111.73757
110.53242
109.4344
108.4273
107.49735
106.64316
105.89952
105.28547
104.70641
103.82169
102.98848
102.48521
102.09391
101.74241
101.42248
101.13132
100.86664
100.62647
100.40914
100.21238
100.03388
99.870548
99.719764
99.58061
99.452847
99.338117
99.2373
99.149303
99.069932
98.994812
98.929126
98.874919
98.829138
98.784258
98.76731
98.582436
6966.7409
6531.1128
6118.2073
5727.3263
5357.7108
5008.5767
4679.1285
4368.5686
4076.1028
3800.9444
3542.317
3299.4561
3071.6115
2858.0482
2658.0483
2470.9117
2295.9578
2132.5263
1979.9779
1837.6952
1705.0828
1581.5682
1466.6017
1359.6564
1260.2288
1167.8385
1082.0286
1002.3656
928.43952
859.86409
796.27659
737.3378
682.73168
632.1649
585.36613
542.08511
502.09137
465.17285
431.13419
399.79495
370.98767
344.55598
320.35286
298.23898
278.08137
259.75238
243.12888
228.09182
214.5264
202.32122
191.3683
181.56372
172.80785
165.00546
158.06598
151.90359
146.43745
141.59178
137.29606
133.48509
130.09914
127.08399
124.39107
121.97747
119.80607
117.84552
116.07017
114.45962
112.9977
111.67083
110.46592
109.36851
108.36253
107.43382
106.57965
105.82988
105.20797
104.64843
103.81366
102.96831
102.45071
102.06013
101.71061
101.39264
101.10331
100.84033
100.60178
100.38599
100.19071
100.01364
99.851699
99.702269
99.564394
99.437801
99.324084
99.224137
99.136845
99.058063
98.983122
98.917431
98.863126
98.817263
98.771857
98.754767
98.570802
6828.8358
6410.299
6012.6974
5635.483
5278.0395
4939.7175
4619.8481
4317.7511
4032.7414
3764.1333
3511.2433
3273.3925
3049.909
2840.1295
2643.4012
2459.0834
2286.5491
2125.1863
1974.3992
1833.6092
1702.2559
1579.7974
1465.7113
1359.4949
1260.6658
1168.7619
1083.3424
1003.9874
930.29906
861.90105
798.43931
739.58191
685.01899
634.46249
587.64558
544.3219
504.26446
467.2643
433.12896
401.6807
372.75463
346.19689
321.86283
299.61539
279.32376
260.86226
244.10953
228.94809
215.26399
202.9474
191.8913
181.99232
173.15113
165.27268
158.26633
152.04611
146.5308
141.64416
137.31505
133.47755
130.07114
127.04075
124.33693
121.91595
119.73989
117.7767
116.00009
114.38916
112.92736
111.60088
110.3966
109.30018
108.29567
107.36865
106.5155
105.75968
105.13118
104.58343
103.79852
102.95018
102.41591
102.02565
101.67821
101.36233
101.0749
100.81367
100.57678
100.36256
100.16879
99.993164
99.832644
99.68459
99.548012
99.422607
99.309917
99.210845
99.124251
99.046048
98.971272
98.905572
98.851185
98.805272
98.75938
98.742152
98.559189
6692.0093
6290.0145
5907.2869
5543.409
5197.8903
4870.2016
4559.7873
4266.0741
3988.477
3726.4032
3479.256
3246.4368
3027.3475
2821.393
2627.9828
2446.5332
2276.469
2117.2253
1968.2486
1828.9986
1698.949
1577.5885
1464.422
1358.9706
1260.7731
1169.386
1084.3846
1005.3632
931.93571
863.73638
800.4199
741.66184
687.15871
636.62782
589.80697
546.4538
506.34483
469.27426
435.05252
403.50459
374.46818
347.79191
323.33355
300.95836
280.53771
261.94793
245.06954
229.78665
215.98668
203.56052
192.40268
182.41042
173.48481
165.53096
158.45828
152.18062
146.61646
141.68911
137.32684
133.46305
130.03643
126.99108
124.27669
121.84869
119.66836
117.70293
115.9255
114.31463
112.85339
111.52775
110.32451
109.22946
108.22678
107.30184
106.45003
105.68895
105.05564
104.513
103.77866
102.93477
102.38099
101.9904
101.64517
101.33151
101.0461
100.78667
100.55149
100.33887
100.14662
99.972467
99.813387
99.666728
99.531465
99.407267
99.295616
99.197423
99.111522
99.033888
98.959266
98.893553
98.839103
98.793172
98.746837
98.729464
98.547589
6556.4637
6170.4456
5802.1439
5451.2536
5117.394
4800.1418
4499.0426
4213.6194
3943.3779
3687.8112
3446.4024
3218.6277
3003.9586
2801.8644
2611.8138
2433.2779
2265.7312
2108.6543
1961.5352
1823.8708
1695.1684
1574.9471
1462.7383
1358.0874
1260.5542
1169.714
1085.1581
1006.4952
933.35147
865.37167
802.21957
743.5784
689.15122
638.66091
591.85
548.48021
508.33163
471.20168
436.90368
405.26536
376.12702
349.33979
324.76385
302.2668
281.72224
263.00857
246.00821
230.60695
216.69368
204.16033
192.90225
182.8179
173.8088
165.78029
158.64182
152.30713
146.69445
141.72665
137.33146
133.44161
129.99502
126.93498
124.21034
121.77566
119.59145
117.62421
115.84639
114.23604
112.77581
111.45144
110.24967
109.15638
108.15589
107.23341
106.3831
105.61832
104.97923
104.43871
103.75559
102.92103
102.34619
101.95434
101.61142
101.30016
101.01688
100.75935
100.52591
100.31492
100.12422
99.951556
99.793933
99.648686
99.514755
99.391782
99.28118
99.183871
99.098659
99.021585
98.947106
98.881379
98.826887
98.78097
98.734236
98.716705
98.535996
6422.3669
6051.7524
5697.4169
5359.1513
5036.6704
4729.6432
4437.7051
4160.4649
3897.5105
3648.4128
3412.7286
3190.0034
2979.7738
2781.5693
2594.9153
2419.3345
2254.3496
2099.4849
1954.2684
1818.2337
1690.9209
1571.8787
1460.6654
1356.8499
1260.0133
1169.7494
1085.6661
1007.3863
934.54882
866.80904
803.84002
745.33291
690.99748
640.56232
593.77485
550.40098
510.22445
473.0459
438.68163
406.96207
377.73015
350.8395
326.15274
303.53981
282.87654
264.04348
246.92496
231.40853
217.3846
204.74637
193.38989
183.21471
174.1231
166.02067
158.81699
152.42571
146.76483
141.75684
137.32895
133.41326
129.94695
126.87249
124.13789
121.69689
119.50917
117.54053
115.76277
114.15339
112.69464
111.372
110.17213
109.08098
108.08303
107.16335
106.31497
105.54813
104.90276
104.36185
103.72857
102.90821
102.3118
101.91743
101.57693
101.26821
100.98722
100.7317
100.50006
100.29073
100.1016
99.930439
99.774287
99.630467
99.497884
99.376151
99.266609
99.170189
99.085661
99.009141
98.934798
98.869057
98.814545
98.768674
98.721584
98.703873
98.524404
6289.8502
5934.0663
5593.2321
5267.2203
4955.8271
4658.8022
4375.8595
4106.6841
3850.9376
3608.2614
3378.2795
3160.6014
2954.8238
2760.5333
2577.308
2404.7201
2242.338
2089.7283
1946.4579
1812.0954
1686.2133
1568.3895
1458.2085
1355.2628
1259.1545
1169.4961
1085.9121
1008.0398
935.53064
868.05101
805.28343
746.92716
692.69887
642.33307
595.58219
552.21643
512.02328
474.80668
440.38589
408.59412
379.27688
352.29032
327.49949
304.77668
283.99999
265.0521
247.81934
232.19104
218.05918
205.3183
193.86551
183.60087
174.42776
166.2522
158.98389
152.53646
146.82771
141.77979
137.31942
133.37809
129.89226
126.80363
124.05936
121.61237
119.42154
117.4519
115.67464
114.06669
112.60989
111.28943
110.0919
109.00329
108.00824
107.09171
106.24571
105.47836
104.82659
104.28283
103.69534
102.89562
102.27806
101.8797
101.54163
101.2356
100.95706
100.7037
100.47394
100.26632
100.07878
99.909129
99.754456
99.612075
99.480852
99.360375
99.251904
99.156377
99.07253
98.996558
98.922348
98.856593
98.802085
98.756291
98.708891
98.69097
98.512807
6159.0079
5817.4895
5489.693
5175.5604
4874.9577
4587.7042
4313.5823
4052.3446
3803.7179
3567.4072
3343.0976
3130.4572
2929.1385
2738.7807
2559.012
2389.4511
2229.7101
2079.396
1938.1128
1805.4637
1681.0524
1564.4853
1455.3729
1353.3309
1257.9823
1168.9583
1085.8999
1008.4591
936.3001
869.10045
806.55233
748.36332
694.25722
643.97461
597.27308
553.92729
513.72854
476.48414
442.01638
410.16122
380.7668
353.69177
328.80359
305.97692
285.09213
266.03406
248.69104
232.95424
218.71728
205.87607
194.32886
183.97649
174.72292
166.47503
159.14269
152.63955
146.88325
141.79563
137.30298
133.33619
129.83105
126.72847
123.97481
121.52214
119.32856
117.35835
115.58202
113.97597
112.52158
111.20377
110.00901
108.92335
107.93154
107.01851
106.1754
105.40906
104.75069
104.20197
103.65347
102.88194
102.24525
101.84122
101.50555
101.2023
100.92634
100.67529
100.44754
100.24168
100.05576
99.887637
99.73445
99.593515
99.463663
99.344455
99.237064
99.142435
99.059268
98.983839
98.909761
98.843996
98.789516
98.74383
98.696165
98.677996
98.501203
6029.8973
5702.0935
5386.8784
5084.2523
4794.1408
4516.4232
4250.9414
3997.507
3755.9048
3525.8965
3307.2226
3099.6044
2902.7457
2716.3349
2540.0465
2373.5434
2216.4789
2068.4985
1929.2421
1798.346
1675.4445
1560.1718
1452.1635
1351.0586
1256.5008
1168.1399
1085.6333
1008.6478
936.8605
869.9604
807.64948
749.64385
695.67465
645.48871
598.84897
555.53465
515.34101
478.07879
443.57334
411.66343
382.19981
355.04363
330.06478
307.14026
286.1527
266.98913
249.5399
233.69806
219.35887
206.4197
194.78001
184.34158
175.0088
166.68938
159.29361
152.73519
146.93164
141.80456
137.2798
133.28771
129.76342
126.6471
123.88429
121.42626
119.23027
117.25989
115.48493
113.88123
112.42972
111.11503
109.92348
108.84116
107.85296
106.94377
106.10402
105.33926
104.67471
104.12258
103.60211
102.86586
102.21356
101.80215
101.46872
101.16831
100.89503
100.64644
100.4208
100.21681
100.03255
99.865979
99.714278
99.574794
99.44632
99.328392
99.222092
99.128366
99.045876
98.970989
98.897045
98.831275
98.77685
98.7313
98.683413
98.664952
98.489588
5902.5397
5587.9202
5284.8424
4993.3564
4713.4388
4445.0202
4187.9943
3942.2239
3707.5454
3483.7707
3270.6902
3068.0734
2875.6712
2693.2172
2520.4292
2357.0114
2202.6561
2057.0455
1919.8539
1790.7493
1669.3955
1555.4539
1448.585
1348.4504
1254.7141
1167.0446
1085.1158
1008.6092
937.21514
870.63396
808.57776
750.7714
696.95352
646.87742
600.31158
557.03993
516.86179
479.59143
445.05734
413.10109
383.57609
356.34598
331.28304
308.26663
287.18165
267.91727
250.36592
234.42252
219.98405
206.94935
195.21913
184.69619
175.28566
166.89556
159.43694
152.82366
146.97317
141.80681
137.25008
133.23282
129.68952
126.55963
123.7879
121.32477
119.12673
117.15655
115.3834
113.7825
112.33434
111.02322
109.83532
108.75674
107.7725
106.86749
106.03152
105.26851
104.59931
104.04669
103.54279
102.84587
102.18315
101.7627
101.43124
101.13368
100.86313
100.6171
100.39369
100.19167