/*--------------------------------*- C++ -*----------------------------------*\
| =========                 |                                                 |
| \\      /  F ield         | OpenFOAM: The Open Source CFD Toolbox           |
|  \\    /   O peration     | Version:  2406                                  |
|   \\  /    A nd           | Website:  www.openfoam.com                      |
|    \\/     M anipulation  |                                                 |
\*---------------------------------------------------------------------------*/
FoamFile
{
    version     2.0;
    format      ascii;
    arch        "LSB;label=32;scalar=64";
    class       volScalarField;
    location    "0.011";
    object      pMean;
}
// * * * * * * * * * * * * * * * * * * * * * * * * * * * * * * * * * * * * * //

dimensions      [1 -1 -2 0 0 0 0];

internalField   nonuniform List<scalar> 
23204
(
101288.83
101289.25
101289.56
101289.78
101289.85
101274.39
101276.01
101277.54
101278.97
101280.31
101281.57
101282.74
101283.82
101284.81
101285.71
101286.53
101287.24
101287.87
101288.39
101288.81
101289.12
101289.34
101289.41
101224.06
101227.64
101231.04
101234.24
101237.43
101240.52
101243.58
101246.37
101249.25
101252.22
101254.89
101257.43
101259.86
101262.18
101264.39
101266.5
101268.5
101270.41
101272.21
101273.92
101275.54
101277.07
101278.5
101279.85
101281.11
101282.28
101283.36
101284.36
101285.26
101286.07
101286.79
101287.41
101287.95
101288.37
101288.68
101288.89
101288.96
100970.73
100983.17
100995.33
101007.21
101018.78
101030.04
101040.95
101051.51
101061.69
101071.49
101080.88
101089.87
101098.46
101106.65
101114.48
101121.96
101129.14
101136.05
101142.77
101149.39
101156.03
101162.65
101169.26
101175.62
101181.67
101187.42
101192.87
101198.05
101202.95
101207.58
101211.96
101216.11
101220.03
101223.74
101227.29
101230.68
101233.87
101237.02
101240.1
101243.14
101245.94
101248.76
101251.75
101254.4
101256.95
101259.38
101261.7
101263.91
101266.02
101268.02
101269.93
101271.73
101273.45
101275.06
101276.59
101278.03
101279.39
101280.64
101281.82
101282.9
101283.89
101284.8
101285.62
101286.34
101286.96
101287.49
101287.91
101288.22
101288.44
101288.51
100496.86
100510.39
100524.02
100537.77
100551.64
100565.6
100579.66
100593.81
100608.02
100622.33
100636.68
100651.11
100665.59
100680.11
100694.65
100709.22
100723.79
100738.35
100752.9
100767.42
100781.92
100796.35
100810.72
100825.01
100839.21
100853.31
100867.29
100881.14
100894.83
100908.38
100921.75
100934.92
100947.89
100960.64
100973.17
100985.44
100997.44
101009.16
101020.6
101031.73
101042.52
101052.96
101063.04
101072.74
101082.05
101090.95
101099.47
101107.59
101115.34
101122.74
101129.84
101136.67
101143.29
101149.8
101156.3
101162.83
101169.35
101175.66
101181.66
101187.37
101192.79
101197.92
101202.79
101207.39
101211.74
101215.86
101219.76
101223.45
101226.95
101230.33
101233.5
101236.63
101239.68
101242.71
101245.52
101248.29
101251.27
101253.94
101256.48
101258.91
101261.22
101263.44
101265.54
101267.55
101269.45
101271.25
101272.97
101274.6
101276.12
101277.56
101278.91
101280.18
101281.35
101282.44
101283.44
101284.34
101285.16
101285.88
101286.51
101287.03
101287.46
101287.77
101287.99
101288.06
100510.09
100523.21
100536.43
100549.79
100563.26
100576.84
100590.53
100604.3
100618.15
100632.08
100646.07
100660.13
100674.24
100688.41
100702.61
100716.82
100731.06
100745.3
100759.52
100773.73
100787.9
100802.03
100816.11
100830.11
100844.04
100857.87
100871.59
100885.18
100898.65
100911.96
100925.09
100938.06
100950.83
100963.39
100975.74
100987.83
100999.67
101011.25
101022.54
101033.53
101044.18
101054.52
101064.49
101074.09
101083.3
101092.12
101100.55
101108.6
101116.27
101123.6
101130.61
101137.35
101143.88
101150.27
101156.64
101163.06
101169.47
101175.73
101181.69
101187.35
101192.72
101197.82
101202.65
101207.22
101211.54
101215.62
101219.49
101223.16
101226.64
101229.99
101233.13
101236.24
101239.28
101242.27
101245.1
101247.82
101250.79
101253.46
101256.01
101258.42
101260.75
101262.96
101265.06
101267.07
101268.97
101270.77
101272.5
101274.12
101275.65
101277.09
101278.44
101279.7
101280.88
101281.97
101282.96
101283.87
101284.69
101285.42
101286.04
101286.57
101287
101287.32
101287.53
101287.59
100523.5
100536.2
100549.01
100561.97
100575.05
100588.25
100601.56
100614.95
100628.43
100641.98
100655.61
100669.31
100683.07
100696.88
100710.73
100724.6
100738.5
100752.4
100766.31
100780.2
100794.05
100807.88
100821.66
100835.38
100849.03
100862.58
100876.04
100889.38
100902.6
100915.66
100928.59
100941.33
100953.89
100966.26
100978.42
100990.33
101002.01
101013.42
101024.56
101035.4
101045.94
101056.14
101066
101075.49
101084.62
101093.36
101101.7
101109.67
101117.26
101124.5
101131.43
101138.08
101144.51
101150.79
101157.04
101163.34
101169.64
101175.83
101181.74
101187.36
101192.69
101197.74
101202.53
101207.06
101211.35
101215.41
101219.24
101222.88
101226.34
101229.67
101232.79
101235.86
101238.87
101241.84
101244.68
101247.36
101250.32
101252.99
101255.53
101257.95
101260.26
101262.47
101264.58
101266.59
101268.49
101270.29
101272.01
101273.64
101275.17
101276.61
101277.96
101279.23
101280.41
101281.5
101282.5
101283.41
101284.23
101284.95
101285.58
101286.11
101286.53
101286.85
101287.06
101287.14
100537.01
100549.29
100561.71
100574.28
100586.96
100599.78
100612.69
100625.72
100638.84
100652.03
100665.3
100678.64
100692.04
100705.49
100718.99
100732.52
100746.08
100759.65
100773.23
100786.79
100800.35
100813.87
100827.35
100840.77
100854.14
100867.41
100880.61
100893.7
100906.66
100919.49
100932.18
100944.71
100957.06
100969.23
100981.18
100992.92
101004.43
101015.67
101026.65
101037.36
101047.75
101057.83
101067.57
101076.96
101085.99
101094.63
101102.89
101110.77
101118.28
101125.45
101132.29
101138.86
101145.19
101151.36
101157.47
101163.65
101169.84
101175.95
101181.82
101187.39
101192.67
101197.68
101202.43
101206.93
101211.18
101215.2
101219.01
101222.62
101226.05
101229.36
101232.47
101235.49
101238.47
101241.42
101244.26
101246.89
101249.83
101252.52
101255.06
101257.47
101259.79
101261.99
101264.1
101266.09
101268.01
101269.81
101271.53
101273.15
101274.69
101276.13
101277.49
101278.75
101279.93
101281.02
101282.02
101282.93
101283.75
101284.48
101285.11
101285.64
101286.07
101286.38
101286.6
101286.67
100538.83
100550.6
100562.49
100574.52
100586.69
100599
100611.42
100623.96
100636.61
100649.36
100662.19
100675.1
100688.08
100701.12
100714.23
100727.37
100740.56
100753.78
100767.02
100780.27
100793.52
100806.76
100819.98
100833.15
100846.29
100859.36
100872.38
100885.29
100898.12
100910.84
100923.44
100935.89
100948.2
100960.33
100972.29
100984.05
100995.59
101006.93
101018
101028.83
101039.38
101049.64
101059.59
101069.21
101078.49
101087.41
101095.96
101104.13
101111.92
101119.35
101126.43
101133.19
101139.67
101145.91
101151.97
101157.96
101164.02
101170.08
101176.1
101181.91
101187.44
101192.68
101197.64
101202.34
101206.81
101211.03
101215.01
101218.79
101222.37
101225.78
101229.05
101232.15
101235.13
101238.09
101241.01
101243.84
101246.45
101249.36
101252.06
101254.58
101257
101259.31
101261.51
101263.62
101265.61
101267.52
101269.33
101271.05
101272.67
101274.2
101275.65
101277
101278.27
101279.45
101280.54
101281.55
101282.46
101283.28
101284
101284.64
101285.16
101285.59
101285.91
101286.13
101286.2
100552.9
100564.28
100575.77
100587.41
100599.21
100611.13
100623.17
100635.33
100647.6
100659.98
100672.45
100685
100697.63
100710.32
100723.07
100735.87
100748.72
100761.6
100774.51
100787.44
100800.37
100813.29
100826.2
100839.08
100851.92
100864.72
100877.45
100890.09
100902.66
100915.13
100927.48
100939.69
100951.77
100963.7
100975.44
100987
100998.36
101009.51
101020.42
101031.07
101041.47
101051.59
101061.4
101070.9
101080.07
101088.89
101097.34
101105.42
101113.12
101120.46
101127.46
101134.13
101140.53
101146.67
101152.64
101158.5
101164.42
101170.37
101176.29
101182.04
101187.52
101192.7
101197.63
101202.29
101206.7
101210.89
101214.84
101218.59
101222.14
101225.51
101228.75
101231.83
101234.79
101237.71
101240.59
101243.42
101246.01
101248.87
101251.59
101254.11
101256.52
101258.83
101261.03
101263.13
101265.13
101267.03
101268.84
101270.56
101272.18
101273.71
101275.16
101276.52
101277.78
101278.97
101280.06
101281.06
101281.98
101282.8
101283.53
101284.16
101284.69
101285.12
101285.43
101285.65
101285.72
100567.03
100578.01
100589.12
100600.38
100611.79
100623.33
100635.01
100646.79
100658.69
100670.7
100682.8
100694.99
100707.27
100719.61
100732.02
100744.47
100756.98
100769.53
100782.11
100794.72
100807.32
100819.94
100832.54
100845.12
100857.67
100870.17
100882.62
100895.01
100907.3
100919.51
100931.62
100943.6
100955.44
100967.15
100978.69
100990.05
101001.21
101012.17
101022.9
101033.4
101043.63
101053.61
101063.28
101072.65
101081.7
101090.41
101098.76
101106.74
101114.36
101121.61
101128.53
101135.12
101141.42
101147.48
101153.35
101159.09
101164.86
101170.7
101176.51
101182.19
101187.62
101192.76
101197.63
101202.25
101206.63
101210.77
101214.68
101218.39
101221.92
101225.26
101228.46
101231.52
101234.44
101237.34
101240.2
101243.01
101245.58
101248.39
101251.14
101253.65
101256.05
101258.35
101260.55
101262.64
101264.65
101266.54
101268.35
101270.07
101271.69
101273.23
101274.67
101276.03
101277.29
101278.48
101279.58
101280.58
101281.49
101282.31
101283.04
101283.68
101284.21
101284.63
101284.95
101285.17
101285.24
100581.18
100591.78
100602.52
100613.4
100624.43
100635.6
100646.9
100658.32
100669.85
100681.49
100693.23
100705.07
100716.99
100729
100741.06
100753.18
100765.36
100777.56
100789.82
100802.09
100814.39
100826.69
100838.97
100851.25
100863.51
100875.73
100887.9
100900.01
100912.05
100924
100935.86
100947.59
100959.21
100970.7
100982.03
100993.18
101004.14
101014.91
101025.46
101035.78
101045.87
101055.69
101065.22
101074.46
101083.39
101091.98
101100.23
101108.11
101115.64
101122.81
101129.64
101136.14
101142.36
101148.33
101154.09
101159.73
101165.36
101171.09
101176.77
101182.38
101187.74
101192.83
101197.66
101202.23
101206.56
101210.66
101214.54
101218.22
101221.7
101225.02
101228.18
101231.22
101234.11
101236.97
101239.81
101242.59
101245.16
101247.92
101250.67
101253.18
101255.58
101257.87
101260.07
101262.16
101264.16
101266.06
101267.86
101269.58
101271.2
101272.73
101274.18
101275.53
101276.81
101277.99
101279.08
101280.08
101281.01
101281.83
101282.55
101283.19
101283.72
101284.15
101284.47
101284.68
101284.76
100595.33
100605.57
100615.93
100626.45
100637.11
100647.92
100658.85
100669.91
100681.08
100692.37
100703.74
100715.23
100726.8
100738.45
100750.18
100761.97
100773.8
100785.69
100797.61
100809.57
100821.54
100833.53
100845.52
100857.49
100869.46
100881.39
100893.28
100905.12
100916.89
100928.58
100940.18
100951.68
100963.08
100974.34
100985.44
100996.38
101007.15
101017.72
101028.1
101038.25
101048.17
101057.83
101067.22
101076.33
101085.12
101093.6
101101.74
101109.53
101116.97
101124.04
101130.78
101137.21
101143.34
101149.21
101154.89
101160.41
101165.91
101171.51
101177.08
101182.58
101187.89
101192.93
101197.71
101202.24
101206.52
101210.58
101214.42
101218.05
101221.51
101224.8
101227.93
101230.93
101233.79
101236.62
101239.43
101242.2
101244.77
101247.45
101250.21
101252.71
101255.11
101257.4
101259.58
101261.68
101263.67
101265.57
101267.37
101269.09
101270.71
101272.24
101273.69
101275.04
101276.32
101277.5
101278.59
101279.6
101280.51
101281.34
101282.07
101282.69
101283.23
101283.66
101283.97
101284.19
101284.27
100609.46
100619.35
100629.35
100639.5
100649.81
100660.25
100670.83
100681.53
100692.35
100703.28
100714.31
100725.45
100736.67
100747.98
100759.37
100770.82
100782.33
100793.88
100805.49
100817.12
100828.78
100840.46
100852.14
100863.82
100875.5
100887.13
100898.75
100910.31
100921.81
100933.25
100944.6
100955.87
100967.02
100978.05
100988.94
100999.66
101010.23
101020.62
101030.81
101040.78
101050.53
101060.04
101069.28
101078.25
101086.92
101095.28
101103.3
101110.99
101118.33
101125.31
101131.97
101138.31
101144.35
101150.13
101155.72
101161.14
101166.51
101171.97
101177.44
101182.82
101188.07
101193.05
101197.78
101202.26
101206.5
101210.51
101214.31
101217.92
101221.33
101224.58
101227.67
101230.65
101233.49
101236.28
101239.05
101241.8
101244.37
101246.99
101249.76
101252.25
101254.64
101256.92
101259.11
101261.19
101263.18
101265.08
101266.88
101268.59
101270.21
101271.74
101273.19
101274.54
101275.82
101277
101278.09
101279.1
101280.01
101280.84
101281.57
101282.2
101282.73
101283.17
101283.49
101283.7
101283.78
100623.56
100633.09
100642.74
100652.56
100662.51
100672.6
100682.82
100693.18
100703.65
100714.23
100724.92
100735.71
100746.59
100757.56
100768.6
100779.73
100790.92
100802.15
100813.43
100824.74
100836.1
100847.47
100858.84
100870.23
100881.61
100892.97
100904.29
100915.59
100926.82
100938.01
100949.11
100960.13
100971.04
100981.84
100992.5
101003.02
101013.38
101023.57
101033.57
101043.37
101052.95
101062.3
101071.39
101080.22
101088.76
101096.99
101104.91
101112.49
101119.73
101126.63
101133.19
101139.44
101145.4
101151.1
101156.59
101161.91
101167.15
101172.47
101177.83
101183.11
101188.28
101193.21
101197.88
101202.31
101206.49
101210.46
101214.22
101217.79
101221.16
101224.37
101227.44
101230.39
101233.19
101235.95
101238.68
101241.41
101243.98
101246.54
101249.3
101251.79
101254.18
101256.45
101258.63
101260.71
101262.7
101264.58
101266.38
101268.09
101269.72
101271.25
101272.69
101274.05
101275.32
101276.5
101277.6
101278.6
101279.51
101280.33
101281.07
101281.7
101282.24
101282.67
101282.98
101283.2
101283.28
100637.59
100646.78
100656.1
100665.58
100675.18
100684.93
100694.82
100704.83
100714.96
100725.2
100735.55
100746.01
100756.55
100767.19
100777.9
100788.69
100799.56
100810.48
100821.44
100832.44
100843.48
100854.54
100865.62
100876.71
100887.8
100898.87
100909.91
100920.94
100931.92
100942.84
100953.69
100964.46
100975.14
100985.7
100996.14
101006.45
101016.61
101026.6
101036.41
101046.02
101055.44
101064.62
101073.56
101082.24
101090.65
101098.76
101106.56
101114.03
101121.18
101127.97
101134.45
101140.61
101146.49
101152.1
101157.5
101162.72
101167.85
101173.01
101178.28
101183.44
101188.51
101193.38
101198
101202.37
101206.51
101210.43
101214.15
101217.67
101221.01
101224.19
101227.22
101230.13
101232.92
101235.63
101238.33
101241.02
101243.59
101246.09
101248.84
101251.33
101253.71
101255.98
101258.15
101260.22
101262.2
101264.09
101265.89
101267.6
101269.22
101270.75
101272.19
101273.54
101274.81
101276
101277.09
101278.09
101279.01
101279.84
101280.57
101281.2
101281.73
101282.16
101282.48
101282.7
101282.77
100651.54
100660.4
100669.4
100678.54
100687.82
100697.24
100706.79
100716.47
100726.27
100736.17
100746.2
100756.32
100766.54
100776.85
100787.23
100797.7
100808.24
100818.84
100829.49
100840.18
100850.92
100861.68
100872.46
100883.25
100894.05
100904.84
100915.62
100926.37
100937.08
100947.74
100958.34
100968.87
100979.3
100989.63
100999.85
101009.94
101019.89
101029.69
101039.3
101048.74
101057.97
101066.99
101075.78
101084.31
101092.58
101100.56
101108.24
101115.61
101122.65
101129.36
101135.74
101141.82
101147.61
101153.14
101158.44
101163.57
101168.59
101173.6
101178.74
101183.81
101188.77
101193.58
101198.14
101202.46
101206.55
101210.42
101214.09
101217.58
101220.87
101224.01
101227
101229.88
101232.64
101235.31
101237.97
101240.64
101243.21
101245.66
101248.38
101250.88
101253.25
101255.51
101257.67
101259.74
101261.72
101263.61
101265.4
101267.1
101268.72
101270.24
101271.68
101273.03
101274.31
101275.49
101276.58
101277.58
101278.51
101279.33
101280.06
101280.69
101281.22
101281.65
101281.98
101282.19
101282.27
100665.37
100673.93
100682.61
100691.44
100700.4
100709.5
100718.73
100728.08
100737.55
100747.13
100756.84
100766.63
100776.53
100786.51
100796.58
100806.73
100816.94
100827.23
100837.57
100847.97
100858.39
100868.86
100879.34
100889.85
100900.37
100910.88
100921.38
100931.85
100942.3
100952.7
100963.05
100973.32
100983.52
100993.62
101003.62
101013.49
101023.23
101032.83
101042.26
101051.5
101060.56
101069.42
101078.04
101086.43
101094.56
101102.41
101109.98
101117.23
101124.16
101130.78
101137.07
101143.05
101148.75
101154.2
101159.42
101164.46
101169.37
101174.25
101179.25
101184.22
101189.07
101193.8
101198.31
101202.57
101206.6
101210.43
101214.06
101217.49
101220.75
101223.85
101226.81
101229.64
101232.37
101235.01
101237.64
101240.26
101242.82
101245.23
101247.93
101250.42
101252.78
101255.04
101257.19
101259.25
101261.23
101263.11
101264.9
101266.6
101268.21
101269.74
101271.18
101272.53
101273.8
101274.98
101276.07
101277.07
101277.99
101278.82
101279.55
101280.18
101280.71
101281.15
101281.46
101281.68
101281.76
100679.08
100687.35
100695.73
100704.24
100712.9
100721.68
100730.6
100739.64
100748.8
100758.06
100767.44
100776.93
100786.51
100796.18
100805.93
100815.77
100825.68
100835.66
100845.68
100855.77
100865.9
100876.07
100886.27
100896.5
100906.72
100916.95
100927.18
100937.39
100947.57
100957.71
100967.81
100977.84
100987.8
100997.67
101007.44
101017.1
101026.63
101036.02
101045.25
101054.32
101063.2
101071.88
101080.35
101088.59
101096.57
101104.3
101111.73
101118.88
101125.71
101132.22
101138.43
101144.32
101149.94
101155.3
101160.43
101165.38
101170.2
101174.95
101179.79
101184.68
101189.41
101194.06
101198.5
101202.7
101206.68
101210.46
101214.04
101217.42
101220.64
101223.7
101226.62
101229.42
101232.12
101234.71
101237.3
101239.89
101242.43
101244.82
101247.46
101249.97
101252.32
101254.56
101256.71
101258.78
101260.74
101262.62
101264.4
101266.09
101267.7
101269.23
101270.67
101272.01
101273.29
101274.46
101275.56
101276.56
101277.48
101278.3
101279.03
101279.66
101280.2
101280.63
101280.94
101281.16
101281.24
100692.64
100700.63
100708.72
100716.94
100725.3
100733.78
100742.4
100751.14
100759.98
100768.95
100778.01
100787.19
100796.46
100805.82
100815.27
100824.81
100834.41
100844.09
100853.82
100863.61
100873.44
100883.32
100893.23
100903.17
100913.12
100923.07
100933.03
100942.97
100952.89
100962.77
100972.62
100982.41
100992.13
101001.77
101011.31
101020.76
101030.08
101039.26
101048.3
101057.18
101065.89
101074.4
101082.7
101090.79
101098.63
101106.22
101113.53
101120.56
101127.29
101133.7
101139.81
101145.62
101151.15
101156.43
101161.47
101166.33
101171.05
101175.68
101180.37
101185.16
101189.8
101194.34
101198.71
101202.86
101206.78
101210.5
101214.03
101217.37
101220.55
101223.57
101226.45
101229.2
101231.87
101234.42
101236.98
101239.54
101242.06
101244.41
101247.02
101249.53
101251.86
101254.1
101256.24
101258.29
101260.25
101262.12
101263.9
101265.59
101267.2
101268.72
101270.15
101271.5
101272.77
101273.95
101275.04
101276.05
101276.96
101277.78
101278.51
101279.14
101279.68
101280.11
101280.42
101280.65
101280.72
100706.04
100713.75
100721.56
100729.51
100737.58
100745.78
100754.1
100762.54
100771.09
100779.76
100788.54
100797.41
100806.37
100815.44
100824.6
100833.82
100843.13
100852.5
100861.95
100871.45
100880.99
100890.58
100900.21
100909.86
100919.53
100929.22
100938.9
100948.58
100958.24
100967.87
100977.47
100987.01
100996.49
101005.9
101015.23
101024.45
101033.56
101042.55
101051.4
101060.08
101068.61
101076.95
101085.09
101093.02
101100.72
101108.17
101115.36
101122.28
101128.9
101135.21
101141.23
101146.95
101152.4
101157.58
101162.54
101167.31
101171.93
101176.46
101181
101185.68
101190.22
101194.66
101198.94
101203.03
101206.9
101210.56
101214.05
101217.34
101220.47
101223.44
101226.29
101229.01
101231.64
101234.17
101236.67
101239.18
101241.69
101244.02
101246.56
101249.08
101251.41
101253.63
101255.77
101257.81
101259.76
101261.62
101263.4
101265.09
101266.7
101268.21
101269.64
101270.99
101272.25
101273.43
101274.52
101275.52
101276.43
101277.25
101277.98
101278.62
101279.15
101279.58
101279.91
101280.12
101280.2
100719.24
100726.7
100734.24
100741.92
100749.73
100757.65
100765.68
100773.85
100782.11
100790.49
100798.97
100807.55
100816.23
100825.01
100833.86
100842.81
100851.83
100860.91
100870.06
100879.27
100888.54
100897.84
100907.18
100916.57
100925.97
100935.38
100944.79
100954.22
100963.62
100973
100982.35
100991.65
101000.9
101010.08
101019.18
101028.19
101037.09
101045.87
101054.52
101063.03
101071.37
101079.54
101087.52
101095.29
101102.85
101110.17
101117.23
101124.02
101130.54
101136.75
101142.67
101148.3
101153.66
101158.76
101163.64
101168.32
101172.85
101177.27
101181.67
101186.21
101190.69
101195
101199.21
101203.24
101207.05
101210.65
101214.07
101217.33
101220.41
101223.34
101226.13
101228.82
101231.41
101233.91
101236.37
101238.84
101241.32
101243.65
101246.12
101248.64
101250.95
101253.17
101255.3
101257.33
101259.28
101261.13
101262.9
101264.58
101266.18
101267.7
101269.12
101270.47
101271.72
101272.91
101274
101275
101275.91
101276.73
101277.45
101278.09
101278.62
101279.05
101279.38
101279.59
101279.67
100732.24
100739.44
100746.74
100754.17
100761.71
100769.37
100777.14
100785.02
100793.02
100801.11
100809.32
100817.62
100826.02
100834.51
100843.08
100851.74
100860.47
100869.28
100878.14
100887.08
100896.06
100905.09
100914.16
100923.27
100932.4
100941.55
100950.7
100959.86
100969.01
100978.15
100987.26
100996.32
101005.34
101014.29
101023.16
101031.95
101040.64
101049.22
101057.68
101066
101074.17
101082.16
101089.98
101097.59
101105.01
101112.18
101119.12
101125.79
101132.2
101138.3
101144.13
101149.68
101154.95
101159.97
101164.76
101169.36
101173.79
101178.12
101182.4
101186.77
101191.19
101195.38
101199.5
101203.45
101207.2
101210.76
101214.13
101217.33
101220.36
101223.25
101226
101228.64
101231.19
101233.67
101236.07
101238.51
101240.96
101243.28
101245.68
101248.2
101250.5
101252.71
101254.82
101256.85
101258.78
101260.63
101262.4
101264.08
101265.67
101267.18
101268.61
101269.95
101271.2
101272.38
101273.47
101274.46
101275.38
101276.2
101276.92
101277.56
101278.09
101278.52
101278.84
101279.06
101279.14
100745.01
100751.98
100759.05
100766.23
100773.52
100780.92
100788.44
100796.07
100803.79
100811.62
100819.56
100827.59
100835.71
100843.92
100852.22
100860.61
100869.06
100877.59
100886.19
100894.85
100903.55
100912.32
100921.12
100929.96
100938.83
100947.72
100956.62
100965.53
100974.42
100983.31
100992.17
101001
101009.78
101018.51
101027.17
101035.74
101044.23
101052.61
101060.87
101069.01
101076.99
101084.81
101092.46
101099.93
101107.18
101114.23
101121.04
101127.6
101133.88
101139.89
101145.62
101151.08
101156.26
101161.19
101165.91
101170.42
101174.76
101179
101183.16
101187.38
101191.7
101195.8
101199.82
101203.7
101207.39
101210.88
101214.19
101217.33
101220.33
101223.17
101225.88
101228.48
101230.99
101233.42
101235.8
101238.19
101240.61
101242.92
101245.25
101247.76
101250.05
101252.24
101254.35
101256.37
101258.3
101260.14
101261.89
101263.57
101265.16
101266.66
101268.08
101269.42
101270.68
101271.85
101272.94
101273.93
101274.85
101275.66
101276.39
101277.02
101277.55
101277.99
101278.3
101278.52
101278.6
100757.52
100764.29
100771.13
100778.08
100785.14
100792.31
100799.57
100806.94
100814.42
100822
100829.67
100837.44
100845.29
100853.25
100861.28
100869.39
100877.58
100885.85
100894.18
100902.57
100911.01
100919.51
100928.05
100936.63
100945.24
100953.87
100962.52
100971.18
100979.83
100988.48
100997.1
101005.7
101014.25
101022.75
101031.19
101039.56
101047.83
101056.02
101064.08
101072.03
101079.84
101087.48
101094.97
101102.28
101109.4
101116.3
101122.97
101129.41
101135.58
101141.49
101147.14
101152.49
101157.6
101162.45
101167.08
101171.5
101175.77
101179.9
101183.96
101188.03
101192.22
101196.29
101200.17
101203.96
101207.58
101211.02
101214.28
101217.37
101220.31
101223.1
101225.77
101228.33
101230.79
101233.19
101235.52
101237.88
101240.27
101242.57
101244.84
101247.33
101249.6
101251.79
101253.88
101255.89
101257.81
101259.64
101261.39
101263.06
101264.64
101266.15
101267.56
101268.9
101270.15
101271.32
101272.4
101273.4
101274.31
101275.12
101275.85
101276.48
101277.01
101277.45
101277.76
101277.98
101278.06
100769.78
100776.35
100782.98
100789.71
100796.55
100803.48
100810.52
100817.65
100824.89
100832.22
100839.64
100847.16
100854.76
100862.46
100870.23
100878.09
100886.02
100894.01
100902.09
100910.22
100918.41
100926.65
100934.94
100943.27
100951.62
100960
100968.41
100976.82
100985.23
100993.64
101002.03
101010.4
101018.72
101027.01
101035.23
101043.38
101051.46
101059.44
101067.31
101075.07
101082.7
101090.18
101097.5
101104.66
101111.62
101118.38
101124.93
101131.24
101137.31
101143.12
101148.66
101153.93
101158.95
101163.72
101168.26
101172.6
101176.78
101180.83
101184.79
101188.72
101192.77
101196.8
101200.54
101204.26
101207.81
101211.18
101214.38
101217.41
101220.31
101223.05
101225.67
101228.19
101230.61
101232.97
101235.27
101237.58
101239.92
101242.21
101244.43
101246.89
101249.17
101251.34
101253.41
101255.41
101257.32
101259.15
101260.89
101262.55
101264.13
101265.62
101267.04
101268.37
101269.62
101270.78
101271.86
101272.86
101273.77
101274.58
101275.31
101275.94
101276.47
101276.9
101277.22
101277.43
101277.51
100781.76
100788.13
100794.56
100801.1
100807.72
100814.44
100821.25
100828.16
100835.16
100842.26
100849.44
100856.72
100864.08
100871.53
100879.06
100886.66
100894.34
100902.1
100909.92
100917.8
100925.74
100933.73
100941.77
100949.85
100957.96
100966.1
100974.26
100982.43
100990.61
100998.79
101006.95
101015.09
101023.19
101031.25
101039.26
101047.21
101055.08
101062.86
101070.56
101078.12
101085.58
101092.89
101100.05
101107.04
101113.87
101120.49
101126.91
101133.1
101139.05
101144.76
101150.2
101155.39
101160.32
101165
101169.46
101173.73
101177.82
101181.78
101185.64
101189.46
101193.34
101197.3
101200.97
101204.58
101208.05
101211.36
101214.5
101217.48
101220.31
101223.01
101225.59
101228.06
101230.45
101232.76
101235.03
101237.28
101239.58
101241.86
101244.03
101246.46
101248.73
101250.88
101252.94
101254.93
101256.84
101258.65
101260.39
101262.04
101263.61
101265.1
101266.51
101267.84
101269.08
101270.25
101271.33
101272.32
101273.23
101274.04
101274.76
101275.39
101275.92
101276.35
101276.67
101276.88
101276.96
100793.44
100799.63
100805.88
100812.22
100818.65
100825.17
100831.77
100838.46
100845.24
100852.11
100859.07
100866.12
100873.25
100880.46
100887.75
100895.12
100902.56
100910.07
100917.65
100925.29
100932.99
100940.74
100948.54
100956.37
100964.25
100972.15
100980.08
100988.02
100995.96
101003.91
101011.84
101019.76
101027.65
101035.5
101043.3
101051.04
101058.71
101066.3
101073.8
101081.19
101088.47
101095.61
101102.61
101109.45
101116.12
101122.61
101128.9
101134.97
101140.81
101146.42
101151.77
101156.86
101161.7
101166.3
101170.69
101174.87
101178.87
101182.74
101186.52
101190.23
101193.95
101197.81
101201.45
101204.91
101208.31
101211.57
101214.64
101217.56
101220.34
101222.98
101225.51
101227.94
101230.28
101232.57
101234.79
101236.99
101239.25
101241.5
101243.65
101246.02
101248.29
101250.43
101252.49
101254.46
101256.35
101258.15
101259.88
101261.53
101263.1
101264.58
101265.98
101267.31
101268.55
101269.71
101270.79
101271.78
101272.67
101273.49
101274.21
101274.84
101275.37
101275.8
101276.11
101276.33
101276.41
100804.79
100810.84
100816.92
100823.07
100829.31
100835.63
100842.04
100848.54
100855.11
100861.77
100868.51
100875.34
100882.24
100889.23
100896.29
100903.44
100910.64
100917.93
100925.27
100932.67
100940.14
100947.65
100955.23
100962.83
100970.47
100978.14
100985.84
100993.55
101001.27
101009
101016.71
101024.41
101032.08
101039.73
101047.32
101054.86
101062.34
101069.74
101077.04
101084.26
101091.36
101098.33
101105.17
101111.87
101118.39
101124.73
101130.9
101136.86
101142.58
101148.08
101153.33
101158.34
101163.09
101167.62
101171.92
101176.02
101179.95
101183.73
101187.41
101191.02
101194.62
101198.32
101201.96
101205.29
101208.6
101211.77
101214.79
101217.66
101220.38
101222.97
101225.46
101227.84
101230.14
101232.37
101234.56
101236.71
101238.93
101241.15
101243.27
101245.59
101247.86
101249.99
101252.03
101253.98
101255.87
101257.66
101259.38
101261.02
101262.57
101264.06
101265.46
101266.78
101268.02
101269.16
101270.23
101271.22
101272.13
101272.94
101273.66
101274.29
101274.81
101275.24
101275.56
101275.77
101275.85
100815.82
100821.71
100827.63
100833.63
100839.7
100845.84
100852.06
100858.36
100864.74
100871.2
100877.74
100884.36
100891.05
100897.82
100904.67
100911.59
100918.58
100925.64
100932.77
100939.94
100947.18
100954.47
100961.81
100969.19
100976.62
100984.06
100991.54
100999.03
101006.53
101014.04
101021.54
101029.03
101036.5
101043.93
101051.32
101058.67
101065.95
101073.16
101080.29
101087.32
101094.25
101101.07
101107.74
101114.28
101120.67
101126.88
101132.9
101138.74
101144.36
101149.76
101154.92
101159.83
101164.5
101168.94
101173.17
101177.19
101181.03
101184.74
101188.33
101191.84
101195.32
101198.86
101202.46
101205.7
101208.92
101212.01
101214.96
101217.77
101220.43
101222.98
101225.41
101227.74
101230
101232.19
101234.34
101236.45
101238.62
101240.81
101242.9
101245.16
101247.44
101249.54
101251.56
101253.51
101255.38
101257.17
101258.88
101260.51
101262.06
101263.53
101264.92
101266.23
101267.47
101268.62
101269.69
101270.67
101271.57
101272.38
101273.1
101273.73
101274.26
101274.68
101275
101275.21
101275.29
100826.5
100832.25
100838.04
100843.88
100849.78
100855.76
100861.81
100867.93
100874.12
100880.4
100886.74
100893.16
100899.66
100906.23
100912.87
100919.58
100926.36
100933.2
100940.11
100947.09
100954.11
100961.19
100968.31
100975.48
100982.68
100989.91
100997.17
101004.44
101011.74
101019.03
101026.32
101033.61
101040.87
101048.11
101055.31
101062.45
101069.55
101076.58
101083.52
101090.38
101097.14
101103.79
101110.31
101116.7
101122.94
101129.02
101134.92
101140.64
101146.15
101151.44
101156.5
101161.33
101165.92
101170.28
101174.42
101178.36
101182.14
101185.76
101189.27
101192.68
101196.05
101199.44
101202.94
101206.17
101209.24
101212.26
101215.15
101217.9
101220.51
101222.99
101225.38
101227.67
101229.88
101232.02
101234.12
101236.19
101238.31
101240.48
101242.56
101244.74
101247.01
101249.1
101251.1
101253.04
101254.89
101256.67
101258.37
101259.99