/*--------------------------------*- C++ -*----------------------------------*\
| =========                 |                                                 |
| \\      /  F ield         | OpenFOAM: The Open Source CFD Toolbox           |
|  \\    /   O peration     | Version:  2406                                  |
|   \\  /    A nd           | Website:  www.openfoam.com                      |
|    \\/     M anipulation  |                                                 |
\*---------------------------------------------------------------------------*/
FoamFile
{
    version     2.0;
    format      ascii;
    arch        "LSB;label=32;scalar=64";
    class       volScalarField;
    location    "0.038";
    object      alphat;
}
// * * * * * * * * * * * * * * * * * * * * * * * * * * * * * * * * * * * * * //

dimensions      [1 -1 -1 0 0 0 0];

internalField   nonuniform List<scalar> 
92813
(
0.039238086
0.042365292
0.045611638
0.048900659
0.052199858
0.055488461
0.058748844
0.061966891
0.065130877
0.068230737
0.071257428
0.07420233
0.077056636
0.079810871
0.082454376
0.084976455
0.087368587
0.089614262
0.091698472
0.093606947
0.095324967
0.096837969
0.098131033
0.099188728
0.099995103
0.1005338
0.10078814
0.10074116
0.10037585
0.099675264
0.098622868
0.097202836
0.095400506
0.093202925
0.090599505
0.087582791
0.084149777
0.080302361
0.076048697
0.071404793
0.066402941
0.061084017
0.055500379
0.04972557
0.043850286
0.037981831
0.032294389
0.026990509
0.022325451
0.018554209
0.015824206
0.014019964
0.012853768
0.012054438
0.011447346
0.010943818
0.010502598
0.010105135
0.0097420821
0.0094087922
0.0091028214
0.0088207416
0.0085607694
0.008320696
0.0080983083
0.0078910636
0.0076974438
0.0075169939
0.0073474543
0.0071889016
0.0070406268
0.0069004963
0.0067694659
0.0066475226
0.0065334234
0.0064283864
0.0063318707
0.0062418255
0.0061586506
0.0060811732
0.0060084999
0.0059412012
0.0058777526
0.005818398
0.005762871
0.0057097527
0.005659755
0.0056126893
0.005568035
0.0055266403
0.0054880204
0.0054519055
0.0054183482
0.0053870488
0.0053579498
0.005330698
0.0053048033
0.0052801025
0.005256735
0.0052344237
0.0052133191
0.0051935038
0.0051746963
0.0051568611
0.0051400547
0.005124121
0.0051091514
0.0050951219
0.0050817984
0.0050693184
0.0050579766
0.00504768
0.0050381228
0.0050290269
0.0050203493
0.0050122641
0.0050048012
0.0049980537
0.0049920038
0.00498657
0.0049817696
0.0049775963
0.0049741115
0.0049711486
0.0049691129
0.0049671592
0.0049669684
0.044048916
0.047210393
0.050368012
0.053525409
0.056676212
0.059808685
0.062909995
0.065968442
0.068973473
0.071915348
0.074784838
0.077572867
0.080270077
0.082866473
0.085351354
0.087713655
0.089941821
0.092021519
0.093938175
0.095676938
0.097222776
0.098560726
0.099676015
0.10055309
0.10117597
0.10152828
0.10159339
0.10135448
0.10079472
0.099897475
0.098646639
0.09702696
0.09502452
0.092627316
0.089825955
0.086614478
0.082991599
0.078961888
0.074535855
0.069730631
0.064583603
0.059141461
0.053459437
0.047617353
0.041714835
0.035879199
0.030287932
0.025166233
0.020785381
0.017387546
0.015030627
0.013513182
0.012525471
0.011823005
0.011267839
0.010794043
0.010371997
0.0099888579
0.0096375143
0.0093143999
0.0090176347
0.0087436296
0.0084908568
0.0082570965
0.0080401196
0.007837434
0.0076477621
0.0074709079
0.0073045141
0.0071489701
0.0070035637
0.0068664182
0.0067384528
0.0066193646
0.0065079868
0.006405527
0.0063113619
0.0062234872
0.0061422638
0.0060665602
0.0059953224
0.0059293094
0.005866998
0.0058085891
0.0057538141
0.0057013013
0.0056518822
0.0056053446
0.005561208
0.0055203634
0.005482265
0.0054466547
0.0054135981
0.0053827232
0.005354014
0.0053270949
0.0053014499
0.0052769954
0.0052538383
0.0052317145
0.0052108091
0.0051911868
0.005172566
0.0051549128
0.0051382735
0.0051224912
0.0051076559
0.0050937472
0.0050805304
0.0050681363
0.0050568695
0.0050466407
0.0050371536
0.0050281351
0.0050195284
0.0050115039
0.0050040903
0.004997382
0.0049913669
0.0049859649
0.0049811908
0.0049770415
0.0049735768
0.0049706309
0.0049686052
0.0049666617
0.0049664745
0.04901083
0.052085201
0.055130141
0.05815505
0.061160589
0.064139568
0.067082556
0.069980126
0.072823042
0.075602194
0.078308525
0.080932868
0.083465693
0.085896842
0.088215432
0.090409769
0.092467312
0.09437424
0.096116107
0.097677974
0.099044782
0.10020154
0.10113297
0.10182347
0.10225705
0.10241741
0.10228803
0.10185224
0.10109347
0.099995462
0.098542597
0.096720281
0.094515448
0.09191717
0.088917413
0.08551192
0.081701434
0.077493226
0.072899667
0.067942392
0.062663833
0.057114394
0.05135548
0.045474928
0.039582705
0.033822396
0.028385907
0.023517653
0.019489941
0.01649189
0.014478584
0.013186112
0.012319262
0.011676794
0.01115284
0.010697643
0.010288509
0.0099155573
0.0095727065
0.0092569561
0.0089667185
0.0086982859
0.0084503635
0.0082207505
0.0080072565
0.0078074881
0.007620372
0.0074458504
0.007281509
0.0071279292
0.0069843506
0.0068487334
0.0067222217
0.0066046212
0.0064946499
0.0063935576
0.0063007717
0.0062141097
0.0061340357
0.006059319
0.0059888858
0.0059235427
0.0058617761
0.0058037567
0.0057492819
0.0056969758
0.0056477472
0.0056014016
0.0055574634
0.0055168624
0.0054790191
0.0054436646
0.0054108874
0.0053802264
0.0053517083
0.0053249575
0.0052994225
0.0052750889
0.0052520236
0.0052299794
0.005209172
0.0051896515
0.0051711399
0.0051535971
0.0051370584
0.0051213672
0.0051066069
0.005092767
0.0050796116
0.005067253
0.0050560112
0.0050458095
0.0050363631
0.0050274001
0.0050188428
0.0050108573
0.0050034718
0.0049967829
0.0049907857
0.0049854009
0.0049806408
0.0049765046
0.0049730514
0.0049701154
0.0049680963
0.004966156
0.0049659716
0.054103517
0.057035075
0.059936589
0.062812919
0.06566429
0.068484394
0.071264996
0.073997752
0.076674207
0.079285705
0.081823361
0.08427798
0.086639902
0.088898819
0.091043646
0.093062438
0.094942353
0.096669619
0.098229794
0.099607908
0.1007888
0.10175731
0.10249797
0.10299514
0.10323284
0.10319487
0.10286483
0.10222629
0.10126301
0.099959173
0.098299747
0.09627091
0.093860578
0.09105906
0.087859863
0.084260642
0.080264467
0.07588161
0.071125865
0.066025884
0.060629182
0.054988396
0.049173689
0.043281517
0.037432949
0.031786947
0.026551976
0.021984771
0.018338584
0.015725732
0.014009025
0.012896493
0.01212399
0.011529398
0.011031775
0.01059324
0.010196137
0.0098329609
0.0094983985
0.0091899549
0.0089063201
0.0086435658
0.0084006653
0.0081754081
0.0079656128
0.0077689712
0.0075846301
0.0074126949
0.0072506431
0.0070993007
0.0069578529
0.0068242153
0.0066997335
0.006584114
0.0064760486
0.0063768411
0.0062858152
0.0062007794
0.0061221823
0.0060487842
0.0059793555
0.005914888
0.0058538749
0.0057964289
0.0057424263
0.0056904941
0.0056416305
0.0055956428
0.0055520707
0.0055118815
0.0054744407
0.00543947
0.0054071006
0.0053767623
0.0053485157
0.0053220108
0.0052966546
0.0052725068
0.0052495944
0.0052276848
0.0052070311
0.005187662
0.0051693024
0.0051519119
0.005135511
0.0051199474
0.0051052947
0.0050915511
0.0050784851
0.0050661908
0.0050549999
0.0050448462
0.0050354556
0.0050265597
0.0050180642
0.0050101305
0.0050027856
0.0049961276
0.0049901578
0.004984798
0.0049800592
0.0049759419
0.0049725047
0.004969583
0.0049675723
0.004965639
0.004965458
0.059290107
0.062052837
0.064789867
0.06750221
0.070188411
0.072841588
0.075453463
0.078015861
0.080520524
0.082958918
0.085322166
0.08760098
0.089785546
0.091865387
0.093829262
0.095665092
0.097359939
0.098900047
0.10027102
0.10145788
0.10244542
0.10321836
0.10376115
0.10405806
0.10409317
0.10385034
0.10331337
0.10246612
0.10129271
0.099777879
0.097907285
0.095667996
0.093049052
0.090042169
0.086642583
0.08285007
0.078670296
0.074116724
0.069205679
0.063972673
0.058470301
0.05275468
0.046905343
0.041027722
0.035254908
0.029761496
0.024772121
0.020547349
0.017301251
0.015055878
0.013599451
0.012637002
0.011942168
0.011387772
0.010913357
0.010490383
0.010105005
0.0097516398
0.0094254963
0.0091245164
0.0088476194
0.0085906012
0.0083527538
0.0081318582
0.0079257536
0.0077322453
0.0075507228
0.0073814353
0.0072217387
0.0070727069
0.0069334485
0.0068017948
0.0066792896
0.0065656104
0.0064593741
0.0063619672
0.0062726033
0.0061890394
0.0061117957
0.0060395887
0.0059710655
0.005907352
0.0058469851
0.0057899989
0.0057363789
0.0056847517
0.0056361896
0.005590511
0.005547262
0.0055074438
0.0054703686
0.00543574
0.0054037443
0.0053736906
0.0053456665
0.0053193686
0.0052941611
0.005270173
0.0052473881
0.0052255898
0.0052050688
0.0051858326
0.0051676093
0.0051503578
0.0051340811
0.0051186338
0.005104076
0.0050904167
0.0050774314
0.0050651904
0.0050540381
0.0050439224
0.0050345806
0.0050257467
0.0050173085
0.0050094221
0.0050021131
0.0049954813
0.0049895351
0.0049841968
0.0049794765
0.0049753755
0.0049719522
0.0049690433
0.00496704
0.004965112
0.0049649343
0.064526578
0.06710313
0.069664592
0.072202847
0.074715009
0.077193559
0.079629917
0.082015729
0.084342616
0.086601931
0.088784666
0.090881368
0.092882047
0.094776064
0.096552043
0.098197818
0.09970042
0.10104613
0.10222062
0.10320895
0.10399591
0.10456617
0.10490414
0.10499407
0.10482005
0.10436608
0.10361618
0.10255454
0.10116577
0.099435208
0.097349315
0.09489618
0.092066123
0.088852438
0.085252296
0.081267815
0.076907549
0.072188308
0.067130071
0.061775062
0.056180795
0.050408443
0.044547278
0.038712297
0.033049901
0.027751115
0.023054688
0.019212604
0.016377331
0.014474716
0.013242004
0.012402547
0.011770878
0.011250021
0.010795977
0.010387425
0.010013266
0.009669495
0.0093516339
0.0090580286
0.0087877999
0.008536403
0.0083035122
0.008086898
0.0078844205
0.0076940101
0.0075153132
0.0073487107
0.0071914071
0.0070447457
0.0069077397
0.0067781396
0.0066577108
0.0065460657
0.0064417467
0.0063462429
0.0062586018
0.0061765627
0.0061007038
0.0060297088
0.005962108
0.0058991542
0.0058394477
0.00578293
0.0057297117
0.0056784226
0.0056302019
0.0055848789
0.0055420041
0.005502608
0.005465944
0.0054316915
0.0054001052
0.0053703638
0.0053425725
0.0053164953
0.0052914531
0.0052676404
0.005244999
0.0052233257
0.0052029522
0.0051838623
0.0051657874
0.0051486883
0.0051325465
0.0051172275
0.0051027739
0.0050892059
0.0050763107
0.0050641318
0.0050530248
0.0050429524
0.0050336632
0.0050248943
0.0050165171
0.0050086822
0.0050014131
0.004994811
0.0049888911
0.0049835765
0.0049788772
0.004974794
0.0049713858
0.0049684911
0.0049664958
0.004964574
0.0049643999
0.069773425
0.072149322
0.074530005
0.076888087
0.07921976
0.081517253
0.083771848
0.085974986
0.08811807
0.090192248
0.092188307
0.094096598
0.095906945
0.097608552
0.099189932
0.10063886
0.10194236
0.10308677
0.10405783
0.10484067
0.1054201
0.10578083
0.10590726
0.10578365
0.1053942
0.10472306
0.10375452
0.10247318
0.1008642
0.098913624
0.096608842
0.093939098
0.090896156
0.087475084
0.08367521
0.079501255
0.074964999
0.070086491
0.064890682
0.059426813
0.053756839
0.047948454
0.042101267
0.036340954
0.030828781
0.025772719
0.021420315
0.0179962
0.015568995
0.013974652
0.012928484
0.012188103
0.01160783
0.011115356
0.010679505
0.010284553
0.0099212859
0.0095870212
0.0092774095
0.0089911863
0.0087276431
0.0084818269
0.008253865
0.0080415163
0.0078426638
0.0076553767
0.0074795746
0.0073157465
0.0071609223
0.0070167323
0.0068820714
0.0067546054
0.0066363241
0.0065267751
0.0064244088
0.0063308433
0.0062449277
0.0061643768
0.0060898526
0.0060200252
0.0059533202
0.0058910828
0.0058319978
0.0057759055
0.005723066
0.0056721114
0.0056242334
0.0055792767
0.00553679
0.0054978273
0.0054615839
0.0054277086
0.0053965296
0.0053670966
0.0053395228
0.0053136532
0.0052887713
0.0052651292
0.0052426276
0.0052210761
0.0052008471
0.0051819014
0.0051639734
0.005147027
0.0051310186
0.0051158281
0.0051014773
0.0050879978
0.0050751928
0.005063075
0.0050520109
0.0050419793
0.0050327413
0.0050240361
0.0050157195
0.0050079357
0.0050007061
0.0049941331
0.0049882391
0.0049829475
0.0049782687
0.0049742029
0.0049708093
0.0049679286
0.0049659412
0.0049640254
0.0049638548
0.074985882
0.077160297
0.079355635
0.08152876
0.083674858
0.085785986
0.087853368
0.089868272
0.091821882
0.093705124
0.095508574
0.097222385
0.098836205
0.1003391
0.10171949
0.1029651
0.10406297
0.10499951
0.10576053
0.10633124
0.10669652
0.10684116
0.10674961
0.10640622
0.10579531
0.10490128
0.10370876
0.10220283
0.10036926
0.098194957
0.09566834
0.092779974
0.089523247
0.085895221
0.081897627
0.077538116
0.072832115
0.067802257
0.062480647
0.056924014
0.051197365
0.045377139
0.039574033
0.033925964
0.028610627
0.023851898
0.019895113
0.016912518
0.014873801
0.013545786
0.012650792
0.011989261
0.011451064
0.010983012
0.010563616
0.010181608
0.0098289595
0.0095041094
0.0092026783
0.0089238009
0.008666914
0.0084265904
0.0082034906
0.0079953621
0.0078001134
0.0076159606
0.00744311
0.0072821289
0.0071298502
0.0069882132
0.0068559691
0.0067306999
0.0066146322
0.0065072387
0.0064068658
0.0063152786
0.0062311052
0.006152034
0.0060788084
0.0060101156
0.0059442975
0.0058827564
0.0058242726
0.0057685862
0.0057161246
0.0056655232
0.0056180114
0.0055734527
0.0055313882
0.0054928886
0.0054570923
0.0054236116
0.0053928485
0.0053637331
0.0053363769
0.005310713
0.0052859969
0.0052625297
0.0052401742
0.0052187501
0.0051986705
0.0051798746
0.0051620987
0.0051453114
0.0051294407
0.0051143844
0.0051001406
0.0050867519
0.0050740415
0.0050619889
0.0050509703
0.0050409808
0.0050317951
0.0050231544
0.0050149001
0.0050071694
0.0049999812
0.0049934388
0.0049875719
0.004982304
0.0049776469
0.0049735991
0.0049702205
0.0049673545
0.004965375
0.0049634656
0.0049632987
0.080123218
0.082102114
0.084108383
0.086092797
0.088049304
0.089969732
0.091845256
0.093667008
0.095425988
0.097112929
0.098718225
0.10023186
0.10164332
0.10294157
0.10411494
0.10515115
0.10603726
0.10675972
0.10730448
0.10765681
0.10780171
0.10772409
0.10740851
0.10683947
0.10600151
0.10487932
0.10345796
0.10172307
0.099661182
0.097260129
0.094509545
0.09140148
0.087931156
0.084097862
0.079906015
0.075366556
0.070499124
0.065328038
0.059895319
0.054265248
0.048504332
0.042701037
0.036977725
0.031486456
0.026422351
0.02202062
0.018505502
0.015969627
0.014283615
0.01317683
0.012401472
0.011802328
0.01129897
0.010852379
0.010448085
0.010078531
0.0097363058
0.0094208079
0.0091274947
0.0088559298
0.0086056708
0.0083707569
0.0081524656
0.0079485311
0.0077568916
0.007575913
0.0074060991
0.0072480581
0.0070984092
0.0069594219
0.006829677
0.0067066772
0.0065928925
0.0064877126
0.0063893678
0.00629978
0.0062173529
0.0061397388
0.0060677582
0.0060001489
0.0059351984
0.0058743301
0.0058164172
0.0057611117
0.0057090234
0.0056587911
0.0056116652
0.0055675322
0.0055259188
0.0054879035
0.0054525731
0.0054194982
0.0053891467
0.0053603495
0.0053332079
0.0053077413
0.0052831909
0.0052598976
0.0052376895
0.0052163951
0.0051964654
0.0051778213
0.0051601995
0.005143574
0.0051278421
0.0051129225
0.0050987871
0.005085489
0.0050728747
0.0050608891
0.0050499163
0.0050399683
0.0050308347
0.0050222583
0.0050140666
0.0050063897
0.0049992437
0.0049927323
0.0049868928
0.0049816486
0.0049770137
0.0049729839
0.0049696203
0.0049667691
0.0049647975
0.0049628946
0.0049627314
0.085149016
0.086935605
0.088751811
0.090545252
0.092309219
0.094035506
0.095715295
0.097339641
0.098899418
0.10038522
0.10178731
0.10309552
0.10429925
0.10538736
0.10634814
0.1071693
0.10783793
0.10834058
0.10866328
0.10879145
0.1087102
0.10840461
0.10785944
0.10705939
0.10598929
0.10463424
0.1029798
0.10101229
0.098719102
0.09608917
0.093113494
0.089785813
0.086103415
0.082068085
0.077687223
0.072975422
0.067956742
0.062658856
0.057133346
0.05145123
0.045683421
0.039931681
0.034330838
0.029049201
0.024298529
0.020314549
0.017273347
0.015166958
0.013785808
0.012856356
0.0121741
0.011624376
0.011150255
0.010722934
0.010332734
0.0099752716
0.0096433351
0.0093371347
0.0090518664
0.0087875632
0.0085438799
0.0083142803
0.0081007414
0.0079009749
0.0077129583
0.007535204
0.0073685198
0.0072135116
0.0070665737
0.0069303258
0.0068031519
0.0066824849
0.0065710437
0.0064681254
0.0063718364
0.0062842521
0.0062035673
0.0061273888
0.0060566022
0.0059900195
0.0059259137
0.0058657038
0.0058083343
0.0057533944
0.0057016832
0.0056518439
0.0056051316
0.005561459
0.0055203312
0.005482825
0.0054479818
0.0054153282
0.0053853826
0.0053569049
0.0053299814
0.0053047063
0.0052803235
0.0052572046
0.0052351475
0.0052139878
0.0051942105
0.0051757219
0.0051582581
0.0051417981
0.0051262078
0.0051114281
0.005097404
0.005084198
0.0050716823
0.0050597668
0.0050488417
0.0050389357
0.0050298547
0.0050213426
0.0050132145
0.0050055926
0.0049984902
0.004992011
0.0049861996
0.0049809797
0.0049763675
0.0049723563
0.0049690078
0.0049661719
0.0049642082
0.0049623122
0.0049621528
0.090024891
0.091621784
0.093247786
0.094848807
0.096418082
0.097947543
0.099428433
0.10085179
0.10220841
0.10348883
0.1046832
0.1057813
0.10677244
0.10764543
0.10838854
0.1089895
0.10943545
0.10971304
0.10980841
0.10970714
0.10939451
0.10885582
0.10807607
0.10704026
0.10573361
0.10414169
0.10225069
0.10004774
0.097521231
0.094661368
0.091460707
0.087914904
0.084023583
0.079791337
0.075228919
0.070355004
0.065197992
0.059790941
0.054195139
0.048487185
0.04274566
0.037086875
0.031659525
0.026649531
0.022280516
0.018768844
0.016211328
0.014495139
0.013365185
0.012573693
0.01196339
0.011453198
0.011003914
0.010594213
0.010217447
0.0098718135
0.0095500762
0.0092531195
0.0089758183
0.0087187131
0.0084815306
0.0082571508
0.0080483201
0.0078527068
0.0076683448
0.007493885
0.0073304388
0.0071785625
0.0070344241
0.0069010036
0.0067764693
0.0066581988
0.0065491599
0.006448545
0.0063543351
0.0062687427
0.0061897828
0.0061150123
0.0060453728
0.0059797526
0.005916457
0.0058568953
0.0058000418
0.0057454587
0.0056941329
0.0056447132
0.005598445
0.005555269
0.0055146615
0.0054776872
0.0054433495
0.0054111307
0.0053815791
0.0053534183
0.0053267174
0.0053016273
0.0052774116
0.0052544658
0.0052325618
0.0052115413
0.0051919185
0.0051735879
0.0051562853
0.0051399928
0.0051245461
0.0051099082
0.0050959974
0.0050828851
0.0050704689
0.0050586259
0.0050477504
0.0050378861
0.0050288576
0.0050204098
0.0050123459
0.0050047797
0.0049977222
0.0049912759
0.0049854931
0.0049802977
0.0049757089
0.0049717164
0.0049683832
0.0049655627
0.004963607
0.0049617181
0.0049615626
0.094710131
0.096119767
0.097555482
0.098963331
0.10033655
0.10166726
0.1029468
0.10416626
0.10531644
0.10638786
0.10737065
0.10825454
0.10902881
0.10968227
0.11020321
0.11057937
0.110798
0.11084585
0.1107092
0.11037383
0.10982522
0.10904895
0.10803032
0.10675474
0.10520789
0.10337594
0.10124585
0.098805669
0.096044991
0.092955459
0.089531416
0.085770696
0.081675563
0.077253795
0.072519964
0.067497427
0.062218031
0.056723261
0.051085039
0.045383394
0.03970833
0.034192096
0.028999078
0.024331805
0.02041376
0.017412233
0.015319765
0.013937855
0.013005995
0.012319479
0.01176514
0.01128719
0.010859237
0.010465813
0.01010218
0.0097681781
0.0094565581
0.0091687811
0.0088993702
0.0086493856
0.0084185963
0.0081993497
0.0079951984
0.0078037314
0.0076230689
0.0074519908
0.007291899
0.0071432537
0.0070020064
0.0068714905
0.0067496529
0.0066338375
0.0065272525
0.0064289712
0.0063368561
0.0062532298
0.0061759615
0.0061025628
0.0060340349
0.0059693119
0.0059067809
0.005847861
0.0057915006
0.005737276
0.0056863513
0.0056373828
0.0055915942
0.0055489542
0.0055089033
0.0054724844
0.005438669
0.005406898
0.0053777269
0.0053498783
0.005323407
0.0052984972
0.0052744478
0.0052516739
0.0052299254
0.0052090499
0.0051895842
0.0051714149
0.0051542771
0.0051381536
0.0051228532
0.0051083582
0.0050945634
0.0050815471
0.0050692313
0.0050574639
0.0050466402
0.0050368178
0.0050278417
0.0050194584
0.0050114594
0.0050039497
0.0049969384
0.004990526
0.0049847725
0.004979602
0.0049750371
0.004971064
0.004967746
0.0049649413
0.0049629937
0.0049611121
0.0049609605
0.099161047
0.10038586
0.1016317
0.10284623
0.1040227
0.1051534
0.10622983
0.10724317
0.1081843
0.10904378
0.10981175
0.11047797
0.11103175
0.11146191
0.11175679
0.1119042
0.1118915
0.11170557
0.11133289
0.11075943
0.10997097
0.1089534
0.10769242
0.10617392
0.10438416
0.10231006
0.09993946
0.097261533
0.094267238
0.090949894
0.087305885
0.083335518
0.079044045
0.074442845
0.069550885
0.064397081
0.059015157
0.05345947
0.047812809
0.042156165
0.036596395
0.03128244
0.026395419
0.022148475
0.018742288
0.016260519
0.014586308
0.013474968
0.012693577
0.012085993
0.011576038
0.011125136
0.010715849
0.010337477
0.0099869673
0.0096644177
0.0093627908
0.0090841172
0.0088225381
0.008579591
0.0083550474
0.0081408714
0.0079413915
0.0077540731
0.0075771672
0.0074095778
0.0072529637
0.0071076464
0.0069693886
0.0068418408
0.0067227453
0.0066094415
0.0065053562
0.0064094267
0.0063194155
0.0062377198
0.0061620939
0.0060900183
0.0060225784
0.005958692
0.0058968691
0.0058385846
0.0057827002
0.0057288472
0.0056783462
0.0056298642
0.0055845946
0.0055425315
0.0055030736
0.0054672329
0.0054339533
0.0054026401
0.0053738348
0.0053462908
0.0053200553
0.0052953224
0.0052714375
0.0052488335
0.0052272422
0.0052065179
0.0051872126
0.0051692072
0.0051522375
0.0051362836
0.0051211318
0.0051067799
0.0050931031
0.0050801859
0.0050679707
0.0050562815
0.0050455121
0.0050357317
0.0050268077
0.005018489
0.0050105554
0.0050031025
0.0049961391
0.0049897614
0.0049840377
0.0049788927
0.0049743522
0.0049703988
0.0049670962
0.0049643074
0.0049623681
0.0049604941
0.0049603465
0.10333187
0.10437427
0.10543107
0.10645261
0.10743215
0.10836217
0.10923434
0.11004
0.11077015
0.11141541
0.11196603
0.11241183
0.11274217
0.11294594
0.11301157
0.11292697
0.11267964
0.11225663
0.11164465
0.11082993
0.10979857
0.10853687
0.10703102
0.10526748
0.10323324
0.10091607
0.098304909
0.095390225
0.092164572
0.088623204
0.08476484
0.080592603
0.076115124
0.071347844
0.066314698
0.061050638
0.055593395
0.050010409
0.044393598
0.038829701
0.033444977
0.028404924
0.023905724
0.020156139
0.017300285
0.015312062
0.013988797
0.013085734
0.012415459
0.011867426
0.011393408
0.010965888
0.010573703
0.010209257
0.0098719167
0.0095605674
0.0092687394
0.0089990865
0.0087453298
0.0085093528
0.0082908495
0.0080817253
0.0078869282
0.0077037644
0.0075306819
0.0073667088
0.0072136994
0.0070717972
0.0069366334
0.0068120989
0.006695776
0.0065850378
0.0064834884
0.0063899139
0.0063020074
0.0062222006
0.0061481523
0.006077338
0.0060109695
0.0059478701
0.0058866944
0.0058290343
0.0057736181
0.0057201616
0.0056701147
0.0056221588
0.0055774516
0.0055360073
0.0054971784
0.0054619388
0.005429205
0.0053983559
0.0053699027
0.0053426538
0.0053166589
0.0052921011
0.0052683788
0.0052459428
0.0052245108
0.0052039444
0.0051848034
0.0051669642
0.0051501661
0.0051343817
0.0051193812
0.0051051718
0.0050916147
0.0050788005
0.0050666861
0.005055078
0.0050443653
0.0050346273
0.0050257549
0.005017501
0.0050096333
0.0050022375
0.0049953237
0.0049889817
0.0049832883
0.0049781693
0.0049736538
0.0049697205
0.0049664334
0.0049636607
0.00496173
0.0049598638
0.0049597202
0.10717468
0.10803709
0.10890602
0.10973527
0.11051817
0.11124735
0.1119147
0.11251173
0.11302959
0.11345906
0.1137905
0.11401384
0.11411853
0.11409359
0.11392754
0.11360846
0.113124
0.11246144
0.11160775
0.11054949
0.10927315
0.10776553
0.10601339
0.1040039
0.10172491
0.099165247
0.096315091
0.093166462
0.08971377
0.085954502
0.081890062
0.077526782
0.07287714
0.067961211
0.062808598
0.057460387
0.051961065
0.046391981
0.040852432
0.035440227
0.030302513
0.025620443
0.021596432
0.018407099
0.016102959
0.014547784
0.013500182
0.012751198
0.012161961
0.011660007
0.011215059
0.010808212
0.010432752
0.010081618
0.0097571915
0.009456547
0.0091743426
0.0089136097
0.008667757
0.008438733
0.008225965
0.0080219482
0.0078318566
0.0076528428
0.0074836624
0.0073234596
0.0071741867
0.0070357627
0.006903803
0.0067823101
0.0066687752
0.006560657
0.0064616661
0.0063704339
0.0062846255
0.0062066617
0.006134114
0.0060644896
0.0059991733
0.0059368253
0.005876242
0.0058191875
0.0057642422
0.0057112187
0.0056616638
0.005614278
0.00557018
0.0055293963
0.0054912307
0.0054566139
0.0054244322
0.0053940488
0.0053659357
0.0053389707
0.0053132178
0.0052888345
0.0052652732
0.0052430038
0.0052217333
0.0052013321
0.0051823595
0.0051646885
0.0051480645
0.0051324493
0.0051176026
0.0051035341
0.0050900982
0.0050773914
0.0050653778
0.0050538535
0.0050432
0.0050335048
0.0050246831
0.0050164947
0.0050086932
0.0050013545
0.0049944921
0.0049881867
0.0049825241
0.0049774317
0.0049729415
0.004969029
0.0049657574
0.0049630011
0.0049610792
0.0049592211
0.0049590814
0.11063921
0.11132418
0.11200669
0.11264472
0.11323165
0.1137603
0.11422278
0.11461082
0.11491577
0.11512857
0.11523974
0.11523935
0.115117
0.11486182
0.11446251
0.11390732
0.11318413
0.11228047
0.11118365
0.10988062
0.10835833
0.10660419
0.10460566
0.10235075
0.099828334
0.097028473
0.093942851
0.09056529
0.086892364
0.082924154
0.078665152
0.074125364
0.069321666
0.064279514
0.059035122
0.053634565
0.048133872
0.04263021
0.03722647
0.032038292
0.027233293
0.023003488
0.019536104
0.016936912
0.015141194
0.01393626
0.013093739
0.012455591
0.011926312
0.011461338
0.011039546
0.010651215
0.010292213
0.0099551961
0.0096429729
0.0093521112
0.0090796466
0.0088276148
0.0085898676
0.0083678355
0.0081603422
0.0079616182
0.0077762452
0.0076013329
0.0074361594
0.0072799209
0.0071345216
0.0069995916
0.0068709508
0.0067525141
0.0066417663
0.0065363255
0.0064398965
0.0063509773
0.0062672545
0.006191082
0.0061199484
0.0060514415
0.0059871436
0.0059255234
0.0058654971
0.0058090225
0.005754562
0.0057020174
0.0056529998
0.0056062329
0.0055627938
0.0055227115
0.0054852414
0.0054512667
0.0054196393
0.0053897188
0.0053619357
0.0053352427
0.0053097293
0.0052855207
0.0052621195
0.0052400165
0.0052189109
0.0051986823
0.0051798821
0.0051623807
0.0051459332
0.0051304865
0.0051157962
0.0051018665
0.0050885526
0.0050759578
0.0050640455
0.0050526077
0.0050420156
0.0050323641
0.0050235922
0.0050154696
0.0050077349
0.0050004529
0.004993644
0.0049873762
0.0049817445
0.0049766797
0.0049722152
0.004968324
0.0049650679
0.0049623282
0.0049604156
0.0049585656
0.00495843
0.11367288
0.11418304
0.11468084
0.11512902
0.11552103
0.11584991
0.11610803
0.11628735
0.11637944
0.11637544
0.11626604
0.11604149
0.11569154
0.1152055
0.11457227
0.11378032
0.11281778
0.11167254
0.11033228
0.10878445
0.10701655
0.10501671
0.10277322
0.1002751
0.097512455
0.094476803
0.091161596
0.087562772
0.083679439
0.079514692
0.075076591
0.070379348
0.065444869
0.060304922
0.055003759
0.049589833
0.044139576
0.038764706
0.03356802
0.028691919
0.024318842
0.02063699
0.017781577
0.015752643
0.014383996
0.013441679
0.012747095
0.012187136
0.011703501
0.011268532
0.010866729
0.010495399
0.010150511
0.0098300316
0.0095293892
0.0092471944
0.008984987
0.0087411277
0.00851179
0.0082966972
0.0080939033
0.007900875
0.007720175
0.0075492355
0.0073882298
0.0072362099
0.0070948158
0.0069633185
0.0068381258
0.0067227481
0.0066147644
0.006512068
0.0064181808
0.0063315289
0.0062498775
0.0061754335
0.006105621
0.0060381699
0.005974834
0.0059139227
0.0058544484
0.0057985268
0.0057445749
0.0056925633
0.0056441344
0.00559804
0.0055553111
0.0055159693
0.0054792246
0.0054459062
0.0054148314
0.0053853677
0.0053579051
0.0053314715
0.0053061919
0.0052821579
0.0052589176
0.0052369818
0.005216046
0.0051959977
0.0051773733
0.0051600425
0.0051437729
0.0051284945
0.0051139625
0.0051001693
0.0050869779
0.0050744991
0.0050626893
0.0050513409
0.0050408118
0.0050312052
0.005022482
0.0050144258
0.0050067581
0.0049995325
0.004992779
0.0049865499
0.0049809494
0.0049759131
0.0049714744
0.0049676051
0.0049643648
0.0049616418
0.0049597389
0.0049578972
0.0049577657
0.11622033
0.11655849
0.11687362
0.11713369
0.11733228
0.11746267
0.11751752
0.11748907
0.1173691
0.11714897
0.11681957
0.11637131
0.11579416
0.11507762
0.11421082
0.11318252
0.11198118
0.11059507
0.10901237
0.10722109
0.10520943
0.10296636
0.10048117
0.0977441
0.094746677
0.09148217
0.087946111
0.084136929
0.080056702
0.07571205
0.071115177
0.066285132
0.061249564
0.056047546
0.050731934
0.045357769
0.040023125
0.034849474
0.029949483
0.025489802
0.021654975
0.018598532
0.016360284
0.014829452
0.013788091
0.013031582
0.012443096
0.011940767
0.011487503
0.011075488
0.010695414
0.010341619
0.010011557
0.0097034297
0.0094143639
0.0091437577
0.0088910232
0.0086543687
0.0084335795
0.0082251072
0.0080266771
0.0078399229
0.0076636924
0.00749657
0.0073399625
0.0071924762
0.0070551687
0.0069269596
0.00680539
0.0066930436
0.0065877652
0.0064879039
0.0063965155
0.006312064
0.0062324752
0.0061596794
0.0060910891
0.0060246529
0.0059622015
0.0059019748
0.0058430815
0.005787696
0.0057342848
0.005682866
0.0056350819
0.0055897182
0.0055477514
0.0055091871
0.0054731951
0.0054405392
0.0054100108
0.0053809967
0.0053538438
0.0053276567
0.0053026034
0.0052787432
0.0052556663
0.0052339005
0.0052131411
0.0051932806
0.0051748346
0.0051576751
0.005141584
0.005126474
0.0051121016
0.0050984427
0.0050853739
0.0050730145
0.0050613091
0.005050053
0.0050395882
0.0050300278
0.0050213524
0.005013363
0.0050057627
0.0049985929
0.0049918968
0.0049857076
0.0049801384
0.0049751318
0.004970719
0.004966872
0.0049636478
0.0049609417
0.0049590491
0.0049572157
0.0049570882
0.11822407
0.11839308
0.11852783
0.11860189
0.11860903
0.1185428
0.11839618
0.11816166
0.11783128
0.11739658
0.11684867
0.11617815
0.11537521
0.11442961
0.11333074
0.11206771
0.11062938
0.10900451
0.10718185
0.10515012
0.10289834
0.1004165
0.097695066
0.094725725
0.091501723
0.088018384
0.084273697
0.080269029
0.076009957
0.071507246
0.066777971
0.061846823
0.05674815
0.051529578
0.046251607
0.0409836
0.035846547
0.03096427
0.026468866
0.022540371
0.019339032
0.016937608
0.015258582
0.014119296
0.01330908
0.012685758
0.012165131
0.011698197
0.011276528
0.010888225
0.01052699
0.010189282
0.0098733651
0.0095776899
0.0093003431
0.0090403434
0.0087969411
0.0085687656
0.0083542715
0.008151124
0.0079595616
0.0077791725
0.0076068066
0.0074435401
0.0072915159
0.0071488755
0.0070156032
0.0068905339
0.0067728364
0.0066634171
0.0065607414
0.0064638492
0.0063748949
0.0062925468
0.0062150282
0.006143777
0.0060763035
0.0060108683