/*--------------------------------*- C++ -*----------------------------------*\
| =========                 |                                                 |
| \\      /  F ield         | OpenFOAM: The Open Source CFD Toolbox           |
|  \\    /   O peration     | Version:  2406                                  |
|   \\  /    A nd           | Website:  www.openfoam.com                      |
|    \\/     M anipulation  |                                                 |
\*---------------------------------------------------------------------------*/
FoamFile
{
    version     2.0;
    format      ascii;
    arch        "LSB;label=32;scalar=64";
    class       volScalarField;
    location    "0.02";
    object      T;
}
// * * * * * * * * * * * * * * * * * * * * * * * * * * * * * * * * * * * * * //

dimensions      [0 0 0 1 0 0 0];

internalField   nonuniform List<scalar> 
2257
(
294.02554
294.09269
294.16778
294.25895
293.35169
293.39054
293.43278
293.47736
293.5238
293.57206
293.62236
293.67489
293.72962
293.78622
293.84422
293.90322
293.96333
294.02582
294.09272
294.16758
294.25862
294.05325
293.92958
293.81681
293.71399
293.61895
293.53219
293.45602
293.39272
293.34406
293.31121
293.29454
293.29346
293.3058
293.32863
293.35968
293.39663
293.43747
293.48102
293.52672
293.57446
293.6244
293.67664
293.73114
293.78752
293.84529
293.90404
293.96389
294.02611
294.09274
294.16736
294.25825
294.06684
293.94722
293.83506
293.73288
293.6395
293.55471
293.48002
293.41729
293.36809
293.33366
293.31457
293.31049
293.31973
293.33975
293.36836
293.4033
293.44261
293.48504
293.52993
293.5771
293.62662
293.67855
293.73278
293.78892
293.84643
293.90492
293.96448
294.02641
294.09274
294.16711
294.25783
294.07454
293.95994
293.84992
293.74919
293.65776
293.57524
293.50249
293.44084
293.39166
293.35615
293.33502
293.3282
293.33445
293.35166
293.37775
293.41058
293.44826
293.48946
293.53346
293.57999
293.62904
293.68062
293.73456
293.79042
293.84766
293.90585
293.96511
294.02672
294.09274
294.16682
294.25735
294.07918
293.96991
293.86267
293.76376
293.6744
293.59427
293.52368
293.46349
293.41475
293.37858
293.35579
293.3465
293.34991
293.36434
293.38786
293.4185
293.45443
293.49431
293.53734
293.58315
293.63169
293.68288
293.73648
293.79204
293.84897
293.90684
293.96577
294.02704
294.09271
294.16649
294.25681
294.08295
293.97888
293.87451
293.77743
293.69002
293.61219
293.54383
293.4853
293.43734
293.40089
293.37679
293.36533
293.36607
293.37776
293.3987
293.42708
293.46117
293.49963
293.54159
293.58663
293.63459
293.68533
293.73857
293.79378
293.85037
293.90789
293.96646
294.02736
294.09265
294.16611
294.25618
294.08734
293.98814
293.88646
293.791
293.70524
293.62943
293.56319
293.50641
293.45945
293.42304
293.39794
293.38461
293.3829
293.39193
293.41028
293.43634
293.4685
293.50544
293.54625
293.59043
293.63775
293.688
293.74082
293.79565
293.85187
293.90901
293.96718
294.02768
294.09257
294.16567
294.25547
294.09324
293.99858
293.89943
293.80528
293.72074
293.64654
293.58214
293.52703
293.48117
293.44501
293.41922
293.4043
293.40034
293.40681
293.42261
293.4463
293.47646
293.51178
293.55135
293.5946
293.64121
293.6909
293.74326
293.79767
293.85347
293.91019
293.96794
294.028
294.09245
294.16517
294.25465
294.10099
294.01068
293.91401
293.82095
293.73718
293.66409
293.60112
293.54745
293.50265
293.46687
293.44059
293.42434
293.41835
293.42239
293.43567
293.45699
293.48506
293.51868
293.55692
293.59915
293.64498
293.69406
293.7459
293.79984
293.85518
293.91145
293.96874
294.02832
294.09229
294.16459
294.25369
294.11026
294.02427
293.93028
293.83833
293.75505
293.68258
293.62057
293.568
293.5241
293.4887
293.46208
293.44469
293.43688
293.43865
293.44947
293.46841
293.49435
293.52618
293.56299
293.60412
293.64909
293.69749
293.74875
293.80217
293.85701
293.91278
293.96956
294.02862
294.09207
294.16393
294.25258
294.12027
294.03864
293.94772
293.85726
293.7745
293.70235
293.64085
293.58898
293.54574
293.51063
293.48372
293.46535
293.4559
293.45553
293.46397
293.48056
293.50433
293.53431
293.56961
293.60954
293.65357
293.70121
293.75183
293.80467
293.85896
293.91418
293.97041
294.0289
294.09178
294.16315
294.25129
294.13022
294.05298
293.96562
293.87725
293.79533
293.72348
293.66221
293.61066
293.56775
293.53278
293.50556
293.4863
293.47536
293.473
293.47917
293.49343
293.51502
293.54308
293.57679
293.61544
293.65845
293.70525
293.75516
293.80736
293.86104
293.91566
293.97129
294.02916
294.09142
294.16226
294.24976
294.13905
294.0663
293.98305
293.89753
293.81709
293.74578
293.68466
293.63318
293.59032
293.55527
293.52766
293.50754
293.49523
293.49103
293.49502
293.507
293.52642
293.55252
293.58456
293.62184
293.66375
293.70964
293.75876
293.81025
293.86326
293.91721
293.97218
294.02937
294.09096
294.16121
294.24795
294.14643
294.07814
293.99941
293.91748
293.83924
293.76895
293.7081
293.65657
293.61353
293.57819
293.55007
293.52909
293.51548
293.50955
293.51149
293.52126
293.53851
293.56263
293.59294
293.62878
293.66949
293.71438
293.76263
293.81334
293.86561
293.91884
293.97309
294.02954
294.09038
294.15999
294.24578
294.15211
294.08835
294.01449
293.93677
293.86141
293.79264
293.73231
293.68074
293.63739
293.60158
293.57282
293.55094
293.53608
293.52852
293.52852
293.53618
293.5513
293.57342
293.60196
293.63628
293.67571
293.71951
293.76681
293.81665
293.8681
293.92054
293.974
294.02964
294.08967
294.15857
294.2432
294.15507
294.09601
294.02751
293.9547
293.88298
293.81636
293.75695
293.70548
293.6618
293.62541
293.59589
293.57305
293.55697
293.54788
293.54606
293.5517
293.56475
293.58489
293.61161
293.64435
293.68242
293.72503
293.7713
293.82018
293.87074
293.92231
293.97491
294.02965
294.08879
294.15692
294.24007
294.15612
294.10192
294.03894
293.97138
293.90377
293.83978
293.78167
293.73051
293.68655
293.64954
293.61921
293.59539
293.5781
293.56756
293.56404
293.56777
293.57882
293.59701
293.62191
293.65301
293.68963
293.73098
293.77611
293.82396
293.87353
293.92414
293.97579
294.02956
294.08771
294.155
294.23786
294.15455
294.1056
294.04851
293.98652
293.92338
293.86244
293.80602
293.75546
293.71136
293.67379
293.64266
293.61785
293.5994
293.5875
293.58238
293.58433
293.59348
293.60975
293.63284
293.66225
293.69737
293.73736
293.78126
293.82797
293.87646
293.92602
293.97663
294.02932
294.0864
294.15278
294.23694
294.15033
294.10696
294.056
293.99982
293.94148
293.88394
293.82955
293.77991
293.73591
293.69792
293.66606
293.64032
293.62077
293.60759
293.60102
293.60131
293.60866
293.62309
293.64438
293.67209
293.70563
293.74419
293.78676
293.83222
293.87953
293.92794
293.97741
294.02892
294.08482
294.1502
294.23553
294.14312
294.10522
294.06047
294.01039
293.95726
293.90363
293.85178
293.80347
293.75988
293.7217
293.68924
293.66268
293.64213
293.62777
293.61986
293.61863
293.62431
293.63698
293.6565
293.6825
293.71442
293.75145
293.7926
293.83672
293.88274
293.92989
293.9781
294.02832
294.08291
294.14718
294.23354
294.13357
294.10142
294.06287
294.01887
293.97109
293.92166
293.8727
293.82606
293.78319
293.74502
293.71213
293.68484
293.66339
293.64797
293.63883
293.63622
293.64035
293.65136
293.66917
293.69346
293.72372
293.75916
293.79879
293.84146
293.88607
293.93184
293.97867
294.02746
294.08063
294.14362
294.23087
294.12171
294.09494
294.06243
294.02456
293.98242
293.9376
293.89201
293.84751
293.8057
293.76781
293.73465
293.70678
293.68452
293.66814
293.65789
293.65401
293.65673
293.66617
293.68233
293.70494
293.73351
293.7673
293.80532
293.84642
293.8895
293.93376
293.97908
294.02629
294.07788
294.13943
294.22734
294.1079
294.086
294.05908
294.02714
293.99071
293.9509
293.90923
293.86743
293.82719
293.78994
293.75678
293.72846
293.70551
293.68826
293.677
293.67197
293.67338
293.68137
293.69595
293.7169
293.74377
293.77585
293.81217
293.85159
293.89301
293.93562
293.97927
294.02475
294.07456
294.13444
294.22259
294.09261
294.07486
294.05278
294.02624
293.99537
293.96078
293.92357
293.88516
293.84716
293.81112
293.77834
293.74984
293.72633
293.70831
293.69613
293.69004
293.69025
293.69689
293.70996
293.7293
293.75447
293.78479
293.81932
293.85694
293.89656
293.93737
293.97918
294.02275
294.07057
294.12848
294.21614
294.07615
294.06224
294.04466
294.02305
293.99733
293.96779
293.93515
293.90053
293.86533
293.83105
293.79913
293.77078
293.74694
293.72829
293.71528
293.70822
293.70731
293.71267
293.72432
293.74208
293.76554
293.79406
293.82673
293.86244
293.90012
293.93896
293.97876
294.02022
294.06576
294.1213
294.20724
294.05919
294.04842
294.03452
294.01713
293.99608
293.97138
293.94341
293.91294
293.88108
293.8492
293.81873
293.79101
293.76718
293.74811
293.7344
293.72646
293.72451
293.72868
293.73896
293.75518
293.77696
293.80364
293.83435
293.86803
293.90362
293.94031
293.9779
294.01702
294.05998
294.11263
294.19494
294.04134
294.03336
294.02282
294.00932
293.99252
293.97229
293.94879
293.92251
293.8943
293.86529
293.83682
293.81024
293.78684
293.76764
293.75343
293.74472
293.74183
293.74487
293.75384
293.76856
293.78864
293.81345
293.84213
293.87365
293.90699
293.94136
293.97651
294.01302
294.05303
294.10217
294.17734
294.02317
294.01762
294.00994
293.99972
293.98661
293.97044
293.95118
293.92908
293.9047
293.87895
293.85299
293.82811
293.80561
293.78667
293.77222
293.76293
293.7592
293.76119
293.76891
293.78215
293.80054
293.82343
293.85
293.87923
293.91015
293.94198
293.97446
294.00807
294.04473
294.08968
294.16367
294.00425
294.00085
293.99573
293.98854
293.9789
293.96651
293.95121
293.93311
293.91256
293.89024
293.86712
293.84437
293.82325
293.80499
293.79063
293.78098
293.77655
293.77759
293.7841
293.7959
293.81258
293.83351
293.85786
293.88467
293.91299
293.94207
293.97162
294.00201
294.03484
294.07465
294.14186
293.98495
293.98344
293.98057
293.97598
293.96931
293.96026
293.94865
293.9344
293.91768
293.89895
293.87898
293.85876
293.83948
293.82234
293.80845
293.79873
293.7938
293.79399
293.79936
293.80972
293.82467
293.84358
293.86561
293.88985
293.91537
293.94147
293.96781
293.99463
294.0231
294.05662
294.10763
293.96514
293.96529
293.96441
293.96218
293.95827
293.95233
293.94409
293.93344
293.92041
293.90528
293.8886
293.87121
293.85414
293.83853
293.8255
293.81603
293.81082
293.81031
293.81461
293.82355
293.83674
293.85353
293.87313
293.89462
293.91714
293.94001
293.96286
293.98573
294.00927
294.03546
294.07804
293.94502
293.94662
293.94747
293.94732
293.94584
293.94272
293.93764
293.93038
293.9209
293.90934
293.89606
293.88171
293.86716
293.85345
293.84165
293.83275
293.82752
293.82647
293.82976
293.83729
293.84865
293.86324
293.88024
293.8988
293.9181
293.93749
293.95655
293.9751
293.99316
294.01065
294.02549
293.92511
293.92793
293.93028
293.93193
293.93259
293.93196
293.92975
293.9257
293.91962
293.91154
293.90166
293.89046
293.87865
293.86712
293.85686
293.84882
293.8438
293.84236
293.84472
293.85081
293.86028
293.87251
293.88675
293.90218
293.91804
293.93369
293.94866
293.96254
293.97461
293.98267
293.97479
293.90549
293.90934
293.91297
293.91618
293.91873
293.92035
293.92074
293.9196
293.91672
293.912
293.90551
293.89756
293.88865
293.87954
293.87108
293.86416
293.85957
293.85786
293.85933
293.86395
293.8714
293.88113
293.89241
293.90449
293.91668
293.92835
293.93897
293.94784
293.95354
293.95198
293.92573
293.88669
293.8914
293.89611
293.90065
293.90483
293.90839
293.91108
293.91261
293.91272
293.91121
293.90803
293.90331
293.89739
293.89084
293.88436
293.87874
293.8747
293.87281
293.87339
293.87645
293.88174
293.88877
293.89689
293.90541
293.91371
293.9212
293.92724
293.93086
293.92997
293.91895
293.87806
293.86859
293.87406
293.87971
293.88542
293.89103
293.89634
293.90109
293.90502
293.90785
293.90934
293.90933
293.90776
293.90483
293.90091
293.89652
293.89231
293.88892
293.88687
293.88651
293.8879
293.89087
293.895
293.89976
293.90455
293.9088
293.91194
293.91324
293.91146
293.90392
293.88392
293.83149
293.85072
293.85682
293.86326
293.86997
293.87683
293.88367
293.89027
293.89639
293.90173
293.90602
293.909
293.91053
293.91054
293.90926
293.90701
293.90428
293.90158
293.89938
293.89804
293.89766
293.89815
293.89924
293.9005
293.90143
293.90155
293.90027
293.89679
293.88959
293.87553
293.84728
293.78593
293.83276
293.83927
293.84628
293.85374
293.86158
293.86965
293.87779
293.88576
293.89329
293.90006
293.90579
293.91021
293.91319
293.91465
293.91457
293.91335
293.91141
293.90913
293.90683
293.90468
293.90269
293.9007
293.89845
293.89554
293.89156
293.88592
293.87773
293.86524
293.84496
293.80943
293.74138
293.8146
293.82119
293.82838
293.83616
293.8445
293.8533
293.86244
293.87173
293.88092
293.88973
293.89781
293.9048
293.9104
293.91433
293.91661
293.91724
293.91634
293.91424
293.91123
293.90755
293.90329
293.89843
293.89286
293.88632
293.87843
293.86865
293.85597
293.8385
293.81255
293.77068
293.69779
293.79751
293.80375
293.81061
293.81814
293.82632
293.83512
293.84446
293.85422
293.86422
293.8742
293.88383
293.89271
293.90046
293.9067
293.91112
293.91353
293.91392
293.91244
293.90932
293.90465
293.89865
293.89143
293.883
293.87324
293.86185
293.8483
293.83153
293.80955
293.7786
293.73151
293.6552
293.78275
293.78828
293.7944
293.80116
293.80859
293.81667
293.82538
293.83464
293.84434
293.85428
293.86422
293.87385
293.88276
293.89052
293.89669
293.9009
293.90288
293.90247
293.89967
293.8947
293.88772
293.87888
293.8683
293.85594
293.84162
293.82482
293.8045
293.77865
293.74356
293.69262
293.61352
293.77108
293.7757
293.78084
293.78655
293.79285
293.79976
293.80729
293.81539
293.824
293.83301
293.84222
293.85139
293.86019
293.86824
293.87507
293.88024
293.8833
293.88394
293.88196
293.87732
293.8701
293.86045
293.84849
293.83429
293.81772
293.79833
293.77512
293.74615
293.70792
293.65453
293.57551
293.76207
293.7658
293.76994
293.77455
293.77965
293.78525
293.79137
293.798
293.80509
293.81257
293.82033
293.82817
293.83586
293.84308
293.84944
293.8545
293.85781
293.85893
293.8575
293.85332
293.84627
293.8364
293.82377
293.80845
293.79034
293.76906
293.74369
293.71244
293.67212
293.61741
293.53839
293.75337
293.75627
293.7595
293.76309
293.76705
293.7714
293.77614
293.78128
293.78679
293.79262
293.79868
293.80484
293.81093
293.81669
293.82183
293.82597
293.82869
293.82957
293.82818
293.82418
293.81733
293.80751
293.79468
293.77882
293.75983
293.73737
293.71059
293.67791
293.63649
293.5817
293.50521
293.74283
293.74501
293.74743
293.75011
293.75305
293.75628
293.7598
293.76359
293.76763
293.77189
293.7763
293.78076
293.78514
293.78924
293.79283
293.79562
293.79726
293.79736
293.79551
293.79134
293.78451
293.77478
293.76199
293.74601
293.72668
293.70366
293.67619
293.64286
293.60126
293.54764
293.47707
293.72836
293.72993
293.73166
293.73358
293.73567
293.73795
293.74042
293.74305
293.74584
293.74875
293.75171
293.75466
293.75749
293.76004
293.76213
293.76353
293.76394
293.76303
293.76046
293.75585
293.74885
293.73915
293.7265
293.71067
293.69143
293.66839
293.64086
293.6076
293.56656
293.5147
293.44843
293.70938
293.71045
293.71162
293.7129
293.71429
293.71579
293.71739
293.71907
293.72081
293.72258
293.72434
293.726
293.72748
293.72867
293.7294
293.72949
293.72872
293.72681
293.72346
293.71833
293.71108
293.70139
293.68895
293.67347
293.65463
293.63202
293.60498
293.57243
293.53261
293.483
293.42064
293.68523
293.6859
293.68662
293.6874
293.68823
293.6891
293.69001
293.69094
293.69186
293.69274
293.69353
293.69417
293.69459
293.69469
293.69434
293.69339
293.69163
293.68887
293.68484
293.67925
293.67179
293.66215
293.64999
293.635
293.61681
293.59499
293.56892
293.53761
293.49957
293.45267
293.39443
293.65674
293.65708
293.65744
293.65782
293.65821
293.65859
293.65896
293.65929
293.65956
293.65974
293.65978
293.65963
293.65922
293.65847
293.65727
293.65549
293.65298
293.64954
293.64497
293.63904
293.63147
293.62196
293.61019
293.59582
293.57849
293.55774
293.53298
293.50334
293.46752
293.42374
293.36995
293.62385
293.62396
293.62405
293.62413
293.62419
293.62421
293.62418
293.62408
293.62388
293.62356
293.62306
293.62235
293.62136
293.62002
293.61824
293.61591
293.61291
293.60907
293.60421
293.59813
293.59059
293.58133
293.57006
293.55644
293.54012
293.52065
293.49746
293.46979
293.43651
293.39614
293.34705
293.58829
293.5882
293.58809
293.58794
293.58775
293.58749
293.58716
293.58673
293.58619
293.58549
293.5846
293.58348
293.58208
293.58033
293.57816
293.57547
293.57215
293.56808
293.5631
293.55702
293.54966
293.54077
293.5301
293.51734
293.50213
293.48407
293.46261
293.43707
293.40651
293.3697
293.32535
293.54953
293.54934
293.54911
293.54883
293.54849
293.54808
293.54758
293.54698
293.54624
293.54534
293.54426
293.54294
293.54134
293.53941
293.53707
293.53425
293.53086
293.52678
293.52189
293.51603
293.50902
293.50065
293.49071
293.4789
293.4649
293.44832
293.42868
293.40535
293.37753
293.34424
293.30447
293.51014
293.50987
293.50955
293.50918
293.50874
293.50822
293.50761
293.50688
293.50602
293.505
293.50379
293.50235
293.50065
293.49863
293.49624
293.49341
293.49006
293.48609
293.48139
293.47584
293.46928
293.46152
293.45236
293.44155
293.4288
293.41374
293.39594
293.37483
293.34972
293.3198
293.28426
293.46881
293.46853
293.4682
293.46782
293.46737
293.46685
293.46623
293.4655
293.46465
293.46365
293.46247
293.46108
293.45945
293.45753
293.45527
293.45262
293.44951
293.44585
293.44154
293.43648
293.43052
293.42352
293.41528
293.40556
293.39411
293.38061
293.36466
293.34576
293.32332
293.29661
293.26488
293.42916
293.42886
293.42851
293.42811
293.42764
293.4271
293.42647
293.42574
293.42489
293.4239
293.42274
293.4214
293.41985
293.41803
293.41592
293.41346
293.4106
293.40726
293.40336
293.39881
293.39347
293.38723
293.37989
293.37126
293.3611
293.34911
293.33496
293.31821
293.29831
293.27457
293.24625
293.39052
293.39031
293.39007
293.38977
293.38942
293.38899
293.38848
293.38784
293.38707
293.38613
293.38501
293.38367
293.38211
293.3803
293.37821
293.37583
293.37312
293.37003
293.36651
293.36248
293.35782
293.35239
293.34602
293.33849
293.32961
293.3191
293.30665
293.29187
293.27425
293.25316
293.22791
293.35659
293.35646
293.35629
293.35609
293.35583
293.3555
293.35508
293.35451
293.35377
293.35281
293.35161
293.35014
293.3484
293.34642
293.3442
293.34176
293.3391
293.33619
293.33299
293.32938
293.32525
293.32044
293.31479
293.30813
293.30027
293.29098
293.27999
293.26692
293.2513
293.23252
293.20989
293.31593
293.31577
293.31558
293.31535
293.31509
293.31477
293.3144
293.31398
293.31348
293.31291
293.31223
293.31142
293.31046
293.3093
293.30792
293.30629
293.30437
293.30215
293.29957
293.2966
293.29316
293.28914
293.28442
293.27883
293.27219
293.26428
293.25482
293.24345
293.22972
293.213
293.19256
293.29219
293.29191
293.29159
293.29123
293.29082
293.29036
293.28983
293.28922
293.28853
293.28774
293.28683
293.28579
293.2846
293.28323
293.28166
293.27987
293.27785
293.27557
293.273
293.27011
293.26682
293.26307
293.25873
293.25368
293.24775
293.24073
293.23235
293.22226
293.21001
293.19495
293.17631
293.24963
293.24963
293.24963
293.24963
293.24962
293.2496
293.24957
293.24952
293.24945
293.24935
293.24921
293.24902
293.24876
293.24842
293.24796
293.24735
293.24654
293.24549
293.24415
293.24243
293.24028
293.23762
293.23434
293.23034
293.22547
293.21955
293.21233
293.20347
293.19252
293.17883
293.1616
293.25756
293.25715
293.25669
293.25616
293.25557
293.2549
293.25415
293.2533
293.25234
293.25126
293.25006
293.24872
293.24722
293.24556
293.24372
293.24169
293.23946
293.23701
293.23432
293.23136
293.22811
293.22451
293.2205
293.21599
293.21083
293.20485
293.19779
293.18933
293.17898
293.16609
293.14977
293.21022
293.2103
293.21039
293.21048
293.21058
293.21068
293.21079
293.21089
293.21098
293.21106
293.21112
293.21114
293.21112
293.21103
293.21086
293.21059
293.2102
293.20965
293.20891
293.20794
293.20666
293.205
293.20286
293.20011
293.1966
293.19214
293.18646
293.17921
293.16989
293.15783
293.14214
294.30847
294.30583
294.30301
294.30064
294.2988
294.29756
294.29689
294.29673
294.29703
294.29758
294.29807
294.29818
294.29763
294.29601
294.29287
294.288
294.28098
294.27125
294.25821
294.24118
294.2203
294.1961
294.16976
294.14215
294.11399
294.35507
294.34783
294.33949
294.33194
294.3255
294.32033
294.31643
294.31367
294.31198
294.31117
294.31069
294.31014
294.30926
294.30756
294.30443
294.29946
294.29232
294.2823
294.26873
294.25091
294.2292
294.20424
294.17745
294.14972
294.12176
294.09369
294.06614
294.0387
294.01168
293.98487
293.95859
293.93287
293.90798
293.88436
293.86194
293.84087
293.82075
293.80146
293.78324
293.76696
293.75424
293.74554
293.74045
293.73735
293.73368
293.72729
293.7162
293.70002
293.67816
293.65162
293.62031
293.58611
293.54828
293.5097
293.46872
293.42958
293.39052
293.35636
293.31611
293.29358
293.24952
293.26048
293.20955
294.40151
294.3888
294.37258
294.3576
294.3447
294.33419
294.32602
294.31996
294.31612
294.3139
294.31241
294.3111
294.30963
294.30757
294.3045
294.29988
294.29295
294.28296
294.26931
294.25143
294.22978
294.20505
294.17876
294.15178
294.12474
294.09771
294.07133
294.04506
294.01921
293.99347
293.96813
293.94317
293.91882
293.89556
293.87337
293.85247
293.83249
293.81321
293.79474
293.77777
293.76388
293.75373
293.74716
293.74276
293.73799
293.7307
293.71886
293.70206
293.67969
293.65271
293.62106
293.58655
293.54852
293.50976
293.46871
293.42947
293.39052
293.3564
293.31609
293.29327
293.24956
293.25986
293.2097
294.41913
294.40433
294.3821
294.36108
294.34276
294.32788
294.31607
294.30713
294.30142
294.29825
294.29656
294.29554
294.29454
294.29303
294.29048
294.28647
294.28021
294.2709
294.25809
294.24135
294.22113
294.19802
294.17349
294.14829
294.12302
294.0977
294.073
294.04832
294.02398
293.99961
293.97549
293.95153
293.92797
293.90529
293.88351
293.86294
293.84325
293.82414
293.80558
293.78807
293.77315
293.76164
293.75366
293.748
293.74216
293.73399
293.72144
293.70405
293.6812
293.65381
293.62181
293.58702
293.54879
293.50986
293.46873
293.42938
293.39053
293.35646
293.31607
293.29297
293.24959
293.25925
293.20984
294.34407
294.33996
294.32621
294.31077
294.29553
294.28204
294.27123
294.26364
294.25915
294.25727
294.25728
294.2582
294.25922
294.25954
294.25883
294.25654
294.25199
294.24464
294.23414
294.22017
294.20308
294.18321
294.16183
294.13954
294.11691
294.09398
294.07146
294.04875
294.02624
294.00349
293.98081
293.95808
293.93551
293.91361
293.8924
293.87229
293.85303
293.83422
293.81573
293.79784
293.78201
293.76926
293.75991
293.75305
293.74619
293.73719
293.72395
293.706
293.68269
293.6549
293.62258
293.58751
293.54908
293.50998
293.46878
293.42931
293.39054
293.35651
293.31603
293.29268
293.24961
293.25864
293.20998
294.19549
294.19906
294.19909
294.19576
294.19113
294.18705
294.18474
294.18477
294.18713
294.19126
294.19631
294.2014
294.20553
294.20847
294.20968
294.20841
294.20482
294.19831
294.1888
294.17637
294.1613
294.14437
294.12605
294.10688
294.08697
294.06708
294.04669
294.02626
294.00536
293.98431
293.96297
293.94156
293.92058
293.90009
293.88056
293.86183
293.84344
293.82515
293.80704
293.79046
293.77657
293.76594
293.75791
293.75008
293.74027
293.7264
293.70791
293.68416
293.656
293.62337
293.58802
293.54941
293.51014
293.46885
293.42927
293.39056
293.35657
293.31599
293.2924
293.24962
293.25804
293.21011
294.31386
294.33298
294.35421
294.37565
294.40876
294.43971
)
;

boundaryField
{
    Side1
    {
        type            empty;
    }
    Inlet
    {
        type            totalTemperature;
        gamma           1.4;
        T0              uniform 294.31799;
        value           nonuniform List<scalar> 
63
(
294.31799
294.31799
294.31799
294.31799
294.31799
294.31799
294.31799
294.31799
294.31799
294.31799
294.31799
294.31799
294.31799
294.31799
294.31799
294.31799
292.98447
292.98426
294.31799
294.31799
294.31799
294.31799
294.31799
294.31799
294.31799
294.31799
294.31799
292.98035
294.31799
294.31799
292.97808
294.31799
292.97614
292.97512
292.97419
292.97331
292.97248
292.97169
292.97086
292.97002
292.96923
292.96846
292.96779
292.967
292.96584
292.96615
292.96776
292.9699
292.97219
292.97465
292.97739
292.9804
292.98357
292.98678
292.98959
292.99164
292.99362
292.99539
292.99654
292.99733
292.99782
292.99809
292.99829
)
;
    }
    Side2
    {
        type            empty;
    }
    Outlet
    {
        type            zeroGradient;
    }
    Botwall
    {
        type            zeroGradient;
    }
    Cyli
    {
        type            zeroGradient;
    }
    procBoundary3to0
    {
        type            processor;
        value           nonuniform List<scalar> 3(294.29733 294.35147 294.35147);
    }
    procBoundary3to1
    {
        type            processor;
        value           nonuniform List<scalar> 
68
(
294.26452
294.26545
294.26628
294.26727
294.26842
294.26973
294.2712
294.27276
294.27435
294.27582
294.27694
294.27748
294.27715
294.27567
294.2727
294.26801
294.26123
294.25194
294.23965
294.22376
294.20422
294.18138
294.15615
294.1293
294.10153
294.30318
294.08549
294.08549
294.05727
294.02907
294.00124
293.97369
293.94676
293.92059
293.89541
293.87166
293.84923
293.82816
293.80808
293.78894
293.77112
293.75567
293.74424
293.73706
293.73351
293.73174
293.72921
293.72378
293.71346
293.69793
293.6766
293.65051
293.61957
293.58569
293.54806
293.50966
293.46874
293.42971
293.39052
293.35632
293.3161
293.29391
293.24948
293.26111
293.20939
294.26771
294.28498
294.30318
)
;
    }
    procBoundary3to2
    {
        type            processor;
        value           nonuniform List<scalar> 
40
(
294.02574
294.0931
294.16839
294.2597
293.34424
293.38489
293.42847
293.47401
293.52113
293.56987
293.6205
293.67327
293.72821
293.78502
293.84323
293.90245
293.96281
293.96281
294.03403
294.03403
293.90826
293.79673
293.69343
293.59641
293.50752
293.43028
293.36704
293.31956
293.28884
293.27498
293.27714
293.29268
293.31827
293.31827
294.19263
294.36473
294.19263
294.40121
294.40121
294.36473
)
;
    }
}


// ************************************************************************* //
