/*--------------------------------*- C++ -*----------------------------------*\
| =========                 |                                                 |
| \\      /  F ield         | OpenFOAM: The Open Source CFD Toolbox           |
|  \\    /   O peration     | Version:  2406                                  |
|   \\  /    A nd           | Website:  www.openfoam.com                      |
|    \\/     M anipulation  |                                                 |
\*---------------------------------------------------------------------------*/
FoamFile
{
    version     2.0;
    format      ascii;
    arch        "LSB;label=32;scalar=64";
    class       volScalarField;
    location    "0.055";
    object      Ma;
}
// * * * * * * * * * * * * * * * * * * * * * * * * * * * * * * * * * * * * * //

dimensions      [0 0 0 0 0 0 0];

internalField   nonuniform List<scalar> 
8260
(
0.14458979
0.14573362
0.14692046
0.14818027
0.14944349
0.15068855
0.1519237
0.15314014
0.15443154
0.15588645
0.15735338
0.15885781
0.1603435
0.16166414
0.16231338
0.16174716
0.15910736
0.15573399
0.15392161
0.15280108
0.1519319
0.15113693
0.15039873
0.14978021
0.14927821
0.14886027
0.14851372
0.1482326
0.14800028
0.14785534
0.14775762
0.1408827
0.14238274
0.14398455
0.14560544
0.14721444
0.14879769
0.1503535
0.1518862
0.15344667
0.1550769
0.15670801
0.15833468
0.15989727
0.16124067
0.16184579
0.16115794
0.1584106
0.15518909
0.1535828
0.15255396
0.15173683
0.15098127
0.15027298
0.14967964
0.14919764
0.14879591
0.14846096
0.14818876
0.14796261
0.14782211
0.14772711
0.13661259
0.1384593
0.14049974
0.14253862
0.14454286
0.14650513
0.14842107
0.15029243
0.15214907
0.15401213
0.15584136
0.15761951
0.15928411
0.16066845
0.16125328
0.16046315
0.15762797
0.15463287
0.1532264
0.15228226
0.1515199
0.15080862
0.1501332
0.14956701
0.14910684
0.14872308
0.14840111
0.14813897
0.1479198
0.14778436
0.14769239
0.13252234
0.13465802
0.13702745
0.1394148
0.14177145
0.14408394
0.14634213
0.1485393
0.15068802
0.15279813
0.15483545
0.15677515
0.15854928
0.15997271
0.16053007
0.15961608
0.15671275
0.1540121
0.15281462
0.15196623
0.15126737
0.15060702
0.14997025
0.14943628
0.14900193
0.14863912
0.14833237
0.14808185
0.14787088
0.14774126
0.14765288
0.12873354
0.13107753
0.1336737
0.13632476
0.13897184
0.14158903
0.1441566
0.14665734
0.14908654
0.15144084
0.15368768
0.15579264
0.15767865
0.15913472
0.15964674
0.15858101
0.15565426
0.15333971
0.15235074
0.15160669
0.15097997
0.15037779
0.14978522
0.1492879
0.14888293
0.14854378
0.14825431
0.14801693
0.14781533
0.14769224
0.14760795
0.12534709
0.12781777
0.13054658
0.13336984
0.13622769
0.13908362
0.14190777
0.14467191
0.1473551
0.14993858
0.15238637
0.15465215
0.15664571
0.15812136
0.15855907
0.15731917
0.15445037
0.15261014
0.15182546
0.15119641
0.15065164
0.15011547
0.14957348
0.14911824
0.14874728
0.14843505
0.14816538
0.14794288
0.14775216
0.14763643
0.14755686
0.12246929
0.12499585
0.12776954
0.1306688
0.13364343
0.13665285
0.13965976
0.14262629
0.14551729
0.14829839
0.15092427
0.15333401
0.15541933
0.15688902
0.15720944
0.15577927
0.15313155
0.15181774
0.15123336
0.15072943
0.15027789
0.14981664
0.14933234
0.14892496
0.14859316
0.14831155
0.1480644
0.14785854
0.14768042
0.14757292
0.14749882
0.12025783
0.12273784
0.12545949
0.12833471
0.13132438
0.13438915
0.13748828
0.14057719
0.14360953
0.14653643
0.14929906
0.15181834
0.15396148
0.15538086
0.15552602
0.1539064
0.15173671
0.15095191
0.15056604
0.15019876
0.14985333
0.14947629
0.14905775
0.14870468
0.14841775
0.14817114
0.14794977
0.14776239
0.14759884
0.14750062
0.14743297
0.11874703
0.12109738
0.12368336
0.12644381
0.12935155
0.13237152
0.13546369
0.13858113
0.14167045
0.14467072
0.14750766
0.15007951
0.15221907
0.15352164
0.15341932
0.15170686
0.15032829
0.15000623
0.14981567
0.14959734
0.14937285
0.14908995
0.14874634
0.14845476
0.14821833
0.14801151
0.14781979
0.14765288
0.14750597
0.14741823
0.14735833
0.11790993
0.12007362
0.12246368
0.12503619
0.12777381
0.13065159
0.13363495
0.13667904
0.13972755
0.14271041
0.14553722
0.14807784
0.15011513
0.15119235
0.15075556
0.14936532
0.14892823
0.14896658
0.14897486
0.14891776
0.14883066
0.14865279
0.1483941
0.14817225
0.14799179
0.14782945
0.1476721
0.14752827
0.14740007
0.14732417
0.1472736
0.1176468
0.11958629
0.12173769
0.12406628
0.12656523
0.12921793
0.13199952
0.13487077
0.13777509
0.1406349
0.14334272
0.14573146
0.14751157
0.14817257
0.14758243
0.14719944
0.14749928
0.14783248
0.14804521
0.14815357
0.1482211
0.14815961
0.14799636
0.14785402
0.14773528
0.1476215
0.1475036
0.14738658
0.14727937
0.14721665
0.14717705
0.11792677
0.11956425
0.12140801
0.12342985
0.12562383
0.12798021
0.13047987
0.13308617
0.13573939
0.13835094
0.14078866
0.14282874
0.14413821
0.14443541
0.14456374
0.14525338
0.146042
0.14661642
0.14702149
0.14731245
0.14753878
0.14760332
0.14754671
0.14749567
0.14744567
0.14738436
0.14731059
0.14722537
0.14714204
0.14709377
0.14706642
0.11826634
0.11959886
0.12112661
0.12281995
0.12467278
0.12668343
0.12883602
0.13108907
0.13337154
0.13558239
0.13759008
0.13917253
0.140097
0.14086408
0.14214283
0.14347313
0.14451343
0.1453299
0.1459297
0.14639973
0.14677976
0.14698388
0.14703916
0.14709171
0.14711963
0.14711606
0.14708968
0.14704192
0.14698629
0.14695388
0.14693907
0.11825474
0.11932647
0.12055235
0.121933
0.12346967
0.12513928
0.12691088
0.12874773
0.13058541
0.13233628
0.13390877
0.13529883
0.13673664
0.1384644
0.14017561
0.14168118
0.14297126
0.14399236
0.14479085
0.14543725
0.14595827
0.14629685
0.14647683
0.14663722
0.14675436
0.14681623
0.14683863
0.14683361
0.14681004
0.1467958
0.14679227
0.11793658
0.11862874
0.11950396
0.12057058
0.12184472
0.12323723
0.12467623
0.12619185
0.12778071
0.12941168
0.13107901
0.13287433
0.13481891
0.13665732
0.13837898
0.14001342
0.14142193
0.14262615
0.14362286
0.14444574
0.14509423
0.14556433
0.14586306
0.14613452
0.14634847
0.1464847
0.14655782
0.1465984
0.14661106
0.1466187
0.14662364
0.11905535
0.11957646
0.12014442
0.12076604
0.12150374
0.12243669
0.12355659
0.12485075
0.12627102
0.12780379
0.12949679
0.13139166
0.1332713
0.13507692
0.13686555
0.13852343
0.13997756
0.14126866
0.14243699
0.14343279
0.14421536
0.14480591
0.14521459
0.14559412
0.14590341
0.14611982
0.146248
0.14633531
0.14638741
0.14642155
0.14643138
0.12042777
0.12095718
0.12155625
0.12221994
0.12291012
0.12364576
0.12444003
0.12519897
0.1260732
0.12724846
0.128725
0.13024052
0.13185565
0.13362435
0.13555388
0.1372667
0.13872864
0.1400309
0.141278
0.1424032
0.1433214
0.14403973
0.14454849
0.14502735
0.1454206
0.14571798
0.14590939
0.14604461
0.14613738
0.14620264
0.14621437
0.12182893
0.12216376
0.12255436
0.12301263
0.12355522
0.12420638
0.12500763
0.1259867
0.12695978
0.1278615
0.12866639
0.12979669
0.13116206
0.13265259
0.13423801
0.13600342
0.13763137
0.13899373
0.14024094
0.14137967
0.14240187
0.14325533
0.14386693
0.14443442
0.14490475
0.14527472
0.1455394
0.14572697
0.14585955
0.14595908
0.14597227
0.12362057
0.12393056
0.12428561
0.12468594
0.12513192
0.12561969
0.12613822
0.12668716
0.12732894
0.12815921
0.12918693
0.13010461
0.13106827
0.1322584
0.133461
0.13481077
0.13636504
0.13798605
0.13935017
0.14044964
0.14146295
0.14242773
0.14315376
0.14381238
0.1443619
0.14479033
0.14513308
0.14538264
0.14555306
0.1456872
0.14570543
0.12511722
0.12532163
0.12555784
0.12583148
0.12615245
0.12653366
0.12699253
0.1275426
0.12817095
0.12883568
0.1295308
0.13042826
0.13141735
0.13226792
0.13319373
0.13422585
0.13548987
0.13686871
0.138422
0.13963539
0.14060495
0.14157044
0.1424137
0.14316407
0.14379771
0.14427994
0.14468747
0.1450081
0.14521804
0.14538382
0.14541441
0.12682994
0.12701661
0.12723068
0.12747391
0.12774896
0.12805755
0.1283999
0.12877643
0.12919935
0.12970003
0.13029482
0.13089995
0.13153444
0.13244824
0.13330604
0.13408901
0.13511643
0.13625287
0.13745846
0.13881133
0.13989603
0.14079153
0.14170338
0.14250952
0.14321734
0.14376552
0.14420909
0.14459751
0.1448551
0.14504724
0.14509946
0.12822195
0.12834082
0.12847806
0.12863698
0.12882311
0.12904354
0.12930626
0.12961938
0.12998675
0.13040234
0.13086432
0.13142065
0.13205637
0.13261
0.13340838
0.13430782
0.13506253
0.13593483
0.13690755
0.13796846
0.13918345
0.14016924
0.14109738
0.1419002
0.1426264
0.14323976
0.14370785
0.14415033
0.14446311
0.14467789
0.1447601
0.12980116
0.12990922
0.13003311
0.13017424
0.13033449
0.13051532
0.13071804
0.13094304
0.13119183
0.13147267
0.13179519
0.13214831
0.1325585
0.13311701
0.13366944
0.13440633
0.13518485
0.13582386
0.13659943
0.13746882
0.13839853
0.13954434
0.14058054
0.14135556
0.14201027
0.14268225
0.14319649
0.14366662
0.14403995
0.1442793
0.14439482
0.13109882
0.13116238
0.13123589
0.13132123
0.13142148
0.13154092
0.13168565
0.13185966
0.13206578
0.13230833
0.13259107
0.13292283
0.13330845
0.13372943
0.13423148
0.13467832
0.13522266
0.13592284
0.13653754
0.13723582
0.13798254
0.13888919
0.13998547
0.14079971
0.14138959
0.14208373
0.14268207
0.14315979
0.14358562
0.1438567
0.14400158
0.13251349
0.13257602
0.13264764
0.13272917
0.13282127
0.13292365
0.13303471
0.13315752
0.13329951
0.1334666
0.13366404
0.1338952
0.13415549
0.13445705
0.13478714
0.13519408
0.13562221
0.13612678
0.13669345
0.13720898
0.13782235
0.13854505
0.13935017
0.14019132
0.14083431
0.14149144
0.14216178
0.14266147
0.14310896
0.14341305
0.14358058
0.13351008
0.13353817
0.13357095
0.13360989
0.13365764
0.13371678
0.1337895
0.13387852
0.13398626
0.13411537
0.13426937
0.13445482
0.13468737
0.13496149
0.13528354
0.13560752
0.13596236
0.13634393
0.13672296
0.13729247
0.13782848
0.13840507
0.13901208
0.13968428
0.14040826
0.14100995
0.14165325
0.14218374
0.14262423
0.14295186
0.14313631
0.13459282
0.13462712
0.13466541
0.13470759
0.13475332
0.13480341
0.13486016
0.13492538
0.1350007
0.13508763
0.13518745
0.13529899
0.13540943
0.1355271
0.13566699
0.13587786
0.1361476
0.13650428
0.13687863
0.13732211
0.1378463
0.13833404
0.13882014
0.13940117
0.1400802
0.14063961
0.14118619
0.14171674
0.14214283
0.14247974
0.14267628
0.13526554
0.13528483
0.13530762
0.1353344
0.1353658
0.13540243
0.13544493
0.13549411
0.13555104
0.13561696
0.13569328
0.13578218
0.13588916
0.13602172
0.13619295
0.13638647
0.13660235
0.1368596
0.13718921
0.13747427
0.13780951
0.13821013
0.13863163
0.1391281
0.13971313
0.14027323
0.14075853
0.14125189
0.14167442
0.14200668
0.14221178
0.13606481
0.13607954
0.13609619
0.13611526
0.13613741
0.13616343
0.13619423
0.13623086
0.13627448
0.13632645
0.13638833
0.13646167
0.13654711
0.13664207
0.13674311
0.13686599
0.13701888
0.13718789
0.13738643
0.13763232
0.13790777
0.13821454
0.13858099
0.13898049
0.13941437
0.13988897
0.14036563
0.14081534
0.14122846
0.14155424
0.14175916
0.13648445
0.13649423
0.136506
0.13652024
0.13653754
0.13655855
0.13658399
0.13661464
0.13665144
0.13669559
0.13674871
0.13681309
0.13689125
0.13698085
0.13708422
0.13719778
0.13732605
0.13747631
0.13764917
0.13784905
0.13808052
0.1383488
0.13862993
0.13891904
0.13927202
0.1396765
0.14009735
0.14050966
0.14088897
0.14119875
0.14139151
0.13684356
0.13685224
0.1368628
0.1368755
0.13689065
0.13690864
0.13692991
0.13695498
0.13698447
0.13701909
0.13705963
0.1371075
0.13716595
0.13723765
0.13731623
0.13740655
0.13751194
0.13763561
0.13778155
0.13795312
0.1381526
0.13837946
0.13862562
0.13890065
0.13922208
0.13958251
0.1399711
0.14035984
0.14072224
0.14102182
0.14120824
0.079728071
0.095949222
0.1068169
0.11497584
0.12178511
0.12795268
0.1336048
0.13838786
0.14307189
0.1474363
0.15143873
0.15508251
0.15838304
0.16132229
0.16386452
0.16581707
0.16676435
0.16630527
0.16357933
0.15967964
0.15708363
0.15533895
0.15392512
0.15277124
0.15178512
0.15094258
0.15026959
0.14972975
0.14932176
0.14904982
0.14887449
0.10142315
0.10973816
0.1161253
0.12170606
0.12708774
0.13232292
0.13717725
0.14163505
0.14586193
0.14976022
0.15333519
0.15660702
0.15958768
0.16224818
0.16454046
0.16621347
0.16685407
0.1660679
0.16300184
0.15917817
0.15678872
0.15513188
0.1537621
0.1526371
0.15167399
0.15085177
0.15019515
0.14966778
0.14926816
0.14900183
0.14883743
0.1079032
0.11397511
0.1197758
0.12536457
0.13069197
0.13564324
0.14015132
0.14426409
0.14808794
0.15160594
0.15484303
0.15782103
0.16054547
0.16297887
0.16506306
0.16648784
0.16687091
0.16578157
0.16244148
0.15876867
0.15654522
0.15494605
0.15360978
0.15250902
0.15156712
0.15076377
0.15012223
0.1496066
0.14921485
0.14895391
0.14879267
0.11391336
0.11972077
0.12515176
0.1301836
0.13486017
0.13918163
0.14314134
0.14678578
0.15017744
0.15331563
0.15622525
0.15892357
0.16140642
0.16362603
0.16550765
0.16667883
0.16683097
0.16543187
0.16188368
0.15836926
0.15629286
0.15475118
0.15345096
0.15237624
0.15145681
0.15067336
0.15004768
0.14954432
0.14916081
0.14890552
0.14874837
0.12048893
0.12560581
0.13030541
0.13466502
0.13872757
0.14248219
0.14593435
0.1491271
0.15210535
0.15488295
0.1574845
0.1599213
0.16217817
0.16419623
0.1658759
0.16681111
0.16675458
0.16504018
0.16131742
0.15799478
0.15605261
0.15456141
0.15329465
0.15224466
0.15134731
0.15058342
0.14997318
0.14948187
0.14910646
0.14885684
0.1487027
0.12740262
0.13157393
0.13545909
0.13909486
0.14248983
0.1456398
0.14856397
0.15129616
0.15387071
0.15630512
0.15861805
0.16081175
0.16285863
0.16468816
0.16617021
0.16688974
0.166642
0.16459751
0.16075566
0.15764152
0.15581596
0.1543714
0.15313743
0.15211205
0.15123693
0.15049272
0.14989798
0.14941879
0.1490516
0.14880775
0.14865689
0.13428431
0.13749875
0.14052287
0.1433772
0.14606823
0.14860356
0.15099941
0.15327982
0.15546888
0.15758077
0.15962545
0.16159459
0.16344785
0.16510372
0.1663982
0.16693108
0.16647431
0.16410433
0.16020775
0.15730897
0.15558497
0.15418342
0.15298109
0.15197974
0.15112675
0.15040206
0.14982259
0.14935542
0.14899638
0.14875834
0.14861068
0.14117008
0.14332921
0.14541133
0.14744202
0.14942307
0.15134955
0.15322886
0.15507478
0.15690015
0.15871155
0.16050865
0.16227178
0.16394817
0.16544629
0.16656546
0.16692947
0.16625231
0.16356724
0.15968248
0.15699392
0.15535753
0.15399651
0.152825
0.15184735
0.15101646
0.1503112
0.14974688
0.14929168
0.14894079
0.1487086
0.14856422
0.14770476
0.14880747
0.14996933
0.15120722
0.1525079
0.15385072
0.15523925
0.15667645
0.15816377
0.15969841
0.16126924
0.16284509
0.16436109
0.16571075
0.16665563
0.16687762
0.16597591
0.16300527
0.15918528
0.15669388
0.15513366
0.15381108
0.15266959
0.15171529
0.1509064
0.15022041
0.14967105
0.1492277
0.14888491
0.14865858
0.14851752
0.15363695
0.15377852
0.15411744
0.15462463
0.15528688
0.1560855
0.15701997
0.15808057
0.15925859
0.16054189
0.16190845
0.16331603
0.16468791
0.16589196
0.16668442
0.1667871
0.16565158
0.16243488
0.15871703
0.15640596
0.15491266
0.15362701
0.15251484
0.15158362
0.15079661
0.15012972
0.14959512
0.14916351
0.14882876
0.1486083
0.14847057
0.15891326
0.15821058
0.15780219
0.15764195
0.15772207
0.15803401
0.15856129
0.1592829
0.16018347
0.16124249
0.16242734
0.16368575
0.1649271
0.16598703
0.16665611
0.16665696
0.16528439
0.16186444
0.15827675
0.15612791
0.15469442
0.15344445
0.15236093
0.15145256
0.15068728
0.15003927
0.14951923
0.14909921
0.14877242
0.14855781
0.14842341
0.16341134
0.16200607
0.16094976
0.16021375
0.15979467
0.15968444
0.15985121
0.16027836
0.16093683
0.16180036
0.16282626
0.16395311
0.16507284
0.16601006
0.1665962
0.16648764
0.16488404
0.16130197
0.15786277
0.15585789
0.15447868
0.15326349
0.15220799
0.15132226
0.15057851
0.14994914
0.14944342
0.14903486
0.14871592
0.14850714
0.14837604
0.16700643
0.16506213
0.16350342
0.16231488
0.16149125
0.16101977
0.16088513
0.16105953
0.1615137
0.16221248
0.16310208
0.16411332
0.16513171
0.16598919
0.1664996
0.16627682
0.16445655
0.1607538
0.15747256
0.15559445
0.15426541
0.15308426
0.15205618
0.1511929
0.15047046
0.14985945
0.14936782
0.14897052
0.14865932
0.14845632
0.14832848
0.16963953
0.16733097
0.16543027
0.16391695
0.16278733
0.16203569
0.16165289
0.16161542
0.16189815
0.16245993
0.1632401
0.16416747
0.16513226
0.16592738
0.16635288
0.16601601
0.16400573
0.16022258
0.15710377
0.15533659
0.15405459
0.15290694
0.15190569
0.15106467
0.15036326
0.14977029
0.14929249
0.14890628
0.14860268
0.14840537
0.14828075
0.17138125
0.1688138
0.16668869
0.16496378
0.16362729
0.16267469
0.16210416
0.16191013
0.16207205
0.16254481
0.16327108
0.16415528
0.16507284
0.16581191
0.16616191
0.16571563
0.16353509
0.15971093
0.15675431
0.15508368
0.15384629
0.15273171
0.15175674
0.15093778
0.15025699
0.14968177
0.14921753
0.14884218
0.14854604
0.14835434
0.14823286
0.17241771
0.16969758
0.1674039
0.16552262
0.16404572
0.16296417
0.16227278
0.16200219
0.16211521
0.16253756
0.16321975
0.16406596
0.16494034
0.16563786
0.16592898
0.16538308
0.1630548
0.15922086
0.15642222
0.15483543
0.1536406
0.15255878
0.15160953
0.1508124
0.15015177
0.14959397
0.14914302
0.14877831
0.14848946
0.14830325
0.14818481
0.17286839
0.17013362
0.16775821
0.16578038
0.16421429
0.16305769
0.16230637
0.16198746
0.16205126
0.162423
0.16305639
0.16387407
0.16473043
0.16540719
0.16565553
0.165021
0.16257313
0.15875314
0.1561046
0.15459158
0.1534376
0.15238826
0.1514642
0.15068862
0.1500477
0.14950699
0.14906903
0.14871473
0.14843299
0.14825214
0.14813662
0.17207364
0.16965665
0.16747202
0.16558584
0.16404908
0.16289367
0.1621394
0.16178916
0.16180597
0.16215028
0.16276795
0.16358103
0.16444277
0.16512125
0.16534478
0.16463814
0.16209585
0.15830737
0.15579968
0.154352
0.1532373
0.15222026
0.1513209
0.15056656
0.14994487
0.14942093
0.14899565
0.14865151
0.14837671
0.14820106
0.14808832
0.17018624
0.16812943
0.16627369
0.16465526
0.16331244
0.16228593
0.16161493
0.16131045
0.16135297
0.16171778
0.16235347
0.16318727
0.16407697
0.16478132
0.16499978
0.16424026
0.16162807
0.1578833
0.15550591
0.15411652
0.15303979
0.15205495
0.15117985
0.1504464
0.14984347
0.14933592
0.14892301
0.14858876
0.14832069
0.14815004
0.14803993
0.16759424
0.16591063
0.16441051
0.16311833
0.16205328
0.16124907
0.16075054
0.16056436
0.16069198
0.1611255
0.16181338
0.16269318
0.16363304
0.16438804
0.16462335
0.16383246
0.16117337
0.15748016
0.15522167
0.15388557
0.15284566
0.15189289
0.15104161
0.15032856
0.14974381
0.14925223
0.14885129
0.1485266
0.14826503
0.14809913
0.14799147
0.16425577
0.16304177
0.16197476
0.1610733
0.16034848
0.15983772
0.15957679
0.15956373
0.15982888
0.16037485
0.16114894
0.16210018
0.16311145
0.16394193
0.16421798
0.16342086
0.16073496
0.15709867
0.15494778
0.15366081
0.15265644
0.15173532
0.15090713
0.15021371
0.14964634
0.14917011
0.14878065
0.1484651
0.14820974
0.14804831
0.14794291
0.16015314
0.15950518
0.15897329
0.15854747
0.15823911
0.15808203
0.15809652
0.1583134
0.15876865
0.15946604
0.16035909
0.16140768
0.16251107
0.16344184
0.16378537
0.16301218
0.160318
0.15674479
0.15468787
0.1534449
0.15247402
0.15158344
0.1507772
0.15010223
0.14955122
0.14908959
0.14871102
0.14840416
0.14815472
0.1479975
0.14789421
0.15522021
0.15519089
0.15530096
0.15546604
0.15566827
0.15592902
0.15628774
0.15679128
0.15749246
0.15838468
0.15943204
0.16060691
0.1618247
0.16288185
0.16332417
0.1626124
0.15993254
0.15642669
0.1544444
0.15323767
0.15229751
0.15143617
0.15065069
0.14999313
0.14945765
0.14901009
0.14864195
0.14834351
0.14809977
0.14794661
0.14784533
0.14959479
0.14991723
0.15059311
0.15141008
0.15224852
0.15307568
0.15392298
0.15481262
0.15585555
0.1570284
0.15829068
0.15963792
0.16100439
0.16222451
0.16281221
0.16221845
0.15959103
0.1561372
0.15420662
0.15302966
0.15211932
0.15128774
0.15052337
0.1498835
0.14936371
0.14893043
0.14857282
0.14828292
0.14804485
0.14789578
0.14779632
0.073853887
0.091612781
0.10329309
0.11208057
0.11929583
0.12566177
0.1314977
0.13667529
0.14155787
0.14612339
0.15033283
0.15417397
0.15765474
0.1607575
0.16344686
0.16556473
0.16669154
0.16641594
0.16388452
0.1599946
0.15729142
0.15549846
0.1540561
0.1528813
0.15187672
0.15101775
0.1503315
0.14978115
0.14936603
0.14908902
0.14890795
0.072951561
0.091454955
0.10321234
0.11190763
0.11904077
0.1253037
0.13102487
0.13620007
0.14105433
0.14562143
0.14986697
0.15376549
0.15731192
0.16048221
0.16323092
0.1654182
0.16660434
0.16643037
0.16401695
0.16014868
0.15739553
0.1555852
0.15413307
0.15295056
0.15193731
0.1510694
0.15037551
0.14981868
0.14939925
0.1491189
0.14893551
0.072825064
0.091597353
0.1033506
0.1118749
0.11881765
0.12492259
0.13051246
0.13562743
0.14044941
0.14502189
0.14930843
0.15327198
0.15689413
0.16014348
0.16296562
0.16523632
0.16650528
0.16642945
0.16416496
0.16031652
0.15750036
0.15566888
0.15420781
0.15301897
0.15199813
0.15112198
0.15042093
0.14985786
0.14943432
0.14915064
0.14897224
0.072639379
0.091530411
0.10331288
0.11175613
0.1185473
0.12451579
0.12998665
0.13503965
0.13983074
0.14440356
0.14872433
0.1527482
0.15644442
0.15977385
0.162674
0.16503159
0.16639238
0.1664223
0.16431581
0.16050055
0.15761791
0.15576124
0.15428967
0.15309353
0.15206426
0.15117916
0.15047024
0.14990035
0.14947223
0.14918479
0.14900787
0.072234749
0.091265683
0.10315039
0.11153425
0.11825099
0.1241132
0.12947756
0.13446887
0.13922371
0.14378666
0.14813033
0.15220552
0.15597056
0.15937811
0.16235805
0.16480252
0.16626187
0.16640435
0.16445918
0.16069504
0.15774617
0.1558621
0.15437905
0.15317484
0.15213625
0.15124127
0.15052366
0.1499463
0.14951306
0.14922146
0.14904469
0.071852956
0.090838216
0.10289796
0.11130923
0.11796666
0.12373246
0.12899605
0.13392045
0.13863111
0.14317424
0.14752969
0.15164662
0.15547419
0.15895666
0.1620166
0.16454531
0.16611196
0.16637373
0.16459316
0.16089344
0.15788082
0.1559682
0.15447359
0.15326117
0.15221287
0.15130755
0.15058071
0.14999541
0.14955667
0.14926065
0.1490746
0.071606866
0.09043001
0.10263618
0.11107954
0.11768472
0.12336087
0.12852939
0.13338345
0.13804463
0.1425612
0.14691974
0.15106998
0.15495393
0.15850781
0.16164696
0.16425535
0.16594283
0.16632994
0.16471997
0.16109537
0.15801985
0.15607742
0.15457156
0.1533513
0.15229328
0.15137756
0.1506411
0.15004755
0.14960304
0.14930238
0.14911066
0.071583039
0.090017692
0.1023072
0.11079828
0.11737142
0.12297344
0.12805801
0.13284406
0.13745489
0.14194173
0.14629748
0.15047413
0.15440875
0.15803025
0.161247
0.16393107
0.16573953
0.16626943
0.16482982
0.16130479
0.15816286
0.15618904
0.15467238
0.15344496
0.15237739
0.15145104
0.15070475
0.15010275
0.14965224
0.14934679
0.14915129
0.071637851
0.089532671
0.1018721
0.11042811
0.11699403
0.12254372
0.12756089
0.13228708
0.13685152
0.14130916
0.14565914
0.1498571
0.15383734
0.1575227
0.16081507
0.16357475
0.16550172
0.16618795
0.16491994
0.16151615
0.15831022
0.15630331
0.15477616
0.15354209
0.15246514
0.15152828
0.15077191
0.15016122
0.14970448
0.149394
0.1492047
0.071812699
0.089055584
0.10134378
0.10994737
0.11652323
0.12204426
0.12701499
0.13169533
0.13622226
0.14065558
0.14500029
0.14921676
0.15323867
0.15698439
0.16035038
0.16318835
0.16523184
0.16607831
0.16499587
0.16172617
0.15846167
0.15641985
0.15488271
0.15364285
0.15255677
0.15160939
0.15084272
0.15022315
0.14975992
0.14944418
0.14925487
0.072103738
0.088541644
0.1006872
0.1093219
0.11592445
0.12144373
0.126394
0.13104869
0.13555254
0.13997098
0.14431477
0.14854971
0.15261092
0.15641416
0.15985195
0.16277085
0.16492616
0.16592701
0.16504815
0.16193563
0.15861694
0.15653818
0.15499177
0.15374705
0.1526522
0.15169446
0.15091731
0.15028868
0.14981872
0.14949749
0.14930413
0.072443447
0.087959263
0.099850167
0.10849853
0.11515373
0.12070643
0.1256696
0.13032582
0.13482716
0.139245
0.143596
0.1478523
0.15195224
0.15581105
0.1593191
0.16232082
0.16458775
0.1657473
0.16506826
0.1621338
0.15877533
0.15665757
0.1551027
0.15385444
0.15275131
0.15178346
0.15099571
0.15035793
0.149881
0.14955408
0.14935522
0.072598707
0.087120083
0.098721344
0.10740757
0.11416124
0.11979551
0.12481399
0.12950596
0.13403088
0.13846703
0.1428371
0.14712049
0.15126051
0.155174
0.15875116
0.16183708
0.16421644
0.16553453
0.1650584
0.1623099
0.1589358
0.15677705
0.15521495
0.1539644
0.15285374
0.15187627
0.15107797
0.15043099
0.14994687
0.14961412
0.1494102
0.072528915
0.086056429
0.097322837
0.1060455
0.11293004
0.11869115
0.12380896
0.12857399
0.13315197
0.13762806
0.14203205
0.1463507
0.15053389
0.15450219
0.1581477
0.16131879
0.16381068
0.16527816
0.16501425
0.16247249
0.15909799
0.15689556
0.15532755
0.1540768
0.15295929
0.15197277
0.151164
0.15050793
0.15001645
0.14967776
0.1494696
0.072193562
0.084806543
0.09569538
0.10443247
0.11146766
0.11739233
0.12264938
0.12752362
0.13218456
0.13672326
0.14117712
0.14554068
0.14977123
0.15379509
0.15750853
0.16076534
0.16337008
0.16497497
0.16492315
0.16261549
0.15926012
0.15701206
0.15543985
0.15419019
0.15306726
0.15207269
0.15125383
0.15058877
0.15008982
0.14974513
0.14953315
0.071337334
0.083162926
0.09374009
0.10253118
0.10976346
0.11590061
0.12133976
0.12635864
0.13113084
0.13575393
0.14027276
0.1446904
0.14897267
0.15305293
0.15683369
0.16017612
0.16289436
0.16463119
0.16477921
0.16272836
0.15942206
0.15712508
0.1555507
0.15430523
0.1531774
0.15217585
0.15134721
0.15067358
0.1501671
0.14981634
0.14960057
0.070057397
0.081162604
0.091477523
0.10037061
0.10784922
0.11424327
0.11990307
0.1250971
0.13000383
0.13472848
0.13932437
0.1438032
0.14814015
0.15227693
0.15612338
0.15954936
0.16237698
0.16424394
0.1645905
0.16280414
0.15957771
0.15723339
0.15565875
0.15441875
0.15328873
0.15228162
0.15144407
0.15076222
0.15024827
0.1498915
0.14967184
0.068460111
0.078955014
0.089039935
0.098047545
0.10579751
0.11247836
0.11838483
0.12377362
0.12882867
0.13366425
0.13834297
0.14288602
0.14727789
0.15146921
0.1553778
0.15888149
0.16180517
0.16381745
0.16437917
0.16285296
0.15973309
0.15733464
0.15576418
0.15453291
0.15340047
0.15238993
0.15154411
0.15085477
0.1503335
0.14997071
0.14974697
0.066717863
0.076681893
0.086550416
0.095661863
0.10368828
0.11067292
0.11684069
0.12243265
0.12763918
0.13258563
0.13734514
0.1419494
0.14639248
0.15063331
0.15459802
0.15817068
0.16117592
0.16330623
0.16409507
0.16285899
0.15987205
0.15742736
0.15586182
0.15464258
0.15351245
0.15249946
0.15164678
0.15095086
0.15042251
0.15005399
0.14982614
0.065083517
0.074542591
0.084164929
0.09333193
0.10160754
0.10889204
0.11532452
0.12111913
0.12647138
0.13151995
0.13635071
0.14100662
0.14549182
0.14977429
0.15378687
0.1574202
0.16050388
0.16276708
0.16378348
0.16283039
0.15997872
0.15751041
0.15595836
0.15474982
0.15362065
0.15261026
0.15175221
0.15105053
0.15051567
0.15014145
0.14990949
0.063833338
0.072791127
0.082100868
0.091219614
0.099667418
0.10721235
0.11389025
0.11987421
0.12535765
0.13049211
0.13537776
0.1400707
0.14458485
0.14889759
0.15294802
0.15663416
0.15979397
0.1621815
0.16340309
0.16273788
0.16008204
0.15757929
0.15603744
0.15485201
0.15373048
0.15272062
0.15185857
0.15115322
0.1506122
0.15023293
0.14999708
0.063267452
0.071713173
0.080619534
0.089542766
0.098016094
0.10572166
0.11258852
0.11872884
0.12431928
0.12951795
0.1344383
0.13915003
0.14367781
0.14800732
0.15208498
0.15581532
0.15904623
0.16154963
0.16295947
0.16256269
0.16016918
0.15763949
0.1561191
0.15494261
0.15382811
0.15282962
0.15196715
0.15125867
0.15071285
0.15032865
0.15008893
0.06349393
0.071460983
0.079894421
0.088478255
0.096796145
0.10450581
0.11146006
0.11769792
0.12335995
0.12859792
0.13353289
0.13824589
0.14277188
0.14710509
0.15119934
0.15496537
0.15826096
0.16087406
0.16246779
0.16234289
0.16018998
0.15768483
0.15617681
0.1550325
0.15392862
0.15293694
0.15207462
0.15136651
0.15081613
0.15042801
0.15018495
0.064636607
0.071996381
0.079928855
0.088056564
0.096050928
0.10360639
0.11052433
0.1167791
0.12246561
0.12771544
0.13264728
0.13734805
0.14186138
0.14618843
0.1502902
0.15408448
0.15743817
0.16015459
0.16192489
0.16209467
0.16016969
0.15769544
0.15622777
0.15509467
0.15401727
0.15303877
0.15218212
0.15147547
0.1509232
0.15053162
0.15028521
0.066788513
0.07346873
0.080671453
0.088220362
0.095760805
0.10300598
0.10975832
0.11594194
0.12160169
0.12683721
0.13175355
0.13643574
0.1409319
0.14524868
0.14935323
0.1531705
0.15657616
0.1593858
0.16131146
0.1618039
0.16011488
0.15769749
0.15626999
0.15515583
0.15408246
0.15313641
0.15228877
0.1515863
0.151032
0.15063797
0.15038916
0.069498378
0.075524658
0.082038643
0.088876853
0.095834682
0.10264578
0.10911479
0.11514084
0.120723
0.12592126
0.13081616
0.13548175
0.13996434
0.14427372
0.14838182
0.15222014
0.15567312
0.15856597
0.16062497
0.16135324
0.1600349
0.15770618
0.15626271
0.15517633
0.15417324
0.15322643
0.15238793
0.15169567
0.15114344
0.15074849
0.15049719
0.072411333
0.077761629
0.083568812
0.089722385
0.096055397
0.10237391
0.10849465
0.11430729
0.11977674
0.12492408
0.12979927
0.13445784
0.13893835
0.14325058
0.14736912
0.15123116
0.15473007
0.15770211
0.1598935
0.16086813
0.15991701
0.15769883
0.15624417
0.1551768
0.15421241
0.15330603
0.15249191
0.15180626
0.15125601
0.15086034
0.15060783
0.075151701
0.079859866
0.084993776
0.090480619
0.096202481
0.10202355
0.10778505
0.11337038
0.11871767
0.12381379
0.12867858
0.13334538
0.1378406
0.14217006
0.1463101
0.1502028
0.15374966
0.15679956
0.15912101
0.16032847
0.15975076
0.15767719
0.15622484
0.15517235
0.15421385
0.15337053
0.15257689
0.15191258
0.15136865
0.15097589
0.15072236
0.077381667
0.081524059
0.086070097
0.090976291
0.096158753
0.10152166
0.10693835
0.11230184
0.11753122
0.12258383
0.12745084
0.13214239
0.13667015
0.14103314
0.14520724
0.14913859
0.15273675
0.15586327
0.15830851
0.15972787
0.15944651
0.15762639
0.15616142
0.15513859
0.15423461
0.1534309
0.15266527
0.15201792
0.15148242
0.15109122
0.15083775
0.078925166
0.082592594
0.08664718
0.091064965
0.095818895
0.10079706
0.10592121
0.11108872
0.11621591
0.12124119
0.12612795
0.13086233
0.13543995
0.13985154
0.14407142
0.14804868
0.15170033
0.15490068
0.15746125
0.1590793
0.15915778
0.1575103
0.15603883
0.15508821
0.15424691
0.15347947
0.15274796
0.15211865
0.15159235
0.15120849
0.1509566
0.079797066
0.083081614
0.08674267
0.090786952
0.095157652
0.099824836
0.10471307
0.10973057
0.11478591
0.11980457
0.1247317
0.12952935
0.1341746
0.13864851
0.14292303
0.14695035
0.15065486
0.15392301
0.15658573
0.15837389
0.15877242
0.15734977
0.15594882
0.15505356
0.15423831
0.1534834
0.15280158
0.1522106