/*--------------------------------*- C++ -*----------------------------------*\
| =========                 |                                                 |
| \\      /  F ield         | OpenFOAM: The Open Source CFD Toolbox           |
|  \\    /   O peration     | Version:  2406                                  |
|   \\  /    A nd           | Website:  www.openfoam.com                      |
|    \\/     M anipulation  |                                                 |
\*---------------------------------------------------------------------------*/
FoamFile
{
    version     2.0;
    format      ascii;
    arch        "LSB;label=32;scalar=64";
    class       volScalarField;
    location    "0.055";
    object      rho;
}
// * * * * * * * * * * * * * * * * * * * * * * * * * * * * * * * * * * * * * //

dimensions      [1 -3 0 0 0 0 0];

internalField   nonuniform List<scalar> 
8260
(
1.1999386
1.1990029
1.1984578
1.1977753
1.1971337
1.1966495
1.1963553
1.1962559
1.1963466
1.1966078
1.1970452
1.1976373
1.1983483
1.1991433
1.1999529
1.2007846
1.2011593
1.2012287
1.2013324
1.2014952
1.2016544
1.2017886
1.2019109
1.2020177
1.2021092
1.2021845
1.2022502
1.2023021
1.2023449
1.2023708
1.2023895
1.2015244
1.2007277
1.1999407
1.1990811
1.1983183
1.1977225
1.197313
1.1971029
1.1970793
1.1972335
1.1975705
1.1980746
1.1987052
1.1994377
1.2001561
1.2009096
1.2012088
1.2012786
1.201382
1.2015378
1.2016888
1.201816
1.2019328
1.2020353
1.2021235
1.2021961
1.2022598
1.2023101
1.2023517
1.2023768
1.202395
1.2024874
1.2017799
1.2009376
1.2000251
1.1992148
1.1985606
1.1980795
1.1977945
1.1976961
1.197757
1.1980169
1.1984514
1.1990223
1.1997145
1.2003702
1.2010617
1.2012771
1.2013455
1.2014437
1.2015886
1.2017294
1.2018482
1.2019585
1.2020559
1.2021399
1.2022095
1.2022707
1.2023192
1.2023595
1.2023837
1.2024014
1.2032221
1.2025769
1.20176
1.2008509
1.200023
1.1993321
1.1987974
1.1984421
1.19827
1.1982655
1.1984573
1.1988278
1.1993456
1.2000007
1.2006032
1.201224
1.2013624
1.2014226
1.2015146
1.2016463
1.2017755
1.2018848
1.2019876
1.2020792
1.2021586
1.2022247
1.2022832
1.2023296
1.2023684
1.2023915
1.2024085
1.2038194
1.2032355
1.2024762
1.2016069
1.2007916
1.2000898
1.1995231
1.1991147
1.198879
1.1988163
1.1989431
1.19925
1.1997138
1.2003233
1.2008675
1.2013916
1.2014663
1.2015118
1.201596
1.201712
1.201828
1.2019265
1.2020208
1.2021057
1.2021799
1.202242
1.2022974
1.2023415
1.2023785
1.2024005
1.2024167
1.2042694
1.2037412
1.2030583
1.2022612
1.2014923
1.2008102
1.2002387
1.1998023
1.1995219
1.1994089
1.199477
1.1997232
1.200134
1.2006888
1.2011653
1.2015634
1.2015896
1.201615
1.2016889
1.2017868
1.2018876
1.2019739
1.2020586
1.202136
1.2022042
1.2022618
1.2023135
1.202355
1.20239
1.2024106
1.202426
1.204574
1.2040988
1.2034974
1.2027977
1.2021055
1.2014725
1.2009241
1.2004861
1.200183
1.2000337
1.2000535
1.2002458
1.200608
1.2010981
1.201492
1.2017421
1.20173
1.2017354
1.2017946
1.2018716
1.2019551
1.2020278
1.2021015
1.2021705
1.2022318
1.2022842
1.2023318
1.2023704
1.202403
1.2024222
1.2024365
1.2047558
1.2043383
1.2038289
1.2032363
1.2026372
1.2020748
1.2015734
1.201158
1.2008546
1.2006861
1.2006708
1.2008192
1.2011394
1.2015477
1.2018375
1.2019384
1.2018856
1.2018755
1.2019141
1.2019677
1.2020315
1.2020889
1.2021502
1.2022096
1.2022632
1.2023098
1.2023526
1.2023879
1.2024178
1.2024353
1.2024484
1.2048728
1.204499
1.2040792
1.2035978
1.2031026
1.2026267
1.2021911
1.201819
1.2015356
1.2013651
1.2013288
1.2014448
1.201728
1.2020268
1.2021918
1.2021572
1.2020605
1.2020367
1.2020485
1.202076
1.2021175
1.2021579
1.2022053
1.202254
1.2022989
1.2023389
1.2023762
1.2024079
1.2024347
1.2024503
1.202462
1.2049525
1.2046502
1.2042992
1.2039197
1.2035337
1.2031532
1.202795
1.2024801
1.2022318
1.2020739
1.2020299
1.2021226
1.2023601
1.2025351
1.2025445
1.2023877
1.202262
1.2022184
1.2021981
1.2021976
1.202214
1.2022357
1.2022675
1.2023042
1.2023396
1.2023721
1.202403
1.2024306
1.202454
1.2024675
1.2024773
1.2050063
1.2048565
1.2046174
1.2043303
1.20402
1.2037128
1.203423
1.2031653
1.2029583
1.2028234
1.2027846
1.2028595
1.2030252
1.2030491
1.2028654
1.2026308
1.2024951
1.2024178
1.202363
1.2023326
1.2023221
1.2023233
1.2023377
1.2023607
1.2023856
1.2024101
1.2024337
1.2024564
1.2024759
1.202487
1.2024948
1.205195
1.2051167
1.2049798
1.2047725
1.2045424
1.2043143
1.2040975
1.2039018
1.2037419
1.2036387
1.2036141
1.2036548
1.2036647
1.203481
1.2031541
1.2029065
1.20275
1.2026296
1.202541
1.2024799
1.2024429
1.2024217
1.2024169
1.2024245
1.2024377
1.2024533
1.2024688
1.2024858
1.2025009
1.2025094
1.2025149
1.2056193
1.2056906
1.2056385
1.2054649
1.2052691
1.2050849
1.2049168
1.2047652
1.2046349
1.2045353
1.2044628
1.2043644
1.2041345
1.2037767
1.2034536
1.2032094
1.2030103
1.2028529
1.2027294
1.2026385
1.2025753
1.2025314
1.2025061
1.2024966
1.2024964
1.202502
1.2025089
1.2025192
1.2025291
1.2025348
1.2025381
1.2064724
1.2063694
1.2062258
1.2060486
1.2058827
1.2057569
1.2056571
1.2055494
1.2054151
1.2052472
1.2050297
1.2047401
1.2043921
1.2040586
1.2037665
1.2035044
1.2032767
1.2030826
1.2029255
1.2028053
1.2027182
1.2026515
1.202605
1.2025773
1.2025622
1.2025566
1.2025543
1.2025571
1.2025611
1.2025633
1.2025647
1.2067778
1.2068395
1.206874
1.2068803
1.2067979
1.2066037
1.2063748
1.2061401
1.2058788
1.2055859
1.2052709
1.2049441
1.2046322
1.2043334
1.2040472
1.20378
1.2035341
1.203316
1.2031285
1.202979
1.2028672
1.2027799
1.2027126
1.2026662
1.2026354
1.2026168
1.2026049
1.2025998
1.2025971
1.2025953
1.2025952
1.2067764
1.2067028
1.2065887
1.2064459
1.2063395
1.2062857
1.2062431
1.2061972
1.2060668
1.205821
1.2055161
1.2051965
1.2048832
1.2045735
1.204285
1.2040184
1.2037707
1.203543
1.2033357
1.2031588
1.203022
1.2029136
1.2028264
1.202762
1.2027158
1.2026834
1.2026606
1.2026472
1.2026375
1.2026309
1.2026298
1.2067667
1.2067095
1.2066342
1.2065439
1.2064469
1.2063351
1.2061799
1.2059734
1.2057985
1.2057099
1.2055942
1.2053831
1.2051032
1.204793
1.2045039
1.20423
1.2039761
1.2037487
1.2035379
1.2033442
1.2031817
1.2030516
1.202945
1.2028636
1.2028032
1.2027566
1.2027216
1.2026995
1.2026824
1.2026704
1.2026688
1.2064836
1.2064341
1.2063737
1.206306
1.2062302
1.2061444
1.2060494
1.2059444
1.2058196
1.2056509
1.2054778
1.205367
1.2052138
1.2049762
1.2047087
1.204435
1.2041681
1.2039288
1.20372
1.2035247
1.2033473
1.2031952
1.2030693
1.2029711
1.2028967
1.202837
1.2027885
1.2027563
1.202732
1.2027143
1.202712
1.2062938
1.2062562
1.2062092
1.2061554
1.2060931
1.20602
1.2059337
1.2058334
1.2057217
1.2056055
1.2054715
1.2052813
1.2050832
1.2049779
1.204847
1.204618
1.2043516
1.2041
1.2038812
1.2036869
1.2035085
1.2033446
1.2032004
1.2030843
1.2029954
1.2029236
1.2028617
1.202818
1.2027864
1.2027632
1.2027595
1.2060152
1.2059833
1.2059441
1.2059001
1.2058507
1.2057949
1.2057323
1.2056617
1.2055808
1.2054851
1.2053768
1.2052686
1.2051592
1.2049862
1.2048111
1.204693
1.2044904
1.2042494
1.2040339
1.2038279
1.2036494
1.2034884
1.2033337
1.2032024
1.2030981
1.2030137
1.2029407
1.202885
1.2028457
1.2028174
1.2028112
1.2058099
1.2057867
1.2057578
1.2057251
1.2056876
1.2056442
1.2055935
1.2055344
1.2054661
1.2053886
1.2052994
1.2051919
1.2050738
1.2049687
1.2048191
1.204643
1.2045261
1.2043524
1.204156
1.2039567
1.2037697
1.2036087
1.2034585
1.2033199
1.2032021
1.2031057
1.2030243
1.2029574
1.20291
1.2028771
1.202867
1.2055451
1.2055253
1.2055011
1.205474
1.2054437
1.2054094
1.2053706
1.2053266
1.2052768
1.2052196
1.2051546
1.2050834
1.2049992
1.2048893
1.2047892
1.2046725
1.2045199
1.2044135
1.2042583
1.2040655
1.2038823
1.203709
1.203563
1.2034299
1.2033067
1.2031994
1.203111
1.2030352
1.2029795
1.202942
1.202927
1.2053471
1.2053331
1.2053158
1.2052964
1.2052742
1.2052485
1.2052184
1.2051831
1.2051416
1.2050929
1.2050359
1.2049689
1.2048937
1.2048126
1.2047129
1.2046225
1.204543
1.2044418
1.2043248
1.2041616
1.2039835
1.2038119
1.2036586
1.2035319
1.2034097
1.203295
1.2031993
1.2031179
1.203054
1.2030116
1.2029914
1.2051107
1.2050989
1.2050845
1.2050686
1.2050507
1.2050306
1.2050078
1.204982
1.2049526
1.2049193
1.2048816
1.2048392
1.2047906
1.2047348
1.2046725
1.2045893
1.2044996
1.2043937
1.2042615
1.2041773
1.2040633
1.2039136
1.2037643
1.2036289
1.2035054
1.2033914
1.2032883
1.2032024
1.2031328
1.2030854
1.2030605
1.2049389
1.204931
1.2049214
1.2049106
1.2048982
1.2048837
1.2048666
1.2048467
1.2048234
1.2047963
1.2047643
1.2047266
1.2046821
1.2046298
1.2045681
1.2045011
1.2044183
1.2043359
1.204272
1.2041747
1.2040725
1.203976
1.2038521
1.2037153
1.2035893
1.2034801
1.2033762
1.203287
1.2032144
1.2031627
1.203134
1.2047338
1.2047269
1.2047186
1.2047095
1.2046994
1.204688
1.204675
1.2046601
1.2046432
1.2046242
1.2046028
1.204579
1.2045532
1.2045239
1.2044896
1.2044463
1.2043976
1.2043353
1.2042572
1.2041901
1.2040757
1.2039638
1.2038821
1.2037736
1.20366
1.2035575
1.2034598
1.2033711
1.2032974
1.2032426
1.2032111
1.2046088
1.2046045
1.2045994
1.2045935
1.2045868
1.204579
1.20457
1.2045595
1.2045473
1.204533
1.2045158
1.2044949
1.2044686
1.2044364
1.2043991
1.2043586
1.2043135
1.2042668
1.2042108
1.2041561
1.2041167
1.2040404
1.2039293
1.2038292
1.2037293
1.2036307
1.203539
1.2034537
1.20338
1.2033239
1.2032906
1.2044469
1.2044434
1.2044393
1.2044348
1.2044297
1.2044239
1.2044171
1.2044093
1.2044001
1.2043894
1.204377
1.2043625
1.2043463
1.2043286
1.2043094
1.2042867
1.2042589
1.2042267
1.204191
1.2041373
1.2040837
1.2040472
1.2039832
1.2038865
1.2037933
1.2036994
1.2036127
1.2035329
1.2034604
1.2034042
1.2033702
1.2043761
1.2043737
1.2043709
1.2043678
1.2043643
1.2043602
1.2043554
1.2043499
1.2043434
1.2043359
1.2043271
1.2043168
1.2043042
1.2042882
1.2042681
1.2042443
1.2042171
1.2041848
1.2041472
1.2041076
1.2040598
1.2039962
1.2039382
1.2038959
1.2038337
1.2037557
1.2036781
1.2036035
1.2035347
1.2034794
1.2034463
1.2042723
1.2042697
1.2042667
1.2042634
1.2042597
1.2042555
1.2042506
1.204245
1.2042386
1.2042313
1.2042229
1.2042134
1.2042025
1.20419
1.204176
1.2041594
1.20414
1.2041175
1.2040909
1.2040595
1.2040234
1.2039828
1.2039501
1.2039123
1.203857
1.2037976
1.2037297
1.2036622
1.2036003
1.2035489
1.2035178
1.2041575
1.2041567
1.2041557
1.2041546
1.2041533
1.2041518
1.2041501
1.2041481
1.2041457
1.2041428
1.2041393
1.204135
1.2041299
1.2041241
1.2041167
1.2041079
1.2040968
1.2040827
1.2040657
1.2040455
1.2040219
1.2039954
1.2039552
1.2039035
1.2038552
1.2038052
1.2037504
1.2036925
1.2036366
1.2035899
1.2035609
1.1883474
1.1886765
1.1890716
1.1894315
1.1897196
1.1900023
1.190372
1.1908476
1.1914002
1.1920729
1.1928546
1.1937269
1.1946759
1.1956774
1.1967076
1.1978165
1.1988052
1.1997846
1.2002583
1.2005315
1.200776
1.201035
1.2012827
1.2014978
1.2016783
1.2018233
1.2019441
1.2020382
1.2021127
1.2021603
1.202191
1.1891723
1.1894465
1.1895884
1.1897284
1.1899015
1.190159
1.1905438
1.1910568
1.1916694
1.1923831
1.1931858
1.1940645
1.1950073
1.1959869
1.1969884
1.1980496
1.1990157
1.1998907
1.20027
1.2005564
1.2008052
1.2010658
1.2013094
1.2015198
1.2016962
1.201838
1.2019564
1.2020487
1.2021219
1.2021685
1.2021988
1.1889907
1.1890886
1.1891709
1.1893517
1.1896313
1.1900046
1.19049
1.1910926
1.1917703
1.192534
1.1933734
1.1942755
1.1952291
1.1962053
1.1972024
1.1982292
1.1992021
1.1999836
1.2003083
1.2005919
1.2008415
1.2011003
1.2013382
1.2015432
1.2017152
1.2018535
1.2019693
1.2020596
1.2021313
1.202177
1.2022066
1.1885561
1.1886878
1.1888439
1.1891003
1.1894518
1.1898989
1.1904538
1.191112
1.1918429
1.1926506
1.1935223
1.1944457
1.1954104
1.1963877
1.1973941
1.1983918
1.1993623
1.2000711
1.2003589
1.200628
1.2008781
1.2011343
1.2013665
1.2015663
1.201734
1.2018689
1.2019822
1.2020705
1.2021408
1.2021856
1.2022147
1.1879487
1.1881503
1.1883946
1.1887516
1.1892091
1.1897595
1.1904031
1.1911293
1.1919193
1.1927712
1.1936734
1.1946158
1.1955895
1.1965675
1.197585
1.1985634
1.1995051
1.2001497
1.2004075
1.2006646
1.200916
1.2011686
1.201395
1.2015896
1.201753
1.2018846
1.2019952
1.2020816
1.2021504
1.2021942
1.2022227
1.1872002
1.1875087
1.1878861
1.1883804
1.188965
1.1896262
1.19036
1.1911568
1.1920045
1.1928981
1.1938285
1.1947879
1.1957685
1.1967461
1.197773
1.1987389
1.1996288
1.2002147
1.2004526
1.200702
1.2009546
1.2012027
1.2014233
1.2016128
1.201772
1.2019002
1.2020083
1.2020927
1.2021601
1.2022029
1.2022309
1.1863117
1.1867982
1.187356
1.1880097
1.1887297
1.1895033
1.190327
1.1911943
1.1920964
1.1930286
1.1939843
1.1949587
1.195944
1.1969197
1.1979512
1.198907
1.1997495
1.2002719
1.2004956
1.2007406
1.2009939
1.2012368
1.2014516
1.2016361
1.201791
1.201916
1.2020215
1.202104
1.2021699
1.2022116
1.2022391
1.1854323
1.1861213
1.1868635
1.1876721
1.1885225
1.1894029
1.190312
1.1912452
1.1921965
1.1931628
1.1941406
1.1951272
1.1961148
1.1970903
1.19812
1.1990607
1.199873
1.2003267
1.2005376
1.2007807
1.2010336
1.2012708
1.2014798
1.2016593
1.20181
1.2019317
1.2020348
1.2021152
1.2021797
1.2022204
1.2022473
1.1846586
1.1855321
1.1864345
1.1873853
1.1883573
1.189335
1.1903208
1.1913127
1.1923066
1.1933017
1.1942977
1.1952936
1.1962823
1.1972694
1.1982844
1.1991969
1.1999889
1.2003819
1.20058
1.2008221
1.2010734
1.2013045
1.2015079
1.2016824
1.201829
1.2019475
1.2020481
1.2021266
1.2021896
1.2022292
1.2022556
1.1840103
1.1850558
1.1860898
1.1871706
1.1882511
1.1893087
1.1903588
1.1913994
1.1924281
1.193446
1.1944556
1.195458
1.1964481
1.1974497
1.1984425
1.1993287
1.2000912
1.2004368
1.2006235
1.2008646
1.2011131
1.201338
1.2015358
1.2017054
1.201848
1.2019633
1.2020614
1.202138
1.2021995
1.2022381
1.202264
1.1835204
1.1846978
1.1858725
1.1870567
1.1882162
1.1893311
1.1904313
1.1915083
1.192562
1.1935957
1.1946146
1.1956217
1.1966186
1.1976276
1.1985867
1.1994555
1.2001816
1.2004916
1.2006681
1.2009079
1.2011528
1.2013713
1.2015635
1.2017283
1.2018669
1.2019791
1.2020747
1.2021494
1.2022094
1.2022471
1.2022724
1.1832712
1.1845452
1.1858022
1.1870391
1.1882416
1.1894099
1.1905462
1.1916431
1.1927102
1.1937524
1.1947769
1.1957892
1.1967956
1.1977766
1.1987102
1.1995776
1.2002647
1.2005457
1.2007138
1.2009519
1.2011921
1.2014043
1.201591
1.201751
1.2018857
1.2019948
1.202088
1.2021608
1.2022194
1.202256
1.2022808
1.1832991
1.1846097
1.1858883
1.1871401
1.18836
1.1895445
1.1906972
1.1918107
1.1928808
1.1939238
1.1949492
1.1959641
1.1969437
1.1978922
1.1988355
1.1996888
1.200344
1.2005987
1.2007604
1.2009962
1.2012312
1.2014369
1.2016182
1.2017735
1.2019044
1.2020105
1.2021013
1.2021722
1.2022294
1.202265
1.2022892
1.183595
1.1848956
1.1861418
1.1873664
1.1885706
1.1897464
1.1908986
1.1920162
1.1930862
1.1941203
1.1951313
1.1961107
1.197067
1.1980127
1.1989524
1.1997911
1.2004227
1.2006513
1.2008081
1.2010406
1.2012699
1.2014693
1.2016452
1.2017959
1.201923
1.2020261
1.2021146
1.2021836
1.2022395
1.202274
1.2022977
1.1839899
1.1853036
1.1865238
1.1877097
1.1888786
1.1900283
1.1911614
1.1922482
1.193295
1.1942972
1.1952581
1.1962239
1.1972014
1.1981333
1.1990611
1.1998969
1.2005008
1.2007044
1.2008567
1.2010849
1.2013081
1.2015012
1.2016718
1.201818
1.2019414
1.2020417
1.2021278
1.202195
1.2022495
1.2022831
1.2023062
1.1843824
1.1856849
1.18691
1.1880876
1.1892279
1.1903362
1.1914232
1.1924381
1.193417
1.194406
1.1954014
1.1963737
1.1973378
1.1982499
1.1991653
1.2000018
1.2005765
1.2007586
1.2009056
1.2011289
1.2013459
1.2015326
1.2016981
1.2018398
1.2019596
1.202057
1.2021409
1.2022063
1.2022595
1.2022921
1.2023147
1.1853997
1.1864353
1.1874515
1.188495
1.1895498
1.190585
1.1915756
1.1925815
1.1936138
1.1945959
1.1955693
1.1965271
1.1974718
1.198362
1.1992651
1.2001005
1.2006491
1.2008136
1.2009542
1.2011723
1.201383
1.2015636
1.2017239
1.2018613
1.2019776
1.2020723
1.2021538
1.2022176
1.2022694
1.2023012
1.2023233
1.1871382
1.1878927
1.1885985
1.1893686
1.1902095
1.1910878
1.1919714
1.1929066
1.1938764
1.1948098
1.1957444
1.196678
1.1976024
1.1984702
1.1993601
1.2001945
1.2007184
1.2008688
1.2010026
1.2012151
1.2014195
1.201594
1.2017493
1.2018824
1.2019953
1.2020873
1.2021667
1.2022288
1.2022793
1.2023102
1.2023318
1.1887279
1.1893258
1.1898269
1.1903817
1.1910203
1.1917228
1.1924637
1.1932849
1.1941697
1.195036
1.1959231
1.1968272
1.1977294
1.1985751
1.1994501
1.200285
1.2007853
1.2009241
1.2010509
1.2012573
1.2014554
1.2016239
1.2017742
1.2019032
1.2020128
1.2021022
1.2021794
1.2022399
1.2022892
1.2023192
1.2023404
1.1904564
1.1908436
1.1911161
1.1914532
1.1918901
1.1924084
1.1929944
1.193693
1.1944826
1.1952747
1.1961054
1.196974
1.1978516
1.1986768
1.1995354
1.2003728
1.2008501
1.2009791
1.2010989
1.2012986
1.2014904
1.201653
1.2017984
1.2019235
1.2020299
1.2021167
1.2021919
1.2022509
1.202299
1.2023283
1.2023489
1.1923659
1.1925028
1.1925154
1.1926077
1.1928201
1.1931377
1.1935705
1.1941355
1.1948113
1.1955252
1.1962916
1.1971176
1.1979679
1.1987752
1.1996163
1.2004558
1.2009122
1.2010321
1.2011457
1.2013385
1.2015241
1.2016811
1.2018218
1.2019432
1.2020465
1.202131
1.2022043
1.2022617
1.2023087
1.2023373
1.2023575
1.1944566
1.1943044
1.1940397
1.1938642
1.1938224
1.1939469
1.1942287
1.1946275
1.1951673
1.1957988
1.1964927
1.1972666
1.1980839
1.1988736
1.1996941
1.2005291
1.2009687
1.2010794
1.2011902
1.2013765
1.2015563
1.201708
1.2018444
1.2019624
1.2020628
1.202145
1.2022164
1.2022725
1.2023184
1.2023463
1.2023661
1.1968158
1.1963834
1.1958649
1.1954004
1.195097
1.1949859
1.1950401
1.195254
1.1956294
1.1961462
1.1967483
1.1974523
1.1982222
1.1989858
1.1997754
1.2005911
1.201016
1.2011191
1.201233
1.2014137
1.2015879
1.2017345
1.2018667
1.2019813
1.2020789
1.202159
1.2022285
1.2022832
1.2023281
1.2023553
1.2023747
1.1992196
1.19869
1.1981168
1.1974438
1.1968352
1.1963983
1.1961585
1.1961248
1.1962899
1.1966209
1.1970942
1.1977018
1.198403
1.1991299
1.1998763
1.2006605
1.2010644
1.201163
1.2012802
1.2014539
1.2016214
1.2017624
1.2018898
1.2020007
1.2020953
1.202173
1.2022406
1.2022938
1.2023376
1.2023642
1.2023832
1.1888108
1.189152
1.1895253
1.1898805
1.1901961
1.1904979
1.1908436
1.1912729
1.1917681
1.1923806
1.1931017
1.1939169
1.1948115
1.1957634
1.196739
1.1977842
1.1987165
1.1996433
1.2001988
1.2004835
1.2007381
1.2010024
1.2012557
1.2014758
1.2016605
1.2018087
1.201932
1.2020281
1.202104
1.2021526
1.2021847
1.1889974
1.189386
1.189754
1.1900783
1.1903719
1.1906693
1.1910048
1.191381
1.191846
1.1924272
1.1931179
1.1939069
1.1947804
1.1957185
1.1966885
1.197727
1.1986848
1.1995901
1.2001877
1.2004674
1.2007187
1.2009833
1.201239
1.2014618
1.2016487
1.2017989
1.2019238
1.2020211
1.2020979
1.2021472
1.2021786
1.1890328
1.1894
1.1897829
1.1901381
1.1904568
1.1907671
1.1911052
1.1914791
1.1919369
1.1924984
1.1931649
1.1939296
1.1947806
1.1957009
1.1966608
1.1976845
1.1986538
1.19956
1.2001748
1.2004581
1.2007055
1.2009687
1.2012255
1.2014498
1.2016383
1.2017899
1.201916
1.2020143
1.2020918
1.2021416
1.2021714
1.1890609
1.1894054
1.1898111
1.1901942
1.1905407
1.1908715
1.1912191
1.1916025
1.1920564
1.1926003
1.1932425
1.1939809
1.1948062
1.1957039
1.1966478
1.1976482
1.1986183
1.1995248
1.2001537
1.2004456
1.200691
1.2009532
1.2012113
1.2014372
1.2016272
1.2017803
1.2019076
1.2020069
1.2020852
1.2021357
1.2021623
1.1891129
1.1894488
1.1898699
1.1902672
1.1906309
1.1909785
1.1913372
1.1917287
1.1921794
1.1927085
1.1933287
1.1940416
1.1948409
1.1957145
1.1966396
1.1976123
1.1985791
1.1994857
1.2001273
1.2004305
1.2006743
1.2009359
1.2011954
1.2014232
1.201615
1.2017698
1.2018984
1.2019989
1.2020781
1.2021293
1.2021545
1.1891751
1.1894952
1.189923
1.1903339
1.190713
1.1910763
1.1914471
1.1918463
1.1922957
1.1928139
1.1934153
1.1941047
1.194879
1.1957283
1.1966332
1.1975766
1.1985373
1.1994468
1.2000978
1.2004141
1.2006567
1.2009171
1.2011781
1.2014081
1.2016019
1.2017585
1.2018885
1.2019903
1.2020704
1.2021224
1.2021482
1.1892325
1.1895356
1.1899626
1.1903862
1.1907824
1.1911629
1.1915476
1.1919559
1.1924065
1.192917
1.1935027
1.1941707
1.1949208
1.1957457
1.1966294
1.1975441
1.1984994
1.1994086
1.2000704
1.2003966
1.2006392
1.2008979
1.2011603
1.2013922
1.2015879
1.2017464
1.201878
1.2019812
1.2020623
1.2021151
1.2021436
1.1892867
1.1895672
1.1899939
1.1904306
1.1908444
1.1912429
1.1916427
1.1920612
1.1925148
1.1930202
1.1935924
1.1942408
1.1949677
1.1957681
1.1966295
1.1975203
1.1984653
1.1993662
1.2000472
1.2003795
1.200622
1.2008785
1.2011419
1.2013757
1.2015734
1.2017337
1.2018669
1.2019715
1.2020536
1.2021073
1.2021341
1.1893383
1.1896169
1.1900352
1.1904776
1.1909059
1.1913213
1.191736
1.192165
1.1926228
1.1931246
1.1936855
1.1943157
1.1950201
1.1957961
1.1966344
1.1975056
1.198429
1.1993172
1.200024
1.2003636
1.2006053
1.2008588
1.2011231
1.2013587
1.2015582
1.2017204
1.2018553
1.2019612
1.2020445
1.202099
1.2021233
1.1893946
1.1896752
1.190086
1.1905324
1.1909731
1.1914034
1.1918319
1.1922708
1.192733
1.1932323
1.1937829
1.1943963
1.1950788
1.1958304
1.1966448
1.197497
1.1983948
1.1992689
1.1999963
1.2003488
1.2005892
1.200839
1.2011038
1.201341
1.2015423
1.2017064
1.2018429
1.2019504
1.2020347
1.2020902
1.202114
1.1894648
1.1897456
1.190152
1.1906019
1.1910526
1.1914955
1.1919355
1.1923826
1.1928484
1.1933451
1.1938862
1.1944833
1.1951444
1.1958716
1.1966613
1.1974931
1.1983691
1.1992266
1.1999626
1.2003351
1.2005739
1.2008192
1.2010842
1.2013228
1.2015257
1.2016918
1.2018299
1.2019389
1.2020244
1.2020808
1.2021051
1.1895661
1.1898483
1.1902479
1.1906971
1.1911534
1.1916046
1.1920528
1.1925056
1.1929728
1.1934658
1.1939968
1.1945778
1.1952176
1.1959203
1.1966844
1.1974943
1.1983495
1.1991912
1.199928
1.2003231
1.2005598
1.2007996
1.2010643
1.201304
1.2015085
1.2016764
1.2018162
1.2019267
1.2020134
1.2020708
1.2020961
1.1897145
1.1899901
1.1903844
1.1908291
1.1912853
1.1917394
1.1921908
1.192645
1.1931105
1.1935973
1.1941171
1.1946813
1.1952994
1.1959771
1.1967148
1.1975013
1.1983341
1.1991544
1.1998915
1.2003144
1.2005472
1.2007805
1.2010443
1.2012848
1.2014906
1.2016603
1.2018018
1.2019139
1.2020018
1.2020603
1.2020865
1.1899275
1.1902122
1.1905884
1.1910149
1.1914602
1.1919087
1.1923563
1.1928063
1.1932656
1.1937429
1.1942491
1.1947952
1.1953909
1.1960428
1.1967533
1.1975148
1.1983231
1.1991209
1.1998525
1.2003059
1.2005363
1.2007621
1.2010243
1.2012653
1.2014722
1.2016436
1.2017868
1.2019004
1.2019895
1.2020491
1.2020762
1.1902086
1.1904848
1.1908429
1.1912504
1.1916803
1.1921165
1.1925536
1.1929934
1.1934414
1.1939054
1.1943951
1.1949211
1.195493
1.1961183
1.1968004
1.1975351
1.1983173
1.1990912
1.199815
1.2002964
1.2005271
1.2007448
1.2010046
1.2012455
1.2014532
1.2016262
1.201771
1.2018862
1.2019765
1.2020372
1.202065
1.1905556
1.1908137
1.1911514
1.1915364
1.1919455
1.1923636
1.1927844
1.1932084
1.1936401
1.1940866
1.1945566
1.1950601
1.1956067
1.1962041
1.1968567
1.1975626
1.1983147
1.1990627
1.19978
1.200288
1.2005199
1.200729
1.2009854
1.2012257
1.2014339
1.2016083
1.2017546
1.2018713
1.2019629
1.2020246
1.2020531
1.1909767
1.1912108
1.1915188
1.1918731
1.1922545
1.1926486
1.1930476
1.1934507
1.1938617
1.1942868
1.1947342
1.1952128
1.1957325
1.1963008
1.1969227
1.1975974
1.1983133
1.1990339
1.1997515
1.2002821
1.2005146
1.200715
1.200967
1.2012059
1.2014142
1.2015897
1.2017375
1.2018557
1.2019485
1.2020113
1.2020405
1.1914372
1.1916484
1.1919247
1.1922456
1.1925966
1.1929634
1.1933373
1.1937164
1.1941036
1.1945046
1.194927
1.1953793
1.1958706
1.1964087
1.1969988
1.1976403
1.1983175
1.1990164
1.1997365
1.2002789
1.2005119
1.2007034
1.2009497
1.2011866
1.2013943
1.2015708
1.2017198
1.2018394
1.2019334
1.2019973
1.2020272
1.1919117
1.1920977
1.1923431
1.1926318
1.192953
1.193293
1.193642
1.193997
1.1943599
1.1947361
1.1951327
1.195558
1.1960204
1.1965279
1.1970855
1.1976937
1.1983391
1.1990182
1.1997285
1.2002733
1.2005115
1.2006949
1.2009336
1.2011675
1.2013745
1.2015514
1.2017015
1.2018224
1.2019176
1.2019826
1.2020132
1.1923842
1.1925451
1.1927599
1.193017
1.1933087
1.1936231
1.1939493
1.1942824
1.194623
1.1949758
1.1953477
1.1957464
1.1961804
1.1966576
1.1971829
1.1977581
1.1983745
1.1990259
1.1997054
1.2002645
1.2005169
1.2006897
1.2009196
1.2011494
1.2013546
1.2015318
1.2016827
1.2018049
1.2019011
1.2019671
1.2019984
1.1928345
1.1929734
1.1931594
1.193386
1.1936498
1.1939407
1.1942472
1.1945621
1.1948843
1.1952173
1.1955672
1.1959416
1.1963488
1.1967964
1.1972903
1.197833
1.1984191
1.1990409
1.1996887
1.2002566
1.2005273
1.2006884
1.2009067
1.2011321
1.2013356
1.2015121
1.2016634
1.2017867
1.2018838
1.2019508
1.2019828
1.193242
1.1933643
1.1935259
1.1937257
1.1939646
1.1942352
1.1945257
1.1948271
1.195136
1.195454
1.1957862
1.1961399
1.1965231
1.1969434
1.1974071
1.1979177
1.1984726
1.1990648
1.1996856
1.2002454
1.2005398
1.2006916
1.2008978
1.2011161
1.2013162
1.2014924
1.201644
1.201768
1.201866
1.2019338
1.2019665
1.1936118
1.1937135
1.1938589
1.194039
1.1942557
1.1945071
1.1947834
1.1950743
1.195374
1.1956818
1.1960012
1.1963384
1.1967011
1.1970969
1.1975323
1.1980118
1.1985352
1.1990973
1.1996896
1.2002423
1.2005547
1.2006997
1.2008894
1.2011019
1.201299
1.2014729
1.2016242
1.2017488
1.2018474
1.2019161
1.2019494
1.1939565
1.1940446
1.1941665
1.1943242
1.194523
1.194759
1.1950233
1.1953058
1.1955992
1.1959004
1.196211
1.1965358
1.1968814
1.1972554
1.1976649
1.1981148
1.1986068
1.1991373
1.1996941
1.2002257
1.2005758
1.2007134
1.2008865
1.2010894
1.2012813
1.2014537
1.2016044
1.2017293
1.2018284
1.2018977
1.2019315
1.1942593
1.1943409
1.1944552
1.1946016
1.1947817
1.1949996
1.1952527
1.1955279
1.1958162
1.1961127
1.196417
1.1967321
1.1970636
1.1974187
1.1978043
1.1982262
1.1986873
1.1991851
1.1997067
1.2002324
1.2006078
1.2007353
1.2008847
1.2010802
1.2012652
1.2014348
1.2015848
1.2017096
1.2018087
1.2018785
1.2019129
1.1945608
1.1946337
1.1947359
1.1948711
1.195045
1.1952547
1.1954942
1.1957575
1.196037
1.1963268
1.1966241
1.1969302
1.197249
1.1975867
1.19795
1.1983453
1.1987767
1.1992434
1.1997377
1.2002506
1.2006379
1.2007558
1.2008874
1.2010738
1.2012532
1.201417
1.2015652
1.2016896
1.2017888
1.2018589
1.2018936
1.1948931
1.1949618
1.1950562
1.1951783
1.1953355
1.195528
1.1957514
1.1960009
1.1962689
1.1965491
1.1968374
1.1971332
1.1974391
1.1977599
1.1981019
1.1984716
1.1988741
1.1993107
1.1997777
1.2002674
1.200659
1.2007773
1.2009035
1.2010738
1.2012361
1.2013999
1.2015468
1.2016699
1.2017685
1.2018386
1.2018737
1.1952595
1.1953236
1.1954109
1.1955222
1.19566
1.1958302
1.1960359
1.1962682
1.1965203
1.1967862
1.1970615
1.1973443
1.1976355
1.1979389
1.1982597
1.1986044
1.1989785
1.1993852
1.1998229
1.2002854
1.2006812
1.2008073
1.2009132
1.201071
1.2012297
1.2013843
1.2015281
1.2016502
1.2017481
1.2018181
1.2018533
1.1956568
1.195714
1.1957905
1.1958879
1.1960136
1.1961696
1.196353
1.1965622
1.1967931
1.1970399
1.1972979
1.1975642
1.1978384
1.198123
1.1984222
1.1987419
1.1990882
1.1994652
1.1998736
1.2003102
1.2006989
1.2008361
1.2009237
1.2010697
1.2012277
1.2013759
1.2015117
1.201631
1.2017279
1.2017971
1.2018322
1.1960813
1.1961319
1.1961993
1.196283
1.1963909
1.1965258
1.1966856
1.1968708
1.1970786
1.1973041
1.1975423
1.1977897
1.1980451
1.1983097
1.1985869
1.198882
1.1992009
1.1995488
1.1999272
1.2003344
1.2007143
1.2008703
1.2009469
1.2010801
1.2012213
1.2013618
1.2014968
1.2016124
1.2017076
1.2017762
1.2018111
1.1965169
1.1965584
1.1966155
1.1966889
1.1967808
1.1968929
1.1970284
1.197188
1.1973699
1.197571
1.1977871
1.1980142
1.1982499
1.1984943
1.1987498
1.1990211
1.199314
1.199634
1.1999839
1.2003628
1.2007365
1.2009134
1.2009741
1.2010862
1.2012193
1.2013552
1.201481
1.2015943
1.201688
1.2017552
1.2017895
1.1969608
1.1969957
1.1970416
1.1970966
1.1971672
1.1972566
1.1973668
1.1974993
1.1976541
1.1978294
1.1980219
1.1982279
1.1984442
1.1986694
1.1989049
1.1991545
1.1994236
1.199718
1.200042
1.2003961
1.2007589
1.2009554
1.2010004
1.2010959
1.2012209
1.2013527
1.2014712
1.2015785
1.2016687
1.2017345
1.2017682
1.1973936
1.1974202
1.1974571
1.1975002
1.1975534
1.1976205
1.1977044
1.197808
1.1979328
1.1980788
1.1982444
1.1984267
1.1986224
1.198829
1.1990464
1.199277
1.1995253
1.1997973
1.2000977
1.2004285
1.2007793
1.2009932
1.2010323
1.2011127
1.20123
1.201351
1.2014605
1.2015625
1.2016503
1.2017143
1.201747
1.1977495
1.1977656
1.1977979
1.1978468
1.197905
1.1979641
1.1980262
1.198103
1.1981988
1.1983151
1.198452
1.1986084
1.1987817
1.1989695
1.1991701
1.1993844
1.1996155
1.1998686
1.2001485
1.2004586
1.2007943
1.2010291
1.2010698
1.2011383
1.2012426
1.2013469
1.2014517
1.2015496
1.2016328
1.2016945
1.2017262
1.1980572
1.1980669
1.1980805
1.198099
1.1981267
1.1981735
1.1982408
1.1983221
1.19841
1.1985066
1.198622
1.1987576
1.1989123
1.199084
1.1992712
1.1994731
1.1996915
1.1999302
1.2001938
1.2004865
1.2008075
1.2010645
1.2011087
1.2011637
1.2012516
1.2013498
1.2014516
1.2015401
1.2016165
1.2016758
1.2017061
1.1982695
1.198285
1.1983042
1.1983251
1.1983469
1.1983724
1.1984061
1.1984529
1.1985236
1.1986202
1.1987312
1.1988563
1.1990007
1.1991638
1.199344
1.1995399
1.1997515
1.1999813
1.2002333
1.2005122
1.2008197
1.2010914
1.2011494
1.2011905
1.2012697
1.201363
1.2014471
1.2015274
1.2016019
1.201658
1.2016869
1.1983384
1.1983604
1.1983837
1.1984097
1.1984397
1.1984743
1.1985147
1.1985623
1.1986202
1.1986937
1.198791
1.1989131
1.1990551
1.1992163
1.1993947
1.1995888
1.1997981
1.2000234
1.2002679
1.2005363
1.2008315
1.2011141
1.2011927
1.2012236
1.2012936
1.2013684
1.2014451
1.2015226
1.2015896
1.2016414
1.2016689
1.1983382
1.1983598
1.1983841
1.1984118
1.1984442
1.1984828
1.1985294
1.1985859
1.1986548
1.1987381
1.1988382
1.1989577
1.199098
1.1992583
1.1994364
1.1996299
1.1998377
1.2000605
1.2003
1.2005599
1.2008443
1.2011317
1.2012356
1.2012589
1.2013125
1.2013781
1.2014537
1.2015179
1.2015771
1.2016274
1.2016525
1.1983788
1.198399
1.1984216
1.1984476
1.1984789
1.1985171
1.1985639
1.1986214
1.1986916
1.1987766
1.1988755
1.1989922
1.1991338
1.199297
1.1994768
1.1996707
1.1998775
1.2000974
1.200332
1.2005842
1.2008592
1.2011511
1.2012772
1.201294
1.2013377
1.201397
1.2014553
1.2015147
1.2015711
1.2016144
1.2016371
1.1985014
1.1985166
1.1985341
1.1985546
1.1985799
1.1986116
1.1986516
1.1987019
1.1987646
1.1988414
1.1989386
1.1990601
1.1991995
1.1993556
1.1995294
1.1997188
1.1999216
1.2001367
1.200365
1.2006094
1.2008753
1.2011644
1.2013166
1.2013294
1.2013646
1.2014111
1.2014603
1.2015161
1.2015663
1.2016046
1.2016251