/*--------------------------------*- C++ -*----------------------------------*\
| =========                 |                                                 |
| \\      /  F ield         | OpenFOAM: The Open Source CFD Toolbox           |
|  \\    /   O peration     | Version:  2406                                  |
|   \\  /    A nd           | Website:  www.openfoam.com                      |
|    \\/     M anipulation  |                                                 |
\*---------------------------------------------------------------------------*/
FoamFile
{
    version     2.0;
    format      ascii;
    arch        "LSB;label=32;scalar=64";
    class       volScalarField;
    location    "0.055";
    object      T;
}
// * * * * * * * * * * * * * * * * * * * * * * * * * * * * * * * * * * * * * //

dimensions      [0 0 0 1 0 0 0];

internalField   nonuniform List<scalar> 
8260
(
292.77323
292.77444
292.77661
292.78414
292.79562
292.80922
292.82329
292.83626
292.84643
292.85246
292.85323
292.8478
292.83588
292.81792
292.79665
292.77925
292.8011
292.87409
292.92207
292.94552
292.96246
292.97716
292.98951
292.9998
293.00878
293.01662
293.02317
293.0282
293.03231
293.03481
293.0365
292.8392
292.83401
292.83165
292.83355
292.83837
292.84512
292.85275
292.85992
292.86516
292.86707
292.86455
292.85653
292.84263
292.82315
292.80158
292.78585
292.81268
292.8855
292.92856
292.94975
292.96568
292.9797
292.99152
293.0014
293.01007
293.01765
293.02401
293.0289
293.0329
293.03533
293.03698
292.91001
292.90019
292.89263
292.88842
292.88655
292.88644
292.88739
292.88832
292.88801
292.88531
292.87889
292.86773
292.85137
292.82998
292.80777
292.79375
292.8266
292.89762
292.93531
292.95436
292.96927
292.98251
292.99377
293.00321
293.01154
293.01882
293.02498
293.0297
293.03359
293.03594
293.03754
292.98225
292.96845
292.95608
292.94621
292.93818
292.93161
292.92607
292.92079
292.91476
292.90694
292.89614
292.88138
292.86213
292.83853
292.8155
292.80368
292.84341
292.91089
292.94284
292.95968
292.97344
292.98581
292.99639
293.00532
293.01324
293.02017
293.02609
293.03062
293.03438
293.03664
293.03818
293.05394
293.03691
293.02054
293.00577
292.99222
292.97971
292.96803
292.95666
292.94483
292.93166
292.91615
292.89741
292.8749
292.8489
292.82506
292.81685
292.86368
292.92515
292.9512
292.96574
292.9782
292.98956
292.99938
293.00772
293.01517
293.02171
293.02735
293.03167
293.03528
293.03743
293.03891
293.12399
293.10466
293.0852
293.0664
293.04811
293.0303
293.01292
292.99571
292.97814
292.95952
292.93907
292.91602
292.88993
292.86138
292.83703
292.83446
292.88771
292.94027
292.9605
292.97263
292.98364
292.99385
293.0028
293.01046
293.01737
293.02347
293.02879
293.03286
293.0363
293.03833
293.03973
293.19128
293.17048
293.1489
293.12703
293.10488
293.08257
293.06014
293.03754
293.01448
292.99048
292.96499
292.93742
292.90749
292.87642
292.85235
292.85809
292.91519
292.95613
292.9708
292.98045
292.98984
292.99874
293.0067
293.01358
293.01988
293.02547
293.03042
293.03422
293.03745
293.03935
293.04067
293.2544
293.23291
293.21003
293.18608
293.16112
293.13527
293.10867
293.08138
293.05332
293.02424
292.99382
292.9617
292.92784
292.89469
292.87266
292.8897
292.9451
292.97273
292.98223
292.98931
292.99688
293.0043
293.01115
293.01716
293.02273
293.02774
293.03227
293.03577
293.03877
293.04052
293.04173
293.31198
293.2905
293.26713
293.24205
293.21528
293.18693
293.15715
293.12607
293.09376
293.06018
293.02523
292.98881
292.95127
292.91721
292.9006
292.93067
292.97534
292.99005
292.99494
292.99935
293.00485
293.01062
293.0162
293.02123
293.02597
293.03031
293.03437
293.03754
293.04026
293.04184
293.04293
293.3629
293.34187
293.31871
293.29332
293.26565
293.23581
293.20392
293.17013
293.13458
293.09738
293.05865
293.01861
292.97838
292.94573
292.94115
292.9788
293.00409
293.00836
293.0091
293.01071
293.01386
293.01778
293.02193
293.02584
293.02967
293.03325
293.03675
293.03955
293.04197
293.04336
293.0443
293.40622
293.38568
293.36292
293.33777
293.3101
293.27986
293.24707
293.21182
293.17426
293.13462
293.09324
293.05091
293.01065
292.98586
292.99895
293.02594
293.0311
293.02788
293.02474
293.02354
293.02398
293.02585
293.02839
293.03104
293.03385
293.03659
293.03946
293.04184
293.04392
293.04508
293.04585
293.44009
293.4207
293.39889
293.37456
293.34752
293.31765
293.28494
293.24943
293.21124
293.17069
293.12857
293.08742
293.05475
293.04762
293.06305
293.06577
293.0569
293.04865
293.04203
293.03781
293.03531
293.03496
293.0357
293.0369
293.03859
293.04042
293.04255
293.04444
293.04613
293.04706
293.04761
293.46239
293.44396
293.42334
293.40054
293.37519
293.34703
293.31592
293.28192
293.24538
293.20713
293.16917
293.13721
293.12219
293.12296
293.11507
293.09813
293.08302
293.07035
293.06061
293.05345
293.04802
293.04513
293.04398
293.04351
293.04394
293.04479
293.0461
293.04739
293.04865
293.04932
293.04964
293.47362
293.45813
293.44067
293.42093
293.39856
293.37322
293.34504
293.31476
293.28363
293.25363
293.22787
293.20971
293.19688
293.17717
293.15155
293.12849
293.10876
293.09275
293.08005
293.07013
293.06189
293.05651
293.05324
293.05099
293.04996
293.0497
293.05016
293.05076
293.05151
293.05189
293.05198
293.48873
293.47442
293.45771
293.43872
293.4184
293.3979
293.377
293.35526
293.33312
293.31151
293.29049
293.26796
293.24009
293.2098
293.18185
293.15669
293.13464
293.11531
293.09979
293.08726
293.07667
293.0688
293.06346
293.05937
293.05668
293.05517
293.05473
293.05457
293.05473
293.05478
293.05467
293.49349
293.48639
293.47892
293.47051
293.45929
293.44366
293.42383
293.40019
293.37514
293.35028
293.324
293.29458
293.26402
293.235
293.20781
293.18231
293.15898
293.13772
293.11957
293.10447
293.0916
293.08163
293.07442
293.06852
293.06409
293.06119
293.05982
293.05886
293.05836
293.05801
293.05776
293.4714
293.46321
293.45405
293.44419
293.43381
293.42338
293.41387
293.40593
293.3941
293.37218
293.34333
293.31495
293.28682
293.25862
293.2295
293.20311
293.17997
293.15845
293.13884
293.1214
293.10646
293.0945
293.08573
293.07821
293.07219
293.06781
293.06539
293.06363
293.06242
293.06158
293.06127
293.45833
293.45306
293.44696
293.4396
293.43074
293.42003
293.40659
293.39032
293.37419
293.36164
293.35016
293.32998
293.30433
293.278
293.25112
293.22216
293.1967
293.17546
293.15625
293.13801
293.12118
293.10729
293.09716
293.0883
293.08091
293.0751
293.07145
293.06887
293.06694
293.06554
293.0652
293.42938
293.42454
293.41908
293.41291
293.40602
293.39847
293.39035
293.38148
293.37095
293.35705
293.34092
293.32868
293.3159
293.29371
293.26775
293.24172
293.21562
293.1906
293.17064
293.15314
293.13615
293.12033
293.10887
293.09882
293.09013
293.08314
293.07806
293.07454
293.07193
293.06995
293.06956
293.41044
293.40725
293.40356
293.39921
293.39405
293.38785
293.38037
293.37143
293.36121
293.3502
293.33791
293.32163
293.30443
293.29346
293.27917
293.25735
293.23266
293.20905
293.18474
293.16612
293.15031
293.13398
293.12113
293.10976
293.0997
293.09179
293.08532
293.08068
293.07741
293.07485
293.07433
293.38268
293.37972
293.37634
293.37248
293.36807
293.3631
293.35752
293.35129
293.3442
293.33585
293.32629
293.31678
293.30615
293.28927
293.27583
293.26568
293.24641
293.22451
293.20132
293.17892
293.16196
293.14715
293.13343
293.12104
293.10952
293.10061
293.09318
293.08735
293.08335
293.0803
293.07951
293.36402
293.36216
293.36001
293.35746
293.35443
293.35079
293.34642
293.34118
293.33497
293.32779
293.3195
293.30946
293.29848
293.28881
293.27382
293.25904
293.25102
293.23526
293.2142
293.19376
293.17298
293.15799
293.14478
293.13196
293.1194
293.10951
293.10152
293.09461
293.08977
293.0863
293.08508
293.33811
293.33637
293.33437
293.33206
293.32941
293.3264
293.32301
293.31922
293.315
293.31027
293.30495
293.2991
293.29208
293.28287
293.27377
293.26015
293.24442
293.23419
293.22143
293.20465
293.18614
293.16848
293.15439
293.14167
293.12963
293.11874
293.11015
293.10247
293.0967
293.09283
293.09106
293.31959
293.3186
293.31744
293.31606
293.31439
293.31236
293.30987
293.30683
293.30319
293.29887
293.29376
293.28768
293.28058
293.2726
293.26328
293.25533
293.24537
293.23339
293.22556
293.21222
293.19541
293.18002
293.16395
293.15078
293.14022
293.12855
293.11889
293.1109
293.10415
293.09978
293.0975
293.29501
293.29398
293.29278
293.2914
293.28983
293.28807
293.2861
293.28387
293.28132
293.27836
293.27492
293.27101
293.26662
293.26165
293.25624
293.24936
293.24269
293.23378
293.22128
293.21339
293.20321
293.18922
293.17473
293.16055
293.15013
293.13872
293.12778
293.11938
293.11204
293.10711
293.1044
293.28047
293.28004
293.27951
293.27886
293.27804
293.27701
293.27573
293.27416
293.27225
293.26989
293.26703
293.26353
293.25912
293.25384
293.24778
293.24159
293.23451
293.22779
293.22126
293.21219
293.20709
293.19729
293.18285
293.16955
293.15811
293.1475
293.13655
293.12757
293.12013
293.11476
293.11174
293.26029
293.25971
293.25905
293.25831
293.25746
293.25651
293.25543
293.25419
293.25277
293.25117
293.24936
293.24738
293.24543
293.24348
293.24124
293.23796
293.23364
293.22775
293.22189
293.21392
293.20255
293.19456
293.1864
293.1751
293.16399
293.15418
293.14454
293.13555
293.12828
293.12265
293.11942
293.25096
293.25065
293.25028
293.24984
293.2493
293.24866
293.24791
293.24703
293.24602
293.24483
293.24345
293.24179
293.23976
293.23719
293.23395
293.23031
293.22627
293.22138
293.21513
293.21006
293.20453
293.19614
293.18741
293.17908
293.16986
293.1604
293.15192
293.14351
293.1363
293.13068
293.12731
293.2351
293.23485
293.23456
293.23423
293.23383
293.23336
293.23282
293.23217
293.2314
293.23049
293.2294
293.22812
293.22667
293.2251
293.22339
293.22126
293.21858
293.21556
293.21204
293.20748
293.20301
293.19807
293.19163
293.18376
293.17497
293.16707
293.15911
293.15139
293.1442
293.13865
293.13524
293.22893
293.22879
293.22861
293.2284
293.22813
293.22781
293.22741
293.22692
293.22632
293.22559
293.22469
293.22357
293.2222
293.22062
293.21867
293.21647
293.21393
293.21097
293.20772
293.20406
293.1997
293.19493
293.19086
293.1862
293.17898
293.17176
293.16439
293.15724
293.1507
293.14536
293.14209
293.22153
293.22137
293.22117
293.22095
293.22068
293.22036
293.21999
293.21955
293.21904
293.21845
293.21777
293.21698
293.21602
293.21478
293.21333
293.21159
293.20964
293.20749
293.20494
293.20192
293.19836
293.19432
293.18961
293.18512
293.18067
293.17449
293.16783
293.1612
293.15508
293.15004
293.14691
293.86809
293.7464
293.62235
293.50796
293.4087
293.3214
293.24226
293.17095
293.10515
293.04593
292.99303
292.94585
292.90311
292.8634
292.82495
292.7851
292.74515
292.71588
292.73128
292.79937
292.86059
292.89869
292.92548
292.94648
292.96428
292.97974
292.99201
293.00173
293.00903
293.01385
293.01693
293.6982
293.5859
293.49257
293.40997
293.33221
293.25786
293.18801
293.12373
293.0645
293.01149
292.96436
292.92219
292.88359
292.84721
292.81124
292.77373
292.73583
292.71329
292.73758
292.81005
292.86769
292.90304
292.92867
292.94903
292.96636
292.98143
292.9934
293.00288
293.01002
293.01473
293.01759
293.63335
293.53675
293.44815
293.36411
293.28448
293.2108
293.14393
293.08369
293.02982
292.98217
292.93995
292.90201
292.86688
292.83329
292.7993
292.76391
292.72805
292.71213
292.74485
292.81987
292.87364
292.9068
292.93155
292.95138
292.96829
292.98301
292.99471
293.00397
293.01096
293.01557
293.01834
293.56322
293.46888
293.38263
293.3024
293.22816
293.16051
293.09976
293.04563
292.99772
292.9555
292.91801
292.88402
292.85207
292.82097
292.78867
292.75524
292.72209
292.71195
292.75306
292.8295
292.87938
292.91062
292.93453
292.9538
292.97027
292.98463
292.99604
293.00507
293.01192
293.01641
293.01911
293.48271
293.394
293.31405
293.24014
293.17233
293.11127
293.05709
293.00938
292.96751
292.93068
292.89779
292.86758
292.83862
292.80981
292.77912
292.74757
292.71794
292.71278
292.76269
292.83876
292.88474
292.91433
292.93746
292.95619
292.97224
292.98624
292.99737
293.00618
293.01287
293.01726
293.01991
293.39199
293.31328
293.24168
293.17556
293.11562
293.06238
293.01564
292.97483
292.93917
292.90769
292.87925
292.8526
292.82645
292.79977
292.77067
292.74098
292.71514
292.7147
292.7735
292.84753
292.88981
292.91798
292.94039
292.95859
292.97421
292.98786
292.99871
293.00729
293.01384
293.01812
293.0207
293.2961
293.22803
293.16596
293.10937
293.05889
293.01453
292.97588
292.94227
292.91284
292.8866
292.86242
292.83913
292.81558
292.79087
292.76337
292.73547
292.71296
292.71788
292.78511
292.85568
292.8946
292.92156
292.94327
292.96096
292.97617
292.98947
293.00004
293.00841
293.0148
293.01898
293.02151
293.19157
293.13693
293.08734
293.04263
293.00301
292.96833
292.93817
292.91188
292.88862
292.86743
292.84729
292.82714
292.80601
292.78306
292.75712
292.73105
292.71132
292.72286
292.79704
292.8632
292.89919
292.92509
292.94614
292.96332
292.97813
292.99108
293.00138
293.00953
293.01578
293.01984
293.02232
293.08205
293.04365
293.00879
292.97718
292.94903
292.92438
292.90285
292.88383
292.86656
292.85021
292.83387
292.81663
292.79771
292.77625
292.75192
292.72768
292.71051
292.72976
292.80873
292.87011
292.90361
292.92856
292.94897
292.96566
292.98008
292.99269
293.00272
293.01066
293.01675
293.02071
293.02313
292.97404
292.95248
292.93277
292.91437
292.89778
292.88323
292.87023
292.85826
292.84673
292.83495
292.82216
292.80759
292.79067
292.77057
292.74784
292.72521
292.7107
292.73827
292.81985
292.8765
292.9079
292.93199
292.95177
292.96799
292.98202
292.99428
293.00406
293.01178
293.01773
293.02158
293.02395
292.87051
292.86582
292.86054
292.85517
292.8501
292.84541
292.84058
292.83533
292.8292
292.82168
292.81216
292.80001
292.78486
292.76614
292.74502
292.72362
292.71199
292.74765
292.83025
292.88245
292.91207
292.93536
292.95453
292.97029
292.98394
292.99587
293.00539
293.0129
293.01871
293.02246
293.02477
292.77353
292.78468
292.79372
292.80115
292.80707
292.81138
292.81412
292.81513
292.81402
292.81041
292.80387
292.79389
292.78036
292.76324
292.74326
292.7229
292.71426
292.7577
292.83998
292.88804
292.91615
292.93868
292.95726
292.97258
292.98585
292.99745
293.00672
293.01403
293.01969
293.02333
293.02559
292.68681
292.71217
292.73421
292.75309
292.76887
292.78156
292.79119
292.79774
292.80116
292.80109
292.79725
292.78929
292.7776
292.76165
292.74212
292.72305
292.71745
292.76821
292.84901
292.89334
292.92014
292.94195
292.95996
292.97484
292.98774
292.99902
293.00804
293.01515
293.02067
293.02421
293.02642
292.61428
292.65075
292.68341
292.71193
292.73616
292.7561
292.77178
292.78328
292.79069
292.7938
292.79249
292.78668
292.77623
292.7608
292.74192
292.72389
292.72151
292.77891
292.85736
292.8984
292.92404
292.94516
292.96261
292.97708
292.98961
293.00057
293.00935
293.01627
293.02165
293.0251
293.02725
292.55918
292.60345
292.64349
292.67902
292.70979
292.73559
292.75636
292.7723
292.78329
292.78915
292.79006
292.78569
292.77571
292.7609
292.74265
292.72532
292.7265
292.78954
292.86506
292.90327
292.92786
292.94832
292.96524
292.97929
292.99146
293.00211
293.01066
293.01738
293.02263
293.02598
293.02808
292.51906
292.57033
292.61556
292.65572
292.69102
292.72121
292.74598
292.76555
292.77949
292.78726
292.78908
292.78551
292.77627
292.76217
292.74431
292.72764
292.73245
292.79986
292.87215
292.90797
292.9316
292.95142
292.96783
292.98147
292.99329
293.00364
293.01196
293.01849
293.02361
293.02686
293.02891
292.47979
292.54029
292.59313
292.63902
292.67865
292.71244
292.74045
292.76204
292.77718
292.78641
292.78946
292.78665
292.77807
292.76449
292.74689
292.73097
292.73926
292.80975
292.87883
292.91257
292.93529
292.95449
292.97039
292.98363
292.99511
293.00515
293.01326
293.0196
293.02459
293.02775
293.02975
292.45536
292.5159
292.57234
292.62299
292.66711
292.70458
292.73543
292.7594
292.77657
292.7873
292.79145
292.78927
292.78111
292.76785
292.75038
292.73507
292.74674
292.81919
292.88515
292.91705
292.93891
292.95751
292.97292
292.98577
292.99691
293.00666
293.01454
293.02071
293.02557
293.02863
293.03059
292.45971
292.51467
292.5678
292.61751
292.66235
292.70136
292.73399
292.75967
292.77831
292.7902
292.79515
292.79338
292.7854
292.77224
292.75477
292.73987
292.75458
292.82817
292.89115
292.92144
292.94249
292.96049
292.97542
292.98789
292.99869
293.00814
293.01582
293.0218
293.02655
293.02952
293.03143
292.47754
292.52786
292.5768
292.6233
292.66623
292.70454
292.73727
292.76345
292.78272
292.79521
292.80061
292.799
292.79096
292.77766
292.76005
292.74532
292.76258
292.83672
292.89687
292.92573
292.94601
292.96343
292.97789
292.98997
293.00044
293.00961
293.01708
293.02289
293.02752
293.0304
293.03227
292.50758
292.55201
292.59593
292.63821
292.67785
292.7139
292.74519
292.77074
292.78988
292.80235
292.80781
292.80611
292.79779
292.78411
292.76618
292.75141
292.7706
292.84488
292.90235
292.92992
292.94945
292.9663
292.98031
292.99201
293.00217
293.01105
293.01832
293.02397
293.02848
293.03128
293.03311
292.54971
292.58627
292.62366
292.66057
292.69591
292.72844
292.75714
292.78126
292.7996
292.81148
292.81661
292.8146
292.80581
292.79152
292.77312
292.75809
292.77855
292.85266
292.90754
292.93395
292.95278
292.96908
292.98266
292.99399
293.00384
293.01246
293.01955
293.02504
293.02944
293.03217
293.03395
292.60374
292.62973
292.65811
292.68804
292.7179
292.7463
292.77212
292.79411
292.81115
292.82216
292.8267
292.8242
292.81482
292.79976
292.78074
292.76523
292.78628
292.85987
292.91234
292.93774
292.95595
292.97173
292.98491
292.99591
293.00548
293.01385
293.02076
293.0261
293.03041
293.03305
293.03481
292.67477
292.68884
292.70475
292.72441
292.7466
292.76943
292.79116
292.8102
292.8251
292.83486
292.83846
292.83523
292.8251
292.80898
292.78904
292.77243
292.79311
292.86611
292.91671
292.94137
292.95903
292.97434
292.98715
292.99783
293.00713
293.01525
293.02199
293.02719
293.03139
293.03397
293.03569
293.86659
293.76563
293.64523
293.52979
293.42795
293.33935
293.25996
293.18662
293.12038
293.06038
293.00622
292.95753
292.91329
292.8722
292.83269
292.79209
292.75146
292.71952
292.72941
292.79417
292.85713
292.89634
292.92365
292.94497
292.96303
292.97872
292.99118
293.00104
293.00844
293.01334
293.01645
293.84449
293.74354
293.6278
293.51938
293.42296
293.33803
293.26179
293.19144
293.12703
293.06801
293.0141
292.96505
292.92012
292.87818
292.83782
292.79652
292.75529
292.72222
292.7284
292.79104
292.85515
292.89489
292.92242
292.94388
292.96208
292.9779
292.99046
293.00042
293.00788
293.01283
293.01596
293.82347
293.72763
293.61657
293.51342
293.42169
293.34016
293.26643
293.19816
293.13499
293.07662
293.02277
292.97328
292.9276
292.88475
292.84343
292.80136
292.75935
292.72486
292.72725
292.78729
292.85276
292.8932
292.921
292.94264
292.961
292.97697
292.98965
292.99971
293.00725
293.01227
293.01517
293.80429
293.71621
293.60946
293.50991
293.4214
293.34246
293.27085
293.20428
293.14235
293.08477
293.03121
292.98149
292.93522
292.89157
292.84937
292.8066
292.76382
292.7278
292.7265
292.78332
292.85004
292.89125
292.91938
292.94124
292.9598
292.97593
292.98876
292.99894
293.00657
293.01165
293.01468
293.78477
293.70507
293.60272
293.50669
293.42084
293.34423
293.27462
293.2098
293.14926
293.09266
293.03956
292.98981
292.9431
292.89875
292.85572
292.81233
292.76879
292.73112
292.7262
292.77931
292.84713
292.88915
292.91762
292.93972
292.9585
292.9748
292.98778
292.99811
293.00583
293.011
293.01411
293.76369
293.69346
293.59591
293.50296
293.41987
293.34562
293.27804
293.21505
293.156
293.10046
293.04798
292.99834
292.95131
292.90635
292.86257
292.81861
292.77432
292.73486
292.72633
292.77535
292.84413
292.887
292.9158
292.93812
292.9571
292.97362
292.98676
292.99722
293.00505
293.01029
293.01362
293.74169
293.68034
293.58883
293.49946
293.41908
293.3471
293.28147
293.22027
293.16271
293.10828
293.05648
293.00707
292.95984
292.91438
292.86991
292.82544
292.7803
292.73913
292.72688
292.77146
292.84099
292.88477
292.91392
292.93646
292.95567
292.97237
292.98568
292.99628
293.00422
293.00955
293.01275
293.72017
293.66745
293.58236
293.49659
293.41877
293.34886
293.28505
293.22555
293.16944
293.11613
293.06508
293.016
292.9687
292.92282
292.87776
292.83274
292.78681
292.74408
292.72785
292.76766
292.83774
292.88246
292.91196
292.93474
292.95417
292.97107
292.98455
292.99529
293.00333
293.00875
293.01212
293.70102
293.65491
293.57648
293.49464
293.41933
293.35133
293.28916
293.2312
293.17643
293.12419
293.0739
293.02521
292.97791
292.93172
292.88612
292.84051
292.79391
292.74989
292.72929
292.76403
292.83436
292.88008
292.90995
292.93295
292.9526
292.9697
292.98335
292.99424
293.00239
293.0079
293.01113
293.68453
293.6432
293.5714
293.49381
293.42104
293.35482
293.2941
293.23747
293.18389
293.13261
293.08303
293.03475
292.98752
292.94109
292.89502
292.84879
292.80154
292.75638
292.73137
292.76066
292.83086
292.87764
292.90787
292.93109
292.95097
292.96826
292.98208
292.99313
293.0014
293.00701
293.01029
293.67141
293.63363
293.56788
293.49453
293.42431
293.35969
293.30022
293.24467
293.19204
293.14156
293.0926
293.0447
292.99757
292.95094
292.90445
292.85762
292.8097
292.76339
292.73451
292.75768
292.82727
292.87513
292.90573
292.92916
292.94927
292.96675
292.98075
292.99195
293.00034
293.00605
293.00944
293.66262
293.62725
293.56689
293.49756
293.42967
293.36641
293.30783
293.25306
293.20111
293.15122
293.10274
293.05514
293.0081
292.96131
292.91444
292.86702
292.81841
292.77089
292.73858
292.7553
292.82357
292.87258
292.90355
292.92718
292.9475
292.96517
292.97936
292.99071
292.99922
293.00503
293.00854
293.65882
293.62521
293.56916
293.50337
293.43752
293.37529
293.31727
293.26288
293.21132
293.16177
293.11357
293.06617
293.01916
292.97222
292.92499
292.87701
292.82772
292.77906
292.74351
292.75371
292.81979
292.87
292.90133
292.92514
292.94569
292.96353
292.97789
292.9894
292.99804
293.00396
293.00753
293.65839
293.62596
293.57396
293.51169
293.44781
293.38644
293.32868
293.27435
293.2228
293.17334
293.12522
293.07787
293.03083
292.98372
292.93614
292.88761
292.83765
292.788
292.7493
292.75296
292.81595
292.8674
292.8991
292.92306
292.94381
292.96183
292.97636
292.98802
292.99679
293.00281
293.00645
293.66101
293.6302
293.58179
293.52269
293.46059
293.39986
293.34213
293.28754
293.2357
293.186
293.13775
293.0903
293.04313
292.99581
292.94789
292.89885
292.84825
292.79776
292.75609
292.75328
292.81214
292.86481
292.89686
292.92097
292.94191
292.96007
292.97476
292.98657
292.99547
293.0016
293.0053
293.66721
293.63817
293.59281
293.53647
293.47587
293.41553
293.35754
293.30244
293.25002
293.19982
293.15121
293.10351
293.05613
293.00855
292.96028
292.91076
292.8596
292.80837
292.76406
292.75454
292.80845
292.86225
292.89465
292.91884
292.93996
292.95826
292.97311
292.98505
292.99408
293.00033
293.00409
293.6746
293.64765
293.60566
293.55218
293.49309
293.43308
293.37469
293.31887
293.26568
293.21477
293.1656
293.11751
293.06982
293.02195
292.97334
292.92343
292.87191
292.82006
292.77304
292.75665
292.805
292.85974
292.89248
292.91675
292.938
292.95641
292.97139
292.98346
292.99262
292.99898
293.00282
293.68287
293.65791
293.61933
293.56897
293.51163
293.45205
293.39324
293.33662
293.28253
293.23078
293.1809
293.13228
293.08421
293.03602
292.9871
292.9369
292.88526
292.83293
292.78334
292.75944
292.80175
292.85733
292.89036
292.91464
292.93604
292.95451
292.96962
292.98181
292.99109
292.99755
293.00147
293.69212
293.66914
293.63384
293.58669
293.5313
293.47224
293.41302
293.35552
293.30043
293.24774
293.19707
293.14781
293.09928
293.05077
293.00156
292.95114
292.89931
292.84648
292.79416
292.76362
292.79917
292.85503
292.88839
292.91265
292.93409
292.95261
292.9678
292.98009
292.98949
292.99606
293.00005
293.70249
293.68118
293.64887
293.60495
293.55176
293.49348
293.4339
293.37549
293.31931
293.26559
293.21404
293.16408
293.11501
293.06617
293.01668
292.96603
292.91388
292.86014
292.80605
292.76944
292.79732
292.85289
292.88644
292.91069
292.93223
292.95069
292.96594
292.97831
292.98781
292.99448
292.99856
293.71382
293.69373
293.66398
293.62323
293.57257
293.51542
293.45574
293.39647
293.33916
293.28432
293.2318
293.18108
293.13144
293.08216
293.03242
292.98153
292.929
292.87453
292.81917
292.77689
292.7958
292.85097
292.88485
292.90888
292.93034
292.9488
292.96406
292.97648
292.98607
292.99284
292.99698
293.72631
293.70691
293.67908
293.64115
293.59319
293.53766
293.4783
293.41839
293.35999
293.30397
293.2504
293.19883
293.14854
293.09878
293.04874
292.9976
292.94471
292.88959
292.83301
292.78621
292.79538
292.84916
292.88316
292.90727
292.92873
292.94694
292.96215
292.9746
292.98426
292.99112
292.99534
293.73952
293.72062
293.69417
293.65845
293.61306
293.55957
293.5011
293.44101
293.38172
293.32455
293.26986
293.21734
293.16633
293.11603
293.0656
293.0142
292.96096
292.90523
292.84742
292.79638
292.79717
292.84768
292.88208
292.90576
292.92701
292.94511
292.96026
292.97268
292.98241
292.98933
292.99362
293.75252
293.73397
293.70853
293.6747
293.63169
293.58042
293.52339
293.4637
293.40398
293.34589
293.29013
293.23661
293.18479
293.13388
293.083
293.03128
292.97773
292.92153
292.86283
292.80861
292.79997
292.84695
292.88096
292.90477
292.92565
292.94338
292.95836
292.97074
292.98048
292.98747
292.99182
293.76254
293.74492
293.72084
293.68875
293.64811
293.5994
293.54436
293.48575
293.4262
293.36761
293.311
293.25654
293.20386
293.15227
293.10091
293.04881
292.995
292.93852
292.87935
292.82197
292.80328
292.84613
292.8804
292.90394
292.92456
292.94171
292.95648
292.96877
292.97853
292.98556
292.98996
293.76657
293.75015
293.72782
293.69821
293.66035
293.61456
293.56233
293.50581
293.44735
293.38897
293.33195
293.27679
293.22335
293.1711
293.11922
293.06675
293.01268
292.95603
292.89648
292.83699
292.8074
292.84538
292.88083
292.90398
292.92301
292.94012
292.95473
292.96683
292.97653
292.98357
292.98802
293.76281
293.74787
293.7276
293.70077
293.66655
293.62477
293.57625
293.52273
293.46633
293.40903
293.35227
293.29685
293.24291
293.19011
293.13777
293.08497
293.03067
292.97385
292.91386
292.85255
292.81378
292.84552
292.88132
292.90398
292.92267
292.93876
292.95284
292.96486
292.97452
292.98157
292.98604
293.75109
293.73795
293.72015
293.69652
293.66618
293.62876
293.58467
293.53517
293.48192
293.42671
293.37108
293.31605
293.26205
293.20898
293.15633
293.10328
293.04883
292.9919
292.93164
292.86913
292.82249
292.84631
292.88229
292.90455
292.92256
292.93756
292.95135
292.96297
292.97251
292.9795
292.984
293.73149
293.72017
293.70494
293.68488
293.65896
293.62643
293.58748
293.54277
293.49354
293.44135
293.38772
293.3338
293.28027
293.22731
293.1746
293.1215
293.06703
293.01012
292.94979
292.88653
292.83386
292.84839
292.88399
292.9052
292.92207
292.93659
292.94971
292.96109
292.97049
292.97744
292.98195
293.70635
293.69702
293.68443
293.66762
293.64576
293.61837
293.58495
293.54562
293.50115
293.45275
293.40185
293.3497
293.2972
293.24477
293.19233
293.13938
293.08509
293.0284
292.96826
292.90468
292.84724
292.85265
292.88591
292.90597
292.92217
292.93591
292.94817
292.95929
292.96855
292.97536
292.97983
293.67688
293.66941
293.65935
293.64597
293.62849
293.60604
293.57803
293.54425
293.50501
293.46105
293.41353
293.36373
293.31272
293.26119
293.2093
293.15676
293.10286
293.0466
292.98689
292.92346
292.86297
292.85708
292.88763
292.90729
292.92253
292.9355
292.94725
292.95767
292.9666
292.9733
292.97775
293.64486
293.63913
293.63149
293.62128
293.60775
293.5901
293.56752
293.53942
293.50562
293.46651
293.42293
293.376
293.32691
293.27658
293.22547
293.17352
293.12018
293.06453
293.00549
292.9425
292.88008
292.86226
292.89036
292.90919
292.92315
292.93496
292.94568
292.95595
292.96479
292.97131
292.97563
293.61502
293.60976
293.60314
293.5948
293.58415
293.57035
293.55254
293.5299
293.50184
293.46817
293.42925
293.38597
293.33944
293.29079
293.24075
293.18957
293.13693
293.08203
293.02381
292.96144
292.89706
292.86904
292.8936
292.91193
292.92406
292.93447
292.94481
292.95476
292.96302
292.96931
292.9736
293.59174
293.58698
293.58104
293.57354
293.5641
293.55225
293.53736
293.51859
293.49514
293.4664
293.43224
293.39309
293.3498
293.30342
293.25489
293.20476
293.15297
293.09893
293.04163
292.98007
292.91515
292.8772
292.89663
292.91361
292.92433
292.93479
292.94475
292.95336
292.96137
292.96749
292.97158
293.57596
293.57112
293.5655
293.55885
293.55073
293.54051
293.52745
293.51086
293.49011
293.4647
293.43425
293.39876
293.35865
293.31476
293.26801
293.21909
293.16823
293.11506
293.05873
292.9981
292.93332
292.88624
292.89975
292.91567
292.92593
292.93501
292.94371
292.95229
292.95992
292.96567
292.96967
293.57116
293.56564
293.55939
293.55223
293.5439
293.53404
293.52213
293.50745
293.48914
293.46631
293.43845
293.4055
293.36782
293.32602
293.28083
293.23298
293.1829
293.13047
293.07501
293.01539
292.95123
292.89767
292.90306
292.91836
292.92731
292.93504
292.94373
292.95202
292.95852
292.96405
292.96787
293.57686
293.57106
293.56446
293.55689
293.54813
293.53787
293.52569
293.511
293.49313
293.4714
293.4452
293.41409
293.37809
293.33768
293.29359
293.24659
293.19713
293.14528
293.09052
293.03185
292.96852
292.91004
292.90652
292.92064
292.9282
292.93622
292.94412
292.95099
292.9574
292.96263
292.96621
293.58269
293.57736
293.5712
293.56399
293.55546
293.5453
293.53312
293.51848
293.50086
293.47962
293.45412
293.42396
293.3891
293.34965
293.30632
293.25994
293.21102
293.15962
293.10542
293.04758
292.9851
292.92344
292.91049
292.92292
292.93041
292.93768
292.94423
292.95082
292.9567
292.96124
292.96465
293.58133
293.57705
293.57197
293.56589
293.55854
293.54956
293.53853
293.52497
293.50832
293.48803
293.46357
293.43443
293.40029
293.36163
293.31899
293.27309
293.22452
293.17353
293.11984
293.06271
293.00094
292.93631
292.91517
292.92592
292.9327
292.93859
292.94521
292.95109
292.95593
292.96031
292.96344
293.56726
293.56416
293.56043
293.55588
293.55027
293.54324
293.53435
293.52306
293.50879
293.4908
293.46828
293.44094
293.40885
293.37199
293.33073
293.28573
293.23772
293.18714
293.13392
293.07742
293.01631
292.95064
292.92063
292.92931
292.93517
292.9404
292.94611
292.95131
292.95583