/*--------------------------------*- C++ -*----------------------------------*\
| =========                 |                                                 |
| \\      /  F ield         | OpenFOAM: The Open Source CFD Toolbox           |
|  \\    /   O peration     | Version:  2406                                  |
|   \\  /    A nd           | Website:  www.openfoam.com                      |
|    \\/     M anipulation  |                                                 |
\*---------------------------------------------------------------------------*/
FoamFile
{
    version     2.0;
    format      ascii;
    arch        "LSB;label=32;scalar=64";
    class       volScalarField;
    location    "0.003";
    object      p;
}
// * * * * * * * * * * * * * * * * * * * * * * * * * * * * * * * * * * * * * //

dimensions      [1 -1 -2 0 0 0 0];

internalField   nonuniform List<scalar> 
8951
(
101189.27
101103.01
101051.37
100987.34
100922.75
100867.08
100824.21
100796.08
100782.64
100781.29
100791.64
100819.5
100859.56
100913.28
100971.17
101041.24
101108.93
101183.39
101215.61
101247.73
101274.74
101292.38
101307.65
101319.01
101331.42
101341.03
101350.76
101364.19
101354.48
101358.88
101335.51
101359
101283.51
101208.26
101126
101048.32
100980.82
100926.55
100887.85
100865.99
100854.5
100854.81
100873.25
100905.53
100951.78
101003.03
101065.89
101125.08
101194.21
101223.29
101254.85
101280.21
101296.81
101311.3
101321.84
101333.84
101342.66
101352.45
101365.88
101356.06
101358.64
101337.04
101458.94
101395.62
101316.57
101228.63
101145.38
101071.52
101009.74
100964.09
100933.6
100914.52
100904.77
100915.09
100940.8
100981.08
101028.31
101087.78
101142.82
101206.67
101233.27
101263.31
101286.62
101302.02
101315.58
101325.18
101336.62
101344.61
101354.51
101367.62
101357.78
101358.42
101338.61
101549.56
101490.88
101413.21
101323.65
101236.86
101158.13
101089.97
101035.88
100996.06
100969.13
100953.36
100956.68
100976.03
101010.52
101054.14
101110.77
101162.78
101220.39
101245.37
101272.97
101293.98
101308.02
101320.5
101329.06
101339.83
101346.92
101356.93
101369.44
101359.72
101358.24
101340.19
101637.87
101581.98
101507
101417.99
101329.51
101247.39
101174.12
101112.64
101064.48
101029.79
101008.14
101004.37
101017
101045.2
101084.65
101137.42
101185.7
101235.31
101259.59
101283.95
101302.43
101314.94
101326.16
101333.57
101343.5
101349.67
101359.75
101371.41
101362.01
101358.07
101341.58
101716.86
101664.12
101593.16
101507.03
101419.41
101336.23
101259.96
101193.32
101138.57
101096.95
101069.09
101058.19
101063.9
101085.47
101120.34
101168.27
101211.82
101252.02
101276.07
101296.42
101312.12
101322.9
101332.65
101338.82
101347.64
101352.95
101362.94
101373.54
101364.61
101357.88
101342.66
101782.51
101732.09
101666.41
101585.93
101502.27
101420.93
101344.36
101275.16
101215.99
101168.86
101135.24
101117.64
101116.53
101131.4
101161.52
101203.6
101241.29
101271.47
101294.92
101310.62
101323.22
101332.05
101340.08
101344.94
101352.29
101356.82
101366.44
101375.84
101367.27
101357.65
101343.35
101833.88
101783.48
101722.72
101651.15
101575.19
101499.01
101425.13
101356.23
101295.14
101244.39
101206.12
101182.65
101175.12
101183.5
101208.89
101243.77
101274.15
101294.95
101316.08
101326.82
101335.94
101342.53
101348.6
101352.05
101357.62
101361.32
101370.25
101378.33
101369.74
101357.36
101343.76
101870.89
101824.51
101770.61
101707.53
101639.64
101570.17
101501.25
101435.21
101374.76
101322.6
101281.24
101253.12
101239.9
101242.28
101263.04
101288.93
101310.36
101323.86
101339.42
101345.25
101350.48
101354.5
101358.35
101360.33
101363.75
101366.44
101374.42
101381.09
101371.99
101357.02
101344.28
101899.19
101856.2
101808.78
101754.23
101695.31
101634.14
101572.19
101511.34
101453.95
101402.66
101360.08
101328.82
101310.98
101308.13
101323.94
101339.96
101350.14
101358.19
101365.09
101366.06
101367.07
101368.14
101369.5
101369.93
101370.87
101372.34
101379.09
101384.23
101374.34
101356.64
101344.89
101919.69
101882.42
101840.66
101793.43
101743.69
101692.15
101638.81
101584.97
101532.65
101484.25
101442.34
101409.57
101388.46
101381.47
101392.09
101396.99
101395.09
101396.52
101393.56
101389.32
101385.89
101383.69
101382.25
101381.06
101379.33
101379.35
101384.43
101387.91
101377.36
101356.31
101346.22
101926.43
101910.82
101880.3
101838.67
101794.91
101751.04
101705.47
101658.69
101612.23
101568
101528.24
101495.49
101472.67
101462.85
101467.25
101459.48
101446.06
101437
101425.13
101415.07
101407.15
101401.3
101396.74
101393.9
101389.61
101387.72
101390.5
101392.24
101381.86
101356.26
101348.98
101944.89
101931.91
101911.47
101885.93
101853.38
101815.61
101775.87
101735.27
101694.62
101655.18
101618.75
101587.7
101564.91
101552.77
101547.22
101525.67
101499.98
101478.97
101459.27
101443.23
101430.85
101421.09
101413.09
101408.59
101402.31
101397.64
101397.25
101397.2
101388.55
101357.04
101352.67
101983.16
101973.47
101952.95
101927.03
101901.16
101873.56
101843.91
101812.44
101779.73
101746.96
101716.03
101688.92
101666.97
101648.47
101625.43
101590.19
101553.51
101521.79
101495.13
101473.72
101456.74
101442.94
101431.34
101425.07
101417.74
101409.22
101404.44
101402.71
101397.32
101359.16
101358.31
102029.85
102030.05
102019.14
101996.63
101968.74
101943.59
101921.73
101899.25
101874.33
101847.44
101819.93
101792.69
101764.87
101732.35
101692.05
101647.11
101603.14
101564.54
101532.4
101506.08
101484.55
101466.57
101451.32
101443.03
101435.63
101422.4
101411.93
101409.01
101407.44
101362.38
101362.12
102108.02
102107.71
102107.87
102103.13
102088.76
102063.27
102033.38
102003.4
101973.45
101943.01
101910.58
101874.61
101834.34
101789.21
101741.72
101694.02
101648.17
101606.36
101570.11
101539.68
101513.78
101491.69
101472.7
101462.01
101454.92
101437.45
101420.97
101416.79
101418.69
101366.04
101367.96
102118.65
102113.48
102103.51
102090.05
102079.44
102072.64
102065.33
102055.9
102036.18
102003.95
101966.9
101928.23
101884
101833.01
101781.73
101732.94
101687.34
101645.42
101607.38
101573.81
101544.11
101517.86
101495.32
101481.95
101474.07
101454.65
101434.15
101426.41
101428.87
101370.01
101371.13
102114.92
102107.97
102099.04
102087.8
102074.96
102059.95
102041.87
102020.54
102000.9
101983.74
101963.6
101941.74
101911.02
101867.23
101818.33
101767.45
101720.76
101679.93
101642.48
101607.51
101574.97
101544.72
101519.25
101503.52
101492.66
101472.94
101451.46
101437.02
101435.48
101374.73
101374.55
102077.14
102071.78
102065.13
102057.23
102047.96
102037.03
102024.1
102009.06
101992.94
101975.86
101955.48
101928.08
101896.93
101872.32
101842.82
101799.46
101752.43
101709.64
101673.2
101638.85
101605.2
101572.03
101544.05
101527.07
101512.41
101491.22
101469.45
101447.83
101439.33
101380.68
101383.92
102032.89
102028.54
102023.24
102017.07
102009.9
102001.56
101991.86
101980.62
101967.56
101952.31
101934.5
101913.95
101892.91
101867.77
101840.57
101816.69
101780.16
101737.96
101698.63
101665.07
101632.54
101598.86
101569.22
101552.05
101533.81
101509.6
101486.19
101459.33
101444.2
101389.41
101406.53
101988.75
101985.48
101981.49
101976.84
101971.44
101965.16
101957.82
101949.26
101939.29
101927.7
101914.21
101898.77
101881.22
101861.44
101837.25
101812.94
101793.33
101760.61
101721.37
101685.3
101654.17
101623.36
101594.97
101577.04
101555.52
101528.23
101502.27
101472.45
101452.44
101400.51
101441.19
101949.16
101946.56
101943.38
101939.69
101935.42
101930.45
101924.66
101917.91
101910.04
101900.88
101890.25
101877.91
101863.61
101847.04
101829.11
101807.4
101784.93
101767.55
101737.85
101702.18
101670.19
101644.22
101621.15
101601.34
101576.89
101546.83
101517.49
101483.43
101461.19
101409.34
101463.95
101901.55
101899.58
101897.17
101894.39
101891.2
101887.49
101883.17
101878.14
101872.28
101865.46
101857.52
101848.3
101837.6
101825.15
101810.5
101794.46
101775.03
101755.06
101740.12
101715.57
101686.88
101663.37
101645.47
101624.21
101597.59
101567.3
101536.05
101497.7
101476.85
101422.89
101487.96
101851.67
101850.26
101848.54
101846.57
101844.31
101841.67
101838.58
101834.98
101830.75
101825.79
101819.99
101813.21
101805.33
101796.31
101785.99
101774.14
101761.8
101747.51
101732.98
101723.13
101705.92
101684.6
101663.27
101641.43
101616.04
101588.42
101559.84
101522.18
101503.61
101453.46
101514.01
101812.76
101811.83
101810.71
101809.41
101807.9
101806.13
101804.05
101801.6
101798.71
101795.32
101791.37
101786.79
101781.53
101775.49
101768.74
101761.33
101752.98
101744.17
101733.26
101720.5
101711.1
101695.03
101670.93
101650.34
101630.23
101607.49
101583.99
101551.24
101534.01
101483.77
101536.6
101787.53
101786.96
101786.25
101785.42
101784.45
101783.28
101781.89
101780.21
101778.2
101775.79
101772.91
101769.47
101765.36
101760.51
101754.81
101748.35
101741.05
101733.28
101725.59
101713.93
101697.53
101683.67
101669.48
101653.36
101638.11
101622.53
101603.07
101577.77
101561.87
101511.04
101555.33
101758.32
101757.97
101757.51
101756.97
101756.32
101755.53
101754.56
101753.38
101751.96
101750.24
101748.13
101745.53
101742.32
101738.33
101733.58
101728.03
101721.9
101714.68
101704.89
101693.75
101683.86
101677.74
101667.41
101654.18
101643.85
101633.88
101621.31
101605.53
101589.03
101540.24
101566.09
101722.07
101721.71
101721.33
101720.93
101720.5
101720.02
101719.48
101718.86
101718.12
101717.22
101716.13
101714.82
101713.27
101711.4
101709.1
101706.28
101702.58
101697.9
101694.37
101692.33
101689.13
101682.22
101672.85
101662.17
101652.94
101645.29
101640.76
101633.42
101625.05
101593.1
101612.75
101722.14
101722.09
101722.04
101721.98
101721.91
101721.82
101721.7
101721.54
101721.33
101721.02
101720.6
101720.02
101719.24
101718.26
101717.15
101716.13
101715.4
101715.23
101713.91
101710.27
101705.03
101699.31
101693.26
101686.91
101682.07
101677.33
101673.06
101665.14
101660.85
101647.49
101677.2
101759.96
101759.66
101759.3
101758.85
101758.31
101757.69
101756.96
101756.14
101755.21
101754.17
101753.03
101751.79
101750.44
101748.99
101747.46
101745.87
101744.33
101742.58
101740
101736.49
101730.69
101726.27
101723.72
101717.17
101711.76
101708.18
101706.06
101703.42
101706.25
101710.79
101737.26
101773.71
101772.95
101772.22
101771.52
101770.84
101770.18
101769.52
101768.85
101768.15
101767.39
101766.54
101765.57
101764.45
101763.13
101761.48
101759.44
101756.39
101751.74
101745.99
101737.22
101733.55
101732.62
101728.8
101724.72
101721.21
101717.6
101716.15
101717.6
101721.67
101744.89
101761.71
99999.638
100003.48
100017.76
100032
100048.72
100068.74
100091.25
100114.51
100143.1
100180.33
100228.23
100287.37
100357.18
100436.5
100524.83
100618.43
100718.04
100818.87
100916.34
101004.43
101059.66
101115.14
101158.99
101198.94
101232.07
101258.32
101274.18
101291.23
101306.66
101350.86
101322.12
100013.84
100029.26
100049.34
100065.58
100081.39
100096.19
100110.65
100129.65
100157.62
100195.98
100245.71
100306.33
100377.2
100456.96
100544.93
100636.87
100734.44
100828.62
100926.17
101006.81
101063.26
101118.67
101161.95
101201.39
101234.04
101259.74
101275.35
101291.94
101307.22
101351.62
101321.7
100028.21
100048.45
100056.23
100064.44
100077.56
100092.75
100109.17
100130.99
100161.58
100202.27
100254.08
100316.21
100388.15
100468.43
100556.44
100647.78
100745.38
100837.13
100935.17
101010.44
101067.71
101122.49
101165.06
101203.94
101236.08
101261.22
101276.56
101292.67
101307.79
101352.32
101321.26
100039.11
100054.57
100057.55
100064.72
100076.84
100090.48
100107.09
100130.46
100162.89
100205.57
100259.16
100322.74
100395.8
100476.79
100565.16
100656.41
100754.69
100846.01
100943.61
101014.36
101072.44
101126.32
101168.18
101206.49
101238.11
101262.7
101277.8
101293.41
101308.37
101352.97
101320.82
100043.38
100052.23
100054.94
100062.25
100073.31
100086.57
100104.4
100129.72
100164.18
100209.03
100264.45
100329.59
100403.84
100485.62
100574.36
100665.55
100764.35
100855.95
100951.19
101018.19
101077.24
101130.14
101171.3
101209.05
101240.15
101264.21
101279.07
101294.15
101308.96
101353.57
101320.37
100042.05
100046.36
100050.26
100057.95
100068.41
100082.14
100101.61
100129.01
100165.71
100212.85
100270.15
100336.9
100412.32
100494.85
100583.88
100674.99
100774.13
100866
100957.82
101021.99
101082.1
101133.95
101174.43
101211.62
101242.2
101265.72
101280.38
101294.91
101309.56
101354.13
101319.91
100038.7
100039.71
100043.8
100051.55
100062.1
100076.97
100098.42
100128.1
100167.27
100216.73
100275.96
100344.32
100420.88
100504.11
100593.38
100684.42
100783.75
100875.8
100964.28
101025.85
101087.01
101137.75
101177.57
101214.18
101244.25
101267.26
101281.71
101295.68
101310.17
101354.64
101319.41
100032.55
100031.79
100035.44
100043.33
100054.63
100071.13
100094.82
100126.98
100168.81
100220.6
100281.82
100351.78
100429.45
100513.35
100602.84
100693.81
100793.11
100885.27
100971.5
101029.77
101091.96
101141.53
101180.71
101216.75
101246.31
101268.82
101283.07
101296.46
101310.8
101355.11
101318.88
100022.92
100021.66
100025.16
100033.48
100046.09
100064.66
100090.85
100125.75
100170.34
100224.51
100287.77
100359.33
100438.08
100522.63
100612.29
100703.17
100802.16
100894.57
100979.35
101033.79
101096.93
101145.31
101183.85
101219.33
101248.36
101270.41
101284.45
101297.25
101311.45
101355.54
101318.28
100009.76
100008.54
100012.59
100022.04
100036.53
100057.58
100086.57
100124.47
100171.88
100228.5
100293.82
100366.97
100446.77
100531.93
100621.72
100712.49
100811.24
100903.61
100986.89
101038.12
101101.92
101149.08
101187
101221.9
101250.43
101272.04
101285.85
101298.06
101312.11
101355.93
101317.61
99993.154
99992.719
99997.989
100009.17
100026.04
100049.96
100082.04
100123.15
100173.46
100232.61
100300.01
100374.71
100455.52
100541.27
100631.13
100721.79
100820.48
100911.98
100993.77
101042.89
101106.89
101152.84
101190.16
101224.48
101252.49
101273.71
101287.26
101298.88
101312.79
101356.28
101316.87
99973.3
99974.303
99981.393
99994.901
100014.67
100041.85
100077.37
100121.84
100175.13
100236.86
100306.33
100382.55
100464.33
100550.63
100640.53
100731.15
100829.69
100919.89
101000.09
101048.03
101111.84
101156.6
101193.31
101227.06
101254.56
101275.44
101288.7
101299.73
101313.49
101356.59
101316.14
99950.242
99953.272
99962.836
99979.306
100002.5
100033.34
100072.61
100120.56
100176.93
100241.29
100312.81
100390.51
100473.22
100560.01
100649.9
100740.55
100838.33
100927.77
101006.03
101053.37
101116.76
101160.35
101196.47
101229.64
101256.63
101277.25
101290.17
101300.59
101314.2
101356.86
101315.52
99923.945
99929.665
99942.419
99962.506
99989.655
100024.56
100067.83
100119.39
100178.93
100245.91
100319.45
100398.58
100482.17
100569.42
100659.25
100749.8
100846.58
100935.92
101011.73
101058.85
101121.64
101164.1
101199.62
101232.21
101258.71
101279.14
101291.68
101301.48
101314.94
101357.1
101315.16
99894.429
99903.586
99920.287
99944.654
99976.269
100015.63
100063.1
100118.4
100181.17
100250.76
100326.27
100406.78
100491.19
100578.85
100668.58
100759.28
100854.84
100943.97
101017.23
101064.45
101126.49
101167.85
101202.78
101234.79
101260.8
101281.13
101293.24
101302.4
101315.7
101357.3
101314.7
99861.75
99875.198
99896.641
99925.949
99962.523
100006.69
100058.52
100117.68
100183.7
100255.87
100333.29
100415.12
100500.29
100588.31
100677.94
100769.07
100862.65
100951.85
101022.59
101070.15
101131.31
101171.6
101205.93
101237.36
101262.89
101283.23
101294.85
101303.37
101316.49
101357.45
101314.45
99826.102
99844.766
99871.759
99906.642
99948.635
99997.877
100054.23
100117.32
100186.56
100261.26
100340.53
100423.59
100509.47
100597.78
100687.4
100779.08
100870.09
100959.64
101027.88
101075.91
101136.08
101175.35
101209.09
101239.93
101264.98
101285.46
101296.49
101304.38
101317.32
101357.56
101314.4
99787.814
99812.674
99846.006
99887.038
99934.848
99989.363
100050.36
100117.38
100189.81
100266.96
100347.99
100432.21
100518.72
100607.28
100697.07
100788.69
100877.83
100967.37
101033.13
101081.7
101140.82
101179.09
101212.23
101242.49
101267.09
101287.81
101298.17
101305.44
101318.2
101357.62
101314.51
99747.458
99779.47
99819.848
99867.506
99921.427
99981.345
100047.05
100117.97
100193.5
100273.01
100355.71
100440.98
100528.05
100616.8
100706.5
100797.87
100886.19
100975.04
101038.38
101087.51
101145.52
101182.83
101215.38
101245.05
101269.2
101290.28
101299.87
101306.56
101319.11
101357.64
101314.79
99705.886
99745.875
99793.845
99848.47
99908.666
99974.043
100044.44
100119.16
100197.69
100279.44
100363.68
100449.91
100537.46
100626.39
100716.1
100806.93
100894.61
100982.67
101043.64
101093.34
101150.18
101186.57
101218.52
101247.61
101271.32
101292.86
101301.59
101307.74
101320.08
101357.63
101315.39
99664.164
99712.733
99768.627
99830.395
99896.895
99967.677
100042.67
100121.06
100202.42
100286.27
100371.93
100459
100546.95
100636.22
100725.87
100815.52
100903.4
100989.97
101048.93
101099.19
101154.8
101190.31
101221.66
101250.16
101273.44
101295.52
101303.33
101308.98
101321.09
101357.59
101316.41
99623.462
99680.96
99744.869
99813.776
99886.489
99962.461
100041.88
100123.74
100207.75
100293.55
100380.47
100468.25
100556.59
100646.4
100735.01
100823.78
100912.25
100996.82
101054.27
101105.04
101159.39
101194.05
101224.79
101252.69
101275.57
101298.21
101305.08
101310.28
101322.15
101357.51
101317.43
99585.038
99651.58
99723.28
99799.137
99877.824
99958.604
100042.25
100127.3
100213.73
100301.29
100389.3
100477.69
100566.57
100656.46
100743.68
100832.24
100920.41
101003.62
101059.68
101110.89
101163.94
101197.78
101227.91
101255.23
101277.7
101300.85
101306.85
101311.65
101323.26
101357.39
101318.42
99551.082
99625.883
99704.625
99786.979
99871.113
99956.361
100043.92
100131.83
100220.41
100309.5
100398.44
100487.48
100577.17
100665.82
100752.49
100840.64
100927.93
101010.72
101065.19
101116.73
101168.45
101201.5
101231.03
101257.75
101279.82
101303.37
101308.61
101313.09
101324.42
101357.25
101319.36
99521.85
99604.452
99689.739
99777.459
99866.341
99956.193
100047.01
100137.45
100227.83
100318.22
100408.03
100497.97
100587.16
100674.57
100761.76
100848.97
100935.27
101018.26
101070.78
101122.55
101172.93
101205.22
101234.13
101260.26
101281.94
101305.72
101310.38
101314.61
101325.62
101357.09
101320.24
99498.446
99588.02
99678.879
99771.27
99864.452
99957.94
100051.47
100144.23
100236.08
100327.55
100418.44
100508.87
100596.46
100684.02
100770.99
100857.23
100942.68
101026.05
101076.46
101128.35
101177.38
101208.93
101237.23
101262.76
101284.05
101307.89
101312.15
101316.24
101326.87
101356.92
101321.08
99481.839
99577.328
99672.643
99768.865
99865.527
99961.864
100057.57
100152.07
100245.28
100337.86
100430.01
100518.75
100605.47
100693.74
100780.14
100865.43
100950.14
101033.76
101082.23
101134.12
101181.79
101212.64
101240.32
101265.26
101286.15
101309.85
101313.92
101317.99
101328.17
101356.76
101321.87
99472.752
99572.971
99671.511
99770.542
99869.747
99968.12
100065.42
100161.29
100255.81
100349.81
100440.42
100527.79
100615.61
100703.49
100789.26
100873.55
100957.61
101041.28
101088.12
101139.85
101186.18
101216.33
101243.4
101267.74
101288.24
101311.65
101315.68
101319.86
101329.5
101356.62
101322.61
99471.732
99575.41
99675.843
99776.551
99877.335
99976.951
100075.45
100172.74
100268.64
100361.81
100449.82
100538.42
100625.94
100713.26
100798.37
100881.6
100965.05
101048.64
101094.1
101145.54
101190.55
101220
101246.47
101270.21
101290.32
101313.32
101317.44
101321.85
101330.87
101356.51
101323.31
99479.228
99585.077
99686.007
99787.253
99888.802
99989.162
100089
100187.48
100282.4
100371.69
100459.68
100549.36
100636.29
100723.07
100807.47
100889.57
100972.46
101055.85
101100.14
101151.19
101194.88
101223.66
101249.53
101272.66
101292.38
101314.88
101319.2
101323.97
101332.26
101356.43
101323.97
99496.017
99602.799
99702.832
99803.64
99905.42
100006.46
100106.84
100202.57
100292.2
100381.17
100471.44
100560.45
100646.73
100732.94
100816.56
100897.45
100979.82
101062.96
101106.23
101156.78
101199.18
101227.31
101252.57
101275.11
101294.43
101316.34
101320.95
101326.19
101333.65
101356.39
101324.6
99523.77
99629.775
99727.658
99827.165
99927.631
100026.73
100123.59
100212.75
100302.22
100394.34
100483.72
100571.76
100657.29
100742.86
100825.63
100905.26
100987.12
101069.97
101112.32
101162.3
101203.44
101230.94
101255.61
101277.54
101296.47
101317.73
101322.68
101328.47
101335.02
101356.38
101325.2
99558.091
99662.708
99757.512
99854.288
99950.081
100043.89
100134.73
100224.11
100317.11
100408.51
100496.33
100583.34
100667.97
100752.84
100834.66
100913.01
100994.38
101076.91
101118.41
101167.75
101207.67
101234.56
101258.63
101279.96
101298.49
101319.07
101324.4
101330.83
101336.36
101356.41
101325.77
99592.996
99695.834
99785.78
99878.509
99969.179
100058.32
100148.81
100241.79
100333.43
100423.27
100509.4
100595.2
100678.78
100762.86
100843.63
100920.71
101001.58
101083.76
101124.47
101173.1
101211.87
101238.15
101261.63
101282.36
101300.51
101320.38
101326.11
101333.19
101337.64
101356.47
101326.3
99630.998
99730.557
99814.929
99900.009
99989.233
100081.85
100172.22
100261.68
100350.66
100438.8
100523.01
100607.34
100689.7
100772.93
100852.56
100928.37
101008.71
101090.53
101130.51
101178.37
101216.04
101241.72
101264.62
101284.76
101302.5
101321.67
101327.79
101335.52
101338.82
101356.56
101326.78
99694.944
99786.117
99862.456
99941.271
100025.87
100112.58
100198.52
100283.15
100369.08
100455.21
100537.17
100619.77
100700.75
100783.03
100861.43
100936.01
101015.76
101097.22
101136.51
101183.54
101220.17
101245.27
101267.6
101287.13
101304.48
101322.96
101329.46
101337.8
101339.92
101356.68
101327.19
99769.061
99853.151
99920.762
99991.573
100067.91
100147.04
100226.99
100306.37
100388.81
100472.49
100551.91
100632.49
100711.92
100793.15
100870.26
100943.63
101022.72
101103.81
101142.47
101188.62
101224.27
101248.8
101270.56
101289.5
101306.45
101324.24
101331.1
101339.98
101340.91
101356.83
101327.49
99846.825
99924.902
99983.765
100045.92
100113.51
100184.74
100258.01
100331.47
100409.9
100490.65
100567.25
100645.52
100723.23
100803.3
100879.04
100951.24
101029.6
101110.3
101148.39
101193.6
101228.34
101252.3
101273.51
101291.84
101308.41
101325.54
101332.72
101342.05
101341.8
101357
101327.64
99932.723
100003.5
100052.41
100104.84
100163.1
100225.84
100291.63
100358.44
100432.39
100509.67
100583.21
100658.88
100734.66
100813.46
100887.76
100958.87
101036.38
101116.69
101154.26
101198.49
101232.37
101255.77
101276.43
101294.18
101310.35
101326.83
101334.33
101344.03
101342.63
101357.18
101327.58
100028
100089.72
100127.14
100168.63
100216.75
100270.3
100327.79
100387.24
100456.32
100529.57
100599.81
100672.57
100746.22
100823.62
100896.41
100966.52
101043.06
101122.96
101160.08
101203.28
101236.36
101259.22
101279.34
101296.49
101312.27
101328.12
101335.91
101345.94
101343.41
101357.37
101327.3
100131.37
100182.6
100207.29
100236.88
100274.18
100317.96
100366.4
100417.89
100481.79
100550.31
100617.08
100686.61
100757.91
100833.76
100904.98
100974.22
101049.66
101129.1
101165.83
101207.97
101240.32
101262.63
101282.23
101298.79
101314.18
101329.4
101337.47
101347.81
101344.18
101357.56
101327.17
100239.89
100280.25
100291.72
100308.97
100335.08
100368.67
100407.39
100450.48
100508.85
100571.9
100635.02
100701.03
100769.75
100843.87
100913.44
100981.99
101056.18
101135.09
101171.51
101212.56
101244.23
101266.01
101285.09
101301.07
101316.08
101330.69
101339.01
101349.68
101344.98
101357.77
101327.25
100350.34
100380.63
100379.38
100384.43
100399.26
100422.28
100450.69
100485.37
100537.44
100594.27
100653.61
100715.84
100781.72
100853.92
100921.76
100989.83
101062.62
101140.92
101177.11
101217.05
101248.1
101269.36
101287.94
101303.34
101317.97
101331.97
101340.54
101351.55
101345.82
101357.97
101327.63
100461.06
100482.63
100469.85
100463.15
100466.7
100478.56
100496.56
100523.26
100566.9
100617.32
100672.82
100731.04
100793.82
100863.88
100929.9
100997.75
101068.99
101146.58
101182.62
101221.45
101251.92
101272.67
101290.76
101305.59
101319.84
101333.24
101342.04
101353.43
101346.73
101358.17
101328.42
100573.05
100586.52
100563.44
100545.34
100537.33
100537.51
100545.97
100563.76
100596.67
100641.17
100692.66
100746.69
100806.11
100873.79
100937.9
101005.71
101075.3
101152.04
101188.06
101225.76
101255.71
101275.95
101293.57
101307.82
101321.7
101334.51
101343.52
101355.3
101347.76
101358.37
101329.72
100690.29
100694.01
100661.19
100631.66
100611.04
100600.82
100599.72
100606.23
100627.86
100665.98
100713.43
100763.11
100818.89
100883.88
100946.03
101013.64
101081.55
101157.2
101193.37
101229.96
101259.43
101279.18
101296.33
101310.02
101323.54
101335.78
101344.97
101357.12
101348.91
101358.55
101330.84
100820.61
100809.8
100766.99
100725.18
100692.78
100671.71
100658.48
100653.23
100664.38
100693.96
100736.5
100781.47
100833.16
100894.99
100955.02
101021.79
101087.78
101161.79
101198.39
101233.96
101263.04
101282.34
101299.05
101312.19
101325.39
101337.03
101346.4
101358.89
101350.15
101358.72
101331.7
100973.3
100943.7
100892.23
100837.4
100790.79
100755.18
100729.03
100711.98
100713.52
100730.82
100764.71
100803.76
100850.57
100908.48
100965.87
101030.86
101094.21
101165.77
101202.85
101237.7
101266.53
101285.42
101301.72
101314.33
101327.27
101338.29
101347.81
101360.65
101351.49
101358.85
101332.61
101129.71
101090.45
101040.16
100974.05
100909.71
100855.62
100813.68
100785.52
100775.64
100780.8
100799.19
100830.09
100871.07
100924.35
100978.64
101041.36
101101.37
101170.71
101207.11
101241.61
101270.11
101288.56
101304.45
101316.51
101329.23
101339.6
101349.25
101362.44
101352.95
101358.92
101333.99
100033.16
100047.95
100064.81
100076.89
100087.69
100100.6
100117.95
100138.8
100166.26
100202.61
100249.15
100306.42
100374.1
100451.05
100536.54
100627.17
100721.8
100820.61
100906.12
100996.88
101053.68
101111.14
101155.95
101196.46
101230.08
101256.88
101273.03
101290.51
101306.08
101350.04
101322.31
100023.01
100035.45
100053.29
100072.75
100086.37
100100.14
100117.58
100138.7
100166.16
100202.14
100247.97
100304.35
100371.14
100447.33
100532.19
100622.71
100717.03
100818.21
100901.38
100995.06
101051.33
101108.73
101153.82
101194.64
101228.55
101255.78
101272.15
101290
101305.77
101349.3
101322.47
100017.78
100027.94
100043.78
100063.61
100079.62
100096.77
100116.58
100139.25
100167.43
100203.4
100248.7
100304.18
100369.94
100445.16
100529.15
100619.3
100713.17
100815.19
100898.47
100992.97
101049.01
101106.49
101151.84
101192.93
101227.11
101254.73
101271.3
101289.5
101305.48
101348.58
101322.63
100018.29
100028.39
100043.16
100061.36
100078.05
100097.03
100118.47
100142.37
100171.16
100207.09
100251.81
100306.3
100370.88
100444.92
100527.77
100617.21
100710.33
100812.25
100895.61
100990.3
101046.32
101104.08
101149.78
101191.14
101225.6
101253.64
101270.45
101288.98
101305.14
101347.89
101322.81
100019.48
100030
100044.43
100062.18
100079.52
100099.19
100121.44
100146.18
100175.45
100211.36
100255.56
100309.14
100372.58
100445.45
100527.11
100615.75
100707.98
100809.48
100892.58
100987.41
101043.53
101101.56
101147.64
101189.3
101224.05
101252.53
101269.59
101288.45
101304.78
101347.25
101323.01
100020.36
100030.8
100045.04
100063.13
100081.27
100101.48
100124.34
100149.8
100179.52
100215.44
100259.21
100311.98
100374.39
100446.14
100526.67
100614.48
100705.83
100806.82
100889.53
100984.47
101040.78
101099.03
101145.49
101187.44
101222.48
101251.42
101268.74
101287.91
101304.42
101346.63
101323.23
100021.33
100031.63
100045.5
100063.66
100082.73
100103.59
100127.08
100153.22
100183.37
100219.34
100262.73
100314.77
100376.2
100446.9
100526.32
100613.31
100703.78
100804.23
100886.53
100981.44
101038.08
101096.52
101143.35
101185.59
101220.92
101250.32
101267.91
101287.37
101304.06
101346.03
101323.47
100022.59
100032.86
100046.42
100064.47
100084.28
100105.78
100129.86
100156.61
100187.16
100223.17
100266.21
100317.57
100378.07
100447.75
100526.09
100612.24
100701.85
100801.72
100883.62
100978.37
101035.42
101094.02
101141.22
101183.74
101219.35
101249.22
101267.1
101286.84
101303.7
101345.45
101323.72
100024.23
100034.55
100047.89
100065.83
100086.21
100108.22
100132.8
100160.06
100190.94
100226.98
100269.7
100320.41
100380.02
100448.7
100525.98
100611.28
100700.04
100799.28
100880.83
100975.28
101032.76
101091.53
101139.1
101181.89
101217.78
101248.13
101266.31
101286.31
101303.35
101344.88
101323.99
100026.32
100036.71
100049.9
100067.74
100088.54
100110.98
100135.94
100163.61
100194.75
100230.81
100273.21
100323.31
100382.07
100449.77
100526
100610.45
100698.36
100796.91
100878.25
100972.16
101030.12
101089.04
101136.98
101180.04
101216.2
101247.03
101265.53
101285.78
101302.99
101344.31
101324.27
100028.9
100039.41
100052.45
100070.18
100091.29
100114.08
100139.31
100167.29
100198.63
100234.66
100276.76
100326.27
100384.2
100450.96
100526.16
100609.73
100696.81
100794.61
100875.86
100969.02
101027.5
101086.57
101134.88
101178.19
101214.63
101245.94
101264.77
101285.24
101302.63
101343.75
101324.56
100032.01
100042.74
100055.52
100073.13
100094.46
100117.52
100142.93
100171.14
100202.61
100238.57
100280.36
100329.3
100386.44
100452.27
100526.45
100609.14
100695.39
100792.42
100873.25
100965.82
101024.89
101084.11
101132.78
101176.34
101213.05
101244.85
101264.01
101284.71
101302.26
101343.18
101324.86
100035.62
100046.47
100059.32
100076.66
100098.11
100121.33
100146.84
100175.17
100206.69
100242.56
100284.02
100332.4
100388.76
100453.69
100526.88
100608.68
100694.09
100790.51
100870.66
100962.54
101022.28
101081.67
101130.69
101174.5
101211.47
101243.75
101263.27
101284.18
101301.9
101342.61
101325.15
100039.85
100050.76
100063.63
100080.78
100102.24
100125.54
100151.05
100179.41
100210.92
100246.63
100287.76
100335.59
100391.2
100455.24
100527.44
100608.33
100692.93
100788.59
100868.47
100959.57
101019.66
101079.24
101128.61
101172.66
101209.89
101242.66
101262.53
101283.65
101301.53
101342.03
101325.44
100044.65
100055.59
100068.52
100085.51
100106.86
100130.15
100155.58
100183.88
100215.3
100250.82
100291.58
100338.87
100393.73
100456.9
100528.14
100608.12
100691.9
100786.69
100866.57
100957.04
101017.08
101076.83
101126.55
101170.82
101208.31
101241.56