/*--------------------------------*- C++ -*----------------------------------*\
| =========                 |                                                 |
| \\      /  F ield         | OpenFOAM: The Open Source CFD Toolbox           |
|  \\    /   O peration     | Version:  2406                                  |
|   \\  /    A nd           | Website:  www.openfoam.com                      |
|    \\/     M anipulation  |                                                 |
\*---------------------------------------------------------------------------*/
FoamFile
{
    version     2.0;
    format      ascii;
    arch        "LSB;label=32;scalar=64";
    class       volScalarField;
    location    "0.003";
    object      rho;
}
// * * * * * * * * * * * * * * * * * * * * * * * * * * * * * * * * * * * * * //

dimensions      [1 -3 0 0 0 0 0];

internalField   nonuniform List<scalar> 
8951
(
1.2032493
1.202224
1.2016065
1.2008249
1.2000213
1.1993129
1.1987493
1.1983579
1.1981437
1.1980823
1.1981763
1.1985024
1.1990035
1.1997041
1.2004927
1.2014663
1.2024332
1.2034326
1.2035971
1.2036303
1.2037896
1.203928
1.2040564
1.2041477
1.204253
1.2043255
1.204407
1.2045059
1.2043981
1.2044015
1.2033165
1.2050514
1.2041691
1.2032812
1.2022967
1.2013556
1.2005264
1.1998474
1.1993496
1.1990537
1.1988877
1.1988758
1.199101
1.1995187
1.2001375
1.2008531
1.2017452
1.2026107
1.2035361
1.2036454
1.2036845
1.2038368
1.2039678
1.2040896
1.2041745
1.2042778
1.2043446
1.2044279
1.2045283
1.204423
1.2044082
1.2033435
1.2059887
1.2052644
1.2043463
1.2033117
1.2023244
1.201441
1.2006945
1.200136
1.1997576
1.1995198
1.199404
1.1995459
1.1998965
1.2004534
1.2011288
1.2019863
1.202804
1.2036536
1.2037138
1.2037517
1.2038935
1.2040154
1.2041292
1.2042067
1.2043066
1.2043676
1.204453
1.2045521
1.2044507
1.2044165
1.2033751
1.2067909
1.2061361
1.2052508
1.2042153
1.203206
1.2022863
1.2014863
1.2008498
1.2003819
1.2000712
1.1999024
1.1999767
1.2002649
1.2007636
1.2014052
1.202236
1.2030194
1.2037786
1.203799
1.203829
1.2039586
1.2040699
1.2041743
1.2042436
1.204339
1.204394
1.2044815
1.2045774
1.2044818
1.2044263
1.2034109
1.2075478
1.2069403
1.2061029
1.2050923
1.2040831
1.2031447
1.2023067
1.2016052
1.201061
1.2006798
1.2004614
1.2004691
1.2006924
1.2011288
1.2017313
1.2025241
1.2032649
1.2039067
1.2038993
1.2039178
1.2040333
1.2041326
1.2042259
1.2042863
1.2043751
1.2044247
1.2045137
1.2046049
1.2045162
1.2044374
1.2034462
1.2081836
1.2076248
1.2068491
1.2058898
1.2049099
1.2039799
1.203129
1.2023897
1.201791
1.2013503
1.2010795
1.2010219
1.20118
1.2015519
1.202112
1.2028558
1.2035423
1.2040413
1.2040157
1.2040197
1.2041189
1.2042044
1.2042848
1.2043356
1.204415
1.2044602
1.2045491
1.204635
1.2045539
1.2044496
1.2034817
1.2086585
1.208135
1.2074327
1.2065546
1.2056389
1.2047503
1.2039174
1.203171
1.2025434
1.2020608
1.2017443
1.201628
1.2017239
1.2020323
1.2025497
1.2032329
1.2038475
1.2041891
1.204149
1.2041371
1.2042168
1.2042864
1.2043519
1.2043925
1.2044599
1.204501
1.2045873
1.204667
1.2045935
1.2044627
1.2035165
1.2089684
1.2084496
1.2078129
1.2070517
1.2062415
1.2054311
1.2046496
1.2039282
1.2033005
1.2027983
1.2024495
1.2022857
1.2023255
1.2025746
1.2030512
1.2036576
1.2041788
1.2043609
1.2042997
1.2042725
1.2043286
1.2043799
1.2044283
1.204458
1.2045109
1.2045468
1.2046284
1.2047012
1.2046331
1.2044764
1.2035543
1.2091213
1.2086525
1.2081017
1.2074482
1.2067437
1.2060259
1.205319
1.2046499
1.2040505
1.2035535
1.2031906
1.2029938
1.2029872
1.203184
1.203622
1.204129
1.2045284
1.2045668
1.2044696
1.2044286
1.2044561
1.204486
1.204515
1.2045332
1.204569
1.2045978
1.2046732
1.2047382
1.2046724
1.2044908
1.2035996
1.209193
1.2087641
1.2082913
1.2077423
1.2071501
1.2065393
1.2059265
1.2053334
1.2047875
1.2043201
1.2039636
1.2037507
1.2037102
1.2038642
1.2042599
1.2046541
1.2048864
1.2048034
1.2046641
1.2046057
1.2046007
1.2046063
1.2046135
1.2046196
1.2046355
1.2046555
1.2047229
1.2047784
1.2047124
1.204506
1.2036471
1.2092015
1.208838
1.2084306
1.2079684
1.2074869
1.2069946
1.206491
1.2059908
1.2055177
1.2051001
1.2047689
1.204557
1.2044969
1.2046201
1.2049685
1.2052267
1.2052499
1.2050607
1.2048898
1.204804
1.2047643
1.2047422
1.2047251
1.2047182
1.2047129
1.2047222
1.2047785
1.2048238
1.2047585
1.2045227
1.2037009
1.2090812
1.2089727
1.2086967
1.2082985
1.2078863
1.2074847
1.207075
1.206663
1.2062665
1.2059083
1.2056153
1.2054186
1.2053539
1.2054584
1.2057402
1.2058192
1.2056102
1.2053424
1.2051489
1.2050234
1.2049481
1.2048944
1.2048506
1.2048306
1.2048049
1.2047995
1.2048405
1.2048757
1.2048149
1.2045428
1.2037634
1.2091436
1.2090618
1.2089016
1.2086912
1.2084086
1.2080757
1.2077321
1.207392
1.2070656
1.2067683
1.2065218
1.2063543
1.2063
1.2063832
1.2065294
1.206361
1.2059606
1.205657
1.2054344
1.2052629
1.2051504
1.2050633
1.2049905
1.2049573
1.2049157
1.2048892
1.204907
1.2049329
1.2048897
1.2045706
1.2038331
1.2094926
1.2094426
1.2092728
1.2090492
1.2088382
1.2086198
1.2083909
1.2081551
1.2079202
1.2077009
1.2075201
1.2074002
1.207352
1.2073386
1.2072036
1.2067719
1.206321
1.2059983
1.2057341
1.2055203
1.2053681
1.2052478
1.2051444
1.2050975
1.205048
1.2049901
1.2049742
1.2049932
1.2049806
1.2046107
1.2039272
1.209995
1.2100561
1.2099935
1.2098019
1.2095565
1.2093564
1.2092098
1.2090706
1.2089174
1.2087562
1.2086021
1.2084598
1.2083029
1.2080476
1.2076144
1.207115
1.206697
1.2063453
1.2060438
1.2057909
1.2055994
1.2054435
1.2053101
1.2052477
1.2051993
1.2051024
1.2050403
1.2050553
1.2050807
1.2046593
1.2040079
1.210905
1.2109525
1.2110147
1.2110286
1.2109371
1.2107211
1.2104611
1.2102104
1.2099708
1.2097347
1.20948
1.2091794
1.2088132
1.2083626
1.2078895
1.2074558
1.2070464
1.20668
1.2063534
1.2060699
1.2058393
1.2056478
1.2054844
1.2054034
1.2053599
1.2052266
1.2051146
1.2051227
1.2051874
1.2047113
1.2040983
1.2109715
1.210942
1.2108596
1.2107424
1.2106705
1.2106595
1.2106584
1.2106463
1.2105167
1.2102344
1.2098944
1.2095439
1.2091401
1.2086666
1.2082066
1.2077598
1.2073487
1.2069848
1.2066557
1.2063508
1.2060848
1.2058567
1.2056657
1.2055647
1.2055144
1.2053653
1.2052185
1.2051994
1.2052795
1.2047657
1.2041583
1.211028
1.2109699
1.2108905
1.2107857
1.2106625
1.2105124
1.210324
1.2100982
1.2099103
1.2097853
1.2096516
1.2095252
1.2093093
1.2089349
1.2084933
1.2080376
1.2076067
1.2072458
1.2069325
1.2066244
1.2063313
1.2060683
1.2058547
1.2057341
1.2056598
1.205507
1.2053516
1.2052769
1.2053306
1.2048258
1.2042421
1.2106189
1.2105775
1.2105249
1.2104628
1.2103907
1.2103065
1.2102064
1.2100874
1.2099555
1.2098103
1.2096237
1.2093407
1.2090307
1.2088593
1.2086576
1.2082881
1.2078666
1.2074738
1.207164
1.2068717
1.2065684
1.2062812
1.2060442
1.2059142
1.2058097
1.2056415
1.2054838
1.2053459
1.2053453
1.2048953
1.2043713
1.2102487
1.21021
1.2101614
1.2101043
1.2100375
1.2099593
1.2098683
1.2097636
1.2096434
1.209506
1.2093552
1.2091953
1.2090212
1.2087671
1.2085219
1.2083781
1.2080795
1.207705
1.2073545
1.2070688
1.2067769
1.2064849
1.2062344
1.2060999
1.2059642
1.2057698
1.2055953
1.2054091
1.2053529
1.2049752
1.204643
1.2097979
1.2097701
1.2097358
1.2096962
1.2096509
1.2095987
1.2095384
1.2094682
1.2093856
1.2092869
1.2091664
1.2090236
1.2088724
1.2087246
1.208496
1.2082513
1.2081423
1.2078794
1.2075335
1.2072151
1.2069322
1.2066624
1.2064276
1.2062792
1.2061128
1.2058901
1.2056886
1.2054706
1.2053688
1.2050211
1.2049378
1.2094783
1.2094545
1.2094248
1.2093901
1.2093497
1.2093023
1.2092467
1.2091818
1.2091071
1.2090225
1.2089292
1.2088252
1.2086995
1.2085458
1.2084092
1.208212
1.2079843
1.2078933
1.2076551
1.2073414
1.2070451
1.2068059
1.206615
1.2064486
1.2062502
1.2059968
1.205761
1.2054968
1.2053679
1.2050058
1.2051209
1.2090041
1.2089865
1.2089647
1.2089402
1.2089124
1.2088807
1.2088445
1.2088028
1.2087545
1.2086976
1.2086291
1.2085467
1.2084528
1.2083457
1.2082094
1.2080874
1.207909
1.2077043
1.2076292
1.2074367
1.2071726
1.2069391
1.2067747
1.206598
1.2063704
1.2061078
1.2058484
1.2055345
1.2054063
1.2050003
1.2053026
1.2085856
1.2085718
1.2085548
1.2085355
1.2085133
1.2084875
1.2084572
1.2084216
1.2083801
1.2083319
1.2082774
1.2082165
1.2081465
1.2080665
1.2079768
1.2078627
1.2077723
1.2076392
1.2074813
1.2074527
1.2073136
1.2070908
1.2068769
1.2066833
1.2064619
1.2062131
1.205969
1.2056506
1.2055197
1.205122
1.2054881
1.2081838
1.2081753
1.2081648
1.208153
1.2081396
1.2081242
1.2081063
1.2080856
1.2080615
1.2080336
1.2080009
1.207962
1.2079163
1.2078631
1.2078025
1.207737
1.2076471
1.2075803
1.2074712
1.2073262
1.2072776
1.2071276
1.2068884
1.2066902
1.2065074
1.2062934
1.2060865
1.2058003
1.2056558
1.2052575
1.205595
1.2079793
1.2079735
1.2079663
1.2079581
1.2079484
1.2079369
1.2079229
1.2079057
1.2078847
1.2078588
1.2078275
1.2077906
1.2077484
1.2077012
1.2076467
1.207586
1.2075223
1.2074374
1.2073755
1.2072441
1.2070497
1.2069275
1.2068019
1.2066507
1.2065006
1.2063481
1.2061679
1.2059326
1.2057756
1.2053584
1.2056095
1.2076971
1.2076924
1.2076865
1.2076798
1.207672
1.2076626
1.2076513
1.207638
1.2076223
1.2076038
1.207582
1.2075559
1.2075239
1.2074847
1.2074384
1.2073834
1.2073206
1.2072467
1.2071349
1.2070231
1.2069331
1.2068641
1.206748
1.2066207
1.2065093
1.2064062
1.2062781
1.2061155
1.2059553
1.2055103
1.2055463
1.2073937
1.2073886
1.2073831
1.2073773
1.2073709
1.2073636
1.2073553
1.2073457
1.2073345
1.2073211
1.2073051
1.2072862
1.2072645
1.20724
1.2072131
1.2071821
1.2071422
1.2070963
1.2070688
1.2070558
1.2070274
1.2069338
1.206816
1.2067044
1.2066059
1.2065276
1.2064609
1.206376
1.2062924
1.2059499
1.205989
1.2074164
1.2074158
1.2074149
1.2074138
1.2074124
1.2074107
1.2074085
1.2074059
1.2074025
1.2073984
1.2073933
1.2073868
1.207379
1.2073696
1.2073593
1.2073529
1.207351
1.2073495
1.2073297
1.2072786
1.2071937
1.2071041
1.2070268
1.2069493
1.2068934
1.2068369
1.2067647
1.206685
1.2066294
1.2064352
1.2067285
1.2078047
1.2078014
1.2077973
1.2077922
1.2077863
1.2077794
1.2077714
1.2077621
1.2077513
1.2077388
1.2077245
1.2077083
1.2076893
1.2076666
1.2076405
1.2076103
1.2075799
1.2075508
1.2075132
1.20747
1.2074006
1.2073329
1.2072685
1.2071817
1.2071115
1.2070477
1.2069807
1.2069272
1.2069365
1.2069412
1.2072581
1.2076291
1.2076201
1.2076113
1.2076029
1.2075948
1.2075868
1.2075786
1.2075703
1.2075614
1.2075518
1.2075409
1.2075284
1.207514
1.2074971
1.2074761
1.2074502
1.2074124
1.2073564
1.2072916
1.2071912
1.207134
1.2071059
1.2070448
1.2069759
1.2069265
1.2068704
1.2068316
1.2068069
1.2068093
1.207055
1.2071947
1.1837674
1.1839685
1.1844028
1.1850947
1.185947
1.1867986
1.1875974
1.1883131
1.1890181
1.1897722
1.1906133
1.1915572
1.1926038
1.1937457
1.1949862
1.1962879
1.1976765
1.199098
1.2005038
1.2015931
1.2019935
1.20228
1.20257
1.2028619
1.2030844
1.2032491
1.2032579
1.2032494
1.2032005
1.2034174
1.2021634
1.1840458
1.1845004
1.1852236
1.1860387
1.1867763
1.1874432
1.1880513
1.1886547
1.1893144
1.190057
1.1909019
1.1918494
1.1928973
1.1940352
1.1952642
1.1965408
1.1979018
1.1992401
1.2006363
1.2016217
1.2020169
1.2023067
1.2025986
1.2028886
1.2031079
1.2032698
1.2032791
1.2032709
1.203224
1.2034495
1.202177
1.1843796
1.184985
1.1856402
1.1863022
1.1869654
1.1876023
1.1881958
1.1888006
1.1894674
1.1902192
1.1910743
1.1920276
1.1930778
1.1942136
1.1954367
1.1967013
1.1980597
1.1993658
1.2007567
1.2016648
1.2020501
1.2023378
1.2026298
1.2029171
1.2031325
1.2032912
1.2033009
1.2032926
1.2032475
1.2034802
1.2021902
1.1846998
1.1853692
1.1859752
1.1865749
1.1871837
1.1877588
1.1883169
1.1889122
1.1895802
1.1903397
1.1912028
1.1921621
1.193216
1.1943526
1.1955738
1.196833
1.1981968
1.1994946
1.2008692
1.2017108
1.2020857
1.2023693
1.2026613
1.2029455
1.203157
1.2033125
1.2033229
1.2033143
1.2032711
1.2035103
1.2022041
1.1850247
1.1856845
1.186241
1.1867943
1.1873469
1.1878767
1.1884178
1.1890133
1.1896877
1.1904586
1.1913311
1.1922981
1.193357
1.1944956
1.1957155
1.1969698
1.1983369
1.1996351
1.2009706
1.2017543
1.2021212
1.2024012
1.2026931
1.2029741
1.2031815
1.2033337
1.2033451
1.2033362
1.2032948
1.2035398
1.2022187
1.1853576
1.1859438
1.1864561
1.1869696
1.1874727
1.187973
1.1885079
1.1891089
1.1897941
1.1905789
1.1914619
1.1924375
1.1935017
1.1946419
1.1958599
1.1971092
1.1984774
1.1997757
1.2010598
1.2017956
1.2021565
1.2024335
1.2027251
1.2030028
1.203206
1.2033547
1.2033674
1.2033581
1.2033186
1.2035689
1.2022339
1.1856775
1.1861607
1.1866244
1.1870958
1.1875627
1.1880482
1.1885857
1.189197
1.1898973
1.190697
1.1915916
1.1925762
1.1936453
1.1947871
1.1960027
1.1972473
1.1986148
1.1999122
1.2011462
1.2018355
1.2021919
1.2024662
1.2027574
1.2030316
1.2032305
1.2033757
1.2033897
1.2033801
1.2033425
1.2035976
1.2022495
1.1859164
1.1863275
1.1867436
1.1871783
1.1876238
1.1881064
1.188653
1.1892788
1.1899972
1.1908124
1.1917194
1.1927134
1.1937874
1.1949306
1.1961436
1.1973838
1.1987479
1.2000435
1.2012414
1.2018738
1.2022276
1.2024994
1.2027899
1.2030604
1.203255
1.2033966
1.2034121
1.2034021
1.2033665
1.2036258
1.2022651
1.1860806
1.1864401
1.186816
1.187224
1.1876613
1.1881504
1.1887115
1.1893559
1.1900943
1.1909258
1.191846
1.1928495
1.1939283
1.1950729
1.196283
1.1975188
1.198876
1.2001719
1.2013434
1.2019111
1.2022635
1.202533
1.2028226
1.2030893
1.2032795
1.2034175
1.2034344
1.2034241
1.2033906
1.2036537
1.2022804
1.1861722
1.1864899
1.1868406
1.1872379
1.1876792
1.1881825
1.1887628
1.1894295
1.1901889
1.1910377
1.1919718
1.1929846
1.1940682
1.195214
1.196421
1.1976522
1.1990036
1.2002961
1.2014406
1.2019498
1.2022998
1.2025671
1.2028554
1.2031182
1.2033041
1.2034386
1.2034566
1.2034462
1.2034148
1.2036811
1.2022952
1.1861926
1.1864857
1.1868272
1.1872267
1.187681
1.1882046
1.1888083
1.1895002
1.1902815
1.1911486
1.1920968
1.193119
1.194207
1.1953539
1.1965574
1.1977842
1.1991319
1.2004111
1.2015286
1.2019916
1.2023364
1.2026017
1.2028883
1.2031472
1.2033287
1.2034599
1.2034788
1.2034684
1.2034391
1.2037081
1.2023094
1.1861503
1.1864361
1.1867814
1.1871939
1.1876692
1.1882184
1.1888497
1.1895685
1.1903728
1.191259
1.1922212
1.1932526
1.1943449
1.1954927
1.1966922
1.1979156
1.1992588
1.2005194
1.2016086
1.2020358
1.2023735
1.2026366
1.2029213
1.2031761
1.2033534
1.2034818
1.2035011
1.2034907
1.2034635
1.2037346
1.2023239
1.1860547
1.186347
1.1867077
1.1871425
1.1876458
1.1882255
1.188888
1.1896351
1.1904634
1.191369
1.1923453
1.1933856
1.1944819
1.1956302
1.1968255
1.1980466
1.1993777
1.2006263
1.2016823
1.202081
1.2024108
1.2026718
1.2029543
1.203205
1.2033782
1.2035043
1.2035238
1.203513
1.203488
1.2037606
1.20234
1.1859129
1.1862236
1.1866101
1.1870756
1.1876131
1.1882276
1.1889241
1.1897007
1.190554
1.1914792
1.1924693
1.1935181
1.1946179
1.1957665
1.1969572
1.1981744
1.1994907
1.2007353
1.2017517
1.2021265
1.2024482
1.2027074
1.2029874
1.2032339
1.2034032
1.2035276
1.2035468
1.2035354
1.2035125
1.2037862
1.2023648
1.185731
1.1860706
1.1864922
1.1869959
1.1875731
1.1882266
1.1889589
1.1897663
1.1906451
1.1915897
1.1925933
1.19365
1.1947531
1.1959015
1.1970873
1.198304
1.1996027
1.200842
1.2018175
1.2021723
1.2024859
1.2027433
1.2030204
1.2032627
1.2034282
1.2035519
1.2035704
1.2035582
1.2035372
1.203811
1.2023762
1.1855134
1.1858922
1.1863576
1.1869066
1.1875283
1.1882241
1.1889937
1.1898329
1.1907373
1.191701
1.1927174
1.1937816
1.1948874
1.1960352
1.1972164
1.1984361
1.199708
1.2009453
1.2018802
1.2022181
1.2025237
1.2027794
1.2030535
1.2032915
1.2034534
1.2035773
1.2035944
1.2035812
1.2035619
1.2038351
1.2023961
1.1852651
1.1856929
1.1862105
1.1868108
1.1874813
1.1882218
1.18903
1.1899015
1.1908311
1.1918134
1.1928419
1.1939129
1.1950209
1.1961677
1.1973455
1.1985696
1.1998078
1.2010463
1.2019408
1.2022635
1.2025616
1.2028157
1.2030864
1.2033201
1.2034786
1.203604
1.2036189
1.2036047
1.2035869
1.2038585
1.2024194
1.1849916
1.1854782
1.1860554
1.1867123
1.1874351
1.1882218
1.1890693
1.1899729
1.1909272
1.1919271
1.192967
1.194044
1.1951536
1.1962989
1.1974756
1.198697
1.1999101
1.2011452
1.2019996
1.2023083
1.2025998
1.2028522
1.2031193
1.2033487
1.2035039
1.2036319
1.203644
1.2036286
1.2036121
1.2038811
1.2024451
1.1847008
1.185255
1.1858981
1.1866154
1.1873927
1.188226
1.1891131
1.1900481
1.191026
1.1920426
1.1930929
1.194175
1.1952855
1.1964288
1.1976016
1.1988177
1.200019
1.2012424
1.202057
1.2023528
1.2026382
1.2028887
1.2031521
1.2033771
1.2035293
1.2036611
1.2036694
1.203653
1.2036375
1.2039029
1.2024734
1.1844029
1.1850316
1.1857447
1.1865247
1.1873571
1.188237
1.1891629
1.190128
1.1911282
1.1921602
1.1932196
1.1943059
1.1954165
1.1965581
1.1977281
1.1989358
1.2001276
1.201338
1.2021131
1.2023968
1.2026767
1.2029254
1.2031849
1.2034054
1.2035547
1.2036914
1.2036952
1.2036778
1.2036631
1.2039241
1.2025064
1.1841098
1.1848174
1.1856022
1.1864453
1.187332
1.188257
1.1892203
1.1902136
1.1912343
1.1922802
1.1933475
1.1944367
1.1955468
1.1966887
1.1978554
1.1990469
1.2002395
1.2014284
1.2021682
1.2024406
1.2027154
1.2029621
1.2032174
1.2034335
1.2035802
1.2037226
1.2037212
1.2037032
1.2036889
1.2039447
1.2025511
1.1838337
1.1846218
1.1854775
1.1863823
1.1873212
1.1882882
1.1892867
1.1903058
1.1913449
1.192403
1.1934765
1.1945674
1.1956771
1.1968218
1.1979735
1.1991527
1.2003513
1.2015122
1.2022224
1.2024843
1.2027543
1.2029988
1.2032499
1.2034615
1.2036056
1.2037544
1.2037474
1.203729
1.2037149
1.2039643
1.2025863
1.1835872
1.1844555
1.1853779
1.1863412
1.1873287
1.1883327
1.1893638
1.1904056
1.1914605
1.1925288
1.1936067
1.1946983
1.1958098
1.196952
1.1980846
1.1992598
1.2004537
1.2015944
1.2022763
1.2025278
1.2027933
1.2030355
1.2032822
1.2034892
1.2036311
1.2037863
1.2037737
1.2037552
1.2037411
1.2039833
1.202621
1.1833943
1.1843319
1.1853111
1.1863268
1.1873562
1.1883933
1.1894533
1.1905139
1.1915816
1.1926577
1.1937384
1.1948316
1.1959481
1.197072
1.198196
1.199365
1.200547
1.2016794
1.2023297
1.2025713
1.2028324
1.2030721
1.2033143
1.2035168
1.2036564
1.2038173
1.2038
1.2037819
1.2037673
1.2040017
1.2026548
1.1832543
1.1842557
1.1852854
1.1863396
1.1874029
1.188475
1.1895562
1.190632
1.1917086
1.19279
1.1938732
1.1949712
1.1960771
1.1971832
1.1983116
1.1994682
1.2006372
1.2017689
1.2023828
1.2026149
1.2028716
1.2031086
1.2033463
1.2035441
1.2036816
1.203847
1.2038262
1.2038091
1.2037937
1.2040195
1.2026877
1.1831776
1.1842333
1.1853023
1.1863872
1.1874798
1.1885753
1.1896716
1.1907605
1.1918425
1.1929269
1.1940157
1.1951136
1.1961959
1.1973012
1.1984254
1.1995693
1.2007272
1.2018605
1.2024353
1.2026585
1.2029108
1.2031449
1.203378
1.2035712
1.2037067
1.2038748
1.2038524
1.2038369
1.2038202
1.2040369
1.2027197
1.1831732
1.1842716
1.1853676
1.1864743
1.1875868
1.188697
1.1898025
1.1908981
1.1919847
1.1930731
1.1941698
1.1952414
1.1963095
1.1974211
1.1985369
1.1996683
1.2008168
1.2019502
1.2024875
1.2027023
1.20295
1.203181
1.2034096
1.2035981
1.2037316
1.2039008
1.2038784
1.2038653
1.2038468
1.2040539
1.2027507
1.1832471
1.184376
1.1854859
1.1866033
1.1877254
1.1888416
1.1899502
1.1910486
1.1921398
1.1932365
1.1943072
1.1953569
1.1964351
1.1975396
1.1986465
1.1997653
1.2009053
1.2020365
1.2025395
1.2027462
1.2029893
1.2032169
1.2034409
1.2036248
1.2037563
1.2039253
1.2039043
1.2038947
1.2038734
1.2040707
1.2027806
1.1834038
1.1845502
1.18566
1.1867762
1.1878978
1.1890115
1.1901193
1.1912222
1.1923194
1.1933973
1.1944298
1.1954896
1.1965613
1.1976569
1.1987547
1.1998602
1.2009924
1.2021197
1.2025914
1.2027904
1.2030286
1.2032525
1.2034719
1.2036512
1.2037808
1.2039484
1.2039301
1.2039248
1.2039002
1.2040874
1.2028094
1.1836469
1.1847982
1.1858935
1.1869968
1.1881097
1.1892162
1.1903262
1.1914313
1.1925064
1.1935291
1.1945556
1.1956241
1.1966858
1.197773
1.1988613
1.1999528
1.2010781
1.2022001
1.2026431
1.2028347
1.2030677
1.2032879
1.2035028
1.2036773
1.203805
1.2039705
1.2039558
1.2039558
1.203927
1.204104
1.2028371
1.1839847
1.1851291
1.1861957
1.1872764
1.1883759
1.189476
1.1905794
1.1916396
1.192641
1.193653
1.1947019
1.1957586
1.1968095
1.1978884
1.1989664
1.2000432
1.2011619
1.202278
1.2026944
1.2028792
1.2031067
1.203323
1.2035333
1.2037032
1.203829
1.2039916
1.2039814
1.2039874
1.2039538
1.2041204
1.2028638
1.1844357
1.1855556
1.1865812
1.1876313
1.1887006
1.1897636
1.1908125
1.191783
1.192775
1.1938188
1.1948519
1.1958938
1.196933
1.1980028
1.1990699
1.2001313
1.2012438
1.2023536
1.2027453
1.2029235
1.2031453
1.2033577
1.2035635
1.2037288
1.2038527
1.204012
1.2040067
1.2040193
1.2039805
1.2041369
1.2028893
1.1849419
1.1860338
1.1870107
1.1880159
1.1890165
1.1900043
1.1909705
1.1919363
1.1929645
1.1939939
1.1950034
1.1960298
1.1970561
1.1981162
1.1991715
1.2002174
1.2013241
1.2024273
1.2027957
1.2029674
1.2031837
1.2033922
1.2035934
1.2037541
1.2038762
1.2040317
1.2040319
1.204052
1.204007
1.2041533
1.2029138
1.1854319
1.1864937
1.1874031
1.1883506
1.1892807
1.1902039
1.1911591
1.1921622
1.1931678
1.1941733
1.1951583
1.1961672
1.1971789
1.1982287
1.1992711
1.2003017
1.2014025
1.2024991
1.2028458
1.2030108
1.2032218
1.2034262
1.2036229
1.2037791
1.2038994
1.2040509
1.2040569
1.204084
1.2040332
1.2041696
1.2029371
1.1859463
1.1869598
1.187794
1.1886415
1.1895482
1.1905083
1.1914561
1.1924105
1.1933787
1.194359
1.1953173
1.1963059
1.1973014
1.1983401
1.1993686
1.2003843
1.201479
1.202569
1.2028956
1.2030537
1.2032596
1.20346
1.2036522
1.2038039
1.2039224
1.2040697
1.2040816
1.204116
1.2040587
1.2041859
1.2029593
1.1867686
1.187672
1.1884015
1.1891668
1.1900112
1.1908937
1.1917825
1.1926733
1.1936001
1.1945524
1.1954806
1.1964461
1.1974236
1.1984504
1.1994643
1.2004654
1.2015534
1.2026369
1.2029449
1.2030959
1.2032971
1.2034933
1.2036811
1.2038285
1.2039452
1.2040882
1.204106
1.2041476
1.2040838
1.2042021
1.2029805
1.1876871
1.1885037
1.1891248
1.1897898
1.1905303
1.1913169
1.1921293
1.1929527
1.1938338
1.1947535
1.1956485
1.1965878
1.1975456
1.1985595
1.199558
1.2005452
1.2016258
1.2027028
1.2029938
1.2031375
1.2033343
1.2035263
1.2037096
1.2038528
1.2039677
1.2041064
1.2041301
1.204178
1.204108
1.2042183
1.2030007
1.188619
1.1893669
1.1898853
1.190447
1.1910816
1.1917714
1.1925006
1.19325
1.1940801
1.194962
1.1958211
1.1967312
1.1976674
1.1986673
1.1996498
1.2006237
1.201696
1.2027667
1.2030423
1.2031784
1.2033712
1.203559
1.2037378
1.2038769
1.2039901
1.2041245
1.2041539
1.2042071
1.2041312
1.2042344
1.2030197
1.1896213
1.1902894
1.1906951
1.1911449
1.1916703
1.1922588
1.1928971
1.1935649
1.1943393
1.1951779
1.1959988
1.1968764
1.1977889
1.1987736
1.1997395
1.2007013
1.2017641
1.2028285
1.2030905
1.2032186
1.2034078
1.2035913
1.2037656
1.2039008
1.2040123
1.2041423
1.2041774
1.2042351
1.2041537
1.2042503
1.2030375
1.1907128
1.1912841
1.1915622
1.1918887
1.1922976
1.1927784
1.1933179
1.193897
1.194612
1.1954012
1.1961817
1.1970235
1.1979102
1.1988784
1.199827
1.200778
1.2018301
1.2028881
1.2031382
1.2032581
1.2034439
1.2036232
1.2037931
1.2039245
1.2040344
1.2041598
1.2042005
1.204262
1.2041756
1.204266
1.2030536
1.1918847
1.1923445
1.192482
1.1926753
1.192961
1.1933288
1.1937619
1.1942461
1.1948992
1.1956316
1.1963701
1.1971729
1.1980314
1.1989815
1.1999122
1.2008542
1.201894
1.2029454
1.2031854
1.2032968
1.2034797
1.2036548
1.2038202
1.203948
1.2040563
1.204177
1.2042232
1.2042883
1.2041971
1.2042815
1.2030712
1.193109
1.1934529
1.1934439
1.1934987
1.1936575
1.1939082
1.194228
1.1946134
1.1952017
1.1958689
1.196564
1.1973249
1.1981526
1.1990827
1.1999948
1.20093
1.201956
1.2030003
1.2032322
1.2033348
1.203515
1.203686
1.203847
1.2039711
1.2040782
1.204194
1.2042455
1.2043141
1.2042186
1.2042967
1.2030909
1.194352
1.1945875
1.1944363
1.1943537
1.1943847
1.1945147
1.1947153
1.1950032
1.1955182
1.1961124
1.1967634
1.1974795
1.1982737
1.1991818
1.2000743
1.2010056
1.2020162
1.2030527
1.2032783
1.2033719
1.2035499
1.2037168
1.2038735
1.203994
1.2041
1.2042108
1.2042673
1.2043396
1.2042397
1.2043116
1.2031135
1.195592
1.195733
1.1954526
1.1952377
1.1951414
1.1951448
1.1952267
1.1954238
1.1958411
1.1963611
1.1969677
1.1976369
1.1983948
1.1992783
1.2001504
1.2010809
1.2020748
1.2031027
1.2033239
1.2034083
1.2035843
1.2037473
1.2038997
1.2040165
1.2041216
1.2042274
1.2042886
1.2043647
1.2042607
1.2043261
1.2031397
1.1968326
1.1968864
1.1964925
1.1961506
1.1959255
1.1957979
1.1957735
1.1958703
1.1961635
1.196616
1.1971772
1.1977977
1.1985166
1.1993727
1.2002235
1.2011556
1.2021318
1.2031499
1.2033688
1.203444
1.2036183
1.2037774
1.2039256
1.2040387
1.2041431
1.2042438
1.2043094
1.2043894
1.204282
1.2043403
1.2031709
1.1981116
1.1980612
1.1975637
1.1970981
1.1967344
1.1964941
1.1963655
1.1963351
1.196499
1.1968795
1.1973955
1.197966
1.1986427
1.199468
1.2002971
1.2012291
1.2021873
1.2031931
1.2034126
1.2034787
1.2036514
1.2038068
1.2039511
1.2040604
1.2041644
1.20426
1.2043296
1.2044134
1.204304
1.2043541
1.2031989
1.1995171
1.1993103
1.1987114
1.1981162
1.1976279
1.1972723
1.1970107
1.1968493
1.196895
1.1971783
1.1976391
1.1981558
1.1987854
1.1995743
1.2003798
1.201304
1.2022418
1.2032294
1.2034532
1.2035113
1.2036834
1.2038354
1.203976
1.2040814
1.2041857
1.204276
1.2043492
1.2044367
1.2043266
1.2043674
1.2032233
1.2011613
1.2007535
1.2000754
1.1993463
1.1987071
1.1981941
1.1977919
1.1975004
1.1974397
1.1975813
1.1979425
1.1983912
1.1989642
1.199708
1.2004839
1.2013892
1.2022978
1.2032583
1.2034873
1.2035415
1.2037141
1.2038632
1.2040005
1.2041021
1.2042071
1.2042919
1.2043684
1.20446
1.20435
1.20438
1.203245
1.2028227
1.2023269
1.201693
1.2008553
1.2000261
1.1993104
1.1987349
1.1983232
1.1981353
1.1981386
1.1983183
1.1986727
1.1991784
1.1998685
1.2006094
1.2014904
1.202362
1.2032997
1.2035203
1.2035751
1.2037465
1.2038921
1.204026
1.2041233
1.2042291
1.2043081
1.2043876
1.2044835
1.2043739
1.2043916
1.2032808
1.1841818
1.184521
1.1849745
1.185544
1.1862873
1.1870717
1.1878278
1.1885307
1.1892341
1.1899866
1.1908181
1.1917455
1.192772
1.1938904
1.195101
1.1963706
1.1977013
1.1991008
1.2003667
1.2014996
1.2019328
1.2022397
1.2025364
1.2028318
1.2030584
1.2032262
1.2032357
1.2032275
1.2031774
1.2033878
1.2021581
1.1841019
1.184424
1.1849134
1.185554
1.1862898
1.1870525
1.1877949
1.1884966
1.1891998
1.1899487
1.1907732
1.191692
1.1927106
1.1938231
1.1950291
1.1963003
1.1976291
1.199059
1.2002968
1.2014749
1.201911
1.2022143
1.2025108
1.2028076
1.2030366
1.203206
1.2032159
1.2032079
1.2031575
1.2033592
1.2021468
1.1840746
1.1843618
1.1848163
1.1854402
1.1861806
1.1869715
1.1877393
1.1884613
1.1891762
1.1899279
1.1907487
1.1916595
1.1926688
1.1937731
1.1949718
1.1962417
1.1975672
1.1990095
1.2002489
1.2014472
1.2018906
1.2021921
1.2024876
1.2027851
1.203016
1.2031863
1.2031965
1.2031882
1.2031377
1.2033303
1.2021357
1.1841147
1.1843937
1.184818
1.1853946
1.1861206
1.1869283
1.1877168
1.1884569
1.1891827
1.1899369
1.1907533
1.1916548
1.1926529
1.1937461
1.1949343
1.1961986
1.1975171
1.1989603
1.200201
1.2014117
1.2018653
1.2021678
1.2024634
1.2027617
1.2029946
1.203166
1.2031766
1.203168
1.2031171
1.2033016
1.2021252
1.1841613
1.18444
1.1848453
1.1853904
1.1860994
1.186909
1.1877081
1.1884613
1.1891963
1.1899532
1.1907659
1.1916588
1.192646
1.1937281
1.1949051
1.1961626
1.1974725
1.1989126
1.2001506
1.2013729
1.2018382
1.2021421
1.202438
1.2027374
1.2029724
1.2031451
1.2031563
1.2031472
1.2030958
1.2032729
1.2021153
1.1842015
1.1844742
1.1848645
1.1853925
1.186086
1.1868926
1.1876986
1.1884632
1.1892069
1.189967
1.1907771
1.1916628
1.1926401
1.1937118
1.194878
1.1961285
1.1974298
1.1988658
1.2000994
1.2013326
1.201811
1.2021161
1.2024123
1.2027127
1.2029498
1.2031239
1.2031358
1.2031259
1.2030741
1.2032442
1.2021058
1.1842397
1.1845058
1.1848804
1.1853912
1.1860711
1.1868744
1.1876868
1.1884621
1.1892144
1.1899782
1.1907865
1.1916659
1.1926341
1.1936959
1.1948517
1.196095
1.1973879
1.1988194
1.2000484
1.2012908
1.2017841
1.2020901
1.2023864
1.2026878
1.2029269
1.2031025
1.2031151
1.2031042
1.2030521
1.2032152
1.2020968
1.1842787
1.1845394
1.1849
1.1853931
1.1860585
1.186857
1.1876748
1.1884599
1.1892206
1.1899881
1.1907951
1.1916688
1.1926284
1.1936807
1.1948262
1.1960622
1.197347
1.1987733
1.199998
1.2012475
1.2017571
1.2020641
1.2023605
1.2026627
1.2029038
1.203081
1.2030944
1.2030822
1.2030297
1.2031859
1.2020881
1.1843194
1.184576
1.1849244
1.1854016
1.1860513
1.1868428
1.1876642
1.1884578
1.1892261
1.1899974
1.1908034
1.1916719
1.1926233
1.1936664
1.1948018
1.1960304
1.197307
1.1987275
1.1999485
1.201203
1.2017297
1.2020381
1.2023345
1.2026375
1.2028802
1.2030593
1.2030736
1.2030597
1.2030069
1.2031561
1.2020796
1.1843627
1.1846155
1.1849536
1.1854163
1.1860501
1.1868327
1.1876556
1.1884563
1.1892313
1.1900063
1.1908115
1.1916753
1.192619
1.193653
1.1947786
1.1959995
1.1972681
1.1986822
1.1999011
1.2011572
1.2017018
1.202012
1.2023083
1.202612
1.2028564
1.2030374
1.2030527
1.2030367
1.2029836
1.2031258
1.2020712
1.1844089
1.1846587
1.1849871
1.1854368
1.1860548
1.186827
1.1876494
1.1884557
1.1892367
1.1900151
1.1908197
1.1916791
1.1926155
1.1936407
1.1947565
1.1959695
1.1972302
1.198637
1.1998554
1.2011102
1.2016736
1.2019858
1.202282
1.2025863
1.2028321
1.2030153
1.2030316
1.2030133
1.2029599
1.2030947
1.2020628
1.1844585
1.1847065
1.1850247
1.1854626
1.1860653
1.1868258
1.187646
1.1884564
1.1892425
1.1900238
1.190828
1.1916833
1.1926127
1.1936293
1.1947356
1.1959406
1.1971933
1.1985927
1.1998066
1.2010616
1.201645
1.2019596
1.2022555
1.2025604
1.2028075
1.202993
1.2030104
1.2029896
1.2029358
1.2030629
1.2020542
1.1845112
1.1847564
1.1850688
1.1854943
1.186082
1.1868295
1.1876457
1.1884588
1.1892491
1.1900329
1.1908365
1.191688
1.1926106
1.193619
1.1947158
1.1959126
1.1971575
1.1985513
1.1997574
1.2010113
1.2016155
1.2019334
1.202229
1.2025342
1.2027826
1.2029705
1.202989
1.2029654
1.2029111
1.2030303
1.2020452
1.1845684
1.1848105
1.185117
1.1855317
1.1861049
1.1868382
1.1876489
1.1884631
1.1892565
1.1900424
1.1908454
1.1916932
1.1926094
1.1936096
1.1946972
1.1958856
1.1971228
1.1985091
1.1997126
1.2009641
1.2015852
1.2019073
1.2022024
1.2025079
1.2027573
1.2029478
1.2029674
1.202941
1.2028858
1.202997
1.2020355
1.1846297
1.1848682
1.1851698
1.1855752
1.1861338
1.1868522
1.1876557
1.1884696
1.1892652
1.1900526
1.1908548
1.191699
1.1926089
1.1936012
1.1946797
1.1958596
1.1970892
1.1984667
1.199671
1.2009215
1.2015545
1.2018811
1.2021757
1.2024814
1.2027317
1.2029249
1.2029456
1.2029163
1.2028599
1.2029631