/*--------------------------------*- C++ -*----------------------------------*\
| =========                 |                                                 |
| \\      /  F ield         | OpenFOAM: The Open Source CFD Toolbox           |
|  \\    /   O peration     | Version:  2406                                  |
|   \\  /    A nd           | Website:  www.openfoam.com                      |
|    \\/     M anipulation  |                                                 |
\*---------------------------------------------------------------------------*/
FoamFile
{
    version     2.0;
    format      ascii;
    arch        "LSB;label=32;scalar=64";
    class       volScalarField;
    location    "0.023";
    object      Ma;
}
// * * * * * * * * * * * * * * * * * * * * * * * * * * * * * * * * * * * * * //

dimensions      [0 0 0 0 0 0 0];

internalField   nonuniform List<scalar> 
35803
(
0.15734913
0.15846567
0.15955103
0.16066901
0.16175656
0.16280132
0.16379422
0.1647229
0.16576956
0.16702161
0.16852949
0.17008894
0.17176652
0.17353468
0.17534323
0.17683606
0.17736681
0.17587436
0.17206348
0.16900358
0.16728402
0.16590918
0.16441084
0.16384644
0.16215229
0.16094535
0.15936159
0.15894191
0.15804439
0.15765924
0.14995844
0.15455034
0.15576191
0.15705977
0.15837369
0.1596793
0.16096262
0.1622185
0.16345005
0.16475254
0.16620899
0.16784058
0.16953441
0.17131875
0.17316184
0.17501197
0.17650346
0.17697028
0.17536102
0.17154634
0.16866225
0.16705194
0.16572484
0.16425993
0.1637363
0.1620488
0.16085761
0.15928983
0.15888149
0.15798637
0.1576387
0.14995217
0.15090834
0.15231251
0.15389875
0.15550613
0.15710713
0.15869321
0.1602572
0.16181067
0.16340201
0.16510223
0.16692203
0.16878605
0.17070513
0.17264641
0.17455682
0.17606291
0.17648408
0.17476606
0.17098058
0.16830301
0.16680265
0.16552788
0.16407747
0.16361098
0.16193507
0.16075912
0.15921846
0.15882998
0.15792445
0.15761271
0.14994272
0.14711988
0.14872272
0.15055364
0.15243672
0.1543298
0.15622086
0.15810148
0.15997257
0.16186399
0.16382393
0.16586051
0.1679132
0.16998316
0.17203558
0.17401259
0.17553014
0.17589597
0.17405893
0.17033
0.1678916
0.16651168
0.16529421
0.16385482
0.16345271
0.1617958
0.16063514
0.15914476
0.15877321
0.15786036
0.15758036
0.14993028
0.14331069
0.14509075
0.14712156
0.14924273
0.15140482
0.15358784
0.15577742
0.15796464
0.16015979
0.16238809
0.16465314
0.1669076
0.16914171
0.17131637
0.17336509
0.17488857
0.1751828
0.17321496
0.16958609
0.16742915
0.16617843
0.16502412
0.16363341
0.16327496
0.16164398
0.16049665
0.15907006
0.1587128
0.15779193
0.15754294
0.14991995
0.13961385
0.14152619
0.14370502
0.14601306
0.14840174
0.15084378
0.15331714
0.15580221
0.15829129
0.16078839
0.16328801
0.1657521
0.16816004
0.17046565
0.17258961
0.17411166
0.17431308
0.1722069
0.16874379
0.16690773
0.16579607
0.16471031
0.16340103
0.16307932
0.16148385
0.16034753
0.15899287
0.15864541
0.15772682
0.1575002
0.14990737
0.13616574
0.13815662
0.14042664
0.14286257
0.14542076
0.14806951
0.15078034
0.15352462
0.15627975
0.15903121
0.16176166
0.16443517
0.16702
0.16945989
0.17165773
0.17316628
0.17324659
0.17100102
0.16780555
0.16631981
0.16535805
0.1643476
0.16314023
0.16286602
0.16131813
0.16019122
0.15889715
0.15856741
0.15765925
0.15745393
0.14989334
0.13307247
0.13511688
0.13742854
0.1399295
0.14258761
0.1453727
0.14825388
0.15119725
0.15416965
0.15714153
0.16008264
0.16295244
0.16570666
0.16827509
0.17053614
0.17201195
0.17193127
0.16954893
0.1667836
0.16565581
0.16485613
0.16392924
0.16282005
0.16260753
0.1611522
0.16002573
0.15877913
0.15846841
0.15758181
0.15740394
0.14987724
0.13055669
0.13259385
0.13488214
0.13737065
0.14004319
0.14287632
0.14584142
0.14890329
0.15202271
0.15515917
0.15827011
0.16130564
0.16420681
0.16688482
0.16918512
0.17059419
0.17029652
0.16783378
0.16569556
0.16490584
0.1642803
0.16344825
0.16245795
0.16226921
0.16097851
0.15985492
0.15864901
0.1583442
0.15749005
0.15733809
0.14985838
0.12876242
0.1307116
0.13290124
0.13529964
0.13790112
0.14069064
0.1436449
0.14673145
0.14990999
0.15313414
0.15635167
0.15950143
0.16250768
0.16525754
0.16755273
0.16882965
0.16824841
0.16590674
0.16454438
0.16406167
0.16361888
0.1628979
0.16203864
0.1619363
0.16076754
0.1596679
0.1585107
0.15820019
0.15738844
0.15725902
0.14983592
0.12768103
0.12949487
0.13153558
0.13378276
0.13623897
0.13889899
0.14174796
0.14475984
0.14789827
0.15111646
0.15435654
0.15754658
0.16059237
0.16334985
0.16555948
0.16659219
0.16567486
0.16387527
0.16331164
0.16311651
0.16285979
0.1622711
0.16155961
0.16151689
0.16051643
0.15944326
0.15834655
0.15804083
0.1572756
0.15716751
0.1498088
0.12726711
0.12890882
0.13076721
0.13282257
0.13507662
0.13753248
0.14018828
0.14302887
0.14602586
0.14913613
0.15229971
0.15543504
0.15842699
0.16108956
0.16307379
0.16368001
0.16267374
0.16192357
0.16198191
0.16206427
0.16199323
0.16155966
0.16100763
0.16105423
0.16020613
0.15915528
0.15815352
0.15785757
0.15714354
0.15706122
0.14977572
0.12754459
0.12893034
0.13052042
0.13230919
0.13430135
0.13649795
0.1388982
0.14149433
0.14426485
0.14717104
0.15015254
0.15311798
0.15592568
0.15832972
0.1598503
0.15996171
0.15972173
0.16003103
0.16055272
0.16090954
0.16102221
0.16075
0.16037872
0.16051557
0.15983492
0.15882626
0.15792919
0.15764182
0.15699892
0.15693453
0.14973514
0.12812728
0.12928785
0.13061864
0.13211462
0.13379405
0.13567588
0.13776509
0.14005296
0.14251677
0.1451166
0.1477869
0.15041855
0.1528381
0.15476481
0.15575528
0.15610138
0.15711022
0.15819078
0.15903433
0.1596448
0.15994446
0.15985189
0.15966804
0.1599198
0.15939535
0.15844663
0.15766253
0.15739007
0.15681708
0.15678662
0.14968519
0.12865436
0.12958261
0.13067713
0.13192917
0.13333513
0.13489902
0.13662642
0.13852172
0.1405699
0.14273838
0.14496791
0.14713372
0.14905382
0.15050265
0.1516404
0.15321023
0.15495583
0.15632044
0.15744131
0.15829628
0.15877184
0.15887554
0.15887457
0.15924036
0.1588802
0.15801607
0.15734782
0.15709722
0.15659505
0.15660765
0.14962417
0.12862041
0.12923817
0.13000743
0.13095353
0.13209888
0.13343105
0.13488622
0.13646717
0.13816647
0.13994652
0.14174943
0.14354066
0.14531174
0.14710107
0.14909412
0.15107156
0.15289417
0.15449231
0.15581326
0.15687475
0.1575246
0.15782315
0.15799299
0.15849841
0.15826811
0.1575259
0.15697944
0.15675766
0.15633022
0.15638308
0.14955173
0.12957277
0.13001888
0.13053262
0.13111451
0.13179462
0.13263299
0.13366342
0.13488542
0.13627963
0.13777489
0.13938935
0.1411578
0.143015
0.14515671
0.14731514
0.14916065
0.1510446
0.15275593
0.15421708
0.15542288
0.15622565
0.15668371
0.15704963
0.15767838
0.15757096
0.15697123
0.15655012
0.15636229
0.1560051
0.1561049
0.14947026
0.13158587
0.13198977
0.132452
0.13297101
0.13353978
0.13414224
0.13475854
0.13538025
0.13612026
0.13716835
0.13849641
0.14011839
0.14174936
0.14356493
0.14561038
0.14765432
0.14947538
0.15117242
0.15271879
0.15401292
0.15489235
0.15548635
0.15604487
0.15679948
0.15682608
0.15634985
0.15605341
0.15590118
0.1556182
0.15577085
0.14938452
0.13294843
0.13324462
0.13359466
0.13401068
0.13451068
0.13511975
0.1358634
0.13672594
0.13755699
0.13835728
0.13922796
0.14008265
0.14128908
0.14276342
0.14444883
0.14638128
0.14818851
0.14977615
0.15135245
0.15269604
0.15360157
0.15429592
0.1550067
0.1558647
0.15608048
0.15567772
0.1554893
0.15538623
0.15517539
0.15537982
0.14927462
0.13547502
0.1356898
0.13593551
0.13621291
0.13652275
0.13686434
0.13723971
0.13766514
0.13818339
0.13883364
0.13966361
0.14073997
0.14183216
0.14265135
0.14391831
0.14536636
0.14690736
0.14852763
0.15012168
0.15148661
0.15241275
0.15319424
0.15398428
0.15490729
0.15532588
0.1549841
0.15487704
0.1548377
0.15468913
0.15494882
0.14919432
0.13699095
0.13716005
0.1373599
0.13759583
0.1378765
0.13821286
0.13861579
0.13909113
0.13963498
0.14023717
0.14088018
0.14150949
0.14225096
0.14327573
0.14397279
0.14499241
0.14614927
0.14751005
0.14897844
0.15034367
0.15132332
0.15219763
0.15303995
0.15395005
0.15451647
0.15428088
0.15423783
0.15426791
0.15417356
0.15450014
0.14909988
0.13933709
0.13945428
0.13958848
0.13974065
0.13991187
0.14010259
0.14031428
0.14055171
0.14082675
0.14116252
0.14159654
0.14218481
0.14288169
0.14358866
0.14447833
0.14513635
0.14594999
0.14702886
0.14817361
0.14932434
0.15030779
0.15122628
0.15212018
0.15299063
0.15362605
0.15353538
0.15357784
0.15366861
0.15359065
0.15375702
0.14900491
0.1408196
0.14091079
0.14101842
0.14114562
0.14129728
0.14147958
0.14169941
0.14196334
0.14227531
0.14263314
0.14302515
0.14342402
0.14382914
0.14431071
0.14480921
0.14546819
0.14625684
0.14695929
0.1477802
0.14865459
0.14953437
0.15026629
0.15103386
0.15203298
0.15269573
0.15273947
0.15289296
0.15304217
0.15294663
0.15309093
0.14891488
0.14298407
0.14304238
0.14310878
0.14318371
0.14326771
0.14336111
0.14346438
0.14357879
0.14370843
0.14386462
0.14407483
0.14436843
0.14473631
0.14515906
0.14567282
0.1462131
0.14669085
0.14728442
0.14768275
0.1483135
0.14907304
0.14954979
0.14998916
0.15115102
0.15182488
0.15195266
0.15219448
0.15238813
0.15226099
0.15240286
0.14880962
0.14424728
0.14429328
0.1443484
0.14441448
0.14449417
0.14459084
0.14470831
0.14485025
0.14501807
0.14520582
0.14539081
0.14556028
0.14575769
0.14599918
0.14628585
0.14662693
0.14701914
0.14739457
0.14789004
0.14826547
0.14886222
0.14913702
0.14944136
0.15046748
0.15111481
0.15123499
0.15152661
0.15174026
0.15155895
0.15165809
0.14868607
0.14592942
0.14595097
0.14597416
0.14599849
0.14602315
0.14604678
0.14606769
0.14608444
0.14609767
0.14611353
0.14614827
0.14622183
0.14633846
0.14649939
0.14671042
0.14697608
0.14726733
0.14769486
0.14806426
0.14858923
0.14882847
0.14885539
0.1490555
0.14997204
0.15053189
0.15056185
0.15085582
0.15107561
0.15092376
0.1511252
0.14854861
0.14689573
0.14690934
0.14692558
0.14694463
0.14696692
0.14699294
0.14702334
0.147059
0.14710116
0.14715112
0.14720853
0.14727094
0.1473394
0.14742053
0.14752646
0.1476748
0.14788972
0.14814159
0.1484725
0.1486915
0.14881964
0.14870299
0.14865671
0.14941123
0.14991641
0.14991273
0.15020028
0.15035352
0.15035682
0.15060371
0.14848177
0.14807305
0.14807889
0.14808552
0.14809284
0.14810092
0.14810968
0.14811869
0.14812696
0.14813294
0.14813586
0.1481368
0.14813736
0.14813854
0.14814259
0.14815835
0.14820999
0.1483245
0.14849901
0.14865282
0.14872568
0.14882712
0.14879205
0.14850877
0.14881056
0.14933149
0.1493402
0.14956031
0.14966635
0.14980554
0.14999788
0.14845599
0.14864982
0.14864672
0.14864335
0.14863988
0.14863661
0.14863398
0.14863226
0.14863113
0.14862892
0.14862301
0.14861161
0.14859436
0.14857009
0.14853875
0.1485075
0.14850853
0.14856997
0.14868913
0.14877592
0.14877459
0.14883167
0.14897475
0.14848785
0.14839534
0.14887076
0.14886089
0.14900381
0.14912778
0.14927956
0.14944588
0.14845166
0.14898555
0.14897492
0.1489628
0.14894945
0.1489354
0.14892153
0.148909
0.14889868
0.14888991
0.14887928
0.14886242
0.14883654
0.14879922
0.1487496
0.14869522
0.14867346
0.14871246
0.14880116
0.14885495
0.14886339
0.1488258
0.14896358
0.14859777
0.14823117
0.14863085
0.14857269
0.14861332
0.14880294
0.14894943
0.14917448
0.14840691
0.14922129
0.14920758
0.14919199
0.14917483
0.1491564
0.14913692
0.14911649
0.14909507
0.14907264
0.14904904
0.1490232
0.14899292
0.14895677
0.14891603
0.14887935
0.14888252
0.1489452
0.14901544
0.14904672
0.14910557
0.14899667
0.14902606
0.14904634
0.14853235
0.14873597
0.14855183
0.14853222
0.14884961
0.14884301
0.14907841
0.14825389
0.016686854
0.03160685
0.057977018
0.091668944
0.11761859
0.13342211
0.14294358
0.14954773
0.15485078
0.15947032
0.16363163
0.16744281
0.17096082
0.17421703
0.17722449
0.17992724
0.18227874
0.1837935
0.1840104
0.1817544
0.17679274
0.17266385
0.16998383
0.16819669
0.16570557
0.16384047
0.16182364
0.16098562
0.15990425
0.15885072
0.15031394
0.025491002
0.047344819
0.079957379
0.11019543
0.12872366
0.13929079
0.14625233
0.15172596
0.15647699
0.16075892
0.16467524
0.16829174
0.17164701
0.17476537
0.17765214
0.18024756
0.18248623
0.1838649
0.18392717
0.18147473
0.17646649
0.1724538
0.16984572
0.16808819
0.16561032
0.16376588
0.1617665
0.16094268
0.15986573
0.15880836
0.15030679
0.037384024
0.06491206
0.097175223
0.12034814
0.13388207
0.14221919
0.14827032
0.15329918
0.15776171
0.16181979
0.16555125
0.16901048
0.17222975
0.17523067
0.17801314
0.18051442
0.18265032
0.18390813
0.1838321
0.1812031
0.17616669
0.17226733
0.16971846
0.16798759
0.16552277
0.16369679
0.16171257
0.16090073
0.1598276
0.15875953
0.1502976
0.05328776
0.084502095
0.11167588
0.12846502
0.13830611
0.14492922
0.15019538
0.15480586
0.15899055
0.16283365
0.16638806
0.16969615
0.17278474
0.1756729
0.17835488
0.18076446
0.18279713
0.18393596
0.18372787
0.18092084
0.17586847
0.17208188
0.16958932
0.16788493
0.16543333
0.16362631
0.16165786
0.16085848
0.1597893
0.1587159
0.15028831
0.0731475
0.10231526
0.12240955
0.13417008
0.14161099
0.14718396
0.15193281
0.15622112
0.16016312
0.16380678
0.16719246
0.17035462
0.17331663
0.17609548
0.17867971
0.18099922
0.18292846
0.18395419
0.18361404
0.18062755
0.17557284
0.1719006
0.16946112
0.1677829
0.16534464
0.16355637
0.16160346
0.1608162
0.15975084
0.15867492
0.1502794
0.093530351
0.11609235
0.12989604
0.1383459
0.14430696
0.14919165
0.1535508
0.15756367
0.16128312
0.16473869
0.16796244
0.17098341
0.17382297
0.17649611
0.17898552
0.18121697
0.18304393
0.18396138
0.18348708
0.18032438
0.17528099
0.17172322
0.16933354
0.16768115
0.16525621
0.16348653
0.16154907
0.16077382
0.15971219
0.15863517
0.15027087
0.10979141
0.12563278
0.13515066
0.14157004
0.14661319
0.15102282
0.15507144
0.1588408
0.16235303
0.16562969
0.1686973
0.17158164
0.17430296
0.17687409
0.17927176
0.1814174
0.18314413
0.18395776
0.18334545
0.18001231
0.17499396
0.1715497
0.16920664
0.16757983
0.16516825
0.16341696
0.1614948
0.16073137
0.15967338
0.15859652
0.15026262
0.12154259
0.13213987
0.13901511
0.14422331
0.14867554
0.15273072
0.156515
0.16006076
0.16337689
0.16648169
0.16939796
0.17214991
0.17475703
0.17722975
0.17953874
0.18160097
0.18323056
0.18394601
0.1831882
0.17969234
0.17471249
0.17137977
0.16908033
0.16747893
0.16508076
0.16334765
0.16144064
0.16068885
0.15963446
0.15855925
0.1502546
0.12923586
0.13665776
0.14204882
0.14653584
0.15057879
0.15434671
0.15789411
0.1612294
0.16435791
0.16729619
0.17006523
0.17268877
0.1751856
0.17756339
0.1797867
0.18176807
0.18330336
0.18392373
0.18301636
0.17936393
0.17443734
0.17121318
0.16895459
0.16737848
0.16499377
0.16327864
0.16138662
0.16064629
0.15959543
0.15852337
0.15024677
0.13450942
0.14012373
0.14463922
0.1486471
0.15237296
0.15589057
0.15921738
0.16235121
0.16529823
0.16807412
0.17069962
0.17319858
0.17558889
0.17787515
0.18001581
0.18191903
0.18336209
0.1838871
0.1828292
0.17902923
0.17416913
0.17104967
0.16882938
0.1672785
0.16490732
0.16320996
0.16133276
0.16060369
0.15955634
0.1584888
0.15023907
0.13842
0.14299785
0.14696484
0.15062524
0.15408634
0.15737512
0.16049084
0.1634294
0.16619928
0.16881614
0.17130153
0.17367964
0.17596712
0.17816519
0.18022625
0.18205404
0.18340611
0.18383764
0.18262757
0.17869061
0.17390815
0.17088897
0.16870469
0.16717903
0.16482145
0.16314163
0.16127908
0.16056108
0.15951721
0.15845545
0.15023147
0.14159579
0.14554863
0.14913471
0.15251497
0.15573852
0.15880942
0.16171898
0.16446639
0.16706206
0.16952268
0.17187128
0.17413219
0.17632046
0.17843366
0.18041817
0.18217284
0.18343499
0.18377516
0.18241275
0.17835125
0.17365442
0.17073083
0.16858051
0.16708007
0.16473617
0.16307368
0.16122558
0.16051846
0.15947807
0.1584232
0.15022395
0.1443883
0.14792094
0.15120968
0.15434352
0.15734239
0.16019951
0.16290524
0.16546377
0.16788712
0.17019405
0.17240913
0.17455645
0.17664908
0.17868068
0.18059173
0.18227495
0.1834497
0.18370093
0.1821864
0.17801114
0.17340783
0.17057506
0.16845685
0.16698165
0.16465153
0.16300612
0.1611723
0.16047585
0.15943896
0.15839194
0.15021648
0.14698371
0.15019659
0.15322751
0.15612893
0.15890653
0.16154948
0.16405196
0.16642228
0.16867472
0.17083043
0.17291525
0.17495257
0.17695312
0.1789064
0.18074706
0.18236062
0.18345071
0.18361509
0.18194853
0.17767147
0.17316829
0.17042144
0.1683337
0.1668838
0.16456755
0.162939
0.16111924
0.16043326
0.15939988
0.15836166
0.15020905
0.14948691
0.15242429
0.15521162
0.15788249
0.16043616
0.16286191
0.16516018
0.16734214
0.1694249
0.17143191
0.17338977
0.1753207
0.17723271
0.17911094
0.18088427
0.1824295
0.18343737
0.18351834
0.18170011
0.17733327
0.17293561
0.1702698
0.16821109
0.16678653
0.16448425
0.16287232
0.16106641
0.16039072
0.15936089
0.15833229
0.15020164
0.15195671
0.1546327
0.15717612
0.15961076
0.16193381
0.16413812
0.16623004
0.16822315
0.17013752
0.17199847
0.17383276
0.17566092
0.17748795
0.17929443
0.18100345
0.1824809
0.18340995
0.18341184
0.18144125
0.17699785
0.17270954
0.17011999
0.16808903
0.16668986
0.16440167
0.1628061
0.16101384
0.16034822
0.15932199
0.15830381
0.15019425
0.15442723
0.15683861
0.15912864
0.16131654
0.16340011
0.16537813
0.16726096
0.16906475
0.17081228
0.17253001
0.1742442
0.1759733
0.17771894
0.179457
0.18110465
0.18251436
0.18336763
0.18329581
0.1811727
0.17666574
0.17248979
0.16997188
0.16796755
0.16659382
0.16431984
0.16274038
0.16096153
0.16030579
0.15928321
0.15827618
0.15018687
0.1569176
0.15905016
0.1610715
0.16299938
0.16483405
0.16658063
0.16825171
0.16986612
0.17144872
0.17302631
0.17462406
0.17625786
0.17792575
0.17959874
0.18118747
0.18252962
0.18331416
0.18317011
0.1808953
0.17633751
0.17227611
0.16982535
0.16784666
0.16649841
0.16423877
0.16267516
0.16090949
0.16026343
0.15924458
0.15824941
0.15017952
0.15943535
0.16126797
0.16300225
0.16465592
0.16623302
0.16774324
0.16920055
0.17062616
0.17204626
0.17348712
0.17497223
0.17651463
0.17810847
0.17971983
0.18125188
0.18252988
0.18325455
0.18303475
0.18060983
0.17601386
0.17206823
0.16968032
0.16772639
0.16640365
0.1641585
0.16261047
0.16085773
0.16022116
0.15920611
0.15822352
0.15017219
0.16197598
0.16348505
0.16491383
0.16628035
0.16759275
0.16886273
0.17010534
0.1713436
0.17260419
0.17391208
0.17528858
0.17674357
0.17826718
0.1798204
0.1812986
0.18251713
0.18318515
0.18289012
0.18031714
0.17569537
0.17186586
0.16953672
0.16760677
0.16630955
0.16407905
0.16254632
0.16080627
0.16017899
0.15916782
0.15819855
0.1501649
0.164523
0.16568725
0.16679506
0.16786478
0.1689075
0.16993518
0.17096358
0.17201695
0.17312169
0.1743008
0.17557291
0.17694466
0.17840196
0.1799004
0.18132738
0.18249209
0.18310756
0.18273481
0.18001801
0.17538253
0.17166872
0.16939448
0.16748783
0.16621613
0.16400046
0.16248274
0.16075513
0.16013693
0.15912971
0.15817453
0.15015766
0.16704962
0.16785442
0.16863161
0.16939965
0.17017054
0.17095614
0.17177252
0.17264459
0.17359787
0.1746528
0.17582502
0.17711788
0.17851285
0.17995895
0.18133823
0.18245549
0.18302272
0.18256825
0.17971311
0.17507574
0.17147648
0.16925357
0.16736958
0.16612339
0.16392274
0.16241974
0.1607043
0.16009499
0.15909181
0.15815144
0.15015051
0.16952087
0.16996205
0.17040785
0.17087437
0.17137449
0.17192062
0.17252918
0.17322476
0.17403174
0.17496759
0.17604466
0.17726316
0.17859974
0.17999597
0.18133446
0.18240728
0.18292908
0.18239039
0.17940331
0.17477531
0.17128886
0.16911397
0.16725205
0.16603134
0.16384594
0.16235734
0.16065381
0.16005316
0.15905411
0.15812921
0.15014347
0.17189654
0.17198462
0.17210847
0.17227773
0.17251142
0.17282315
0.17323046
0.17375563
0.17442227
0.17524467
0.17623162
0.17738029
0.17866163
0.18001237
0.18131594
0.18234652
0.18282455
0.18220021
0.17908966
0.17448157
0.17110555
0.16897567
0.16713524
0.16594
0.16377008
0.16229557
0.16060367
0.16001149
0.15901661
0.1581077
0.15013658
0.17415202
0.17390203
0.17371406
0.17359712
0.17357291
0.17365825
0.17387314
0.17423526
0.17476841
0.17548361
0.17638556
0.17746851
0.17869698
0.1800106
0.18128152
0.18227314
0.18270995
0.18199962
0.17877341
0.17419473
0.17092627
0.16883867
0.16701919
0.16584936
0.1636952
0.16223445
0.16055387
0.15997
0.15897932
0.15808668
0.15012991
0.17626244
0.1756906
0.17520545
0.1748187
0.17455053
0.17442273
0.17445397
0.1746615
0.17506912
0.17568391
0.17650567
0.17752463
0.17870688
0.17999162
0.18123083
0.18218717
0.18258485
0.18178909
0.1784557
0.17391497
0.17075073
0.16870299
0.16690391
0.16575944
0.16362131
0.162174
0.16050443
0.1599287
0.15894223
0.15806592
0.15012351
0.17819109
0.17732744
0.17656929
0.17593183
0.17543827
0.17511125
0.17496947
0.17503346
0.17532296
0.17584453
0.17658924
0.17754913
0.17869745
0.1799541
0.18116419
0.18208869
0.18244926
0.18156961
0.17813797
0.17364239
0.17057868
0.16856864
0.1667894
0.16567025
0.16354842
0.16211426
0.16045535
0.15988756
0.15890534
0.15804519
0.15011749
0.17991635
0.17879527
0.17779251
0.17692761
0.1762283
0.17571902
0.17541848
0.17534888
0.17552818
0.17596163
0.17663289
0.17754908
0.17866679
0.17989615
0.18108171
0.18197787
0.18230339
0.18134225
0.17782155
0.17337695
0.17040989
0.16843569
0.16667566
0.16558181
0.16347653
0.16205523
0.1604067
0.15984658
0.1588686
0.15802465
0.15011166
0.18142129
0.18007958
0.17886341
0.17779748
0.1769145
0.17624165
0.17579799
0.17560544
0.1756796
0.17602601
0.17664267
0.17752566
0.17861154
0.17981804
0.18098345
0.18185494
0.18214756
0.18110799
0.17750748
0.17311855
0.17024415
0.16830416
0.16656272
0.16549413
0.16340572
0.16199683
0.16035853
0.15980575
0.15883196
0.15800439
0.15010592
0.18269196
0.1811683
0.17977203
0.17853401
0.17749115
0.17667332
0.17610222
0.17579509
0.17576541
0.17604523
0.17662842
0.17747583
0.17853214
0.17971995
0.18086947
0.18172016
0.18198217
0.18086778
0.17719667
0.17286702
0.17008128
0.16817406
0.16645063
0.16540721
0.16333602
0.16193918
0.16031078
0.15976512
0.1587954
0.15798443
0.15010022
0.18371556
0.18204909
0.18050761
0.17912847
0.17795019
0.17700176
0.17630935
0.17589606
0.17579549
0.17603746
0.1765854
0.17739636
0.1784286
0.17960185
0.18073982
0.1815737
0.18180765
0.18062255
0.17688981
0.1726222
0.16992117
0.16804542
0.16633944
0.16532107
0.1632674
0.16188224
0.16026351
0.15972471
0.15875892
0.15796478
0.15009452
0.18448016
0.18270451
0.18105091
0.17955745
0.17826376
0.1772008
0.17641054
0.17593128
0.17579375
0.17600096
0.17650625
0.17728749
0.17830075
0.17946367
0.18059452
0.18141532
0.18162444
0.18037325
0.17658752
0.17238402
0.16976367
0.1679183
0.16622914
0.16523573
0.16319988
0.16182606
0.16021674
0.15968457
0.15872256
0.15794544
0.15008867
0.18493758
0.18309402
0.18136819
0.17979544
0.17841969
0.17728025
0.17644108
0.17592815
0.17575975
0.17592369
0.17639182
0.1771493
0.17814844
0.17930534
0.1804336
0.18124677
0.18143283
0.1801208
0.17629011
0.17215231
0.16960863
0.16779274
0.16611978
0.16515122
0.16313345
0.16177062
0.16017051
0.15964474
0.15868637
0.15792643
0.15008212
0.18515116
0.18327849
0.1815134
0.17989609
0.17847127
0.17729887
0.17643555
0.17588427
0.17567674
0.17580029
0.17624174
0.1769816
0.17797157
0.17912678
0.18025705
0.18106755
0.1812337
0.17986591
0.1759979
0.17192688
0.16945598
0.16766877
0.16601141
0.16506753
0.16306813
0.16171594
0.1601248
0.15960522
0.15865032
0.15790773
0.15006789
0.18523696
0.18335461
0.18156872
0.17992801
0.17847841
0.17728288
0.17637348
0.17577565
0.17553283
0.17563087
0.17605538
0.17678414
0.17777004
0.17892796
0.18006512
0.1808779
0.18102754
0.17960935
0.17571121
0.17170763
0.16930564
0.16754646
0.16590401
0.16498471
0.1630039
0.16166203
0.16007956
0.15956599
0.1586143
0.15788952
0.15006729
0.18513759
0.18327832
0.18149999
0.17985732
0.17840122
0.17717789
0.17622347
0.17559455
0.17533054
0.17541513
0.17583217
0.17655671
0.17754379
0.17870882
0.17985789
0.1806784
0.18081487
0.17935186
0.17543028
0.17149443
0.16915753
0.16742583
0.16579762
0.16490274
0.16294078
0.1616089
0.16003475
0.159527
0.15857819
0.15787165
0.15006215
0.18469411
0.18291919
0.18120232
0.17960096
0.17816626
0.17694337
0.17598016
0.1753405
0.1750703
0.17515235
0.17557163
0.17629912
0.17729277
0.17846931
0.17963533
0.18046888
0.18059647
0.17909408
0.17515533
0.17128711
0.16901162
0.16730694
0.16569227
0.16482166
0.16287878
0.16155654
0.15999033
0.15948824
0.15854196
0.15785414
0.15005654
0.18392506
0.18227891
0.18066756
0.17914832
0.1777712
0.1765843
0.17564105
0.17501215
0.17475093
0.17484178
0.1752733
0.1760112
0.17701694
0.17820942
0.17939743
0.18024963
0.18037297
0.17883664
0.1748865
0.17108557
0.16886787
0.16718981
0.16558798
0.16474147
0.16281788
0.16150498
0.15994623
0.15944973
0.15850561
0.15783698
0.15005074
0.18290691
0.18141094
0.17993011
0.17852025
0.1772286
0.17610497
0.17520559
0.17460807
0.1743711
0.17448268
0.17493668
0.17569278
0.1767163
0.17792914
0.17914418
0.18002085
0.18014495
0.17858015
0.17462392
0.17088965
0.16872629
0.16707448
0.16548478
0.1646622
0.16275812
0.16145422
0.15990234
0.15941149
0.1584692
0.15782013
0.15004482
0.18167354
0.18034333
0.17900936
0.17772861
0.17654484
0.17550743
0.17467367
0.17412746
0.17392939
0.17407433
0.17456132
0.17534368
0.17639086
0.17762851
0.17887554
0.17978264
0.179913
0.17832522
0.17436771
0.17069918
0.16858688
0.16696099
0.16538269
0.16458391
0.16269949
0.16140427
0.15985884
0.15937354
0.15843279
0.1578036
0.15003869
0.18024413
0.17908929
0.17791402
0.1767784
0.17572218
0.17479235
0.17404542
0.17357
0.17342429
0.17361614
0.17414676
0.17496372
0.17604065
0.1773076
0.17859148
0.17953503
0.17967772
0.17807243
0.17411792
0.17051402
0.16844968
0.16684939
0.16528174
0.16450665
0.16264187
0.16135513
0.1598158
0.1593357
0.15839645
0.15778739
0.15003228
0.17862123
0.17764803
0.17664321
0.17566895
0.17476002
0.17395922
0.17332113
0.17293561
0.17285413
0.17310765
0.17369258
0.17455271
0.17566573
0.17696652
0.17829199
0.17927799
0.1794395
0.17782239
0.17387462
0.17033407
0.16831474
0.16673972
0.16518194
0.16443037
0.1625851
0.16130681
0.15977286
0.15929749
0.15836012
0.15777152
0.15002555
0.17678585
0.17600391
0.17518705
0.17439479
0.17365552
0.17300668
0.17250164
0.17222286
0.17221819
0.17254864
0.17319848
0.17411049
0.17526617
0.17660544
0.17797708
0.17901142
0.17919807
0.1775756
0.17363785
0.1701592
0.16818208
0.166632
0.16508329
0.16435507
0.16252928
0.1612593
0.15972931
0.15925825
0.15832356
0.15775599
0.15001846
0.1747067
0.17413393
0.17353187
0.17294868
0.17240549
0.17193426
0.17158705
0.17142918
0.17151832
0.17193886
0.17266427
0.1736369
0.17484207
0.17622464
0.17764687
0.17873513
0.17895385
0.17733254
0.17340758
0.16998921
0.1680517
0.16652621
0.16498577
0.16428081
0.1624744
0.1612126
0.15968483
0.15921866
0.15828654
0.15774081
0.15001099
0.17236083
0.17202311
0.1716698
0.1713278
0.17100975
0.17074478
0.17057603
0.17055464
0.17075682
0.17127841
0.17208985
0.1731318
0.17439352
0.17582439
0.17730154
0.17844882
0.17870695
0.17709377
0.17318364
0.16982381
0.16792352
0.16642234
0.16488949
0.16420759
0.16242066
0.16116675
0.15963981
0.15917882
0.15824916
0.15772601
0.15000314
0.16975276
0.16967855
0.16960881
0.1695395
0.16947634
0.16944185
0.1694656
0.16960104
0.16993494
0.17056802
0.17147484
0.1725946
0.17392018
0.1754047
0.17694112
0.17815213
0.17845739
0.17686014
0.17296606
0.16966307
0.16779784
0.16632061
0.16479462
0.16413567
0.16236842
0.16112169
0.15959413
0.1591387
0.15821161
0.15771164
0.1499949
0.16691209
0.1671246
0.16736697
0.16759633
0.16780835
0.1680182
0.16825374
0.16856598
0.16904619
0.16980427
0.17081624
0.17202256
0.17341981
0.17496399
0.17656421
0.17784416
0.1782052
0.17663348
0.17275613
0.16950844
0.16767579
0.16622177
0.16470186
0.16406555
0.16231826
0.16107743
0.15954587
0.15909716
0.15817364
0.15769778
0.14998629
0.16385502
0.16436208
0.16493357
0.16548202
0.1659854
0.16645773
0.1669251
0.16743254
0.16806676
0.16897258
0.17010604
0.17140998
0.17288792
0.17449886
0.17616772
0.17752308
0.17794992
0.1764164
0.17255743
0.16936256
0.16755872
0.16612645
0.16461214
0.16399732
0.16226938
0.16103442
0.15949073
0.15905139
0.1581344
0.15768446
0.14997733
0.1606763
0.16134037
0.16218005
0.16304673
0.16387271
0.16464904
0.16539061
0.1661187
0.16691695
0.16800718
0.16930138
0.17072358
0.17229723
0.17398667
0.17573308
0.17717611
0.17768716
0.17620832
0.17237673
0.16922466
0.16744468
0.16603312
0.1645234
0.1639291
0.16221847
0.1609928
0.15942562
0.15899864
0.15809187
0.15767146
0.14996825
0.014540785
0.027283076
0.051659506
0.085459111
0.11319048
0.1306216
0.1412383
0.14837966
0.15394708
0.15872414
0.16300473
0.16691795
0.17052729
0.17386601
0.17694928
0.17972147
0.1821446
0.18374393
0.18407623
0.18194328
0.17702408
0.17281887
0.17009628
0.16828587
0.16578199
0.16390119
0.16187194
0.16102445
0.1599393
0.15889419
0.15031409
0.016730382
0.029581633
0.052643125
0.084593652
0.11219475
0.13001109
0.14085186
0.14810645
0.15371249
0.15849999
0.16278849
0.16671675
0.17034976
0.17371736
0.17683151
0.17963439
0.18208524
0.18371778
0.18410628
0.18203954
0.17715797
0.17291086
0.17017027
0.16834492
0.1658335
0.16394421
0.16190815
0.16105559
0.15996622
0.15892201
0.15031381
0.018374616
0.03105515
0.053057524
0.083579914
0.11111497
0.12926804
0.14033351
0.14772076
0.15338772
0.15820335
0.16251317
0.16646684
0.17013162
0.1735349
0.17668593
0.17952518
0.18200908
0.18368823
0.18412884
0.18214488
0.17730318
0.17300765
0.17024496
0.16840427
0.16588522
0.16398769
0.16194484
0.16108741
0.15999366
0.15894664
0.15031404
0.019778481
0.032119872
0.053101162
0.082401339
0.1098646
0.12838924
0.13974171
0.14729507
0.15304081
0.15789332
0.16222814
0.16620816
0.16990471
0.17334368
0.17653187
0.17940832
0.1819259
0.18365355
0.18414961
0.18224966
0.17745194
0.17310955
0.17032292
0.16846649
0.16593938
0.16403299
0.16198291
0.16112033
0.16002213
0.15896924
0.15031472
0.021128668
0.033206482
0.053216011
0.081278703
0.10855235
0.12745569
0.13912845
0.1468633
0.15269505
0.15758677
0.16194595
0.16595022
0.16967621
0.17314908
0.17637329
0.17928663
0.18183771
0.18361378
0.18416778
0.18235078
0.17760017
0.1732135
0.17040235
0.1685302
0.16599495
0.16407933
0.16202182
0.1611539
0.16005121
0.15899122
0.15031581
0.022461503
0.034298527
0.053456433
0.080300265
0.10726736
0.12651644
0.1385134
0.14643405
0.15235497
0.15728677
0.16166914
0.16569532
0.16944821
0.17295292
0.1762117
0.17916124
0.18174543
0.18356944
0.18418218
0.18244739
0.17774643
0.17331777
0.17048176
0.16859407
0.16605081
0.16412593
0.16206107
0.16118777
0.16008047
0.15901258
0.15031726
0.023732053
0.035353536