/*--------------------------------*- C++ -*----------------------------------*\
| =========                 |                                                 |
| \\      /  F ield         | OpenFOAM: The Open Source CFD Toolbox           |
|  \\    /   O peration     | Version:  2406                                  |
|   \\  /    A nd           | Website:  www.openfoam.com                      |
|    \\/     M anipulation  |                                                 |
\*---------------------------------------------------------------------------*/
FoamFile
{
    version     2.0;
    format      ascii;
    arch        "LSB;label=32;scalar=64";
    class       volScalarField;
    location    "0.02";
    object      nut;
}
// * * * * * * * * * * * * * * * * * * * * * * * * * * * * * * * * * * * * * //

dimensions      [0 2 -1 0 0 0 0];

internalField   nonuniform List<scalar> 
2065
(
0.00035939391
0.00032654814
0.00029806732
0.00027225148
0.00024576899
0.00022560202
0.00020212482
0.00019694182
0.00019858608
0.00019720139
0.00028092721
0.00055444572
0.001167695
0.00096281566
0.00065649381
0.00058387696
0.00052060092
0.00045975822
0.00045012355
0.000469521
0.00050986711
0.00063350746
0.00085060855
0.0010837445
0.0011067062
0.00094697529
0.00074686118
0.00057410731
0.00072849182
0.00083577402
0.00085036721
0.00076041592
0.00073457438
0.00073205818
0.00073627859
0.00073487256
0.00071496312
0.00070968895
0.00070709783
0.00071003009
0.00073515351
0.0007446768
0.00074573369
0.00076244717
0.00078494211
0.00081103484
0.00084099624
0.00087888754
0.00091147941
0.00095336486
0.00099789294
0.0010588325
0.0011024631
0.0011565499
0.0011914197
0.0012650847
0.0012917093
0.0013403553
0.00037981206
0.00035217902
0.00032163857
0.00029343835
0.00026881929
0.00023804772
0.00021952688
0.00021321052
0.000202809
0.00023730312
0.0003999968
0.00089324978
0.001107492
0.00079027336
0.00063370502
0.00057983975
0.00049872105
0.00044032616
0.00043419076
0.0004639582
0.00052118102
0.00068025113
0.00090594806
0.0010898507
0.0010939676
0.00093793776
0.00072659366
0.00058861982
0.00076314777
0.00085644714
0.00085733993
0.00075174674
0.00073145039
0.00073041419
0.00074007936
0.00073912469
0.00071986616
0.0007077272
0.00070183829
0.00070495084
0.00072699938
0.0007357597
0.00073533275
0.00074660077
0.00076715128
0.00079231735
0.00082240982
0.0008578329
0.00088843411
0.00093070182
0.00097853073
0.0010421738
0.0010860123
0.0011413139
0.0011808118
0.0012550744
0.0012866022
0.0013396445
0.00035163353
0.00038043091
0.00037301908
0.00033455667
0.00030404358
0.00027452808
0.00025118963
0.00023067578
0.00021852216
0.00021644719
0.0003032825
0.00056609825
0.0011625334
0.0010020255
0.00067829746
0.00063858567
0.00058236812
0.00048602963
0.0004196268
0.000424104
0.00045811089
0.00053771239
0.00069544212
0.00092538186
0.0010929128
0.0010784593
0.00092750632
0.00069743519
0.00061159521
0.00079562268
0.00087305704
0.00085796133
0.0007462266
0.00072930143
0.0007320747
0.00074482014
0.00074341244
0.00072237447
0.00070527012
0.00069886824
0.00070210012
0.00072051813
0.00072682783
0.00072322707
0.00072940028
0.00074784235
0.00077305975
0.00080064292
0.00083135079
0.00086032163
0.00090083882
0.00094997703
0.0010142577
0.0010571912
0.0011122385
0.0011566816
0.0012298943
0.0012626954
0.0013211702
0.00029130522
0.00031204581
0.00035605116
0.00037834561
0.00036090329
0.00033008346
0.00029300988
0.00025889533
0.00023906568
0.00022700223
0.00024793735
0.00041991903
0.00089953092
0.0011275497
0.00084239004
0.00068444946
0.00067218048
0.00059508084
0.0004830569
0.000409655
0.00041621281
0.00045522257
0.0005591002
0.00071527403
0.00094386524
0.0010899682
0.0010615303
0.00092230559
0.00067288443
0.00063882468
0.00081920387
0.00088564196
0.00085857287
0.00074287016
0.00072793978
0.00073344691
0.00075274813
0.00074781193
0.00072294415
0.00070273868
0.00069576151
0.00070028131
0.00071415424
0.0007190313
0.00070869162
0.00071142008
0.00072862072
0.00075635374
0.00077592707
0.00080048321
0.00082833302
0.00086519515
0.00091314694
0.00097571071
0.0010166895
0.0010702378
0.00111876
0.0011902021
0.0012225731
0.0012855709
0.00040766508
0.0002967593
0.00032150182
0.00036695254
0.00037532314
0.00035059471
0.00031790602
0.00028286913
0.00026054434
0.00023505018
0.00030659316
0.00055011058
0.0011465973
0.0010490486
0.00077130263
0.00074434925
0.00072813587
0.00060793458
0.00046649026
0.00039547833
0.00040631088
0.00045850598
0.00057354134
0.00072522601
0.00095227992
0.0010830861
0.0010444725
0.00091278094
0.00064870787
0.00066649062
0.00083642504
0.00089429415
0.00085615958
0.00074068867
0.00072986688
0.00073886064
0.00076009437
0.00075120258
0.00072229185
0.00070037386
0.00069274262
0.00069752511
0.00070900893
0.00071180376
0.00069363844
0.00069440953
0.000712616
0.00074149734
0.00074898832
0.00076655771
0.00079293309
0.00082581264
0.0008689823
0.00092745873
0.00096569095
0.001016452
0.00106729
0.0011364625
0.0011673035
0.0012337189
0.00046725811
0.0004599037
0.00039485275
0.00031052273
0.00034581361
0.00038461918
0.00036372003
0.00032865891
0.00029140574
0.00026681443
0.00025816567
0.00038774302
0.00076911976
0.0011752424
0.00095551883
0.00077632379
0.00082568986
0.00078899337
0.00061594042
0.00046315648
0.00038146638
0.00039617627
0.00046792126
0.0005856868
0.00072907579
0.00095041901
0.0010732958
0.0010267994
0.00090194027
0.00062584244
0.00069640413
0.0008487924
0.00089956133
0.00085357428
0.00073786934
0.00072877805
0.00074236298
0.00076631545
0.00075510304
0.00072190981
0.00069841797
0.00069077579
0.00069439565
0.00070345542
0.00070469127
0.00068061401
0.00068239293
0.00070215494
0.00072266399
0.00072025234
0.00073201291
0.00075399559
0.0007840264
0.00081944304
0.00087089984
0.00090580893
0.00095244213
0.0010030718
0.001069444
0.0010978125
0.001166766
0.00080111296
0.00067524283
0.00050773707
0.00047565307
0.00036055089
0.00034146109
0.00037566326
0.00039142681
0.00035123415
0.00030936325
0.00027297516
0.00030254482
0.00049482496
0.0010701161
0.0011253967
0.00088655691
0.00085831633
0.00090360216
0.00084487544
0.00062039153
0.00045123101
0.00036617886
0.00038631817
0.00048002907
0.00058868322
0.00073196981
0.00093722673
0.0010573091
0.0010098043
0.00088467019
0.00060982323
0.00072261095
0.00085793737
0.00090507075
0.00085165818
0.00073676514
0.00072602106
0.0007469557
0.00077126149
0.00075676063
0.00072316063
0.0006974305
0.00068964903
0.00069194042
0.00069554692
0.0006994422
0.00066999821
0.00067520296
0.00069233405
0.00069822387
0.00069228303
0.00069875715
0.00071386651
0.0007398111
0.00076694363
0.00080831001
0.00083915546
0.00088039939
0.00092791855
0.00099051582
0.0010153674
0.001086424
0.0011538021
0.00098794376
0.00072731723
0.00054398816
0.00042370229
0.00033438753
0.00036387317
0.0003964408
0.00037230252
0.00033415771
0.00028662163
0.00036176839
0.00060425102
0.0012069026
0.0010756135
0.00088057141
0.00095366317
0.0009746271
0.00089321349
0.00062453594
0.00044401589
0.00035127732
0.00037462501
0.00049057424
0.00058849372
0.00073400967
0.00092088716
0.0010374807
0.00099176945
0.00085942991
0.00059896734
0.00074342625
0.00086536129
0.00090775482
0.00084944911
0.00073535411
0.000725086
0.00074367558
0.00077345233
0.00075790911
0.00072301285
0.00069740717
0.00068881617
0.00068980546
0.00069566676
0.00068778311
0.00066169943
0.00066952395
0.0006772825
0.00067401547
0.00066525975
0.00066747393
0.00067611422
0.00069470733
0.00071401219
0.00074338765
0.00076736954
0.00080449753
0.00084563816
0.00090237448
0.00092379878
0.00099421125
0.0013199182
0.001180294
0.0010242002
0.00068673137
0.00052780735
0.00034440279
0.00035789654
0.00040182284
0.00038196903
0.00034480699
0.00030437576
0.00043001977
0.00083926141
0.0011998067
0.0010145092
0.00092536587
0.0010254816
0.0010340879
0.00093148583
0.00062746923
0.00043548718
0.00033559038
0.00036104751
0.00049681591
0.00058894008
0.0007303343
0.0009087713
0.0010197489
0.00097460313
0.00082998667
0.0005971981
0.0007600408
0.00087175658
0.00090936523
0.0008475495
0.00073365342
0.00072575877
0.00074232367
0.00077599041
0.00075875808
0.00072220096
0.00069848691
0.00068875699
0.00068884106
0.00069846194
0.00067425597
0.00065682346
0.00066117003
0.00066021038
0.00065182799
0.00064083681
0.00063992333
0.00064246642
0.00065328222
0.0006637874
0.00068235377
0.00069687552
0.00073007515
0.00076206124
0.00081029394
0.00082849117
0.00089512146
0.0011627924
0.0011588162
0.0011357202
0.0010910354
0.00084051177
0.00063247358
0.00038615029
0.0003530551
0.00039612826
0.00039697009
0.00035209665
0.00033908085
0.00049992007
0.0010362585
0.0011729977
0.00099951216
0.0010272327
0.001086823
0.0010876656
0.0009636849
0.00063066112
0.00042696646
0.00031974735
0.00034423876
0.00049655215
0.00059303083
0.00071880698
0.00089258822
0.00099583783
0.00095566582
0.00079616173
0.00060329753
0.00077167652
0.00087798913
0.00090909114
0.00084591066
0.00073152434
0.00072841706
0.00074582575
0.00077489754
0.00075745257
0.00072027009
0.00070078271
0.00069186696
0.00069165668
0.0006944569
0.00066682573
0.00065422176
0.0006523634
0.00064500459
0.00063352387
0.00062175822
0.00061899129
0.00061643677
0.00061996027
0.00062238204
0.00063259197
0.00063810198
0.00066466058
0.00068764402
0.0007257277
0.00073920708
0.00080119224
0.00084295304
0.00086132278
0.00090132473
0.00095926374
0.00092890789
0.00068441456
0.00045519812
0.00035434958
0.00038970361
0.00041221114
0.00035664347
0.00038812929
0.00057010751
0.0011298042
0.0011412397
0.0010133924
0.0010882093
0.0011406316
0.0011378665
0.00098905053
0.000632477
0.00042038678
0.00030310647
0.00032603747
0.00048835472
0.00059869382
0.00070349651
0.00087065924
0.00096760308
0.00093303489
0.00075887147
0.00060826545
0.00078369471
0.00088351477
0.00090793328
0.00084450223
0.00073012259
0.00073355672
0.0007509748
0.00077063468
0.000754211
0.0007177661
0.00070369093
0.00069869333
0.00069653704
0.00068401607
0.00066368074
0.0006544187
0.00064803815
0.00063549973
0.00062217651
0.00061119399
0.0006079317
0.00060244342
0.00060020527
0.00059654521
0.00060150339
0.00060164563
0.00062207488
0.00063565834
0.00066492658
0.00067660148
0.00073354924
0.00063100698
0.00065268651
0.00069314358
0.00075805486
0.00092294282
0.0006989215
0.00050468833
0.00035770766
0.0003852269
0.00041791139
0.00037047165
0.00044471595
0.00065187923
0.0011688549
0.0011184395
0.001058233
0.0011621411
0.0012047585
0.0011972153
0.00100935
0.00063321772
0.00041096235
0.00028525631
0.00030585816
0.00046870736
0.00060651022
0.00068109244
0.00084213034
0.00093522285
0.00090669904
0.00072344288
0.00061422705
0.00079244753
0.00088711621
0.00090535598
0.00084368311
0.00072811734
0.0007370456
0.00075205623
0.00076083797
0.00075045361
0.00071534918
0.00070624483
0.00070569502
0.00069620438
0.00067738461
0.00066416462
0.00065792017
0.00064844366
0.00063333817
0.00062040734
0.0006110566
0.0006083801
0.00060208454
0.0005968091
0.00059036661
0.00059369912
0.00059340008
0.00061086774
0.00061869882
0.00064728001
0.00066016743
0.00071290656
0.0005475537
0.00052660672
0.00055487962
0.00062367038
0.00079607593
0.00070777879
0.00051455801
0.00035544558
0.00038152598
0.00041231555
0.00039511819
0.00049071835
0.00074636881
0.0011722402
0.0011183296
0.0011518173
0.0012434683
0.0012819944
0.0012609283
0.0010202604
0.00063094632
0.00040264667
0.00026794135
0.00028862555
0.00043713312
0.00061298618
0.00065684037
0.0008073517
0.00089960047
0.00087673234
0.00069265136
0.00062168069
0.00079758971
0.00088898066
0.00090209197
0.00084292292
0.00072525262
0.00073665528
0.00074409107
0.00075364182
0.00075031268
0.0007144612
0.0007073118
0.00070786795
0.00069884834
0.00067430261
0.00066740457
0.00066429321
0.00065386753
0.00063813918
0.0006266395
0.0006197909
0.00061923414
0.00061419567
0.00060900375
0.00060273567
0.00060723028
0.00061061276
0.00063002157
0.0006389494
0.00067225116
0.0006915036
0.00074362308
0.00052227514
0.00047795353
0.00047353081
0.00054305752
0.00068108277
0.00064830575
0.00051460588
0.00035199874
0.00037849552
0.00040508558
0.00042525457
0.00052850024
0.00081635846
0.0011685129
0.0011310044
0.0012428649
0.0013298885
0.0013627324
0.0013152489
0.0010257659
0.00062400578
0.00039114752
0.00025125859
0.000266542
0.00039116826
0.00062038548
0.00064275313
0.00076630485
0.0008581354
0.00084332504
0.00066698939
0.0006305514
0.00080015633
0.0008886716
0.00089854817
0.00084115373
0.00072226835
0.00073621303
0.00074313208
0.00074807403
0.00075193362
0.00071433959
0.00070839186
0.00070866665
0.00070444562
0.00067356769
0.00067154916
0.00067143332
0.00066234802
0.00064815818
0.00063919024
0.00063482012
0.00063707741
0.00063468999
0.00063214086
0.00062835159
0.0006362449
0.00064564248
0.00067045647
0.00068641066
0.00072408784
0.00075342287
0.00080758508
0.00053034469
0.00046434077
0.00043474515
0.0004933958
0.00058081676
0.00057738585
0.0004829385
0.00034908842
0.00037962499
0.00040374468
0.00044881217
0.00056012132
0.00087115805
0.0011618486
0.0011455401
0.0013473367
0.0014168818
0.0014376445
0.0013699873
0.0010254975
0.00061156132
0.00038063287
0.00023688031
0.00024213558
0.00034608337
0.00061316295
0.00063510849
0.00072456453
0.00081286374
0.00080028059
0.0006394642
0.00064180984
0.00080070921
0.00088714763
0.0008955833
0.00083845813
0.00071887824
0.00073427542
0.00074256817
0.00074680504
0.00074840493
0.00071245479
0.00070884805
0.00070937167
0.00070962835
0.00067473783
0.00067479218
0.00067814866
0.00067192068
0.00066049781
0.00065423527
0.00065221757
0.00065788922
0.00065898845
0.00066062857
0.00066070667
0.00067310808
0.00068905431
0.00072133508
0.00074418219
0.00078808935
0.00082628557
0.00088492173
0.00049505259
0.00043594218
0.00042842368
0.00045850752
0.0004727809
0.00040458155
0.00034856485
0.00038217356
0.00040210998
0.00047232503
0.00059090323
0.00091236232
0.0011499147
0.0012028277
0.0014396499
0.0014894302
0.0015016466
0.0014194389
0.0010179809
0.00059657328
0.00036833097
0.00022488195
0.00021843505
0.0003120688
0.00058951537
0.00063065329
0.00068238511
0.00076360056
0.00075520446
0.00061723052
0.00065194325
0.00079922993
0.00088477284
0.00089144109
0.0008363948
0.00071504765
0.00073153155
0.00073978243
0.00074657693
0.00074563792
0.00071074592
0.00070729415
0.0007078808
0.00071312361
0.00067743767
0.00067643462
0.00068380793
0.00068109918
0.00067287048
0.00066918807
0.00066935003
0.0006785956
0.00068358165
0.000690079
0.0006947645
0.0007124873
0.00073486913
0.0007735027
0.00080142811
0.00085564056
0.0008990722
0.00096326173
0.00060099063
0.00049456188
0.00043721754
0.00042017415
0.00040825476
0.00037740506
0.00036167117
0.00039584544
0.00042775867
0.00050599272
0.00062458456
0.00095014836
0.0011431281
0.001266963
0.0015046809
0.0015621237
0.0015703466
0.0014692483
0.00099998117
0.00058302178
0.00035729609
0.00021596374
0.00019793936
0.00027738907
0.00055141134
0.00063088946
0.00065385374
0.00071724524
0.00071274048
0.00060069345
0.00065579531
0.00079598967
0.00088326488
0.00088590062
0.00083429605
0.00071037648
0.00072821485
0.00073619542
0.00074706775
0.00074402364
0.00071057313
0.00070353886
0.00070553728
0.00071797336
0.00068102179
0.00067683775
0.0006876441
0.00068891888
0.00068403149
0.00068264394
0.00068476618
0.00069739282
0.00070634839
0.00071779585
0.00072757741
0.00075193732
0.00077741446
0.00082300442
0.00085565532
0.00092027575
0.00096652248
0.0010367095
0.00093907524
0.0006769244
0.00053136364
0.00046186413
0.00041755121
0.00039915583
0.00039038476
0.00041940037
0.00046621259
0.00054624517
0.00066234857
0.00098818213
0.0011472804
0.0013720744
0.0016136421
0.0016619208
0.0016495875
0.0015211439
0.00097091482
0.00056828581
0.00034335247
0.00020663566
0.00017975756
0.00024330773
0.00047885933
0.0006294659
0.00062942352
0.00066930797
0.00067369584
0.00059028696
0.00065583108
0.00079233901
0.00087529241
0.00087888582
0.00082969423
0.00070344535
0.00072502189
0.00073310228
0.00074808789
0.00074309811
0.00071092157
0.00069583094
0.0007000976
0.00072379214
0.00068460476
0.00067540743
0.00068945967
0.00069511334
0.00069344083
0.00069400752
0.00069789677
0.00071349116
0.00072623765
0.00074246211
0.00075820975
0.00078815454
0.00081553774
0.00086790614
0.00090568379
0.00097873804
0.0010263971
0.0011026568
0.0012041685
0.00085730852
0.00066159861
0.00054864618
0.00049656127
0.00046991884
0.00048727551
0.00053014843
0.00060398975
0.00075555877
0.0010084325
0.0011711369
0.0015210042
0.0017148508
0.0017518305
0.0017270278
0.0015746969
0.00092961049
0.00055444184
0.00033088431
0.00019886835
0.00016280649
0.00020866696
0.00037186261
0.00063528965
0.00061796128
0.00063367633
0.00064080395
0.00058155742
0.00065379339
0.00078427273
0.00086742325
0.00086867633
0.00082301425
0.00069461036
0.00072049954
0.00073004898
0.00074905079
0.00074337851
0.00070869553
0.00068634105
0.00069152531
0.00072717199
0.00068803867
0.00067224307
0.0006885811
0.0007002001
0.00070098951
0.00070319913
0.00070873544
0.00072674819
0.00074286257
0.0007639446
0.00078615728
0.00081885714
0.000849082
0.00090765037
0.00095088251
0.0010292542
0.0010778765
0.0011599797
0.00067706381
0.00068341056
0.00072543906
0.00069339991
0.00066889827
0.00068545221
0.00070425576
0.00070690545
0.00071050257
0.00071761105
0.00073733282
0.00075640204
0.0007827253
0.00081009054
0.00084410328
0.00087825646
0.0009417496
0.00098977985
0.0010718466
0.0011207637
0.0012081935
0.00011465441
9.8288326e-05
0.00026668942
0.00023097492
0.00018227845
0.00015430653
0.00013670164
0.00012225294
0.00011558245
9.7187327e-05
0.00029622966
0.00024747162
0.00021717601
0.00017443901
0.00015111844
0.00013693266
0.00012331592
0.00011763376
9.7410605e-05
0.00027062046
0.00023235558
0.00020758187
0.00016860355
0.00015000949
0.00013792711
0.00012579075
0.00011837614
9.6298315e-05
0.0002461832
0.00021319075
0.00019365121
0.00016366423
0.00015071926
0.00013918057
0.0001277446
0.00011954188
9.5074371e-05
0.00022352227
0.00019653327
0.0001808593
0.00016088009
0.0001528182
0.00014275229
0.00013071169
0.00011983338
9.2761258e-05
0.00020397339
0.00018275654
0.00017148269
0.00016194968
0.00016040325
0.00014271635
0.00013098201
0.00011770554
8.8408562e-05
0.00018925867
0.00017543054
0.00016608115
0.00016194042
0.00015904069
0.00014208857
0.00013389837
0.00011404735
8.2253858e-05
0.00018140731
0.0001721655
0.00016667836
0.00016105586
0.00015753605
0.00014185025
0.00013798103
0.00010443147
7.4331407e-05
0.00018273409
0.00017785422
0.00017094387
0.00016541101
0.00015630925
0.00014065051
0.00013249076
9.0721054e-05
6.6845033e-05
0.00018525797
0.00018048914
0.0001715867
0.00016848594
0.00014819365
0.00013854521
0.00012650997
8.362143e-05
6.2474768e-05
0.00022032081
0.00021239362
0.00018709869
0.00016516198
0.00015090003
0.00013117355
0.00012098205
7.8135319e-05
5.8289482e-05
0.0003665722
0.00036683276
0.00028113883
0.00022274458
0.00016979004
0.00013728439
0.00011984944
8.077443e-05
5.9439638e-05
0.0008359563
0.00080125361
0.00055970985
0.00043742609
0.00030944447
0.00020546765
0.00014031378
0.00010097166
7.7910313e-05
0.001085399
0.0011158082
0.0011264299
0.00097374935
0.00067407759
0.00045744795
0.00028493427
0.00018485228
0.00012536478
0.00079292139
0.00089664416
0.0010183599
0.0011096339
0.0011398551
0.00098157534
0.00065048257
0.00043637582
0.00027755295
0.0005930565
0.00063302762
0.00073714278
0.00092531194
0.0010693586
0.0011669211
0.0011532278
0.00096144554
0.0006482858
0.00052321873
0.00053633796
0.00055732463
0.00062240087
0.0008018819
0.0010536855
0.0011925109
0.0012307788
0.001187247
0.00046700197
0.00048911434
0.00051163693
0.00054501017
0.00060329751
0.0007782677
0.0010578233
0.0012915995
0.0013879843
0.00045976219
0.00047922543
0.00049695489
0.00054769252
0.00059158745
0.00067095958
0.00085578211
0.0011984686
0.0014508074
0.00048031688
0.00050174819
0.00051561633
0.0005587632
0.00059521515
0.00067713686
0.00076790183
0.0010200996
0.0013707008
0.00052054586
0.00053603446
0.00055027625
0.00057929948
0.00062719003
0.00068247877
0.0007356339
0.00084572237
0.0010845571
0.00063386623
0.00062574841
0.00062569042
0.00063645956
0.00066703326
0.00070853811
0.00076790822
0.0008735402
0.0010397604
0.00085523034
0.00086180083
0.00085131476
0.00080877472
0.00077889729
0.00078464677
0.00082973552
0.00094408749
0.0012042816
0.0010883943
0.0011086288
0.0011095247
0.0010939773
0.0010548481
0.0010471793
0.0011186938
0.0012407904
0.0013783561
0.0011202897
0.0011157048
0.0011233425
0.0011152131
0.0011115312
0.0011155724
0.001132843
0.0011560139
0.0011717768
0.00094954301
0.00092777964
0.00091426361
0.00089507735
0.00087502532
0.00085035568
0.00079452208
0.00069803678
0.00055186008
0.00076329665
0.00073181448
0.00070995311
0.00065550774
0.00061269011
0.00051576075
0.00043091017
0.00034775661
0.00027088587
0.00057369191
0.0005628251
0.00055101658
0.00053245
0.00051683649
0.00049127234
0.00046197282
0.00041170949
0.00034704579
0.000696881
0.00068189224
0.0006615188
0.00064316429
0.00062546682
0.00061081135
0.00060130841
0.00059287831
0.00055988305
0.0008132822
0.00079528268
0.00077241004
0.00074053365
0.00071363596
0.00069364918
0.0006857549
0.00068518943
0.00068823669
0.00083916885
0.00082651308
0.00081361801
0.00079251961
0.00077588366
0.00076087264
0.00076172805
0.00078725393
0.00083003647
0.00076211095
0.00076485503
0.00077151436
0.00077511971
0.00079282256
0.00083481547
0.00087019384
0.00091851161
0.00096871573
0.00073800862
0.00075096446
0.00076018242
0.00076778612
0.00078544287
0.00081751939
0.00084983104
0.00089526226
0.00093933608
0.00073404006
0.00073557118
0.00073585537
0.00073719181
0.00074561047
0.00075920907
0.00077863774
0.00081610177
0.00086507047
0.00073325152
0.00072727401
0.00072055429
0.00071466521
0.00070962065
0.00070438178
0.00070385256
0.00071165429
0.00069372781
0.00072767478
0.00071630707
0.0007070691
0.00069272646
0.00067419442
0.00065017508
0.00061549161
0.00054302226
0.00047032611
0.00070757008
0.00069858292
0.00069180424
0.00067941298
0.00066124625
0.00063165255
0.00057867836
0.0005151314
0.0004546197
0.00070966005
0.00070901856
0.00071093208
0.00071443536
0.00071969136
0.00072412814
0.00072173651
0.0007060474
0.00066132553
0.00071115165
0.00071567702
0.00072309185
0.00073460664
0.00075042312
0.00077061137
0.00079630168
0.00081447107
0.00080635334
0.00071639385
0.00072599415
0.00073993562
0.00075461564
0.00076847709
0.0007794084
0.0007913603
0.00081006575
0.00080177374
0.00074379498
0.0007526051
0.00076096009
0.00076408234
0.00075963724
0.00074807125
0.00073871597
0.0007114718
0.00067437247
0.00075253548
0.00075795157
0.00076404116
0.00076271487
0.00075345348
0.00072769643
0.00066982529
0.00060678675
0.00054084329
0.0007545355
0.0007633821
0.00077112021
0.00077216746
0.00075655027
0.00072669743
0.00067808646
0.00061322426
0.0005378618
0.0007749834
0.00078688917
0.00079888374
0.00080596718
0.00080167488
0.00078409977
0.00074946601
0.00068865441
0.00060911071
0.00079848358
0.00081040088
0.00082100391
0.00082556153
0.00081805502
0.00079699178
0.00075416495
0.00069388502
0.00061892924
0.00082490547
0.00083550804
0.00084265368
0.00084015687
0.00082566514
0.00079135601
0.00073161943
0.00065705154
0.00057442969
0.00085395486
0.00086370377
0.00086955239
0.00086446808
0.00084206716
0.0007930574
0.00072660546
0.00064569256
0.0005583032
0.00089179682
0.00090019557
0.00090278137
0.00089275414
0.00086415452
0.00081221547
0.00073943607
0.00065188357
0.0005589836
0.00092590268
0.00093472743
0.00093596988
0.00092403453
0.0008911446
0.00083370229
0.00075467184
0.00066133041
0.00056367513
0.00096583353
0.00097286446
0.00097197094
0.00095638133
0.00091968457
0.00085915413
0.00077597516
0.00067755422
0.00057501135
0.0010060882
0.0010081953
0.0010012273
0.00098015825
0.00093992109
0.00087410006
0.00078497359
0.00068154093
0.00057526901
0.0010630492
0.0010607654
0.0010484849
0.0010209251
0.00096900432
0.00089043147
0.00079104408
0.00068031107
0.00056950588
0.0011059623
0.0011022323
0.0010869083
0.0010511829
0.00099056733
0.00090604762
0.00080151287
0.00068623942
0.00057180439
0.0011570131
0.0011503007
0.0011311722
0.001092321
0.0010283813
0.0009385321
0.00082771769
0.0007060499
0.00058592719
0.0011894111
0.0011811822
0.0011602672
0.0011193071
0.0010523031
0.00095811446
0.00084227089
0.00071590102
0.00059222463
0.0012595415
0.0012472179
0.0012196292
0.0011697952
0.0010930681
0.00098925629
0.00086454283
0.00073066891
0.00060129807
0.0012829645
0.0012683376
0.0012382624
0.0011859699
0.001105902
0.00099838649
0.00087018455
0.00073348489
0.00060223306
0.0013242763
0.0013040328
0.0012674714
0.0012075801
0.001120465
0.0010063021
0.00087230742
0.00073131779
0.00059764899
9.1151647e-05
6.6474889e-05
3.4450681e-05
1.7454708e-05
2.224399e-05
3.3136445e-05
8.8479862e-05
6.2849751e-05
3.2906641e-05
1.7756751e-05
2.267975e-05
3.0478671e-05
8.6941939e-05
5.8782309e-05
3.1568294e-05
1.7895499e-05
2.3062595e-05
2.7280575e-05
8.3643197e-05
5.319667e-05
2.9731353e-05
1.79051e-05
2.2486487e-05
2.3429704e-05
8.0175792e-05
4.8590418e-05
2.7891276e-05
1.7388444e-05
2.1554662e-05
2.1112063e-05
7.4826168e-05
4.2373962e-05
2.5859889e-05
1.7114116e-05
2.0581363e-05
1.8551364e-05
6.8237667e-05
3.6998845e-05
2.3674102e-05
1.6461128e-05
1.9488986e-05
1.8629728e-05
6.1124949e-05
3.380009e-05
2.1485745e-05
1.5638541e-05
1.8843079e-05
1.9436197e-05
5.0201669e-05
2.9320367e-05
1.8757857e-05
1.4653108e-05
1.8125643e-05
2.1594549e-05
4.1528531e-05
2.5935768e-05
1.7125421e-05
1.4084096e-05
1.8037556e-05
2.5017286e-05
3.5214599e-05
2.3756097e-05
1.6379277e-05
1.3280993e-05
1.814871e-05
2.9732426e-05
3.2141366e-05
2.2068219e-05
1.5403825e-05
1.2365136e-05
1.9090772e-05
3.5797928e-05
3.5500859e-05
2.1822751e-05
1.473524e-05
1.2005587e-05
1.9808483e-05
3.9864705e-05
5.3769902e-05
3.1804977e-05
2.0051165e-05
1.3768226e-05
1.9925216e-05
4.1121925e-05
8.0629469e-05
4.9285982e-05
3.0704857e-05
1.8021069e-05
2.0876069e-05
4.142416e-05
0.00017904275
0.00010464857
5.5136102e-05
2.7299127e-05
2.2363766e-05
4.0341974e-05
0.00046496826
0.00027555363
0.00013115291
4.9553389e-05
2.8778594e-05
3.7463859e-05
0.00098186126
0.00066642857
0.00036732101
0.00012138796
4.5069445e-05
3.3651733e-05
0.0013956318
0.0012546472
0.00083399328
0.00034143118
8.231401e-05
2.5412879e-05
0.0015395378
0.0015034396
0.0012212439
0.00067499371
0.00018405512
2.4220064e-05
0.0015447653
0.0015990801
0.0015436499
0.0011732854
0.00040360127
3.4182429e-05
0.001417022
0.0016652193
0.0017466343
0.0015371562
0.00084959232
5.7236594e-05
0.0013515046
0.0016598713
0.0017430311
0.0015037345
0.00081761916
7.5212275e-05
0.001486992
0.0017135074
0.0017301094
0.0014058767
0.00068746196
7.2792828e-05
0.0015023115
0.0015671811
0.0013692327
0.00092750479
0.00035529324
6.6267417e-05
0.0010875859
0.00083424433
0.00058478492
0.00032886138
0.00012618554
4.5644793e-05
0.00040348707
0.00029973146
0.00020137374
0.00011311454
4.8946677e-05
1.9873566e-05
0.00020750619
0.00016017051
0.00011736901
7.5774264e-05
3.9000794e-05
1.4818213e-05
0.00027198682
0.00019797634
0.00013832291
9.5176275e-05
5.2005106e-05
1.8818933e-05
0.00049747595
0.0003975661
0.00026791634
0.00015553733
7.8508371e-05
3.6529674e-05
0.00068300144
0.00065573335
0.00056230811
0.00037824334
0.00017193756
4.9776442e-05
0.00089786985
0.00095209682
0.00088110406
0.00063793974
0.00029840345
5.062197e-05
0.0010274013
0.0010819845
0.0010184222
0.00075886839
0.00035281269
4.4034839e-05
0.0009984644
0.001051245
0.00098824301
0.00073762556
0.00033969279
3.2137366e-05
0.0009023052
0.00089010767
0.00078224859
0.00055073756
0.0002334149
2.8359743e-05
0.00065181896
0.00058152953
0.0004622381
0.00029366125
0.00011059428
1.9819342e-05
0.00040169189
0.00032555463
0.00023572563
0.0001376269
4.6565718e-05
7.8566333e-06
0.00038633814
0.00030765009
0.00021918433
0.00012665468
4.4424963e-05
7.3157595e-06
0.00059280498
0.00049395059
0.00036567888
0.00021880879
8.163283e-05
8.9268089e-06
0.00075837705
0.00066039451
0.0005081406
0.00030988713
0.00011011692
8.3450378e-06
0.00075609859
0.00066261088
0.00051859459
0.00032120164
0.00011174011
5.0687873e-06
0.00061902156
0.00053117426
0.00039951075
0.00023688653
7.222117e-05
1.8568433e-06
0.00046706638
0.00037808473
0.0002716572
0.00015272122
4.1366825e-05
1.0806576e-06
0.00045563622
0.00036124101
0.00025530373
0.00014076563
3.6999398e-05
1.1336941e-06
0.00051717298
0.00040774485
0.00028334375
0.00015142765
3.8668548e-05
1.1733231e-06
0.00052980388
0.00042082851
0.00029386555
0.0001564885
3.8345942e-05
1.0160659e-06
0.00048536588
0.00038156049
0.00026355973
0.00013755431
3.0971397e-05
7.9270439e-07
0.00046528411
0.0003594795
0.00024266898
0.00012241986
2.6001146e-05
6.9470787e-07
0.00046181594
0.00035277961
0.00023450261
0.00011550628
2.3618314e-05
6.6805916e-07
0.0004625427
0.00035009823
0.00022997504
0.00011156716
2.2410164e-05
6.457064e-07
0.00046922487
0.0003521775
0.00022868717
0.00010925543
2.1423033e-05
6.1388196e-07
0.00046646753
0.00034681193
0.00022196543
0.00010334042
1.9352773e-05
5.7741254e-07
0.00045793888
0.00033697802
0.00021318035
9.8214503e-05
1.819555e-05
5.6742354e-07
0.00045724396
0.00033388871
0.00020968419
9.6486168e-05
1.8057842e-05
6.0662948e-07
0.00046610512
0.00033759754
0.00020971248
9.573543e-05
1.833414e-05
6.6054947e-07
0.0004695957
0.00033874839
0.00020985798
9.5623016e-05
1.8570691e-05
7.1397491e-07
0.00047402539
0.00033900756
0.00020857034
9.5681346e-05
1.9641082e-05
8.1873331e-07
0.00047348079
0.00033728628
0.00020650825
9.4683747e-05
1.9821328e-05
8.8310384e-07
0.00046753604
0.00033074184
0.00020183926
9.2752838e-05
2.0315461e-05
9.8668603e-07
)
;

boundaryField
{
    Side1
    {
        type            empty;
    }
    Inlet
    {
        type            calculated;
        value           nonuniform List<scalar> 0();
    }
    Side2
    {
        type            empty;
    }
    Outlet
    {
        type            zeroGradient;
    }
    Botwall
    {
        type            nutkWallFunction;
        blending        stepwise;
        value           nonuniform List<scalar> 
59
(
0
0
0
0
0
0
0
0
0
0
0
0
0
0
0
0
0
0
0
0
0
5.374334e-07
3.1671986e-06
2.7275953e-06
1.6989758e-06
0
0
0
0
0
0
0
0
0
0
0
0
0
0
0
0
0
0
0
0
0
0
0
0
0
0
0
0
0
0
0
0
0
0
)
;
    }
    Cyli
    {