/*--------------------------------*- C++ -*----------------------------------*\
| =========                 |                                                 |
| \\      /  F ield         | OpenFOAM: The Open Source CFD Toolbox           |
|  \\    /   O peration     | Version:  2406                                  |
|   \\  /    A nd           | Website:  www.openfoam.com                      |
|    \\/     M anipulation  |                                                 |
\*---------------------------------------------------------------------------*/
FoamFile
{
    version     2.0;
    format      ascii;
    arch        "LSB;label=32;scalar=64";
    class       volVectorField;
    location    "0.02";
    object      U;
}
// * * * * * * * * * * * * * * * * * * * * * * * * * * * * * * * * * * * * * //

dimensions      [0 1 -1 0 0 0 0];

internalField   nonuniform List<vector> 
2065
(
(62.955191 27.976599 1.6833589e-20)
(60.107213 28.807293 -3.2067551e-20)
(56.900263 29.587504 0)
(53.572029 29.882406 3.7152954e-18)
(50.053986 29.794514 -7.1999211e-18)
(46.164748 29.610054 6.8628979e-18)
(42.160206 28.632688 -3.2306788e-18)
(37.928698 28.234046 -3.025933e-18)
(33.871144 26.837264 2.7800638e-18)
(29.212786 25.324839 2.0410714e-20)
(24.969783 24.024241 -3.8076397e-20)
(19.9953 22.137063 -2.3120969e-18)
(13.569131 19.132285 4.1190839e-18)
(7.3197472 13.894265 -3.8408815e-18)
(5.6981476 5.1822834 3.7183961e-18)
(8.2891124 -3.8043716 -1.6685933e-18)
(13.950272 -12.7914 -5.0071581e-20)
(22.830366 -20.701476 0)
(29.319452 -26.113466 1.3571552e-18)
(33.9839 -30.838138 -1.3345499e-18)
(40.55357 -31.917196 0)
(46.087389 -28.600014 -6.80094e-20)
(50.069015 -17.023114 -6.0606979e-20)
(53.456086 -5.429559 -8.0011123e-19)
(57.75345 12.22189 9.3038905e-19)
(54.992869 23.202732 0)
(47.169141 24.307303 -5.7417519e-20)
(33.255459 20.791109 9.0186877e-20)
(26.310584 10.571029 0)
(25.392737 1.3363629 0)
(27.677302 -6.8692366 0)
(32.638814 -15.450515 -1.374823e-19)
(38.1517 -15.083422 0)
(44.98963 -4.447613 -1.1916883e-19)
(45.948864 3.0382459 0)
(41.220561 6.9139453 0)
(35.928945 3.948818 0)
(35.548981 0.10338056 5.2460294e-19)
(37.152831 -2.4848922 1.0700099e-19)
(40.079373 -1.7393873 1.1864236e-19)
(40.541978 -0.17240223 -2.7918781e-19)
(39.67354 0.60535314 4.1232182e-19)
(39.051812 0.33053262 -2.3950282e-19)
(39.377463 -0.14761731 2.217894e-19)
(39.971488 -0.18793905 -2.0624711e-19)
(40.05886 -0.0049353659 1.8948193e-19)
(40.035355 0.07143103 2.3553784e-20)
(40.048629 0.044651827 -1.832549e-19)
(40.157005 0.0096985981 0)
(40.338777 -0.00038682137 0)
(40.47336 0.013352597 6.3424419e-20)
(40.526701 0.046910637 -5.8106049e-20)
(40.522946 0.058374001 3.7281693e-19)
(40.5398 0.04576968 -9.0925733e-25)
(40.568419 0.058795977 6.7814436e-20)
(40.607958 0.045139206 -1.57092e-19)
(40.660365 0.041940809 -6.0745074e-19)
(40.860227 0.020064979 0)
(61.811651 30.100042 -7.5342171e-21)
(58.829165 31.114284 1.5296438e-20)
(55.40542 31.943849 3.3068859e-18)
(52.050007 31.901848 -3.4568013e-18)
(48.199412 31.891065 -1.3151312e-20)
(44.11789 31.626388 0)
(39.962609 30.65151 -1.1773076e-20)
(35.87158 29.886152 2.2470124e-20)
(31.111589 28.67769 0)
(26.570117 26.991405 -3.8780779e-20)
(22.408661 25.652064 3.603661e-20)
(16.932617 23.732292 0)
(9.8018579 20.119879 3.0974925e-20)
(4.8390777 12.928993 -2.9137655e-20)
(4.9897694 1.2909358 -2.7216731e-20)
(8.4058543 -9.0258985 0)
(16.788035 -19.142048 1.5980539e-18)
(25.195694 -24.86018 4.6109033e-20)
(30.910257 -29.37602 -1.3293225e-18)
(34.777956 -32.704012 1.2272071e-18)
(40.870457 -32.038051 -1.8750539e-18)
(45.409906 -27.100282 2.0697168e-18)
(49.247512 -13.877666 -1.7994882e-18)
(52.086766 -3.4014041 7.3819052e-19)
(55.464607 14.664959 -5.254292e-20)
(52.73349 24.675728 0)
(45.368314 25.680836 5.9994883e-20)
(32.129796 21.344746 -8.7951504e-20)
(26.396535 10.30044 0)
(25.896885 0.45831173 5.9899781e-19)
(28.434797 -8.3888464 -1.1145815e-18)
(33.608093 -16.541049 5.2643373e-19)
(38.260602 -14.952349 0)
(44.322058 -3.6581906 1.1437596e-19)
(44.924697 3.5879838 -1.4896672e-19)
(40.013672 7.2383429 3.8894732e-19)
(35.350338 3.8849463 0)
(35.163172 -0.0884661 0)
(36.845278 -2.6503405 -1.7777464e-19)
(39.560541 -1.7411015 3.1152957e-19)
(39.878277 -0.10539248 -2.7026809e-19)
(38.9285 0.65180185 -7.3781355e-20)
(38.391933 0.32219489 0)
(38.762045 -0.17177023 0)
(39.313602 -0.19737542 0)
(39.378244 -0.0027390307 -3.6984946e-19)
(39.355096 0.072104051 -1.2106645e-20)
(39.376122 0.041285952 -1.2807081e-19)
(39.496882 0.0040391068 4.3942659e-19)
(39.681874 -0.0055624805 -1.3557171e-19)
(39.822441 0.010885671 0)
(39.889047 0.046547396 -4.6106677e-19)
(39.899513 0.059520267 -7.9548187e-19)
(39.939725 0.046395279 3.4184384e-19)
(39.983365 0.060182358 2.2510671e-20)
(40.049487 0.045685357 7.7694348e-20)
(40.120234 0.040386257 6.0832917e-19)
(40.368514 0.016632981 0)
(62.501216 30.947179 3.5234858e-18)
(60.558809 32.832282 -3.3095741e-18)
(57.459582 33.740322 -4.0596998e-18)
(54.190651 33.887048 3.4860458e-18)
(50.35642 34.026482 -6.634636e-21)
(45.839432 34.151233 -1.3056045e-20)
(41.64672 33.413436 0)
(37.137459 32.511422 2.2860928e-20)
(32.993898 31.666451 -2.79885e-18)
(29.847645 29.227402 2.5601034e-18)
(25.072026 27.974306 1.8446555e-20)
(20.394824 26.959367 0)
(13.635576 25.147147 0)
(6.2819421 20.318431 -1.4807122e-20)
(3.6604554 10.523352 -1.7959017e-18)
(5.2882331 -1.7463832 3.343929e-18)
(9.6147748 -12.693203 -1.5617887e-18)
(18.01147 -22.073793 -1.6363521e-23)
(25.743759 -26.908415 -1.4527502e-18)
(31.45519 -30.670454 1.2481166e-18)
(34.667128 -33.774873 7.4853683e-20)
(40.149802 -32.718852 0)
(43.283133 -28.665019 0)
(47.708767 -13.502338 -1.4281059e-20)
(50.635175 -2.5669547 -8.9331569e-19)
(53.289191 16.121301 4.4919139e-20)
(50.500874 25.672553 7.5730923e-19)
(43.62561 26.642861 2.4551677e-20)
(31.183389 21.870114 -6.7493657e-19)
(26.666565 9.8458244 5.8972492e-19)
(26.491315 -0.2829718 7.1986831e-20)
(29.101861 -9.3188195 0)
(34.018773 -17.196788 5.7117238e-19)
(37.834003 -15.242766 -4.3013526e-19)
(43.557886 -3.55071 -3.8794725e-19)
(43.937082 3.9655423 -6.4877308e-23)
(38.890298 7.5148488 -4.532412e-22)
(34.831777 3.8559204 9.1960983e-20)
(34.817554 -0.25890052 3.2579956e-19)
(36.532877 -2.8087095 -5.3907405e-19)
(39.063327 -1.8074463 1.7315821e-19)
(39.244309 -0.053816913 2.6218306e-19)
(38.206446 0.69584014 -3.9334304e-20)
(37.761965 0.31133131 0)
(38.173733 -0.19972006 -1.0503617e-19)
(38.676688 -0.2083286 -6.7840769e-24)
(38.718669 -0.0029794403 -1.8061779e-19)
(38.694329 0.072137399 8.6005024e-21)
(38.724739 0.037686835 1.3582327e-19)
(38.854605 -0.001606223 -4.3153574e-19)
(39.039004 -0.010783348 -1.9995796e-19)
(39.182493 0.0079308647 1.84806e-19)
(39.262183 0.045684484 4.550313e-19)
(39.2856 0.05897323 3.6736031e-19)
(39.352134 0.045871171 -3.8740455e-19)
(39.40914 0.060279016 4.470681e-20)
(39.501112 0.045723595 8.4698903e-20)
(39.590668 0.038600648 3.2245483e-19)
(39.887775 0.0144928 0)
(58.772434 29.883732 9.4175751e-21)
(59.540182 33.89036 0)
(58.672253 35.213263 -6.3120094e-21)
(55.965018 37.038519 -6.4518465e-21)
(52.017891 37.433591 -7.2793684e-21)
(47.89644 37.02231 5.9939912e-21)
(43.882541 36.004476 1.8573829e-20)
(39.690479 35.052473 0)
(35.307805 33.901749 2.7611602e-18)
(31.671013 32.5368 -2.518632e-18)
(25.81296 31.722868 -2.2075601e-18)
(21.264533 30.535433 2.0388042e-18)
(16.121628 29.440685 -7.2929401e-21)
(9.7822128 26.701771 -1.4303131e-20)
(4.231858 20.00089 1.4375264e-20)
(3.8972071 7.6565374 1.6948677e-18)
(6.2789361 -5.3175905 1.4166383e-20)
(11.533242 -17.528854 -1.4873243e-18)
(19.959798 -26.31788 1.4066702e-18)
(27.465238 -29.930054 -1.2915272e-18)
(32.314962 -32.585414 0)
(34.856548 -34.883394 -3.6008039e-20)
(39.104744 -33.196678 -1.027356e-18)
(42.732079 -27.593912 8.6989438e-19)
(46.637117 -11.256333 9.1691525e-21)
(49.287181 -1.2941431 -8.4651381e-19)
(51.127939 17.724078 -3.7563387e-20)
(48.379369 26.727852 7.0810721e-19)
(42.205163 27.497471 -3.4620491e-20)
(30.567449 22.354273 -4.0711252e-20)
(27.11244 9.2949123 -6.0713673e-19)
(27.161233 -1.0366752 -6.9548798e-20)
(29.868304 -10.538629 3.2084017e-20)
(34.394269 -17.743389 4.291625e-19)
(37.749514 -15.118073 9.7773785e-25)
(42.702209 -3.1382944 0)
(42.937765 4.3792647 1.5024529e-19)
(37.852745 7.8262517 4.0785498e-22)
(34.394165 3.8045646 -1.4288794e-19)
(34.511426 -0.4062148 0)
(36.226976 -2.9665936 0)
(38.565774 -1.8602088 0)
(38.626229 -0.017286273 -1.9005841e-19)
(37.516777 0.73977902 9.2158315e-21)
(37.168861 0.29819427 1.1034767e-19)
(37.616172 -0.22851155 -9.3593492e-26)
(38.06759 -0.21948309 2.8736195e-19)
(38.089307 -0.0014588046 -1.7683722e-19)
(38.062625 0.072290046 2.3439553e-21)
(38.103985 0.033813965 -7.2553278e-20)
(38.239824 -0.00733012 2.8313663e-19)
(38.419823 -0.016173925 1.313251e-19)
(38.562562 0.004737781 -2.431493e-19)
(38.65494 0.044358436 5.6224326e-20)
(38.689871 0.057843173 5.1984475e-20)
(38.781823 0.044766902 -4.8058351e-20)
(38.85118 0.059709178 0)
(38.96891 0.045178837 0)
(39.0765 0.036133681 -3.0300438e-19)
(39.42154 0.012226449 0)
(49.683408 27.110051 4.7090345e-18)
(55.437426 34.459138 -4.3737859e-18)
(55.608056 38.160828 0)
(53.528722 39.930066 0)
(50.36799 40.052165 -3.4075218e-18)
(44.982787 40.358974 -2.586859e-21)
(39.947855 39.613555 5.4228766e-18)
(36.101947 37.803256 -2.8495688e-18)
(31.616337 36.589141 2.3945661e-18)
(28.016514 35.087292 -2.2039671e-18)
(24.143725 33.045644 -8.3009484e-21)
(19.867322 31.828266 7.7273984e-21)
(14.487119 30.791018 7.1255586e-21)
(7.4274823 27.730263 2.0887775e-20)
(3.88336 18.80378 1.7983834e-18)
(4.9712505 4.4182623 -1.6288006e-18)
(7.9812805 -8.937844 1.5163872e-18)
(14.116468 -21.707786 3.1561438e-21)
(21.36365 -29.070431 1.312966e-20)
(28.427467 -31.56762 -1.3089124e-18)
(32.576394 -33.562454 1.2012541e-18)
(34.760402 -35.531081 1.4882825e-20)
(37.556923 -34.172832 -9.9672101e-19)
(41.309879 -27.813212 -2.9005213e-20)
(45.52357 -10.182739 -6.6746273e-21)
(47.944779 -0.33062906 2.5023255e-20)
(48.732062 19.055426 -7.6939636e-19)
(46.366419 27.723036 7.0897419e-19)
(40.76656 28.669721 -1.9710028e-19)
(30.250649 22.701442 3.9717764e-20)
(27.724124 8.7624471 5.927195e-19)
(27.942638 -1.770936 -3.3761284e-20)
(30.511674 -11.418442 -5.0095861e-24)
(34.689198 -18.179465 2.8894603e-20)
(37.75629 -15.032371 5.0572754e-20)
(41.614894 -2.9040263 1.3922688e-19)
(41.785443 5.1561086 7.0965649e-23)
(36.933905 8.1797595 -7.0943467e-19)
(34.041602 3.787208 4.0459369e-20)
(34.260547 -0.58844426 3.051104e-19)
(35.961552 -3.1394587 -9.8252212e-20)
(38.04532 -1.9161735 6.0291545e-19)
(38.013618 0.055368039 -3.0982272e-19)
(36.871318 0.78556072 0)
(36.618915 0.28065071 -1.0798067e-19)
(37.093165 -0.25764265 5.0242923e-19)
(37.493409 -0.22694954 -4.6954636e-19)
(37.499085 -0.0010387725 8.6789959e-20)
(37.469489 0.072228635 -2.9279937e-21)
(37.523061 0.029425161 0)
(37.66266 -0.013218356 0)
(37.834956 -0.021620247 6.4808487e-20)
(37.972501 0.0012270463 6.0088861e-20)
(38.076605 0.042555922 5.5669243e-20)
(38.121414 0.056189474 -5.1558653e-20)
(38.235338 0.043092015 -1.1937165e-19)
(38.315818 0.058667514 4.422654e-20)
(38.458905 0.04403526 -6.4211691e-21)
(38.583279 0.032819457 -4.7297474e-21)
(38.974087 0.0091979872 4.3628061e-21)
(26.51645 11.230428 -4.8189987e-18)
(37.689113 21.43746 9.0514431e-18)
(48.421153 32.833986 -1.5082081e-21)
(51.514629 40.076957 -4.006145e-18)
(50.80467 42.427072 0)
(46.876371 44.6713 0)
(43.239362 42.964835 -2.9425388e-21)
(38.764585 40.855441 2.6013503e-21)
(33.702517 39.862595 2.6242983e-21)
(29.981152 37.96014 0)
(26.25763 36.454589 2.1850385e-18)
(22.360813 34.87815 5.0516002e-21)
(18.161669 34.112429 -4.1938941e-18)
(12.311363 33.324031 3.879231e-18)
(5.8788664 28.475305 -1.1596148e-20)
(4.6953116 16.471511 -3.4950213e-18)
(6.6040255 0.94681584 1.6019738e-18)
(10.089155 -12.872556 -5.8527352e-21)
(16.841584 -26.042084 -1.1131505e-20)
(23.334004 -32.242747 -5.2428463e-21)
(29.912712 -33.714966 0)
(33.279068 -34.665623 0)
(34.651099 -35.86654 -1.5168529e-20)
(36.384851 -34.722875 -7.5787146e-21)
(40.40372 -26.749109 0)
(44.597976 -8.9642036 0)
(46.720443 0.68496774 0)
(46.478337 20.350717 0)
(44.397501 28.772423 2.1631795e-20)
(39.276426 29.814679 0)
(30.217626 22.942036 0)
(28.492756 8.1927221 0)
(28.855999 -2.4264389 -4.9401058e-19)
(31.248682 -12.209602 -3.1153162e-20)
(35.004393 -18.575509 -1.3588143e-20)
(37.687345 -15.363871 4.1365554e-19)
(40.733356 -2.8253368 -4.0495229e-19)
(40.638873 5.0669512 1.934701e-19)
(36.030484 8.3605756 3.4672663e-19)
(33.749521 3.7646424 -4.0467289e-19)
(34.077877 -0.7928012 2.1375092e-19)
(35.753263 -3.2981262 0)
(37.530333 -1.9414086 -9.8371929e-20)
(37.408803 0.11595926 -3.0395229e-20)
(36.280087 0.83155554 -1.0377259e-21)
(36.118648 0.26344758 0)
(36.609844 -0.28406929 0)
(36.962226 -0.23611311 9.1811322e-20)
(36.95508 0.0017462589 -4.2653467e-20)
(36.92421 0.071666975 7.3661757e-21)
(36.99166 0.024485883 -4.0050693e-20)
(37.133261 -0.019173086 0)
(37.295935 -0.026745689 -6.4079372e-20)
(37.423064 -0.0024886703 -2.2408489e-24)
(37.537056 0.040296646 -5.5203096e-20)
(37.589926 0.054022574 2.5603569e-20)
(37.720847 0.040899693 4.2816e-25)
(37.810566 0.057096767 -8.8112982e-20)
(37.977527 0.042323226 -3.3210287e-21)
(38.117272 0.028723956 -9.4564277e-21)
(38.550773 0.005569661 0)
(16.776074 -0.16704382 4.8888156e-18)
(21.214115 6.4094425 -9.2793598e-18)
(27.782529 15.323125 -2.6160582e-23)
(39.408871 28.714532 -1.7584343e-21)
(46.464611 40.002262 3.9043035e-18)
(46.55583 45.163907 0)
(44.00459 46.814515 -2.4964459e-18)
(40.946587 45.803439 3.0006035e-18)
(35.88512 44.365604 2.9241841e-18)
(32.674854 41.657017 -5.2472344e-18)
(28.724174 39.725599 -2.3991064e-21)
(24.870681 38.004603 -5.8992363e-21)
(20.831253 37.111581 2.2473839e-18)
(16.45393 36.775229 -2.0632393e-18)
(10.30961 35.599521 1.9251636e-18)
(5.6872341 28.374186 -1.5497296e-18)
(6.5745094 13.274187 3.3984095e-18)
(8.8664121 -2.2563037 -3.1259482e-18)
(13.003512 -17.019672 1.4706982e-18)
(19.712975 -29.588847 -1.3976086e-18)
(25.191937 -34.484641 2.6101367e-18)
(30.819891 -34.87355 -2.4435729e-18)
(33.727596 -35.117042 1.1337121e-18)
(33.899397 -36.383567 -3.9605432e-21)
(34.951387 -35.351807 -8.9547857e-19)
(38.7687 -26.520737 8.8751423e-19)
(43.266874 -8.181692 4.6740583e-21)
(45.240727 2.1340145 0)
(44.321775 21.334054 0)
(42.603219 29.701275 -6.7804105e-19)
(38.242069 30.534837 -3.6611613e-21)
(30.500929 23.116554 5.9949222e-19)
(29.397714 7.6105598 8.3825193e-21)
(29.874354 -3.0199884 5.2372897e-19)
(32.062612 -12.972752 -9.6152484e-19)
(35.370441 -18.969202 7.9939484e-19)
(37.680271 -15.21855 -4.1882578e-19)
(40.149355 -2.8088034 -3.6775604e-19)
(39.481906 6.0931663 3.6574208e-19)
(35.179173 8.6566872 1.0639361e-20)
(33.503343 3.7754075 -1.0007759e-19)
(33.951449 -0.96548567 9.780719e-21)
(35.595585 -3.4425851 2.3086364e-20)
(37.021558 -1.9463744 2.8133525e-20)
(36.814553 0.1798502 2.9917595e-20)
(35.755741 0.86946726 1.233585e-20)
(35.677679 0.24148698 -7.8216302e-20)
(36.17513 -0.30568161 -9.0672146e-21)
(36.482683 -0.2438824 9.047334e-20)
(36.46414 0.0042848383 -2.1066358e-20)
(36.436716 0.069709193 3.3795372e-21)
(36.520365 0.019063681 -2.0137059e-20)
(36.662754 -0.025107332 6.8254646e-20)
(36.814567 -0.031483684 3.173514e-20)
(36.926174 -0.0062353999 -2.9502757e-20)
(37.047038 0.037676475 5.4823676e-20)
(37.106112 0.051463543 0)
(37.248338 0.038322306 7.0947183e-20)
(37.344477 0.055058377 2.1965906e-20)
(37.53246 0.040100061 0)
(37.685988 0.023947841 -7.5667224e-20)
(38.158295 0.0014555382 0)
(16.684891 -2.0904125 -2.6520931e-21)
(19.557888 3.785613 -4.4269033e-18)
(23.115258 12.093707 4.1726287e-18)
(30.684998 23.736133 -3.9869507e-18)
(40.264156 39.005203 0)
(41.850976 47.287354 -3.5861339e-18)
(40.741694 48.858403 5.8193009e-18)
(36.560301 49.387 -2.5747835e-18)
(33.200122 46.590499 7.1306629e-22)
(29.489254 44.264991 -1.3357776e-21)
(26.222345 42.276407 2.5583075e-18)
(22.994643 40.447444 -2.3800413e-18)
(19.427315 39.646954 -2.1945309e-18)
(14.961944 39.373278 4.0394339e-18)
(9.3707689 37.236957 -1.8940088e-18)
(6.4081727 27.183413 0)
(9.5505136 9.8155626 0)
(11.781726 -5.0273022 -1.5039045e-18)
(16.356439 -21.047523 2.8518984e-18)
(22.598353 -32.839895 -1.3649262e-18)
(27.344128 -36.874295 -2.5018782e-21)
(32.201746 -36.588817 0)
(34.41202 -35.632387 4.3593716e-21)
(33.605585 -36.449107 -4.5616141e-19)
(34.021016 -35.431611 4.1712299e-19)
(36.90147 -25.897173 -4.385161e-19)
(41.275835 -7.5529529 7.669774e-19)
(43.23421 3.6408259 0)
(42.183865 22.18113 0)
(41.184214 30.411485 3.2769026e-19)
(37.264002 31.361998 -2.2299115e-19)
(30.969021 23.267819 2.9846126e-19)
(30.407224 7.091925 -1.2248308e-20)
(30.962192 -3.573704 -7.8167684e-21)
(32.893313 -13.688567 -7.3804055e-21)
(35.88464 -19.180199 -6.2870344e-21)
(37.296191 -15.70887 0)
(39.880334 -2.1172678 0)
(38.544902 6.4150525 -1.7413978e-19)
(34.4091 8.8065531 1.4639906e-19)
(33.321208 3.8369709 9.4855621e-20)
(33.90376 -1.1198996 -2.6292301e-19)
(35.497634 -3.5942151 1.8781304e-20)
(36.52386 -1.9180218 -7.9325268e-21)
(36.24124 0.25923531 0)
(35.313837 0.88914207 -1.8691113e-20)
(35.307612 0.22417075 6.4319072e-20)
(35.807949 -0.32948823 -6.8946814e-21)
(36.064987 -0.25050698 1.005665e-19)
(36.03772 0.0062014937 -1.0415114e-19)
(36.017822 0.066973342 5.0768161e-21)
(36.120992 0.013247158 -1.0226662e-19)
(36.263921 -0.030955407 6.7660806e-20)
(36.402519 -0.036028753 -3.1489747e-20)
(36.495111 -0.0098899813 6.5779414e-25)
(36.618729 0.034813628 -5.4523155e-20)
(36.682052 0.048643521 0)
(36.830208 0.035507333 2.3575419e-20)
(36.928935 0.052675317 7.6731733e-20)
(37.133574 0.0374359 -1.3700751e-20)
(37.299213 0.018600819 3.3128116e-20)
(37.805218 -0.0030430911 -4.3853337e-21)
(16.354542 -3.2670151 4.2298309e-18)
(18.34286 2.3255622 -2.0970435e-18)
(20.628362 9.9949576 -2.4752909e-22)
(24.732871 20.147358 1.9288888e-18)
(33.653082 35.854081 -1.8446186e-18)
(37.044149 47.504903 0)
(36.220287 50.993184 1.5573315e-18)
(33.578335 51.113194 -1.1553425e-18)
(30.263096 48.63066 -6.980846e-22)
(27.241538 46.008227 0)
(24.237733 43.870318 1.2572791e-18)
(21.506379 42.238488 -1.1657358e-18)
(18.25184 41.849169 0)
(14.086454 41.584729 -9.9208883e-19)
(9.5497378 38.138359 8.3969551e-19)
(9.6792162 24.577995 -8.7714232e-19)
(12.929402 7.0130914 7.7665069e-19)
(15.324256 -7.8166718 7.3185832e-19)
(20.189421 -24.810398 -1.3969462e-18)
(25.615241 -35.374683 6.7116657e-19)
(29.492357 -38.159946 6.3469662e-19)
(33.267881 -37.207785 -5.6587377e-19)
(34.997711 -35.631361 5.0598722e-19)
(33.407064 -36.555172 -1.6158426e-22)
(32.571414 -35.525153 -7.4731505e-19)
(34.679763 -25.503203 4.3679387e-19)
(38.58231 -7.4063374 -1.5692641e-21)
(40.53895 4.7037494 8.1872405e-22)
(39.995397 22.821866 0)
(39.867306 31.020883 -3.2301438e-19)
(36.490416 31.931378 1.1854802e-19)
(31.666471 23.322686 -4.5026137e-21)
(31.508778 6.6741479 -2.5424435e-19)
(32.093691 -4.0769247 2.3244014e-19)
(33.765834 -14.289576 7.2808478e-21)
(36.351504 -19.460997 9.8320158e-21)
(37.200645 -15.5911 -6.3490731e-21)
(39.250305 -1.7507123 -1.2312268e-19)
(37.47895 6.8776548 1.72948e-19)
(33.605254 9.0226151 1.0396851e-20)
(33.266851 3.8261402 4.7168197e-21)
(33.989147 -1.2621376 8.9846588e-21)
(35.461044 -3.7086509 0)
(36.08792 -1.8967242 7.8343293e-21)
(35.713323 0.34233618 0)
(34.966517 0.91245115 0)
(35.026058 0.19646644 1.2039539e-19)
(35.523541 -0.35874717 -3.5359249e-21)
(35.723958 -0.25590482 -1.1069164e-20)
(35.690779 0.0075296622 0)
(35.680388 0.063285093 4.6802731e-21)
(35.806882 0.0068960393 -2.1174947e-20)
(35.950052 -0.036647616 0)
(36.072402 -0.040066384 0)
(36.144573 -0.013361081 1.4576994e-20)
(36.266535 0.03190722 1.3573489e-20)
(36.332231 0.04568423 3.7911987e-20)
(36.481825 0.032601609 2.3524023e-20)
(36.578934 0.050088914 -2.1895453e-20)
(36.794062 0.034426004 3.3992395e-21)
(36.970329 0.012824037 3.5533314e-20)
(37.503421 -0.0079359395 -1.5382459e-20)
(11.687343 -12.936104 1.3564688e-21)
(15.458005 -3.7728372 2.1683003e-18)
(16.885706 1.3316594 -2.4575541e-22)
(18.644405 8.4563412 1.9829297e-18)
(20.870322 18.382148 3.7698672e-22)
(27.355323 33.170237 2.1038177e-21)
(32.015787 47.198784 -1.7381145e-18)
(31.466529 52.344751 0)
(29.845765 52.570538 -1.1668916e-18)
(26.714753 50.701343 1.1825885e-18)
(25.210535 47.619579 1.4159071e-22)
(22.896375 45.309615 -1.2403024e-18)
(20.323687 44.074184 -3.5415053e-22)
(17.377082 43.944698 2.11066e-18)
(13.918121 43.386265 -9.7905617e-19)
(10.31509 38.105455 0)
(14.076763 21.454375 8.2006939e-19)
(16.854647 4.6039956 -2.9163721e-22)
(19.353245 -10.255601 -7.1631499e-19)
(24.301462 -28.010169 -6.7121963e-22)
(28.578523 -37.619985 -3.2414103e-22)
(31.934912 -39.561955 6.2276489e-19)
(34.25299 -38.164957 -5.5973791e-19)
(35.932371 -35.625753 9.9261403e-22)
(33.658688 -35.836314 0)
(31.641584 -35.332481 3.9063527e-19)
(32.880158 -25.143251 -8.6650241e-19)
(35.931335 -7.404093 3.9984621e-19)
(37.639354 5.4108155 2.4912157e-19)
(37.872521 23.061973 -3.4939304e-19)
(38.52993 31.477355 0)
(35.853701 32.294667 1.5646304e-19)
(32.475725 23.341516 -2.8377396e-19)
(32.702924 6.279166 -2.5812046e-19)
(33.317581 -4.4937745 1.6718302e-19)
(34.701538 -14.82617 2.3206105e-19)
(36.878758 -19.601747 -3.1512564e-21)
(37.048051 -15.595704 -1.1504396e-19)
(38.441036 -1.4645638 0)
(35.95747 7.0093331 1.3836809e-21)
(33.129378 9.1257618 0)
(33.341282 3.7445439 -4.7092607e-21)
(34.203204 -1.412935 -7.1385991e-20)
(35.450155 -3.6385045 6.6358372e-20)
(35.750264 -1.8925936 0)
(35.269846 0.42273708 0)
(34.717981 0.92735308 5.4123874e-20)
(34.85427 0.17019292 -6.2851946e-21)
(35.342769 -0.39047036 0)
(35.476382 -0.25544477 -4.1192962e-20)
(35.439125 0.0098171641 4.0830378e-20)
(35.439777 0.059125115 -2.1379828e-21)
(35.590595 -0.00042358618 -5.4563003e-25)
(35.733755 -0.042060952 3.3418593e-20)
(35.837285 -0.043483379 0)
(35.891186 -0.016658069 -1.4520729e-20)
(36.006049 0.029102387 -3.3830119e-20)
(36.074113 0.042717741 -6.3052995e-21)
(36.221637 0.029707946 1.1745661e-20)
(36.314032 0.047425869 -5.4696147e-21)
(36.532441 0.031194508 6.5828203e-21)
(36.718114 0.0068269237 0)
(37.270566 -0.013280973 1.76164e-20)
(8.6541712 -17.671175 1.2354375e-18)
(12.911055 -5.8073083 1.0847007e-18)
(14.60768 0.27920037 -1.0134293e-18)
(15.931769 7.4261465 9.8276015e-19)
(17.133815 17.316488 -1.8772835e-18)
(21.939329 30.956219 7.9215365e-19)
(26.411276 46.485016 8.6299733e-19)
(26.396394 53.061317 -8.0710318e-19)
(26.281236 53.593872 0)
(23.978214 51.834194 0)
(22.427369 48.927275 -1.8694818e-22)
(21.15499 46.555751 0)
(19.506558 45.520032 2.7780921e-22)
(17.319071 45.479218 5.2243931e-19)
(14.392701 44.683338 -7.8367678e-22)
(12.564539 37.345671 -3.7539302e-19)
(17.688473 18.862914 -3.8918517e-19)
(21.275953 2.5695976 3.8846244e-19)
(24.019409 -12.477012 0)
(28.534707 -30.827766 0)
(31.848095 -39.096629 1.6085678e-22)
(33.992619 -40.272068 -5.8037931e-22)
(35.345175 -38.575161 -2.7433371e-19)
(36.717762 -35.278895 4.7969035e-19)
(34.062951 -35.080374 -1.214311e-23)
(30.822869 -34.883309 -2.1028666e-19)
(30.982695 -25.102608 -2.1679881e-19)
(33.335222 -7.4734473 3.9600346e-19)
(34.759644 5.6412503 8.9237722e-22)
(35.938291 22.974546 -3.4681164e-19)
(37.247914 31.768769 1.5556988e-19)
(35.330607 32.545589 -9.3499857e-20)
(33.342898 23.31308 1.407844e-19)
(34.003737 6.0007416 1.3033051e-19)
(34.615969 -4.7386911 -6.2470346e-20)
(35.704557 -15.264152 1.1394608e-19)
(37.381947 -19.696112 -2.1350782e-19)
(36.987096 -15.55387 5.1485968e-20)
(37.191522 -1.2272367 9.4113521e-20)
(34.519501 7.3810054 -1.7730869e-19)
(32.942488 9.2038626 7.9815147e-20)
(33.571792 3.5859457 7.5716088e-20)
(34.543142 -1.5567898 2.7465941e-23)
(35.538686 -3.6822168 -6.6156724e-20)
(35.595496 -1.9085245 0)
(34.979355 0.49582771 -3.3177669e-20)
(34.58453 0.93233737 1.0766581e-19)
(34.802346 0.14653865 -8.4597777e-21)
(35.277755 -0.41083568 -3.1654736e-21)
(35.343939 -0.25433242 -2.0485266e-21)
(35.297931 0.010715576 1.2702961e-21)
(35.314612 0.053415226 -1.0742417e-21)
(35.47828 -0.0070474304 -3.0025772e-25)
(35.626254 -0.047056114 1.6650445e-20)
(35.710084 -0.046321404 0)
(35.751873 -0.018715881 -1.2668004e-20)
(35.85063 0.025633238 3.3748107e-20)
(35.926089 0.039684444 -4.7214525e-21)
(36.068806 0.026933357 1.4667579e-21)
(36.155562 0.044824627 6.8334376e-21)
(36.373486 0.027818192 0)
(36.567761 0.0004840145 1.1868368e-21)
(37.131253 -0.018746664 -1.1026549e-21)
(6.0629145 -20.660161 -3.0931047e-19)
(9.5247481 -9.571563 -2.7128359e-28)
(11.812583 -0.29920242 -2.6467656e-19)
(13.022623 6.0380861 7.1294867e-19)
(15.106683 14.820641 5.4250981e-23)
(17.482561 28.375155 -3.8824625e-19)
(20.658079 44.636006 2.1488085e-19)
(21.129563 52.620392 -2.0124063e-19)
(21.731813 53.908219 0)
(21.129539 52.539112 1.4289429e-19)
(20.267878 49.637732 -2.6370741e-19)
(19.396522 47.565649 2.673916e-19)
(18.700379 46.836485 -1.412191e-19)
(16.975624 46.781799 -1.2902981e-19)
(15.053712 45.429922 2.8320908e-22)
(16.4812 35.606289 1.2623104e-22)
(22.265854 15.305041 9.8536167e-20)
(25.843648 1.3193281 -9.3803831e-23)
(28.880904 -14.244755 0)
(32.753114 -32.846123 -6.4345586e-28)
(34.953532 -40.341048 1.6431815e-19)
(36.398777 -40.996636 -1.4768949e-19)
(36.879728 -38.674678 1.3892298e-19)
(37.068843 -35.150209 -1.6623303e-19)
(34.619144 -34.45093 8.0675757e-24)
(30.508451 -34.124344 5.2172831e-20)
(29.365374 -24.866239 -2.1122607e-22)
(30.987762 -7.6477596 -4.9069751e-20)
(32.187379 5.654885 9.0469265e-20)
(34.161123 22.42908 1.0809576e-22)
(36.051857 31.881597 -3.6700051e-20)
(34.976198 32.593695 2.1795458e-20)
(34.223528 23.247497 -3.5049302e-20)
(35.368601 5.7923682 -3.1281612e-20)
(35.930893 -4.825252 1.2216849e-20)
(36.736034 -15.600542 2.8613904e-20)
(37.939217 -19.745242 -2.6581906e-20)
(37.080333 -15.376381 2.0391523e-27)
(35.736668 -0.9142148 3.6713832e-22)
(33.59866 7.4407457 -2.6133716e-27)
(32.951315 9.2804932 3.2925861e-27)
(33.885773 3.464601 1.0055704e-20)
(34.971663 -1.6510888 -3.5350597e-20)
(35.78613 -3.7356975 3.2976667e-20)
(35.598213 -1.9519993 -4.8755687e-21)
(34.869213 0.55668309 1.0092096e-20)
(34.576596 0.92810513 1.1450657e-20)
(34.877471 0.11716926 3.0878682e-22)
(35.309163 -0.41898122 -8.3719739e-26)
(35.328075 -0.26038739 -1.1587641e-20)
(35.271947 0.011306027 -1.2673464e-21)
(35.30034 0.048888271 -4.4548932e-22)
(35.483786 -0.014748754 6.6560524e-21)
(35.629095 -0.05181321 0)
(35.695605 -0.048636193 0)
(35.726504 -0.021325886 -1.806178e-21)
(35.813975 0.023028811 -3.3689448e-21)
(35.899266 0.036602933 1.5720824e-21)
(36.036938 0.024328505 -1.465603e-21)
(36.119863 0.04226174 -2.7317092e-21)
(36.339158 0.024382358 -1.4354896e-27)
(36.541673 -0.0063914727 1.1870857e-21)
(37.107768 -0.024418316 0)
(3.4475235 -22.665139 -6.3080394e-19)
(5.4897803 -14.221506 2.7928015e-28)
(7.9146983 -3.1027243 -2.6639044e-19)
(9.3554556 5.0202334 0)
(12.260935 14.298459 1.1061504e-23)
(12.443995 27.261741 3.8567522e-22)
(14.690246 42.558686 5.5329574e-22)
(15.930766 51.032795 -2.0147591e-19)
(17.053846 53.210595 0)
(18.190524 52.481804 1.5560509e-19)
(18.541631 49.848729 -2.8143915e-19)
(18.411217 47.734775 2.3754429e-19)
(18.093765 47.447522 -1.2359428e-19)
(18.045355 47.080188 -1.1112065e-19)
(16.911566 45.475957 2.8268302e-22)
(19.486754 33.985794 1.4608741e-22)
(26.467564 12.492428 1.9728307e-19)
(29.888819 0.41064987 0)
(33.477426 -15.903322 0)
(36.97787 -34.230716 8.4869313e-23)
(38.216318 -40.906331 -1.5990626e-22)
(38.665812 -41.278666 7.4117443e-20)
(38.261878 -38.500961 1.4155988e-22)
(37.76433 -34.472837 -9.6692073e-20)
(35.365135 -33.616752 2.983333e-24)
(30.395306 -33.258177 4.7297007e-20)
(28.062306 -24.814337 0)
(28.951547 -7.9304149 -4.7952469e-20)
(29.997163 5.3365875 9.0631751e-20)
(32.623851 21.832771 9.4191735e-23)
(35.051088 31.806302 -6.9709416e-20)
(34.700728 32.529581 -6.9716205e-24)
(35.051066 23.287518 3.9099166e-23)
(36.711117 5.6347289 2.1556866e-22)
(37.221732 -4.8031029 -9.9708457e-24)
(37.794714 -15.807146 5.7162115e-20)
(38.536801 -19.756028 4.4705096e-22)
(37.180114 -15.209156 -1.458038e-20)
(34.607449 -0.65338997 0)
(33.180347 7.3980204 2.5628367e-27)
(33.191521 8.9690282 -1.0423391e-20)
(34.149138 3.6414758 1.7919022e-20)
(35.450104 -1.7465946 -3.4796608e-20)
(36.175364 -3.7539629 1.6482686e-20)
(35.71223 -1.8997493 1.0948759e-27)
(34.919014 0.54642307 0)
(34.660402 0.91676463 9.045022e-21)
(35.057094 0.089870679 -6.8593451e-21)
(35.452678 -0.43019442 2.0087497e-22)
(35.430674 -0.26206214 -1.0901511e-20)
(35.35595 0.013806415 1.0176357e-20)
(35.393455 0.043561046 -7.1041035e-22)
(35.601305 -0.023394002 6.8399642e-21)
(35.738488 -0.056152164 0)
(35.791894 -0.050526414 9.6878057e-22)
(35.814399 -0.023367491 -1.805086e-21)
(35.890497 0.020227116 3.3666559e-21)
(35.987811 0.03343672 8.4268907e-26)
(36.124962 0.021810699 -4.3950024e-21)
(36.206327 0.039713553 -1.3651671e-21)
(36.431002 0.0208657 6.7460947e-22)
(36.642323 -0.013317912 1.1863942e-21)
(37.204837 -0.03002579 0)
(-1.7196894 -24.084906 0)
(0.64254094 -16.975327 0)
(2.1531513 -8.1176875 -1.1164589e-18)
(4.0798774 2.4340291 1.0336152e-18)
(5.7140958 12.416387 2.9150899e-23)
(6.4599044 25.900296 -5.5654898e-23)
(8.4018054 40.227061 -2.1113136e-22)
(10.19301 48.980892 0)
(12.777742 51.688897 7.5791021e-19)
(14.676435 51.533014 1.0347758e-21)
(16.381721 49.582849 -5.9773821e-19)
(17.558542 47.669328 1.9027824e-22)
(17.95184 47.325885 -2.2825651e-22)
(18.792896 46.748891 1.9406211e-22)
(19.318075 44.61091 0)
(23.249186 31.694581 1.0722191e-22)
(29.767386 10.882257 4.9708846e-22)
(33.149036 -0.098120517 -4.5388781e-22)
(37.830149 -16.483664 0)
(40.961871 -35.130997 3.4947626e-19)
(41.477703 -41.277667 -3.1496015e-19)
(41.248467 -41.384477 -5.6472249e-22)
(39.850417 -38.292564 -2.814831e-19)
(38.065087 -34.202097 2.4410616e-19)
(35.77526 -32.675738 4.6016138e-22)
(30.684302 -32.032382 0)
(27.273848 -24.540413 -8.4859893e-22)
(27.464358 -8.2897043 0)
(28.259137 4.877991 7.0485686e-22)
(31.245001 20.940831 0)
(34.283599 31.535986 0)
(34.558816 32.359668 0)
(35.888019 23.327931 1.0974981e-21)
(38.052673 5.584672 -1.5840081e-22)
(38.541539 -4.6918004 -3.6964387e-20)