/*--------------------------------*- C++ -*----------------------------------*\
| =========                 |                                                 |
| \\      /  F ield         | OpenFOAM: The Open Source CFD Toolbox           |
|  \\    /   O peration     | Version:  2406                                  |
|   \\  /    A nd           | Website:  www.openfoam.com                      |
|    \\/     M anipulation  |                                                 |
\*---------------------------------------------------------------------------*/
FoamFile
{
    version     2.0;
    format      ascii;
    arch        "LSB;label=32;scalar=64";
    class       volScalarField;
    location    "0.016";
    object      alphat;
}
// * * * * * * * * * * * * * * * * * * * * * * * * * * * * * * * * * * * * * //

dimensions      [1 -1 -1 0 0 0 0];

internalField   nonuniform List<scalar> 
8260
(
0.040562794
0.046001346
0.052394656
0.059615502
0.067499654
0.075872067
0.084509726
0.093111061
0.10126743
0.10839413
0.11366756
0.11595013
0.11370279
0.1050084
0.08782975
0.061298666
0.032486134
0.015290263
0.009922752
0.0081688361
0.0071276336
0.0064521581
0.0060267776
0.0057102108
0.0054778403
0.0052992945
0.0051679588
0.0050744173
0.0050092262
0.0049684692
0.004946648
0.048016912
0.053618436
0.059765998
0.066529307
0.073866739
0.081646117
0.089656368
0.097595727
0.10504734
0.11141823
0.11585467
0.11719568
0.1138817
0.10400801
0.085595709
0.058347581
0.029703892
0.014375042
0.0096423068
0.0080630097
0.0070715158
0.0064180447
0.0060067522
0.0056979011
0.0054693592
0.005294084
0.0051647197
0.0050724598
0.0050079378
0.0049676508
0.004946005
0.05655706
0.061947448
0.067786217
0.074112119
0.080901963
0.088049843
0.095362949
0.10254809
0.10918369
0.11466229
0.11811665
0.11835903
0.11381116
0.10258958
0.082813439
0.054775593
0.026957585
0.013445938
0.0094573043
0.0080089922
0.0070421107
0.0064001055
0.0059963677
0.0056914937
0.0054647589
0.0052912495
0.00516292
0.0050712687
0.0050069501
0.0049669135
0.004945416
0.066295494
0.071248379
0.076636431
0.082438128
0.088614774
0.095060947
0.10158982
0.10791207
0.11360224
0.11804144
0.12034741
0.11930983
0.11333576
0.10057506
0.079300119
0.050501599
0.024119172
0.012634334
0.0092777841
0.0079244332
0.0069917258
0.0063681853
0.0059775592
0.0056796942
0.0054561397
0.0052858948
0.0051594878
0.0050691191
0.0050054667
0.0049659206
0.0049448301
0.077228973
0.081575643
0.086386212
0.091545934
0.097002344
0.10264162
0.10827252
0.11360173
0.11819616
0.12142534
0.1223913
0.11986461
0.11224477
0.097732492
0.074829737
0.045441473
0.021255002
0.011851352
0.0090882759
0.0078449165
0.0069465023
0.0063403696
0.0059613528
0.0056696311
0.0054488312
0.0052813626
0.0051566039
0.0050672656
0.0050040535
0.0049649028
0.004944152
0.089148195
0.092817324
0.096934029
0.10133172
0.10594566
0.11065148
0.11524828
0.11943278
0.12275955
0.12458396
0.12399271
0.11974057
0.11023163
0.09374389
0.069121482
0.039562425
0.018696154
0.011128518
0.0088958696
0.0077468831
0.0068877231
0.0063030204
0.0059390248
0.0056555788
0.005438567
0.0052749249
0.005152479
0.0050646575
0.0050022249
0.004963645
0.0049433066
0.10168016
0.10462943
0.10796225
0.11149292
0.11514512
0.11878385
0.12219684
0.12506761
0.12693523
0.12713872
0.12474979
0.11851223
0.10685643
0.088177428
0.061843654
0.032968723
0.016284977
0.010481049
0.0086946376
0.0076444114
0.0068284515
0.0062661141
0.0059168259
0.0056417286
0.0054285142
0.0052686117
0.0051484411
0.005062084
0.0050003369
0.0049622885
0.0049423121
0.11421224
0.11641033
0.11888914
0.12146276
0.12404299
0.12648324
0.12855846
0.12993717
0.13014128
0.12849263
0.12404941
0.11555251
0.10149882
0.080461663
0.052664379
0.026041805
0.014086052
0.010003595
0.0084849173
0.007524843
0.0067575085
0.0062212461
0.0058887577
0.0056240972
0.0054157712
0.0052605342
0.005143237
0.0050587766
0.0049980375
0.004960672
0.0049411692
0.12577489
0.12719413
0.12876008
0.13029974
0.13170997
0.1328299
0.13341942
0.13313016
0.131466
0.1277326
0.12097874
0.10995535
0.093303726
0.06988424
0.041455828
0.020373025
0.012246681
0.0095397986
0.0082577995
0.0073951054
0.0066830347
0.0061755712
0.0058591013
0.005605625
0.0054024727
0.0052521492
0.0051377915
0.0050553132
0.0049955828
0.0049588928
0.0049398683
0.13484671
0.13547843
0.13608378
0.13652719
0.13668738
0.13638477
0.1353606
0.13324707
0.12953015
0.12350387
0.11421746
0.10044977
0.081136982
0.05571107
0.028928202
0.01590841
0.010827241
0.0091589223
0.0080207911
0.0072465008
0.0065964045
0.0061227794
0.0058232637
0.0055830362
0.0053862694
0.005241963
0.0051310703
0.0050510315
0.0049926683
0.0049568037
0.0049383879
0.13913797
0.13899542
0.13862828
0.13794284
0.13680043
0.13500456
0.13227517
0.12822353
0.12232196
0.11386679
0.10193271
0.085340101
0.063683271
0.037678483
0.019927533
0.012719635
0.0099904788
0.008758064
0.007762796
0.0070853682
0.0065044663
0.0060678962
0.0057855303
0.0055587556
0.0053687463
0.0052311911
0.0051237549
0.0050463919
0.0049894833
0.0049544655
0.0049367008
0.13531661
0.13437991
0.13306584
0.13127583
0.12885011
0.12556718
0.12112241
0.11511104
0.10701111
0.096164797
0.081752468
0.062550452
0.040027531
0.023071933
0.014410338
0.010778172
0.0094507174
0.0083619251
0.0075025515
0.0069036502
0.0064028265
0.0060046298
0.0057422306
0.0055296504
0.0053479319
0.0052184625
0.0051148843
0.0050407641
0.004985714
0.0049517189
0.0049342442
0.11869954
0.11711202
0.11496192
0.11215013
0.1085127
0.10381301
0.097724477
0.089859968
0.079780972
0.067041396
0.051560796
0.036479803
0.02346837
0.015108089
0.011273221
0.0099635676
0.0087835227
0.0079611341
0.0072096625
0.0067318468
0.006295924
0.0059337999
0.0056974248
0.0054979805
0.0053256692
0.0052046477
0.0051050892
0.0050345558
0.0049815059
0.0049486008
0.0049314029
0.083693523
0.081459043
0.078730609
0.075546205
0.071752874
0.067158849
0.061559507
0.05488358
0.047086995
0.038250272
0.028859113
0.020386745
0.014388097
0.011182723
0.0098886733
0.0090629001
0.0083091488
0.0075515604
0.0069465855
0.0065389492
0.0061823169
0.005862615
0.0056405889
0.005461305
0.0053007451
0.0051881736
0.0050935642
0.0050271739
0.0049765627
0.0049449469
0.0049282465
0.047222851
0.045806371
0.044057773
0.041974679
0.039410489
0.036297578
0.032851794
0.02901366
0.024802508
0.020329386
0.015951966
0.012470388
0.01045014
0.0094351191
0.0091164166
0.0084292215
0.0076709386
0.0071791169
0.0066838408
0.006369881
0.0060583534
0.0057861944
0.0055823639
0.0054225658
0.0052741766
0.0051700452
0.0050809453
0.0050190668
0.0049711211
0.0049408183
0.0049248909
0.023374341
0.022868549
0.022119504
0.021167398
0.019981343
0.018564749
0.016991017
0.015296228
0.013535387
0.011808681
0.010288582
0.0092937963
0.0087788005
0.008787866
0.0080283795
0.00762502
0.0073291313
0.0068116754
0.0064591654
0.0061890861
0.0059413587
0.005707835
0.0055122348
0.0053777911
0.0052454059
0.0051493583
0.005066776
0.0050094932
0.0049649457
0.0049361249
0.0049215205
0.012366349
0.012244442
0.011990987
0.011636954
0.011199141
0.010701253
0.010174178
0.0096171646
0.0090223246
0.0085265546
0.0083000482
0.0081933332
0.0081550633
0.0075940989
0.0074614097
0.0072640426
0.0068445342
0.0065539858
0.0062635489
0.0060407329
0.0058206224
0.0056256213
0.0054450603
0.0053349511
0.0052125899
0.0051281343
0.0050515917
0.0049992806
0.0049583866
0.0049309725
0.0049169536
0.0083220292
0.0082916026
0.0082109259
0.0081000706
0.0079667126
0.0078169837
0.0076937676
0.0075849993
0.0075244763
0.0075143889
0.007558559
0.0074480847
0.0070477862
0.0070041791
0.006754343
0.0066313287
0.0065878184
0.0062874056
0.0060464558
0.0058708974
0.0057224287
0.0055392994
0.0053738445
0.0052841044
0.005180415
0.0051037086
0.0050357144
0.0049878455
0.0049510012
0.0049253709
0.0049127249
0.0069946975
0.0069459114
0.0069103389
0.0068883356
0.0068819665
0.0068953562
0.0069259081
0.0068952825
0.0068649859
0.0068374668
0.0067334465
0.0066525912
0.0066797552
0.0064707737
0.0063620197
0.006327567
0.0061232017
0.0060417805
0.0059042445
0.0057553427
0.0055846046
0.0054606957
0.0053113845
0.0052391485
0.0051464807
0.0050768215
0.0050200018
0.0049764398
0.0049432843
0.0049193573
0.0049073305
0.0063995101
0.0064001486
0.0064024567
0.0064097006
0.0064290286
0.0064515832
0.0064226454
0.006402921
0.0063575995
0.0062765375
0.0062484284
0.0061977596
0.0060764607
0.0061218648
0.0061008888
0.0058845535
0.0057604873
0.0056810146
0.0056636765
0.005539024
0.0054619577
0.0053792534
0.0052559915
0.005183886
0.0051100971
0.0050500838
0.0050030201
0.0049641145
0.0049349179
0.0049129421
0.004902325
0.0059567888
0.0059518281
0.0059418492
0.0059184733
0.005882579
0.0058399978
0.0058328726
0.0058207301
0.0058069165
0.0057905385
0.0057773413
0.0057606106
0.0057819032
0.0057216984
0.0056320052
0.0056708523
0.0055486477
0.0054936836
0.0054848614
0.0054251822
0.0053362471
0.0052783918
0.0052041635
0.0051322411
0.0050773781
0.0050188398
0.0049871758
0.0049527928
0.0049259079
0.0049062659
0.0048967378
0.0055446504
0.0055453458
0.0055426037
0.0055360231
0.0055283998
0.0055239021
0.0055318227
0.0055296234
0.0055208569
0.0054977826
0.0054679843
0.0054449878
0.0053991787
0.0053720318
0.0053769238
0.0053795548
0.0053468692
0.0053680289
0.0053719099
0.0053000467
0.0052102639
0.0051858377
0.0051452972
0.0050709799
0.0050379098
0.0049951714
0.0049683973
0.0049403206
0.0049168105
0.0048992092
0.0048903469
0.0053276424
0.0053282196
0.0053260282
0.0053208907
0.0053129871
0.005301275
0.0052839804
0.0052741496
0.0052683785
0.0052632824
0.005255874
0.0052537493
0.0052451142
0.005248295
0.0052342184
0.0052095304
0.0051731966
0.0051827109
0.005165351
0.0051646266
0.0051393787
0.005097458
0.0050796434
0.0050315521
0.0050048312
0.0049723314
0.0049513641
0.0049290262
0.0049073128
0.0048920911
0.0048844939
0.0051316885
0.0051334801
0.0051332903
0.0051318604
0.0051298797
0.005127901
0.0051265241
0.0051296703
0.005131948
0.0051312093
0.0051291265
0.0051214566
0.005120381
0.0051116382
0.0051113829
0.0051077155
0.0051015651
0.0050995686
0.0050651315
0.0050489317
0.0050499555
0.0050521096
0.0050310573
0.0050017328
0.0049726192
0.004958763
0.0049336556
0.0049159002
0.0048982872
0.004884915
0.0048779474
0.0050360879
0.0050385337
0.0050391994
0.0050385356
0.0050370027
0.005034667
0.0050314397
0.0050268401
0.0050247615
0.0050254179
0.0050267279
0.0050290501
0.0050324778
0.0050389331
0.0050509909
0.0050466705
0.0050440767
0.0050169987
0.005014233
0.0049962358
0.0049943613
0.0049951214
0.0049874307
0.0049839257
0.0049568561
0.0049390533
0.0049220971
0.0049053875
0.0048887669
0.0048783296
0.0048724837
0.0049507854
0.0049520069
0.0049523634
0.0049524181
0.0049528162
0.0049539232
0.0049559852
0.0049596192
0.0049651595
0.0049717436
0.0049797831
0.004987553
0.0049935623
0.0049960881
0.0049869013
0.004988458
0.0049855778
0.0049708764
0.0049615981
0.0049719141
0.0049672134
0.0049630481
0.0049544863
0.0049513409
0.0049409566
0.0049242704
0.0049075248
0.0048923638
0.0048809868
0.004872253
0.0048661308
0.0049067609
0.0049078157
0.0049085248
0.0049093351
0.0049107073
0.0049128059
0.0049154753
0.004918733
0.0049224645
0.0049265482
0.0049303081
0.0049327436
0.0049333444
0.0049325085
0.0049360219
0.0049341068
0.0049334708
0.0049404001
0.0049397462
0.0049500311
0.0049530757
0.0049431906
0.0049315185
0.004911742
0.0049106284
0.0049053238
0.0048930219
0.0048840117
0.0048746869
0.0048663783
0.0048622296
0.0048790718
0.0048797575
0.0048803537
0.004881037
0.0048819906
0.0048833833
0.0048854487
0.0048878876
0.0048902661
0.0048922767
0.0048939905
0.0048954959
0.0048965754
0.0048966576
0.0048957316
0.0048960236
0.0048968092
0.0048987998
0.0049083696
0.0049061513
0.0049047944
0.00490068
0.0048979119
0.004890041
0.004888
0.0048848977
0.0048805142
0.0048744169
0.0048683985
0.0048629944
0.0048603442
0.0048694645
0.0048699842
0.0048704616
0.0048710021
0.0048716951
0.0048726896
0.0048738519
0.0048749711
0.0048759813
0.0048767631
0.0048774656
0.0048785563
0.0048797298
0.0048800763
0.0048807751
0.0048809298
0.0048811291
0.0048819639
0.0048825508
0.0048825621
0.0048826941
0.0048813926
0.0048799572
0.004877398
0.0048764303
0.0048750951
0.0048732005
0.004869153
0.0048651703
0.0048606754
0.0048563936
0.0048648937
0.0048652454
0.0048656157
0.0048660336
0.0048664938
0.0048668354
0.0048671217
0.0048675488
0.0048682098
0.0048690634
0.0048703442
0.0048720069
0.004873325
0.0048736313
0.0048728001
0.00487207
0.004871913
0.0048723093
0.0048731754
0.0048733955
0.0048744353
0.0048739051
0.004873058
0.0048711811
0.0048711862
0.0048699691
0.0048688448
0.0048666001
0.0048612636
0.0048568568
0.0048565903
0.0048585007
0.0048584055
0.0048583912
0.0048585451
0.0048589112
0.0048595219
0.0048603747
0.0048614228
0.0048627072
0.0048640223
0.0048649848
0.0048657358
0.0048660489
0.0048658521
0.0048659903
0.0048667409
0.0048675395
0.0048683146
0.004868783
0.004869229
0.0048694993
0.0048693812
0.0048684245
0.0048675986
0.0048675138
0.0048667675
0.0048652815
0.004862916
0.004861205
0.0048604365
0.0048594436
0.00089928735
0.0019430557
0.0038891682
0.0067785643
0.010596599
0.015442974
0.021418901
0.028577889
0.037000362
0.046160485
0.056205129
0.066675642
0.07677767
0.085265837
0.090265568
0.089102268
0.078421952
0.057165505
0.032327342
0.015691933
0.009181143
0.0072631359
0.006472411
0.0059738578
0.0056406037
0.0054030365
0.0052335807
0.005117345
0.0050425858
0.0049923302
0.0049654494
0.0022093232
0.0044310541
0.0073180476
0.010787207
0.015030166
0.020168163
0.026273758
0.033687788
0.041881005
0.050975682
0.060816366
0.070881811
0.080324584
0.087835362
0.091479417
0.088549572
0.075810138
0.053055145
0.028471192
0.013908638
0.0086862595
0.0071110408
0.0064088321
0.0059397045
0.0056211928
0.005392058
0.0052271627
0.005113778
0.0050405343
0.0049911505
0.0049647727
0.0040559627
0.0064294392
0.0093665714
0.013053533
0.017626791
0.023181179
0.029828242
0.037443323
0.045865889
0.05509368
0.064849704
0.074584428
0.083412654
0.089974581
0.092289785
0.087641051
0.072977421
0.049106844
0.025500271
0.012742559
0.008315273
0.0070433398
0.0063791655
0.0059235489
0.0056118974
0.0053867976
0.0052239816
0.0051119268
0.0050391656
0.0049901709
0.0049640771
0.0058521052
0.0084715375
0.011782405
0.015869703
0.02077909
0.026644084
0.03355045
0.041220827
0.04976087
0.059010134
0.068616318
0.077983629
0.086175151
0.091777006
0.092767877
0.086436296
0.069969622
0.04533858
0.0229056
0.011632393
0.0081154612
0.0069592153
0.0063338153
0.0058978348
0.0055968247
0.0053781476
0.0052187593
0.0051089025
0.0050373127
0.004989049
0.0049633732
0.007630632
0.010611957
0.014267682
0.018655322
0.023872876
0.030050614
0.037047528
0.044899486
0.053545831
0.062769926
0.072181456
0.081143435
0.088668818
0.093292894
0.092960044
0.084978433
0.066833028
0.041730249
0.020606171
0.01091883
0.0079067718
0.0068990744
0.0063041315
0.0058812147
0.0055871481
0.0053724743
0.0052153176
0.0051068686
0.0050358499
0.0049880377
0.004962657
0.0094992423
0.012783007
0.016719185
0.021387465
0.026952489
0.033342336
0.040523935
0.048531045
0.05723671
0.066390955
0.075568745
0.084091379
0.090923767
0.094554764
0.092901202
0.083299326
0.06361415
0.038284054
0.018596336
0.010192937
0.0077708887
0.0068377001
0.0062682832
0.0058604121
0.0055748188
0.0053651777
0.0052108784
0.0051042375
0.0050341284
0.0049869493
0.0049619317
0.011311963
0.014888065
0.01912836
0.024136811
0.029967959
0.036558877
0.043949206
0.052086385
0.060819317
0.069871804
0.078785467
0.086841502
0.092960069
0.09558841
0.092621854
0.081438586
0.060356558
0.035048709
0.01688248
0.0097253385
0.0076435349
0.006786765
0.0062408187
0.0058446974
0.0055655833
0.0053595525
0.0052074606
0.0051021702
0.0050326301
0.0049859237
0.0049611977
0.013066129
0.016963181
0.02152119
0.026877712
0.032924567
0.039740632
0.047310305
0.055549666
0.064283953
0.073209378
0.08183496
0.089403868
0.094794862
0.096418316
0.092152714
0.079441
0.0571041
0.032070202
0.015496646
0.0093005514
0.0075496
0.0067382488
0.0062116389
0.0058274782
0.0055553202
0.0053532325
0.0052036077
0.0050998213
0.0050310022
0.0049848586
0.0049604578
0.014815306
0.019015091
0.023897821
0.0295227
0.035817784
0.042853668
0.050585699
0.058907778
0.067622778
0.076400818
0.08472013
0.09178811
0.096445426
0.097070867
0.091533631
0.077345652
0.053933895
0.029382056
0.014323603
0.0090019617
0.0074643596
0.0066957438
0.0061873775
0.0058133003
0.0055469407
0.0053479068
0.0052003723
0.005097807
0.0050295069
0.0049838306
0.0049597116
0.01650909
0.021016376
0.026225697
0.032087421
0.038641028
0.045886959
0.053764962
0.062151807
0.070829785
0.079444426
0.087444877
0.094004909
0.097930255
0.097572227
0.090802962
0.075197374
0.050854521
0.026998902
0.013418299
0.0087821463
0.0073961286
0.0066564706
0.0061633548
0.0057989066
0.0055383485
0.0053423682
0.0051969965
0.0050956801
0.0050279546
0.0049827844
0.0049589586
0.018186038
0.022992252
0.028483847
0.03459396
0.041394706
0.048832057
0.056838613
0.065273826
0.073900184
0.08233985
0.090014552
0.096066564
0.099269673
0.097950383
0.08999249
0.07303938
0.047916331
0.024929393
0.01265123
0.0086085168
0.0073344571
0.0066216146
0.0061425809
0.0057865069
0.0055309996
0.0053374807
0.0051940237
0.0050937658
0.005026487
0.0049817618
0.0049581996
0.019818203
0.024924866
0.030666957
0.037036422
0.044066133
0.051677063
0.059797352
0.068266802
0.076830382
0.085088128
0.092436108
0.097987144
0.10048471
0.098237717
0.089137904
0.070917622
0.045162902
0.023171082
0.012073561
0.0084761619
0.0072830398
0.0065900958
0.0061228752
0.0057744987
0.0055238304
0.0053326337
0.0051910611
0.0050918292
0.0050250033
0.0049807332
0.0049574371
0.021425711
0.026806352
0.032793238
0.039405824
0.046633648
0.054411459
0.062632203
0.071124736
0.079618137
0.087691792
0.094718009
0.099781865
0.10159617
0.098458146
0.088271117
0.068872276
0.042626576
0.021705819
0.011620449
0.0083735234
0.0072375919
0.0065622748
0.0061056027
0.0057639451
0.0055175525
0.0053282685
0.005188386
0.0050900411
0.0050235796
0.0049797213
0.0049566722
0.023004004
0.02863173
0.034858652
0.041693549
0.049091585
0.057029383
0.065334941
0.073841636
0.082262304
0.090155808
0.096870334
0.10146793
0.10262997
0.098639811
0.087424738
0.066928879
0.040330781
0.020513554
0.011299778
0.0082949746
0.0071994542
0.0065376422
0.0060897551
0.0057540701
0.0055116237
0.005324081
0.0051857954
0.0050882789
0.0050221632
0.0049787101
0.0049558999
0.024558924
0.030406046
0.036855874
0.043894082
0.051469687
0.059499235
0.067901405
0.076415672
0.08476227
0.092485793
0.098902619
0.10305876
0.1036105
0.098821294
0.086646341
0.065110609
0.03828981
0.019574169
0.011078518
0.0082358882
0.0071669953
0.0065162649
0.0060759542
0.0057453864
0.005506374
0.0053202962
0.0051834284
0.0050866315
0.0050207958
0.0049777133
0.0049551131
0.026068441
0.032123381
0.038774999
0.045994136
0.053723294
0.061870584
0.070298906
0.078835707
0.087113194
0.094673585
0.10082285
0.1045711
0.10455774
0.099034453
0.08597715
0.063458389
0.036515046
0.018875108
0.010917175
0.0081896403
0.0071406165
0.0064978542
0.0060637388
0.0057375309
0.0055015222
0.0053167652
0.00518118
0.0050850359
0.0050194509
0.0049767235
0.0049543194
0.027484462
0.033741911
0.040581781
0.047966252
0.05583077
0.064077921
0.072554561
0.081059694
0.089282766
0.096722102
0.10263063
0.1060188
0.1054953
0.099308826
0.085453761
0.062033935
0.035056379
0.018289135
0.010752006
0.0081514246
0.0071196482
0.006482379
0.0060533787
0.005730745
0.0054972143
0.0053136009
0.0051791183
0.0050835376
0.0050181498
0.0049757464
0.0049535351
0.028780134
0.035203981
0.042206496
0.049740104
0.057735738
0.066084738
0.07462892
0.083147653
0.091306575
0.098600279
0.10432125
0.10741341
0.10644418
0.099671901
0.085108172
0.060888965
0.033890497
0.017802811
0.010614396
0.0081237566
0.0071041978
0.0064696638
0.0060446488
0.0057248651
0.0054933071
0.0053107304
0.0051771904
0.0050821051
0.0050168794
0.0049747785
0.0049527479
0.030139929
0.036640764
0.043732003
0.051363102
0.059451658
0.067881167
0.076485163
0.085031448
0.093169873
0.10038111
0.10592964
0.10873882
0.1074202
0.10014799
0.084968117
0.060062561
0.032996116
0.017397109
0.01049023
0.0081049764
0.007093978
0.0064596775
0.0060376476
0.0057200099
0.0054898673
0.0053082083
0.0051754308
0.0050807626
0.0050156517
0.004973823
0.0049519278
0.031496714
0.038046483
0.045182264
0.052861904
0.061002974
0.069485013
0.078133191
0.086707316
0.094842892
0.10200574
0.10744108
0.11006608
0.10844163
0.10072695
0.085055346
0.059584021
0.032359543
0.017056715
0.010382003
0.0080958079
0.0070889969
0.006452386
0.0060322722
0.0057161236
0.0054868416
0.0053060009
0.0051738167
0.0050794956
0.0050144609
0.0049728781
0.0049510959
0.032823849
0.039386152
0.046529366
0.054220056
0.062378769
0.070889012
0.079568417
0.088170967
0.096320475
0.10347119
0.10884788
0.11135416
0.109519
0.10149734
0.085377975
0.059474708
0.031978751
0.016760528
0.010283769
0.0080946241
0.0070891808
0.0064479007
0.0060285847
0.0057132842
0.0054842829
0.005304134
0.0051723675
0.0050783162
0.0050133125
0.0049719451
0.0049502987
0.03411051
0.040644511
0.047754958
0.05542025
0.063562372
0.072084671
0.080814275
0.089473549
0.097674885
0.10483447
0.11017629
0.11261107
0.11065241
0.10242321
0.085983828
0.059751238
0.031869561
0.016480426
0.010196423
0.0081054001
0.007094825
0.0064463372
0.006026553
0.0057114715
0.0054821817
0.0053025821
0.0051710685
0.0050772135
0.0050122011
0.0049710209
0.004949506
0.035367756
0.041803795
0.048824458
0.056425909
0.064564002
0.073114187
0.081884252
0.090580082
0.098803559
0.10600162
0.11137827
0.11382556
0.11184117
0.10351245
0.08685671
0.060433622
0.032021918
0.016178504
0.010108912
0.008123603
0.007104858
0.0064471259
0.0060260813
0.0057106265
0.0054805202
0.0053013142
0.0051699066
0.0050761798
0.0050111213
0.0049701006
0.0049486644
0.036590454
0.042825099
0.04965518
0.057103655
0.065150346
0.073662765
0.08243826
0.091185578
0.099496578
0.10679499
0.11227673
0.11481668
0.11288907
0.10455861
0.0877836
0.061267385
0.032454319
0.015775715
0.010026226
0.0081470972
0.007117081
0.0064496889
0.006026534
0.0057105412
0.005479211
0.0053002659
0.0051688555
0.0050752041
0.0050100709
0.0049691871
0.0049477273
0.00092148039
0.0018821187
0.0037173976
0.0064565235
0.010093133
0.01465518
0.020300776
0.02714057
0.035291078
0.044262185
0.054188666
0.064649185
0.07488372
0.083710865
0.08931056
0.089047359
0.079509925
0.059099004
0.034039185
0.01620918
0.0093214176
0.0073077456
0.0064929394
0.0059847083
0.005647032
0.0054062866
0.0052357191
0.0051186959
0.0050436057
0.0049930864
0.0049657547
0.0009776271
0.0019357104
0.0037416505
0.0064075472
0.0099468225
0.01443634
0.019997237
0.026732791
0.034743893
0.043624685
0.053398049
0.063732133
0.073936158
0.082836944
0.088647721
0.088770053
0.079833739
0.059983554
0.034942675
0.01658302
0.0094110538
0.0073355388
0.0065062543
0.0059915269
0.005651092
0.0054086502
0.0052372815
0.0051196987
0.0050443575
0.0049936224
0.0049660596
0.0010460598
0.0019948619
0.0037787654
0.006398313
0.0098718931
0.01427435
0.019721868
0.026320348
0.034156249
0.04290608
0.052553236
0.062790847
0.072957718
0.081924705
0.087943175
0.088455526
0.080133886
0.060884039
0.035905927
0.017005439
0.0095098802
0.0073646001
0.0065199989
0.0059988757
0.0056555671
0.0054104652
0.0052386051
0.0051205827
0.0050450881
0.0049942187
0.0049663875
0.00112567
0.002057809
0.0038153931
0.0063886797
0.0097962537
0.014111198
0.019444833
0.025899473
0.033566759
0.042178258
0.051693159
0.061825269
0.071947992
0.080972838
0.087194229
0.088099863
0.080404214
0.061799656
0.036926814
0.017475707
0.0096219824
0.0073979614
0.0065353363
0.0060063097
0.0056599579
0.0054134546
0.005240544
0.0051218249
0.0050459723
0.0049948204
0.0049667665
0.0012212915
0.0021322015
0.0038590102
0.0063845498
0.0097245068
0.01395052
0.01916932
0.025481493
0.03297697
0.041444158
0.050819526
0.060838338
0.070907429
0.079980781
0.086398981
0.087699802
0.080638833
0.062726969
0.03799852
0.017997114
0.0097514161
0.0074312807
0.0065507213
0.0060150105
0.0056653713
0.0054154283
0.005242024
0.00512282
0.0050467985
0.0049954757
0.0049670703
0.0013311637
0.0022120524
0.0039030314
0.0063803412
0.0096541375
0.013792433
0.018897522
0.025069254
0.032391299
0.040707931
0.049936136
0.059833057
0.069837942
0.078949208
0.085556358
0.087252361
0.08083444
0.06366001
0.039110959
0.018569243
0.0098945155
0.0074715833
0.0065686256
0.0060234503
0.0056703474
0.0054180221
0.0052438509
0.0051240276
0.0050477184
0.0049961739
0.0049674467
0.0014678544
0.0023189951
0.0039686051
0.0063959335
0.0096025729
0.013651643
0.018641283
0.024670395
0.031820671
0.039975747
0.049047482
0.058812881
0.068741802
0.077880129
0.084667259
0.086756777
0.080994098
0.064593935
0.040293404
0.019203557
0.010056181
0.0075133396
0.0065866438
0.0060326484
0.0056759285
0.0054207176
0.0052457604
0.0051253022
0.00504869
0.0049969045
0.0049678901
0.0016303034
0.0024443952
0.0040489109
0.0064234426
0.0095619214
0.013521066
0.018394605
0.024280114
0.031255893
0.039245199
0.048153866
0.057779306
0.067619268
0.076776376
0.083734186
0.086213894
0.081111063
0.065519811
0.041560576
0.019904196
0.01023976
0.0075588873
0.0066059244
0.0060422384
0.0056816709
0.0054234882
0.0052477488
0.005126638
0.0050497007
0.0049976757
0.0049684929
0.0018203831
0.002594562
0.0041536784
0.0064742727
0.0095440785
0.013412643
0.018168984
0.023908253
0.030698508
0.03852405
0.047263451
0.056739637
0.066484784
0.075641091
0.082756448
0.085618421
0.081178798
0.066435872
0.042886503
0.020677412
0.010445152
0.0076083278
0.0066258656
0.0060522688
0.0056877714
0.0054263576
0.0052498027
0.0051280373
0.0050507627
0.0049984856
0.0049691518
0.0020432297
0.0027845758
0.0042949394
0.0065584756
0.0095576752
0.013334235
0.017971823
0.023562809
0.030174278
0.037820574
0.046382438
0.055699539
0.065340983
0.07447798
0.081735659
0.084968717
0.081191936
0.067336348
0.044268776
0.021530062
0.010678744
0.0076626948
0.0066473688
0.0060627406
0.0056938562
0.0054292989
0.0052519563
0.00512952
0.0050518755
0.0049993375
0.0049698449
0.0023100301
0.0030167015
0.0044770925
0.0066843561
0.0096118087
0.013294656
0.017810949
0.023251885
0.029685538
0.037151768
0.045518974
0.054664626
0.064181971
0.073290427
0.080674016
0.084264126
0.081145851
0.068201379
0.045699415
0.022469508
0.010942058
0.0077215621
0.0066693212
0.0060734576
0.0057004307
0.005432364
0.0052541454
0.0051310542
0.005053037
0.0050002288
0.0049705209
0.0026205672
0.0033045588
0.0047234969
0.0068673622
0.0097188988
0.01330465
0.017697242
0.022981964
0.029236897
0.0364995
0.044676684
0.053641041
0.063020559
0.072083198
0.079574397
0.083504798
0.081036479
0.069020022
0.047143136
0.023496978
0.011240418
0.0077868503
0.0066930446
0.006084868
0.0057066862
0.0054354337
0.0052564453
0.0051326948
0.0050542558
0.0050011668
0.0049712104
0.0029731885
0.003655304
0.0050363085
0.0071183169
0.0098896927
0.013373944
0.017639935
0.022762206
0.028833132
0.03587781
0.043861397
0.05263508
0.061862788
0.070861345
0.078440293
0.082691578
0.080860521
0.069783825
0.048591312
0.024618536
0.011578411
0.0078575645
0.0067170837
0.0060958195
0.0057135297
0.0054387167
0.0052587355
0.005134355
0.005055515
0.0050021397
0.0049720241
0.0033825377
0.0040767941
0.0054232011
0.0074478675
0.010135613
0.01351297
0.017646625
0.022601418
0.028481322
0.035316867
0.043083561
0.051653804
0.060714801
0.069628611
0.077275571
0.081825971
0.080615437
0.070484376
0.050052644
0.025837797
0.011960153
0.0079357016
0.0067427808
0.0061082618
0.0057197721
0.0054418244
0.0052611447
0.0051361673
0.0050568438
0.0050031675
0.0049728719
0.0038826745
0.0045981021
0.0059120396
0.0078725302
0.010467584
0.013730225
0.017723931
0.022506391
0.028187604
0.034809971
0.042364714
0.050706278
0.059582639
0.068387049
0.0760844
0.080910187
0.080299306
0.071112648
0.051511934
0.027154792
0.012393813
0.0080223569
0.0067688743
0.0061187429
0.005726415
0.0054453545
0.0052635069
0.0051379357
0.0050581981
0.0050042202
0.0049737511
0.0044928943
0.0052280283
0.006513246
0.0084013146
0.010889271
0.014027175
0.017873132
0.022479309
0.027954548
0.034356208
0.041666575
0.049791844
0.058473182
0.067166506
0.074874267
0.079947492
0.079911209
0.071658031
0.052972069
0.028563112
0.012880408
0.0081150361
0.0067962185
0.0061322838
0.0057326226
0.0054483761
0.0052659597
0.0051399358
0.0050596366
0.0050053398
0.0049746693
0.0052396171
0.0059705916
0.0072074244
0.0090027346
0.011389555
0.014397261
0.018089213
0.02251641
0.027780421
0.033955759
0.041019809
0.048914775
0.057389717
0.065948849
0.073649181
0.078941741
0.079452747
0.072114396
0.05442026
0.030092623
0.013434559
0.0082221583
0.0068239625
0.0061418637
0.0057382655
0.0054520982
0.0052684067
0.0051417957
0.0050610857
0.0050064689
0.0049756267
0.0061421801
0.00683327
0.0079929199
0.0096847389
0.011950132
0.014823686
0.018359235
0.022607261
0.02765877
0.033606407
0.040430357
0.048078592
0.056334242
0.064737265
0.07241263
0.077896706
0.078926503
0.072487721
0.055857552
0.031712629
0.014051516
0.0083359583
0.0068520896
0.0061560306
0.0057444878
0.0054550141
0.0052707884
0.0051439821
0.0050626161
0.0050076708
0.0049766183
0.0071791233
0.0078052857
0.0088656382
0.010439523
0.01257734
0.015294236
0.018666172
0.022735351
0.02757714
0.03329806
0.039879838
0.047278488
0.055306546
0.063539694
0.071168087
0.076815158
0.078330611
0.07277485
0.05724093
0.033374918
0.014753025
0.0084630986
0.0068826184
0.0061657703
0.0057485099
0.0054585898
0.0052734107
0.0051459425
0.0050641673
0.0050088866
0.0049776391
0.0083507764
0.0088853146
0.0098146518
0.011236095
0.013209496
0.015778298
0.018986554
0.022879332
0.027518056
0.033016573
0.039360194
0.046519615
0.054306178
0.06235672
0.069917934
0.075699035
0.077663444
0.072958707
0.058548263
0.035127125
0.015525385
0.0086305306
0.0069074104
0.0061783937
0.0057540059
0.0054617802
0.0052755806
0.0051482505
0.0050657597
0.0050101469
0.0049786823
0.0095952416
0.010037343
0.010817039
0.01205789
0.013846799
0.016249324
0.019291789
0.023012937
0.027459486
0.032743849
0.038855418
0.045765376
0.053324213
0.061183144
0.068641233
0.074546287
0.076924895
0.073035826
0.059762162
0.036940727
0.016403738
0.0087925563
0.0069466924
0.0061918818
0.0057576046
0.0054645685