/*--------------------------------*- C++ -*----------------------------------*\
| =========                 |                                                 |
| \\      /  F ield         | OpenFOAM: The Open Source CFD Toolbox           |
|  \\    /   O peration     | Version:  2406                                  |
|   \\  /    A nd           | Website:  www.openfoam.com                      |
|    \\/     M anipulation  |                                                 |
\*---------------------------------------------------------------------------*/
FoamFile
{
    version     2.0;
    format      ascii;
    arch        "LSB;label=32;scalar=64";
    class       volScalarField;
    location    "0.016";
    object      omega;
}
// * * * * * * * * * * * * * * * * * * * * * * * * * * * * * * * * * * * * * //

dimensions      [0 0 -1 0 0 0 0];

internalField   nonuniform List<scalar> 
8260
(
19696.741
16791.761
14058.54
11616.956
9503.8732
7704.1141
6188.828
4926.6434
3886.7375
3039.0014
2355.5541
1810.9372
1381.933
1047.682
787.79866
581.68577
401.35698
268.17026
202.78781
169.21023
146.58929
132.05502
122.83345
115.83669
110.78099
106.86135
104.00496
101.99268
100.59376
99.713036
99.234146
16263.309
14009.689
11938.457
10057.77
8377.6602
6900.337
5620.8185
4528.7939
3610.4574
2849.0228
2226.0602
1723.4309
1323.2914
1008.7083
761.5808
562.37395
384.97812
257.62289
198.49108
167.18827
145.42491
131.31744
122.40264
115.57314
110.60216
106.75286
103.93904
101.95368
100.56893
99.698101
99.22305
13319.967
11659.779
10097.908
8647.4171
7318.4194
6118.787
5053.2128
4122.4661
3323.3612
2648.6712
2087.9419
1629.2879
1259.7892
966.27405
732.91809
541.12929
368.31307
250.43905
196.14172
166.1148
144.80542
130.92994
122.17806
115.43546
110.50509
106.6939
103.90247
101.93131
100.55072
99.685253
99.213567
10791.118
9607.129
8454.6226
7354.4266
6319.6293
5361.5802
4489.6008
3710.2648
3026.7895
2438.5165
1941.2102
1528.2294
1191.0331
919.94467
701.33757
517.27889
350.18684
242.06312
192.68615
164.36075
143.73668
130.24205
121.77169
115.18325
110.32404
106.58332
103.83341
101.889
100.52242
99.66734
99.204659
8645.5101
7823.9816
6990.9991
6173.9564
5384.9073
4635.5283
3936.5777
3297.1469
2723.8953
2220.334
1786.6957
1420.5128
1116.9741
869.49866
666.43898
490.07445
330.07037
233.69907
189.39499
162.72275
142.77861
129.63983
121.4201
114.96754
110.16962
106.48918
103.77511
101.8534
100.49596
99.649324
99.194266
6851.7226
6290.9818
5701.9776
5109.0206
4521.3959
3948.9902
3401.7655
2889.0501
2418.7577
1996.6147
1625.7361
1306.7156
1037.7403
814.77876
627.74333
458.78782
308.2232
225.19884
185.5711
160.68327
141.5409
128.83718
120.9383
114.66791
109.95373
106.35603
103.69209
101.80245
100.46121
99.626678
99.180805
5368.1165
4991.4462
4583.8859
4163.6459
3736.8758
3310.7895
2893.3195
2492.575
2116.1688
1770.4938
1460.1603
1187.7362
953.63526
755.65262
584.56655
422.76229
285.44055
216.83644
181.5836
158.55015
140.28887
128.03884
120.45658
114.37189
109.74115
106.22487
103.61063
101.75264
100.42566
99.602477
99.16477
4154.3704
3905.8598
3630.0855
3339.4768
3037.5617
2728.9591
2419.2412
2114.6143
1821.4425
1545.6721
1292.2739
1064.7976
865.13094
691.9375
535.80389
381.57607
263.05002
208.62231
177.15524
156.05641
138.80151
127.07575
119.85101
113.99706
109.47281
106.05761
103.50599
101.6883
100.38202
99.573354
99.146263
3173.0882
3012.4981
2830.2568
2634.4038
2426.6241
2209.4843
1986.4427
1761.7159
1540.0185
1326.1888
1124.7387
939.3682
772.76267
623.19058
479.69358
336.26091
242.80349
200.556
172.45113
153.34496
137.23037
126.08799
119.2072
113.60339
109.1914
105.88334
103.39633
101.62102
100.33571
99.541465
99.125173
2389.3483
2288.0061
2170.7099
2042.3796
1903.5775
1755.4682
1599.8852
1439.3255
1276.8685
1115.995
960.27831
812.92961
676.74568
548.20455
414.10108
291.08392
225.85782
192.44785
167.3508
150.23115
135.41153
124.95478
118.4338
113.12473
108.84976
105.67237
103.26129
101.53783
100.28041
99.50375
99.101122
1771.1631
1708.7905
1635.7197
1554.3348
1464.6297
1366.9455
1262.0184
1151.0472
1035.7382
918.26809
801.09067
686.42186
576.25064
462.98824
340.37946
254.31591
212.01411
184.14952
161.9757
146.83726
133.45826
123.76552
117.61402
112.60883
108.47844
105.44873
103.114
101.4475
100.22013
99.461594
99.073615
1288.8181
1251.6887
1207.7757
1158.0794
1102.2784
1040.1946
971.84462
897.52753
817.92959
734.14819
647.53225
558.48747
466.51189
364.77263
275.85443
230.47318
199.08923
175.29525
156.35319
142.96725
131.29801
122.40282
116.68048
111.9945
108.03858
105.18575
102.93547
101.33791
100.14838
99.411695
99.041204
914.70871
893.73508
868.52602
839.40454
805.8747
767.45549
723.75834
674.54637
619.84974
559.95163
495.42645
425.01428
348.24502
279.19296
238.73257
212.02635
185.79337
167.11711
150.20717
139.22739
128.97958
120.8564
115.70849
111.32368
107.56568
104.89993
102.73778
101.21657
100.0682
99.354954
98.996054
619.9584
608.07967
593.55414
576.62157
556.66814
532.88434
504.8844
472.43437
435.40872
393.36125
348.64822
303.38315
263.82483
233.02733
213.49948
193.55464
174.32487
157.8072
144.22035
134.93898
126.50677
119.30046
114.48908
110.55196
107.0383
104.5607
102.50537
101.07216
99.973525
99.288035
98.941432
396.29149
389.26542
381.30833
372.5073
361.93099
348.95003
333.71821
316.78813
297.77212
277.17357
256.95925
236.45643
219.5193
206.97267
191.55166
178.17844
161.55052
149.70231
138.31923
130.97209
123.75569
117.60727
113.22817
109.73166
106.47396
104.1866
102.25039
100.91296
99.869428
99.212425
98.879794
270.23641
266.8071
262.66549
258.29382
253.4958
248.00169
241.52367
234.58827
225.55185
216.8413
207.92261
200.05531
194.21559
182.46893
171.90816
162.20141
152.08944
140.9659
132.64942
126.69411
121.11977
115.88534
111.72898
108.78851
105.86778
103.76155
101.96489
100.72438
99.751429
99.126512
98.813934
203.20886
201.91347
200.40513
198.61586
196.80522
194.63347
191.91349
189.31605
186.48141
184.19074
177.9332
171.54418
166.94283
161.05307
155.06154
150.18036
142.20287
134.22345
127.58317
122.98148
118.37314
114.07491
110.26846
107.87538
105.1741
103.32599
101.65804
100.52245
99.62728
99.032869
98.744034
168.42018
167.51351
166.80338
166.0799
165.44204
165.53408
165.47084
163.922
161.62398
157.22508
155.35552
155.32262
151.79441
144.9702
140.31651
135.94631
134.53526
128.27411
122.82761
119.17863
116.13766
112.24188
108.73911
106.80364
104.49889
102.82687
101.33836
100.29594
99.488353
98.932322
98.661661
149.18326
149.21686
149.05533
148.51948
147.50342
145.61675
143.20758
141.8574
141.19907
141.0876
140.58183
137.38627
135.23466
132.63001
130.40438
126.57662
124.2608
123.02534
119.44865
116.37459
113.31423
110.57115
107.35523
105.83673
103.78667
102.27356
101.02196
100.06961
99.345423
98.826111
98.579573
130.87305
130.69883
130.52208
130.29134
130.08757
130.30082
131.22674
131.35344
130.69459
129.06951
126.81844
126.40801
126.2148
125.67381
124.82529
121.21716
117.4147
116.19238
115.89391
112.75525
110.85062
108.89252
106.13539
104.66507
103.02947
101.7228
100.68011
99.82541
99.193034
98.715343
98.488081
121.26991
121.39001
121.37449
121.21464
120.86187
120.21788
118.98674
118.38177
118.01758
117.74658
118.06839
117.48409
115.89049
115.4778
114.43155
115.10037
112.68198
111.57922
111.75923
109.97069
107.93883
106.78845
104.99888
103.53725
102.33627
101.07208
100.36073
99.603512
99.031162
98.603618
98.397346
112.16687
112.17642
112.13947
112.0417
111.9206
111.81926
111.974
112.21185
112.09144
111.71573
110.9506
110.2389
110.38698
109.9467
108.80024
109.16296
108.18888
108.21041
108.15161
106.93101
105.1271
104.7166
103.79052
102.23022
101.5066
100.57144
99.982049
99.362581
98.873089
98.489256
98.305575
107.52716
107.63188
107.64885
107.59659
107.47851
107.29072
106.97086
106.54111
106.37735
106.27245
106.1292
106.17404
105.83325
105.52316
105.5496
105.11153
104.34307
104.56426
104.19101
104.24398
103.6316
102.76695
102.41254
101.335
100.7864
100.09307
99.638296
99.15278
98.712385
98.378974
98.208435
103.37118
103.42097
103.42811
103.40664
103.37447
103.34242
103.32604
103.42118
103.51436
103.51201
103.47
103.27853
103.29224
103.19328
103.14306
102.98491
102.83651
102.87794
102.1938
101.74023
101.8183
101.79361
101.37001
100.72476
100.1219
99.814938
99.288806
98.916286
98.568561
98.272371
98.128179
101.38702
101.45059
101.47291
101.46417
101.43812
101.39466
101.3316
101.24029
101.18436
101.20035
101.23276
101.28823
101.36621
101.49655
101.62001
101.61186
101.57944
101.04013
100.91846
100.62143
100.58074
100.61551
100.47162
100.34692
99.796826
99.43621
99.082639
98.745053
98.417994
98.182407
98.052706
99.629275
99.657103
99.666131
99.669055
99.680132
99.706246
99.749965
99.821561
99.945671
100.08945
100.26224
100.4316
100.56177
100.60002
100.45886
100.45556
100.38648
100.08629
99.920213
100.12624
100.04939
99.966294
99.792693
99.671686
99.513457
99.181286
98.849879
98.539894
98.303899
98.111967
98.011042
98.780304
98.802492
98.816388
98.830256
98.852817
98.888258
98.93949
99.003873
99.076189
99.153609
99.225815
99.286801
99.328787
99.328148
99.381425
99.368702
99.371685
99.510854
99.509302
99.702172
99.794823
99.58984
99.352285
98.991152
98.976844
98.871716
98.623617
98.427104
98.224454
98.072616
97.986609
98.336445
98.350887
98.362889
98.376595
98.396032
98.423119
98.458252
98.50007
98.545602
98.590886
98.632477
98.667383
98.692492
98.714576
98.731598
98.748022
98.773924
98.822566
98.98926
98.94586
98.92348
98.837522
98.78155
98.661725
98.615067
98.564023
98.459095
98.324845
98.177035
98.056073
97.973522
98.19964
98.209035
98.217946
98.229213
98.245205
98.267403
98.295533
98.32822
98.362715
98.395731
98.425212
98.451191
98.472636
98.49063
98.504928
98.523374
98.540904
98.567009
98.591414
98.595372
98.580548
98.558498
98.529
98.487302
98.46298
98.43226
98.375897
98.279203
98.161484
98.069487
98.031122
98.153579
98.16028
98.167971
98.17846
98.193451
98.214501
98.240924
98.27152
98.303886
98.335145
98.362471
98.38961
98.412027
98.420927
98.426416
98.434457
98.445339
98.457931
98.469622
98.482916
98.478994
98.472398
98.453799
98.428135
98.416771
98.392556
98.347668
98.272214
98.221297
98.186779
98.144903
98.304721
98.302466
98.300741
98.299985
98.300356
98.302038
98.305466
98.310963
98.318761
98.329553
98.346414
98.371681
98.391084
98.396363
98.400809
98.404549
98.416462
98.431122
98.447202
98.456471
98.46933
98.466542
98.455922
98.438138
98.430715
98.415337
98.388483
98.36182
98.344681
98.308405
98.301948
107994.82
90787.729
71219.931
54773.419
41835.147
31566.843
23536.065
17415.87
12794.609
9312.4259
6711.7203
4793.9854
3396.5369
2388.9279
1669.2104
1158.5688
795.69036
531.6756
344.2937
229.3978
174.78422
148.1863
132.25604
121.38401
114.16087
108.96945
105.32876
102.82097
101.20659
100.12307
99.534415
94321.868
71047.553
54590.45
42696.879
33232.68
25611.833
19570.385
14788.706
11039.995
8141.6362
5938.3087
4288.9465
3070.4004
2180.5625
1537.4122
1075.776
743.24289
497.91928
322.63123
217.60671
169.70376
145.80264
130.96868
120.6712
113.75291
108.74078
105.19569
102.74866
101.16696
100.10192
99.523773
75594.798
60105.974
48133.239
38079.576
29652.754
22801.38
17369.11
13117.806
9815.895
7274.6977
5340.9505
3886.1305
2803.6366
2006.7099
1425.7183
1004.7634
698.03215
469.15557
305.78879
210.70918
167.33264
144.68728
130.36245
120.33529
113.55825
108.63171
105.12973
102.71123
101.14172
100.08513
99.51279
66683.749
53661.18
42604.888
33446.554
26037.214
20114.3
15413.89
11706.362
8806.5024
6563.6381
4848.3844
3550.64
2578.9088
1858.599
1329.5717
943.06494
658.48043
444.15104
290.94206
203.5766
164.13757
143.00997
129.4101
119.79626
113.24123
108.45275
105.02189
102.65072
101.10643
100.0653
99.501656
59381.899
47318.487
37495.407
29545.047
23119.049
17947.703
13813.798
10536.42
7964.455
5967.5495
4433.112
3265.8589
2386.6838
1730.8959
1246.0149
888.98705
623.56683
421.76172
277.50349
197.72971
161.91643
141.87985
128.78292
119.44584
113.037
108.33539
104.95069
102.61001
101.07933
100.04786
99.490275
52854.729
42171.336
33507.929
26461.946
20752.645
16154.536
12474.467
9552.6126
7253.8989
5462.3992
4079.3909
3021.8775
2220.957
1620.0699
1173.003
841.29104
592.58398
401.30405
265.43632
192.53881
159.59519
140.57338
128.02528
119.01
112.77804
108.18507
104.85922
102.55768
101.0469
100.02879
99.478718
47771.332
38090.272
30246.185
23896.655
18772.098
14648.825
11347.366
8722.4328
6651.8713
5032.3326
3776.6656
2811.9158
2077.5185
1523.5801
1109.0246
799.1441
564.9699
382.65808
254.7042
188.13427
157.72443
139.54066
127.44025
118.67751
112.58295
108.06918
104.78874
102.51668
101.01915
100.01107
99.467
43660.97
34697.753
27521.129
21755.518
17116.358
13385.901
10398.772
8020.8447
6140.7287
4665.3791
3517.0353
2630.8921
1953.1864
1439.4819
1052.9102
761.94079
540.29209
365.74726
245.25346
184.3412
155.93553
138.48333
126.82051
118.31611
112.36763
107.93952
104.7096
102.47031
100.98876
99.99252
99.455186
40135.555
31842.631
25247.619
19968.932
15729.435
12324.772
9599.1117
7427.1365
5706.3111
4352.0512
3294.2666
2474.7968
1845.4422
1366.2347
1003.8122
729.13145
518.51169
350.48154
237.01586
181.11887
154.40224
137.58559
126.30224
118.01594
112.19105
107.83029
104.6432
102.43074
100.96114
99.974769
99.443268
37237.869
29478.374
23354.454
18474.211
14565.377
11432.167
8924.6007
6924.6494
5337.1969
4084.679
3103.3128
2340.3773
1752.2353
1302.5812
961.01503
700.29725
498.98006
336.74521
229.90605
178.37531
152.988
136.72243
125.79039
117.71316
112.0112
107.71709
104.57419
102.38914
100.93237
99.95664
99.43124
34765.753
27483.345
21761.927
17217.888
13587.394
10681.44
8356.0728
6499.8828
5024.0886
3856.9946
2940.0344
2224.9548
1671.8635
1247.4676
923.83113
675.07496
481.55529
324.45175
223.8315
176.05345
151.74858
135.96957
125.3459
117.45062
111.8571
107.61727
104.51356
102.35191
100.90537
99.939017
99.419125
32677.622
25801.701
20422.32
16162.529
12766.792
10051.071
7878.0081
6141.8495
4759.3902
3663.8529
2801.0166
2126.3059
1602.9007
1200.0739
891.70827
653.18968
466.09628
313.52567
218.69858
174.09253
150.6307
135.27322
124.92495
117.19748
111.70775
107.5186
104.45342
102.31443
100.87805
99.921271
99.406983
30893.616
24378.143
19294.493
15277.42
12079.555
9523.4981
7477.7309
5841.6089
4536.9022
3501.0307
2683.437
2042.5842
1544.1903
1159.5741
864.10667
634.37367
452.44294
303.90507
214.41251
172.44905
149.65228
134.6636
124.55471
116.97396
111.57709
107.42989
104.39934
102.28003
100.85198
99.90388
99.39483
29369.209
23172.98
18346.181
14537.259
11506.948
9084.805
7144.957
5591.8719
4351.584
3365.1361
2585.0214
1972.3734
1494.773
1125.2452
840.58361
618.28502
440.44772
295.53689
210.88431
171.08488
148.79185
134.11637
124.21518
116.76535
111.45454
107.34509
104.34725
102.24632
100.82607
99.886504
99.382558
28069.714
22158.121
17555.208
13924.253
11035.296
8724.5855
6872.0999
5387.1977
4199.5835
3253.6591
2504.1084
1914.3989
1453.8108
1096.6781
820.92244
604.62887
429.9653
288.36729
208.03401
169.97155
148.05501
133.64237
123.91847
116.58128
111.34645
107.26868
104.29993
102.21503
100.80116
99.869439
99.370027
26994.387
21326.322
16912.698
13429.65
10656.463
8436.33
6654.2624
5224.0569
4078.2414
3164.3077
2439.0907
1867.5513
1420.5945
1073.462
804.90129
593.36416
420.90584
282.36082
205.77445
169.08648
147.43279
133.22965
123.65562
116.41496
111.24731
107.19772
104.25529
102.18491
100.7767
99.852532
99.357416
26142.798
20674.621
16412.294
13046.272
10363.918
8214.2359
6486.6079
5098.2592
3984.5548
3094.9352
2388.4203
1831.0211
1394.6144
1055.2608
792.31886
584.48235
413.27067
277.48704
203.97985
168.41255
146.92638
132.88104
123.43178
116.27093
111.15983
107.13444
104.21467
102.15685
100.75314
99.835893
99.345066
25354.844
20109.397
16000.571
12743.005
10138.983
8046.7759
6361.7881
5005.0807
3915.5044
3044.0345
2351.2049
1804.161
1375.4738
1041.819
783.0044
577.888
407.09132
273.61923
202.64255
167.93682
146.5311
132.59026
123.24263
116.14622
111.08116
107.07741
104.17702
102.13023
100.73018
99.819451
99.332686
24542.293
19559.025
15625.206
12485.433
9960.6219
7921.8284
6273.2531
4941.6188
3869.4516
3010.4485
2326.7561
1786.5026
1362.8751
1032.9508
776.83193
573.51369
402.39168
270.68497
201.71422
167.64985
146.24603
132.35771
123.08999
116.0431
111.01246
107.02773
104.143
102.10551
100.70809
99.803266
99.319653
23872.612
19111.847
15328.422
12290.751
9834.1467
7839.9033
6219.9056
4906.2239
3845.2955
2993.4577
2314.5838
1777.7391
1356.6229
1028.5317
773.72151
571.30111
399.195
268.6196
201.17279
167.54496
146.06947
132.18139
122.97198
115.96069
110.95266
106.98476
104.11216
102.0824
100.68674
99.7873
99.306446
23280.099
18746.436
15106.426
12159.848
9760.4473
7801.0418
6201.3605
4898.3433
3842.5074
2992.6989
2314.4539
1777.717
1356.6031
1028.5067
773.64177
571.20612
397.53606
267.37687
200.99769
167.61658
146.0043
132.06356
122.88982
115.90057
110.90272
106.94902
104.08488
102.06114
100.66624
99.77157
99.294048
22749.702
18447.479
14950.474
12089.089
9738.7861
7804.5477
6215.0636
4914.7339
3857.9258
3006.3673
2325.7186
1786.3296
1362.7958
1032.8762
776.60752
573.20251
397.47823
266.95296
201.1105
167.88785
146.04805
132.00578
122.84288
115.86245
110.86243
106.92002
104.06084
102.0415
100.64647
99.756005
99.281763
22254.495
18198.221
14851.072
12073.954
9763.5154
7844.8092
6259.0099
4957.0769
3895.66
3037.176
2349.4353
1803.8402
1375.276
1041.6819
782.67804
577.32244
398.84337
267.23417
201.59886
168.33152
146.20429
132.00624
122.82878
115.84499
110.83124
106.89702
104.03972
102.02329
100.62731
99.740491
99.268366
21744
17968.536
14788.986
12100.042
9827.9173
7920.9918
6332.7551
5021.3356
3948.288
3078.365
2380.4042
1826.3413
1391.1793
1052.7491
790.17947
582.33303
401.4148
268.17114
202.25254
168.82206
146.41081
132.03343
122.83484
115.84361
110.80715
106.87862
104.02093
102.00626
100.6087
99.725097
99.252791
105254.38
88586.507
70089.143
54422.322
42022.086
32219.225
24336.015
18143.211
13370.568
9751.3588
7034.7527
5024.2341
3555.9424
2496.3936
1739.8957
1203.994
824.19416
548.77458
354.00791
233.71651
176.41777
148.9611
132.67511
121.60831
114.29484
109.03525
105.37271
102.84772
101.22527
100.13588
99.538792
99782.922
84205.735
67495.964
53173.09
41476.184
31951.428
24247.205
18155.246
13443.414
9841.2978
7119.8718
5095.2326
3610.74
2536.3936
1767.8121
1222.6965
836.35358
556.42115
358.98425
236.24174
177.44297
149.46287
132.94495
121.74674
114.37759
109.08256
105.40398
102.8668
101.23848
100.14478
99.542644
94456.269
80068.389
64689.204
51523.666
40573.645
31513.605
24093.198
18151.976
13509.282
9929.2157
7205.8835
5168.4036
3667.9572
2578.5493
1797.4273
1242.6301
849.32691
564.57126
364.31566
238.99857
178.54622
149.98008
133.2245
121.89706
114.46952
109.11748
105.43043
102.88373
101.25127
100.1543
99.547223
89407.347
76225.34
61996.878
49868.386
39634.055
31039.864
23911.189
18135.044
13566.203
10013.692
7291.9183
5243.2923
3727.4126
2622.8273
1828.7737
1263.8505
863.149
573.30772
369.99191
242.00795
179.78407
150.56977
133.53
122.04545
114.55736
109.17802
105.46895
102.90716
101.26674
100.16422
99.552744
84562.417
72622.302
59385.063
48196.473
38653.142
30525.772
23697.168
18095.217
13611.556
10093.161
7377.043
5319.4201
3788.9145
2669.191
1861.8861
1286.4179
877.85297
582.6716
375.95142
245.26046
181.07975
151.14523
133.84452
122.22604
114.66956
109.21565
105.49854
102.92628
101.28118
100.17485
99.55611
79817.372
69256.423
56912.473
46541.531
37642.372
29972.584
23448.539
18029.579
13642.329
10165.702
7460.1129
5396.1849
3852.2037
2717.57
1896.7835
1310.3842
893.51417
592.703
382.0849
248.78902
182.57819
151.84363
134.19785
122.39328
114.76848
109.26693
105.5349
102.9493
101.29725
100.18615
99.560461
75196.608
65895.783
54450.539
44841.539
36567.326
29360.144
23153.719
17932.553
13652.922
10228.933
7539.8917
5472.9621
3917.0129
2767.8947
1933.4944
1335.8181
910.30746
603.55585
388.8048
252.59912
184.15924
152.54728
134.55565
122.57928
114.88086
109.32021
105.57279
102.97352
101.31417
100.19787
99.566241
70703.602
62640.931
52063.188
43145.198
35458.543
28705.171
22820.834
17807.417
13646.851
10282.836
7615.9702
5549.4328
3983.1908
2820.1458
1972.0782
1362.8014
928.23452
615.19314
396.26644
256.7122
185.87806
153.29694
134.93554
122.77241
114.996
109.37492
105.61209
102.99883
101.33167
100.21017
99.575177
66342.941
59376.172
49689.537
41425.182
34300.047
27995.616
22440.682
17648.003
13622.929
10324.518
7686.3169
5624.4174
4050.1388
2874.0608
2012.4401
1391.2975
947.32643
627.72359
404.27602
261.14918
187.74461
154.09658
135.32612
122.97464
115.11759
109.43154
105.65251
103.02523
101.35001
100.223
99.584859
62165.218
56084.686
47293.647
39671.488
33088.989
27228.801
22009.99
17450.032
13569.802
10351.085
7749.3009
5696.9352
4117.3322
2929.4129
2054.5148
1421.3158
967.61043
641.21822
412.89259
265.94027
189.7725
154.94578
135.74344
123.1843
115.23805
109.4897
105.69472
103.05316
101.36909
100.23638
99.594867
58041.495
52764.618
44858.357
37874.379
31822.325
26402.899
21526.254
17210.312
13486.863
10357.366
7802.977
5765.9083
4184.1692
2985.9144
2098.2051
1452.8559
989.1177
655.60608
422.14029
271.11503
191.9687
155.84998
136.16633
123.40002
115.36776
109.5502
105.73741
103.08188
101.38903
100.25031
99.603979
54047.89
49374.554
42357.84
36023.654
30498.724
25518.003
20988.61
16927.054
13373.431
10348.081
7846.2031
5830.2427
4249.9873
3043.2293
2143.3795
1485.8996
1011.876
670.89977
431.78961
276.6615
194.35293
156.80719
136.61974
123.62735
115.48935
109.6111
105.78199
103.11247
101.40966
100.26473
99.612848
50202.053
45968.175
39809.68
34131.904
29126.72
24578.99
20398.978
16600.284
13228.61
10319.932
7877.677
5888.8554
4314.077
3100.9718
2189.8708
1520.4079
1035.9056
687.14401
441.87594
282.61578
196.90927
157.812
137.07218
123.84742
115.62311
109.67597
105.82614
103.14325
101.43114
100.2797
99.623841
46398.3
42534.537
37209.038
32198.964
27712.871
23593.162
19762.061
16231.775
13051.113
10265.669
7895.5811
5940.6516
4375.7055
3158.7148
2237.4765
1556.3196
1061.2157
704.36701
452.62001
288.99501
199.67894
158.88951
137.55755
124.09574
115.74137
109.73773
105.87215
103.17651
101.45325
100.29506
99.634993
42703.202
39177.467
34626.468
30263.299
26280.955
22576.164
19087.364
15826.285
12842.533
10188.512
7896.2095
5984.3972
4434.137
3216.0065
2285.962
1593.5518
1087.8013
722.58162
464.02788
295.80676
202.61529
159.97516
138.03242
124.30554
115.8702
109.80772
105.91703
103.20894
101.47612
100.311
99.64613
39186.667
36034.565
32175.791
28394.183
24873.035
21553.747
18390.224
15392.179
12606.894
10090.705
7887.2312
6020.0814
4488.7429
3272.3911
2335.0844
1632.0063
1115.6497
741.7772
476.29108
302.99373
205.80524
161.17732
138.54375
124.58057
115.98497
109.86736
105.96305
103.24485
101.49967
100.32713
99.657339
35957.68
33191.332
29917.172
26639.265
23525.124
20552.9
17689.047
14940.699
12350.245
9974.4802
7863.7428
6047.2524
4539.0155
3327.4152
2384.565
1671.5731
1144.7758
761.99101
489.46602
310.90301
209.13444
162.35732
139.03356
124.77201
116.09272
109.94189
106.00858
103.27837
101.52354
100.34382
99.66858
33115.741
30734.164
27925.577
25054.025
22277.541
19602.19
17003.895
14484.899
12080
9842.718
7825.4078
6065.5638
4584.5317
3380.651
2434.1043
1712.1175
1175.1862
783.37853
503.73805
319.25381
212.7431
163.58375
139.54068
125.06878
116.20848
109.99836
106.05251
103.31674
101.54841
100.36051
99.679709
30707.021
28674.016
26237.728
23681.544
21168.864
18732.139
16356.473
14039.14
11804.797
9700.1144
7776.3849
6075.5971
4625.0368
3431.6935
2483.3751
1753.4433
1206.7511
805.94232
518.88012
327.64558
216.41114
165.00957
140.0891
125.26827
116.28154
110.07136
106.09976
103.35072
101.57265
100.37763
99.690598
28714.165
26996.654
24865.627
22550.98
20229.59
17968.215
15766.732
13617.507
11533.566
9551.6242
7718.4315
6076.4413
4660.167
3480.1126
2532.0029
1795.2986
1239.316
829.50912
534.84986
336.72553
220.53823
166.05947
140.4971
125.54002
116.38997
110.13295
106.13916
103.39073
101.59871
100.39479
99.701083
27065.632
25638.804
23778.86
21663.251
19477.679
17331.61
15252.079
13232.521
11274.416
9401.932
7654.1531
6072.1971
4689.982
3525.4863
2579.5604
1837.3711
1272.7208
854.02923
551.61748
346.41645
224.61812
167.70672
141.19351
125.82443
116.4569
110.19095
106.18979
103.42497
101.62298
100.41162
99.711001
25636.687
24482.214
22886.208
20967.714
18900.232
16829.963
14824.915
12894.371
11034.012
9254.8168
7585.2158
6061.1488
4714.1222
3567.1959
2625.5381
1879.3347
1306.7761
879.41471
569.1024
356.44653
229.18358
169.21023
141.57117
125.98246
116.52895
110.27392
106.22491
103.46429
101.64989
100.42907
99.720198
24328.372
23416.864
22076.548
20369.974
18436.949
16436.791
14479.335
12604.977
10815.293
9112.066
7511.8415
6042.1219
4732.0368
3604.5911
2669.311
1920.7543
1341.2457
905.56655
587.29713
366.69496
234.07137
170.15202
142.12883
126.38112
116.65649
110.31592
106.27682
103.50107
101.67472
100.44489
99.728502
23059.979
22355.143
21248.352
19759.663
17987.513
16082.283
14178.118
12348.15
10612.029
8970.9167
7432.0889
6013.9383
4740.6435
3636.0753
2709.9234
1961.0397
1375.8302
932.37473
606.23753
377.71642
238.91759
172.51249
142.97358
126.60062
116.72045
110.4107
106.31981
103.53713
101.70164
100.46205
99.735736
21741.741
21212.01
20313.898
19041.221
17457.163
15686.022
13864.659
12090.652
10406.832
8822.4736
7341.0804
5973.6639
4738.7725
3660.3171
2746.3851
1999.5277
1410.1487
959.71223
625.92982
389.86533
244.56424
174.65891
143.28962
126.83454
116.88179
110.46453
106.3613
103.58374
101.72686
100.47748
99.741644
20306.742
19912.849
19202.055
18143.489
16766.727
15167.476
13471.417
11785.936
10172.059
8651.9403
7231.5648
5918.6012
4727.8394
3676.4229
2777.5416
2035.4407
1443.7747
987.39929
646.47216
402.90004
250.41702
175.90299
144.08701
127.5717
117.04601
110.57228
106.4392
103.62052
101.75306
100.49318
99.746085
18770.146
18454.596
17878.971
17009.088
15850.22
14460.012
12938.074
11386.868
9876.394
8440.6824
7092.7523
5841.2906
4699.1456
3678.1345
2801.1179
2067.7233
1476.1944
1015.1888
667.71794
416.92311
256.95775
178.45927
145.27928
127.80294
117.15117
110.70077
106.48074
103.68041
101.77573
100.50849
99.748664
17133.175
16866.108
16392.133
15677.941
14719.442
13550.973
12239.868
10866.226
9496.9126
8172.9484
6915.1191
5736.3214
4650.0893
3671.5237
2817.6787
2095.8487
1506.8869
1042.8124
689.60638
432.0447
264.74589
181.43629
145.88688
128.25998
117.48403
110.79851
106.58414
103.72743
101.80393
100.52086
99.749168
15450.526
15214.328
14821.605
14242.802
13467.863
12512.489
11418.669
10242.751
9039.096
7848.6221
6697.1851
5602.5881
4581.2693
3650.9332
2824.1568
2118.6923
1535.3079
1069.9748
711.98721
448.07827
273.0652
184.46423
147.25509
129.22018
117.67668
111.07321
106.66995
103.801
101.82695
100.53445
99.746939
13827.016
13616.203
13291.06
12826.71
12210.518
11445.568
10553.439
9569.3932
8534.4621
7484.6832
6447.5005
5444.0019
4493.0559
3613.4512
2822.0949
2136.25
1561.1638
1096.434
734.733
465.04413
282.26827
187.9697
148.86705
129.68604
118.03677
111.27311
106.75695
103.87008
101.85373
100.5444
99.741578
12373.399
12184.968
11913.34
11538.636
11048.263
10438.511
9716.4726
8901.8392
8022.4832
7107.2433
6182.4127
5270.4743
4391.8278
3566.5236
2814.0573
2149.2393
1584.4808
1122.0101
757.64104
482.76427
292.54725
191.69897
150.26804
130.38428
118.555
111.56664
106.9805
103.96852
101.88909
100.55279
99.732199
11172.675
11002.037
10768.765
10457.708
10057.31
9560.124
8966.9333
8288.0167
7539.951
6743.6682
5921.3759
5094.9391
4285.399
3513.2821
2798.4396
2157.96
1605.4101
1146.5961
780.475
500.92185
303.47425
195.51212
151.47216
131.17949
118.98793
111.92847
107.09417
104.04078
101.91245
100.55836
99.718337
10261.203
10102.504
9893.9452
9624.4088
9283.6745
8864.0152
8362.3007
7781.2116
7130.7118
6426.6438
5687.792
4933.7309
4184.4943
3460.3304
2780.9166
2164.3083
1624.6377
1170.2978
803.08017
519.25224
314.8123
199.17183
152.37295
131.73054
119.5488
112.31411
107.3154
104.14501
101.95513
100.55719
99.698972
9643.4704
9494.8049
9302.3651
9058.7122
8755.0712
8383.6837
7939.4782
7421.9489
6836.416
6194.3156
5512.2224
4809.3355
4105.1297
3418.767
2768.9705
2172.0933
1643.6876
1193.5994
825.51768
537.65335
326.51919
202.73947
152.96338
132.0269
120.15468
112.75269
107.60363
104.24127
101.99489
100.55299
99.673443
9222.6952
9090.9918
8918.5684
8699.0594
8424.1907
8086.3345
7679.8842
7202.8745
6658.4527
6055.6985
5409.2355
4737.554
4060.701
3398.2343
2768.121
2183.9028
1663.9948
1217.1848
848.01997
556.17915
338.75565
206.55179
153.28632
132.09346
120.67801
113.0796
107.72061
104.33564
102.0183
100.54188
99.640324
8843.4489
8738.9974
8597.9011
8412.9028
8174.8717
7875.165
7507.0158
7067.0085
6556.5647
5983.2695
5361.0384
4708.5881
4046.8937
3396.7499
2774.5295
2201.2673
1686.9436
1241.749
870.90512
575.02787
351.64971
210.9137
153.46917
132.07187
120.98319
113.28695
107.95593
104.36577
102.01727
100.52461
99.59897
8401.0862
8326.623
8221.0547
8076.6938
7884.1662
7633.6322
7315.88
6924.2372
6457.034
5919.4384
5324.1997
4690.6914
4042.2172
3403.0134
2792.5
2224.4472
1712.497
1267.2482
894.27686
594.39545
365.47657
216.34486
153.74502
131.94763
121.04933
113.36614
108.02838
104.35733
102.01165
100.50326
99.548268
7876.3976
7827.6901
7753.4694
7645.947
7496.1011
7294.1059
7030.2747
6696.3483
6287.3014
5803.655
5253.3858
4652.3523
4026.7335
3401.512
2802.1379
2244.0248
1736.6562
1292.2892
917.53803
614.1352
380.27374
223.10872
154.41929
131.64009
121.01677
113.35024
108.01175
104.338
101.98697
100.44461
99.488654
7293.4434
7259.8071
7206.3482
7125.7178
7009.719
6849.0663
6634.0448
6355.7012
6007.6419
5588.0677
5101.5618
4560.1714
3978.6854
3381.5317
2797.0183
2249.4306
1753.5817
1313.9157
939.44828
633.65465
395.57855
230.87272
155.5681
131.38221
120.84419
113.20411
107.94447
104.25543
101.89953
100.38304
99.419539
6710.4236
6678.4359
6630.9309
6561.9026
6464.6586
6331.3513
6153.3459
5922.0252
5630.1592
5273.7074
4853.741
4377.8368
3860.2266
3318.1385
2771.1988
2243.2336
1758.5563
1328.7866
958.26763
652.04124
410.92579
239.59767
157.38664
131.26871
120.33583
112.75045
107.72429
104.06805
101.80901
100.3098
99.340297
6202.0328
6164.6572
6114.0482