/*--------------------------------*- C++ -*----------------------------------*\
| =========                 |                                                 |
| \\      /  F ield         | OpenFOAM: The Open Source CFD Toolbox           |
|  \\    /   O peration     | Version:  2406                                  |
|   \\  /    A nd           | Website:  www.openfoam.com                      |
|    \\/     M anipulation  |                                                 |
\*---------------------------------------------------------------------------*/
FoamFile
{
    version     2.0;
    format      ascii;
    arch        "LSB;label=32;scalar=64";
    class       surfaceScalarField;
    location    "0.016";
    object      phi;
}
// * * * * * * * * * * * * * * * * * * * * * * * * * * * * * * * * * * * * * //

dimensions      [1 0 -1 0 0 0 0];

oriented        oriented;

internalField   nonuniform List<scalar> 
16284
(
0.010649657
-0.014836842
0.015289081
-0.011102004
0.010201207
-0.017420553
0.017868882
0.009731031
-0.02038514
0.020855183
0.0092424382
-0.023811001
0.024299448
0.0087428093
-0.02776841
0.028267875
0.0082425092
-0.032324971
0.032825088
0.0077533655
-0.037557066
0.038046014
0.0072852041
-0.04355574
0.044023708
0.0068442001
-0.050444717
0.05088554
0.0064327912
-0.058367632
0.05877887
0.0060515469
-0.067454571
0.067835638
0.0056960008
-0.077873075
0.078228418
0.005355924
-0.089791105
0.090130936
0.0050136161
-0.10333245
0.10367447
0.0046397552
-0.11833091
0.11870443
0.0041654883
-0.13441322
0.13488711
0.0035770565
-0.15075831
0.15134635
0.0030474926
-0.16825271
0.16878187
0.0026542652
-0.18936296
0.18975572
0.0023247444
-0.2138837
0.21421269
0.0020321708
-0.24169579
0.24198778
0.0017660772
-0.27329052
0.27355598
0.0015231094
-0.30919916
0.30944134
0.001299148
-0.3499134
0.35013637
0.0010884155
-0.39605606
0.39626558
0.00089191987
-0.44852435
0.44871939
0.00070731126
-0.50807807
0.50826103
0.00053096964
-0.57578024
0.5759547
0.00035816995
-0.65260985
0.65278043
0.00018344141
-0.74010335
0.74027556
-0.83951076
0.83969163
0.011806275
-0.014440474
-0.01220276
0.011360824
-0.016975234
0.010888294
-0.019912754
0.010392534
-0.023315397
0.0098783428
-0.02725439
0.0093550094
-0.031801825
0.0088343303
-0.037036585
0.0083282559
-0.043049861
0.0078433771
-0.049960019
0.0073830936
-0.057907524
0.0069501534
-0.067021821
0.0065414801
-0.077464629
0.0061468142
-0.089396719
0.0057426085
-0.10292857
0.0052971411
-0.11788582
0.0047323639
-0.13384886
0.0040447316
-0.15007113
0.0034511699
-0.16765962
0.0030107716
-0.18892307
0.0026378858
-0.2135114
0.0023061685
-0.24136474
0.0020043382
-0.27298939
0.001728472
-0.30892417
0.0014743373
-0.34966038
0.0012352565
-0.39581834
0.0010122489
-0.44830297
0.00080279293
-0.50787047
0.00060256784
-0.57558213
0.00040651004
-0.65241632
0.0002079102
-0.73990759
-0.83930593
0.012962376
-0.014093748
-0.013309224
0.012557976
-0.01657097
0.01210946
-0.019464385
0.01162499
-0.022831086
0.011111131
-0.026740703
0.010576993
-0.03126787
0.010034237
-0.03649402
0.009495927
-0.042511741
0.0089708415
-0.049435118
0.0084623393
-0.057399208
0.0079756531
-0.066535346
0.0075089595
-0.076998193
0.007052202
-0.088940281
0.0065765617
-0.10245331
0.0060456292
-0.11735532
0.0053712617
-0.13317497
0.0045728368
-0.14927321
0.0039186383
-0.16700594
0.0034260347
-0.18843105
0.0030030628
-0.2130891
0.0026257641
-0.24098819
0.0022820185
-0.27264645
0.0019673282
-0.30861048
0.0016777428
-0.34937206
0.001405477
-0.39554761
0.0011514938
-0.44805083
0.00091313049
-0.50763419
0.0006852264
-0.57535662
0.00046238174
-0.65219632
0.0002364005
-0.73968484
-0.83907318
0.014135192
-0.013805681
-0.014423377
0.013787426
-0.016223334
0.013384177
-0.019061277
0.012931562
-0.022378625
0.01243634
-0.026245646
0.011907313
-0.030739018
0.011355817
-0.035942706
0.010794978
-0.041951087
0.010235244
-0.048875572
0.0096816937
-0.056845861
0.0091406461
-0.065994538
0.00861169
-0.076469533
0.0080849361
-0.088413892
0.0075266776
-0.10189547
0.0068928123
-0.11672195
0.0060860046
-0.1323687
0.0051647221
-0.1483525
0.0044499647
-0.16629176
0.0038964986
-0.18787822
0.003416046
-0.2126094
0.0029869222
-0.24055993
0.0025957738
-0.2722562
0.0022370924
-0.30825292
0.0019074584
-0.34904386
0.0015977774
-0.39523968
0.0013088491
-0.44776398
0.0010378702
-0.50736557
0.00077864735
-0.5751001
0.00052552166
-0.65194643
0.0002686098
-0.73943158
-0.83880874
0.015321217
-0.013585
-0.015542002
0.015040935
-0.015943169
0.014699466
-0.018719937
0.014298595
-0.021977897
0.013842518
-0.025789723
0.013338121
-0.030234786
0.01279526
-0.035400021
0.012226056
-0.041382069
0.011641626
-0.048291342
0.011049152
-0.056253616
0.010455466
-0.065401128
0.0098612654
-0.075875673
0.0092564868
-0.087809529
0.008602353
-0.10124183
0.0078426193
-0.11596277
0.0068777011
-0.13140438
0.0058272312
-0.14730268
0.0050522966
-0.16551748
0.0044306468
-0.18725729
0.0038856558
-0.21206526
0.003398353
-0.2400736
0.0029537661
-0.27181264
0.002544911
-0.30784533
0.002169605
-0.34867017
0.0018172709
-0.39488931
0.0014884558
-0.4474375
0.0011802448
-0.50706001
0.00088521107
-0.57480812
0.00059762379
-0.65166249
0.00030537062
-0.73914347
-0.83850806
0.016510642
-0.013439073
-0.016656655
0.016307893
-0.015740516
0.016042409
-0.018454565
0.015711514
-0.021647131
0.015315251
-0.025393606
0.014856857
-0.029776553
0.014343107
-0.034886449
0.013783761
-0.040822922
0.013189195
-0.047697001
0.012567607
-0.055632293
0.011925926
-0.064759769
0.0112652
-0.075215341
0.010574279
-0.087119083
0.0098081889
-0.10047629
0.0088934073
-0.11504863
0.0077421983
-0.13025387
0.0065684598
-0.14612967
0.0057325607
-0.16468231
0.0050354306
-0.18656096
0.0044175815
-0.21144837
0.0038647781
-0.2395219
0.0033601626
-0.27130918
0.0028942858
-0.30738087
0.0024671268
-0.34824483
0.0020664531
-0.39449086
0.0016924216
-0.44706609
0.0013419571
-0.50671253
0.0010061821
-0.5744758
0.00067953743
-0.65133998
0.00034701989
-0.73881564
-0.83816636
0.017699226
-0.013372854
-0.017765518
0.017581457
-0.015622833
0.01740345
-0.01827666
0.017157871
-0.021401676
0.016839977
-0.025075859
0.01644834
-0.029385085
0.015985247
-0.03442355
0.015456499
-0.040294398
0.014869863
-0.047110627
0.014232613
-0.054995355
0.013550578
-0.064078111
0.012823697
-0.074488916
0.012037706
-0.086333632
0.011139294
-0.099578497
0.010031773
-0.11394183
0.0086706306
-0.12889351
0.0074001559
-0.14486
0.0064969772
-0.16377995
0.005718316
-0.18578317
0.0050190898
-0.21075023
0.004393136
-0.23889721
0.0038217551
-0.27073911
0.003291366
-0.30685208
0.0028053594
-0.34776087
0.0023498989
-0.39403789
0.0019245834
-0.4466437
0.0015260655
-0.50631736
0.0011438288
-0.57409746
0.00077285779
-0.65097367
0.00039442644
-0.73844251
-0.837778
0.018899344
-0.013386721
-0.018885553
0.018868733
-0.015592313
0.018782552
-0.018190591
0.018630636
-0.021249895
0.01840398
-0.024849366
0.018095929
-0.029077226
0.017703062
-0.034030908
0.017225529
-0.03981713
0.016666291
-0.046551701
0.016029126
-0.05435856
0.01531648
-0.063365904
0.014524381
-0.073697339
0.013631241
-0.085441103
0.012573491
-0.098521446
0.011227784
-0.11259693
0.0096515488
-0.12731816
0.0083300315
-0.14353939
0.0073514396
-0.16280225
0.0064858843
-0.18491859
0.0056967843
-0.20996236
0.0049893501
-0.23819124
0.0043442218
-0.27009547
0.0037414432
-0.30625109
0.0031887795
-0.34721052
0.0026714431
-0.39352334
0.0021882363
-0.44616377
0.0017352119
-0.50586809
0.0013001475
-0.57366678
0.0008789301
-0.65055771
0.00044823512
-0.73801782
-0.83733665
0.020120885
-0.013474129
-0.020033578
0.020173688
-0.015645238
0.020178376
-0.018195423
0.02012241
-0.021194099
0.019993401
-0.024720558
0.019779633
-0.028863692
0.019471468
-0.033723017
0.019062211
-0.039408192
0.018547951
-0.046037812
0.017926055
-0.053737097
0.01719224
-0.062632594
0.016333592
-0.07283928
0.015311217
-0.084419409
0.014057344
-0.097268351
0.012433739
-0.11097424
0.010683451
-0.12556885
0.0093598098
-0.14221673
0.008301149
-0.16174458
0.0073429649
-0.18396151
0.0064572207
-0.209078
0.0056597532
-0.23739544
0.0049337722
-0.26937117
0.0042510111
-0.3055703
0.0036229965
-0.34658509
0.0030359725
-0.39293942
0.0024876188
-0.44561905
0.0019728117
-0.50535749
0.0014777694
-0.57317668
0.00099953806
-0.65008541
0.00050941442
-0.73753446
-0.83683505
0.021374462
-0.01362326
-0.021225471
0.021498935
-0.015769875
0.021586169
-0.018282847
0.021621632
-0.02122978
0.021588696
-0.024687873
0.02147099
-0.028746275
0.021253096
-0.033505453
0.02092111
-0.039076582
0.020462671
-0.045579804
0.01986577
-0.053140688
0.01911522
-0.061882605
0.018182612
-0.071907319
0.017004317
-0.083241857
0.015481298
-0.095746189
0.013573109
-0.10906705
0.011778556
-0.12377538
0.010480015
-0.14091925
0.0093487701
-0.16061447
0.0082906384
-0.18290469
0.007306787
-0.20809567
0.0064097119
-0.23650024
0.0055953695
-0.26855878
0.0048258977
-0.30480301
0.0041131038
-0.3458752
0.0034479634
-0.39227772
0.0028266748
-0.4450018
0.0022420808
-0.5047776
0.0016792931
-0.57261945
0.0011363656
-0.64954916
0.0005788567
-0.73698459
-0.83626504
0.022660313
-0.013828554
-0.022455199
0.022845379
-0.015955145
0.022999611
-0.01843731
0.023108212
-0.021338643
0.023154248
-0.024734206
0.02311885
-0.028711213
0.022981797
-0.033368779
0.022721866
-0.038817077
0.022316556
-0.045174972
0.021740876
-0.052565539
0.020963468
-0.061105793
0.019929273
-0.070873801
0.018528372
-0.081841735
0.016666681
-0.093885419
0.014650904
-0.10705236
0.013017473
-0.12214312
0.011710482
-0.13961345
0.010472794
-0.15937806
0.0093318313
-0.18176521
0.0082294454
-0.20699497
0.0072370107
-0.23550992
0.0063340788
-0.2676581
0.0054715542
-0.30394296
0.0046644064
-0.34507125
0.0039124107
-0.3915295
0.003209701
-0.44430356
0.0025466694
-0.50411983
0.0019077551
-0.57198677
0.0012914043
-0.6489403
0.00065773737
-0.7363595
-0.83561725
0.023868222
-0.014065607
-0.023631364
0.024092651
-0.016179799
0.024293572
-0.018638485
0.024454867
-0.021500223
0.024558544
-0.024838205
0.024583893
-0.028736922
0.024506791
-0.033292079
0.024298654
-0.038609385
0.023924726
-0.044801534
0.023341408
-0.051982756
0.022491644
-0.060256616
0.021285191
-0.069668017
0.019614823
-0.080172158
0.017564552
-0.091836101
0.015750149
-0.10523908
0.01431146
-0.12070572
0.012947572
-0.13825091
0.01168193
-0.15811385
0.010444741
-0.18052966
0.0092760967
-0.20582833
0.0081715516
-0.2344078
0.0071432426
-0.26663239
0.0061899015
-0.30299247
0.0052809956
-0.34416579
0.0044339377
-0.39068658
0.0036402891
-0.44351486
0.0028898272
-0.50337526
0.0021659793
-0.57126993
0.0014665787
-0.6482493
0.00074722678
-0.73564976
-0.83488118
0.024818247
-0.014304837
-0.024579204
0.02504566
-0.016407424
0.025249809
-0.018842873
0.025417623
-0.021668307
0.025531713
-0.0249526
0.025569975
-0.028775526
0.02550421
-0.033226696
0.025296878
-0.038402476
0.024897708
-0.044402827
0.024238266
-0.05132382
0.023232351
-0.059251261
0.021815344
-0.068251664
0.020092689
-0.078450297
0.018442277
-0.090186612
0.016987448
-0.10378537
0.015623802
-0.11934348
0.014293932
-0.1369226
0.012948674
-0.15677029
0.01164434
-0.17922725
0.010362616
-0.2045489
0.0091801556
-0.23322815
0.0080611244
-0.26551649
0.0069724538
-0.30190693
0.0059633878
-0.34316046
0.0050169815
-0.38974469
0.0041222174
-0.44262558
0.0032745453
-0.5025342
0.0024567174
-0.57045995
0.0016640219
-0.647466
0.00084871206
-0.73484517
-0.83404488
0.024676558
-0.014506678
-0.024474866
0.024866154
-0.01659719
0.02503506
-0.019011974
0.025179021
-0.021812489
0.025287257
-0.025061093
0.025328469
-0.028817039
0.025258904
-0.033157472
0.025030044
-0.038174002
0.024590584
-0.043963806
0.023886078
-0.050619819
0.022898532
-0.058264286
0.021706758
-0.067060552
0.020517549
-0.077261869
0.019389402
-0.089059341
0.01821663
-0.10261369
0.016944963
-0.1180733
0.015600656
-0.13558013
0.014245059
-0.15541678
0.012895001
-0.1778795
0.011558642
-0.20321517
0.010263822
-0.23193663
0.009028795
-0.26428511
0.0078489706
-0.30073065
0.0067267049
-0.34204235
0.0056613186
-0.38868424
0.0046594528
-0.44162973
0.0037018588
-0.50158398
0.0027823681
-0.56954928
0.001885402
-0.64657949
0.00096336412
-0.73393501
-0.83309522
0.023564822
-0.014752127
-0.02331949
0.023794821
-0.016827319
0.023986914
-0.019204214
0.024109824
-0.021935572
0.024137335
-0.025088801
0.024068551
-0.028748479
0.023903489
-0.032992676
0.023651702
-0.037922533
0.023327295
-0.043639785
0.022908597
-0.050201595
0.022411016
-0.057767271
0.021851313
-0.066501511
0.021207694
-0.07661902
0.020386261
-0.088238779
0.019354896
-0.10158339
0.018178998
-0.11689896
0.016906766
-0.13431
0.015551334
-0.15406386
0.014170802
-0.17650178
0.012775258
-0.20182272
0.011420418
-0.23058563
0.010095188
-0.26296422
0.0087878012
-0.29942739
0.0075464959
-0.34080559
0.006376968
-0.38752011
0.0052542588
-0.44051364
0.0041850993
-0.50052303
0.0031455734
-0.56851962
0.0021298948
-0.64557543
0.0010920671
-0.73291024
-0.83201816
0.021177749
-0.015059297
-0.020870676
0.021513733
-0.017163414
0.021879713
-0.019570325
0.022271297
-0.022327307
0.022660942
-0.025478624
0.023007698
-0.029095444
0.023253135
-0.033238354
0.023289743
-0.037959414
0.023102094
-0.043452459
0.022798785
-0.049898686
0.022509811
-0.057478778
0.022199039
-0.066191314
0.021765118
-0.076185809
0.02114309
-0.087617594
0.020327494
-0.10076888
0.019298509
-0.11587167
0.018110545
-0.13312444
0.016818583
-0.15277473
0.015455778
-0.17514233
0.01404699
-0.20041757
0.012618588
-0.22916168
0.011200209
-0.26155097
0.0098049059
-0.2980369
0.0084540361
-0.33945971
0.0071506785
-0.38622262
0.0059085836
-0.43927885
0.0047126473
-0.49933617
0.0035481757
-0.56736616
0.002402547
-0.64444261
0.0012343522
-0.73175629
-0.83080007
0.019597092
-0.015303037
-0.019353454
0.019860287
-0.01742673
0.020143412
-0.019853593
0.020444025
-0.022628092
0.020765882
-0.025800675
0.021109146
-0.029438927
0.021501816
-0.033631275
0.022010101
-0.038467997
0.022504983
-0.043947698
0.022786453
-0.050180577
0.022705915
-0.057398761
0.022405124
-0.065891161
0.02205018
-0.075831524
0.021645646
-0.087213756
0.021076215
-0.10020034
0.020244883
-0.11504214
0.01920631
-0.13208887
0.018024716
-0.15159641
0.016699755
-0.17382116
0.015291295
-0.19901339
0.0138485
-0.22772394
0.012367359
-0.26007573
0.010869031
-0.29654422
0.0094021467
-0.33799825
0.0079931003
-0.38481999
0.0066167283
-0.43791043
0.0052999333
-0.49802939
0.0039953741
-0.56607383
0.0027032548
-0.64316449
0.0013890864
-0.7304575
-0.82942846
0.019369776
-0.015550561
-0.019122364
0.019635546
-0.017692631
0.019918997
-0.0201372
0.020219991
-0.02292927
0.02054112
-0.026122022
0.020879492
-0.029777562
0.021214658
-0.033966759
0.021518461
-0.03877218
0.021848989
-0.044278662
0.022311868
-0.050643927
0.022754192
-0.057841579
0.0228201
-0.065957581
0.022476553
-0.07548867
0.022014845
-0.08675281
0.021491776
-0.099677768
0.020889816
-0.11444138
0.020083161
-0.13128596
0.019094954
-0.15061314
0.017888703
-0.17261943
0.016525328
-0.19765468
0.015054738
-0.22625877
0.01352788
-0.25855547
0.011966107
-0.29498901
0.010409976
-0.3364481
0.0088857257
-0.38330267
0.0073740494
-0.43640744
0.0059276077
-0.49659393
0.0044840516
-0.56464376
0.0030392903
-0.64173489
0.0015558704
-0.7289905
-0.82789118
0.018512199
-0.015786073
-0.018276827
0.018770978
-0.017951578
0.01905308
-0.0204195
0.019357299
-0.023233724
0.019679552
-0.026444552
0.020011314
-0.030109644
0.020339205
-0.034295011
0.020644136
-0.039077499
0.020919151
-0.044554062
0.021105621
-0.050830728
0.021336352
-0.058072461
0.02187066
-0.066491599
0.022327343
-0.075944623
0.022299597
-0.086723784
0.02192639
-0.099302279
0.021406134
-0.1139206
0.020749414
-0.13063486
0.019958945
-0.14983158
0.018915571
-0.17158265
0.017647006
-0.19639095
0.01620352
-0.22482062
0.014664735
-0.2570236
0.013064203
-0.2933961
0.011415481
-0.33480617
0.009806808
-0.3817015
0.00818625
-0.43479634
0.0066046288
-0.49502427
0.0050089625
-0.56306277
0.0034034028
-0.64014553
0.0017368995
-0.72734137
-0.82617393
0.018154599
-0.016006351
-0.017934545
0.018396222
-0.018193463
0.018660518
-0.020684102
0.018948141
-0.0235217
0.019259859
-0.026756673
0.01959729
-0.030447523
0.019964223
-0.034662424
0.020366223
-0.039479976
0.020800338
-0.04498859
0.021259215
-0.051289839
0.021679937
-0.05849308
0.021919463
-0.066730605
0.022189524
-0.076213576
0.022535844
-0.087066367
0.022488193
-0.099247362
0.022036889
-0.11346689
0.021343235
-0.12994758
0.020500424
-0.14899682
0.019637128
-0.1707278
0.018580382
-0.19533908
0.017199079
-0.22344349
0.015674688
-0.25550588
0.014094075
-0.29182393
0.012412147
-0.33313218
0.010749552
-0.38004729
0.0090127345
-0.43306951
0.0073039444
-0.49332834
0.0055694007
-0.56134395
0.0037957302
-0.63838893
0.0019318323
-0.72549569
-0.82426276
0.017080426
-0.016208515
-0.016878542
0.017303719
-0.018417071
0.017549008
-0.020929748
0.017816422
-0.023789511
0.018104859
-0.027045545
0.018411166
-0.030754294
0.018728577
-0.03498031
0.019046067
-0.039797915
0.019351825
-0.045294714
0.019636773
-0.051575002
0.019906688
-0.058763038
0.020170788
-0.06699476
0.020347805
-0.076391277
0.020452329
-0.08717698
0.020934256
-0.09974521
0.021385873
-0.11392863
0.02145906
-0.13001323
0.020911085
-0.14844826
0.020020179
-0.16984053
0.019087924
-0.1944098
0.017883192
-0.2222401
0.016483689
-0.25411177
0.015013376
-0.29036228
0.013336325
-0.33146412
0.011631019
-0.37835144
0.0098643357
-0.43131317
0.0080182359
-0.4914955
0.00613578
-0.55947793
0.0042049979
-0.636476
0.0021401315
-0.7234498
-0.82214431
0.016568417
-0.0163983
-0.01637885
0.016778583
-0.018627491
0.017011022
-0.021162486
0.017267088
-0.024045934
0.017547983
-0.027326874
0.017854769
-0.031061622
0.0181887
-0.035314941
0.018551091
-0.040161253
0.018940299
-0.045685254
0.019346222
-0.05198285
0.019743714
-0.059163297
0.020099973
-0.067354742
0.020430683
-0.07672636
0.020671749
-0.087421313
0.020535448
-0.099609036
0.020280616
-0.11367662
0.020214423
-0.12995754
0.020220065
-0.1484557
0.019823684
-0.16944128
0.019125219
-0.19371287
0.018220378
-0.22133598
0.017003497
-0.25289778
0.015682864
-0.28904912
0.014137508
-0.32992786
0.012437203
-0.37666146
0.010639617
-0.42952604
0.0087068959
-0.48957571
0.0067069467
-0.55749467
0.0046128419
-0.63440049
0.0023577075
-0.72121432
-0.81980933
0.015290406
-0.016570976
-0.015117687
0.015482772
-0.018819825
0.015696044
-0.021375726
0.01593137
-0.024281243
0.016189391
-0.027584913
0.016469898
-0.031342217
0.016771446
-0.035616708
0.017091033
-0.04048128
0.017423707
-0.04601873
0.017765441
-0.052325955
0.018116714
-0.059516786
0.018477942
-0.067719355
0.01882235
-0.077075436
0.019171761
-0.087776197
0.019543089
-0.099984831
0.019704031
-0.11383927
0.019496265
-0.12975001
0.019146834
-0.14810564
0.019004005
-0.16930232
0.018769042
-0.1934849
0.01820832
-0.22078193
0.017315978
-0.2520098
0.016125388
-0.28786393
0.01472647
-0.32853686
0.013064533
-0.37500965
0.011327336
-0.42779921
0.0093472894
-0.48760763
0.0072336389
-0.55539739
0.0050016581
-0.63218777
0.0025788939
-0.71881164
-0.81725413
0.014708389
-0.016726191
-0.014553374
0.014881237
-0.018992852
0.015073689
-0.021568341
0.015287395
-0.024495086
0.015523995
-0.027821619
0.015785078
-0.031603371
0.016072118
-0.035903797
0.016386532
-0.040795755
0.016730514
-0.046362871
0.017104306
-0.052700126
0.017501691
-0.059914918
0.017912468
-0.068131455
0.018328661
-0.077493732
0.018706087
-0.088156515
0.019058463
-0.1003412
0.019520547
-0.11430569
0.019951504
-0.13018107
0.019979388
-0.14813094
0.01944838
-0.16877211
0.018617896
-0.19266365
0.018014916
-0.22019317
0.017361491
-0.25136408
0.016339164
-0.28684448
0.015111822
-0.32731553
0.013579576
-0.37348636
0.011842742
-0.4260724
0.0098840231
-0.48565958
0.007715859
-0.55324435
0.0053501535
-0.62984126
0.0027889671
-0.71627032
-0.81448919
0.013323532
-0.016863844
-0.01318663
0.013476844
-0.019146991
0.013647901
-0.021740333
0.013838111
-0.024686341
0.01404867
-0.028033338
0.014280369
-0.031836337
0.01453322
-0.036158004
0.01480574
-0.041069676
0.01509552
-0.046654012
0.015399428
-0.053005245
0.015713341
-0.060229774
0.016031829
-0.068450465
0.016348331
-0.077810214
0.016676295
-0.088484
0.017001988
-0.10066617
0.01724934
-0.11455287
0.017479229
-0.13041315
0.018044043
-0.14870117
0.018599703
-0.16933026
0.018493903
-0.19255242
0.017770856
-0.21947045
0.017059487
-0.2506586
0.016292097
-0.28608369
0.015275574
-0.32630584
0.013946332
-0.37216569
0.012262415
-0.42439862
0.010289222
-0.48369539
0.0080749701
-0.55104258
0.0056317708
-0.62741551
0.0029696206
-0.71362652
-0.8115425
0.012958662
-0.016985543
-0.012837296
0.013093704
-0.019282449
0.013243572
-0.02189069
0.013409349
-0.024852697
0.013592208
-0.028216877
0.013793548
-0.032038478
0.014015271
-0.036380662
0.014260175
-0.041315666
0.014530953
-0.046926041
0.014830827
-0.053306539
0.015165796
-0.060566324
0.015543578
-0.068829955
0.015968812
-0.078237225
0.01642328
-0.088940204
0.0168671
-0.10111152
0.017292763
-0.11497981
0.017683314
-0.130805
0.017787786
-0.14880624
0.017849145
-0.16939334
0.018125665
-0.19283267
0.017910691
-0.21925305
0.017088354
-0.24983456
0.016160035
-0.28515281
0.015232947
-0.32538269
0.014066254
-0.3710065
0.012418716
-0.42276146
0.010464283
-0.48174828
0.0082701524
-0.54885676
0.005801977
-0.62496013
0.0030908137
-0.71093004
-0.80847134
0.011476792
-0.017085549
-0.011377048
0.011588865
-0.01939482
0.011714614
-0.022016779
0.011855492
-0.024993963
0.012013029
-0.028374855
0.01218876
-0.032214706
0.012384075
-0.036576537
0.01260002
-0.041532233
0.012837101
-0.047163804
0.013094658
-0.05356483
0.01336965
-0.060842085
0.013656505
-0.069117595
0.013949553
-0.078531056
0.014251137
-0.089242577
0.014573962
-0.10143521
0.014903921
-0.11531077
0.015204549
-0.13110649
0.015501695
-0.14910388
0.015637069
-0.16952845
0.015818116
-0.19301463
0.016363577
-0.21980069
0.016524414
-0.24998358
0.015949525
-0.28455942
0.014856257
-0.32427686
0.013596279
-0.3697418
0.012114807
-0.42128231
0.010304265
-0.47994192
0.0081902071
-0.54674599
0.0057875846
-0.62256256
0.0031137647
-0.70826387
-0.80537142
0.010553463
-0.017145465
-0.010493751
0.010620928
-0.019462515
0.010697194
-0.022093303
0.010783371
-0.025080429
0.010880643
-0.028472449
0.010990231
-0.03232465
0.011113341
-0.036700038
0.01125109
-0.041670407
0.011404393
-0.047317562
0.011573755
-0.053734666
0.011758833
-0.061027633
0.011957437
-0.069316622
0.012164253
-0.078738179
0.012372614
-0.089451019
0.012568486
-0.10163081
0.012738618
-0.11548005
0.012866081
-0.13123218
0.012935861
-0.14917101
0.013061772
-0.16965101
0.013048072
-0.19299457
0.012909144
-0.21965334
0.013033259
-0.25010918
0.013337683
-0.28487357
0.01326034
-0.32419826
0.012329775
-0.36880429
0.011116999
-0.42006143
0.0096433344
-0.47846465
0.0077740538
-0.5448742
0.0055543537
-0.62033848
0.0030298407
-0.70573679
-0.80234718
0.010040111
-0.017197135
-0.0099885626
0.01009845
-0.019520987
0.010164319
-0.022159317
0.010238565
-0.025154829
0.010322063
-0.028556109
0.010415657
-0.032418411
0.010520069
-0.036804613
0.010635733
-0.041786225
0.010762556
-0.047444519
0.010899552
-0.053871769
0.011044452
-0.061172609
0.011193365
-0.069465591
0.011339705
-0.078884603
0.011479495
-0.08959099
0.011617153
-0.10176881
0.011764672
-0.11562816
0.01194141
-0.13140984
0.012151615
-0.14938224
0.01234832
-0.16984868
0.012498099
-0.1931459
0.012570021
-0.21972793
0.012489432
-0.25003279
0.012111284
-0.28449755
0.011541832
-0.32362461
0.010882788
-0.36813318
0.0098629668
-0.41903326
0.0085549472
-0.477161
0.0069595506
-0.54327425
0.0050077982
-0.61837248
0.0027543189
-0.7034712
-0.7995907
0.010158743
-0.017231201
-0.01012543
0.010195803
-0.01955891
0.010236536
-0.022201043
0.010281084
-0.025200519
0.010329547
-0.028605886
0.010381995
-0.032472366
0.010438498
-0.036862844
0.010499208
-0.041848914
0.010564524
-0.047512094
0.010635346
-0.053945161
0.010714041
-0.061254212
0.010806052
-0.069560861
0.010919494
-0.079001632
0.011055143
-0.089730536
0.011204981
-0.10192284
0.011354664
-0.11578226
0.011482434
-0.13154223
0.011566384
-0.1494709
0.011590977
-0.16987754
0.011562614
-0.19312001
0.011431786
-0.21959363
0.011094339
-0.24968895
0.010534425
-0.28393347
0.0099096823
-0.32299248
0.0092670198
-0.36748258
0.0084361886
-0.41819389
0.0073282912
-0.47604602
0.0059677395
-0.54190339
0.0043096768
-0.61670091
0.002332928
-0.7014813
-0.7972541
0.0095216954
-0.0095163023
0.0095282548
0.0095366934
0.0095475353
0.0095614011
0.0095789839
0.0096010113
0.0096281754
0.0096610066
0.0096996974
0.0097438401
0.0097919732
0.0098442923
0.0098951489
0.0099424071
0.0099792222
0.0099987227
0.0099917805
0.0099436785
0.0098297961
0.009622609
0.0093459689
0.0090174779
0.0085745503
0.0080189432
0.0073241916
0.0064036105
0.0052174472
0.0037654176
0.0020304319
0.011748721
-0.011515223
0.0091569865
-0.0093906198
0.013518142
-0.014814863
0.013045285
0.014840373
-0.01812676
0.016804341
0.015896456
-0.021786679
0.020730381
0.016819158
-0.025974737
0.025051796
0.01767099
-0.030808773
0.029956684
0.018459819
-0.036360334
0.035571237
0.019203983
-0.042701273
0.041956832
0.019905215
-0.049985594
0.049284076
0.020540502
-0.058327734
0.05769215
0.021090893
-0.067858539
0.067307841
0.021544975
-0.078738377
0.078283994
0.021893288
-0.091149243
0.090800645
0.022123375
-0.10527163
0.10504125
0.022217181
-0.12128518
0.12119105
0.022113234
-0.13922207
0.13932562
0.02174508
-0.15887955
0.15924721
0.021008294
-0.17977335
0.18050955
0.01983074
-0.20071424
0.20189112
0.018569153
-0.22270943
0.22397029
0.01742436
-0.24898171
0.25012564
0.016278804
-0.2797774
0.28092194
0.015071187
-0.31507818
0.31628456
0.013769958
-0.35531713
0.35661691
0.012353275
-0.40103929
0.40245443
0.010802652
-0.45303115
0.45458001
0.0090937726
-0.51215427
0.5138608
0.0071985
-0.57948813
0.58138039
0.0050795632
-0.65611408
0.65822941
0.0026963291
-0.74354763
0.74592664
-0.8431347
0.84582652
0.012931893
-0.012996396
-0.011450884
0.013932511
-0.015815668
0.014759144
-0.018953604
0.015530306
-0.022558077
0.016293596
-0.026738286
0.017048003
-0.031563452
0.017775655
-0.037088269
0.018470605
-0.043396512
0.019114952
-0.050630244
0.01968673
-0.058899828
0.020174939
-0.068347074
0.020572173
-0.07913593
0.020870281
-0.091447651
0.021057253
-0.10545891
0.021114561
-0.12134285
0.020972926
-0.13908086
0.020574225
-0.15848137
0.019807387
-0.17900712
0.018630819
-0.19953839
0.017441287
-0.2215207
0.016367916
-0.24790922
0.015285249
-0.27869579
0.014142712
-0.31393692
0.01291308
-0.35408897
0.011577015
-0.3997048
0.010117651
-0.45157359
0.008512303
-0.51055133
0.0067348881
-0.57771377
0.0047501171
-0.65413293
0.0025207652
-0.74132251
-0.84061841
0.01248883
-0.013813274
-0.011672129
0.013212038
-0.016539079
0.013946725
-0.019688514
0.014710625
-0.02332222
0.015478762
-0.027506683
0.016221118
-0.032306082
0.01692215
-0.037789586
0.017578227
-0.044052887
0.018170875
-0.051223207
0.018689126
-0.059418413
0.019125974
-0.068784264
0.01947608
-0.07948637
0.019732259
-0.091704145
0.01988317
-0.10561016
0.019909508
-0.12136958
0.019738125
-0.13890993
0.019318649
-0.15806244
0.018528223
-0.17821731
0.017372831
-0.19838374
0.016265116
-0.22041377
0.015260387
-0.2469054
0.014240854
-0.27767735
0.01316585
-0.31286323
0.012011245
-0.35293587
0.010759862
-0.39845501
0.0093963996
-0.45021197
0.0078999954
-0.5090574
0.0062465544
-0.57606343
0.0044031653
-0.65229319
0.0023353646
-0.73925896
-0.83828751
0.011573948
-0.014555451
-0.010831966
0.012340744
-0.017306085
0.013116347
-0.020464347
0.013883708
-0.024089828
0.014626508
-0.028249748
0.015330434
-0.033010288
0.015987366
-0.038446812
0.016591824
-0.044657654
0.017130077
-0.051761789
0.017594857
-0.059883541
0.017981603
-0.069171369
0.018286403
-0.079791519
0.018502679
-0.091920755
0.018619159
-0.105727
0.01861048
-0.12136131
0.018413204
-0.13871313
0.01798311
-0.1576329
0.017177366
-0.17741221
0.016056698
-0.19726384
0.015030153
-0.21938803
0.014093085
-0.24596927
0.013139627
-0.27672501
0.012136044
-0.311861
0.011060941
-0.3518623
0.009899284
-0.39729497
0.0086373387
-0.44895193
0.0072560742
-0.50767867
0.005733438
-0.57454393
0.0040389777
-0.65060241
0.0021410962
-0.73736534
-0.83615084
0.010649893
-0.01534972
-0.0098558334
0.011438734
-0.018095149
0.012212343
-0.021238197
0.012962397
-0.024840139
0.01367704
-0.028964663
0.014344655
-0.03367819
0.014958296
-0.039060754
0.015511985
-0.045211663
0.015997363
-0.052247509
0.016410553
-0.060297093
0.016749261
-0.069510452
0.017010831
-0.080053454
0.017189188
-0.092099468
0.017272902
-0.10581109
0.017231274
-0.12132013
0.017014125
-0.13849649
0.016575656
-0.15719501
0.015760844
-0.17659806
0.014687262
-0.19619105
0.013743656
-0.21844526
0.012875184
-0.24510176
0.011990402
-0.27584138
0.011061484
-0.31093345
0.010069617
-0.35087199
0.009001836
-0.39622883
0.0078460024
-0.44779805
0.0065849832
-0.50642024
0.0051988465
-0.57316096
0.0036596726
-0.64906695
0.0019387643
-0.7356487
-0.83421647
0.0096930434
-0.016159852
-0.0088831282
0.010483209
-0.018885549
0.011247078
-0.022002313
0.011975122
-0.025568446
0.012655946
-0.029645763
0.013281312
-0.034303847
0.013846568
-0.039626317
0.014347606
-0.04571303
0.014780275
-0.052680531
0.015143196
-0.060660388
0.015435669
-0.069803314
0.015655965
-0.080274141
0.01579848
-0.092242375
0.015851946
-0.10586495
0.015782027
-0.12125067
0.015553164
-0.13826816
0.015106236
-0.15674867
0.014285654
-0.17577815
0.013271424
-0.19517763
0.012410451
-0.21758514
0.01161069
-0.24430299
0.0107967
-0.27502855
0.0099453562
-0.31008351
0.0090401548
-0.34996837
0.0080701325
-0.39526048
0.0070247604
-0.44675468
0.0058888183
-0.50528693
0.0046445485
-0.57191988
0.0032666147
-0.64769274
0.0017292801
-0.73411564
-0.83249153
0.008707382
-0.016979036
-0.0078884016
0.0094933914
-0.019671788
0.010237911
-0.022747081
0.010932571
-0.026263372
0.011570424
-0.030283896
0.012146955
-0.034880675
0.012659572
-0.040139249
0.013106562
-0.046160357
0.013486738
-0.05306107
0.01380048
-0.060974515
0.014048253
-0.07005149
0.014229042
-0.080455358
0.014337858
-0.092351635
0.014364258
-0.10589175
0.014272796
-0.12115967
0.014038439
-0.13803437
0.013581742
-0.15629259
0.012760096
-0.17495718
0.011815524
-0.19423387
0.011035861
-0.21680636
0.01030534
-0.24357346