/*--------------------------------*- C++ -*----------------------------------*\
| =========                 |                                                 |
| \\      /  F ield         | OpenFOAM: The Open Source CFD Toolbox           |
|  \\    /   O peration     | Version:  2406                                  |
|   \\  /    A nd           | Website:  www.openfoam.com                      |
|    \\/     M anipulation  |                                                 |
\*---------------------------------------------------------------------------*/
FoamFile
{
    version     2.0;
    format      ascii;
    arch        "LSB;label=32;scalar=64";
    class       volScalarField;
    location    "0.01";
    object      nut;
}
// * * * * * * * * * * * * * * * * * * * * * * * * * * * * * * * * * * * * * //

dimensions      [0 2 -1 0 0 0 0];

internalField   nonuniform List<scalar> 
2065
(
0.00030382546
0.00032180992
0.00033079564
0.00033743027
0.00032978961
0.00023470754
0.00028025543
0.00029666805
0.00031496081
0.00033719579
0.00028806971
0.00024848077
0.00024047395
0.00027543667
0.00033553018
0.00033252147
0.00029512955
0.00036867328
0.00036740059
0.00035676801
0.00057605043
0.00044762019
0.00078153647
0.00077794203
0.00070041082
0.0010857212
0.0012147794
0.001329781
0.0013979204
0.0014255117
0.0013386407
0.0014500226
0.0011320346
0.0012907027
0.0014396759
0.00096411202
0.0011548434
0.0013098543
0.0014723083
0.00074568671
0.00086027621
0.0010026488
0.0011616948
0.0013079053
0.00034126894
0.00031019681
0.0002512074
0.00019708414
0.00015461001
0.00012738787
0.00010883723
9.8222047e-05
9.0211358e-05
0.00034503956
0.00029112134
0.00023804618
0.00019017737
0.00015032678
0.000125901
0.00010888706
9.917206e-05
9.147465e-05
0.00033084824
0.00027064136
0.00022649893
0.00018073692
0.0001468276
0.00012470505
0.00010933932
0.00010102861
9.1017409e-05
0.00031818909
0.00025526176
0.00021747562
0.00017485196
0.00014260743
0.00012424629
0.00011000287
0.00010248313
9.1602517e-05
0.00029009043
0.00023858872
0.00020639664
0.00016558699
0.00014072855
0.00012431363
0.00011106187
0.00026948915
8.6264226e-05
7.2025533e-05
4.0023056e-05
1.4021431e-05
1.1470313e-05
2.7575604e-05
8.7039034e-05
7.0652144e-05
3.7661996e-05
1.4005382e-05
1.2603027e-05
2.5870196e-05
8.6362405e-05
6.9844612e-05
3.5108634e-05
1.3942388e-05
1.2981467e-05
2.3952713e-05
8.6897757e-05
6.8544922e-05
3.2322237e-05
1.3864588e-05
1.3439706e-05
2.2000342e-05
5.066704e-05
4.2099181e-05
2.8847411e-05
1.0857232e-05
4.9310823e-06
4.6913676e-06
5.4143539e-05
4.2511132e-05
2.8416957e-05
1.0450465e-05
4.9244814e-06
4.6226932e-06
5.492079e-05
4.3138102e-05
2.7194116e-05
9.9389025e-06
4.9406216e-06
4.7819764e-06
5.7635133e-05
4.2374083e-05
2.754522e-05
9.9446238e-06
4.9828259e-06
5.364372e-06
5.7106771e-05
4.372802e-05
2.6214252e-05
9.7083553e-06
5.0333171e-06
5.901807e-06
5.93303e-05
4.2422541e-05
2.6838965e-05
9.5854999e-06
5.1219825e-06
6.618096e-06
5.8007583e-05
4.295491e-05
2.5637716e-05
9.4115641e-06
5.2840592e-06
7.6864858e-06
5.9470675e-05
4.2080868e-05
2.5995116e-05
9.3096125e-06
5.4751273e-06
8.7102187e-06
5.8561367e-05
4.1993501e-05
2.5051773e-05
9.1201611e-06
5.7686297e-06
1.0331273e-05
5.9048892e-05
4.1782648e-05
2.4921179e-05
8.9475716e-06
6.0296729e-06
1.2154662e-05
5.8705761e-05
4.1413202e-05
2.4329348e-05
8.8098723e-06
6.3104839e-06
1.3120405e-05
5.9019428e-05
4.1367058e-05
2.4088691e-05
8.7465222e-06
6.6043849e-06
1.5286356e-05
5.8741551e-05
4.1209201e-05
2.3944454e-05
8.700548e-06
7.0418402e-06
1.8296247e-05
5.9255764e-05
4.1400524e-05
2.3933893e-05
8.6913241e-06
7.3428648e-06
1.9679484e-05
5.9641069e-05
4.1626065e-05
2.4341702e-05
8.8674419e-06
7.6309389e-06
2.1029678e-05
6.2128786e-05
4.2994261e-05
2.4964366e-05
9.012061e-06
7.9871022e-06
2.2343866e-05
6.3186833e-05
4.3752473e-05
2.5611931e-05
9.374423e-06
8.2826938e-06
2.3555037e-05
6.7378688e-05
4.6520018e-05
2.6997806e-05
9.672024e-06
8.6565198e-06
2.4638101e-05
6.8719567e-05
4.7769267e-05
2.7866892e-05
1.0244946e-05
8.8937581e-06
2.5556987e-05
7.3106565e-05
5.2233948e-05
3.0155463e-05
1.0753577e-05
9.2656558e-06
2.6324032e-05
7.4599562e-05
5.4289009e-05
3.1367714e-05
1.1469478e-05
9.4498235e-06
2.6893254e-05
7.9204283e-05
6.0646697e-05
3.4781063e-05
1.2268737e-05
9.7652091e-06
2.7319173e-05
8.096511e-05
6.3147211e-05
3.6272675e-05
1.3051529e-05
9.8557763e-06
2.757391e-05
8.5808081e-05
7.1765946e-05
4.2251927e-05
1.4164335e-05
1.0121202e-05
2.7776974e-05
0.00012139217
0.00010486013
9.4969556e-05
7.9241751e-05
6.8924854e-05
5.9071077e-05
5.5215534e-05
5.2260766e-05
5.2779361e-05
0.00012711034
0.00011351932
9.7591608e-05
8.1027717e-05
7.0332267e-05
6.0990954e-05
5.7337148e-05
5.4228609e-05
5.4662278e-05
0.00014499306
0.0001208471
0.00010545312
8.7965838e-05
7.6208008e-05
6.6480032e-05
6.2657715e-05
5.8096023e-05
5.9522067e-05
0.00015059597
0.00012618059
0.00010753146
9.0424831e-05
7.8235425e-05
6.8068806e-05
6.4184221e-05
5.9573835e-05
6.175026e-05
0.00016927077
0.00012995448
0.00011495357
9.6471464e-05
8.4095322e-05
7.3292521e-05
6.8378869e-05
6.3419011e-05
6.61888e-05
0.00016777207
0.00013569345
0.00011769032
0.00010164017
8.6179018e-05
7.4728366e-05
6.9506434e-05
6.4625854e-05
6.7592056e-05
0.00017886951
0.00013766864
0.00012680211
0.00010572436
9.0111825e-05
7.9414705e-05
7.3133941e-05
6.8048634e-05
7.1837855e-05
0.00017878824
0.00014227411
0.00013010356
0.00010909974
9.3438299e-05
8.0383181e-05
7.3854065e-05
6.8708135e-05
7.2027733e-05
0.00018337068
0.0001469757
0.00013815662
0.0001129452
9.6018064e-05
8.3745316e-05
7.6576277e-05
7.0477824e-05
7.3703256e-05
0.00019448457
0.0001530547
0.00014391539
0.00011707857
9.8270912e-05
8.491389e-05
7.6688195e-05
7.0864817e-05
7.3835872e-05
0.00020098001
0.00015808834
0.00014450701
0.0001170198
9.8404504e-05
8.5251121e-05
7.8007866e-05
7.1696854e-05
7.4661653e-05
0.00020271878
0.00016603927
0.00014982232
0.00012048324
0.00010229276
8.7757697e-05
7.9759652e-05
7.2316967e-05
7.4844021e-05
0.00021830208
0.00017291633
0.00015362598
0.00012277739
0.00010362888
8.8123719e-05
7.9770405e-05
7.2504893e-05
7.4861704e-05
0.00021879593
0.00017862764
0.00015785956
0.00012295336
0.00010366481
8.894425e-05
8.0103091e-05
7.2745918e-05
7.4640936e-05
0.00023081414
0.00018170831
0.00015939496
0.0001284079
0.00010628275
8.9771825e-05
8.0568513e-05
7.3403434e-05
7.4652909e-05
0.00023545481
0.00019732836
0.00016751539
0.000131551
0.00010764907
9.2324345e-05
8.2127093e-05
7.4424816e-05
7.5018054e-05
0.00025566993
0.00020228408
0.00016992154
0.00013631467
0.00010963152
9.382834e-05
8.3210884e-05
7.5697542e-05
7.5655384e-05
0.00026303353
0.00021859637
0.00017743106
0.0001416929
0.00011510871
9.8020727e-05
8.605417e-05
7.7538436e-05
7.6610596e-05
0.00028295285
0.00022569421
0.00018681593
0.00014977443
0.00011806905
0.00010050593
8.7769677e-05
7.926318e-05
7.7048816e-05
0.00029459895
0.00024704649
0.00019649528
0.00015888635
0.00012533359
0.00010556118
9.168843e-05
8.2049727e-05
7.9234244e-05
0.00031307329
0.00025592212
0.00020745688
0.00016510961
0.00012946063
0.00010901233
9.3977061e-05
8.4057741e-05
8.0476686e-05
0.00033552268
0.0002808592
0.00022346298
0.00017790009
0.00013885123
0.00011520607
9.8845396e-05
8.8393613e-05
8.3831031e-05
0.00034238064
0.00029077469
0.00023281859
0.00018403498
0.00014363971
0.0001187731
0.00010158401
9.0782131e-05
8.5368774e-05
0.00034619708
0.00031687485
0.00026033353
0.00020398441
0.00015716374
0.00012821574
0.00010891645
9.6890784e-05
8.9312299e-05
8.7272478e-05
0.0003413184
0.00029682655
0.00023585742
0.00018201457
0.00014674639
8.9718508e-05
0.00032552635
0.00030480358
0.00025884676
0.0002000418
0.00015585821
8.9786076e-05
0.00032792302
0.00030407906
0.00026322727
0.00019892535
0.0001585764
9.3456457e-05
0.00030478987
0.00030905116
0.00028844788
0.00022021722
0.00018204861
9.4217865e-05
0.00031416811
0.00032181142
0.00029529227
0.00022021992
0.00018326714
9.8453041e-05
0.00029082288
0.00032919262
0.00032249405
0.00023944251
0.00020110807
0.0001004095
0.00029576511
0.00033305978
0.00032836142
0.00024451067
0.00020241986
0.00010592653
0.00026405541
0.00034532672
0.00035192765
0.00026654928
0.00022201129
0.00010735915
0.00024832086
0.00034651452
0.00035839645
0.00027060215
0.00022965419
0.00011326314
0.0002253461
0.00033820253
0.00035979264
0.00028445309
0.00023790708
0.00011853096
0.00022116827
0.00034170643
0.00038602512
0.00030956248
0.00025961892
0.0001204534
0.00021692317
0.00034214229
0.00038956317
0.00030833023
0.00025956767
0.00012650558
0.00021585285
0.00034872217
0.00039412342
0.00032691342
0.00027192009
0.00013481023
0.0001957896
0.00033023528
0.00039216021
0.00034299139
0.00027810293
0.00013933338
0.00019894316
0.00034130422
0.00040654167
0.00034830872
0.00028427149
0.00014343571
0.00017991082
0.00030350379
0.00038730139
0.00036502119
0.00029502225
0.00014681522
0.00018687924
0.00033861325
0.00039679811
0.00037557513
0.00031188252
0.00014825038
0.00017823867
0.00029954926
0.00037703283
0.00039687502
0.00032754563
0.00014787726
0.00015851558
0.00029296842
0.00037070506
0.00039371023
0.00034317412
0.00014627477
0.00016522208
0.00023633371
0.00032517379
0.00039981587
0.00035624426
0.0001383653
0.00015424745
0.00024501933
0.00031162309
0.00037364675
0.00037410449
0.00010918678
0.0001612048
0.00019097307
0.0002693797
0.00036993479
0.00037456217
6.2243752e-05
0.00019575607
0.00019201167
0.00022855948
0.00030711955
0.00036715993
3.5470268e-05
0.0002012018
0.00022633433
0.00019842396
0.00025916482
0.00034402031
3.3880103e-05
0.00023626069
0.00023929173
0.00023679926
0.00022357906
0.00026867665
2.700554e-05
0.00024185049
0.00028458268
0.00026207934
0.00026031454
0.00024352794
2.0137873e-05
0.00015525247
0.00029007657
0.00029399855
0.00030888629
0.00029820029
3.301017e-05
0.0001168436
0.00029739699
0.00035076018
0.0003629255
0.00033484391
5.2646641e-05
0.00015163814
0.0003499122
0.00049134123
0.00058723788
0.00040997242
7.2761028e-05
0.00021678671
0.00048617718
0.00067332572
0.000785221
0.00065822627
9.0388946e-05
0.00029729129
0.00065096219
0.00086646169
0.00098553516
0.00088839124
0.00010540597
0.00040415413
0.00080489165
0.00099915626
0.0010623564
0.00094368533
0.00011284607
0.00052721961
0.00092860758
0.0010605665
0.0010017122
0.00086484151
0.0001205345
0.0006374633
0.0010148213
0.0010360135
0.00089299099
0.00073908273
0.00012698641
0.00072298011
0.0010673764
0.00099099311
0.00080032033
0.00063737378
0.00013229565
0.00077631422
0.0011103863
0.00098365013
0.00077101514
0.00060325393
0.00013384351
0.00081777972
0.0011495281
0.001031967
0.00083550402
0.00066311949
0.00013126709
0.00083746926
0.0012006733
0.0011099975
0.00094741003
0.00080350287
0.00012545682
0.00082451037
0.0012230394
0.0011988965
0.0010939511
0.00097725136
0.00011735802
0.00077264507
0.0012122495
0.0012644061
0.0012022359
0.0011467562
0.00010292082
0.00068385481
0.0011510433
0.0013271182
0.0013069503
0.0012439395
8.8707841e-05
0.00053997933
0.0010207926
0.0012770075
0.0013673781
0.0013673108
7.8504697e-05
0.0003219054
0.00081588582
0.0011423518
0.0012910843
0.0013561873
6.0219622e-05
0.0001535717
0.00044352492
0.00082730765
0.0011077337
0.0012329298
3.4945782e-05
9.5325236e-05
0.00026318023
0.00047312816
0.00069201872
0.00090368694
2.6057574e-05
9.1657469e-05
0.00019766134
0.00036345099
0.00059115634
0.00076930973
2.9118685e-05
0.00012357406
0.00024343304
0.00042003247
0.00061433472
0.00064123251
3.1723432e-05
0.00015856761
0.00029628462
0.00048309061
9.8527919e-05
0.00031542084
0.00028798894
0.00023628419
9.4643506e-05
0.0003214301
0.00028961265
0.00023646471
0.00016890819
0.0001378038
8.8311027e-05
0.00033036463
0.00028306957
0.00022061076
0.00017032236
0.00013713706
8.3947952e-05
0.00032692644
0.00028737273
0.00021379911
0.00015756109
0.00013021293
7.8997586e-05
0.0003304667
0.00028330881
0.00021730365
0.00015983097
0.00012765782
7.4405753e-05
0.00032378232
0.00027401953
0.00020459329
0.00015244642
0.0001271548
7.0504917e-05
0.00032084708
0.00027918369
0.00020862398
0.00015452143
0.00012328052
6.5024803e-05
0.00031967394
0.00026645703
0.00019457383
0.00016104425
0.00013013507
6.1634191e-05
0.00031348274
0.00027521484
0.00020088909
0.00015059623
0.0001249481
5.7499013e-05
0.00030494494
0.00028226823
0.00020755195
0.00016663325
0.00013386512
5.4642458e-05
0.00031107789
0.00030115464
0.00021216027
0.00016034502
0.00012754233
4.9309255e-05
0.00028615226
0.00033343702
0.00023128653
0.00016764831
0.00013127807
5.0791103e-05
0.00032367136
0.00032646211
0.0002004428
0.00014580024
0.00012404015
5.0122166e-05
0.00033675237
0.00034006727
0.00021215533
0.00015447909
0.0001261564
5.7007932e-05
0.00035438404
0.00031531645
0.00021331342
0.00015497702
0.00012340954
5.9441794e-05
0.00034778388
0.00030235495
0.000202169
0.00014668488
0.00012149288
5.9046792e-05
0.00032978737
0.00030280442
0.00022207
0.00016387397
0.00012901286
6.2175932e-05
0.00033248125
0.00029248603
0.00020750485
0.0001573525
0.0001295955
6.4760956e-05
0.00032730808
0.00029350172
0.00021166009
0.00016805855
0.00013211685
6.8296364e-05
0.0003318505
0.00028879638
0.00020549633
0.00015533195
0.0001243074
7.1477273e-05
0.00033298818
0.00027576262
0.0002047607
0.00016467113
0.00013026499
7.667604e-05
0.00033368662
0.00028466993
0.00022432569
0.00016307268
0.00012665178
7.9919382e-05
0.00034159465
0.00028483685
0.00021787097
0.00016065314
0.00013673798
8.590753e-05
0.00033815345
0.00028577469
0.00023380857
0.00018165703
0.00014770926
3.6185065e-05
0.00018889701
4.6783035e-05
0.00011028045
0.00010572792
0.00030483573
0.00014155877
0.00013619814
0.00011171905
0.00011453483
0.00010793029
0.00011329857
0.0001154307
0.00010390821
0.00010577079
0.00010679328
0.00010187565
0.00010288192
0.00010387733
0.00010158832
0.00010772648
0.00010742314
0.00011117443
0.00011000783
0.00011679557
0.00011942659
0.00012059619
0.00012931065
0.00012591411
0.00010176122
0.00011758384
9.0071448e-05
9.7576888e-05
8.7506689e-05
9.2512204e-05
9.0572955e-05
8.9419359e-05
9.1306275e-05
8.5535084e-05
8.2884096e-05
8.5541971e-05
8.9312501e-05
8.6029674e-05
8.8602211e-05
8.7315701e-05
9.5236643e-05
9.3094171e-05
0.00010783012
0.00010058116
0.00011182462
0.00010513146
0.00010954952
8.2247278e-05
8.7634116e-05
7.6724996e-05
7.7847058e-05
7.5066517e-05
7.6948284e-05
7.4900315e-05
7.2885255e-05
7.6906236e-05
7.4013973e-05
7.0617244e-05
6.933357e-05
7.2325817e-05
7.0157947e-05
7.23697e-05
7.2766251e-05
7.989049e-05
7.8810331e-05
8.297919e-05
8.1913412e-05
8.7068881e-05
8.5939705e-05
8.6212816e-05
7.1168731e-05
7.2312276e-05
6.7153716e-05
6.9322521e-05
6.7261948e-05
6.5620485e-05
6.6469726e-05
6.2788592e-05
6.3709512e-05
6.773462e-05
6.2834769e-05
6.227946e-05
6.1302811e-05
6.1296829e-05
6.3719106e-05
6.5276955e-05
7.0200941e-05
6.9701961e-05
7.01211e-05
7.1206625e-05
7.1695721e-05
7.6313707e-05
7.7526249e-05
6.1859068e-05
6.067632e-05
5.7763406e-05
5.7779612e-05
5.4748943e-05
5.6669717e-05
5.5562382e-05
5.658885e-05
5.5985222e-05
5.6369674e-05
5.4835963e-05
5.3845071e-05
5.3648163e-05
5.2801561e-05
5.5789569e-05
6.0714631e-05
5.9768374e-05
6.0155211e-05
6.0065002e-05
5.9700948e-05
6.0078885e-05
6.3146231e-05
6.4509716e-05
5.7445348e-05
5.3226655e-05
5.3058033e-05
5.0366111e-05
4.9577373e-05
5.1403543e-05
5.027725e-05
5.1488839e-05
5.0633214e-05
4.9846161e-05
5.0389123e-05
4.8863686e-05
4.7466476e-05
4.7935054e-05
5.1571243e-05
5.2708625e-05
5.333414e-05
5.3374609e-05
5.4978115e-05
5.4899769e-05
5.5030361e-05
5.7129972e-05
5.9323031e-05
4.9017296e-05
4.8360514e-05
4.7175265e-05
4.7591491e-05
4.7185318e-05
4.5952485e-05
4.6671569e-05
4.6010977e-05
4.7639231e-05
4.5904199e-05
4.6035755e-05
4.6039168e-05
4.3455469e-05
4.4706951e-05
4.7433538e-05
4.7044322e-05
4.707179e-05
4.7617389e-05
4.9110836e-05
5.1552054e-05
5.2075129e-05
5.2155099e-05
5.2810979e-05
4.5668241e-05
4.5989884e-05
4.3714792e-05
4.4776083e-05
4.2803774e-05
4.3336932e-05
4.4603516e-05
4.3286518e-05
4.3249078e-05
4.3775153e-05
4.390514e-05
4.270634e-05
4.1876243e-05
4.4131747e-05
4.3245288e-05
4.3493368e-05
4.3852707e-05
4.5065192e-05
4.5894965e-05
4.8179559e-05
5.0916602e-05
5.0184855e-05
5.0325445e-05
4.3262113e-05
4.2380407e-05
4.1194473e-05
4.1487498e-05
4.1349866e-05
4.2132926e-05
4.1384324e-05
4.0905674e-05
4.111715e-05
4.2733399e-05
4.1391522e-05
4.0986001e-05
4.0754335e-05
4.074562e-05
4.1226056e-05
4.0917502e-05
4.1396603e-05
4.2747222e-05
4.4010972e-05
4.4098202e-05
4.5100314e-05
4.5894666e-05
4.5771982e-05
3.99571e-05
4.0549871e-05
3.9964703e-05
4.0106745e-05
3.9748647e-05
3.9802752e-05
4.021401e-05
3.9619026e-05
4.0073106e-05
4.050772e-05
4.040566e-05
3.9476717e-05
3.9306937e-05
3.958513e-05
3.9316621e-05
3.9614741e-05
4.052125e-05
4.1097794e-05
4.2265866e-05
4.22944e-05
4.2236467e-05
4.2984865e-05
4.3935966e-05
3.8484703e-05
3.9934078e-05
3.8817338e-05
3.8803725e-05
3.8934556e-05
3.8945994e-05
3.8921121e-05
3.8907356e-05
3.9549825e-05
3.8947508e-05
3.917542e-05
3.8815963e-05
3.8799235e-05
3.8863837e-05
3.8705377e-05
3.917988e-05
4.0492095e-05
4.0085865e-05
4.0226835e-05
4.046586e-05
4.0601719e-05
4.0857962e-05
4.1194142e-05
3.7980539e-05
3.8760381e-05
3.8424569e-05
3.8329219e-05
3.8476931e-05
3.8398064e-05
3.849503e-05
3.8678152e-05
3.8822186e-05
3.8301118e-05
3.8700828e-05
3.8414229e-05
3.8300913e-05
3.8492034e-05
3.8374427e-05
3.8460953e-05
3.8807791e-05
3.887237e-05
3.9157189e-05
3.953704e-05
3.9618014e-05
3.986719e-05
3.9807081e-05
3.7677176e-05
3.851719e-05
3.8196946e-05
3.8039371e-05
3.7933781e-05
3.8070478e-05
3.8295272e-05
3.8049022e-05
3.8138441e-05
3.7977399e-05
3.8026029e-05
3.8224267e-05
3.8057163e-05
3.8171296e-05
3.8083578e-05
3.7893274e-05
3.8156639e-05
3.8209363e-05
3.8431565e-05
3.8686758e-05
3.9000839e-05
3.899646e-05
3.7384798e-05
3.8264349e-05
3.7895191e-05
3.7867019e-05
3.7834349e-05
3.7789334e-05
3.7952608e-05
3.7767589e-05
3.7848017e-05
3.7663951e-05
3.7680051e-05
3.7796585e-05
3.7967873e-05
3.797836e-05
3.7723074e-05
3.7663716e-05
3.7815397e-05
3.79421e-05
3.818473e-05
3.8268701e-05
3.8284398e-05
3.836439e-05
3.7360916e-05
3.8262745e-05
3.7793914e-05
3.7682496e-05
3.7666021e-05
3.7619067e-05
3.758025e-05
3.7641941e-05
3.7682565e-05
3.7489401e-05
3.7732116e-05
3.7656327e-05
3.7674062e-05
3.7873301e-05
3.7579593e-05
3.7466507e-05
3.7685129e-05
3.7782742e-05
3.7867499e-05
3.8077747e-05
3.8051473e-05
3.8074974e-05
3.7357233e-05
3.7806093e-05
3.7554549e-05
3.7509262e-05
3.7490284e-05
3.7595273e-05
3.7558878e-05
3.7382898e-05
3.7576935e-05
3.7430114e-05
3.7503537e-05
3.7562049e-05
3.7460574e-05
3.7473712e-05
3.7360149e-05
3.743275e-05
3.7573394e-05
3.7613751e-05
3.7724975e-05
3.7759958e-05
3.7958132e-05
3.7798101e-05
3.7254636e-05
3.7712129e-05
3.7419854e-05
3.7535942e-05
3.7565573e-05
3.7542111e-05
3.7539723e-05
3.7535076e-05
3.7523888e-05
3.7524504e-05
3.7597252e-05
3.7416227e-05
3.7377718e-05
3.7517862e-05
3.7515262e-05
3.7655836e-05
3.7705017e-05
3.7645531e-05
3.770053e-05
3.7649615e-05
3.7681365e-05
3.7771333e-05
3.7451113e-05
3.7638721e-05
3.7570036e-05
3.749567e-05
3.7560504e-05
3.7497234e-05
3.7657045e-05
3.7595746e-05
3.7648248e-05
3.762365e-05
3.7552376e-05
3.7526557e-05
3.7539674e-05
3.7515464e-05
3.7691205e-05
3.7657123e-05
3.7664237e-05
3.762188e-05
3.763656e-05
3.7673505e-05
3.7544638e-05
3.7573005e-05
3.7497011e-05
3.7765796e-05
3.7640315e-05
3.768572e-05
3.7664464e-05
3.7653541e-05
3.7709619e-05
3.7654932e-05
3.7692828e-05
3.7595334e-05
3.7630783e-05
3.763506e-05
3.7764075e-05
3.7675485e-05
3.7801427e-05
3.7704268e-05
3.7719886e-05
3.7720813e-05
3.7595193e-05
3.7617929e-05
3.7668221e-05
3.7643247e-05
3.7740969e-05
3.7755692e-05
3.7694437e-05
3.7704367e-05
3.772484e-05
3.7714952e-05
3.7805473e-05
3.7776308e-05
3.7828059e-05
3.7783632e-05
3.7857041e-05
3.7802572e-05
3.7822429e-05
3.7802628e-05
3.7786237e-05
3.791655e-05
3.7775251e-05
3.7743221e-05
3.7806363e-05
3.7808455e-05
3.7857404e-05
3.7813706e-05
3.78639e-05
3.8014371e-05
3.7925946e-05
3.7956066e-05
3.7931142e-05
3.794763e-05
3.7930995e-05
3.7867406e-05
3.7888026e-05
3.7899724e-05
3.794411e-05
3.7986251e-05
3.8082569e-05
3.8033652e-05
3.8032824e-05
3.7885418e-05
3.7953029e-05
3.796395e-05
3.7985998e-05
3.8002269e-05
3.7924135e-05
3.7867104e-05
3.8182365e-05
3.8118059e-05
3.8127648e-05
3.8226811e-05
3.8273248e-05
3.8212177e-05
3.8208074e-05
3.8175822e-05
3.8227871e-05
3.8224234e-05
3.8273221e-05
3.8229173e-05
3.8161295e-05
3.8149237e-05
3.8136598e-05
3.8187557e-05
3.8229181e-05
3.8212801e-05
3.8152842e-05
3.8121631e-05
3.8186863e-05
3.8203595e-05
3.8393077e-05
3.8516888e-05
3.8481555e-05
3.8394475e-05
3.8308869e-05
3.8328008e-05
3.8326279e-05
3.8358204e-05
3.8424076e-05
3.8432589e-05
3.8488636e-05
3.849202e-05
3.8569616e-05
3.8544764e-05
3.8575419e-05
3.853152e-05
3.8496331e-05
3.8439729e-05
3.8497825e-05
3.8472892e-05
3.8396594e-05
3.8399247e-05
3.8766097e-05
3.8697031e-05
3.8703319e-05
3.8760642e-05
3.8823323e-05
3.8823315e-05
3.8875389e-05
3.8860187e-05
3.8875744e-05
3.8853108e-05
3.8790429e-05
3.872066e-05
3.8711476e-05
3.8732561e-05
3.8768576e-05
3.8763232e-05
3.877299e-05
3.8775343e-05
3.8713207e-05
3.8736741e-05
3.8801304e-05
3.8791759e-05
3.9108913e-05
3.920643e-05
3.9192594e-05
3.9217907e-05
3.9252723e-05
3.9247337e-05
3.9239631e-05
3.9216918e-05
3.9156558e-05
3.9152331e-05
3.9221261e-05
3.925013e-05
3.9289425e-05
3.9237372e-05
3.9221412e-05
3.9224863e-05
3.9234276e-05
3.9282106e-05
3.9286817e-05
3.9248718e-05
3.9151009e-05
3.9091173e-05
3.9631279e-05
3.9558182e-05
3.9586981e-05
3.959665e-05
3.9632852e-05
3.9638298e-05
3.9647037e-05
3.9664908e-05
3.9713656e-05
3.9709297e-05
3.9673057e-05
3.9662973e-05
3.9610188e-05
3.9610679e-05
3.9584651e-05
3.9602724e-05
3.9612966e-05
3.959658e-05
3.9606334e-05
3.96247e-05
3.9649709e-05
3.967018e-05
4.0167681e-05
4.0224643e-05
4.0221227e-05
4.0208201e-05
4.0190439e-05
4.0211681e-05
4.019238e-05
4.0189659e-05
4.0192323e-05
4.0203895e-05
4.0242273e-05
4.0240405e-05
4.0295012e-05
4.029092e-05
4.0298286e-05
4.0264663e-05
4.0229561e-05
4.0234271e-05
4.0222597e-05
4.0219664e-05
4.0207366e-05
4.0169954e-05
4.0879002e-05
4.084308e-05
4.0854993e-05
4.087414e-05
4.0886315e-05
4.0878228e-05
4.0903772e-05
4.0913642e-05
4.0918374e-05
4.0923824e-05
4.0907522e-05
4.0909233e-05
4.087644e-05
4.0877002e-05
4.0864494e-05
4.0876452e-05
4.0892372e-05
4.0880328e-05
4.0868332e-05
4.0865882e-05
4.0874559e-05
4.0900411e-05
4.1720707e-05
4.1746998e-05
4.1749373e-05
4.1748635e-05
4.1750146e-05
4.1756839e-05
4.1753207e-05
4.1754805e-05
4.1751558e-05
4.1749326e-05
4.1757809e-05
4.1760434e-05
4.1782905e-05
4.1787264e-05
4.180092e-05
4.1790369e-05
4.1773086e-05
4.1774047e-05
4.1772605e-05
4.1765196e-05
4.1747834e-05
4.1726524e-05
4.2817633e-05
4.2813409e-05
4.2825261e-05
4.2832776e-05
4.2844256e-05
4.2848387e-05
4.2853282e-05
4.2856162e-05
4.2861625e-05
4.2860163e-05
4.2852807e-05
4.2847675e-05
4.2830986e-05
4.2824287e-05
4.280711e-05
4.2813416e-05
4.2826358e-05
4.2825401e-05
4.2822094e-05
4.2823791e-05
4.282952e-05
4.283162e-05
4.422277e-05
4.4221147e-05
4.421827e-05
4.4218859e-05
4.4218404e-05
4.4221539e-05
4.4225246e-05
4.4229202e-05
4.4231663e-05
4.4235729e-05
4.4240347e-05
4.4240718e-05
4.4244782e-05
4.4245794e-05
4.425035e-05
4.4245301e-05
4.4237741e-05
4.4237458e-05
4.4236541e-05
4.4231076e-05
4.4224803e-05
4.4223631e-05
5.0862469e-05
5.0367585e-05
5.2785725e-05
5.4745821e-05
6.3655852e-05
7.2280258e-05
8.4804744e-05
9.5900938e-05
0.00011183308
4.8915134e-05
4.8193534e-05
4.9743064e-05
5.1315477e-05
5.8950589e-05
6.5016635e-05
7.4736604e-05
8.1836898e-05
8.7930031e-05
4.7560836e-05
4.6987356e-05
4.8128981e-05
4.7580175e-05
5.4823337e-05
6.0881401e-05
6.8921978e-05
7.3777627e-05
7.2581713e-05
4.5044632e-05
4.4533555e-05
4.5514287e-05
4.5358751e-05
5.2233815e-05
5.4981104e-05
5.8671491e-05
6.038099e-05
6.8530584e-05
4.3655214e-05
4.3205768e-05
4.4175723e-05
4.2675801e-05
4.7647992e-05
5.2134974e-05
5.4419806e-05
5.4415156e-05
5.8763339e-05
4.1592515e-05
4.11858e-05
4.1973403e-05
4.1725864e-05
4.5882964e-05
4.7209465e-05
4.885854e-05
4.9807196e-05
5.5824667e-05
4.0511097e-05
4.0281013e-05
4.0698659e-05
3.9376038e-05
4.2910254e-05
4.539474e-05
4.7007511e-05
4.7043599e-05
4.8733892e-05
3.874723e-05
3.8846064e-05
3.9348316e-05
3.8619525e-05
4.124424e-05
4.1740434e-05
4.1387625e-05
4.5924297e-05
4.6174697e-05
3.8114365e-05
3.8363673e-05
3.8659852e-05
3.8047352e-05
3.9572111e-05
4.0529347e-05
3.9368269e-05
4.1091281e-05
4.1969269e-05
3.6982678e-05
3.7413117e-05
3.7709019e-05
3.7851218e-05
3.8818183e-05
3.8957349e-05
3.8532833e-05
3.9898648e-05
4.0085369e-05
3.6965368e-05
3.7138587e-05
3.7466758e-05
3.7718835e-05
3.7755461e-05
3.8326922e-05
3.8208939e-05
3.9022082e-05
3.9317454e-05
3.6659838e-05
3.7033534e-05
3.7297966e-05
3.76558e-05
3.7613625e-05
3.8132202e-05
3.7699985e-05
3.8768382e-05
3.8408181e-05
3.6670338e-05
3.6931653e-05
3.7215018e-05
3.7561832e-05
3.7564215e-05
3.7970154e-05
3.746294e-05
3.831449e-05
3.8074694e-05
3.6876912e-05
3.7098662e-05
3.7245387e-05
3.7598197e-05
3.7529096e-05
3.768692e-05
3.7234941e-05
3.8201591e-05
3.7899478e-05
3.7034492e-05
3.7232636e-05
3.7507242e-05
3.7591811e-05
3.7551909e-05
3.7581055e-05
3.7311814e-05
3.7999973e-05
3.7712595e-05
3.7236602e-05
3.7556296e-05
3.7707254e-05
3.7673548e-05
3.7529708e-05
3.7534696e-05
3.734361e-05
3.7766921e-05
3.757334e-05
3.7344931e-05
3.7628254e-05
3.7700342e-05
3.7650458e-05
3.7503536e-05
3.7444483e-05
3.7370433e-05
3.7592374e-05
3.7488712e-05
3.7352311e-05
3.7544182e-05
3.7593344e-05
3.7557183e-05
3.7549402e-05
3.7554088e-05
3.75074e-05
3.7680593e-05
3.7547667e-05
3.7347353e-05
3.7499215e-05
3.7547343e-05
3.7520977e-05
3.7540863e-05
3.7577135e-05
3.7513915e-05
3.7658246e-05
3.7566805e-05
3.750234e-05
3.7581201e-05
3.772342e-05
3.7756883e-05
3.778103e-05
3.7816392e-05
3.7686967e-05
3.7859167e-05
3.7759457e-05
3.7828948e-05
3.7943958e-05
3.7937101e-05
3.7923789e-05
3.7873191e-05
3.7899032e-05
3.7876957e-05
3.7890116e-05
3.7888645e-05
3.809929e-05
3.8164747e-05
3.8234432e-05
3.8217643e-05
3.8237244e-05
3.8221026e-05
3.8163189e-05
3.8223572e-05
3.8189068e-05
3.8273965e-05
3.8343815e-05
3.8397182e-05
3.8370732e-05
3.8368263e-05
3.8377945e-05
3.837281e-05
3.8363001e-05
3.8397315e-05
3.8697741e-05
3.8822933e-05
3.8807593e-05
3.8828032e-05
3.8876351e-05
3.8890382e-05
3.8790747e-05
3.8853623e-05
3.8766979e-05
3.9170542e-05
3.9155676e-05
3.9127366e-05
3.9111783e-05
3.9048778e-05
3.903109e-05
3.9110531e-05
3.9040131e-05
3.9097296e-05
3.9585035e-05
3.9610641e-05
3.9666835e-05
3.9647192e-05
3.9651452e-05
3.9668851e-05
3.96009e-05
3.9681864e-05
3.9641145e-05
4.0135518e-05
4.0128636e-05
4.0103315e-05
4.0098185e-05
4.0101755e-05
4.0089738e-05
4.0123624e-05
4.008401e-05
4.012813e-05
4.0863429e-05
4.0903541e-05
4.0913362e-05
4.0924454e-05
4.092577e-05
4.0938575e-05
4.0899718e-05
4.0915059e-05
4.088376e-05
4.1751648e-05
4.170064e-05
4.1683526e-05
4.1682372e-05
4.1675016e-05
4.1661834e-05
4.1679651e-05
4.1666648e-05
4.1695554e-05
4.278087e-05
4.2827921e-05
4.2836683e-05
4.283342e-05
4.2836386e-05
4.2841586e-05
4.2828624e-05
4.2829427e-05
4.2812688e-05
4.4251768e-05
4.4217416e-05
4.4210087e-05
4.4209318e-05
4.4206892e-05
4.4203124e-05
4.4207431e-05
4.4208016e-05
4.4212266e-05
4.9547835e-05
4.6997375e-05
4.5781635e-05
4.2875193e-05
4.1491229e-05
3.9230906e-05
3.845967e-05
3.6422295e-05
3.636415e-05
3.5028976e-05
3.5048566e-05
3.4591649e-05
3.464544e-05
3.479182e-05
3.512943e-05
3.5244226e-05
3.5916803e-05
3.6087203e-05
3.631844e-05
3.6637213e-05
3.7055922e-05
3.7477826e-05
3.7949102e-05
3.837724e-05
3.892765e-05
3.9376345e-05
4.0136026e-05
4.0718165e-05
4.1856423e-05
4.2685421e-05
4.4317032e-05
4.2209654e-05
3.8764823e-05
3.8107886e-05
3.5507399e-05
3.4974694e-05
3.3039158e-05
3.2712645e-05
3.0893268e-05
3.0655673e-05
2.9517739e-05
2.9456178e-05
2.8999334e-05
2.9197008e-05
2.9254568e-05
2.9920757e-05
3.056705e-05
3.0857371e-05
3.1405425e-05
3.2623287e-05
3.3329915e-05
3.4077754e-05
3.4839282e-05
3.5874207e-05
3.6676612e-05
3.7430603e-05
3.8163701e-05
3.9605123e-05
4.0085132e-05
4.1757568e-05
4.2546045e-05
4.4381052e-05
2.9904628e-05
2.6964008e-05
2.6371424e-05
2.4563398e-05
2.3944175e-05
2.2020488e-05
2.1475495e-05
2.0048309e-05
1.9669399e-05
1.8538755e-05
1.8417397e-05
1.7999002e-05
1.8206494e-05
1.8320747e-05
1.9011431e-05
1.9972429e-05
2.0434816e-05
2.1334716e-05
2.2918195e-05
2.4085878e-05
2.5556772e-05
2.6525287e-05
2.791187e-05
2.9276201e-05
3.1281234e-05
3.268747e-05
3.5431593e-05
3.7072736e-05
3.9386593e-05
4.1690463e-05
4.4335253e-05
1.1177365e-05
1.0316479e-05
9.8497969e-06
9.2675162e-06
8.7160014e-06
8.1006683e-06
7.6646625e-06
7.2564364e-06
7.0278933e-06
6.6611259e-06
6.5534294e-06
6.4298378e-06
6.4338371e-06
6.5038223e-06
6.6558991e-06
6.9076157e-06
7.2719569e-06
7.6036553e-06
8.539937e-06
9.4694226e-06
1.0472122e-05
1.1326593e-05
1.2502318e-05
1.3873019e-05
1.611697e-05
1.7594253e-05
2.0924373e-05
2.3202223e-05
2.8444767e-05
3.3400009e-05
4.1857362e-05
4.8004138e-06
4.6275545e-06
4.5081888e-06
4.3797303e-06
4.2771282e-06
4.141377e-06
4.0187094e-06
3.871415e-06
3.7419319e-06
3.5468433e-06
3.3507009e-06
3.1492203e-06
2.9536606e-06
2.7567547e-06
2.5390536e-06
2.2498713e-06
2.0306034e-06
1.8140643e-06
1.6302793e-06
1.5145046e-06
1.4659158e-06
1.4718543e-06
1.5472461e-06
1.6883516e-06
2.1727444e-06
2.5950074e-06
3.5096579e-06
4.550426e-06
6.8207348e-06
1.0553755e-05
2.0157765e-05
4.4416737e-06
4.2415549e-06
4.0529923e-06
3.9262647e-06
3.9027166e-06
3.974085e-06
4.1932599e-06
4.5587072e-06
5.0093155e-06
5.3890502e-06
5.5841215e-06
5.6738432e-06
5.6072584e-06
5.4162615e-06
4.6846262e-06
3.7960794e-06
3.2916628e-06
2.7318213e-06
2.068376e-06
1.5040452e-06
1.102917e-06
7.3087654e-07
4.8584535e-07
2.9884957e-07
1.8596013e-07
1.3110021e-07
9.5852802e-08
9.4618341e-08
1.209327e-07
2.7291501e-07
9.4995097e-07
)
;

boundaryField
{
    Side1
    {
        type            empty;
    }
    Inlet
    {
        type            calculated;
        value           uniform 4.5144061e-05;
    }
    Side2
    {
        type            empty;
    }
    Outlet
    {
        type            zeroGradient;
    }
    Botwall
    {
        type            nutkWallFunction;
        blending        stepwise;
        value           uniform 0;
    }
    Cyli
    {