/*--------------------------------*- C++ -*----------------------------------*\
| =========                 |                                                 |
| \\      /  F ield         | OpenFOAM: The Open Source CFD Toolbox           |
|  \\    /   O peration     | Version:  2406                                  |
|   \\  /    A nd           | Website:  www.openfoam.com                      |
|    \\/     M anipulation  |                                                 |
\*---------------------------------------------------------------------------*/
FoamFile
{
    version     2.0;
    format      ascii;
    arch        "LSB;label=32;scalar=64";
    class       volScalarField;
    location    "0.01";
    object      nut;
}
// * * * * * * * * * * * * * * * * * * * * * * * * * * * * * * * * * * * * * //

dimensions      [0 2 -1 0 0 0 0];

internalField   nonuniform List<scalar> 
2065
(
0.0012973341
0.0015452091
0.0017995303
0.0020531456
0.0023070329
0.00069826396
0.00083573906
0.00099426129
0.0011790773
0.0013883088
0.00056797551
0.00067023276
0.00079179303
0.0009409551
0.00097919957
0.0011582567
0.0013338361
0.0017601544
0.0020078922
0.0022510209
0.0025726767
0.0028901394
0.0032327883
0.0037281616
0.0040828688
0.0034338406
0.0028535471
0.002123651
0.0013210509
0.0014568024
0.00065455572
0.00074722987
0.00045978176
0.00054290536
0.00064990055
0.00072456894
0.00087439575
0.001051976
0.0012591249
0.0013390511
0.0015972936
0.001895748
0.0022289536
0.0025934453
0.0030611626
0.005306472
0.0085121864
0.012218583
0.015556735
0.017540281
0.017701237
0.01632749
0.014104684
0.0032629415
0.0055300234
0.0086548216
0.012220796
0.015403951
0.017241531
0.017325655
0.015928026
0.013719691
0.0034795895
0.0057479465
0.008808619
0.012248703
0.015269256
0.01693459
0.016935631
0.015516084
0.013328598
0.0037010102
0.0059592554
0.0089482312
0.012259887
0.015114104
0.016620594
0.016534726
0.015095423
0.012937348
0.0039263446
0.0061612807
0.0090715781
0.012250823
0.014936702
0.016300644
0.016130414
0.004158327
0.011563563
0.0088979386
0.0061860168
0.0036137322
0.0014342482
0.00017466479
0.011251594
0.0086534895
0.0060101494
0.0035114194
0.0013954905
0.00017138842
0.010922859
0.0083976715
0.0058317339
0.0034102068
0.0013590457
0.00016783477
0.010593466
0.0081422292
0.0056555384
0.0033093857
0.0013208379
0.00016405449
0.031328191
0.023021614
0.014814558
0.0075163666
0.0022568659
0.00012536764
0.029103369
0.021195299
0.013543817
0.0068902355
0.0021408738
0.00012773255
0.02690752
0.019483903
0.012418704
0.0063544332
0.0020267021
0.00012860673
0.024822162
0.01791091
0.011414014
0.0058813217
0.0019196853
0.00012851403
0.02287708
0.016470779
0.010501709
0.0054393561
0.0017967716
0.00012751696
0.021097193
0.015178366
0.0096997412
0.005063932
0.001707698
0.00012635242
0.019469802
0.013999151
0.0089573378
0.0046944438
0.0015924931
0.00012450727
0.017997529
0.012941741
0.0082976025
0.0043737481
0.0015050707
0.00012217272
0.01665174
0.011981928
0.0077012415
0.0040796655
0.0014145762
0.00012004602
0.015476037
0.011140897
0.0071781203
0.0038250998
0.0013437525
0.00011810979
0.014499136
0.010451369
0.0067517934
0.0036139439
0.0012766753
0.00011673403
0.013657913
0.0098668094
0.006396303
0.0034442923
0.0012317465
0.00011589595
0.012946736
0.0093889985
0.0061160807
0.0033118898
0.001191474
0.00011586259
0.012326787
0.0089605265
0.0058620435
0.0031981054
0.0011656712
0.00011641609
0.011859984
0.0086490457
0.005681629
0.0031167645
0.0011445748
0.0001177851
0.01151515
0.0084294535
0.0055639212
0.0030699635
0.0011360856
0.00011999928
0.011268985
0.008284037
0.0054928897
0.0030475705
0.0011365474
0.0001230741
0.011122884
0.0082155798
0.0054788854
0.0030602174
0.0011500453
0.0001270772
0.011053251
0.0081995261
0.0054937174
0.0030850334
0.0011684536
0.00013199086
0.011069956
0.0082633649
0.0055758559
0.0031553377
0.0012036217
0.00013789368
0.011126198
0.0083436979
0.0056539683
0.003213853
0.0012355444
0.00014472983
0.011284512
0.0085363255
0.0058397887
0.0033515771
0.0012986071
0.00015266709
0.01137364
0.0086344374
0.0059224506
0.0034112605
0.0013329424
0.00016147979
0.011832125
0.0091196799
0.00635751
0.0037210187
0.0014669243
0.00017215881
0.033212257
0.039855726
0.046933171
0.053345416
0.057437638
0.057792209
0.05409254
0.047420333
0.03946849
0.031152522
0.037687832
0.044659805
0.050908723
0.054839381
0.055092783
0.051410982
0.044824334
0.037004159
0.029322946
0.035659572
0.042430735
0.048458952
0.052186422
0.052299122
0.048599562
0.042100331
0.034480426
0.027641986
0.033734993
0.040256453
0.04602221
0.049509058
0.049458164
0.045734944
0.039359388
0.032005349
0.026053214
0.03190458
0.038139397
0.043608886
0.046829663
0.04661465
0.042884872
0.036678828
0.029641723
0.024578309
0.030144785
0.036064357
0.041224701
0.044173218
0.043813052
0.040106251
0.034114566
0.027429744
0.023186544
0.028488199
0.034058602
0.03886332
0.041553435
0.04108566
0.037442
0.031700403
0.025384013
0.021821036
0.026850567
0.032139781
0.036624988
0.039030165
0.038443853
0.034901969
0.029447056
0.023507356
0.020543543
0.025284902
0.030269273
0.034494938
0.036693775
0.036009188
0.032549027
0.027356635
0.021777714
0.019250989
0.023752167
0.028464424
0.032430537
0.03447847
0.033779282
0.030460541
0.025526998
0.020268165
0.018154157
0.022376599
0.026791755
0.030500073
0.032385781
0.031698806
0.028568154
0.023924158
0.018984232
0.01710597
0.021076305
0.025227271
0.028709645
0.030465591
0.029795272
0.026839587
0.022483889
0.017856928
0.016046191
0.019788894
0.023718416
0.027033477
0.028713867
0.028094031
0.025323142
0.021231794
0.016885384
0.014980418
0.018532632
0.022281842
0.025474178
0.027127063
0.026590296
0.024009157
0.020156429
0.016049834
0.013963174
0.017341938
0.02093709
0.024039231
0.025704521
0.025279462
0.022902756
0.019286665
0.015397764
0.012971354
0.01620054
0.01967358
0.022718606
0.024433819
0.024143974
0.021976558
0.018586875
0.014894208
0.011993206
0.01508993
0.018468114
0.021486534
0.02329412
0.023159044
0.021199612
0.018035617
0.014516331
0.010994177
0.013978113
0.017289246
0.02031702
0.022246429
0.022299259
0.020548684
0.017614742
0.01425344
0.0099649137
0.012851554
0.016118973
0.019189265
0.021259476
0.021538313
0.020001937
0.01730747
0.014096363
0.0088454648
0.011645287
0.014892722
0.018045568
0.020290125
0.020837879
0.019518549
0.017070207
0.014022386
0.0076626907
0.010424942
0.013682087
0.016928303
0.019346191
0.020191095
0.019116739
0.016900651
0.014006986
0.0062809961
0.0089073344
0.012186488
0.015609665
0.018308767
0.019510939
0.018768267
0.016784988
0.014075211
0.0051336041
0.007776813
0.011049392
0.014556229
0.017436019
0.018822786
0.018441104
0.016662374
0.014101883
0.0029860853
0.0053209827
0.0086441566
0.012462408
0.015887065
0.017951402
0.018118542
0.016710209
0.014438641
0.00032931983
0.0027945753
0.0072757895
0.012959274
0.019407368
0.026420436
0.00031300152
0.00261268
0.0067851849
0.012091145
0.018160298
0.024777511
0.00029833902
0.0024459831
0.0063549933
0.011325929
0.017029719
0.023256654
0.00028514948
0.0022760902
0.0059559108
0.010632861
0.016004093
0.021876489
0.00027343892
0.0021280494
0.00559817
0.010004602
0.015060029
0.020585539
0.0002627934
0.0019738195
0.0052405551
0.0093971193
0.014165284
0.01937719
0.00025354485
0.0018607584
0.0049529733
0.0088718998
0.013359256
0.018262719
0.0002449765
0.0017106621
0.0046060495
0.0082991718
0.012534937
0.017159625
0.00023774022
0.0016310542
0.0043910675
0.0078712263
0.011840561
0.016166566
0.00023088689
0.0014835503
0.0040257707
0.0072763169
0.011018612
0.015104468
0.00022491928
0.0013995496
0.0038284868
0.0069241839
0.010452909
0.014276002
0.00022067224
0.0013936596
0.0037118317
0.0066143889
0.0099108362
0.013477561
0.00021689393
0.0013005407
0.0035119347
0.0062389998
0.0093202332
0.012648193
0.00021311115
0.0011377691
0.0031849778
0.0057539309
0.008654897
0.011779506
0.00020865614
0.0010336919
0.0029308134
0.0053156557
0.0080248199
0.010948784
0.00020424324
0.00093519902
0.0026793908
0.0048795034
0.0073979691
0.010128522
0.00020035152
0.000829559
0.002422081
0.0044455885
0.0067730492
0.0093119961
0.00019420259
0.00072610685
0.0021488238
0.0039763254
0.006111218
0.0084629675
0.00018515733
0.00060239008
0.0018439234
0.0034825539
0.0054192762
0.0075763456
0.00017237025
0.00047546731
0.0014875501
0.0028989389
0.0046278669
0.006589251
0.0001561848
0.00033142078
0.0010537562
0.0022643415
0.0037567092
0.0055051235
0.00012195177
0.00021969617
0.00060166721
0.0014972994
0.0028021029
0.0043254127
5.8933128e-05
0.000113134
0.00028889744
0.00080519942
0.0017122137
0.0030116198
1.6908042e-05
5.8246792e-05
0.00013176399
0.00035994741
0.00094538136
0.001750347
1.7439318e-05
7.3289936e-05
0.00010287761
0.00015891923
0.00039052416
0.00096752112
2.0643343e-05
0.00017582443
0.00028826222
0.00026305122
0.00026145908
0.00054229237
2.1910744e-05
0.00019804525
0.00045364196
0.00056333484
0.00054198838
0.0004993391
2.5598204e-05
0.00023599302
0.00061379208
0.00090682078
0.00099615449
0.00083213609
3.0305387e-05
0.00027821033
0.00073545015
0.0011854021
0.0014866298
0.0015745803
3.5451798e-05
0.0003576874
0.00091274086
0.0014816049
0.0019579595
0.002277158
4.0887484e-05
0.00044168669
0.0011088799
0.0017960674
0.002393033
0.0028504131
4.6292546e-05
0.00051660651
0.0013031629
0.0021041818
0.0027908381
0.0033185772
5.0405123e-05
0.00058308643
0.0014770566
0.0023746377
0.0031235963
0.0036814089
5.3489116e-05
0.00063641978
0.0016133694
0.0025834182
0.0033730326
0.0039413174
5.5065205e-05
0.00067059489
0.0017024566
0.0027136791
0.0035205136
0.0040864179
5.7329213e-05
0.00068939531
0.0017416396
0.0027582495
0.003562394
0.0041198986
5.4174642e-05
0.00067137738
0.0016965764
0.0026982539
0.0034908923
0.0040391474
5.1369323e-05
0.00063106774
0.0015988045
0.0025489107
0.0033081763
0.0038400242
4.8220774e-05
0.00057750477
0.001456567
0.0023234049
0.003025683
0.0035269672
4.3617485e-05
0.00050553674
0.0012697863
0.0020291152
0.0026528944
0.00310174
3.7559491e-05
0.00042076814
0.0010560853
0.0016894171
0.0022081754
0.0025703756
3.1580108e-05
0.00033309406
0.0008443268
0.0013435462
0.00172252
0.0019354597
2.6057058e-05
0.00025158648
0.00066140037
0.0010279464
0.0012215719
0.0012268432
2.0731533e-05
0.00019929515
0.00050116216
0.00069808229
0.0007289787
0.00056425497
1.7140279e-05
0.00013876181
0.00032361894
0.00037098187
0.00035064834
0.00039439154
1.2059166e-05
7.9881839e-05
0.00017041357
0.00017162142
0.00022472961
0.00056669372
9.9395849e-06
4.3322056e-05
9.5657517e-05
0.00020742426
0.00043135707
0.0010635596
3.7576711e-05
9.0936888e-05
0.00019598279
0.00046258129
0.00036942073
0.0032912206
0.0088209656
0.015962716
0.00036877607
0.0033531144
0.0090158145
0.016329704
0.024761076
0.034040379
0.00036771284
0.0034052184
0.0091848823
0.016653732
0.025264364
0.034755851
0.00036666706
0.0034583061
0.0093452919
0.016946801
0.02570863
0.035376661
0.00036524451
0.003508948
0.0094867647
0.017194057
0.026068514
0.035864698
0.00036119523
0.003538126
0.0095777066
0.01736597
0.026326028
0.036214054
0.00035789022
0.0035632021
0.0096473397
0.017487861
0.026503928
0.036448658
0.00035397877
0.0035860182
0.009699607
0.017568595
0.026612984
0.036578087
0.00034975732
0.0035996185
0.0097258353
0.017601227
0.026643978
0.036591599
0.00034648152
0.0036067524
0.0097358395
0.017590996
0.026590672
0.036481061
0.0003487398
0.0036120847
0.0097375791
0.017533929
0.026445302
0.036237831
0.00033966979
0.0035882538
0.0096250895
0.017343975
0.026169643
0.035850719
0.00033981828
0.0035425196
0.0094988166
0.017109949
0.025809463
0.035342481
0.00034125692
0.0034962834
0.0093634143
0.016851778
0.025395822
0.034746537
0.00034258977
0.0034443912
0.0092094427
0.016559203
0.024934496
0.034082434
0.00034319873
0.0033862593
0.0090360047
0.016230226
0.02441929
0.033352814
0.00034324984
0.0033277604
0.0088628717
0.015896084
0.023886596
0.032586872
0.00034448968
0.0032712899
0.0086785801
0.015543949
0.023335188
0.03180409
0.00034310837
0.003197635
0.0084727837
0.015172044
0.022769025
0.031012782
0.00034199661
0.003132946
0.0082800673
0.014814675
0.022216505
0.030233313
0.00034116005
0.0030728944
0.0081057949
0.014484328
0.021692518
0.029479383
0.00034076719
0.0030252479
0.0079494899
0.014177104
0.021192629
0.028748833
0.00033999497
0.0029554362
0.0077740796
0.013863741
0.020713531
0.028057694
0.00034062262
0.0029712956
0.0077813981
0.013804721
0.020511907
0.027679589
0.00011584982
0.00018492211
0.00017107572
0.00036980897
0.00036982411
0.0032299847
0.033853105
0.034707761
0.035833832
0.036980526
0.038127706
0.039283849
0.040436358
0.041569754
0.042672753
0.043705112
0.044637507
0.045454666
0.046127113
0.046623394
0.046929903
0.047040147
0.046962485
0.046705203
0.04628066
0.045687941
0.04489884
0.043909365
0.042747197
0.039876987
0.041561889
0.043278857
0.044938863
0.046564598
0.048179733
0.049768193
0.051321968
0.052807266
0.054177892
0.055404375
0.056459421
0.057307012
0.057918753
0.058282479
0.058383897
0.058228287
0.057822046
0.057172713
0.056289757
0.055149403
0.053724182
0.051998318
0.046874118
0.049235239
0.05149111
0.053656414
0.055778792
0.057864731
0.059919407
0.061919604
0.063809141
0.065548532
0.067101792
0.06843017
0.069491736
0.070261321
0.070724353
0.070862725
0.070676326
0.070168725
0.069344313
0.068205491
0.066752988
0.064945391
0.062735761
0.054645444
0.057558395
0.060317596
0.062985721
0.065609136
0.06820182
0.070754219
0.073217847
0.075546133
0.077693677
0.079614756
0.081260987
0.082586686
0.083568265
0.084187535
0.084422801
0.084267932
0.083722125
0.082787315
0.081462129
0.079745837
0.077616106
0.075011654
0.062926131
0.066302536
0.069539015
0.072707438
0.075848806
0.078977168
0.082052509
0.08501748
0.08782565
0.090428404
0.092768858
0.094791319
0.096448456
0.097713872
0.09856658
0.098979363
0.0989401
0.098442642
0.097485027
0.096063924
0.094170111
0.091793307
0.088885348
0.071347218
0.075129731
0.078825019
0.082499781
0.0861886
0.089876741
0.093505725
0.097020547
0.10036763
0.10348826
0.10631883
0.10879941
0.11087624
0.1125201
0.11370673
0.11440151
0.11458595
0.1142475
0.11337863
0.11197357
0.11002228
0.10750769
0.10440201
0.079404907
0.08355936
0.087710019
0.091914973
0.096178761
0.10045628
0.10469544
0.10883124
0.11279695
0.11652289
0.11994028
0.12298786
0.1256035
0.12774674
0.1293939
0.13050259
0.13104658
0.13100626
0.1303671
0.12911821
0.12724864
0.12474197
0.1215712
0.086420987
0.090943816
0.095573656
0.10034308
0.10522187
0.11016206
0.1150975
0.11994996
0.12464129
0.12909232
0.13322813
0.13698077
0.14028655
0.14308277
0.14534713
0.14703128
0.14809975
0.14852584
0.14828787
0.1473682
0.14575193
0.14342335
0.14035846
0.091548024
0.0964748
0.10163472
0.10703028
0.11261767
0.11832844
0.12407785
0.12977944
0.13534182
0.14067672
0.14570022
0.15033459
0.15450924
0.15815336
0.16122187
0.16367243
0.16545832
0.16654589
0.16690697
0.16651787
0.1653587
0.16341182
0.16065555
0.093816947
0.099238429
0.10503004
0.11117725
0.11760832
0.12423508
0.13096203
0.13768793
0.14431019
0.15072818
0.15684576
0.16257329
0.16782895
0.17253933
0.17662965
0.18006498
0.18278658
0.1847541
0.18593363
0.18629665
0.18581935
0.18448177
0.18226305
0.092396309
0.098463053
0.10504832
0.11211292
0.11956469
0.12729976
0.13520688
0.14316966
0.15107041
0.15879392
0.16623037
0.17327747
0.17984167
0.18583887
0.19119423
0.19584333
0.19973267
0.20281371
0.20504671
0.20639859
0.20684239
0.20635644
0.20492036
0.087037252
0.093952756
0.10153758
0.10972566
0.11840423
0.12745134
0.13673824
0.14613277
0.15550325
0.16472202
0.17366791
0.18222796
0.19029859
0.19778621
0.20460746
0.21068923
0.21596836
0.22039077
0.22391072
0.22649007
0.22809782
0.22870947
0.22830418
0.078908139
0.086888685
0.095643297
0.1050854
0.11509058
0.12552651
0.13625584
0.14713935
0.15803888
0.16881985
0.17935352
0.18951868
0.19920306
0.20830423
0.21673009
0.22439907
0.23123985
0.23719097
0.24220005
0.24622314
0.24922422
0.25117461
0.070660988
0.079650701
0.089464948
0.10002081
0.11119926
0.12287071
0.13489925
0.14714514
0.15946738
0.17172644
0.18378703
0.19552031
0.20680577
0.21753241
0.22759955
0.23691712
0.24540564
0.25299589
0.2596283
0.26525231
0.26982594
0.27331511
0.064150048
0.07384354
0.084422261
0.095809785
0.10789607
0.12055648
0.1336563
0.14705422
0.16060577
0.17416678
0.18759645
0.2007599
0.21353007
0.22578915
0.2374294
0.24835362
0.25847518
0.26771786
0.27601533
0.28331063
0.28955577
0.29471104
0.059478188
0.069666305
0.080810839
0.092838261
0.10564321
0.119103
0.13308281
0.14744009
0.1620285
0.17670146
0.19131528
0.20573172
0.21981992
0.23345785
0.24653326
0.25894418
0.27059913
0.28141695
0.29132644
0.30026592
0.30818285
0.31503317
0.056019939
0.066610575
0.078231525
0.090808372
0.10423656
0.11839332
0.13314309
0.14834216
0.16384276
0.17949669
0.19515843
0.21068767
0.22595135
0.24082507
0.25519411
0.26895396
0.28201058
0.29428027
0.30568938
0.31617391
0.32567917
0.33415911
0.053129751
0.064080032
0.076138782
0.089228809
0.10324351
0.11805772
0.13353323
0.14952364
0.16587866
0.18244775
0.19908321
0.21564281
0.23199166
0.24800372
0.26356274
0.27856281
0.29290862
0.30651533
0.31930834
0.33122288
0.34220378
0.35220476
0.050294976
0.061587222
0.074070706
0.08766336
0.10225392
0.1177128
0.13389767
0.15065848
0.16784171
0.18529399
0.20286521
0.22041096
0.23779451
0.25488814
0.27157415
0.28774537
0.3033054
0.31816853
0.33225946
0.34551301
0.35787386
0.36929584
0.047320137
0.058908554
0.071774831
0.085831109
0.10096072
0.11702909
0.13388934
0.15138733
0.16936592
0.18766854
0.20614222
0.22464004
0.24302303
0.26116146
0.27893584
0.29623737
0.31296821
0.32904135
0.34438043
0.35891933
0.37260205
0.38538197
0.043523848
0.055335753
0.068528757
0.083005169
0.098639059
0.11528763
0.132797
0.15100722
0.16975642
0.18888426
0.20823476
0.22765857
0.24701467
0.2661716
0.28500828
0.30341445
0.32129083
0.33854906
0.3551114
0.37091045
0.38588895
0.39999911
0.039041063
0.050937651
0.064324117
0.079089492
0.095097807
0.11219852
0.13023195
0.14903389
0.16843933
0.18828554
0.20841466
0.22867566
0.24892595
0.26903248
0.2888725
0.30833394
0.32731564
0.34572722
0.36348885
0.380531
0.39679421
0.41222848
0.032813568
0.044437561
0.057698635
0.072469231
0.088599632
0.10592829
0.12428695
0.1435047
0.16341123
0.1838396
0.20462847
0.22562393
0.24668081
0.26766373
0.28844761
0.30891812
0.32897169
0.34851549
0.3674671
0.38575429
0.40331479
0.42009567
0.02503162
0.035779255
0.0483828
0.062663484
0.078436662
0.095535394
0.11378618
0.13301355
0.15304333
0.17370527
0.19483511
0.21627627
0.23788114
0.2595118
0.2810405
0.30234992
0.32333323
0.34389407
0.36394624
0.38341359
0.40222972
0.42033743
0.016592758
0.024983091
0.03543511
0.04785494
0.062099218
0.077966052
0.095251766
0.11375441
0.13327605
0.15362451
0.17461479
0.19607024
0.21784078
0.23978454
0.26176867
0.28367005
0.30537563
0.32678257
0.34779816
0.3683397
0.38833431
0.40771842
0.01127715
0.016972724
0.024446313
0.033737047
0.044813579
0.057594246
0.071964072
0.087786461
0.10491169
0.1231833
0.1424429
0.16253385
0.18327639
0.20450129
0.2260508
0.24777915
0.26955259
0.29124935
0.31275932
0.33398377
0.35483499
0.37523557
0.0095242974
0.01354502
0.018781632
0.025344674
0.033301718
0.042678722
0.053462758
0.06560729
0.079038311
0.093660864
0.10936488
0.12603017
0.14353098
0.16173977
0.18053029
0.19977936
0.2193685
0.23918514
0.25912348
0.27908515
0.29897955
0.31872378
0.010583471
0.014341222
0.018958224
0.024482498
0.030947435
0.038383705
0.0468027
0.056196382
0.066541036
0.077799085
0.089924056
0.10285757
0.11653159
0.13087028
0.14580513
0.16126158
0.17716176
0.19342721
0.20998101
0.22674914
0.24366057
0.26064744
0.013856029
0.018441074
0.023822504
0.029999834
0.036965858
0.044689229
0.053124197
0.062214013
0.071906701
0.082150508
0.092897649
0.10410333
0.11572424
0.12771712
0.14002
0.15257233
0.16531491
0.17819007
0.1911416
0.20412805
0.21711235
0.23006026
0.025130378
0.032840796
0.041458823
0.05086535
0.060948163
0.071597563
0.082704872
0.094169009
0.10589191
0.11777519
0.1297612
0.14180888
0.1538834
0.1659452
0.17794901
0.18985681
0.2016352
0.21325323
0.22468177
0.23587923
0.24681912
0.25748248
0.066825974
0.084443032
0.10276906
0.12141675
0.14004879
0.15838655
0.1762061
0.1933333
0.20963843
0.2250312
0.23945619
0.2528849
0.26531161
0.27676314
0.2872963
0.29697137
0.30585194
0.31400194
0.32148239
0.32835119
0.33466301
0.34046914
0.040725761
0.048771015
0.055745852
0.059821175
0.059878704
0.056166593
0.050056183
0.043249428
0.037177528
0.04022656
0.04858911
0.056134224
0.061098319
0.062275618
0.05975503
0.054731628
0.048757958
0.042945161
0.039405922
0.048072011
0.056222859
0.062163357
0.064585869
0.063393953
0.059580595
0.054559745
0.049377056
0.037975746
0.046974828
0.055792309
0.06281555
0.066630142
0.066939473
0.06452165
0.060653328
0.056406271
0.035597195
0.04497955
0.05454772
0.062783119
0.068162747
0.070180306
0.069385898
0.066903043
0.063840002
0.031902386
0.041704196
0.05211255
0.061697357
0.068832632
0.07278755
0.073866166
0.073016158
0.071325896
0.026531221
0.036733628
0.048057772
0.059086443
0.068163435
0.074287051
0.077489703
0.078512717
0.078370966
0.019267298
0.029793773
0.041958488
0.054430901
0.065564563
0.074052952
0.079612999
0.082741103
0.084303847
0.011112273
0.020907779
0.033600502
0.047333172
0.060408857
0.071342457
0.079424306
0.084847802
0.088273593
0.004610367
0.01182594
0.02332795
0.037658445
0.052299226
0.065452903
0.076050644
0.083857899
0.089284985
0.0016406405
0.0054966029
0.013893703
0.026598536
0.041657217
0.056368201
0.069086833
0.079121541
0.08653213
0.00081164994
0.0024954762
0.0077200798
0.017347859
0.030656243
0.045397203
0.059241223
0.070856759
0.079885304
0.00059745658
0.0013809192
0.0044535838
0.011375711
0.02208755
0.035281668
0.048766923
0.060847056
0.07071147
0.000539258
0.00097693421
0.0028738641
0.0080995439
0.016812241
0.028131505
0.040406937
0.05198987
0.061854207
0.00052757659
0.00080227957
0.0019325499
0.0059681503
0.013384329
0.023441326
0.034685684
0.045594102
0.055114726
0.00053225574
0.00072778809
0.0014292584
0.00432643
0.010733595
0.019953516
0.030562609
0.041040791
0.050309388
0.00056223833
0.00071877284
0.001173113
0.0031915997
0.0086848309
0.017194838
0.027340437
0.037557433
0.046703661
0.00058027549
0.00072195074
0.0010417981
0.002350335
0.0068904528
0.014753135
0.024514936
0.034553264
0.043650135
0.00061784303
0.00074554385
0.00095594837
0.0018110772
0.0053014395
0.012413654
0.021741749
0.031592073
0.040650132
0.00064322294
0.00077448366
0.00094653819
0.001446511
0.0038694907
0.010107917
0.018932913
0.028553474
0.037544584
0.00068424947
0.00081740105
0.00096369037
0.0012504777
0.0027535389
0.007654056
0.01568712
0.024890071
0.03369994
0.00071304445
0.00084872806
0.00099414441
0.001191509
0.0019912284
0.0053346512
0.012271102
0.020836329
0.029307166
0.00076146687
0.00089252254
0.0010287627
0.0011957218
0.0016067927
0.0034910365
0.0084596407
0.015803278
0.02353161
0.00079155571
0.00092249874
0.0010704103
0.0012451513
0.0015229148
0.0024912222
0.0054108917
0.010629338
0.016867375
0.00083980259
0.00096918922
0.0011110617
0.0012842202
0.0015569679
0.0021553597
0.003731667
0.0067237314
0.010734669
0.00087010743
0.0010031811
0.0011499979
0.0013476879
0.0016658867
0.0022392569
0.0033354602
0.0051669736
0.0075594279
0.0009288075
0.0010458841
0.0011982122
0.0014075695
0.0017717166
0.002449271
0.0035512617
0.0050811043
0.0068552062
0.0009668743
0.0011019009
0.0012705187
0.0015361471
0.0020553747
0.0030046815
0.004420991
0.0061471793
0.0079535849
0.0010396409
0.001181278
0.0013776228
0.0017446237
0.002522971
0.0039120346
0.0058965755
0.00821226
0.010524956
0.0011740719
0.001408618
0.001787843
0.0026045409
0.0043367926
0.0072456841
0.01109085
0.015308066
0.019328917
0.0017219666
0.0020275203
0.003029736
0.0058554159
0.011712502
0.020767513
0.031676229
0.04269836
0.052579565
0.032484769
0.031873816
0.031022421
0.029562412
0.027143345
0.02343241
0.018037701
0.011205225
0.0047453202
0.0014714014
0.00056991424
0.00041670484
0.00038749924
0.00038066622
0.00040059428
0.00041177609
0.00044151991
0.00046234818
0.00049852955
0.00052343862
0.00056527041
0.00059217857
0.00063671551
0.0006662306
0.00071316674
0.00074676215
0.00079786467
0.00086142072
0.00091901877
0.0010201851
0.0013620478
0.024059939
0.023467737
0.022752773
0.021454939
0.019223044
0.015745933
0.010740794
0.0049671793
0.001517366
0.00048779959
0.00028885738
0.00026760852
0.00026105524
0.00026924007
0.00028276045
0.00029753295
0.00032179506
0.00034210875
0.00037524132
0.00039944437
0.00043729867
0.00046300814
0.00050422271
0.00053266766
0.00057629221
0.00061037803
0.00065928179
0.00071410672
0.00080295109
0.00086457507
0.001041983
0.015660371
0.015148528
0.014667353
0.013647282
0.011764429
0.0087121798
0.0045656521
0.0014433038
0.00041165625
0.000183335
0.00015924005
0.00015458078
0.00015353742
0.00015673168
0.00016803653
0.00017963544
0.0002015195
0.00021747568
0.00024564321
0.00026637909
0.00029924072
0.00032224366
0.00035844105
0.00038462336
0.00042310454
0.0004564819
0.00050255989
0.00055923115
0.00064374575
0.00072902088
0.00086494247
0.0080221948
0.00763917
0.0073852846
0.0066773756
0.005244094
0.0028633903
0.00093076139
0.00026415309
9.3315742e-05
7.5148848e-05
7.2169968e-05
7.0803629e-05
7.0709369e-05
7.2163414e-05
7.4958809e-05
7.9456794e-05
8.8561783e-05
9.8367542e-05
0.00011502664
0.00012994613
0.00015294475
0.00017157443
0.0001991904
0.00022210135
0.00025190918
0.00028106169
0.00031995834
0.0003711615
0.00043837964
0.00058799539
0.00071771296
0.0023796346
0.0021496972
0.0019775678
0.0015044155
0.0008072365
0.00032886773
8.7382237e-05
4.358135e-05
3.8233575e-05
3.6416653e-05
3.4956064e-05
3.3430154e-05
3.2095471e-05
3.0866328e-05
3.0490946e-05
3.1384783e-05
3.0911198e-05
3.1417048e-05
3.2664128e-05
3.5778823e-05
4.1377321e-05
4.596334e-05
5.4833384e-05
6.6179461e-05
7.9649147e-05
9.6945173e-05
0.00012118679
0.00015814714
0.00022222684
0.00036535283
0.00055295272
0.00011502964
9.8048113e-05
7.8886119e-05
5.4938586e-05
3.5393969e-05
2.8256011e-05
2.7186185e-05
2.7648334e-05
2.8231601e-05
2.8780314e-05
2.9210834e-05
2.9406072e-05
2.9243627e-05
2.8669125e-05
2.7629674e-05
2.6256648e-05
2.3915952e-05
2.1687092e-05
1.8932818e-05
1.6694661e-05
1.4411036e-05
1.2570169e-05
1.1495954e-05
1.1018073e-05
1.0964915e-05
1.1751001e-05
1.4543469e-05
1.9940556e-05
3.1164381e-05
5.7326507e-05
8.1410766e-05
)
;

boundaryField
{
    Side1
    {
        type            empty;
    }
    Inlet
    {
        type            calculated;
        value           uniform 0.39740317;
    }
    Side2
    {
        type            empty;
    }
    Outlet
    {
        type            zeroGradient;
    }
    Botwall
    {
        type            nutkWallFunction;
        blending        stepwise;
        value           nonuniform List<scalar> 
59
(
1.7318214e-05
1.6862052e-05
1.6367002e-05
1.58387e-05
1.0484754e-05
1.0819489e-05
1.0937531e-05
1.0923105e-05
1.076869e-05
1.0603296e-05
1.0327178e-05
9.9901395e-06
9.674171e-06
9.3908174e-06
9.1835801e-06
9.0576881e-06
9.0461372e-06
9.1187891e-06
9.3105192e-06
9.6237226e-06
1.0059758e-05
1.06278e-05
1.1324487e-05
1.2159729e-05
1.3124771e-05
1.4241466e-05
1.5477449e-05
1.6968465e-05
9.0140571e-06
6.5766273e-06
3.7869968e-06
1.9808414e-07
0
0
0
0
0
0
0
0
0
0
0
0
0
0
0
0
0
0
0
0
0
0
0
0
0
5.1503818e-07
4.2646626e-06
)
;
    }
    Cyli
    {
        type            nutkWallFunction;
        blending        stepwise;
        value           nonuniform List<scalar> 
76
(
3.8349242e-05
3.6174195e-05
3.4206951e-05
3.2426161e-05
3.0835353e-05
2.9381347e-05
2.8110924e-05
2.692936e-05
2.5926501e-05
2.4974152e-05
2.4144186e-05
2.3553422e-05
2.3015633e-05
2.2485908e-05
2.1870195e-05
2.1266031e-05
2.073476e-05
1.9896158e-05
1.8648493e-05
1.6898203e-05
1.4650239e-05
9.8228073e-06
6.3057412e-07
0
0
0
0
0
0
0
0
0
0
0
4.3269534e-08
3.904339e-07
0
0
0
0
0
0
0
0
0
0
0
0
4.3656265e-05
4.3590206e-05
4.3468766e-05
4.3349343e-05
4.3178845e-05
4.2656177e-05
4.2233317e-05
4.173237e-05
4.1186587e-05
4.0761247e-05
4.1057395e-05
3.9868884e-05
3.9885333e-05
4.0067934e-05
4.0234943e-05
4.0305706e-05
4.0301938e-05
4.0453477e-05
4.0260184e-05
4.0100111e-05
3.9974995e-05
3.9907275e-05
3.9789395e-05
3.9854407e-05
8.9456154e-06
1.6725268e-05
4.3668012e-05
4.3689895e-05
)
;
    }
    procBoundary0to1
    {
        type            processor;
        value           nonuniform List<scalar> 
44
(
0.002566802
0.002566802
0.0016157513
0.0011387446
0.0011387446
0.0015431448
0.0015431448
0.0024838474
0.0031604401
0.0031604401
0.0035829682
0.0035829682
0.0040714571
0.0043981228
0.0043231405
0.0043231405
0.0044484689
0.0044703052
0.0043850706
0.0041877284
0.0038733943
0.0038733943
0.0037041632
0.0031084763
0.0023312354
0.0023312354
0.0015935309
0.01467072
0.012547047
0.0063593733
0.0091832122
0.012225459
0.014742997
0.015973644
0.01467072
0.015719955
0.0063593733
0.0043965935
0.010265828
0.0078899122
0.005485402
0.003215068
0.0012874655
0.00016006208
)
;
    }
    procBoundary0to2
    {
        type            processor;
        value           nonuniform List<scalar> 
55
(
0.0025969179
0.0030568297
0.0034941663
0.0039170935
0.0043369297
0.00098122109
0.0019330209
0.00039854889
0.00098122109
0.0009604845
0.0086289657
0.02421521
0.015608455
0.02421521
0.033359165
0.00039854889
0.00029443963
0.00029443963
0.0002074636
0.00036925843
0.0031638527
0.0031638527
0.0086289657
0.04159089
0.050034734
0.060102119
0.071855869
0.085349804
0.10061807
0.11767456
0.1365042
0.15703925
0.17911595
0.20249054
0.22684185
0.25204263
0.25204263
0.2756824
0.29873311
0.32076842
0.34156208
0.36117235
0.37972514
0.39720125
0.41317944
0.42676799
0.43602598
0.43765916
0.42640831
0.39509705
0.33823381
0.27761787
0.24292391
0.26783017
0.34581258
)
;
    }
    procBoundary0to3
    {
        type            processor;
        value           nonuniform List<scalar> 7(0.00085987902 0.00085987902 0.0007903323 0.0007903323 0.0014987038 0.0014987038 0.0029894745);
    }
}


// ************************************************************************* //
