/*--------------------------------*- C++ -*----------------------------------*\
| =========                 |                                                 |
| \\      /  F ield         | OpenFOAM: The Open Source CFD Toolbox           |
|  \\    /   O peration     | Version:  2406                                  |
|   \\  /    A nd           | Website:  www.openfoam.com                      |
|    \\/     M anipulation  |                                                 |
\*---------------------------------------------------------------------------*/
FoamFile
{
    version     2.0;
    format      ascii;
    arch        "LSB;label=32;scalar=64";
    class       volScalarField;
    location    "0.01";
    object      omega;
}
// * * * * * * * * * * * * * * * * * * * * * * * * * * * * * * * * * * * * * //

dimensions      [0 0 -1 0 0 0 0];

internalField   nonuniform List<scalar> 
2065
(
130831.97
119932.17
110502.46
102167.38
94699.167
126348.3
121382.81
116578.98
110987.91
104593.28
89009.541
85361.534
83740.568
83147.334
42169.483
40333.99
40401.638
23026.72
22662.325
23011.945
16873.086
16743.265
14667.945
13877.028
13634.291
13956.374
14753.855
17163.609
24564.665
25200.039
49838.304
50046.794
99442.031
97287.944
95459.573
126010.03
118404.3
110990.05
103638.87
127075.34
115319.68
104678.48
95062.381
86457.941
98486.461
76634.184
59293.296
46799.204
38780.306
34613.389
33440.082
34412.543
37235.285
92625.289
72786.768
57339.031
45920.589
38417.454
34567.973
33516.459
34601.526
37527.971
87180.769
69254.686
55306.387
44875.955
37954.847
34484.74
33582.377
34780.617
37800.653
82083.83
65969.665
53358.89
43846.728
37488.686
34362.503
33628.546
34939.356
38033.221
77346.441
62904.386
51493.193
42828.884
37016.49
34196.229
33636.76
72942.398
41977.829
49379.049
61829.596
85655.334
145178.62
403331.58
42253.371
49659.079
62105.926
85707.828
144050.62
397123.78
42548.054
49948.462
62331.324
85617.082
142534.59
390432.39
42798.449
50176.107
62451.023
85396.445
141060.57
383314.21
13310.805
15889.723
20926.321
32621.055
71102.51
329553.25
15503.237
18810.161
25149.259
39487.43
84693.98
374614.35
17926.436
21996.46
29659.418
46633.207
98621.365
420386.43
20531.161
25391.144
34398.884
53984.087
112345.55
466784.63
23263.78
28932.301
39309.641
61586.206
127193.1
511862.67
26052.564
32515.434
44209.552
68955.72
140220.98
556841.27
28866.997
36135.514
49185.064
76590.521
155099.28
596992.54
31654.079
39706.294
54032.736
83737.604
166945.06
632019.39
34339.936
43133.54
58656.587
90548.015
179107.44
661296.77
36841.779
46286.591
62818.276
96391.5
188038.97
683875.24
39098.671
49084.703
66446.532
101462.67
196620.29
699154
41120.082
51561.775
69585.877
105574.04
201796.48
706739.53
42803.074
53542.623
71967.443
108540.97
205867.34
706699.24
44264.034
55241.4
73944.767
110700.73
207063.35
698489.16
45323.171
56374.371
75099.746
111665.65
206921.89
683397.16
46013.493
56999.467
75512.203
111479.98
204566.97
662389.61
46392.705
57200.467
75367.752
110488.66
200701.65
636628.64
46435.681
56950.169
74543.47
108418.3
195004.97
607544.21
46231.044
56419.617
73433.507
106080.75
188913.9
576236.53
45730.746
55436.465
71591.692
102517.6
180901.23
544018.19
45116.85
54424.102
69945.273
99608.455
174144.63
511594.52
44174.147
52816.879
67199.506
94710.17
164333.54
480106.49
43446.744
51785.531
65733.691
92373.715
158772.55
449462.72
41863.427
49263.015
61706.035
85635.284
146727.32
422074.8
27401.429
22367.676
18251.127
15102.157
12916.42
11608.05
11066.796
11186.327
11903.514
29547.314
24047.587
19603.391
16272.902
14008.697
12712.566
12269.054
12589.219
13631.572
31630.091
25730.291
20994.351
17492.738
15161.765
13896.15
13576.769
14135.746
15544.035
33680.025
27415.005
22413.591
18754.845
16369.181
15149.139
14976.48
15802.003
17606.845
35694.218
29090.496
23845.614
20044.019
17616.553
16454.47
16445.644
17556.122
19777.12
37671.418
30748.12
25275.771
21344.069
18885.748
17789.197
17955.353
19359.647
22003.774
39579.412
32370.096
26690.788
22639.72
20156.5
19130.683
19477.091
21179.285
24249.599
41464.511
33958.308
28077.68
23915.829
21410.726
20457.299
20983.217
22981.372
26476.234
43199.069
35471.369
29418.69
25155.356
22630.857
21748.155
22444.17
24724.766
28625.87
45103.655
37037.954
30756.233
26364.377
23806.766
22984.941
23835.356
26374.615
30646.739
46706.71
38447.426
32005.134
27508.234
24918.176
24148.698
25134.437
27901.336
32495.029
48098.409
39698.556
33135.438
28563.204
25954.45
25230.675
26330.203
29293.673
34166.942
49545.709
40974.947
34264.849
29589.44
26938.567
26238.72
27420.183
30529.55
35606.619
51230.152
42388.894
35456.476
30623.995
27888.947
27180.394
28408.383
31628.797
36871.192
53073.726
43921.047
36719.181
31683.832
28820.626
28055.644
29274.12
32532.035
37851.096
55092.122
45585.239
38065.066
32777.416
29742.257
28875.299
30030.615
33257.035
38568.09
57352.136
47426.392
39519.872
33917.687
30653.995
29641.593
30693.037
33813.6
39049.869
60017.369
49540.41
41135.823
35132.569
31572.495
30360.281
31268.055
34207.149
39299.045
63128.771
51969.18
42943.906
36440.294
32511.667
31038.924
31762.853
34445.762
39322.254
67024.253
54897.773
45047.565
37894.168
33494.262
31694.622
32210.273
34589.028
39162.591
71812.519
58263.683
47361.167
39447.575
34501.281
32314.607
32564.773
34624.913
38872.459
78397.133
63044.161
50518.156
41412.264
35672.51
32944.446
32835.637
34570.95
38399.257
84523.089
66992.802
53135.646
43085.667
36684.636
33619.162
33056.843
34481.589
37962.278
102183.23
78847.089
60237.664
47128.545
38883.512
34499.19
33321.017
34266.295
37080.451
728666.39
209092.08
105745.38
66639.325
46692.726
34746.005
750022.15
215575.41
110631.55
70394.764
49646.194
37189.401
772007.79
222480.29
115360.4
74067.15
52610.685
39666.088
793896.84
230483.92
120158.09
77701.136
55548.438
42121.407
815298.61
238527.67
124899.07
81249.765
58420.79
44526.845
834561.88
246974.71
129849.52
84841.743
61266.306
46886.674
852008.77
253680.01
133968.87
88033.518
63903.915
49127.109
864834.64
262797.18
139285.46
91693.168
66691.442
51390.336
874415.16
266223.47
141865.62
94093.349
68884.814
53356.131
877154.81
276159.85
148149.67
98258.408
71901.686
55704.257
874256.23
277411.67
150129.6
100316.2
73849.43
57494.863
868446.51
270386.25
149715.92
101462.01
75347.176
58994.649
855833.08
274554.09
151471.21
103193.05
77050.062
60589.01
834847.18
290788.97
157923.96
106694.61
79519.009
62582.019
804080.15
293969.09
162252.02
110001.31
82135.259
64758.168
767126.44
294314.92
165808.27
113292.09
84928.857
67137.903
726871.22
295569.56
169380.48
116796.49
88007.016
69803.504
676542.64
295242.17
173679.59
121088.38
91767.327
73021.883
615912.84
298464.64
179036.28
125973.77
96118.042
76805.249
547751.77
301366.94
188812.08
134110.11
102389.99
81821.647
474141.79
313260.25
199424.21
143765.33
110617.1
88370.5
367750.64
310225.57
226731.26
159297.04
120963.71
96837.462
226163.54
261178.39
238250.13
189187.09
139391.62
107836.82
151177.79
176234.88
205774.4
193938.22
165900.02
129137.87
145942.88
86319.978
117537.69
161437.19
157893.47
144593.08
149710.42
52357.209
55508.72
76152.279
121808.02
131740.49
151247.83
48301.308
35065.887
38228.432
54604.161
91403.143
155775.62
50757.543
31333.662
27064.215
30463.019
43049.96
161701.16
51880.24
30232.401
23270.065
21593.41
22822.365
168368.47
51128.439
28846.138
21225.565
18107.1
17155.663
175621.1
50382.74
27799.029
20043.285
16655.358
15198.146
183038.25
50845.143
27248.069
19400.662
15997.085
14457.352
188811.09
51144.532
27004.47
19123.292
15746.624
14215.302
193218.38
51485.455
26978.513
19057.822
15697.621
14176.44
195480.99
51536.03
26924.033
19020.708
15696.882
14192.037
198756.01
51106.229
26710.663
18930.964
15675.017
14204.45
194127
51173.558
26756.255
18946.724
15681.328
14216.265
190107.76
50573.931
26600.81
18882.044
15641.457
14200.864
185665.06
49863.424
26392.334
18798.472
15602.697
14203.2
179279.57
49200.298
26362.877
18881.749
15725.349
14387.372
171101.02
48508.492
26644.666
19317.556
16236.853
15040.823
163289.35
48492.413
27360.132
20304.877
17609.031
17043.868
156318.94
49092.277
28355.058
22139.26
21276.016
23470.965
149823.54
47662.27
29980.989
26934.658
32036.737
50094.203
145581.15
50298.396
35605.432
42754.788
61665.864
100487.65
139739.5
47943.355
62866.151
94218.16
133023.41
132363.54
137364.23
117527.14
142255.78
168302.17
161153.57
140973.07
171284.06
205241.85
209762.23
193064.07
780113.64
212296.02
101394.62
61454.581
778659.35
210542.12
100079.74
60553.805
41157.248
29848.915
776388.95
208753.92
98845.298
59696.172
40545.391
29405.573
774219.61
206832.09
97595.569
58891.729
39997.861
29014.926
771340
204897.25
96480.984
58244.894
39577.092
28717.37
762949.1
203039.9
95755.46
57847.863
39308.876
28518.29
756202.89
201692.29
95258.862
57561.355
39110.195
28377.39
748359.62
200219.39
94735.562
57284.373
38946.323
28275.98
739846.49
198827.03
94298.707
57071.979
38829.932
28213.64
733237.62
197321.33
93738.279
56828.813
38727.06
28179.187
737772.94
195989.7
93114.018
56621.694
38680.456
28193.642
719604.73
195976.78
93632.477
56923.764
38864.152
28322.826
719928.08
196296.11
94064.969
57248.434
39099.033
28500.649
722863.47
196852.51
94366.735
57516.47
39324.952
28689.728
725601.35
197500.45
94702.786
57792.935
39576.124
28908.073
726900.39
198349.67
95214.627
58144.106
39860.105
29157.487
727093.66
198874.18
95735.888
58574.822
40214.988
29456.673
729673.1
200203.27
96542.771
59161.038
40677.886
29836.65
727010.42
201249.39
97578.914
59926.087
41266.249
30310.431
724905.98
202275.58
98644.534
60768.594
41937.124
30860.423
723362.22
203000.56
99588.184
61607.48
42651.237
31469.526
722713.69
203926.77
100580.6
62483.491
43411.425
32131.763
721308.82
204655.61
101572.85
63387.813
44176.21
32787.837
722713.47
203957.41
101218.01
63404.195
44411.617
33089.098
293664.83
276323.9
393648.3
781231.51
781089.62
213921.71
26630.408
26056.353
25306.021
24594.184
23960.32
23406.033
22934.865
22550.219
22242.544
21985.592
21771.93
21599.955
21460.507
21373.136
21361.062
21401.578
21485.391
21615.752
21796.244
22039.258
22363.945
22780.099
23267.873
22057.004
21165.361
20319.357
19577.341
18936.148
18386.276
17922.603
17543.77
17235.081
16980.344
16776.847
16621.494
16509.862
16450.325
16449.408
16501.594
16603.87
16757.752
16966.208
17239.986
17591.179
18033.881
18579.129
18027.075
17085.193
16268.733
15570.267
14973.446
14465.887
14041.755
13693.916
13406.574
13172.846
12989.767
12853.394
12761.698
12717.153
12720.714
12772.34
12871.976
13021.342
13223.422
13484.103
13816.128
14230.535
14743.788
14565.56
13696.381
12963.258
12340.885
11811.825
11365.068
10993.88
10685.535
10431.25
10226.211
10066.807
9949.2386
9872.6085
9836.6305
9840.8286
9886.421
9974.3386
10106.489
10285.857
10516.659
10807.46
11169.452
11616.147
11646.234
10894.546
10263.454
9728.7566
9276.1037
8896.3406
8579.0933
8314.5559
8096.9577
7922.0901
7786.1443
7686.3131
7621.7892
7591.3018
7594.2545
7631.818
7705.0435
7815.7283
7966.5724
8161.1692
8404.7464
8706.3451
9077.2048
9216.6951
8590.2751
8063.1422
7617.1781
7241.3124
6925.6211
6660.3811
6439.3449
6257.7506
6111.6589
5997.7898
5914.108
5859.7302
5833.3012
5834.2773
5863.5239
5921.9157
6010.9297
6132.7729
6290.4553
6487.9215
6730.9475
7028.4043
7217.345
6709.24
6280.3529
5918.2197
5612.848
5355.1132
5138.5048
4958.0146
4809.4534
4689.4772
4595.6505
4526.2467
4480.4209
4457.3135
4456.2073
4477.6953
4522.449
4591.5812
4686.7591
4810.3031
4965.2819
5155.7912
5387.6499
5593.2985
5190.6436
4850.1569
4562.3817
4318.7428
4112.8236
3939.5198
3794.6513
3674.8907
3577.7367
3501.3102
3444.2412
3405.6597
3385.2228
3382.15
3396.7716
3429.5944
3481.4119
3553.4238
3647.309
3765.3247
3910.4498
4086.6416
4295.8076
3983.9173
3719.3061
3494.7338
3304.0402
3142.2586
3005.4063
2890.3744
2794.7459
2716.6666
2654.7225
2607.8646
2575.3525
2556.8482
2551.9794
2560.6995
2583.3927
2620.6027
2673.1668
2742.2616
2829.4771
2936.9207
3067.333
3283.3613
3046.5899
2844.1801
2671.3018
2523.4062
2396.9498
2289.1817
2197.9483
2121.5473
2058.6359
2008.1639
1969.3283
1941.5402
1924.4064
1917.8289
1921.547
1935.8314
1961.0263
1997.6889
2046.6179
2108.9003
2185.9791
2279.7206
2522.2576
2342.8609
2187.5629
2053.375
1937.3655
1837.257
1751.2412
1677.8446
1615.8568
1564.2889
1522.3429
1489.388
1464.9427
1448.6637
1440.3425
1439.8951
1447.3554
1462.923
1486.94
1519.9186
1562.5702
1615.8465
1680.9755
1977.2662
1836.1921
1712.4044
1604.2218
1509.8323
1427.7439
1356.6958
1295.6106
1243.5714
1199.8053
1163.6675
1134.6284
1112.2638
1096.2493
1086.3566
1082.453
1084.5023
1092.5702
1106.8315
1127.5798
1155.2461
1190.4217
1233.8791
1606.6538
1486.9034
1380.9735
1287.7966
1206.1137
1134.7931
1072.8247
1019.3122
973.46576
934.59511
902.10319
875.4814
854.30559
838.23307
827.00013
820.42049
818.38475
820.86113
827.89799
839.62868
856.28043
878.1869
1359.9513
1248.3392
1149.8773
1063.5846
988.27095
922.79879
866.1256
817.31005
775.51128
739.9881
710.0967
685.28652
665.09494
649.14136
637.12144
628.80201
624.01689
622.66401
624.70392
630.16012
639.12209
651.75028
1175.215
1066.0222
971.20275
889.26096
818.66593
757.99648
705.98063
661.50093
623.5887
591.41429
564.27481
541.58073
522.84252
507.65851
495.70402
486.72234
480.51729
476.94753
475.92236
477.3992
481.38307
487.92737
1005.7126
901.28459
812.42211
736.93509
672.85686
618.46853
572.30332
533.12602
499.90492
471.78342
448.05362
428.13286
411.54349
397.89593
386.87472
378.22715
371.75424
367.30362
364.76404
364.06153
365.15703
368.04504
839.93264
744.34166
664.6711
598.13486
542.44869
495.72986
456.44322
423.34334
395.42162
371.86149
352.00168
335.30638
321.34137
309.75493
300.26277
292.63608
286.69218
282.28719
279.31033
277.67964
277.33907
278.25629
682.09813
598.39251
529.94189
473.65923
427.15772
388.55567
356.3723
329.441
306.8399
287.83772
271.85204
258.41724
247.15983
237.77935
230.03381
223.72826
218.70607
214.84205
212.03725
210.21487
209.31736
209.30415
540.89514
469.58371
412.43745
366.21275
328.52774
297.58222
272.00739
250.7551
233.01647
218.16236
205.69981
195.23985
186.47372
179.15496
173.08603
168.10813
164.09339
160.93894
158.56233
156.89798
155.89464
155.51324
417.43192
358.74713
312.63632
275.91947
246.36063
222.33226
202.63418
186.37025
172.86314
161.59505
152.166
144.26407
137.64395
132.11126
127.51103
123.719
120.63519
118.17892
116.28508
114.90121
113.98537
113.5044
317.0625
269.05904
232.24425
203.48758
180.68874
162.3806
147.51733
135.33965
125.28701
116.93919
109.9769
104.15455
99.281167
95.20684
91.812874
89.004611
86.706103
84.856114
83.405092
82.312878
81.546988
81.081228
234.99693
196.65227
168.04213
146.16142
129.094
115.55959
104.67796
95.82868
88.564658
82.557403
77.561382
73.390281
69.900819
66.981496
64.544641
62.520686
60.853985
59.499728
58.421623
57.59015
56.981268
56.575358
174.23103
142.94985
120.4272
103.66431
90.8597
80.86914
72.937653
66.550714
61.347705
57.069679
53.526755
50.577119
48.113145
46.051992
44.329098
42.893586
41.704974
40.730774
39.944711
39.325402
38.855372
38.520269
129.58708
103.4309
85.464965
72.56045
62.963273
55.62563
49.890122
45.326337
41.642284
38.633844
36.154634
34.097339
32.381764
30.946968
29.745955
28.742002
27.906081
27.215001
26.650063
26.196063
25.84056
25.573298
102.32025
78.463273
62.849207
52.097342
44.381386
38.6534
34.281791
30.869402
28.156646
25.967974
24.181082
22.708525
21.486397
20.467079
19.614431
18.900586
18.303752
17.806677
17.395542
17.059174
16.788455
16.575879
83.824548
62.16423
48.25832
38.907019
32.356493
27.604611
24.054644
21.336769
19.213147
17.525641
16.165956
15.057965
14.146823
13.392187
12.763875
12.238952
11.799734
11.432407
11.126042
10.871895
10.662903
10.493293
68.227904
50.008767
38.202171
30.227081
24.642838
20.609374
17.617073
15.345532
13.586743
12.201726
11.095193
10.20026
9.4689844
8.8663374
8.3662812
7.949151
7.599877
7.3067547
7.0605807
6.8540357
6.6812387
6.5374132
51.022535
37.636165
28.855456
22.839132
18.563971
15.433264
13.082527
11.279506
9.8711379
8.7536844
7.8555261
7.1255559
6.5265794
6.0310452
5.6182389
5.2723632
4.9811976
4.7351709
4.526703
4.3497308
4.1993599
4.0716015
35.028839
25.975102
20.025018
15.93067
13.00553
10.851188
9.2223174
7.9615274
6.9665565
6.1683228
5.5190095
4.9847127
4.5408471
4.1691969
3.8559688
3.5905153
3.3644983
3.1713156
3.0056736
2.8632774
2.7406153
2.634792
17.44663
13.211981
10.416515
8.4805675
7.0866827
6.050433
5.2586427
4.639145
4.1438734
3.7396252
3.4044845
3.1231531
2.8845172
2.6804446
2.5049128
2.3532121
2.2215844
2.1069705
2.0068555
1.9191561
1.8422427
1.7747703
6.1341773
4.8327504
3.9597989
3.3462402
2.8986862
2.5623463
2.303386
2.0999988
1.9376113
1.806176
1.6985644
1.609591
1.5354118
1.47306
1.4201918
1.3750238
1.3361879
1.3026161
1.2734556
1.2480187
1.225745
1.2061733
10717.159
10190.057
10147.699
10686.014
11896.333
13873.161
16670.106
20214.948
24095.755
9939.3243
9447.6043
9380.9216
9808.7376
10793.464
12384.663
14581.485
17287.561
20275.439
9113.4544
8664.0993
8577.4878
8902.6206
9682.7513
10937.823
12638.864
14684.704
16895.718
8274.4812
7859.5969
7751.0949
7979.5037
8574.3448
9535.6227
10819.366
12327.579
13901.269
7460.2601
7060.3698
6921.865
7057.4509
7485.8521
8193.8087
9131.3482
10210.598
11293.276
6709.3742
6296.9211
6114.7304
6159.5625
6439.8435
6933.7368
7590.8611
8336.5748
9061.1011
6076.3481
5607.795
5358.1742
5313.3879
5462.2955
5778.9357
6214.8828
6708.7839
7179.0517
5668.2347
5039.9664
4687.957
4548.5307
4580.3677
4752.1686
5017.3172
5325.2081
5618.8948
5537.7082
4697.8571
4152.6934
3894.8174
3821.1077
3873.761
4008.2173
4181.0478
4352.4282
5835.9163
4612.2681
3850.0331
3403.7357
3209.9598
3159.9694
3192.1838
3266.7128
3352.2144
6607.63
4912.3025
3781.9406
3139.9707
2786.61
2628.6024
2574.0131
2572.7937
2595.6275
7175.4946
5585.5135
4004.0088
3078.1072
2564.4693
2287.3329
2147.9251
2082.6995
2056.0002
7447.6019
6157.8344
4406.8444
3182.5973
2486.7576
2096.3339
1880.5951
1760.6382
1693.7144
7565.6324
6450.8325
4752.0767
3302.7662
2462.1643
1987.5598
1714.2292
1553.4484
1457.1036
7602.729
6563.748
4978.9011
3360.6488
2409.7881
1879.1072
1573.5712
1391.3023
1279.463
7609.082
6581.8957
5079.0722
3376.1161
2307.9519
1733.4609
1413.0945
1224.9939
1109.9553
7501.8113
6420.6467
5089.1128
3333.5475
2162.3426
1557.5105
1234.0807
1049.4808
938.40586
7433.2649
6291.8428
4928.5628
3208.0637
1976.1575
1360.7549
1046.6601
873.09469
770.76643
7298.8739
6090.9279
4741.7046
3090.821
1803.7133
1175.1195
871.92869
711.11138
618.77333
7217.492
5933.4412
4514.5141
2940.1911
1627.1111
993.97951
708.24212
563.869
483.44968
7170.417
5787.5449
4315.1765
2805.2677
1507.0093
852.97042
575.40279
443.59594
373.05933
7154.0659
5669.4367
4109.8958
2629.2528
1406.0151
733.41171
461.87013
342.37182
281.55157
7216.7915
5601.8469
3944.8356
2455.8596
1327.7509
661.5538
383.71578
269.03376
214.23847
7319.8508
5559.4584
3765.0398
2249.9473
1203.7566
603.67092
329.74568
216.72555
165.2847
7539.0097
5543.6563
3614.5507
2062.9169
1067.2074
541.53457
295.43865
186.7615
136.57351
7740.5783
5473.9582
3383.5543
1817.7929
897.72994
449.8499
249.36138
158.61642
114.83934
7851.6961
5323.9754
3107.2366
1568.4064
733.13274
357.61138
198.6554
128.0265
93.621797
7845.9436
4917.9699
2601.653
1185.1903
517.68527
248.97604
140.78651
92.923171
69.245622
7320.3792
4129.6654
1940.1386
803.73629
335.89752
161.77981
93.037563
62.478708
47.217317
5804.0653
2725.5636
1031.6882
362.52904
145.07084
71.587307
42.812874
29.744907
23.069204
1930.6686
725.09646
253.08356
91.34415
39.180597
20.7843
13.273557
9.7237646
7.8440077
11837.875
10958.495
10007.337
9058.8645
8169.6987
7386.594
6826.5581
6579.1436
6751.1817
7498.0413
7972.878
8203.7882
8378.2699
8503.8958
8566.8762
8594.5978
8570.2724
8527.564
8482.5056
8465.3859
8497.5471
8577.2693
8794.5081
9045.7332
9523.3299
10035.526
10649.97
11226.334
11437.978
10366.098
4386.4699
13911.801
12826.302
11613.732
10435.237
9382.3995
8521.4872
8049.6214
7949.5246
8506.2536
8878.0413
9069.0561
9341.8831
9573.0338
9765.3093
9859.8833
9919.4161
9930.1773
9921.0784
9915.5582
9927.2094
10058.811
10204.7
10584.684
10979.728
11727.822
12623.197
13804.85
15460.702
17059.354
17562.506
10039.868
17957.757
16452.909
14675.78
13010.982
11631.711
10664.016
10252.791
10249.275
10532.872
10696.284
11080.113
11367.472
11782.325
12027.152
12145.579
12213.06
12201.207
12170.159
12154.779
12148.824
12308.123
12478.298
12990.513
13516.438
14493.457
15797.112
17613.144
20433.235
24702.401
28557.074
22833.929
27429.908
24890.95
21710.007
18825.059
16809.323
15763.452
15296.49
15619.348
16029.762
16373.61
16667.962
16985.852
17423.549
17797.183
17944.069
18013.505
17633.499
17354.686
17097.387
16924.584
16866.394
16924.678
17431.119
18059.299
19165.572
20842.729
23322.148
27538.194
35018.565
46203.784
49405.462
59152.808
53047.293
45834.376
38730.629
34249.021
34285.253
36819.289
38959.321
40078.833
40172.304
40234.794
40221.853
40405.864
40589.991
41097.174
42154.382
39941.346
38149.945
36359.894
34731.905
33484.239
32540.289
32198.016
32443.409
33257.142
34908.629
38033.584
43894.552
55291.885
80365.763
109908.47
292868.23
263507.39
231804.67
194846.22
167389.04
158047.57
156662.85
157236.84
157964.33
158654.96
159199.42
159453.4
159258.17
158548.17
157245.89
155528.47
152638.34
149979.44
146686.12
144080.64
141470.01
139402.78
138233.12
137736.84
137719.6
138650.23
141900.25
148351.15
162518.52
199025.55
234521.75
)
;

boundaryField
{
    Side1
    {
        type            empty;
    }
    Inlet
    {
        type            inletOutlet;
        inletValue      uniform 1;
        value           uniform 1;
    }
    Side2
    {
        type            empty;
    }
    Outlet
    {
        type            zeroGradient;
    }
    Botwall
    {
        type            omegaWallFunction;
        blending        binomial;
        n               2;
        value           nonuniform List<scalar> 
59
(
403331.58
397123.78
390432.39
383314.21
329553.25
374614.35
420386.43
466784.63
511862.67
556841.27
596992.54
632019.39
661296.77
683875.24
699154
706739.53
706699.24
698489.16
683397.16
662389.61
636628.64
607544.21
576236.53
544018.19
511594.52
480106.49
449462.72
422074.8
292868.23
263507.39
231804.67
194846.22
167389.04
158047.57
156662.85
157236.84
157964.33
158654.96
159199.42
159453.4
159258.17
158548.17
157245.89
155528.47
152638.34
149979.44
146686.12
144080.64
141470.01
139402.78
138233.12
137736.84
137719.6
138650.23
141900.25
148351.15
162518.52
199025.55
234521.75
)
;
    }
    Cyli
    {
        type            omegaWallFunction;
        blending        binomial;
        n               2;
        value           nonuniform List<scalar> 
76
(
728666.39
750022.15
772007.79
793896.84
815298.61
834561.88
852008.77
864834.64
874415.16
877154.81
874256.23
868446.51
855833.08
834847.18
804080.15
767126.44
726871.22
676542.64
615912.84
547751.77
474141.79
367750.64
226163.54
151177.79
145942.88
149710.42
151247.83
155775.62
161701.16
168368.47
175621.1
183038.25
188811.09
193218.38
195480.99
198756.01
194127
190107.76
185665.06
179279.57
171101.02
163289.35
156318.94
149823.54
145581.15
139739.5
137364.23
171284.06
780113.64
778659.35
776388.95
774219.61
771340
762949.1
756202.89
748359.62
739846.49
733237.62
737772.94
719604.73
719928.08
722863.47
725601.35
726900.39
727093.66
729673.1
727010.42
724905.98
723362.22
722713.69
721308.82
722713.47
293664.83
393648.3
781231.51
781089.62
)
;
    }
    procBoundary0to1
    {
        type            processor;
        value           nonuniform List<scalar> 
44
(
87997.651
87997.651
98109.53
82513.511
82513.511
41320.588
41320.588
24088.817
17142.488
17142.488
14602.07
14602.07
13807.734
13535.365
13588.097
13588.097
13603.743
13628.601
13653.922
13666.461
13716.485
13716.485
14046.134
14961.866
17508.406
17508.406
26600.065
35067.429
38221.808
60013.128
49691.019
41815.476
36526.089
33990.158
35067.429
33610.828
60013.128
68823.643
42994.567
50325.288
62425.435
84906.817
138968.34
375854.47
)
;
    }
    procBoundary0to2
    {
        type            processor;
        value           nonuniform List<scalar> 
55
(
108463.86
97449.613
88629.387
81174.186
74685.374
161250.7
126342.17
232086.17
161250.7
177642.62
102612.39
41741.065
62231.868
41741.065
30178.538
232086.17
299643.58
299643.58
462592.38
780305.57
215433.09
215433.09
102612.39
23714.103
19204.17
15367.777
12165.845
9532.1642
7391.1651
5668.7746
4298.9995
3223.9307
2392.2281
1759.3289
1286.4912
905.79696
905.79696
668.27816
497.13155
372.74897
280.41702
210.14596
155.72118
113.42937
80.891846
56.35404
38.306227
25.38398
16.41373
10.357246
6.4179406
3.9628546
2.5432132
1.7155125
1.1889116
)
;
    }
    procBoundary0to3
    {
        type            processor;
        value           nonuniform List<scalar> 7(51567.004 51567.004 93256.485 93256.485 96234.326 96234.326 78798.895);
    }
}


// ************************************************************************* //
