/*--------------------------------*- C++ -*----------------------------------*\
| =========                 |                                                 |
| \\      /  F ield         | OpenFOAM: The Open Source CFD Toolbox           |
|  \\    /   O peration     | Version:  2406                                  |
|   \\  /    A nd           | Website:  www.openfoam.com                      |
|    \\/     M anipulation  |                                                 |
\*---------------------------------------------------------------------------*/
FoamFile
{
    version     2.0;
    format      ascii;
    arch        "LSB;label=32;scalar=64";
    class       volScalarField;
    location    "0.01";
    object      T;
}
// * * * * * * * * * * * * * * * * * * * * * * * * * * * * * * * * * * * * * //

dimensions      [0 0 0 1 0 0 0];

internalField   nonuniform List<scalar> 
2257
(
293.25065
293.05735
292.81915
292.56266
292.33915
292.169
292.04709
293.01099
292.77918
292.79747
292.82719
292.88149
292.99418
293.11033
293.12665
292.65326
292.67644
292.71599
292.79814
292.95621
292.99078
292.50445
292.52179
292.55071
292.60994
292.77219
292.87757
292.35228
292.36445
292.38506
292.42713
292.55095
292.72829
292.19897
292.20655
292.22044
292.24931
292.33192
292.57261
292.04825
292.05153
292.05906
292.07598
292.12355
292.34308
291.90195
291.90038
291.90133
291.9084
291.9384
292.14982
291.76396
291.75728
291.75202
291.7515
291.77178
291.95955
291.64042
291.62919
291.61894
291.61292
291.62613
291.77923
291.53639
291.52128
291.50702
291.49661
291.50287
291.61852
291.45557
291.4368
291.41892
291.40448
291.40379
291.48449
291.40067
291.37819
291.35664
291.33779
291.32909
291.37879
291.37078
291.34431
291.31936
291.29736
291.28354
291.30526
291.37121
291.33958
291.30854
291.27909
291.25318
291.25648
291.38284
291.35241
291.32152
291.29052
291.26325
291.23677
291.40629
291.37501
291.34435
291.31371
291.28035
291.24257
291.44246
291.40807
291.37493
291.34221
291.30757
291.26255
291.48851
291.45177
291.4157
291.37873
291.33823
291.28582
291.5377
291.49936
291.46166
291.4231
291.37917
291.31962
291.58874
291.54967
291.51156
291.47299
291.42931
291.36041
291.63786
291.59768
291.55809
291.51737
291.47096
291.40037
291.68742
291.64755
291.60846
291.56823
291.52121
291.44432
291.72885
291.68827
291.64839
291.60729
291.55966
291.48385
291.77972
291.73916
291.699
291.65714
291.60755
291.52695
292.6577
292.66091
292.66596
292.67573
292.68899
292.70485
292.7236
292.74597
292.77215
292.5073
292.51625
292.52826
292.542
292.55677
292.57266
292.59022
292.60988
292.63216
292.36045
292.37423
292.39027
292.40648
292.42207
292.43728
292.45287
292.46954
292.48783
292.21298
292.23048
292.24953
292.26784
292.28425
292.29879
292.31233
292.32586
292.34004
292.06746
292.08844
292.1101
292.13009
292.14686
292.16028
292.17129
292.18124
292.19105
291.92923
291.95284
291.97645
291.99726
292.01358
292.02513
292.03303
292.03898
292.0444
291.80283
291.82835
291.85286
291.87341
291.88817
291.89692
291.90095
291.90227
291.90273
291.69685
291.72149
291.74453
291.76298
291.7748
291.77967
291.77895
291.77496
291.76988
291.61518
291.63638
291.65598
291.67065
291.67804
291.67783
291.67159
291.66189
291.65124
291.54962
291.57071
291.5894
291.60061
291.60254
291.59597
291.58338
291.56769
291.55166
291.56977
291.57855
291.57774
291.57014
291.55826
291.54089
291.51964
291.49693
291.47524
291.59167
291.59093
291.58705
291.57222
291.54539
291.51479
291.48321
291.4525
291.42482
291.64583
291.62761
291.60492
291.57951
291.55079
291.51458
291.47375
291.43442
291.39996
291.7418
291.70018
291.65463
291.60934
291.56445
291.52097
291.4798
291.44091
291.4045
291.8673
291.80279
291.73448
291.66715
291.6039
291.54712
291.49701
291.45255
291.41491
292.00249
291.91581
291.8271
291.74131
291.66276
291.59291
291.53249
291.48175
291.44045
292.13292
292.02755
291.92118
291.81974
291.72841
291.64907
291.58165
291.52572
291.48024
292.24363
292.12761
292.00962
291.8967
291.79532
291.70824
291.63545
291.57603
291.5283
292.33354
292.21289
292.08876
291.9685
291.86009
291.7674
291.69051
291.62833
291.57889
292.41336
292.28611
292.15861
292.03426
291.92126
291.8247
291.74503
291.68108
291.63068
292.50972
292.35856
292.21952
292.09124
291.97615
291.87769
291.79654
291.73154
291.68052
292.62258
292.45646
292.29447
292.15164
292.02999
291.92839
291.84599
291.7806
291.72975
292.71353
292.50107
292.33529
292.19166
292.07144
291.9699
291.88769
291.82239
291.77154
293.14063
292.80663
292.53207
292.31495
292.15261
292.03108
291.94141
291.87369
291.82232
292.33525
292.3317
292.31267
292.27283
292.24962
292.24443
292.25145
292.26801
292.29395
292.33002
292.37764
292.43848
292.51437
292.60738
292.22063
292.2176
292.19881
292.15452
292.12418
292.11465
292.11872
292.13277
292.15644
292.19039
292.23599
292.29474
292.36805
292.45742
292.10293
292.10011
292.08201
292.03457
291.99692
291.98195
291.9827
291.99446
292.01635
292.04873
292.0928
292.14999
292.22156
292.30866
291.98746
291.98493
291.96799
291.91977
291.8753
291.85511
291.85299
291.86251
291.8822
291.91214
291.95352
292.00782
292.07646
292.1606
291.86142
291.85959
291.84546
291.7998
291.7526
291.72892
291.72386
291.73112
291.749
291.77725
291.8168
291.86881
291.93453
292.01515
291.76282
291.76149
291.75072
291.71093
291.66338
291.63538
291.62409
291.62549
291.63803
291.66122
291.69591
291.74307
291.80371
291.87875
291.65606
291.65589
291.64946
291.61481
291.56542
291.52962
291.51354
291.51307
291.52562
291.5486
291.58262
291.62824
291.68576
291.7548
291.60817
291.60848
291.60905
291.59278
291.55313
291.51857
291.49849
291.48865
291.48743
291.49738
291.51862
291.55155
291.59683
291.65428
291.38811
291.39942
291.4251
291.43081
291.41883
291.4088
291.40833
291.41371
291.42425
291.4365
291.45872
291.49265
291.53426
291.58159
291.7577
291.7581
291.75151
291.72841
291.66109
291.58913
291.53687
291.5055
291.4895
291.48566
291.48181
291.48203
291.49539
291.52365
291.7442
291.72524
291.66977
291.60325
291.54429
291.50483
291.47288
291.45365
291.44421
291.44787
291.46297
291.48621
291.5154
291.5485
291.5458
291.54308
291.54315
291.54943
291.56015
291.5533
291.53951
291.52711
291.52276
291.5287
291.54666
291.56727
291.58474
291.59368
291.67018
291.6753
291.68977
291.70612
291.71413
291.7158
291.71676
291.71505
291.71125
291.70603
291.69965
291.69383
291.68435
291.66693
291.86377
291.87013
291.89397
291.9461
292.00407
292.02583
292.01802
291.9971
291.97185
291.94347
291.912
291.87736
291.83747
291.78884
292.09865
292.10062
292.1119
292.15127
292.23077
292.3023
292.32301
292.29709
292.25397
292.20455
292.15066
292.0908
292.02215
291.94156
292.25938
292.26193
292.27327
292.30703
292.38482
292.4824
292.56471
292.60828
292.58969
292.52691
292.44003
292.33806
292.2258
292.10448
292.50175
292.50139
292.49835
292.49189
292.51108
292.58344
292.67084
292.70207
292.71196
292.70892
292.64634
292.54102
292.40829
292.25683
293.09593
293.09529
293.08899
293.06195
292.98744
292.89277
292.86134
292.91133
292.90739
292.81149
292.75677
292.67243
292.53822
292.37697
293.39282
293.39212
293.38835
293.37602
293.34163
293.27688
293.19071
293.1027
293.06074
293.05877
292.8861
292.7524
292.63336
292.47002
293.47135
293.47093
293.46846
293.46381
293.45313
293.43463
293.40736
293.36779
293.29874
293.2011
293.15777
292.92091
292.72173
292.55465
293.49474
293.49425
293.49185
293.48865
293.48285
293.47792
293.47245
293.46351
293.44251
293.39275
293.28483
293.19753
292.89173
292.66724
293.50467
293.50416
293.50129
293.49728
293.48925
293.48143
293.47536
293.47488
293.47403
293.46528
293.42814
293.30145
293.19252
292.7977
293.50758
293.50704
293.50408
293.50015
293.49176
293.48295
293.47369
293.46995
293.46936
293.47013
293.46644
293.43288
293.29143
293.13475
293.50908
293.50862
293.50547
293.50178
293.49355
293.48603
293.47818
293.47395
293.47053
293.46791
293.46528
293.45864
293.40984
293.24226
293.50713
293.50672
293.50404
293.5009
293.49368
293.48735
293.48081
293.47734
293.47415
293.47096
293.46703
293.46058
293.44495
293.35524
293.50905
293.50873
293.50597
293.50314
293.49599
293.4906
293.48421
293.4809
293.47761
293.47469
293.47119
293.46661
293.45848
293.42477
293.50125
293.50095
293.49842
293.49583
293.4893
293.48457
293.47881
293.47564
293.47242
293.46948
293.4665
293.46298
293.45753
293.49034
293.48996
293.48741
293.48448
293.47779
293.47302
293.46808
293.46576
293.46358
293.46177
293.45983
293.45733
293.4534
293.47836
293.47804
293.47585
293.47345
293.46756
293.46343
293.45925
293.45736
293.45586
293.45482
293.45376
293.45223
293.46722
293.46704
293.46472
293.46274
293.45657
293.45341
293.45033
293.44964
293.44914
293.44922
293.46354
293.4632
293.4608
293.45855
293.45362
293.44929
293.44747
293.44651
293.44657
293.45997
293.45985
293.45822
293.45525
293.45035
293.44763
293.44607
293.49872
293.49825
293.49845
293.49755
293.49782
293.49766
293.50733
293.50705
293.50734
293.50624
293.50643
293.50582
293.50642
293.50749
293.50915
293.51092
293.51073
293.51131
293.51041
293.51107
293.51083
293.51164
293.51315
293.51482
293.51712
293.52234
293.52186
293.52225
293.52082
293.52132
293.5201
293.52048
293.52057
293.52158
293.52299
293.52513
293.5275
293.52731
293.52769
293.52628
293.52628
293.52517
293.52456
293.52478
293.52529
293.52626
293.52792
293.53052
293.5301
293.52999
293.52932
293.52853
293.52643
293.52444
293.52324
293.52321
293.52322
293.52373
293.52458
293.53057
293.53012
293.53008
293.52842
293.52737
293.52323
292.22504
292.22143
292.1974
292.1649
292.15409
292.41029
292.40733
292.38748
292.3616
292.35332
292.35641
292.36686
292.38401
292.40845
292.44144
292.48476
292.58775
292.58549
292.56974
292.54978
292.54376
292.54633
292.55467
292.56831
292.58786
292.61453
292.64986
292.69548
292.75432
292.82744
292.75419
292.75262
292.7412
292.72677
292.72265
292.72479
292.73126
292.74181
292.75695
292.77763
292.80538
292.84247
292.89143
292.95305
292.90463
292.90363
292.89589
292.8863
292.8839
292.88585
292.89091
292.89902
292.91071
292.92697
292.94911
292.97896
293.01898
293.07075
293.03793
293.0375
293.03322
293.02783
293.02704
293.02895
293.03294
293.03908
293.04788
293.06021
293.07737
293.10117
293.13409
293.17785
293.15475
293.1549
293.15304
293.15075
293.15077
293.15235
293.15519
293.15954
293.16586
293.17498
293.18815
293.20715
293.23443
293.27193
293.25084
293.25108
293.2512
293.25108
293.2519
293.25324
293.25534
293.25837
293.26285
293.26956
293.2797
293.29509
293.31825
293.3513
293.3149
293.31554
293.31708
293.31931
293.32137
293.32338
293.32572
293.32866
293.33274
293.33876
293.34796
293.36206
293.38347
293.41442
293.36956
293.37006
293.37164
293.37374
293.37539
293.37684
293.37851
293.38066
293.3838
293.38868
293.39666
293.40968
293.43023
293.46057
293.372
293.37295
293.37543
293.37954
293.38288
293.38599
293.38936
293.39341
293.39869
293.40596
293.41656
293.43223
293.45533
293.48813
293.34738
293.34804
293.35047
293.35531
293.36031
293.36525
293.37085
293.37754
293.38601
293.39698
293.41165
293.43162
293.45917
293.49653
293.31764
293.31835
293.31979
293.32396
293.32922
293.33504
293.34187
293.35014
293.36055
293.37392
293.39138
293.41465
293.44636
293.4887
293.27027
293.27064
293.27078
293.27337
293.27855
293.28501
293.293
293.30294
293.31561
293.33194
293.35327
293.38115
293.41788
293.46597
293.20916
293.20945
293.20809
293.20866
293.21327
293.22023
293.22938
293.24108
293.25611
293.27542
293.30042
293.33298
293.37513
293.42891
293.13957
293.1394
293.13614
293.13362
293.13699
293.14394
293.15386
293.16696
293.18408
293.20616
293.23466
293.27144
293.31879
293.37915
293.05988
293.05953
293.05443
293.04859
293.0505
293.05729
293.06783
293.08217
293.10114
293.12577
293.15753
293.19835
293.25084
293.31749
292.97245
292.9717
292.9645
292.95465
292.95454
292.96091
292.9719
292.98738
293.00812
293.03518
293.07011
293.11488
293.17223
293.24468
292.87871
292.8777
292.86858
292.85446
292.85196
292.85764
292.8688
292.88504
292.90713
292.93616
292.97375
293.02196
293.08366
293.16139
292.77663
292.77517
292.76387
292.7449
292.73947
292.74417
292.75546
292.7726
292.79625
292.82747
292.8679
292.91964
292.98568
293.06861
292.67116
292.66939
292.65655
292.6336
292.62534
292.62877
292.63959
292.65676
292.68091
292.71321
292.75545
292.80992
292.87983
292.96792
292.56118
292.5588
292.5429
292.51276
292.49933
292.50028
292.51038
292.52791
292.55334
292.5878
292.63314
292.69168
292.76682
292.86097
292.43454
292.43238
292.41597
292.38419
292.36924
292.3697
292.37996
292.39843
292.42564
292.46263
292.51115
292.57364
292.65352
292.75182
292.84658
292.95058
293.05245
293.147
293.23326
293.30983
293.37578
293.43073
293.47349
293.50384
293.52068
293.52361
293.51156
293.48279
293.43808
293.37841
293.30464
293.21795
293.1197
293.0118
292.93638
293.04205
293.13769
293.22452
293.30258
293.37078
293.42855
293.47557
293.51126
293.53491
293.54635
293.54528
293.53092
293.50238
293.46039
293.40561
293.33877
293.26072
293.17243
293.07527
293.03494
293.13563
293.22328
293.30185
293.37138
293.43104
293.48067
293.51963
293.54808
293.56541
293.57175
293.56693
293.55042
293.52204
293.48237
293.43193
293.37131
293.30112
293.22207
293.13488
293.13798
293.23043
293.30933
293.37895
293.43932
293.49011
293.5312
293.56245
293.58354
293.59469
293.59611
293.5877
293.56921
293.54094
293.50332
293.45681
293.40186
293.3389
293.2684
293.19081
293.24302
293.32547
293.39464
293.45443
293.50516
293.54686
293.57937
293.60254
293.61655
293.6218
293.61849
293.60666
293.58641
293.55819
293.52241
293.47945
293.42966
293.37335
293.31082
293.24229
293.34797
293.4188
293.47727
293.52669
293.56772
293.60019
293.62386
293.63903
293.64619
293.64573
293.63791
293.62285
293.60104
293.57288
293.53877
293.49902
293.4539
293.40364
293.34843
293.28839
293.44966
293.50781
293.5552
293.59434
293.62549
293.64832
293.66317
293.67063
293.67121
293.66528
293.65314
293.63526
293.61211
293.58408
293.55152
293.5147
293.47382
293.42903
293.38043
293.32807
293.54474
293.59018
293.62673
293.65543
293.67616
293.68936
293.69572
293.69582
293.69014
293.67907
293.66315
293.64289
293.61871
293.59097
293.55994
293.52585
293.48885
293.44903
293.40642
293.361
293.63064
293.66446
293.68988
293.70732
293.7176
293.72156
293.71987
293.71303
293.70161
293.68617
293.6672
293.64513
293.62033
293.5931
293.56365
293.53215
293.49871
293.46337
293.42614
293.38695
293.70815
293.72917
293.74175
293.7476
293.74784
293.74316
293.73413
293.72135
293.70532
293.68653
293.66537
293.64218
293.61724
293.59079
293.56299
293.53395
293.50374
293.47239
293.43986
293.4061
293.77139
293.77704
293.77722
293.77291
293.76473
293.75318
293.7387
293.7217
293.70255
293.6816
293.65917
293.63552
293.61087
293.5854
293.55923
293.53245
293.5051
293.47719
293.44869
293.41952
293.80405
293.80024
293.79309
293.78292
293.76996
293.75447
293.73682
293.71735
293.6964
293.67428
293.65126
293.62758
293.60343
293.57896
293.55428
293.52945
293.50451
293.47947
293.45428
293.4289
293.82025
293.81174
293.80041
293.78646
293.77023
293.75209
293.73237
293.71139
293.68942
293.66674
293.64358
293.62015
293.59661
293.5731
293.54971
293.52652
293.50355
293.48079
293.45823
293.43582
293.81674
293.80523
293.79182
293.77664
293.75984
293.74159
293.72206
293.70146
293.68001
293.65797
293.63555
293.61299
293.59046
293.56811
293.54606
293.52438
293.50312
293.48229
293.46188
293.44186
293.79922
293.78766
293.77478
293.76052
293.74489
293.72795
293.70978
293.69053
293.6704
293.64961
293.62841
293.60703
293.58568
293.56455
293.54377
293.52345
293.50365
293.4844
293.46572
293.44758
293.77556
293.76443
293.75241
293.73941
293.72539
293.71033
293.69423
293.67712
293.6591
293.64033
293.62098
293.6013
293.58151
293.56183
293.54245
293.5235
293.5051
293.48731
293.47014
293.45361
293.74711
293.7367
293.72574
293.71414
293.70185
293.68882
293.67499
293.66034
293.64485
293.62857
293.6116
293.5941
293.57626
293.55832
293.5405
293.52301
293.50599
293.48955
293.47377
293.45867
293.71678
293.70713
293.69709
293.68661
293.67566
293.6642
293.65219
293.63959
293.62636
293.61249
293.59797
293.58287
293.5673
293.55143
293.53547
293.51963
293.50412
293.48911
293.4747
293.46098
293.68651
293.67754
293.66825
293.65861
293.64858
293.63817
293.62733
293.61604
293.60429
293.59207
293.57935
293.56617
293.55256
293.53861
293.52447
293.51031
293.49635
293.48279
293.4698
293.4575
293.65782
293.6495
293.64084
293.63181
293.6224
293.61258
293.60235
293.59169
293.5806
293.56907
293.55712
293.54477
293.53205
293.51906
293.50588
293.49269
293.47967
293.46703
293.45499
293.44372
293.63316
293.62528
293.617
293.60829
293.59915
293.58954
293.57945
293.56888
293.55781
293.54624
293.53418
293.52165
293.50869
293.49539
293.48185
293.46825
293.45482
293.44182
293.42953
293.41821
293.61283
293.60504
293.59678
293.588
293.57871
293.56887
293.55846
293.54747
293.53587
293.52364
293.51078
293.49729
293.48319
293.46852
293.45341
293.43802
293.42268
293.40777
293.39375
293.38108
293.59737
293.58917
293.58034
293.57087
293.56074
293.54993
293.53842
293.52617
293.51316
293.49934
293.48467
293.46912
293.45266
293.43532
293.4172
293.39854
293.37981
293.36177
293.34534
293.33127
293.5871
293.5776
293.56728
293.55611
293.54404
293.53104
293.51707
293.50209
293.48601
293.46874
293.45017
293.43021
293.40881
293.38612
293.36267
293.33956
293.31821
293.29978
293.28486
293.27343
293.58068
293.5685
293.55519
293.54071
293.52499
293.50796
293.48952
293.46949
293.44766
293.42381
293.39784
293.37004
293.34149
293.31402
293.28947
293.26906
293.25299
293.24084
293.23193
293.22556
293.57404
293.55701
293.53848
293.5184
293.49661
293.47284
293.44674
293.41797
293.38653
293.35329
293.32028
293.29008
293.26452
293.24407
293.22826
293.21625
293.20714
293.20018
293.19485
293.19078
293.55765
293.5338
293.50813
293.48018
293.44949
293.41577
293.37945
293.34222
293.30697
293.27621
293.2509
293.23071
293.21472
293.2019
293.19145
293.18278
293.17553
293.16944
293.16433
293.16008
293.5348
293.50088
293.46481
293.4262
293.38646
293.34804
293.31306
293.28289
293.25777
293.23707
293.21988
293.20522
293.19243
293.18112
293.17106
293.16209
293.15411
293.147
293.14067
293.13506
293.49499
293.44605
293.39922
293.35841
293.32456
293.29689
293.2742
293.25505
293.23824
293.22302
293.20898
293.19597
293.18386
293.17255
293.16195
293.15199
293.14264
293.13388
293.1257
293.11811
293.22403
293.20089
293.18229
293.16637
293.15207
293.13898
293.12694
293.11592
293.10587
293.09673
293.08844
293.08093
293.07413
293.06796
293.06237
293.05729
293.05267
293.04847
293.04465
293.04116
292.6821
292.70828
292.73093
292.75048
292.76748
292.78242
292.79574
292.80775
292.8187
292.82878
292.83813
292.84686
292.85505
292.86276
292.87006
292.87698
292.88359
292.88991
292.89598
292.90181
292.89325
292.86338
292.83888
292.82035
292.80617
292.79609
292.79156
292.79565
292.80298
292.98446
292.9531
292.92798
292.90989
292.89725
292.88912
292.88573
292.88923
292.89728
293.08485
293.05018
293.02384
293.00557
292.99412
292.98776
292.98594
292.98986
292.99746
293.1953
293.15501
293.12627
293.10688
293.09597
293.09088
293.09043
293.09495
293.10205
293.32065
293.26929
293.23502
293.21363
293.20228
293.19765
293.19791
293.2025
293.20897
293.45691
293.39595
293.35148
293.32532
293.31212
293.30688
293.30691
293.3109
293.31657
293.58286
293.53063
293.47737
293.44198
293.42423
293.41681
293.4154
293.41796
293.42242
293.67469
293.64909
293.60578
293.56353
293.53758
293.52536
293.52097
293.52101
293.52318
293.73516
293.72982
293.71112
293.67956
293.64891
293.62968
293.62013
293.61609
293.6148
293.77783
293.77978
293.77743
293.76548
293.7447
293.72402
293.70966
293.70153
293.69746
293.80969
293.81313
293.81635
293.81686
293.81136
293.80081
293.78915
293.77869
293.77056
293.83388
293.83805
293.84207
293.84539
293.846
293.84095
293.83087
293.81963
293.80961
293.84898
293.84995
293.84972
293.84853
293.84682
293.84465
293.8406
293.83425
293.82714
293.8383
293.83955
293.84179
293.8435
293.844
293.84197
293.8375
293.83155
293.82512
293.83669
293.83489
293.832
293.82908
293.82598
293.82234
293.81786
293.81264
293.80725
293.81098
293.81053
293.80929
293.80694
293.80347
293.79905
293.79395
293.78855
293.78333
293.79006
293.78851
293.78566
293.78164
293.77668
293.7711
293.76528
293.75963
293.75451
293.75929
293.75784
293.75521
293.75131
293.74629
293.74053
293.73454
293.72882
293.72378
293.73072
293.72915
293.72621
293.72189
293.71643
293.7103
293.70406
293.69823
293.69319
293.70179
293.70013
293.69717
293.69285
293.68739
293.68124
293.67499
293.66917
293.66415
293.67759
293.67614
293.67327
293.66891
293.66329
293.65694
293.65047
293.64447
293.63932
293.66016
293.65831
293.65503
293.65029
293.6443
293.63757
293.63076
293.62445
293.61903
293.64951
293.64715
293.64343
293.63819
293.63164
293.62429
293.61683
293.60991
293.60397
293.64883
293.64609
293.64165
293.63539
293.62758
293.61884
293.60999
293.60179
293.59476
293.66051
293.65618
293.65004
293.64189
293.63194
293.6209
293.60972
293.59935
293.59043
293.68245
293.67655
293.66821
293.65716
293.64371
293.62878
293.61365
293.59961
293.58752
293.71888
293.70918
293.69613
293.67927
293.65894
293.63655
293.6142
293.59386
293.57675
293.77761
293.76052
293.7398
293.71417
293.68317
293.64939
293.61626
293.58666
293.56217
293.8496
293.81735
293.78112
293.74084
293.69712
293.65043
293.6059
293.5667
293.53393
293.82082
293.73848
293.63762
293.53233
293.4382
293.36369
293.31015
293.27373
293.24979
292.60993
292.59866
292.58662
292.57601
292.57766
292.59275
292.61502
292.63807
292.65818
292.92274
293.01791
293.12634
293.24744
293.38386
293.5127
293.61258
293.68188
293.73325
293.77415
293.80617
293.83024
293.84673
293.83789
293.83644
293.81121
293.7906
293.76002
293.7313
293.70257
293.67803
293.66099
293.65085
293.65039
293.66363
293.68683
293.72667
293.79338
293.88007
293.89028
292.6212
292.96058
293.06488
293.18769
293.31937
293.44775
293.54678
293.62183
293.67944
293.72809
293.76932
293.80213
293.82656
293.8431
293.83774
293.8336
293.81123
293.78995
293.76009
293.73086
293.70255
293.67751
293.66088
293.65108
293.65121
293.66584
293.69022
293.73349
293.80967
293.91203
293.95511
292.64362
293.03118
293.15229
293.27982
293.39232
293.48466
293.55687
293.61923
293.67303
293.72131
293.76374
293.79728
293.82157
293.83659
293.8368
293.82818
293.81027
293.78717
293.75888
293.72872
293.70122
293.67557
293.65938
293.64982
293.65148
293.66702
293.69272
293.73969
293.82622
293.94664
294.01419
292.68793
293.15363
293.25759
293.34238
293.42154
293.48761
293.55225
293.60936
293.66407
293.7112
293.75437
293.78865
293.81328
293.82705
293.82983
293.81987
293.80654
293.78056
293.75521
293.72364
293.69757
293.67124
293.65547
293.64678
293.65083
293.6668
293.69432
293.74553
293.8424
293.98572
294.07136
292.74061
293.21695
293.28063
293.34283
293.40937
293.46855
293.53324
293.58793
293.6467
293.69473
293.73294
293.76551
293.79523
293.80619
293.81273
293.80341
293.79469
293.766
293.74476
293.71196
293.68812
293.66172
293.64698
293.64029
293.64719
293.66383
293.69453
293.75099
293.85791
294.02943
294.13497
292.81906
293.2104
293.26849
293.32159
293.37779
293.43253
293.48937
293.54406
293.59701
293.6432
293.68582
293.72215
293.75122
293.75958
293.76928
293.76303
293.75114
293.73039
293.70732
293.68059
293.65726
293.63683
293.62604
293.62151
293.63008
293.65186
293.68945
293.7527
293.85945
294.05325
294.22125
292.81827
)
;

boundaryField
{
    Side1
    {
        type            empty;
    }
    Inlet
    {
        type            totalTemperature;
        gamma           1.4;
        T0              uniform 294.31799;
        value           uniform 293.00245;
    }
    Side2
    {
        type            empty;
    }
    Outlet
    {
        type            zeroGradient;
    }
    Botwall
    {
        type            zeroGradient;
    }
    Cyli
    {
        type            zeroGradient;
    }
    procBoundary0to1
    {
        type            processor;
        value           nonuniform List<scalar> 
55
(
293.19628
293.37891
293.19628
293.37891
292.53831
292.32842
292.16772
291.95844
292.05187
291.95844
291.8924
291.8426
292.97052
292.53831
292.7519
291.80156
291.76253
291.7238
291.68327
291.63516
291.55628
293.44407
293.44407
293.4452
293.44946
293.44906
293.44946
293.44855
293.44906
293.44687
293.44685
293.44687
293.44738
293.4526
293.45235
293.45177
293.45244
293.45076
293.45192
293.44685
293.45171
293.4935
293.49343
293.4938
293.49334
293.49397
293.49447
293.4992
293.4992
293.50098
293.50325
293.51153
293.51153
293.51988
293.51988
)
;
    }
    procBoundary0to2
    {
        type            processor;
        value           nonuniform List<scalar> 
62
(
293.52642
293.52177
293.52013
293.51998
293.5205
293.52642
293.52251
293.53063
293.53011
293.53016
293.52834
293.52643
293.52177
293.52243
292.04416
292.04009
292.01296
291.97412
291.96071
292.15796
292.15796
292.17109
292.19245
292.22258
292.26276
292.31474
292.54063
292.54063
292.61129
292.69604
292.89628
292.89628
292.97027
293.04063
293.10693
293.1682
293.2237
293.27202
293.31279
293.34578
293.37105
293.38964
293.40327
293.41353
293.42221
293.42997
293.4377
293.44424
293.44796
293.44594
293.43331
293.40804
293.37007
293.3199
293.26509
293.22117
293.18775
293.15661
293.13013
293.11113
293.038
292.90743
)
;
    }
    procBoundary0to3
    {
        type            processor;
        value           nonuniform List<scalar> 3(293.52815 293.52815 293.53489);
    }
}


// ************************************************************************* //
