/*--------------------------------*- C++ -*----------------------------------*\
| =========                 |                                                 |
| \\      /  F ield         | OpenFOAM: The Open Source CFD Toolbox           |
|  \\    /   O peration     | Version:  2406                                  |
|   \\  /    A nd           | Website:  www.openfoam.com                      |
|    \\/     M anipulation  |                                                 |
\*---------------------------------------------------------------------------*/
FoamFile
{
    version     2.0;
    format      ascii;
    arch        "LSB;label=32;scalar=64";
    class       volScalarField;
    location    "0.07";
    object      rho;
}
// * * * * * * * * * * * * * * * * * * * * * * * * * * * * * * * * * * * * * //

dimensions      [1 -3 0 0 0 0 0];

internalField   nonuniform List<scalar> 
2065
(
1.205344
1.2052046
1.2046323
1.193664
1.1945177
1.195423
1.1963484
1.1972714
1.1981825
1.199053
1.1998769
1.2006464
1.2013717
1.2020445
1.2026676
1.2032903
1.2038934
1.2044493
1.2049886
1.2053147
1.2053316
1.2051942
1.2046775
1.1893818
1.1896783
1.1899482
1.1901983
1.190445
1.1907117
1.1910224
1.1913969
1.1918525
1.1924009
1.1930459
1.1937816
1.1945936
1.195462
1.1963584
1.1972603
1.1981558
1.1990173
1.1998375
1.200605
1.201333
1.2020113
1.2026368
1.2032614
1.2038706
1.204424
1.2049652
1.2052994
1.2053183
1.2051824
1.2047018
1.1895553
1.1898636
1.1901516
1.19042
1.1906839
1.190963
1.1912772
1.1916449
1.1920826
1.1926028
1.1932119
1.1939076
1.1946793
1.1955106
1.1963767
1.1972555
1.1981333
1.1989842
1.199799
1.2005647
1.2012932
1.2019754
1.2026044
1.2032307
1.203846
1.2043972
1.2049402
1.2052831
1.2053042
1.2051692
1.2047079
1.1897302
1.190043
1.1903426
1.1906272
1.1909076
1.1911994
1.1915193
1.1918839
1.1923084
1.1928054
1.193383
1.1940418
1.1947749
1.1955692
1.1964037
1.1972576
1.1981159
1.198954
1.1997616
1.2005249
1.2012531
1.2019372
1.2025697
1.203198
1.203818
1.2043688
1.2049138
1.2052658
1.2052889
1.2051547
1.2046979
1.1899065
1.1902212
1.1905293
1.1908264
1.191121
1.191425
1.191752
1.192116
1.1925309
1.193009
1.1935591
1.1941842
1.1948805
1.1956383
1.1964404
1.1972674
1.1981042
1.1989276
1.1997261
1.2004855
1.2012123
1.2018978
1.2025329
1.203162
1.2037855
1.2043387
1.2048859
1.2052472
1.2052722
1.2051387
1.2046722
1.1900809
1.1903923
1.19071
1.1910203
1.1913285
1.1916442
1.1919788
1.192344
1.1927521
1.1932146
1.1937407
1.194335
1.1949966
1.1957185
1.1964873
1.1972859
1.1980993
1.198906
1.1996935
1.2004473
1.2011695
1.201857
1.2024967
1.2031235
1.2037496
1.2043065
1.204856
1.2052271
1.2052538
1.2051209
1.2046309
1.1902655
1.1905841
1.1909043
1.1912205
1.191538
1.1918633
1.1922047
1.1925716
1.1929745
1.1934239
1.1939286
1.1944948
1.1951234
1.1958102
1.1965453
1.1973141
1.1981023
1.1988901
1.1996646
1.200411
1.2011281
1.2018151
1.2024586
1.2030853
1.2037117
1.2042719
1.204824
1.2052052
1.2052333
1.2051007
1.2045743
1.1904465
1.1907748
1.1911037
1.1914279
1.1917541
1.1920878
1.192435
1.1928032
1.1932015
1.193639
1.1941244
1.1946642
1.1952614
1.195914
1.196615
1.1973527
1.198114
1.1988809
1.1996402
1.2003774
1.2010888
1.2017739
1.2024189
1.2030467
1.2036721
1.2042346
1.2047898
1.2051814
1.2052106
1.2050777
1.2045013
1.1906823
1.1910041
1.1913317
1.1916579
1.1919882
1.1923265
1.1926765
1.1930442
1.193437
1.1938628
1.1943297
1.1948446
1.1954114
1.1960305
1.1966971
1.1974025
1.1981352
1.1988791
1.1996211
1.200347
1.2010514
1.2017333
1.2023789
1.2030062
1.2036311
1.2041949
1.204753
1.2051553
1.2051853
1.2050516
1.2044094
1.1909443
1.1912626
1.1915899
1.1919166
1.1922478
1.1925867
1.192936
1.1933002
1.1936854
1.1940985
1.1945467
1.195037
1.1955742
1.19616
1.1967922
1.1974643
1.1981668
1.1988857
1.1996082
1.2003206
1.2010161
1.201691
1.2023378
1.2029668
1.2035888
1.2041528
1.2047138
1.2051269
1.2051571
1.2050217
1.2042946
1.1912682
1.1915742
1.1918953
1.1922168
1.192543
1.192877
1.1932205
1.193577
1.1939512
1.1943493
1.1947777
1.195243
1.1957505
1.1963032
1.1969007
1.1975386
1.1982095
1.1989013
1.1996022
1.2002989
1.2009836
1.20165
1.2022959
1.2029264
1.2035457
1.2041078
1.2046718
1.2050959
1.2051256
1.2049875
1.2041565
1.1916689
1.1919562
1.1922623
1.19257
1.1928832
1.193205
1.1935362
1.1938794
1.1942384
1.1946183
1.1950247
1.1954639
1.1959412
1.1964606
1.197023
1.1976259
1.1982638
1.1989268
1.1996039
1.2002827
1.2009546
1.2016126
1.2022547
1.2028836
1.2035019
1.2040595
1.2046269
1.205062
1.2050904
1.204947
1.2040194
1.1921419
1.1924046
1.1926889
1.192976
1.1932697
1.1935726
1.1938854
1.1942098
1.194549
1.194907
1.195289
1.1957005
1.1961469
1.1966325
1.1971594
1.1977266
1.1983303
1.1989627
1.199614
1.2002726
1.2009298
1.2015779
1.2022148
1.2028403
1.2034569
1.2040113
1.2045788
1.2050251
1.2050509
1.2048967
1.2038754
1.1926766
1.1929101
1.1931672
1.1934288
1.1936979
1.1939769
1.1942663
1.1945673
1.1948825
1.1952155
1.1955705
1.1959527
1.1963672
1.1968186
1.1973097
1.1978407
1.1984093
1.1990096
1.1996331
1.2002695
1.2009097
1.2015461
1.2021756
1.2027975
1.2034088
1.2039661
1.2045284
1.2049849
1.2050069
1.2048351
1.2036719
1.1932407
1.1934453
1.1936747
1.1939101
1.1941534
1.1944068
1.1946707
1.194946
1.1952351
1.1955409
1.1958674
1.1962193
1.1966014
1.1970183
1.1974733
1.1979679
1.1985008
1.1990677
1.1996618
1.2002738
1.2008949
1.2015174
1.2021346
1.2027539
1.2033626
1.2039212
1.2044763
1.204941
1.2049584
1.2047618
1.2035463
1.1938143
1.1939915
1.1941938
1.1944035
1.1946216
1.1948496
1.195088
1.1953375
1.1956001
1.1958785
1.1961762
1.1964976
1.1968473
1.1972299
1.1976493
1.1981075
1.1986044
1.1991371
1.1997004
1.2002862
1.2008862
1.2014926
1.2020975
1.2027064
1.2033149
1.2038759
1.2044222
1.2048933
1.2049061
1.2046768
1.2034764
1.1943655
1.1945189
1.1946976
1.1948852
1.1950816
1.1952877
1.1955035
1.1957298
1.195968
1.1962207
1.1964911
1.1967833
1.1971018
1.1974513
1.1978359
1.1982582
1.1987193
1.1992175
1.1997489
1.2003069
1.2008839
1.2014725
1.2020645
1.2026587
1.2032654
1.2038281
1.204365
1.2048416
1.2048506
1.2045859
1.2035562
1.1948923
1.1950241
1.1951805
1.1953477
1.1955243
1.1957109
1.1959071
1.1961131
1.19633
1.19656
1.1968058
1.1970713
1.1973609
1.1976793
1.1980307
1.1984184
1.1988444
1.1993082
1.1998072
1.2003362
1.2008886
1.2014573
1.202035
1.2026161
1.2032166
1.2037755
1.2043042
1.2047859
1.2047921
1.2044993
1.2035939
1.1953662
1.1954808
1.1956195
1.1957704
1.1959319
1.1961037
1.1962851
1.1964757
1.1966761
1.1968877
1.1971131
1.1973557
1.1976198
1.19791
1.1982308
1.1985859
1.1989782
1.1994083
1.1998748
1.200374
1.2009005
1.2014477
1.2020089
1.2025735
1.2031686
1.2037242
1.2042399
1.204726
1.2047307
1.2044216
1.2035834
1.1958084
1.1959067
1.1960282
1.1961631
1.19631
1.196468
1.1966364
1.1968142
1.1970013
1.1971985
1.1974075
1.1976314
1.1978738
1.1981394
1.1984327
1.198758
1.1991186
1.1995163
1.1999509
1.20042
1.2009195
1.2014438
1.2019869
1.2025365
1.2031222
1.2036694
1.204173
1.2046623
1.2046665
1.2043522
1.2035708
1.1962054
1.1962901
1.1963965
1.1965175
1.1966515
1.196798
1.1969558
1.1971237
1.1973009
1.1974874
1.1976842
1.1978935
1.1981186
1.1983636
1.1986332
1.1989318
1.1992634
1.1996306
1.2000343
1.2004737
1.2009457
1.2014459
1.2019692
1.2025044
1.2030785
1.203613
1.2041041
1.2045947
1.2045998
1.2042899
1.2034566
1.1965808
1.1966515
1.1967426
1.1968488
1.196969
1.1971029
1.1972496
1.1974077
1.1975759
1.1977537
1.1979409
1.1981391
1.1983507
1.1985792
1.1988289
1.1991045
1.1994101
1.1997492
1.2001237
1.2005341
1.2009785
1.2014539
1.2019561
1.2024756
1.203034
1.2035592
1.2040388
1.2045235
1.2045309
1.2042348
1.2033893
1.1969222
1.1969824
1.1970602
1.1971527
1.19726
1.1973818
1.1975177
1.1976664
1.1978265
1.1979968
1.1981766
1.1983664
1.1985677
1.1987834
1.1990171
1.1992733
1.1995563
1.19987
1.2002175
1.2006001
1.2010175
1.2014678
1.2019476
1.2024495
1.2029867
1.2035068
1.2039787
1.2044508
1.2044597
1.2041843
1.2033093
1.1972415
1.1972937
1.1973597
1.1974392
1.1975332
1.1976424
1.1977667
1.1979051
1.1980565
1.1982193
1.1983924
1.1985753
1.1987687
1.1989744
1.1991955
1.1994358
1.1996995
1.1999911
1.200314
1.2006706
1.2010617
1.2014871
1.2019438
1.2024265
1.2029393
1.2034538
1.2039197
1.2043782
1.2043866
1.2041384
1.2032335
1.1975437
1.1975842
1.197642
1.19771
1.1977913
1.1978877
1.1979998
1.1981273
1.1982691
1.1984238
1.19859
1.1987667
1.1989535
1.1991514
1.1993625
1.19959
1.1998378
1.2001103
1.2004113
1.2007441
1.2011105
1.2015112
1.2019447
1.2024069
1.202894
1.2034005
1.203861
1.2043052
1.204312
1.2040913
1.2031595
1.1978339
1.1978616
1.197907
1.1979669
1.1980369
1.1981208
1.1982205
1.1983363
1.1984676
1.1986133
1.1987719
1.198942
1.1991228
1.1993142
1.1995173
1.1997346
1.1999694
1.2002257
1.2005077
1.200819
1.2011625
1.2015396
1.2019503
1.2023913
1.2028524
1.2033485
1.2038045
1.2042326
1.2042365
1.2040365
1.2031721
1.1981047
1.1981274
1.1981601
1.1982076
1.1982696
1.1983426
1.1984302
1.1985339
1.198654
1.1987898
1.19894
1.199103
1.1992776
1.1994631
1.1996596
1.1998687
1.2000929
1.2003359
1.2006016
1.200894
1.2012166
1.2015718
1.2019605
1.2023804
1.2028183
1.2033024
1.2037487
1.2041627
1.2041614
1.2039785
1.2029876
1.1983553
1.1983744
1.1984016
1.1984371
1.1984872
1.1985522
1.1986291
1.1987212
1.1988298
1.198955
1.1990959
1.1992511
1.1994191
1.1995986
1.1997893
1.1999916
1.2002074
1.2004395
1.2006915
1.2009677
1.2012718
1.201607
1.2019752
1.2023754
1.2027961
1.2032609
1.2036908
1.2040989
1.204086
1.2039149
1.2028577
1.1985873
1.1986024
1.1986255
1.1986555
1.198694
1.1987474
1.1988163
1.198898
1.1989953
1.1991096
1.1992406
1.1993872
1.199548
1.1997215
1.1999066
1.2001031
1.200312
1.2005353
1.2007762
1.2010387
1.2013269
1.2016445
1.2019944
1.2023766
1.2027829
1.2032239
1.2036403
1.204043
1.20401
1.2038406
1.2027583
1.1987998
1.1988117
1.1988305
1.1988561
1.1988891
1.1989317
1.1989897
1.1990635
1.1991508
1.1992543
1.199375
1.1995124
1.1996654
1.1998323
1.2000118
1.2002031
1.2004062
1.2006225
1.2008546
1.2011061
1.2013811
1.2016837
1.2020175
1.2023839
1.2027772
1.2031988
1.2035975
1.2039878
1.2039396
1.2037557
1.2026641
1.1989986
1.199008
1.1990231
1.1990444
1.1990728
1.1991092
1.1991562
1.1992174
1.1992945
1.199388
1.1994988
1.1996269
1.1997715
1.1999316
1.2001053
1.2002916
1.2004898
1.2007007
1.200926
1.201169
1.2014335
1.201724
1.2020446
1.2023974
1.2027787
1.2031842
1.2035651
1.2039293
1.2038732
1.2036741
1.2026016
1.1991793
1.1991867
1.1991988
1.1992161
1.1992396
1.1992708
1.1993108
1.1993644
1.1994335
1.1995168
1.1996167
1.1997344
1.1998697
1.2000217
1.2001889
1.2003698
1.2005635
1.2007699
1.2009902
1.2012269
1.2014838
1.2017652
1.2020755
1.2024174
1.2027882
1.2031794
1.2035428
1.2038776
1.2038092
1.203597
1.202507
1.1993488
1.1993548
1.1993646
1.1993788
1.1993983
1.1994248
1.1994596
1.199504
1.1995626
1.1996376
1.1997277
1.1998351
1.1999605
1.2001038
1.2002638
1.200439
1.2006283
1.200831
1.2010476
1.2012801
1.2015319
1.2018072
1.2021104
1.2024443
1.2028062
1.2031847
1.2035311
1.2038259
1.2037426
1.2035071
1.202296
1.1995026
1.1995077
1.199516
1.1995279
1.1995444
1.1995669
1.199597
1.1996361
1.199686
1.199751
1.1998329
1.1999306
1.2000463
1.2001804
1.2003325
1.2005014
1.2006859
1.2008851
1.2010991
1.2013292
1.2015783
1.2018505
1.2021497
1.2024783
1.2028329
1.2031986
1.2035261
1.2037774
1.2036786
1.2034369
1.2022799
1.1996441
1.1996489
1.1996563
1.1996668
1.1996812
1.1997007
1.1997269
1.1997613
1.1998057
1.199862
1.1999331
1.2000215
1.200128
1.2002532
1.2003972
1.2005593
1.2007387
1.2009345
1.2011464
1.2013755
1.2016241
1.2018956
1.2021935
1.2025191
1.2028671
1.2032186
1.203522
1.2037307
1.2036148
1.2033593
1.2023168
1.1997719
1.1997766
1.1997835
1.199793
1.1998059
1.1998232
1.1998462
1.1998766
1.199916
1.1999661
1.2000308
1.2001118
1.2002092
1.2003251
1.2004606
1.2006156
1.2007896
1.2009818
1.2011921
1.2014211
1.2016706
1.2019434
1.2022419
1.2025657
1.2029068
1.2032412
1.2035161
1.2036828
1.2035538
1.2033024
1.2022586
1.199891
1.1998958
1.1999025
1.1999115
1.1999234
1.1999391
1.1999599
1.1999871
1.2000225
1.2000679
1.200125
1.2001977
1.2002882
1.2003963
1.2005239
1.200672
1.2008405
1.2010293
1.2012382
1.2014676
1.201719
1.2019941
1.2022941
1.2026164
1.202949
1.2032632
1.2035055
1.2036266
1.2034848
1.2032503
1.2022863
1.2000051
1.2000101
1.2000169
1.2000255
1.2000368
1.2000514
1.2000704
1.2000952
1.2001273
1.2001687
1.2002211
1.2002869
1.2003688
1.2004693
1.2005898
1.2007314
1.2008946
1.2010798
1.201287
1.2015169
1.2017701
1.2020477
1.202349
1.2026687
1.2029905
1.2032811
1.2034861
1.2035602
1.2034011
1.2031757
1.2023414
1.2001147
1.2001201
1.2001271
1.2001358
1.2001467
1.2001607
1.2001786
1.2002016
1.2002311
1.200269
1.2003172
1.2003777
1.2004541
1.2005485
1.2006619
1.2007967
1.2009543
1.2011354
1.2013405
1.20157
1.2018243
1.2021032
1.2024043
1.2027191
1.2030277
1.2032925
1.2034596
1.2034858
1.2032977
1.203045
1.2020201
1.2002301
1.200236
1.2002433
1.2002521
1.2002631
1.2002767
1.2002939
1.2003156
1.2003432
1.2003784
1.2004232
1.2004795
1.2005497
1.2006367
1.2007436
1.2008721
1.2010238
1.2011999
1.2014015
1.2016288
1.2018819
1.2021593
1.202457
1.2027638
1.2030566
1.2032955
1.2034275
1.2034085
1.2031801
1.2028943
1.2022161
1.2003519
1.2003583
1.200366
1.2003752
1.2003863
1.2003999
1.2004167
1.2004376
1.2004639
1.2004971
1.200539
1.2005916
1.2006574
1.2007396
1.2008407
1.2009623
1.2011072
1.2012769
1.2014727
1.2016949
1.2019428
1.2022143
1.2025036
1.2027977
1.2030722
1.2032873
1.2033911
1.2033361
1.2030745
1.202768
1.2023147
1.200495
1.2005019
1.2005102
1.2005199
1.2005312
1.2005449
1.2005616
1.200582
1.2006073
1.2006388
1.2006783
1.2007278
1.2007894
1.2008656
1.2009594
1.2010738
1.2012108
1.2013722
1.201559
1.2017716
1.2020089
1.2022677
1.2025412
1.202816
1.2030684
1.2032616
1.203347
1.2032718
1.2029935
1.2026765
1.2021165
1.2006554
1.2006629
1.2006719
1.2006821
1.200694
1.2007081
1.2007249
1.2007453
1.2007702
1.2008008
1.2008386
1.2008855
1.2009436
1.2010152
1.2011035
1.2012108
1.201339
1.2014899
1.2016648
1.2018632
1.2020834
1.2023215
1.20257
1.202816
1.2030391
1.2032086
1.2032832
1.2032034
1.2029151
1.2025862
1.2021212
1.2008461
1.2008542
1.2008639
1.2008748
1.2008873
1.2009019
1.2009191
1.2009397
1.2009644
1.2009943
1.2010308
1.2010755
1.2011305
1.2011977
1.2012796
1.2013786
1.2014968
1.2016356
1.2017955
1.2019754
1.2021727
1.2023823
1.2025961
1.2028024
1.2029847
1.2031214
1.203181
1.2031024
1.2028067
1.2024665
1.202197
1.2010525
1.2010614
1.2010718
1.2010835
1.2010968
1.2011122
1.2011302
1.2011513
1.2011763
1.2012061
1.201242
1.2012854
1.201338
1.2014018
1.2014784
1.2015702
1.201679
1.2018054
1.2019492
1.2021085
1.2022794
1.2024559
1.202629
1.2027875
1.2029189
1.2030095
1.2030388
1.2029504
1.202652
1.2023459
1.2023104
1.2012854
1.2012948
1.2013057
1.2013179
1.2013318
1.2013477
1.2013661
1.2013875
1.2014126
1.2014421
1.2014771
1.2015189
1.2015689
1.2016286
1.2016999
1.2017842
1.2018828
1.2019961
1.202123
1.2022609
1.2024047
1.2025469
1.202678
1.2027871
1.2028638
1.2028994
1.2028806
1.2027582
1.2024488
1.2021558
1.2023997
1.2015154
1.2015251
1.2015363
1.2015489
1.2015631
1.2015794
1.201598
1.2016195
1.2016445
1.2016737
1.2017078
1.2017481
1.2017956
1.2018517
1.2019179
1.2019959
1.2020859
1.2021871
1.2022988
1.2024174
1.202537
1.2026488
1.2027424
1.2028067
1.2028319
1.2028109
1.2027346
1.202566
1.2022526
1.2019644
1.2022662
1.2017637
1.2017731
1.201784
1.2017962
1.2018099
1.2018256
1.2018435
1.201864
1.2018877
1.2019151
1.201947
1.2019842
1.2020277
1.2020787
1.2021381
1.2022062
1.2022841
1.202372
1.2024678
1.2025676
1.2026651
1.2027508
1.2028129
1.2028395
1.2028206
1.2027495
1.2026203
1.2024095
1.2020925
1.2017904
1.2017164
1.2019903
1.2019992
1.2020093
1.2020207
1.2020336
1.2020482
1.2020648
1.2020837
1.2021055
1.2021305
1.2021593
1.2021927
1.2022313
1.2022761
1.2023278
1.202387
1.2024548
1.2025295
1.2026083
1.2026887
1.2027646
1.2028274
1.2028652
1.2028648
1.202815
1.2027085
1.2025394
1.2022944
1.2019687
1.2016743
1.2015816
1.2022351
1.2022424
1.2022509
1.2022603
1.2022709
1.202283
1.2022967
1.2023123
1.2023301
1.2023505
1.2023738
1.2024007
1.2024317
1.2024673
1.202508
1.2025541
1.2026048
1.20266
1.2027192
1.2027781
1.2028314
1.2028715
1.202888
1.2028683
1.2027997
1.2026704
1.2024708
1.2021953
1.201865
1.2015989
1.2015143
1.2024207
1.202426
1.2024323
1.2024393
1.2024472
1.2024561
1.2024662
1.2024777
1.2024907
1.2025055
1.2025223
1.2025416
1.2025636
1.2025887
1.2026173
1.2026496
1.2026858
1.2027265
1.2027685
1.2028071
1.2028403
1.2028626
1.2028658
1.2028384
1.2027653
1.2026291
1.2024181
1.2021403
1.201829
1.2015428
1.2014162
1.2025928
1.2025954
1.2025983
1.2026017
1.2026055
1.2026098
1.2026148
1.2026208
1.2026282
1.2026372
1.2026478
1.2026599
1.2026733
1.202688
1.2027038
1.2027202
1.202737
1.2027531
1.2027694
1.2027871
1.2028025
1.2028111
1.2028069
1.20278
1.202714
1.202586
1.202378
1.2021023
1.2018078
1.2015197
1.2013763
1.2026378
1.2026391
1.2026406
1.2026422
1.202644
1.202646
1.2026482
1.2026506
1.2026528
1.202655
1.2026571
1.2026592
1.2026612
1.2026629
1.2026647
1.2026669
1.2026704
1.2026762
1.2026853
1.2026945
1.2027001
1.2027021
1.2026972
1.2026779
1.2026294
1.2025278
1.2023494
1.2020914
1.2017861
1.2014506
1.2012677
1.2026294
1.202629
1.2026286
1.2026283
1.2026281
1.2026277
1.2026274
1.2026269
1.2026263
1.2026257
1.2026249
1.2026238
1.2026221
1.2026194
1.2026155
1.2026102
1.202604
1.2025975
1.2025896
1.2025824
1.2025787
1.2025759
1.2025715
1.2025597
1.2025273
1.2024502
1.2022965
1.2020455
1.2017129
1.2013328
1.2011444
1.2024899
1.2024889
1.2024877
1.2024866
1.2024853
1.2024838
1.2024821
1.2024801
1.2024778
1.2024753
1.2024726
1.2024698
1.2024669
1.2024641
1.2024614
1.2024585
1.2024548
1.20245
1.2024445
1.2024398
1.2024368
1.2024357
1.202435
1.2024304
1.202411
1.2023531
1.2022157
1.2019497
1.2015461
1.2011273
1.2010074
1.2024761
1.2024737
1.2024711
1.2024685
1.2024655
1.2024623
1.2024587
1.2024548
1.2024506
1.2024461
1.2024413
1.2024365
1.2024319
1.2024275
1.2024231
1.2024178
1.2024104
1.2024003
1.2023897
1.2023791
1.2023662
1.2023519
1.2023369
1.2023172
1.2022842
1.2022186
1.2020799
1.201817
1.2014322
1.2010036
1.2008301
1.20233
1.2023269
1.2023238
1.2023206
1.2023172
1.2023134
1.2023093
1.202305
1.2023008
1.2022971
1.2022941
1.2022921
1.2022909
1.2022899
1.2022884
1.2022863
1.2022838
1.2022809
1.2022758
1.2022677
1.2022564
1.2022407
1.2022149
1.2021779
1.2021273
1.2020478
1.2019116
1.201702
1.2014576
1.2012055
1.2009813
1.2023211
1.2023185
1.2023155
1.2023128
1.202311
1.2023101
1.2023106
1.2023129
1.2023173
1.2023236
1.2023308
1.2023375
1.2023421
1.2023429
1.2023387
1.2023288
1.2023114
1.2022833
1.2022411
1.2021891
1.2021376
1.202092
1.2020537
1.2020165
1.201968
1.2018946
1.2017875
1.2016488
1.20151
1.2014252
1.200867
1.1886356
1.1886292
1.1886346
1.1886536
1.1886872
1.1887372
1.1888004
1.1888774
1.1889728
1.189096
1.1892599
1.1894888
1.1898126
1.1902441
1.1907788
1.1914108
1.1920896
1.1927781
1.1934456
1.1940703
1.1946459
1.1951885
1.1956729
1.1961213
1.1965302
1.1969085
1.1972587
1.1975834
1.1978835
1.1981593
1.1984121
1.1986424
1.1988517
1.1990459
1.1992217
1.199385
1.1995309
1.1996636
1.199783
1.1998946
1.1883639
1.188409
1.1884738
1.1885568
1.1886556
1.1887674
1.1888899
1.1890239
1.189178
1.1893678
1.1896142
1.1899457
1.1903725
1.1908963
1.1915144
1.1921749
1.1928409
1.193492
1.194102
1.1946719
1.1951926
1.1956633
1.1961087
1.1965111
1.196886
1.1972335
1.1975569
1.197857
1.1981339
1.1983886
1.1986213
1.198833
1.1990296
1.1992078
1.1993735
1.199522
1.1996573
1.1997792
1.1998929
1.2000021
1.2001072
1.2002188
1.2003374
1.2004777
1.2006349
1.200822
1.2010241
1.2012531
1.2014798
1.2017274
1.2019547
1.2022047
1.2023974
1.2025802
1.2026295
1.2026284
1.2024923
1.2024868
1.2023434
1.2023305
1.1881745
1.1883315
1.1884968
1.1886674
1.1888405
1.189015
1.1891919
1.1893782
1.1895899
1.1898409
1.1901676
1.1905667
1.1910717
1.1916604
1.1922915
1.1929276
1.1935593
1.1941529
1.1947164
1.1952142
1.1956778
1.1961105
1.1965028
1.1968744
1.1972188
1.1975395
1.197838
1.1981147
1.1983701
1.1986043
1.1988176
1.1990159
1.1991958
1.1993634
1.1995141
1.1996518
1.1997757
1.1998913
1.2000021
1.2001087
1.2002215
1.2003412
1.2004824
1.2006406
1.2008287
1.201032
1.2012621
1.2014896
1.2017373
1.2019645
1.202213
1.2024038
1.2025838
1.2026319
1.2026287
1.2024918
1.202484
1.20234
1.2023276
1.188563
1.1887434
1.1889248
1.1891093
1.1892957
1.1894846
1.1896764
1.1898877
1.1901281
1.1904215
1.1907919
1.1912679
1.1918106
1.1924046
1.1930142
1.1936241
1.1942023
1.1947533
1.195243
1.1957037
1.1961185
1.1965068
1.1968667
1.1972084
1.1975272
1.197824
1.1980996
1.198355
1.1985901
1.1988045
1.1990041
1.1991853
1.1993545
1.199507
1.1996467
1.1997725
1.1998897
1.200002
1.2001099
1.2002238
1.2003444
1.2004863
1.2006454
1.2008345
1.201039
1.2012701
1.2014986
1.2017466
1.2019735
1.2022208
1.2024098
1.202587
1.2026342
1.202629
1.2024912
1.2024812
1.2023366
1.202325
1.1888968
1.1890751
1.189251
1.1894309
1.1896131
1.1897995
1.1899872
1.1901808
1.1904145
1.1906857
1.1910354
1.191461
1.1919586
1.1925156
1.1930978
1.1936864
1.1942499
1.1947886
1.1952726
1.1957263
1.196134
1.1965202
1.1968686
1.1972017
1.1975172
1.1978137
1.1980882
1.198343
1.1985784
1.1987935
1.1989941
1.1991763
1.1993466
1.1995007
1.1996421
1.1997696
1.1998882
1.2000019
1.200111
1.2002259
1.2003473
1.20049
1.2006498
1.2008399
1.2010454
1.2012776
1.201507
1.2017553
1.2019822
1.2022282
1.2024155
1.20259
1.2026361
1.2026293
1.2024905
1.2024784
1.2023331
1.2023227
)
;

boundaryField
{
    Side1
    {
        type            empty;
    }
    Inlet
    {
        type            calculated;
        value           nonuniform List<scalar> 
59
(
1.2154859
1.2016094
1.2016071
1.2016042
1.2016009
1.2015971
1.2015929
1.2015883
1.2015831
1.2015775
1.2015716
1.2015653
1.2015583
1.2015272
1.2018498
1.201843
1.2018368
1.2015218
1.2015145
1.2015046
1.201493
1.2017881
1.2017722
1.2017519
1.2017295
1.2017035
1.2016767
1.2016425
1.2016133
1.201582
1.2015457
1.2015144
1.2014841
1.2154859
1.2014346
1.2013964
1.2013704
1.2013507
1.2013322
1.2013293
1.2013115
1.2012759
1.201248
1.2012403
1.2012298
1.2012205
1.2012131
1.2012033
1.201192
1.2012055
1.2012152
1.2012235
1.2012325
1.201241
1.2012489
1.2012581
1.2012814
1.2012949
1.2013139
)
;
    }
    Side2
    {
        type            empty;
    }
    Outlet
    {
        type            calculated;
        value           nonuniform List<scalar> 
35
(
1.2017838
1.2017809
1.2017776
1.2017739
1.2017697
1.2017648
1.2017591
1.2017522
1.2017438
1.2017339
1.2017228
1.2017112
1.2017001
1.2016909
1.2016846
1.2016825
1.2016859
1.2016963
1.2017148
1.2017409
1.2017726
1.2018085
1.2018477
1.201892
1.2019425
1.2020002
1.202067
1.2021395
1.2022
1.202213
1.2024414
1.2018009
1.2017963
1.2017918
1.2017874
)
;
    }
    Botwall
    {
        type            calculated;
        value           nonuniform List<scalar> 0();
    }
    Cyli
    {
        type            calculated;
        value           nonuniform List<scalar> 0();
    }
    procBoundary3to0
    {
        type            processor;
        value           nonuniform List<scalar> 7(1.1886456 1.1883298 1.1883298 1.1880242 1.1880242 1.188378 1.188378);
    }
    procBoundary3to1
    {
        type            processor;
        value           nonuniform List<scalar> 
62
(
1.1887378
1.188723
1.1887168
1.1887213
1.1887382
1.1887691
1.1888153
1.1888789
1.1889632
1.1890749
1.18923
1.189455
1.1897766
1.1902071
1.1907441
1.1913781
1.1920635
1.1927601
1.1934395
1.1940732
1.1946596
1.1952104
1.1957022
1.1961538
1.1965663
1.1969462
1.1972969
1.1976206
1.1979188
1.1981917
1.1984412
1.198668
1.1988739
1.1990649
1.1992377
1.199398
1.1995407
1.1996703
1.1997871
1.1998964
1.200002
1.200002
1.2001055
1.2002156
1.2003331
1.2004723
1.2006284
1.2008144
1.2010152
1.2012432
1.201469
1.2017166
1.2019442
1.2021958
1.2023906
1.2025763
1.2026267
1.2026279
1.2024927
1.2024897
1.2023467
1.2023335
)
;
    }
    procBoundary3to2
    {
        type            processor;
        value           nonuniform List<scalar> 
35
(
1.2053555
1.2052141
1.2045988
1.193555
1.1944514
1.1953931
1.1963459
1.1972878
1.1982129
1.1990904
1.1999167
1.2006864
1.2014083
1.2020775
1.202697
1.2033176
1.2039141
1.204473
1.2050105
1.2053289
1.2053289
1.189203
1.189203
1.189486
1.1897316
1.1899588
1.1901863
1.1904417
1.1907522
1.1911384
1.1916175
1.1921996
1.1928852
1.1928852
1.1887087
)
;
    }
}


// ************************************************************************* //
