/*--------------------------------*- C++ -*----------------------------------*\
| =========                 |                                                 |
| \\      /  F ield         | OpenFOAM: The Open Source CFD Toolbox           |
|  \\    /   O peration     | Version:  2406                                  |
|   \\  /    A nd           | Website:  www.openfoam.com                      |
|    \\/     M anipulation  |                                                 |
\*---------------------------------------------------------------------------*/
FoamFile
{
    version     2.0;
    format      ascii;
    arch        "LSB;label=32;scalar=64";
    class       volScalarField;
    location    "0.07";
    object      T;
}
// * * * * * * * * * * * * * * * * * * * * * * * * * * * * * * * * * * * * * //

dimensions      [0 0 0 1 0 0 0];

internalField   nonuniform List<scalar> 
2065
(
292.89687
293.06117
293.42309
292.81924
292.79545
292.77864
292.76774
292.7613
292.7579
292.75637
292.75567
292.75503
292.75404
292.75248
292.75066
292.74896
292.7488
292.75234
292.76449
292.8053
292.8951
293.06035
293.42081
293.4693
293.38822
293.31323
293.244
293.17928
293.11778
293.05896
293.00323
292.95167
292.90553
292.86586
292.83335
292.80799
292.78925
292.77632
292.76797
292.76291
292.75999
292.7582
292.75672
292.75511
292.7531
292.75096
292.74902
292.74867
292.752
292.76384
292.80383
292.8932
293.05944
293.4181
293.45404
293.37875
293.30827
293.24289
293.18174
293.12371
293.06817
293.01524
292.96571
292.92063
292.88105
292.84774
292.82096
292.80041
292.78547
292.77518
292.76839
292.76401
292.76103
292.75864
292.75635
292.75384
292.75133
292.74913
292.74855
292.75165
292.76317
292.80231
292.89118
293.05841
293.4149
293.43977
293.37014
293.30413
293.24245
293.18461
293.12977
293.07726
293.02699
292.9795
292.93561
292.8963
292.86239
292.83436
292.8121
292.79521
292.78297
292.77438
292.76845
292.7642
292.76082
292.75777
292.75471
292.7518
292.7493
292.74847
292.75132
292.7625
292.80074
292.88902
293.05724
293.41115
293.42705
293.36268
293.30107
293.24299
293.18829
293.13636
293.08659
293.03878
292.99323
292.95057
292.91166
292.87732
292.84817
292.82432
292.80554
292.79133
292.7809
292.77334
292.76773
292.76328
292.75941
292.75573
292.75236
292.74954
292.74843
292.751
292.76183
292.79912
292.88672
293.0559
293.4068
293.41682
293.35755
293.29994
293.24515
293.19328
293.14394
293.09658
293.05095
293.00716
292.96568
292.92722
292.89257
292.8624
292.83706
292.81646
292.8003
292.78798
292.77872
292.77167
292.76605
292.76128
292.75693
292.75304
292.74986
292.74844
292.7507
292.76115
292.79747
292.88427
293.05436
293.40182
293.40926
293.35461
293.30096
293.24934
293.20008
293.15299
293.10768
293.06387
293.02159
292.98113
292.94309
292.90818
292.8771
292.85034
292.82797
292.80987
292.79563
292.7846
292.77602
292.76916
292.76341
292.75831
292.75386
292.75026
292.74851
292.75044
292.76048
292.79578
292.88167
293.05261
293.39616
293.40688
293.35588
293.3054
293.25644
293.20933
293.16405
293.12034
293.07794
293.03681
292.99715
292.95941
292.92423
292.89228
292.86414
292.84007
292.82005
292.80387
292.79101
292.78083
292.77263
292.76582
292.7599
292.75482
292.75075
292.74865
292.75021
292.75982
292.79406
292.87893
293.05063
293.38976
293.40901
293.36135
293.31367
293.26692
293.22153
293.17759
293.13498
293.09352
293.05314
293.01396
292.97633
292.94079
292.90798
292.8785
292.85276
292.83085
292.81271
292.79798
292.78612
292.77649
292.76854
292.76172
292.75595
292.75137
292.74887
292.75003
292.75919
292.79233
292.87603
293.04842
293.38245
293.41737
293.3722
293.32659
293.28142
293.23716
293.19401
293.15197
293.11092
293.07082
293.03176
292.99399
292.95795
292.92423
292.89342
292.86603
292.84226
292.82216
292.80551
292.79191
292.78078
292.77158
292.7638
292.75727
292.75211
292.74918
292.74991
292.75858
292.7906
292.87299
293.04597
293.37388
293.43235
293.38895
293.34462
293.3003
293.25651
293.21354
293.17149
293.13033
293.09004
293.0507
293.0125
292.97578
292.94106
292.90891
292.87987
292.85426
292.8322
292.81362
292.79821
292.7855
292.77499
292.76617
292.75881
292.753
292.74959
292.74987
292.75801
292.78887
292.86981
293.04328
293.36345
293.45252
293.41036
293.36688
293.32297
293.2792
293.23596
293.19344
293.15171
293.11081
293.07082
293.03189
292.9943
292.95848
292.92496
292.89427
292.86684
292.84283
292.82229
292.80504
292.79068
292.77878
292.76883
292.76057
292.75406
292.75011
292.74992
292.7575
292.78716
292.8665
293.0404
293.35262
293.47622
293.43502
293.39213
293.34839
293.30442
293.26064
293.21737
293.17477
293.13295
293.09202
293.05212
293.01348
292.97646
292.94153
292.90921
292.87994
292.85402
292.83153
292.81239
292.79634
292.78296
292.77181
292.76259
292.75531
292.75075
292.75008
292.75706
292.78548
292.86309
293.03738
293.34922
293.50111
293.46089
293.41863
293.37513
293.33096
293.28664
293.24257
293.19899
293.1561
293.11407
293.07304
293.03322
292.99492
292.95856
292.92461
292.89355
292.86573
292.8413
292.82027
292.80247
292.78757
292.77514
292.76488
292.75676
292.75154
292.75032
292.7567
292.78386
292.85961
293.03427
293.34626
293.52539
293.48637
293.44495
293.40185
293.35768
293.31298
293.26821
293.22372
293.17978
293.13661
293.09439
293.05334
293.01374
292.97595
292.94041
292.9076
292.87791
292.85157
292.82865
292.80908
292.7926
292.77883
292.7675
292.75845
292.75247
292.75065
292.75642
292.78229
292.85606
293.03072
293.33534
293.54713
293.50969
293.46949
293.42718
293.38336
293.3386
293.29342
293.24823
293.20339
293.15918
293.11585
293.0736
293.03272
292.99355
292.95648
292.92199
292.89049
292.86229
292.83751
292.81615
292.79805
292.7829
292.77043
292.76042
292.7536
292.7511
292.75622
292.7808
292.85248
293.0264
293.33434
293.56537
293.52998
293.49146
293.45036
293.40727
293.3628
293.31753
293.27193
293.22642
293.18136
293.13704
293.09372
293.05166
293.01118
292.97269
292.93661
292.90339
292.87338
292.84678
292.82366
292.80393
292.78735
292.77367
292.7627
292.75499
292.7517
292.75614
292.77942
292.84886
293.02166
293.33096
293.57841
293.54562
293.50937
293.47009
293.42833
293.3847
293.33979
293.29418
293.24834
293.2027
293.15762
293.11338
293.07029
293.02866
292.98886
292.95132
292.91649
292.88477
292.85642
292.83158
292.81022
292.79218
292.77725
292.76525
292.75665
292.75253
292.75621
292.77815
292.8452
293.01691
293.34178
293.58655
293.55673
293.52319
293.48623
293.4463
293.40398
293.35989
293.31463
293.26879
293.22286
293.17725
293.13232
293.08838
293.04575
293.00481
292.96597
292.92967
292.89635
292.86635
292.83984
292.81688
292.79738
292.78118
292.76815
292.75859
292.75358
292.75647
292.77703
292.8415
293.012
293.34086
293.58892
293.56237
293.53196
293.49784
293.46034
293.41992
293.3772
293.33281
293.28738
293.24149
293.19565
293.15026
293.10567
293.06225
293.02035
292.98038
292.94279
292.90802
292.87646
292.84838
292.82388
292.80293
292.78545
292.77134
292.7608
292.75492
292.75698
292.7761
292.83773
293.00672
293.3405
293.58606
293.56289
293.53586
293.50493
293.47029
293.43229
293.39145
293.3484
293.30381
293.25834
293.21256
293.16696
293.12196
293.07795
293.03528
292.99438
292.95568
292.91963
292.88667
292.85712
292.83115
292.80881
292.79006
292.77483
292.76328
292.75659
292.75779
292.7754
292.83392
293.00085
293.33627
293.57769
293.55788
293.53434
293.50688
293.47551
293.44043
293.40204
293.3609
293.31767
293.27305
293.2277
293.1822
293.13704
293.09265
293.04944
293.0078
292.96819
292.93106
292.89686
292.86597
292.83864
292.81498
292.79498
292.77862
292.76603
292.75854
292.75894
292.775
292.83008
292.99433
293.32249
293.56453
293.5479
293.52777
293.50385
293.47597
293.44417
293.40869
293.36997
293.32861
293.28533
293.24082
293.19575
293.15071
293.10619
293.06264
293.02048
292.98016
292.94214
292.90689
292.87483
292.84626
292.82137
292.8002
292.78276
292.76921
292.76083
292.76035
292.77494
292.82631
292.98695
293.29632
293.54705
293.53335
293.51648
293.49603
293.47172
293.44342
293.41119
293.37534
293.33635
293.29489
293.25166
293.20741
293.1628
293.11841
293.07474
293.03227
292.99146
292.95276
292.91666
292.8836
292.85394
292.82796
292.8057
292.78726
292.77285
292.76358
292.7621
292.77526
292.82271
292.9787
293.27385
293.52612
293.51506
293.50113
293.48395
293.46311
293.43835
293.40958
293.37692
293.34071
293.30152
293.26003
293.217
293.17315
293.12917
293.08563
293.04307
293.00196
292.96278
292.92603
292.89217
292.86161
292.83465
292.81146
292.79214
292.77696
292.76685
292.76431
292.7761
292.8195
292.9695
293.24933
293.50265
293.49386
293.48256
293.46832
293.45073
293.4294
293.40411
293.37481
293.34169
293.30515
293.2658
293.22438
293.18166
293.13838
293.09522
293.05278
293.01157
292.97212
292.93492
292.90045
292.86917
292.84143
292.81745
292.79741
292.78162
292.77076
292.76715
292.77765
292.81698
292.95938
293.23542
293.47769
293.47076
293.46171
293.45006
293.43537
293.41723
293.3953
293.36937
293.33947
293.30585
293.26898
293.22953
293.18828
293.14601
293.10347
293.06135
293.02025
292.9807
292.94324
292.90837
292.87656
292.84822
292.82365
292.80307
292.78685
292.77535
292.77077
292.78013
292.81552
292.94946
293.19068
293.45216
293.44673
293.43949
293.43004
293.41789
293.4026
293.38377
293.36109
293.33442
293.30385
293.26969
293.23251
293.19303
293.15205
293.11039
293.06881
293.02797
292.9885
292.95096
292.91587
292.88374
292.85501
292.83003
292.8091
292.79259
292.78069
292.77547
292.7837
292.81544
292.93953
293.16376
293.42664
293.42239
293.41663
293.40898
293.399
293.38621
293.37017
293.35051
293.32696
293.29945
293.26814
293.23345
293.196
293.15658
293.11603
293.07518
293.03479
292.99555
292.95807
292.92293
292.89066
292.86175
292.8366
292.81552
292.79888
292.78692
292.78137
292.78838
292.81716
292.9298
293.14262
293.40154
293.39821
293.39363
293.38745
293.37926
293.36862
293.35505
293.33811
293.31747
293.29294
293.26452
293.23246
293.19727
293.15965
293.12044
293.08053
293.04075
293.00189
292.96462
292.92958
292.89736
292.86847
292.84336
292.82239
292.80585
292.79408
292.78833
292.79414
292.82104
292.92076
293.12243
293.37655
293.37396
293.37033
293.36537
293.35869
293.34991
293.33854
293.32413
293.30625
293.2846
293.25905
293.22971
293.19693
293.16133
293.12369
293.08492
293.04593
293.00758
292.97066
292.93588
292.90387
292.87522
292.8504
292.8298
292.81368
292.80236
292.79673
292.80125
292.82631
292.91389
293.11353
293.35185
293.34985
293.347
293.34303
293.33762
293.33038
293.3209
293.30868
293.2933
293.27437
293.25165
293.22509
293.19488
293.16152
293.12571
293.08833
293.05034
293.01269
292.97628
292.9419
292.91028
292.88208
292.85781
292.83788
292.82251
292.81188
292.80645
292.8096
292.83257
292.90973
293.1062
293.32737
293.32581
293.32355
293.32037
293.31598
293.31005
293.30217
293.29191
293.27878
293.26237
293.24235
293.21856
293.19104
293.16012
293.12639
293.09067
293.05395
293.01723
292.98151
292.94772
292.9167
292.88916
292.86572
292.84676
292.83243
292.82265
292.81739
292.81919
292.83909
292.90712
293.15046
293.30342
293.30216
293.30033
293.29775
293.29417
293.28928
293.28273
293.27411
293.26297
293.24884
293.23134
293.21021
293.18539
293.15704
293.12562
293.09185
293.05668
293.02117
292.98641
292.95344
292.92322
292.8966
292.87424
292.85652
292.84345
292.83457
292.82923
292.82935
292.84493
292.90336
293.10697
293.28032
293.27924
293.27771
293.27555
293.27256
293.26847
293.26298
293.2557
293.24622
293.23409
293.2189
293.2003
293.1781
293.15236
293.1234
293.09183
293.05851
293.02452
292.991
292.95912
292.92997
292.90451
292.88346
292.86719
292.85548
292.84739
292.8416
292.83952
292.84992
292.89654
293.07095
293.25812
293.25715
293.25581
293.25395
293.2514
293.24794
293.24329
293.23712
293.22904
293.21863
293.20546
293.18916
293.16948
293.14634
293.11993
293.09073
293.05952
293.02733
292.99537
292.96487
292.93704
292.91297
292.89342
292.87869
292.86829
292.86073
292.85397
292.84911
292.85471
292.8922
293.03305
293.23698
293.23607
293.23486
293.23322
293.231
293.22803
293.22406
293.2188
293.21189
293.20296
293.1916
293.17739
293.16003
293.13938
293.11551
293.08879
293.05989
293.02977
292.99963
292.97078
292.94453
292.92202
292.90406
292.89085
292.88155
292.87409
292.86575
292.85756
292.85856
292.88949
293.02025
293.21703
293.21616
293.21504
293.21356
293.21161
293.20902
293.2056
293.20109
293.19518
293.18752
293.17772
293.1654
293.15022
293.13195
293.11058
293.08638
293.05992
293.03207
293.00399
292.97701
292.9525
292.93166
292.91529
292.90343
292.89492
292.88708
292.87669
292.86459
292.86088
292.88666
293.0219
293.1989
293.19804
293.19696
293.19559
293.19383
293.19154
293.18855
293.18465
293.17956
293.17299
293.16456
293.15392
293.14072
293.12469
293.10578
293.0841
293.06012
293.03464
293.00874
292.98375
292.96104
292.94184
292.92692
292.91617
292.90808
292.89956
292.88701
292.87111
292.86232
292.8874
293.09901
293.1829
293.18203
293.18099
293.17969
293.17807
293.17601
293.17337
293.16998
293.16559
293.15994
293.15271
293.14355
293.13214
293.1182
293.10155
293.0823
293.06081
293.03774
293.01409
292.99111
292.97016
292.95246
292.93872
292.92871
292.92073
292.91145
292.89713
292.87785
292.86309
292.88034
293.09752
293.16979
293.16892
293.16789
293.16665
293.16513
293.16326
293.1609
293.15792
293.15411
293.14924
293.14303
293.13517
293.12535
293.11329
293.0988
293.08188
293.06275
293.04197
293.02045
292.99935
292.97993
292.96338
292.95038
292.94065
292.93248
292.92258
292.90718
292.88546
292.86531
292.86962
293.03581
293.15957
293.15871
293.15771
293.15654
293.15514
293.15344
293.15135
293.14874
293.14546
293.14129
293.13601
293.12932
293.12093
293.11058
293.09805
293.08325
293.06633
293.04774
293.0282
293.00872
292.99048
292.97455
292.96163
292.95152
292.94274
292.93239
292.91694
292.89431
292.87047
292.86331
292.95671
293.15331
293.15247
293.1515
293.15039
293.1491
293.14756
293.1457
293.14342
293.14059
293.13705
293.13257
293.12691
293.11981
293.11099
293.10022
293.08738
293.0725
293.05585
293.03799
293.01977
293.00218
292.98621
292.97251
292.96107
292.9509
292.93986
292.92491
292.90324
292.87743
292.86056
292.92826
293.15056
293.14976
293.14887
293.14786
293.14669
293.14534
293.14373
293.14179
293.1394
293.13644
293.13271
293.12801
293.12207
293.11465
293.10551
293.09446
293.08141
293.06651
293.05013
293.03287
293.01552
292.99887
292.98355
292.96972
292.95694
292.94413
292.9292
292.90878
292.88154
292.85761
292.91932
293.15202
293.15128
293.15046
293.14954
293.1485
293.14732
293.14594
293.1443
293.14231
293.13987
293.13681
293.13295
293.12807
293.1219
293.11419
293.10469
293.09329
293.07997
293.06487
293.04836
293.03097
293.01328
292.99578
292.97875
292.96223
292.94607
292.92941
292.90896
292.88054
292.85469
292.91617
293.15547
293.15483
293.15412
293.15334
293.15248
293.15151
293.15039
293.14908
293.14751
293.14559
293.14318
293.14012
293.13621
293.13121
293.12485
293.11687
293.10705
293.09523
293.08138
293.06563
293.04824
293.02956
293.00993
292.98963
292.96898
292.94839
292.92778
292.90449
292.87407
292.84697
292.93653
293.16188
293.16132
293.16071
293.16004
293.15932
293.15851
293.1576
293.15656
293.15531
293.1538
293.15191
293.1495
293.14637
293.14232
293.13707
293.13034
293.12186
293.11138
293.09871
293.0838
293.06664
293.04734
293.02605
293.00301
292.97856
292.95325
292.92745
292.8996
292.86691
292.83785
292.923
293.16769
293.16724
293.16675
293.16623
293.16567
293.16505
293.16438
293.1636
293.16269
293.16159
293.16018
293.15836
293.15596
293.15275
293.14848
293.14286
293.13556
293.12629
293.11478
293.10081
293.0842
293.06483
293.04264
293.01769
292.99028
292.96097
292.93029
292.89765
292.86226
292.82918
292.84708
293.17583
293.17542
293.17497
293.1745
293.17401
293.17347
293.17289
293.17223
293.17147
293.17056
293.1694
293.1679
293.1659
293.16319
293.15953
293.15461
293.14812
293.1397
293.12897
293.11562
293.09941
293.08015
293.05764
293.03175
293.00262
292.97064
292.93619
292.89917
292.86015
292.82458
292.82525
293.18071
293.18036
293.18
293.17961
293.1792
293.17877
293.1783
293.17778
293.17717
293.17644
293.17552
293.17429
293.17262
293.17031
293.16712
293.16274
293.1568
293.14891
293.13876
293.12597
293.11022
293.09127
293.06895
293.04309
293.01359
292.98033
292.94319
292.90269
292.86197
292.82944
292.82994
293.18844
293.18802
293.18756
293.18707
293.18652
293.18593
293.18528
293.18454
293.1837
293.1827
293.1815
293.17999
293.17805
293.17549
293.1721
293.16758
293.16162
293.15386
293.14393
293.13142
293.11607
293.0977
293.07622
293.05146
293.02299
292.99009
292.95232
292.91142
292.87143
292.8369
292.83224
293.18431
293.18388
293.1834
293.18288
293.18232
293.1817
293.18102
293.18027
293.17945
293.17852
293.17742
293.17608
293.17435
293.17204
293.1689
293.16464
293.15892
293.15137
293.14166
293.12973
293.11532
293.09826
293.07854
293.05604
293.03012
292.99939
292.96283
292.92263
292.88466
292.85179
292.8432
293.17965
293.17921
293.17873
293.17819
293.17761
293.17697
293.17625
293.17544
293.1745
293.17337
293.17197
293.17016
293.16783
293.16483
293.16102
293.15621
293.15019
293.14271
293.13361
293.12264
293.10944
293.09397
293.07635
293.05659
293.03411
293.0074
292.9747
292.93659
292.89737
292.85987
292.84449
293.15578
293.15551
293.15521
293.15488
293.15452
293.15413
293.15369
293.15319
293.15261
293.1519
293.15101
293.14985
293.14828
293.14616
293.14331
293.13954
293.13466
293.12845
293.12047
293.11052
293.09881
293.0854
293.07042
293.05393
293.03543
293.01327
292.98485
292.94877
292.90753
292.86582
292.84195
293.13845
293.13821
293.13794
293.13763
293.13729
293.13689
293.13644
293.13592
293.13529
293.13455
293.13365
293.13255
293.13116
293.12938
293.12704
293.12388
293.11967
293.11418
293.1073
293.09898
293.08915
293.07794
293.06542
293.05168
293.03642
293.01806
292.9931
292.95714
292.91047
292.87039
292.86402
293.10677
293.1069
293.10706
293.10723
293.10742
293.10763
293.10787
293.10813
293.1084
293.10867
293.10892
293.10911
293.10918
293.10901
293.10843
293.10721
293.10506
293.10174
293.09706
293.09087
293.08302
293.0735
293.06238
293.04977
293.03561
293.01879
292.99584
292.96214
292.91918
292.882
292.86685
293.09547
293.09557
293.09569
293.09583
293.09598
293.09615
293.09633
293.09653
293.09675
293.09701
293.09735
293.09776
293.09817
293.09843
293.09834
293.09766
293.09611
293.09342
293.08927
293.08334
293.07563
293.06632
293.05545
293.04295
293.02858
293.01159
292.99005
292.96279
292.93434
292.913
292.8803
293.05796
293.05867
293.05947
293.06038
293.06141
293.0626
293.064
293.06568
293.06772
293.07013
293.07284
293.07568
293.07838
293.08063
293.08215
293.08267
293.08184
293.0793
293.0748
293.06844
293.0607
293.05194
293.04239
293.03159
293.01927
293.00521
292.98893
292.97125
292.95652
292.95335
292.8977
293.59959
293.59974
293.59949
293.59874
293.59745
293.59577
293.59468
293.59474
293.59708
293.60282
293.61364
293.63065
293.65305
293.67833
293.70348
293.72401
293.73861
293.74598
293.74583
293.7394
293.72731
293.71001
293.68889
293.66392
293.63636
293.60661
293.57549
293.54379
293.51232
293.48179
293.45255
293.42465
293.39803
293.37211
293.34697
293.32257
293.29926
293.27718
293.25614
293.23616
293.68494
293.67348
293.66208
293.65057
293.6385
293.62658
293.61593
293.60813
293.60436
293.60567
293.61316
293.62728
293.64605
293.66709
293.6862
293.70213
293.71273
293.7173
293.71576
293.70823
293.69561
293.67854
293.65708
293.63248
293.60509
293.57575
293.54531
293.51461
293.48446
293.45534
293.42739
293.40063
293.37452
293.34915
293.32445
293.30077
293.27828
293.25683
293.23648
293.21735
293.20011
293.18495
293.17262
293.16299
293.15722
293.15469
293.15619
293.15936
293.16548
293.17076
293.17865
293.18309
293.19093
293.18676
293.18201
293.15697
293.13948
293.10577
293.09484
293.05379
293.75138
293.71969
293.6897
293.66191
293.63668
293.6144
293.59594
293.58243
293.57513
293.57537
293.58293
293.59735
293.61612
293.63532
293.6538
293.66871
293.67858
293.68293
293.68098
293.67395
293.66172
293.64474
293.62388
293.59959
293.57269
293.5441
293.51468
293.48535
293.4567
293.42899
293.40234
293.37624
293.3508
293.32595
293.30202
293.27922
293.25746
293.2368
293.21737
293.19983
293.1844
293.17182
293.16201
293.15609
293.15349
293.15498
293.15822
293.16442
293.16985
293.17781
293.18238
293.19019
293.18605
293.18134
293.15663
293.13919
293.10603
293.09498
293.05491
293.67501
293.64384
293.61515
293.58888
293.56552
293.54571
293.53079
293.52201
293.52037
293.52671
293.53981
293.55824
293.57926
293.60038
293.61938
293.63432
293.64439
293.64827
293.64695
293.63993
293.62794
293.61127
293.59065
293.56671
293.54042
293.51272
293.48458
293.45672
293.42951
293.40317
293.37727
293.35193
293.32706
293.30299
293.27998
293.25798
293.23707
293.2174
293.1996
293.18392
293.17112
293.16114
293.15508
293.15241
293.15388
293.15719
293.16346
293.16903
293.17705
293.18174
293.18953
293.1854
293.18072
293.15632
293.13891
293.10629
293.09514
293.05601
293.5809
293.55682
293.53448
293.51374
293.49539
293.47977
293.46794
293.46188
293.46132
293.46801
293.48155
293.50067
293.52327
293.54672
293.56905
293.58822
293.60325
293.61252
293.61661
293.61482
293.60783
293.59557
293.57888
293.55825
293.53464
293.50898
293.48234
293.45552
293.42903
293.4032
293.37766
293.35255
293.32778
293.30369
293.28055
293.25837
293.23728
293.21741
293.19938
293.18349
293.17049
293.16034
293.15415
293.15141
293.15286
293.15623
293.16258
293.16827
293.17636
293.18115
293.18892
293.1848
293.18013
293.15602
293.13865
293.10654
293.0953
293.05709
)
;

boundaryField
{
    Side1
    {
        type            empty;
    }
    Inlet
    {
        type            totalTemperature;
        gamma           1.4;
        T0              uniform 294.31799;
        value           nonuniform List<scalar> 
59
(
294.31799
292.98849
292.98827
292.98801
292.98771
292.98737
292.98698
292.98654
292.98605
292.98552
292.98493
292.98427
292.98352
292.98896
292.98241
292.98156
292.98094
292.98016
292.97952
292.97856
292.97748
292.97622
292.97464
292.9726
292.9704
292.96778
292.96509
292.96175
292.95889
292.95576
292.95213
292.94907
292.94603
294.31799
292.94117
292.93734
292.93481
292.93282
292.93098
292.9307
292.92892
292.92535
292.92266
292.92186
292.92083
292.91991
292.91916
292.91818
292.91703
292.91839
292.91937
292.92019
292.92108
292.92192
292.92268
292.92359
292.92593
292.92726
292.92916
)
;
    }
    Side2
    {
        type            empty;
    }
    Outlet
    {
        type            zeroGradient;
    }
    Botwall
    {
        type            zeroGradient;
    }
    Cyli
    {
        type            zeroGradient;
    }
    procBoundary3to0
    {
        type            processor;
        value           nonuniform List<scalar> 7(293.59931 293.69564 293.69564 293.78354 293.78354 293.70879 293.70879);
    }
    procBoundary3to1
    {
        type            processor;
        value           nonuniform List<scalar> 
62
(
293.56395
293.56665
293.56919
293.57154
293.5737
293.57581
293.57847
293.58246
293.5887
293.59859
293.61382
293.6354
293.66243
293.69223
293.7207
293.7432
293.75793
293.76376
293.76046
293.75125
293.73612
293.71574
293.69185
293.66454
293.63503
293.60383
293.57169
293.53942
293.50773
293.47729
293.44832
293.42079
293.39456
293.36903
293.34431
293.32036
293.29755
293.27599
293.25543
293.23588
293.21737
293.21737
293.20047
293.18561
293.17354
293.1641
293.15848
293.15602
293.15755
293.16063
293.16666
293.17179
293.1796
293.1839
293.19174
293.18753
293.18273
293.15735
293.1398
293.10552
293.0947
293.05266
)
;
    }
    procBoundary3to2
    {
        type            processor;
        value           nonuniform List<scalar> 
35
(
292.89852
293.06191
293.4228
292.8054
292.78337
292.76858
292.75972
292.75516
292.75334
292.75311
292.75344
292.75356
292.75313
292.75197
292.75044
292.74895
292.74896
292.75269
292.76512
292.80671
292.80671
293.48559
293.48559
293.39823
293.31858
293.24542
293.17688
293.11161
293.04929
292.9907
292.93722
292.89021
292.85071
292.85071
293.60616
)
;
    }
}


// ************************************************************************* //
