/*--------------------------------*- C++ -*----------------------------------*\
| =========                 |                                                 |
| \\      /  F ield         | OpenFOAM: The Open Source CFD Toolbox           |
|  \\    /   O peration     | Version:  2406                                  |
|   \\  /    A nd           | Website:  www.openfoam.com                      |
|    \\/     M anipulation  |                                                 |
\*---------------------------------------------------------------------------*/
FoamFile
{
    version     2.0;
    format      ascii;
    arch        "LSB;label=32;scalar=64";
    class       volScalarField;
    location    "0.01";
    object      Ma;
}
// * * * * * * * * * * * * * * * * * * * * * * * * * * * * * * * * * * * * * //

dimensions      [0 0 0 0 0 0 0];

internalField   nonuniform List<scalar> 
8260
(
0.18846328
0.19035298
0.18966028
0.1883693
0.18739029
0.18620177
0.18489881
0.18327535
0.18142369
0.17965231
0.17745412
0.17510553
0.17227925
0.17032466
0.16843941
0.16668091
0.16515265
0.16340462
0.16162967
0.16021341
0.15906416
0.1578471
0.15698976
0.15612311
0.15514144
0.1546879
0.15437126
0.15420361
0.15408256
0.15395683
0.15104636
0.18029732
0.18340407
0.18381463
0.18374448
0.18316052
0.18250429
0.18184095
0.18068609
0.17927542
0.17795223
0.17573384
0.17341859
0.17072668
0.1690701
0.16730275
0.1656655
0.16429976
0.16263841
0.16095843
0.15956976
0.15848317
0.15730788
0.15648414
0.15571428
0.15485318
0.15450827
0.15423314
0.15409655
0.15394518
0.15394355
0.15104052
0.17113432
0.17505019
0.17793901
0.17792954
0.17779132
0.17830538
0.17816878
0.17754048
0.17712144
0.1759052
0.17385449
0.17188197
0.16940052
0.168059
0.16663672
0.16502979
0.16365181
0.16211212
0.16049212
0.15917825
0.15815098
0.15700237
0.15620042
0.15548633
0.15468199
0.1543715
0.15411353
0.15399599
0.15384523
0.15392644
0.15103246
0.16556613
0.16980672
0.17226927
0.17285154
0.17365699
0.17416853
0.17446845
0.17464378
0.17443867
0.17374972
0.17225408
0.17019363
0.16805501
0.16713638
0.16592694
0.16447909
0.16312187
0.16166449
0.16016058
0.15886718
0.15787944
0.15675813
0.15601321
0.15529991
0.15457656
0.15429603
0.15404752
0.15392609
0.1537859
0.15390593
0.15102374
0.15671659
0.16036374
0.16372621
0.1654999
0.16697694
0.16836059
0.17025439
0.17062167
0.17107479
0.17108427
0.17053502
0.16878242
0.16721104
0.16649016
0.16553024
0.16411634
0.16258891
0.16130735
0.15995587
0.15869206
0.15772787
0.1566228
0.1559081
0.15519725
0.15451724
0.15424672
0.15398708
0.15387221
0.15375055
0.15388197
0.1510112
0.15218294
0.15571137
0.15921871
0.16143253
0.16319106
0.16519246
0.16689748
0.16705841
0.16810919
0.16884284
0.16849282
0.16734683
0.16593656
0.16562909
0.16488988
0.16351967
0.16206148
0.16094149
0.1597158
0.15850697
0.15757797
0.15649879
0.15578592
0.15512692
0.15448172
0.15421939
0.15393563
0.15380731
0.15372112
0.15385486
0.15098909
0.14594779
0.1494547
0.15224673
0.15449172
0.15674173
0.15908636
0.16137816
0.16290045
0.16477638
0.16637584
0.16615586
0.16507056
0.16502014
0.16510106
0.1643977
0.16282779
0.16147605
0.16047946
0.15953356
0.15836373
0.15749321
0.15642952
0.15571804
0.15508862
0.15446133
0.15420356
0.15388738
0.15376025
0.15369524
0.15382367
0.15097047
0.14249336
0.14621701
0.1489003
0.15136985
0.15378537
0.15607062
0.15853125
0.16064037
0.1627417
0.16373415
0.16313082
0.16249655
0.16309406
0.16353123
0.16310104
0.16216846
0.16101802
0.16002025
0.15911292
0.1580743
0.15733933
0.15632981
0.15561462
0.15504081
0.15444245
0.15419189
0.15384912
0.15370391
0.1536604
0.15378777
0.1509495
0.13754835
0.14059326
0.14316565
0.14622638
0.14868851
0.15103713
0.15366291
0.15609776
0.15797849
0.15968553
0.15977232
0.16034129
0.16158372
0.16220749
0.16190805
0.16135979
0.16015213
0.15961148
0.15880567
0.1578433
0.15721726
0.1562735
0.15555748
0.15501383
0.15443077
0.15418222
0.15381461
0.15361616
0.15361397
0.15374736
0.15092176
0.13524227
0.13745381
0.14021826
0.14372337
0.14630379
0.14877805
0.15152797
0.15370941
0.15546627
0.15627351
0.1570351
0.15857071
0.15984051
0.16082817
0.16075337
0.16031932
0.15955065
0.15915601
0.15837032
0.15747441
0.15696783
0.15614641
0.15547813
0.15498097
0.15440851
0.15417495
0.15378204
0.153541
0.15356752
0.15370131
0.15089213
0.13431112
0.1358241
0.13783636
0.14014024
0.14220214
0.14503411
0.14762795
0.14943076
0.15121609
0.15300497
0.15510053
0.15702559
0.15868864
0.16000062
0.15930196
0.15882225
0.15894338
0.15870686
0.15809441
0.15723309
0.15677648
0.15606598
0.15541025
0.15494717
0.15438765
0.15414944
0.15374441
0.1534595
0.15350283
0.15364679
0.15085149
0.134579
0.13563346
0.13704522
0.13864618
0.1404947
0.14333695
0.14588084
0.14774785
0.14941904
0.15159718
0.15415236
0.15593418
0.1571293
0.15772659
0.15760507
0.15765815
0.1575501
0.15751557
0.1574186
0.15689783
0.15647624
0.15585333
0.15527499
0.15486868
0.15433521
0.15407637
0.15368379
0.15338308
0.15341056
0.15358397
0.15080497
0.13489115
0.13623755
0.13723732
0.13829638
0.13975833
0.14151238
0.14363954
0.14586768
0.14770663
0.14971414
0.15226783
0.15345877
0.15363498
0.15398016
0.15507407
0.15629375
0.15650814
0.15634452
0.15664794
0.1566547
0.15627957
0.1556882
0.15514881
0.15473867
0.15424077
0.15398755
0.15358605
0.1532974
0.1533357
0.15351215
0.15069889
0.13542738
0.1363385
0.13749893
0.13853385
0.13967663
0.14099157
0.14289692
0.14503586
0.14691451
0.14871901
0.15032528
0.15044563
0.15111627
0.15196442
0.15322126
0.15453379
0.15523254
0.15557039
0.15580468
0.15588965
0.15580906
0.15537042
0.15485735
0.15449699
0.15407482
0.15392429
0.15348878
0.15321941
0.15321849
0.15342962
0.15062443
0.13610702
0.13683736
0.13767785
0.13856473
0.13956601
0.1405348
0.1417485
0.14312272
0.14474394
0.1461836
0.14765179
0.14883306
0.14994493
0.15078654
0.15225871
0.15372211
0.15447126
0.15492391
0.15531984
0.15542376
0.15536209
0.15508153
0.15458969
0.1542546
0.15389486
0.15385843
0.15336103
0.1531088
0.15309956
0.15332913
0.15054485
0.13731692
0.1375607
0.13814817
0.13886965
0.13971154
0.14064723
0.14155222
0.14257709
0.1439689
0.14526699
0.14675053
0.14829867
0.14947025
0.15027286
0.15153693
0.15271806
0.15325335
0.15370863
0.15442567
0.15488452
0.15484242
0.15473611
0.15436956
0.15397365
0.15366703
0.15371154
0.15322238
0.15298922
0.1529587
0.15321139
0.15046345
0.13887778
0.13926329
0.13963717
0.13997054
0.14023734
0.14072861
0.1414763
0.1423921
0.14367025
0.14490653
0.14615635
0.14763291
0.14867562
0.14975464
0.15059197
0.15103826
0.15222326
0.15254896
0.1530043
0.15400635
0.15430703
0.15432572
0.15405846
0.15366351
0.15345791
0.15352396
0.15308976
0.15284221
0.15281305
0.15308084
0.15038777
0.13965834
0.14013866
0.1405863
0.14100282
0.14136219
0.14180681
0.1424324
0.14306688
0.14379
0.14479939
0.14593414
0.14725198
0.14831346
0.1494778
0.15004238
0.15021837
0.15111363
0.15171795
0.15226662
0.15316731
0.15363162
0.15368252
0.15356748
0.15329041
0.15322866
0.15317221
0.15293214
0.15269001
0.15265696
0.15293366
0.15028935
0.1408631
0.1410209
0.14130909
0.1416132
0.14193106
0.14229516
0.14284029
0.14332674
0.14370156
0.14413615
0.14501205
0.14614582
0.14734263
0.14838862
0.14872635
0.14918789
0.15029747
0.15130016
0.15194436
0.15268035
0.15291352
0.15301001
0.15310876
0.15303047
0.15294131
0.15291538
0.15273671
0.15250332
0.15247202
0.15276676
0.15017305
0.14233292
0.14247991
0.14267363
0.14295683
0.14315636
0.14340683
0.1438099
0.14412842
0.14456311
0.14493675
0.14522843
0.14598797
0.14665714
0.14736726
0.14812625
0.14878096
0.14977143
0.15075206
0.15145581
0.15173789
0.15217595
0.15264213
0.15270913
0.15283712
0.15265224
0.15262237
0.15254109
0.15231954
0.15226127
0.15257185
0.15002602
0.14316656
0.14330037
0.14344688
0.14367085
0.14405362
0.14433701
0.14447709
0.1447331
0.14498754
0.145466
0.1458447
0.14611012
0.14651341
0.14708557
0.14794154
0.14870089
0.14930437
0.14988999
0.15045737
0.15103144
0.15162384
0.15219162
0.15232765
0.15249085
0.15238733
0.15228002
0.15228733
0.15206724
0.15205427
0.15235483
0.14987875
0.14448362
0.1445242
0.14462904
0.14470368
0.14490572
0.14511753
0.14528776
0.14551707
0.14572394
0.14602463
0.14626667
0.14655547
0.1469348
0.14733219
0.14794902
0.14866309
0.14914578
0.14960144
0.15011459
0.15068036
0.15114627
0.15142825
0.15157592
0.15188591
0.15196711
0.151934
0.15189249
0.15180398
0.15181453
0.15211388
0.14971008
0.14517184
0.14524641
0.14544153
0.14559665
0.1455851
0.14560152
0.14571915
0.14591395
0.14608506
0.1463254
0.14651375
0.14674873
0.14710772
0.14755256
0.14805227
0.14849978
0.1489507
0.14942385
0.14992811
0.15030968
0.15052953
0.15084831
0.1511073
0.15135869
0.15160623
0.15154061
0.15152913
0.15157447
0.15153773
0.1517942
0.14956613
0.14613001
0.14617822
0.1461524
0.14616089
0.14623734
0.14638907
0.14652679
0.14668132
0.14682937
0.14691547
0.1470713
0.14732905
0.14764449
0.14792162
0.14818765
0.14839568
0.14872247
0.14909081
0.14945934
0.14975243
0.15014525
0.15053698
0.15086137
0.15108056
0.15133468
0.15131757
0.15125516
0.15135306
0.15127431
0.1514826
0.14942501
0.14704437
0.14707969
0.1471634
0.14725026
0.1473348
0.14735676
0.14739949
0.14741662
0.1474979
0.14762474
0.14776772
0.14790695
0.14794985
0.14808792
0.1481914
0.14831635
0.14858564
0.14896013
0.14927737
0.14952509
0.14985996
0.15012825
0.15044759
0.15068897
0.1508711
0.15099715
0.15093563
0.15112413
0.15100548
0.15128909
0.14928374
0.14802177
0.14803837
0.14805863
0.14808133
0.14810302
0.1481258
0.14815128
0.14818387
0.14820753
0.14824105
0.14828414
0.14829514
0.14837078
0.14834655
0.1483726
0.14847444
0.14858173
0.14887956
0.14911632
0.14939485
0.1497086
0.14993115
0.15009446
0.15017147
0.15040623
0.15063652
0.1506264
0.15082351
0.15075929
0.15108315
0.14917013
0.14848099
0.14848696
0.14849599
0.14850508
0.14851161
0.14851754
0.14852771
0.14853943
0.14854602
0.14855642
0.14857483
0.1486156
0.1486363
0.14869317
0.14875257
0.1487608
0.14882426
0.14889712
0.14895861
0.14918234
0.14946619
0.14968701
0.14985693
0.14989698
0.15007658
0.15030823
0.15040142
0.1504331
0.15041862
0.15074132
0.14912891
0.1487481
0.14875513
0.14876755
0.14877899
0.14879241
0.14880392
0.14881887
0.14883684
0.14885354
0.14888434
0.14890663
0.14893253
0.14892921
0.14892096
0.14891497
0.14885567
0.14888754
0.1489693
0.14890655
0.14906455
0.14927928
0.14929175
0.14947603
0.14966946
0.14980388
0.14991419
0.14998359
0.15000832
0.14993992
0.15034433
0.1490326
0.14887017
0.14887611
0.14888901
0.14890212
0.14891753
0.14893113
0.14894747
0.14896407
0.14898172
0.14900792
0.14902486
0.14904182
0.14902288
0.14899928
0.14897511
0.14889738
0.14887562
0.14890969
0.14881603
0.14885897
0.14898512
0.14900732
0.1490753
0.14916874
0.1493233
0.14938061
0.14938032
0.14943022
0.14943309
0.14972609
0.1488872
0.14892391
0.1489303
0.14894427
0.1489582
0.148975
0.14898739
0.1490041
0.14901699
0.14903316
0.1490553
0.14906446
0.14907733
0.14904292
0.14901891
0.14899462
0.1489294
0.14888762
0.14888527
0.14876871
0.14875197
0.14877953
0.14880119
0.14888743
0.14890674
0.14899813
0.1490671
0.1490496
0.14905099
0.14912358
0.14938939
0.14882726
0.14950114
0.14950783
0.14951441
0.14951705
0.14952078
0.14951893
0.14951877
0.14951475
0.14950999
0.14951771
0.14950693
0.14951386
0.14948683
0.14949549
0.149506
0.14949554
0.14943859
0.14937013
0.14921393
0.14899076
0.14879445
0.14890012
0.14907621
0.14890761
0.14897859
0.14907191
0.14899648
0.14895756
0.14904017
0.14928706
0.14878186
0.10221263
0.15816193
0.18713933
0.19734515
0.20090144
0.20206567
0.20180197
0.2005417
0.19845244
0.19639522
0.19329899
0.18979238
0.18612154
0.18259025
0.17902966
0.17559288
0.1723389
0.16926304
0.16650488
0.16422738
0.16224829
0.1607201
0.15932532
0.15799222
0.15666777
0.1555988
0.15516484
0.15480378
0.15465423
0.1543368
0.15141358
0.17405154
0.19150798
0.20076265
0.20317867
0.20321631
0.20281114
0.2019613
0.19993645
0.1977826
0.19571008
0.19239594
0.18886043
0.18529994
0.18190625
0.1783973
0.17506548
0.17189969
0.16888778
0.16622702
0.16403322
0.16211244
0.16061552
0.15923814
0.1579254
0.15662106
0.15554802
0.15514191
0.15477965
0.15463638
0.1543149
0.15137532
0.19363849
0.20069431
0.20317611
0.20398664
0.20373736
0.20317187
0.20200604
0.19993211
0.19768833
0.19552478
0.19212649
0.18857146
0.18504321
0.18168253
0.17816361
0.17486728
0.1717337
0.16873482
0.16611403
0.16395211
0.16205532
0.16056027
0.15919781
0.15789514
0.15659494
0.15550764
0.15510968
0.154755
0.15462379
0.15429753
0.15134849
0.199867
0.20257185
0.20382545
0.2042341
0.20430791
0.20384175
0.20250494
0.19999357
0.19738352
0.19495108
0.19147564
0.18781108
0.18446158
0.18109154
0.17758459
0.17438126
0.17134398
0.16840237
0.16587027
0.16377203
0.16193744
0.16046307
0.15911123
0.15783179
0.15652109
0.15548013
0.1550836
0.15473769
0.15460792
0.15428068
0.15132601
0.20293301
0.20521746
0.2060784
0.20615124
0.20593601
0.2044304
0.20270798
0.20060798
0.19721178
0.19450769
0.19123151
0.18751447
0.184267
0.18086242
0.17736272
0.17418169
0.17118322
0.16826679
0.1657673
0.1636949
0.16188754
0.16041652
0.15907256
0.15780325
0.15646657
0.15545679
0.15505831
0.15472527
0.15459361
0.15426419
0.15130852
0.2074536
0.20824453
0.20818126
0.20799129
0.20737353
0.20518515
0.20296933
0.20085035
0.19715129
0.19393996
0.19054491
0.18690068
0.18381417
0.18030052
0.17682132
0.1736891
0.17078631
0.16796032
0.16554041
0.16351784
0.16177533
0.16031893
0.15898965
0.15773725
0.15638515
0.15543034
0.15504208
0.15471552
0.15457335
0.15424793
0.15129583
0.21169365
0.21143827
0.21097516
0.20980234
0.20818205
0.20631262
0.20346086
0.20084961
0.19724644
0.19384341
0.19008343
0.1867102
0.1836608
0.18008807
0.1766016
0.17349035
0.17062528
0.16783619
0.16544801
0.16344153
0.16172815
0.1602716
0.15894992
0.15770122
0.15632398
0.15541077
0.15501887
0.15470663
0.1545497
0.15423173
0.15128374
0.21636338
0.21542057
0.21421984
0.21199888
0.20887053
0.20696071
0.20417236
0.20051024
0.19709269
0.19377072
0.18965746
0.18624315
0.18318813
0.17953075
0.17609947
0.17305825
0.17023905
0.16756054
0.16524163
0.16326511
0.16161914
0.16017343
0.15886814
0.15762541
0.15625411
0.15539462
0.15499695
0.15469172
0.15452899
0.1542154
0.15126759
0.22159427
0.21859617
0.21688886
0.21526958
0.2112208
0.20776364
0.20445311
0.20041044
0.19659666
0.19350643
0.18953826
0.18607108
0.18290103
0.17928415
0.17590467
0.17288987
0.17008057
0.16744887
0.16515783
0.16319054
0.16157385
0.16012902
0.15882888
0.15757857
0.15621763
0.15538158
0.15497233
0.15467822
0.15451344
0.15419918
0.15125816
0.22726165
0.22152435
0.21818861
0.21625374
0.21284861
0.20874881
0.20458004
0.20069868
0.19643265
0.19280284
0.18908261
0.18547551
0.18223792
0.1786688
0.17542474
0.17252355
0.16975918
0.16720155
0.16497827
0.16303402
0.16147162
0.16003754
0.15875181
0.15750276
0.15616598
0.15536171
0.15495135
0.15466129
0.15450058
0.15418253
0.15125179
0.23113763
0.22639967
0.22088694
0.21678325
0.21333099
0.20915175
0.20464991
0.20092534
0.19652914
0.19203197
0.18865829
0.18523374
0.18192701
0.17842434
0.17523754
0.17238193
0.16963733
0.16710429
0.16490642
0.16297003
0.16142911
0.15999675
0.15871642
0.1574592
0.15614335
0.1553423
0.15492974
0.15464821
0.15449055
0.15416527
0.15123712
0.2332703
0.22822092
0.22413384
0.21901316
0.21378272
0.2092599
0.20457003
0.20059391
0.1965091
0.19183702
0.1882891
0.18470391
0.18125347
0.17780439
0.17476366
0.17201184
0.16936377
0.1668801
0.16472829
0.16282812
0.16133238
0.15990621
0.15864815
0.15739306
0.15610369
0.15531511
0.15490847
0.15463832
0.1544862
0.15414733
0.15122115
0.23575522
0.22903231
0.22502017
0.22009593
0.21445267
0.2096805
0.20448981
0.19979773
0.19601559
0.19171596
0.18812979
0.18445527
0.18083927
0.17750559
0.17457489
0.17185646
0.16925765
0.16679148
0.16462883
0.16276307
0.16128719
0.15985335
0.1586092
0.15735565
0.15607709
0.15529947
0.15489413
0.15462659
0.15448112
0.1541292
0.15120394
0.23869668
0.2310454
0.22525599
0.22013965
0.2145841
0.20990339
0.20471921
0.19980296
0.19552169
0.19127966
0.18767608
0.18377722
0.18009945
0.17677271
0.17403975
0.17146161
0.16896544
0.16655975
0.16443279
0.16261919
0.16117985
0.15975489
0.15853566
0.15729262
0.15603813
0.1552857
0.1548772
0.15461337
0.15447251
0.15411173
0.15119136
0.2396823
0.23246937
0.22618491
0.2201386
0.21427426
0.20950695
0.2047495
0.19994219
0.19540249
0.19076678
0.18725892
0.18341371
0.17977904
0.17646502
0.17380026
0.1712781
0.16882304
0.16644333
0.16434692
0.16255639
0.16111697
0.15969541
0.15848715
0.15725478
0.15602089
0.15527437
0.15486736
0.15460682
0.15446826
0.15409501
0.15117713
0.23847654
0.23248986
0.22663733
0.2208038
0.2147337
0.2089337
0.20413614
0.19982431
0.19509881
0.19059498
0.18679904
0.18295041
0.17920198
0.17598361
0.17331837
0.17087206
0.16854886
0.16621611
0.16417705
0.16242351
0.16100661
0.15959763
0.1584171
0.15719593
0.15598532
0.15526504
0.1548531
0.15460138
0.15446612
0.15407851
0.15116535
0.2365649
0.2301263
0.22533366
0.22012163
0.21443222
0.2085283
0.20347274
0.1992849
0.19453005
0.19038909
0.18660954
0.18284642
0.17898017
0.17583079
0.17313361
0.17068322
0.16844658
0.16613302
0.16407894
0.16236734
0.16093913
0.15953335
0.15837434
0.15716009
0.15596241
0.15526214
0.15484214
0.15459115
0.15446429
0.15406206
0.15114272
0.23421372
0.22767811
0.22235821
0.21762044
0.21292724
0.2077379
0.20274927
0.19868479
0.19402256
0.18994924
0.18653084
0.18263515
0.17870797
0.17561879
0.17299916
0.17048427
0.16828173
0.16596894
0.1639065
0.16224465
0.16082954
0.15943932
0.15830648
0.15710873
0.1559272
0.15525598
0.1548205
0.15457988
0.15446235
0.15404652
0.15112198
0.22953929
0.22488435
0.22036842
0.21552189
0.21082944
0.20612379
0.20155701
0.19779617
0.1932414
0.18950074
0.18604951
0.18239999
0.17868745
0.17549598
0.17299231
0.17044722
0.168231
0.16590202
0.16383394
0.16219448
0.16077392
0.15938319
0.15826879
0.15708656
0.15590208
0.15524912
0.15480372
0.154576
0.15445084
0.15403223
0.15110726
0.22386002
0.21958305
0.2160708
0.21231679
0.20825236
0.20409504
0.20004615
0.19626684
0.19209213
0.18858199
0.18542688
0.18183632
0.17821599
0.17512889
0.1728823
0.17043623
0.16816312
0.16587658
0.16381772
0.1621675
0.16075405
0.15936338
0.15825666
0.15708157
0.15589407
0.15524735
0.15479535
0.15458375
0.15443987
0.15401932
0.15109935
0.21961341
0.2157245
0.2121534
0.2086258
0.20522917
0.20149866
0.19771026
0.19431464
0.19057945
0.18734819
0.18443148
0.18090803
0.1775732
0.17471339
0.17247994
0.1702612
0.16816694
0.1659151
0.16386315
0.16218677
0.16078159
0.15938833
0.15829964
0.15713558
0.15591909
0.1552488
0.15479779
0.15458573
0.15443633
0.15400669
0.15108546
0.21267229
0.20938237
0.2065995
0.20395234
0.20106053
0.19793169
0.19497742
0.19190919
0.18863523
0.18574318
0.1828477
0.17985447
0.1766344
0.17390149
0.17189918
0.16976853
0.16786694
0.16579749
0.1637822
0.162195
0.16079619
0.15940322
0.15832202
0.15716071
0.15593578
0.15522612
0.15479876
0.15451731
0.15444141
0.15399366
0.15107528
0.20724213
0.20460393
0.20205373
0.19929093
0.19694153
0.19420907
0.19174015
0.18931148
0.18651726
0.18383096
0.18123634
0.17832238
0.17533535
0.1729526
0.17094004
0.16898611
0.16716878
0.16515767
0.16319471
0.1617105
0.16039131
0.15906175
0.15809346
0.15699455
0.15582608
0.15514034
0.15469621
0.15441519
0.15439662
0.1539809
0.15106419
0.19799339
0.19654881
0.19519848
0.19364249
0.19190194
0.18994938
0.18825217
0.1863093
0.18376107
0.18179715
0.17929468
0.17674307
0.17390429
0.17164674
0.16964135
0.16782954
0.16622688
0.16436506
0.1625302
0.16101713
0.15977092
0.15848231
0.15756629
0.15656668
0.15550149
0.15492829
0.15454526
0.15431668
0.15425723
0.15396795
0.1510522
0.093376337
0.15201624
0.1836483
0.19486955
0.1997781
0.2014657
0.20147279
0.20033607
0.19825806
0.19624938
0.19326676
0.18982261
0.18622738
0.18266862
0.17914139
0.17574367
0.17246652
0.16939146
0.16660867
0.16431612
0.16231525
0.16078455
0.15937343
0.158036
0.15670161
0.15566437
0.15519847
0.15484544
0.15468699
0.15435319
0.15143576
0.095180598
0.15348374
0.18294462
0.19374433
0.19878622
0.20082523
0.2011205
0.1999734
0.19806308
0.19611774
0.19314315
0.18974679
0.18615314
0.18259799
0.17908763
0.17571259
0.17244081
0.16937697
0.16659849
0.16431214
0.1623134
0.16081561
0.15940813
0.15808197
0.15674241
0.15574266
0.15523628
0.15489805
0.15473433
0.15436444
0.15144845
0.10077582
0.15692831
0.18384689
0.19410073
0.19882097
0.20053504
0.20079189
0.19972553
0.19781258
0.19584071
0.19288444
0.18952072
0.18590958
0.18239483
0.17892244
0.17560727
0.17236324
0.16932964
0.16656601
0.16429201
0.16230112
0.16081247
0.15944146
0.15812787
0.15679391
0.15583693
0.15528382
0.154972
0.1548045
0.15437264
0.15146934
0.10437734
0.15891637
0.18536997
0.19492098
0.19907605
0.20064207
0.20070802
0.19945576
0.19766351
0.19563253
0.19255153
0.18935441
0.18574644
0.18214386
0.17869876
0.17545895
0.17221332
0.1692274
0.16649254
0.16424741
0.16227456
0.16080258
0.15944469
0.15816397
0.15685506
0.15593298
0.15533107
0.15505121
0.15487991
0.15437918
0.15148927
0.11144506
0.16389694
0.18802083
0.19651473
0.19979584
0.20085486
0.20080626
0.19935976
0.19737002
0.19521991
0.19233138
0.18906377
0.18544232
0.18189492
0.17851169
0.17530419
0.17208105
0.16913694
0.16643579
0.16420169
0.16224387
0.1607923
0.15944281
0.15817952
0.15690145
0.15599935
0.15537462
0.15511536
0.15494213
0.15438405
0.15150471
0.11489108
0.16684985
0.18974958
0.19761305
0.20052202
0.20139581
0.20096017
0.19927255
0.19726666
0.19494706
0.19185645
0.18871866
0.18521658
0.18155406
0.17821989
0.17506086
0.17188014
0.16899313
0.16632832
0.1641414
0.16220797
0.16077999
0.15943828
0.15820089
0.15695106
0.156026
0.15541566
0.15517193
0.15498776
0.15438925
0.15152937
0.12085945
0.17059651
0.19265746
0.19981915
0.20213396
0.20241837
0.20133481
0.19933234
0.19713483
0.19452031
0.19158076
0.18832964
0.18468557
0.1811809
0.17791795
0.1748252
0.17167874
0.1688402
0.16623705
0.1640635
0.16215922
0.1607679
0.15943349
0.15820921
0.15695887
0.15602602
0.15544722
0.15519747
0.15500077
0.15439467
0.15154763
0.13264151
0.17948792
0.19792518
0.20300993
0.20383165
0.2034136
0.20206642
0.19951897
0.19699848
0.1941334
0.19095034
0.1875657
0.18429886
0.18059421
0.17736674
0.17434833
0.1713354
0.16858113
0.16607507
0.16397709
0.16210918
0.16074479
0.15942009
0.15820893
0.15695706
0.15603257
0.15547157
0.15520577
0.15500183
0.15440009
0.15156097
0.14285797
0.18601909
0.20212197
0.20551462
0.20587078
0.20513441
0.20319304
0.19978232
0.19684715
0.19384607
0.19057489
0.18717067
0.18364213
0.17995845
0.17691326
0.17398515
0.17097705
0.16833004
0.16588855
0.16385319
0.16203968
0.16071529
0.15940627
0.15820699
0.15696152
0.1560478
0.15549294
0.15522635
0.15500667
0.15440511
0.15158781
0.16017196
0.197147
0.20874919
0.21060926
0.20928222
0.20673516
0.20372959
0.20034102
0.19695943
0.19332638
0.18982175
0.18629391
0.18289459
0.17927257
0.1762639
0.17340876
0.1705472
0.16800001
0.16567214
0.16372545
0.16196678
0.16067294
0.15937475
0.15820087
0.1569758
0.15607167
0.15551653
0.15525107
0.1550196
0.15441083
0.15160831
0.18269743
0.20882807
0.21462992
0.21377857
0.21096157
0.20794517
0.20474463
0.20102366
0.1968858
0.19300974
0.18942948
0.18571727
0.18228588
0.17848135
0.17574846
0.17286059
0.17004077
0.16764084
0.16542061
0.16356756
0.16187202
0.16062274
0.15934069
0.15818969
0.15699119
0.15611014
0.15554217
0.15526499
0.15503035
0.15441851
0.15162349
0.20078019
0.21640776
0.21887242
0.21666214
0.21396519
0.21059207
0.20609549
0.20099921
0.19630387
0.19268291
0.18844319
0.18477777
0.18104127
0.17782724
0.17496764
0.17217148
0.16952206
0.16727012
0.16520151
0.16340157
0.16177027
0.16055731
0.15929403
0.15817144
0.15701394
0.15615071
0.15556195
0.15528582
0.15504684
0.15442853
0.15163975
0.21772234
0.22499468
0.22455941
0.22077471
0.21632772
0.21126043
0.20585476
0.20026854
0.19571929
0.19154826
0.1876565
0.18378532
0.18031389
0.1767857
0.17401079
0.17127362
0.16884184
0.1667942
0.16485783
0.1631935
0.16163148
0.16047079
0.15923768
0.15815548
0.15704252
0.15618472
0.15557832
0.15531321
0.15506383
0.15443968
0.15165366
0.22858658
0.22941664
0.22604018
0.22123312
0.21596386
0.21017269
0.20392537
0.19913919
0.19449841
0.19040842
0.18606609
0.18230077
0.17882375
0.1755422
0.17307407
0.17038684
0.16818028
0.16633436
0.16451019
0.1629241
0.16147594
0.16037026
0.1591836
0.15813002
0.15705089
0.15623352
0.15560355
0.155353
0.15507682
0.15445256
0.15166724
0.22974769
0.22834621
0.22424141
0.21886234
0.21219774
0.2061364
0.20140738
0.19669316
0.19224443
0.18764148
0.1838406
0.18063722
0.17713522
0.17415587
0.1715296
0.16915492
0.1673221
0.1656513
0.16403246
0.16261925
0.1612855
0.16024582
0.15910399
0.15809979
0.15705866
0.15627392
0.15563149
0.15538133
0.15509155
0.15446978
0.1516828
0.22690447
0.22271011
0.2171008
0.2124503
0.20726752
0.20301273
0.19777608
0.19419064
0.18994158
0.18529571
0.18205427
0.17795321
0.1752633
0.17220047
0.17003567
0.16794188
0.16630206
0.16492182
0.16345801
0.16221717
0.16106289
0.16009696
0.15901848
0.15806408
0.15707828
0.15629985
0.15565873
0.15541798
0.15511134
0.15449247
0.15170353
0.21708565
0.21117584
0.20823917
0.20375114
0.19987433
0.19583536
0.19176212
0.18853728
0.18379271
0.18054062
0.17754798
0.17511187
0.1725099
0.16999196
0.16821906
0.16649625
0.16523594
0.16413352
0.16290222
0.16182586
0.16081516
0.15991815
0.15891524
0.15802106
0.15711438
0.15632131
0.15568864
0.15545961
0.15513245
0.15451201
0.15173043
0.20340283
0.19949479
0.19778361
0.19403726
0.19182452
0.18805244
0.18582845
0.1826833
0.17907573
0.17701882
0.17440535
0.1723185
0.1694151
0.16754063
0.1660022
0.16475796
0.16390146
0.16310949
0.1621539
0.16132694
0.16051182
0.15972408
0.15881891
0.15798214
0.15713831
0.15636695
0.15572439
0.15551267
0.15515326
0.1545297
0.1517567
0.19011839
0.18716755
0.18605544
0.18343549
0.18215551
0.17925642
0.17777446
0.17507716
0.17363353
0.17085662
0.16902437
0.16709267
0.16555373
0.16493896
0.16377929
0.16314243
0.16263276
0.16215805
0.1614108
0.16077982
0.16020985
0.15950985
0.15871123
0.15793306
0.1571667
0.15642523
0.15575876
0.15556255
0.15517443
0.15455598
0.15179496
0.17580032
0.17346777
0.17278445
0.17099047
0.17011475
0.16829137
0.16756712
0.16576519
0.16505851
0.163306
0.16277213
0.1626655
0.1625065
0.16200327
0.161418
0.16125003
0.16118002
0.1610288
0.1606076
0.16027468
0.15985084
0.1592879
0.15860498
0.15789383
0.15719462
0.15645016
0.1557919
0.1555947
0.15519121
0.1545897
0.15181171
0.16345124
0.16176264
0.16143665
0.1606488
0.16037419
0.15976374
0.15974287
0.15949372
0.15939916
0.15885629
0.15859279
0.1588316
0.1585285
0.15839913
0.15876971
0.15889559
0.1593042
0.15963624
0.15956561
0.15962922
0.15950167
0.15906773
0.15849765
0.15783748
0.15720447
0.15648578
0.1558204
0.15562317
0.15521837
0.15462074
0.15182496
0.1499924
0.14864479
0.1486054
0.14844382
0.14876886
0.14886597
0.14911344
0.14912988
0.14954151
0.14992485
0.15076067
0.1518664
0.15288992
0.15456372
0.15588966
0.15668161
0.15774836
0.15848014
0.15872493
0.1590723
0.15916493
0.15885197
0.15839327
0.1577782
0.15721217
0.15653426
0.15585408
0.15565625
0.15524701
0.15464805
0.15182057
0.13526512
0.13418021
0.13473226
0.13499465
0.13595098
0.13643304
0.13748714
0.1379011
0.13989573
0.14112501
0.14420184
0.14639998
0.14917766
0.15139237
0.15311663
0.1545939
0.15626738
0.15731409
0.15794814
0.15861408
0.15880622
0.15867435
0.15830256
0.15773199
0.15723273
0.15656963
0.15588685
0.15570023
0.15527381
0.1546788
0.15181879
0.1213501
0.12059198
0.12271443
0.12358932
0.12570217
0.12668204
0.12910686
0.13064022
0.13438277
0.13626641
0.14025813
0.14290203
0.14565038
0.14767463
0.149893
0.1521049
0.15429009
0.15587254
0.15696603
0.15801694
0.15850272
0.1584937
0.15821514
0.15768082
0.15725062
0.15659696
0.15591329
0.15575712
0.15532717
0.15470189
0.15184251
0.10490355
0.10480068
0.10814108
0.11009565
0.11311021
0.11541698
0.11893772
0.12151295
0.1264535
0.12869432
0.13343385
0.13659231
0.13993538
0.14336641
0.14691288
0.15020368
0.15288876
0.15491193
0.15635776
0.15754887
0.1581918
0.15832982
0.15813958
0.15763192
0.15725303
0.15662635
0.15594108
0.15579188
0.15535585
0.15472656
0.15186559
0.087037608
0.088893511
0.092145464
0.095241976
0.098757591
0.10237723
0.10671202
0.11085017
0.11683771
0.12150021
0.12715723
0.13235659
0.13734807
0.14209311
0.14632664
0.14996198
0.15271916
0.15479681
0.15631292
0.15744766
0.15789631
0.1581956
0.15805214
0.15759291
0.15725804
0.15666058
0.15597266
0.15580667
0.15540418
0.15475612
0.15189438
0.079901701
0.082418394
0.085340957
0.088676865
0.092457026
0.096563567
0.10137688
0.1065049
0.11266182
0.11932408
0.12657515
0.13227145
0.13780861
0.14280432
0.14705128
0.15059872
0.15309916
0.15502321
0.15641556
0.15740489
0.15775673
0.15807489
0.15796622
0.15757407
0.15726282
0.15667519
0.15601693
0.15582299
0.15544749
0.15479117
0.15188368
0.087317441
0.088803491
0.090881444
0.093476082
0.096566925
0.10027305
0.10472669
0.10939633
0.11477974
0.12061069
0.12756647
0.13472755
0.14146559
0.14605549
0.14926835
0.15187224
0.15371407
0.15533299
0.15651317
0.15739769
0.15775826
0.15800847
0.1578993
0.15755041
0.15726281
0.15668972
0.15604407
0.1558323
0.15545472
0.15483199
0.1518576
0.11691584
0.11697292
0.1170158
0.11720096
0.11778306
0.11839557
0.11941866
0.12213013
0.12573212
0.12986431
0.13564829
0.1413557
0.14546278
0.14842234
0.15074124
0.15277237
0.15439009
0.15579922
0.1567394
0.15748953
0.1577982
0.15801103
0.15784806
0.15752616
0.15725433
0.15671983
0.156087
0.15584999
0.1554561
0.1548739
0.15186031
0.14214149
0.14292522
0.14375199
0.14516177
0.14625247
0.14777397
0.15110425
0.15355004
0.15539814
0.1559296
0.15520702
0.15410322
0.15279279
0.1527749
0.15391645
0.15522612
0.15640202
0.15733073
0.15769634
0.15797002
0.15792343
0.15803979
0.15783582
0.15750636
0.15725081
0.15673636
0.15612465
0.1558699
0.15546533
0.15491925
0.15186862
0.14726973
0.14884846
0.15168975
0.15308131
0.15496563
0.15879788
0.16306847
0.16599835
0.16827322
0.16902254
0.16915665
0.16979423
0.16925245
0.16598011
0.16426197
0.16312914
0.16197858
0.16081294
0.15959486
0.15882069
0.15819984
0.15814207
0.157852
0.15748349
0.15724742
0.15674722
0.15613572
0.15588237
0.15548473
0.15497423
0.15187422
0.14464326
0.14679334
0.14947848
0.15235574
0.15604006
0.16021901