/*--------------------------------*- C++ -*----------------------------------*\
| =========                 |                                                 |
| \\      /  F ield         | OpenFOAM: The Open Source CFD Toolbox           |
|  \\    /   O peration     | Version:  2406                                  |
|   \\  /    A nd           | Website:  www.openfoam.com                      |
|    \\/     M anipulation  |                                                 |
\*---------------------------------------------------------------------------*/
FoamFile
{
    version     2.0;
    format      ascii;
    arch        "LSB;label=32;scalar=64";
    class       volScalarField;
    location    "0.01";
    object      omega;
}
// * * * * * * * * * * * * * * * * * * * * * * * * * * * * * * * * * * * * * //

dimensions      [0 0 -1 0 0 0 0];

internalField   nonuniform List<scalar> 
8260
(
12427.446
10819.271
9980.5746
8975.3537
8404.5021
7562.6463
6433.1666
5697.5665
5182.0436
4701.3971
4440.8995
4298.1907
4155.246
3977.1942
3883.3683
3847.9878
3831.952
3787.8804
3766.0141
3759.1729
3750.1788
3745.5178
3741.6697
3738.0219
3734.6628
3731.8504
3734.2997
3738.6613
3742.1346
3743.0449
3858.1769
9524.625
9014.8323
8499.3767
8064.7587
7685.2615
6952.8715
5946.0201
5389.5603
5009.2717
4582.6925
4374.0227
4261.5584
4117.3678
3954.8736
3871.7058
3843.0033
3830.4031
3791.4819
3768.5788
3761.4282
3753.0847
3749.2833
3746.5446
3743.1469
3740.2275
3737.8564
3740.4694
3744.8885
3748.3217
3750.3168
3864.6112
8384.8024
8366.0531
7860.6162
7794.7038
7390.4567
6717.7369
5749.2927
5263.8773
4944.8952
4537.002
4345.8914
4245.9455
4100.231
3946.2715
3868.2461
3842.1991
3834.5766
3799.5362
3773.0855
3767.8364
3759.5041
3755.6334
3752.9533
3750.0396
3747.207
3744.8296
3747.3375
3751.83
3755.3836
3759.1901
3871.7812
7963.541
7847.5366
7448.9254
6920.7161
6622.0641
6167.2127
5337.3539
5028.1513
4791.0467
4440.5726
4300.2292
4214.0997
4068.6036
3937.8447
3867.1477
3842.5561
3838.5994
3807.4442
3779.7608
3772.659
3764.8885
3761.9663
3760.3544
3757.4592
3754.7227
3752.7243
3755.4093
3759.9259
3763.4386
3769.424
3879.7775
6825.7294
6742.9422
6574.199
6525.8972
6327.057
5898.1711
5166.0666
4930.0986
4710.3795
4393.2274
4280.3025
4194.4758
4050.575
3933.3567
3868.1986
3850.9922
3843.987
3815.9621
3787.5473
3782.4474
3773.5358
3770.5
3769.3119
3766.6796
3764.1144
3762.002
3764.4946
3769.0249
3772.6332
3779.7087
3889.1106
6376.3801
6363.6056
6318.9979
5849.5974
5604.3739
5314.1748
4846.7607
4691.4092
4538.9562
4299.8075
4237.3194
4147.5159
4010.4838
3930.7011
3872.2287
3856.5487
3849.8442
3824.6054
3797.9768
3789.3078
3781.1359
3779.0643
3778.6827
3776.5449
3773.8838
3772.1849
3774.8369
3779.4074
3783.1066
3787.6639
3899.1032
5625.6458
5554.6896
5486.6119
5298.8329
5258.9401
5170.8288
4739.3207
4628.6521
4480.2047
4233.456
4205.0669
4104.1942
3971.4486
3930.0564
3887.0036
3868.3138
3855.7734
3832.2279
3807.5221
3802.4093
3792.2989
3789.9051
3790.5895
3788.525
3786.2731
3784.3809
3786.7985
3791.4108
3795.0828
3793.9869
3910.7807
5371.703
5268.5989
5260.582
5090.6959
4985.6915
4791.6087
4486.3548
4400.2798
4288.5209
4169.4099
4114.1332
3999.1528
3951.7002
3931.0952
3898.8596
3874.0901
3861.2744
3842.1689
3822.2448
3811.4503
3802.5959
3801.4775
3802.5874
3801.6012
3799.294
3797.9048
3800.3952
3805.1505
3808.7185
3801.2886
3924.0631
4740.8315
4717.0459
4726.2015
4722.8209
4623.6827
4576.0199
4392.7829
4356.6362
4238.0209
4160.2834
4073.9947
3965.5722
3943.0187
3932.4849
3919.4971
3890.4286
3867.2861
3847.9658
3835.6018
3827.4141
3817.6939
3815.2942
3817.6786
3817.12
3815.4124
3813.6833
3815.8245
3820.5199
3824.2759
3822.8954
3939.1368
4508.267
4513.1945
4563.7213
4620.8647
4497.7412
4468.8734
4241.9001
4200.5286
4100.1313
4066.3421
3983.3183
3939.5785
3940.7033
3934.5238
3925.6132
3896.1827
3877.22
3867.0184
3850.1495
3836.71
3832.4227
3831.7307
3834.1884
3834.1901
3832.4404
3831.5202
3833.8864
3838.6363
3842.1336
3851.724
3956.2363
4277.6541
4285.8039
4273.3552
4277.1074
4262.1273
4233.337
4175.0934
4135.5143
4088.7338
4054.5531
3969.3571
3936.0693
3943.6335
3962.6857
3939.318
3901.3471
3884.4583
3885.9232
3867.6342
3856.5131
3852.5157
3849.3971
3854.3853
3854.9779
3853.4452
3852.2013
3854.3103
3858.9495
3862.499
3868.5627
3974.6671
4178.4667
4194.4802
4177.0555
4178.2932
4188.5212
4159.7166
4146.8857
4066.3303
4025.2396
3983.7491
3924.0068
3927.7229
3939.9219
3975.7036
3938.2385
3912.9482
3907.2618
3900.8469
3881.8059
3869.1259
3871.9957
3872.318
3876.2219
3877.9941
3876.0697
3875.4084
3877.853
3882.4702
3885.9108
3889.2725
3997.7665
4099.2602
4129.4296
4117.3806
4110.3545
4093.4361
4086.6117
4043.8187
4013.1427
4002.0508
3984.6781
3929.1504
3964.3142
3968.6168
3992.3958
3938.4783
3920.7024
3917.0474
3918.6278
3909.4894
3900.0354
3899.8358
3899.1996
3903.3957
3905.9868
3903.9451
3902.5986
3904.701
3909.0763
3912.7009
3917.8004
4021.6005
4068.1352
4078.9561
4082.8077
4073.5245
4063.5187
4059.0003
4010.8276
4003.1011
4010.8009
3974.6706
3940.1573
3976.2351
3959.4724
3955.2931
3938.3006
3947.5081
3940.1344
3929.779
3927.8325
3924.5247
3928.0857
3930.2155
3932.9448
3936.0921
3934.2109
3933.2356
3935.7963
3940.2069
3943.7018
3948.7316
4050.0031
4060.4996
4057.6504
4059.6086
4041.5048
4040.0455
4024.1767
3991.8077
4006.934
3980.0465
4000.1781
3987.8003
3982.1796
3980.7269
3975.3608
3968.7799
3959.5862
3968.7576
3968.3834
3972.2232
3971.127
3967.5604
3967.6117
3968.994
3972.292
3971.2302
3969.628
3971.7161
3976.0436
3979.4225
3985.1188
4083.213
4072.8423
4049.1976
4049.275
4027.6672
4028.3737
4020.6165
4007.0657
4032.0206
4023.3508
4035.1224
4007.1326
3978.6025
3996.3481
3982.0402
3984.2854
4015.2165
4009.3653
4006.9023
4009.3709
4007.8193
4007.5062
4006.9935
4008.4405
4011.6604
4011.4505
4010.7671
4013.1905
4017.4523
4020.7691
4025.3146
4121.287
4086.4027
4069.2999
4072.5738
4063.8696
4062.6217
4063.0423
4071.9281
4064.0538
4061.0518
4046.8943
4048.9581
4056.5238
4071.1239
4053.8275
4053.5291
4070.793
4051.3269
4039.3784
4061.2713
4068.0049
4062.2765
4059.3425
4056.9989
4058.4611
4060.2155
4059.6115
4061.1958
4065.0076
4068.6127
4073.9379
4164.1507
4114.2529
4120.848
4107.9153
4105.2384
4105.9314
4114.3024
4126.8462
4122.0307
4121.2346
4111.8007
4117.6058
4097.5413
4113.5895
4088.0299
4089.4115
4103.2793
4112.6986
4109.3811
4098.6575
4110.2737
4114.7144
4113.1628
4112.3116
4112.0846
4113.8723
4115.1282
4117.184
4121.2907
4124.1404
4126.9131
4214.3955
4175.3195
4169.8331
4175.7412
4166.8419
4164.0517
4161.4921
4157.9257
4154.8029
4152.4652
4145.9566
4155.1378
4171.6241
4184.0957
4186.3778
4179.84
4184.6572
4185.8887
4173.7773
4157.2454
4162.0667
4175.5582
4181.0885
4177.6294
4177.9111
4181.0086
4181.0302
4182.3881
4185.9582
4189.1439
4193.9511
4275.8938
4223.712
4233.9201
4238.0047
4241.8188
4234.1702
4232.644
4238.3286
4241.6112
4240.7243
4246.4132
4248.4393
4238.8293
4242.307
4240.4284
4229.465
4226.8078
4230.0149
4230.6523
4231.7488
4245.3928
4249.6032
4251.586
4253.0355
4252.9686
4255.5395
4257.4841
4258.9491
4262.6145
4265.3993
4269.0014
4346.6477
4319.2541
4334.7165
4342.4912
4346.6338
4355.2736
4344.0902
4328.2146
4315.819
4314.9956
4316.3544
4318.6978
4320.2549
4314.0479
4322.4986
4342.0851
4348.1657
4349.5556
4352.8358
4351.4278
4338.769
4339.6173
4348.2887
4346.6938
4348.766
4349.134
4349.1499
4349.6354
4352.9148
4355.9051
4361.9589
4428.284
4441.1265
4434.4664
4438.3701
4438.9073
4443.6928
4447.1471
4444.3933
4438.4355
4439.2014
4444.4675
4455.0924
4456.7874
4457.8704
4435.936
4419.3975
4419.6138
4417.9264
4423.1562
4437.6684
4454.1707
4453.173
4449.4677
4452.6118
4455.2146
4456.1398
4456.7371
4457.809
4460.9743
4463.317
4468.4725
4522.3814
4559.5967
4568.9747
4569.2496
4563.7532
4555.5337
4555.1081
4556.1511
4564.0178
4561.2821
4558.9913
4548.4578
4547.9398
4550.9084
4561.4051
4580.5848
4586.6838
4586.736
4597.2337
4598.6095
4588.7044
4578.4909
4582.5183
4585.9661
4587.7123
4588.2678
4588.2668
4588.0089
4590.759
4592.7761
4598.9007
4637.6799
4737.7142
4728.2637
4713.404
4712.0793
4714.1016
4719.0535
4730.0855
4729.8188
4733.4742
4728.9203
4734.8855
4735.8992
4731.0081
4718.0931
4713.8391
4715.7278
4738.4076
4744.6935
4739.485
4730.9915
4722.0197
4727.5356
4734.9996
4740.1198
4743.6509
4745.5146
4745.896
4748.7369
4749.6963
4755.0889
4776.1323
4921.0651
4936.2948
4941.0094
4936.6113
4933.9978
4929.9647
4929.3833
4927.9702
4921.6134
4917.8546
4911.8321
4912.5723
4924.0735
4946.3425
4951.0172
4945.7971
4927.1919
4921.1273
4923.968
4928.7417
4939.2172
4939.7387
4936.8677
4937.2716
4940.1166
4941.2296
4940.4258
4942.1077
4942.9762
4948.0523
4943.5689
5176.1903
5165.2549
5160.5691
5162.0818
5161.7224
5162.6953
5162.5194
5169.8018
5181.3085
5186.112
5189.4176
5186.9062
5181.1564
5167.4235
5153.7795
5149.8072
5152.9379
5151.3895
5155.4702
5173.3852
5180.5866
5174.519
5172.982
5176.1634
5178.8082
5181.1913
5181.1199
5182.8563
5183.3619
5189.0047
5147.5885
5463.4062
5466.8519
5476.3826
5483.9334
5485.1865
5482.0131
5474.7826
5466.7353
5462.3453
5462.3227
5461.504
5459.6863
5459.2851
5465.8125
5483.2784
5491.635
5493.3698
5493.5404
5490.529
5479.221
5477.2374
5483.0443
5484.927
5483.8293
5485.0708
5486.1359
5485.574
5486.4051
5487.3738
5492.334
5403.8115
5889.449
5883.436
5870.6526
5861.6554
5859.506
5862.0695
5868.7054
5874.4511
5876.4571
5877.3488
5881.0001
5885.7492
5885.2398
5875.2567
5858.323
5849.6468
5852.9489
5859.099
5858.8139
5864.966
5867.7198
5866.1256
5868.2203
5871.2842
5873.1556
5875.6243
5877.2637
5877.7663
5878.1416
5883.5821
5731.8753
6372.865
6375.0022
6383.2857
6389.1915
6390.3639
6389.7828
6387.7465
6384.8081
6382.1289
6380.5567
6376.9735
6372.5809
6373.6583
6382.3125
6394.2986
6399.7826
6394.4809
6390.3499
6390.6056
6387.3138
6387.6372
6391.9876
6392.0944
6390.5912
6390.5544
6390.8779
6391.7084
6392.5427
6393.5102
6397.9885
6239.8761
7097.7565
7095.1129
7090.6163
7086.1087
7084.0624
7084.3386
7086.1966
7089.1656
7093.0195
7097.438
7100.9292
7104.8213
7103.0748
7092.8921
7079.9404
7072.7962
7076.03
7082.323
7082.1201
7086.7234
7091.3795
7086.0441
7085.9037
7088.394
7090.3697
7091.9307
7093.4009
7094.2406
7095.0389
7096.8742
7277.502
8091.4829
8091.9442
8093.6616
8096.5967
8099.0743
8099.6438
8098.6266
8096.8912
8094.6659
8091.2213
8088.7848
8086.6157
8087.9196
8095.3003
8104.1667
8108.3563
8106.6785
8102.2505
8101.4601
8099.0742
8096.1099
8098.0409
8098.2595
8097.4464
8097.2714
8096.9234
8096.2847
8096.3461
8096.8435
8096.9033
7972.6339
177917.31
151493.26
85709.135
48885.086
30609.717
21233.735
15691.555
11836.704
9198.0677
7320.8525
6165.8141
5313.3749
4687.7452
4280.9369
4016.709
3860.0357
3751.6644
3675.6508
3627.868
3597.4391
3576.4551
3567.8256
3559.816
3553.7741
3546.3903
3540.8142
3540.1931
3541.9068
3541.7372
3539.6648
3646.6307
169967.22
76763.205
42563.902
27513.441
20471.659
16043.495
12594.6
9835.132
7987.59
6616.318
5722.0079
5015.1077
4503.6779
4185.4051
3967.274
3833.6099
3739.8651
3672.3459
3629.3711
3600.4434
3581.3503
3572.9202
3566.0296
3560.2669
3552.8838
3547.6453
3547.348
3549.3234
3549.3492
3547.4685
3654.9395
88053.229
45353.632
29610.364
23009.891
18630.778
14932.337
11799.841
9291.2892
7649.3303
6424.6156
5590.6515
4923.2148
4443.3758
4159.8624
3950.8344
3826.2079
3736.0702
3673.0146
3632.5834
3607.3837
3587.7362
3580.2064
3572.8205
3567.43
3560.0927
3554.8679
3554.7265
3556.8833
3557.1229
3555.3738
3662.634
46186.116
32261.915
25931.979
20857.463
16330.909
13075.637
10386.428
8384.6356
7045.6034
6078.2633
5335.1052
4751.2966
4341.4331
4116.9331
3930.1922
3815.9231
3733.7953
3673.5442
3637.052
3611.0441
3593.6592
3586.2461
3579.692
3574.3775
3567.0411
3562.1052
3562.2514
3564.5958
3564.9814
3563.383
3670.4857
36108.697
28924.592
22814.244
18232.725
15182.93
12343.474
9855.9847
8045.722
6811.7147
5940.1736
5225.7538
4682.3834
4302.1834
4102.9545
3922.4788
3812.7248
3730.338
3676.2786
3639.7369
3619.2456
3600.3721
3593.3463
3586.9773
3581.9335
3574.6807
3569.7221
3569.9898
3572.4634
3572.9771
3571.4966
3678.3807
31661.255
25291.39
20406.097
17161.976
13872.52
10983.332
8965.6425
7474.7147
6418.2361
5649.978
5010.3901
4558.0634
4238.8287
4078.8559
3908.7379
3801.215
3729.5667
3677.3538
3645.0484
3623.4694
3606.7469
3600.1241
3594.2977
3589.1737
3582.0291
3577.296
3577.8366
3580.4544
3581.0678
3579.7128
3687.6382
27778.202
23231.897
18941.714
15580.877
12966.224
10483.851
8656.365
7276.2163
6282.9673
5536.3399
4924.2251
4509.0204
4217.7734
4069.128
3899.7919
3796.4532
3727.6631
3681.2884
3651.1568
3632.1899
3614.3936
3607.666
3601.9336
3597.0314
3589.9887
3585.2017
3585.8816
3588.5679
3589.2743
3588.0253
3696.1726
26144.262
21335.442
17207.23
14981.414
12245.432
9648.0099
8082.8748
6870.1384
6043.4558
5330.0208
4771.8756
4428.8708
4193.8041
4047.2668
3887.9699
3785.4953
3726.8746
3685.4958
3655.7019
3636.7286
3621.0943
3614.5248
3609.689
3604.5367
3597.6802
3593.0382
3593.9749
3596.7952
3597.5744
3596.4236
3705.0546
24191.545
19993.649
16636.677
13870.656
11481.512
9332.2648
7878.2937
6650.3488
5931.5778
5254.1161
4712.5336
4400.1262
4188.1263
4035.4602
3876.5449
3781.4755
3726.6639
3689.0845
3662.3881
3645.9964
3629.418
3622.6796
3617.5667
3612.6365
3605.926
3601.2181
3602.2519
3605.1139
3605.978
3604.8937
3713.9518
22658.3
18581.077
15624.714
13242.318
10821.73
8710.5075
7517.2664
6278.9362
5646.3295
5087.9229
4606.7811
4353.6551
4187.9488
4012.498
3870.4524
3775.4562
3726.1863
3693.5809
3668.7587
3651.001
3636.685
3629.8395
3625.3995
3620.335
3613.8036
3609.2621
3610.5163
3613.5095
3614.4446
3613.4212
3723.9328
21480.151
17690.486
15316.101
12794.239
10294.534
8541.491
7420.0648
6189.6441
5489.7732
5007.1022
4570.4537
4338.1169
4182.7496
4003.8847
3861.9781
3774.0689
3726.8258
3698.7031
3675.3396
3660.707
3645.2142
3638.3687
3633.681
3628.7121
3622.2916
3617.6445
3618.9418
3621.9674
3622.9813
3621.9973
3733.1814
20086.818
16544.694
14252.412
12217.798
10014.804
8334.1175
7162.5734
6099.372
5410.6295
4886.1783
4520.8016
4316.4351
4181.8674
3991.6141
3859.5355
3772.8954
3728.2582
3703.9294
3682.8555
3665.7297
3653.2796
3645.7927
3641.2584
3636.4714
3630.3552
3625.841
3627.2967
3630.4713
3631.536
3630.6258
3742.128
19649.526
16380.666
14039.74
11586.327
9406.5393
8026.129
6838.5495
5991.4706
5388.6502
4842.2368
4507.4344
4312.7369
4177.234
3989.7836
3854.5999
3774.2438
3731.7254
3709.0709
3689.703
3675.8918
3661.638
3654.7799
3649.7836
3645.0184
3638.916
3634.3605
3635.7924
3639.015
3640.1158
3639.3246
3751.409
18222.517
15534.055
13687.924
11460.369
9331.7935
7921.1615
6569.1074
5782.5491
5325.6056
4751.9308
4475.6725
4307.2481
4169.6713
3988.251
3853.6481
3778.0398
3735.8895
3715.0196
3698.1107
3681.4397
3670.063
3662.411
3657.2942
3652.8058
3647.1107
3642.6818
3644.221
3647.5738
3648.7209
3648.1114
3759.9842
17596.566
14679.402
13165.502
11033.198
9203.0826
7931.6151
6531.6782
5740.0441
5253.4341
4725.0857
4464.0337
4306.6939
4160.9451
3988.3135
3855.3002
3785.5958
3741.2886
3720.4341
3706.1496
3691.5851
3678.6067
3671.8981
3665.7375
3661.3565
3655.6262
3651.2812
3652.7868
3656.1479
3657.3602
3656.9967
3768.609
17514.199
14408.342
12774.333
10546.201
8692.0278
7716.8817
6458.7275
5735.9958
5224.0176
4682.217
4431.3125
4301.4844
4153.5353
3988.7251
3858.4899
3790.9142
3746.6595
3727.6741
3713.6639
3697.4579
3686.7242
3679.5997
3673.5575
3669.1923
3663.8711
3659.6566
3661.2917
3664.7209
3666.048
3665.9993
3777.7466
16317.199
13881.311
12638.476
10508.112
8567.0062
7458.5477
6294.5253
5671.8135
5220.7659
4675.8522
4424.9407
4299.4672
4146.319
3989.192
3867.8423
3802.3654
3754.9178
3735.2514
3722.1699
3707.5758
3695.9561
3689.1439
3681.9283
3677.7067
3672.3239
3668.2416
3669.892
3673.3104
3674.7734
3675.0767
3786.2809
15742.39
13230.466
12082.351
10317.046
8575.8496
7457.559
6258.9212
5615.2202
5175.2914
4662.1969
4423.3672
4295.5485
4137.4083
3988.3062
3873.9044
3810.349
3762.6752
3741.9989
3728.6321
3713.8608
3703.403
3696.658
3690.1252
3685.5264
3680.5428
3676.5706
3678.3611
3681.8786
3683.4944
3684.1085
3795.0643
15713.056
13029.244
11810.942
10058.905
8470.1278
7406.3111
6273.572
5624.5166
5147.1638
4667.381
4424.8384
4298.7988
4135.4083
3989.1026
3883.8202
3824.2549
3772.9982
3749.5718
3738.2088
3723.869
3712.6235
3705.8792
3698.3798
3693.9571
3688.9123
3685.0634
3686.87
3690.4052
3692.2024
3692.9808
3803.9178
14914.893
12785.23
11616.314
9930.3913
8434.0638
7364.247
6274.4642
5624.9262
5138.5333
4670.2067
4429.0964
4299.318
4134.7229
3983.6155
3889.3589
3834.0001
3782.4404
3755.7669
3743.8725
3730.4376
3719.3402
3713.3026
3706.7417
3701.739
3697.0568
3693.2561
3695.2055
3698.8429
3700.8339
3701.5715
3812.951
14338.702
12324.631
11454.5
9934.413
8469.4681
7390.4828
6284.0861
5622.795
5109.9964
4676.4218
4435.5358
4295.4567
4138.0308
3981.308
3895.1913
3843.6869
3796.6773
3765.416
3751.9776
3740.2386
3728.3553
3721.8961
3714.8582
3710.0517
3705.2824
3701.5783
3703.5216
3707.2062
3709.4168
3709.7652
3822.5837
13687.218
11917.783
10941.889
9665.0278
8501.0136
7395.2182
6292.5397
5632.8482
5116.621
4682.3892
4442.0215
4298.5925
4140.9743
3976.1315
3897.626
3850.4156
3807.4977
3770.3805
3755.9106
3746.0101
3734.8984
3728.8627
3723.0723
3717.7203
3713.2638
3709.6126
3711.6461
3715.4741
3717.9645
3717.702
3831.1767
13281.966
11657.914
10839.387
9601.6581
8516.7477
7431.6402
6320.779
5647.054
5115.6326
4686.8073
4445.5219
4301.2602
4146.8907
3976.5975
3897.6058
3852.9832
3821.5715
3778.9863
3761.9085
3753.0171
3742.2027
3736.3014
3730.4993
3725.6395
3721.2629
3717.6851
3719.7093
3723.5769
3726.5199
3725.622
3839.628
12579.156
10972.208
10160.199
9205.4034
8512.5023
7479.8164
6369.7936
5674.5724
5136.596
4688.8003
4443.0693
4296.3328
4152.3854
3977.0006
3890.4898
3852.9699
3827.6281
3783.2235
3764.6693
3756.3322
3746.2488
3741.1058
3737.0321
3732.251
3728.5348
3725.2703
3727.5239
3731.6908
3735.0853
3733.9595
3848.0664
178067.19
147470.55
83238.461
47902.731
30202.292
21054.872
15607.44
11801.036
9174.4315
7308.1358
6161.8614
5332.4868
4713.8963
4292.3352
4025.2492
3865.3649
3751.0757
3673.2549
3624.8626
3592.8339
3571.0019
3561.5408
3553.9791
3547.682
3540.3099
3534.7497
3533.9929
3535.6017
3535.2549
3534.2582
3641.325
176839.77
141882.15
80110.425
46298.696
29453.719
20719.541
15420.939
11748.885
9128.2353
7288.3107
6156.1209
5331.5687
4724.4045
4293.1634
4029.0539
3865.2834
3748.6173
3668.1265
3619.1586
3587.4552
3565.7425
3556.1844
3548.3665
3542.0904
3534.8378
3529.3411
3528.5179
3530.0756
3529.6873
3528.483
3636.2575
173898.04
132613.8
75321.628
44260.024
28590.038
20310.621
15241.23
11630.294
9070.7432
7271.7756
6146.2838
5329.8982
4734.6616
4293.1708
4033.6221
3865.0736
3745.9449
3664.7645
3614.3381
3582.0926
3560.0444
3550.3439
3542.4705
3536.0916
3528.9906
3523.5316
3522.6473
3524.1947
3523.7469
3522.3128
3631.0798
169744.66
128678.75
72439.393
42711.533
27822.78
19917.683
15004.366
11548.934
9033.6289
7248.8014
6138.9789
5330.4557
4744.7446
4294.4251
4038.9305
3864.1908
3741.5856
3658.9155
3608.5587
3576.1436
3554.292
3544.1356
3536.285
3529.8059
3522.7558
3517.4008
3516.4044
3517.8798
3517.3993
3515.7212
3624.0473
164689.78
120322.35
67754.794
40575.652
26806.103
19391.315
14756.009
11364.211
8942.5297
7213.8101
6124.3275
5337.1031
4753.2066
4300.7155
4042.782
3862.4518
3737.5723
3655.0347
3603.4375
3570.2219
3548.047
3537.6706
3529.4476
3522.9301
3516.133
3510.7594
3509.6772
3511.1387
3510.5997
3508.6826
3616.31
159538.69
115100.97
63819.439
38708.194
25960.546
18990.51
14432.247
11259.199
8873.4487
7186.3158
6112.7148
5344.9889
4759.9733
4312.7231
4043.8946
3856.9436
3732.3971
3647.9128
3597.1013
3563.4472
3541.5838
3530.6277
3522.3977
3515.8725
3508.9938
3503.7334
3502.5323
3503.9129
3503.3506
3501.1613
3609.3923
153627.81
112113.66
61004.552
36973.9
24914.297
18279.526
14117.3
11064.67
8766.0416
7162.8827
6104.1638
5347.65
4763.8546
4322.117
4044.0954
3854.6925
3729.1651
3641.6942
3589.8047
3556.5084
3534.5023
3523.1421
3514.6261
3508.0981
3501.4745
3496.1618
3494.8696
3496.1953
3495.5825
3493.1318
3600.7457
146939.65
103455.33
55330.623
34391.739
23715.75
17863.96
13745.807
10881.919
8672.5858
7143.2022
6085.504
5346.9287
4762.0128
4324.8014
4042.8442
3852.4548
3723.3489
3633.8538
3582.1167
3548.2452
3526.798
3515.06
3506.5303
3500.0279
3493.4085
3488.1742
3486.711
3487.9423
3487.3115
3484.5668
3590.7654
139353.56
96361.062
51447.743
32468.685
22755.256
17126.825
13293.048
10679.047
8587.1378
7091.6718
6071.3968
5336.9788
4759.6473
4324.6083
4041.065
3849.2248
3713.376
3624.6926
3572.3338
3539.7618
3518.5136
3506.5322
3497.7039
3491.2058
3484.9095
3479.6236
3477.964
3479.1651
3478.4602
3475.4324
3582.2123
131178.74
83892.841
46019.325
29729.508
21236.157
16320.943
12991.072
10441.74
8440.849
7060.0787
6032.1553
5324.3801
4747.7103
4322.0406
4036.8889
3841.0593
3703.3458
3616.2858
3564.063
3529.8713
3509.7203
3497.2943
3488.2988
3482.0161
3475.9012
3470.6101
3468.7048
3469.7877
3469.0543
3465.7049
3572.3472
119566.16
67797.407
39377.318
26705.955
19968.836
15828.35
12462.17
10194.613
8364.7373
6972.6416
5996.8641
5290.9745
4735.8818
4317.7617
4025.3717
3825.2354
3691.3412
3604.9358
3553.6574
3519.514
3500.1577
3487.4612
3478.2173
3472.0082
3466.2434
3460.999
3458.7957
3459.8517
3459.0353
3455.352
3561.7866
101252.67
54989.398
34389.51
24520.79
18820.903
14857.127
12055.555
9932.141
8201.6121
6902.7111
5963.7885
5247.2805
4726.1147
4305.1765
4013.3661
3815.8206
3680.8331
3597.6567
3544.986
3507.8575
3489.9043
3476.7512
3467.4652
3461.4922
3456.2006
3450.7847
3448.3465
3449.2747
3448.4034
3444.3577
3548.865
72347.47
41817.168
28614.021
21653.462
17223.583
14202.39
11547.419
9616.8541
7994.8459
6792.1448
5878.7434
5207.3504
4699.3571
4292.6401
3993.8941
3802.0514
3672.2075
3586.3868
3534.2308
3496.1205
3478.7529
3465.2722
3456.1939
3450.2696
3445.4084
3439.8727
3437.2186
3438.0661
3437.0635
3432.8971
3535.5665
46918.327
30668.115
23579.71
19119.447
16013.272
13197.928
10960.175
9164.6042
7855.9832
6645.4942
5844.167
5163.0738
4689.1707
4278.6204
3988.1574
3793.3212
3663.878
3575.9528
3521.7133
3482.8386
3466.5924
3452.974
3444.0344
3438.2958
3434.1349
3428.2553
3425.4176
3426.1206
3425.0131
3421.7744
3522.9379
32867.539
24075.782
20417.967
17415.846
14702.2
12494.344
10328.446
8819.8434
7513.8994
6587.2156
5743.3454
5141.4673
4661.8205
4270.8118
3981.0898
3788.9317
3658.6314
3567.7677
3509.8059
3469.6081
3453.3529
3439.8129
3431.5166
3425.8332
3421.8539
3415.8484
3412.7994
3413.4223
3412.1774
3412.4511
3506.8761
24685.764
20178.946
18204.87
15439.959
13685.809
11247.508
9714.1767
8478.6862
7354.4872
6507.5758
5687.8003
5132.8692
4647.7409
4269.7786
3975.2502
3780.7079
3647.4241
3553.5803
3493.6429
3454.9723
3438.8721
3425.9845
3418.1606
3412.6547
3409.1278
3402.5148
3399.3274
3399.8672
3398.56
3394.2413
3492.0537
20343.98
17466.14
16173.439
13656.314
12241.12
10429.847
9288.0164
8272.6514
7231.1471
6376.8879
5633.3412
5096.3363
4645.711
4267.1692
3973.9407
3775.69
3634.0361
3540.6763
3477.0803
3439.3418
3423.5839
3411.8521
3404.6554
3399.1318
3395.3975
3388.3118
3384.9495
3385.4766
3384.0457
3382.7505
3475.9998
16798.084
14994.937
14096.154
12271.236
11341.077
9913.4737
8997.916
7917.0608
6888.554
6266.4809
5565.3671
5078.4757
4640.9562
4254.2588
3970.0735
3766.6399
3622.8489
3527.5424
3460.6387
3423.3442
3406.8864
3396.5402
3390.4186
3384.7178
3380.7508
3373.2443
3369.7156
3370.2337
3368.669
3373.6412
3460.2711
13698.508
12615.501
12145.525
10880.222
10360.162
9139.178
8665.7502
7479.5497
6897.3504
6205.3878
5563.4875
5061.5455
4612.1076
4222.4061
3961.3531
3746.4991
3598.6697
3503.7679
3440.5174
3405.5752
3390.5998
3381.2573
3375.6552
3369.6592
3365.2457
3357.3231
3353.6428
3353.9934
3352.2788
3352.5504
3441.1499
11723.749
11065.08
10644.725
9701.532
9202.0759
8356.3959
7801.2234
7187.3983
6919.7736
6003.5193
5515.1935
4984.2488
4529.9859
4187.5388
3936.1401
3728.9206
3578.7138
3483.9649
3422.3738
3388.2457
3373.2482
3364.7707
3359.3256
3353.0928
3348.1557
3340.3316
3336.5349
3336.7909
3335.0429
3337.3666
3424.8829
10774.4
10379.49
9820.8566
9214.0721
8744.8805
8053.2721
7528.069
7059.7959
6846.3056
5853.9064
5496.5308
4948.7188
4528.3411
4179.0104
3926.4331
3718.5312
3566.9217
3470.3693
3405.768
3372.2271
3356.8254
3348.3271
3342.649
3336.0093
3330.5441
3322.4562
3318.5025
3318.589
3316.7651
3318.866
3402.0421
10571.608
10320.173
9701.8941
9206.1412
8752.0836
8081.8614
7589.532
7175.4378
6793.8884
5871.2055
5509.6535
4932.834
4524.631
4162.5462
3902.8923
3691.4405
3537.892
3443.6111
3385.3994
3354.745
3338.8428
3330.3108
3324.113
3316.5973
3311.158
3303.2015
3299.219
3299.3659
3297.5186
3298.0743
3380.9957
10801.886
10461.572
9792.4152
9345.5225
8822.8241
8213.9443
7817.9424
7240.2919
6597.3803
5863.4064
5484.4651
4853.6755
4497.961
4136.4242
3868.0128
3646.5217
3509.8519
3423.3361
3366.1308
3337.0539
3320.0388
3311.0355
3304.0527
3296.0066
3291.0615
3283.1718
3278.9063
3278.9038
3277.0994
3277.4925
3361.8955
12063.359
11767.212
10750.45
10066.118
9231.4396
8615.7518
8141.1666
7444.0178
6616.6797
5910.6443
5532.3754
4866.0936
4536.5139
4161.9923
3878.4851
3641.5041
3501.1056
3406.833
3346.5098
3316.2147
3298.802
3289.7759
3282.6794
3274.2244
3269.885
3261.825
3257.2606
3257.1523
3255.4959
3255.8263
3339.0812
17020.905
16667.705
14093.076
12669.725
11089.843
10096.634
9205.8151
8201.9385
7115.7016
6418.0012
6001.4818
5174.6032
4748.0917
4273.0749
3901.2754
3640.1391
3483.2096
3376.5432
3320.063
3290.5181
3275.8067
3267.4654
3259.8796
3251.7611
3247.882
3239.5709
3234.6353
3234.2123
3232.6258
3232.3837
3314.4288
23462.793
22743.744
21513.188
20008.984
17618.374
15252.683
12668.25
10309.371
8481.7087
7168.1027
6464.5142
5505.3406
4842.1411
4280.9435
3888.2236
3621.8048
3450.9944
3349.0049
3293.4012
3264.6772
3250.567
3242.9256
3235.3353
3228.4085
3224.1584
3215.7687
3210.5719
3209.9202
3208.461
3208.7838
3288.0186
24161.25
23654.544
23155.804
22608.103
21799.755
20638.019
18941.11
16342.473
12552.591
8723.1998
6954.3757
5668.8287
4867.3685
4257.6157
3821.6147
3553.1096
3395.8614
3316.8194
3264.3294
3238.7472
3223.3111
3215.6833
3209.0278
3203.3202
3198.7897
3190.5569
3185.4008
3184.4657
3182.9924
3184.2285
3261.6768
22094.764
22106.234
22188.444
22085.718
21905.384
21680.057
21259.781
20318.862
18444.065
14277.591
8551.6311
6143.6403
4977.5718
4261.779
3776.5886
3508.5847
3361.7692
3281.9883
3235.2509
3209.382
3194.9343
3187.1935
3181.1922
3176.1073
3171.7459
3163.7539
3158.6973
3157.5752
3156.1446
3157.1269
3233.3727
18716.655
18789.389
18887.049
19235.36
19611.109
20180.7
20717.461
20892.541
20519.101
19191.754
14800.761
8064.3397
5543.1983
4405.2732
3829.7386
3526.9646
3364.9366
3268.3153
3217.5104
3185.0784
3167.1161
3157.9005
3152.6367
3147.6746
3143.4133
3135.6357
3130.7278
3129.4177
3128.0859
3127.521
3202.5962
16771.335
16753.285
16788.163
16898.943
17043.749
17453.574
18084.477
19057.903
19783.617
19306.711
18071.161
14333.835
8808.9283
5553.8959
4183.5086
3643.6626
3392.2996
3264.0841
3195.4246
3153.9972
3137.6191
3129.2173
3124.0374
3117.8579
3113.3315
3105.8373
3101.0776
3099.6762
3098.4521
3098.7849
3169.4156
15977.074
15975.217
15895.024
15872.239
15962.777
16142.111
16278.587
16592.711
17140.183
18238.398
18067.819
16454.943
11004.719
6435.046
4435.5957
3700.1014
3394.4646
3245.6032
3160.8986
3125.7533
3108.4586
3100.8324
3093.9429
3086.3823
3082.0721
3074.7231
3069.8959
3068.5067
3067.3629
3067.9491
3133.9982
15607.337
15610.2
15608.907
15594.232
15614.661
15678.664
15787.898
16088.581
16806.799
17954.993
17671.572
15938.618
10357.464
6142.9714
4326.921
3636.2876
3350.3553
3203.9917
3141.2476
3104.9713
3080.4903
3070.2494
3061.6765
3054.2347
3049.6878
3041.7916
3036.9049
3035.5279
3034.147
3036.8708
3098.8107
15354.908
15388.424
15380.333
15373.849
15396.361
15446.149
15599.263
15923.381
16489.188
17069.914
16307.759
12859.661
7970.0154
5227.6998
3996.0535
3507.3636
3285.0747
3179.3348
3116.3239
3074.8892
3049.8479
3037.3085
3028.1819
3020.1269
3014.9339
3007.0269
3002.4418
3001.1738
2999.6383
3002.3962
3059.6053
14752.007
14749.651
14735.341
14719.705
14720.888
14729.027
14807.882
14951.402
15045.64
13943.87
11502.553
8171.9368
5772.4061
4434.3053
3746.0387
3426.0337
3251.3502
3146.5594
3079.1107
3046.6524
3018.2282
3002.805
2993.1502
2983.9556
2978.694
2971.3232
2966.7536
2965.2829
2963.6402
2966.0591
3020.6539
12744.012
12626.284
12600.052
12488.84
12368.591
12142.467
11768.681
11115.044
9881.0143
8361.8559
6988.5439
5554.9779
4670.1594
4005.8652
3651.835
3382.7779
3235.4884
3126.157
3058.5312
3010.4768
2979.9567
2963.6697
2953.5924
2944.8671
2940.4875
2934.1304
2929.7099
2928.1718
2926.1081
2927.643
2979.3289
11010.176
10825.032
10639.711
10373.649
10138.087
9592.6806
9108.1182
8335.7361
7473.7516
6719.4648
5913.1399
5040.44
4523.2464
3964.3297
3659.5156
3386.3699
3214.2033
3101.3982
3024.9635
2967.3286
2938.8912
2922.9673
2912.3648
2904.9313
2901.6677
2895.9117
2891.4044
2889.5731
2886.9858
2888.0916
2936.066
11703.691
11558.949
11311.217
11049.054
10774.447
10311.602
9782.2768
9061.0356
8188.2652
7379.4684
6522.0561
5564.3092
4832.7908
4161.1142
3746.2484
3419.3675
3210.9403
3050.1803
2964.6168
2919.4598
2894.036
2880.3302
2870.912
2864.1747
2861.3033
2855.7791
2851.2785
2849.0982
2846.2596
2845.6314
2892.6889
11816.352
11772.472
11714.028
11643.829
11535.697
11361.163
11126.908
10804.657
10348.025
9797.6076
9100.8938
8051.6953
6736.2484
5344.6569
4300.733
3634.744
3247.5532
3033.5837
2934.1185
2880.3337
2851.7669
2838.339
2830.1486
2822.4565
2819.3569
2813.969
2809.5641
2807.4637
2804.7062
2803.0487
2849.0378
11269.936
11220.443
11177.627
11155.731
11124.067
11087.153
11029.907
10916.007
10783.38
10595.554
10341.739
9979.8083
9394.8067
7982.1224
5689.8665
4091.1
3326.7755
3027.5528
2906.8317
2838.6398
2808.5584
2794.5129
2786.3158
2778.4165
2775.2871
2769.7344
2765.5594
2763.6565
2761.2329
2760.5926
2803.1027
9889.6456
9979.1569
10094.625
10208.284
10374.407
10579.853
10724.49
10788.942
10749.548
10670.627
10547.514
10327.566
9765.4102
8162.9983
5722.5337
4063.992
3301.5184
3001.2211
2854.1886
2783.6944
2759.1295
2747.3848
2739.7736
2732.4966
2729.6217
2723.8505
2720.0814
2718.7332