/*--------------------------------*- C++ -*----------------------------------*\
| =========                 |                                                 |
| \\      /  F ield         | OpenFOAM: The Open Source CFD Toolbox           |
|  \\    /   O peration     | Version:  2406                                  |
|   \\  /    A nd           | Website:  www.openfoam.com                      |
|    \\/     M anipulation  |                                                 |
\*---------------------------------------------------------------------------*/
FoamFile
{
    version     2.0;
    format      ascii;
    arch        "LSB;label=32;scalar=64";
    class       volScalarField;
    location    "0.045";
    object      alphat;
}
// * * * * * * * * * * * * * * * * * * * * * * * * * * * * * * * * * * * * * //

dimensions      [1 -1 -1 0 0 0 0];

internalField   nonuniform List<scalar> 
35803
(
0.045332079
0.049812534
0.055067366
0.06104229
0.067732522
0.075110681
0.083111555
0.091628414
0.10049821
0.10944296
0.1179952
0.12545379
0.13075302
0.13233135
0.12794203
0.11468962
0.089485379
0.05310249
0.023484146
0.011449203
0.0085451728
0.0073818589
0.0066768321
0.0060080442
0.0055629342
0.0053635445
0.0052487667
0.0051214945
0.0050495105
0.0049080138
0.0048496346
0.051117011
0.055645397
0.060752735
0.066501339
0.072918662
0.079989118
0.087652256
0.095799541
0.10426402
0.11275978
0.12081514
0.12770656
0.13235116
0.13316556
0.12788982
0.11363882
0.087517672
0.050954456
0.021943125
0.01115634
0.0084451953
0.0073333271
0.0066445248
0.0059881244
0.0055519653
0.0053584545
0.005244499
0.0051194885
0.0050485499
0.00490763
0.0048497823
0.057898529
0.062309484
0.067235708
0.072738548
0.078853732
0.085574133
0.092846227
0.10056361
0.10854977
0.1165124
0.12397188
0.13019065
0.13406291
0.13398169
0.12767429
0.11227139
0.085085181
0.048308294
0.02052275
0.010822943
0.0083901753
0.0073057827
0.006624892
0.0059772055
0.0055441932
0.0053541412
0.0052407716
0.0051180386
0.0050480046
0.0049074669
0.004849956
0.065824663
0.070002159
0.074668107
0.0798668
0.085627002
0.091940715
0.098755849
0.10596559
0.11338718
0.12072016
0.12747463
0.13289505
0.1358538
0.13471843
0.12720432
0.11046587
0.082058183
0.045114378
0.019118378
0.01051155
0.0083065798
0.007260411
0.0065931839
0.0059580547
0.0055305247
0.005345947
0.005235558
0.0051158561
0.0050469338
0.0049071913
0.0048501697
0.074985328
0.078853644
0.083180767
0.08800038
0.093333271
0.099166091
0.10544323
0.11205399
0.11880845
0.12539538
0.13131234
0.13578434
0.13766107
0.13528301
0.12635571
0.10806744
0.078279715
0.041346913
0.017689477
0.010189655
0.0082256547
0.0072162505
0.0065626744
0.0059370371
0.0055154681
0.0053364835
0.0052301647
0.005113768
0.0050459063
0.0049069043
0.0048504417
0.085420451
0.088909651
0.092829864
0.097194944
0.10201937
0.1072839
0.11292714
0.11883161
0.12479761
0.13050038
0.13542226
0.13876827
0.13936361
0.13552105
0.12494128
0.10486108
0.073551917
0.037022151
0.016233575
0.0098706448
0.0081303485
0.0071611607
0.006524491
0.0059089779
0.0055001575
0.0053277823
0.0052234781
0.0051112238
0.005044513
0.004906515
0.004850799
0.097088972
0.10012565
0.10357961
0.10741833
0.11165048
0.11625101
0.12115183
0.12622665
0.13126355
0.13592164
0.1396651
0.14167739
0.14075775
0.13519221
0.12268679
0.10055058
0.067633522
0.032211132
0.014778952
0.009582332
0.0080291179
0.0071016133
0.006483826
0.005883334
0.0054874811
0.0053204074
0.0052164202
0.0051086261
0.0050431623
0.0049060462
0.0048512425
0.10978702
0.11233956
0.11526221
0.1185025
0.12205772
0.12589432
0.12993554
0.1340441
0.13799357
0.14142452
0.1437799
0.14421929
0.14151496
0.13392973
0.11919358
0.094732508
0.060254806
0.027082441
0.013370823
0.0093053912
0.0079132539
0.007031433
0.006436084
0.0058576865
0.0054769702
0.0053117845
0.0052083759
0.0051054951
0.0050416545
0.0049054208
0.0048517057
0.12312018
0.12515698
0.12749305
0.1300658
0.13286023
0.13583135
0.13889064
0.14188695
0.14457657
0.14657881
0.14731216
0.14590948
0.14111619
0.13117979
0.11388454
0.086869689
0.05119199
0.022717201
0.012089681
0.0090343547
0.0077854821
0.0069537515
0.0063844223
0.0058282118
0.005467162
0.005302145
0.0052002922
0.0051019018
0.0050400117
0.0049046138
0.004852335
0.13638163
0.13786669
0.13956262
0.14139995
0.14334984
0.1453531
0.14730576
0.14903899
0.15028808
0.1506473
0.14950676
0.14596944
0.13875622
0.12611645
0.10594293
0.076266506
0.040453799
0.018659703
0.010939876
0.0087696284
0.0076391235
0.0068641164
0.0063254034
0.0057896973
0.0054505727
0.005289696
0.0051924927
0.0050974988
0.0050376828
0.0049035354
0.0048531304
0.14832423
0.14922942
0.15023511
0.1512734
0.15230107
0.15324074
0.15396829
0.15429276
0.15392367
0.15242541
0.14915468
0.14318131
0.13320925
0.11752812
0.094234694
0.062123725
0.029077371
0.015023839
0.0099702971
0.0085091128
0.0074750171
0.006764491
0.0062608023
0.0057472479
0.0054309012
0.0052755909
0.0051860028
0.0050925977
0.0050350305
0.0049021521
0.0048541201
0.15687619
0.15721141
0.15750342
0.1576937
0.15773256
0.15752574
0.15692584
0.1557146
0.15357
0.15002065
0.14438348
0.13569017
0.12265061
0.10368871
0.077255823
0.043930278
0.021267061
0.012298935
0.0093352692
0.0082448094
0.0072880671
0.0066509039
0.0061879567
0.0057076958
0.0054111846
0.0052594992
0.0051814467
0.005087365
0.0050324752
0.0049004199
0.0048551993
0.15883552
0.1585598
0.15811928
0.1574596
0.15649591
0.15510957
0.15313008
0.15030849
0.14628767
0.14055745
0.13238534
0.12074936
0.10444586
0.082297192
0.053296024
0.026922959
0.015128355
0.010398624
0.0089905074
0.0079633848
0.0070827674
0.0065254358
0.0061103791
0.005659377
0.0053875176
0.0052419496
0.0051771297
0.0050824326
0.005029406
0.0048983256
0.0048564386
0.14911408
0.14823712
0.14707699
0.14558736
0.14366698
0.14116392
0.13786917
0.13349532
0.12765016
0.11978986
0.10909324
0.094381869
0.074960434
0.051098982
0.030469548
0.017208935
0.011398355
0.0096086085
0.0084623918
0.0076667415
0.0068526905
0.0063847408
0.0060298148
0.0056096459
0.0053588666
0.0052220828
0.0051702323
0.0050740351
0.0050225974
0.0048958903
0.0048577142
0.12011578
0.1187786
0.11707189
0.1149328
0.11223278
0.10880015
0.10440304
0.098735425
0.091420242
0.082032322
0.070466003
0.05725924
0.042572363
0.028278236
0.017390846
0.011644456
0.0097128009
0.008993566
0.0081534122
0.0073366302
0.0066098424
0.0062432646
0.0059460816
0.0055662981
0.005327846
0.0052002318
0.0051597954
0.0050629095
0.0050143316
0.004893098
0.0048590446
0.076433024
0.075203599
0.073707047
0.071901631
0.069652493
0.066797942
0.06321011
0.058728589
0.053192042
0.046463204
0.038605521
0.030166234
0.022259663
0.015540606
0.011302057
0.0094582478
0.0090251263
0.0083060452
0.0075088348
0.0069703659
0.0063629132
0.0060983929
0.0058578038
0.0055100445
0.0052903047
0.0051751406
0.0051412111
0.0050494263
0.0050037823
0.004890541
0.0048603356
0.038978949
0.03842581
0.037680738
0.036720153
0.035490528
0.033920384
0.031996555
0.029605116
0.026691376
0.023275576
0.019508584
0.015664636
0.012438809
0.0099746685
0.0089450533
0.0086319938
0.008053999
0.0075821611
0.0071831756
0.006606414
0.006123855
0.0059568125
0.0057654942
0.0054623778
0.0052506415
0.0051479311
0.0051188765
0.005033624
0.004992149
0.0048900488
0.0048614566
0.018532631
0.018410285
0.018158559
0.0177714
0.017249558
0.016586036
0.015798382
0.01483897
0.013689779
0.012390763
0.010953889
0.0095229937
0.0085842423
0.0080705766
0.0081370029
0.007583246
0.0074267841
0.0070832902
0.0065915174
0.0062222771
0.0059321389
0.0057895931
0.0056644502
0.0054139809
0.0052114073
0.005119549
0.0051060225
0.0050151319
0.0049783251
0.0048897599
0.004862369
0.010069988
0.010049254
0.0099868573
0.0098788966
0.009726973
0.0095230994
0.00925775
0.008961488
0.0086368425
0.0082982339
0.0079152248
0.0076313178
0.0075069187
0.0073921821
0.0071172521
0.0069397699
0.0066951296
0.0064380227
0.0063100845
0.006019783
0.0057389651
0.0056185964
0.0055896012
0.0053614087
0.0051671383
0.0050881137
0.0050888447
0.0049979827
0.0049646477
0.0048899117
0.0048631557
0.0071695254
0.0071579071
0.0071478623
0.0071416793
0.0071398433
0.0071382668
0.0071027091
0.0070370527
0.0069807937
0.0069188563
0.006819008
0.0066767179
0.006636057
0.0065476438
0.0064721339
0.0063009075
0.006211331
0.0060635195
0.005910465
0.0057480431
0.0055437373
0.0054982005
0.0054998472
0.0053093729
0.0051172234
0.0050583015
0.005051294
0.0049780197
0.0049501912
0.0048903823
0.0048643133
0.0064797721
0.0064686408
0.0064576375
0.0064387216
0.006411722
0.0063940133
0.0063877626
0.0063871923
0.0063748078
0.0063325546
0.0062811903
0.0062449013
0.0061098203
0.0060953171
0.0059364165
0.0059299093
0.0058122177
0.0057054084
0.0056998397
0.0055433082
0.005423694
0.0053440763
0.0054097612
0.0052454339
0.0050729888
0.0050324285
0.0050209748
0.0049632355
0.004938683
0.0048903563
0.0048666533
0.0058723361
0.0058594384
0.0058472343
0.005841202
0.0058429673
0.0058363657
0.0058251039
0.0058119045
0.0057984955
0.0057830056
0.0057575603
0.0057622102
0.0057657321
0.0056647797
0.005654474
0.0055552404
0.0056064594
0.0054954892
0.0053789176
0.0053197021
0.0052565598
0.0052364941
0.0053540539
0.0051740194
0.005019575
0.0050067972
0.0050027113
0.0049520353
0.0049276552
0.0048892806
0.0048682589
0.0055135088
0.0055171363
0.0055225532
0.0055263786
0.0055244123
0.0055242849
0.0055251306
0.0055242939
0.0055183502
0.0055009848
0.0054642331
0.0054219139
0.0054043348
0.0053913306
0.0053966719
0.0053547885
0.0052945272
0.005282692
0.0052203867
0.0051968314
0.0051638195
0.0051373715
0.005229027
0.0051235154
0.004977308
0.0049821791
0.0049698651
0.0049367607
0.0049190312
0.0048885806
0.0048604883
0.0052542049
0.0052496946
0.0052434024
0.0052369256
0.0052341395
0.0052298204
0.0052247871
0.0052201321
0.0052161127
0.0052125358
0.0052091084
0.005210626
0.0052056153
0.0052004296
0.0051667955
0.0051722903
0.0051313678
0.005158862
0.0050672982
0.0050591378
0.005033809
0.0050729701
0.0051276627
0.0050630049
0.0049463485
0.0049537106
0.0049406532
0.0049197522
0.004909497
0.0048853546
0.0048618417
0.0050817579
0.005081329
0.0050804172
0.0050792579
0.0050787888
0.0050793829
0.0050814966
0.0050848897
0.0050867827
0.0050846121
0.0050759216
0.0050620228
0.0050518783
0.0050430921
0.0050373388
0.0050323956
0.0050182649
0.0050106671
0.0049581095
0.0049547283
0.0049498645
0.0049988555
0.0050687179
0.0050193817
0.0049245
0.0049199481
0.0049166552
0.0049056397
0.0049023394
0.0048815555
0.0048615606
0.0049854786
0.0049851514
0.0049843454
0.0049831741
0.0049821204
0.0049812769
0.0049805279
0.0049799439
0.0049790797
0.0049788267
0.0049787013
0.0049778762
0.0049778389
0.0049784175
0.0049735068
0.0049752924
0.00496859
0.0049540138
0.0049278801
0.0049190757
0.0049159157
0.0049418268
0.0050391746
0.0049670406
0.0049078875
0.0048989978
0.0049010587
0.0048916409
0.0048963576
0.0048802358
0.004865316
0.0049258841
0.0049259378
0.0049258035
0.0049255061
0.0049252922
0.0049253161
0.0049257791
0.0049271875
0.0049298477
0.004932403
0.0049322735
0.0049284017
0.00492338
0.004920618
0.0049213481
0.0049213022
0.0049234373
0.0049223092
0.0049204358
0.0049031741
0.0048977086
0.0049127139
0.0049858346
0.0049387762
0.0048958829
0.0048878246
0.0048911141
0.0048835574
0.0048880693
0.0048769069
0.0048674541
0.0048983822
0.0048983688
0.0048981631
0.004897823
0.0048974925
0.0048971947
0.0048968897
0.0048964896
0.004896538
0.0048966671
0.004896416
0.0048959519
0.0048954872
0.0048960604
0.004897081
0.0048979764
0.0048976602
0.0048965483
0.0048942511
0.0048856773
0.0048869276
0.0048953687
0.004917839
0.0049213279
0.0048887069
0.0048826912
0.0048842312
0.0048783303
0.0048811892
0.0048734812
0.0048679033
0.0048850627
0.0048850422
0.0048849674
0.0048848626
0.0048847736
0.004884694
0.0048845786
0.0048844219
0.0048842585
0.0048840737
0.0048840771
0.0048845872
0.0048850627
0.0048853443
0.0048861404
0.0048866792
0.0048869223
0.0048847486
0.0048832892
0.0048814916
0.0048826717
0.004891333
0.004893144
0.004905723
0.004882689
0.0048799746
0.0048789827
0.004875777
0.0048745717
0.0048729802
0.0048683113
0.0048786656
0.0048785934
0.0048785181
0.004878458
0.0048784484
0.0048785221
0.0048787004
0.0048789643
0.0048792562
0.0048795214
0.0048797334
0.004879879
0.0048799744
0.0048801192
0.0048805066
0.0048813166
0.0048812497
0.0048798582
0.0048795683
0.0048789124
0.004881457
0.0048930125
0.0048834847
0.0048900422
0.0048789401
0.0048743488
0.004874996
0.0048715742
0.0048721078
0.0048717246
0.0048684896
0.0048782672
0.0048782255
0.0048781639
0.0048780724
0.0048779519
0.0048778116
0.0048776735
0.0048775552
0.004877458
0.0048773681
0.0048772671
0.0048771441
0.004876995
0.0048768034
0.0048765167
0.0048757994
0.0048749072
0.0048747098
0.0048746875
0.0048760083
0.0048797727
0.0048848578
0.0048761159
0.0048763634
0.0048730181
0.0048729925
0.0048724037
0.0048713383
0.0048712238
0.0048712917
0.0048694065
0.0025361128
0.002286402
0.0023593433
0.0028745812
0.0041279344
0.007140467
0.011680818
0.017470604
0.024423743
0.032870323
0.042834973
0.053639757
0.065552558
0.077962505
0.089734907
0.099017719
0.10288443
0.096929162
0.07704009
0.046986596
0.022049511
0.010976276
0.0078620913
0.0066906388
0.0060200539
0.0056178873
0.0053716538
0.0051899322
0.0051008489
0.0049179899
0.0048469066
0.0022399304
0.0021423701
0.0025056574
0.0032522234
0.0055272262
0.009279084
0.014116673
0.019956345
0.026950935
0.035545543
0.045386446
0.056146275
0.067953145
0.080138165
0.091530447
0.10022598
0.10325234
0.096190224
0.075231912
0.044874758
0.020757722
0.010611869
0.0077561398
0.0066507522
0.0059974591
0.0056066871
0.0053655413
0.0051862915
0.0050987434
0.0049174939
0.00484683
0.00201888
0.0021704143
0.0026216295
0.0040006606
0.0068992967
0.010973471
0.016018794
0.022038228
0.029242474
0.038014591
0.04777418
0.05854525
0.070262664
0.08222576
0.093233792
0.10133643
0.1035209
0.095362227
0.073376933
0.042824028
0.019622076
0.010267061
0.0076921424
0.0066246238
0.0059807461
0.0055981758
0.0053606375
0.005183132
0.0050968121
0.0049170121
0.0048467531
0.0019233182
0.0022500644
0.0030101734
0.005171272
0.0084883307
0.012754834
0.017926477
0.024080944
0.031489328
0.040360535
0.050084432
0.060876129
0.072501753
0.084238267
0.09485505
0.10235806
0.10369805
0.094450973
0.071484745
0.040836514
0.018593658
0.0099661076
0.0076247988
0.0065947033
0.0059620192
0.005588512
0.0053552758
0.0051797882
0.0050948481
0.0049165344
0.0048466872
0.0019511896
0.0023914972
0.003912685
0.0065605729
0.010126558
0.014533031
0.019827443
0.026123558
0.033761451
0.042608214
0.052354899
0.063157844
0.074682334
0.086184259
0.096401325
0.10329734
0.10378965
0.093461511
0.069565427
0.038911612
0.017648562
0.0096972893
0.0075658421
0.0065675027
0.0059445626
0.0055794148
0.0053501902
0.0051765792
0.0050929398
0.0049160838
0.0048466351
0.0020019073
0.0030148367
0.0050907552
0.008045758
0.011780827
0.016315212
0.021733962
0.028188102
0.035993097
0.044801095
0.054598906
0.065398231
0.076809826
0.088067601
0.097875806
0.10415747
0.10379934
0.092397968
0.06762697
0.037050342
0.01677523
0.0094566874
0.0075109709
0.0065405184
0.0059270688
0.0055701537
0.0053450286
0.0051733545
0.0050910451
0.0049156454
0.0048465968
0.002380523
0.0039961462
0.0064278639
0.009580392
0.013449557
0.018105654
0.02364689
0.030272862
0.038183537
0.046973902
0.056821347
0.067600365
0.078886955
0.089890586
0.099280767
0.10494114
0.10373043
0.091265299
0.06567679
0.035255056
0.015968079
0.0092414374
0.0074606814
0.0065146303
0.0059101476
0.0055611099
0.0053399663
0.0051702096
0.0050891924
0.0049152238
0.004846572
0.0032113924
0.00519489
0.0078405994
0.011133526
0.015124866
0.01990115
0.025569996
0.032389179
0.040306018
0.04913544
0.059021771
0.069765194
0.080915302
0.091654973
0.10061834
0.1056511
0.10358634
0.090067932
0.063721644
0.033528809
0.015223865
0.0090492561
0.0074140759
0.0064894305
0.0058935895
0.0055521668
0.005334949
0.0051671207
0.0050873722
0.0049148149
0.0048465599
0.0042288806
0.006457199
0.0092695257
0.012693317
0.01680503
0.021700223
0.027510281
0.034472246
0.042387191
0.051285693
0.06119823
0.071892702
0.082895734
0.093362096
0.10189044
0.10629004
0.10337096
0.08880986
0.061766373
0.031874965
0.014540077
0.008878465
0.0073707907
0.0064650279
0.0058775392
0.0055434401
0.0053300044
0.0051641339
0.0050855928
0.0049144189
0.0048465598
0.0053971897
0.0078008784
0.010732798
0.014264277
0.018488229
0.023499692
0.029470835
0.036516885
0.044460418
0.053423129
0.063348403
0.073982394
0.084828669
0.095012993
0.10309884
0.10686065
0.10308819
0.087496863
0.05981568
0.030298204
0.013914293
0.0087285358
0.0073303595
0.0064413367
0.0058619803
0.0055349328
0.0053251309
0.0051612623
0.0050838519
0.0049140361
0.0048465713
0.0066379475
0.0091511641
0.012185907
0.015828459
0.020168591
0.025302492
0.031435987
0.038528094
0.046526189
0.055543152
0.065469958
0.076033577
0.086714283
0.096608556
0.10424526
0.10736571
0.1027417
0.086135535
0.057875547
0.028807976
0.013343829
0.0086008155
0.0072923992
0.0064183582
0.005846958
0.0055266913
0.0053203509
0.0051585396
0.0050821532
0.0049136687
0.0048465938
0.0078795247
0.010493385
0.013635723
0.017391589
0.021846837
0.027112515
0.033379837
0.040500022
0.048578486
0.057641957
0.067560924
0.078045514
0.088552657
0.098149637
0.10533148
0.10780817
0.10233553
0.084732145
0.055951117
0.027403376
0.012825052
0.0084853043
0.00725655
0.0063960642
0.0058324758
0.0055187281
0.0053156778
0.0051559905
0.0050805002
0.0049133119
0.0048466272
0.0091194502
0.011833312
0.015083138
0.018950863
0.023518525
0.028932894
0.03527252
0.042459497
0.050615854
0.059716699
0.069619613
0.080017496
0.090343858
0.09963712
0.10635934
0.10819098
0.10187425
0.083293601
0.054048907
0.026075998
0.012354694
0.0083826244
0.007222654
0.0063744425
0.005818539
0.0055110567
0.0053111261
0.0051536394
0.0050788996
0.0049129639
0.0048466711
0.010349222
0.013165458
0.016523554
0.020502759
0.025186369
0.030744152
0.037134711
0.044409164
0.052634521
0.061764798
0.071644551
0.081948879
0.092088004
0.10107196
0.10733082
0.10851711
0.10136213
0.081826353
0.052177677
0.024824551
0.011929686
0.0082906095
0.0071904764
0.0063534753
0.0058051336
0.0055036747
0.0053067061
0.0051514978
0.0050773572
0.0049126233
0.0048467248
0.011569013
0.014488498
0.017954391
0.022044295
0.026852073
0.03253022
0.038981551
0.046343985
0.054630939
0.063784119
0.073634472
0.083839119
0.093785294
0.10245523
0.108248
0.10879014
0.10080389
0.080336481
0.050344946
0.023649546
0.011547034
0.008208117
0.0071598743
0.0063331493
0.0057922378
0.0054965727
0.0053024314
0.0051495542
0.0050758761
0.0049122893
0.0048467875
0.012775961
0.015798772
0.019372064
0.023571094
0.02851925
0.034274376
0.040815993
0.048259767
0.056602392
0.065772904
0.075588285
0.085687783
0.095436039
0.10378812
0.10911317
0.10901338
0.10020501
0.078830656
0.048557598
0.02255147
0.011203729
0.0081338894
0.0071307074
0.0063134513
0.0057798205
0.005489732
0.0052983149
0.0051477452
0.005074454
0.0049119615
0.0048468581
0.013966482
0.017092876
0.020774063
0.02508673
0.030165011
0.035991409
0.042630383
0.050153022
0.058546734
0.067729657
0.077505055
0.087494558
0.097040669
0.10507196
0.10992877
0.10919035
0.099571199
0.077315507
0.046821743
0.021530315
0.010896769
0.0080668987
0.0071028694
0.0062943715
0.0057678488
0.0054831284
0.0052943654
0.0051459551
0.0050730842
0.0049116408
0.0048469353
0.015136941
0.018367787
0.022157407
0.026591638
0.031779792
0.037687379
0.044423635
0.052021669
0.060462218
0.069653076
0.079383983
0.089259255
0.098599744
0.10630822
0.11069739
0.10932471
0.098907931
0.075797845
0.045142636
0.020585463
0.010623182
0.0080063817
0.0070762678
0.0062759035
0.0057562924
0.0054767348
0.0052905735
0.0051440907
0.0050717621
0.0049113268
0.0048470175
0.016284462
0.019621339
0.023520103
0.02808403
0.03335835
0.039365514
0.046194215
0.053863846
0.062347297
0.071542008
0.081224392
0.090981805
0.10011395
0.10749852
0.1114214
0.10942
0.098220081
0.074284511
0.04352477
0.019715646
0.010380061
0.0079513854
0.0070508211
0.0062580463
0.0057451282
0.0054705246
0.0052869205
0.0051421488
0.0050704905
0.0049110194
0.0048471033
0.017407707
0.020852424
0.024863943
0.029550371
0.034911641
0.041021899
0.047939996
0.055677843
0.064200575
0.07339542
0.083025722
0.092662253
0.10158409
0.10864462
0.11210385
0.10947975
0.097511688
0.072782044
0.04197194
0.018918939
0.010164608
0.007901069
0.0070264698
0.0062408051
0.0057343436
0.0054644748
0.005283433
0.0051401469
0.0050692751
0.004910719
0.0048471912
0.018505706
0.022059533
0.026189929
0.030984912
0.036442716
0.042654613
0.04965926
0.057462124
0.066020777
0.075212385
0.084787511
0.094300752
0.10301111
0.10974855
0.11274779
0.10950807
0.096786847
0.071296457
0.040487289
0.018192861
0.009974185
0.0078549169
0.0070031597
0.0062241904
0.0057239365
0.0054585705
0.005280219
0.0051381183
0.0050681122
0.0049104239
0.0048472801
0.019578774
0.023242466
0.027496016
0.032387658
0.03795148
0.044261979
0.051350464
0.059215266
0.067806722
0.076992062
0.086509384
0.09589755
0.10439606
0.11081251
0.1133562
0.10950929
0.096049636
0.069833496
0.039073271
0.017534626
0.0098063368
0.0078124237
0.0069808434
0.0062082175
0.0057139133
0.005452809
0.0052773813
0.0051361775
0.0050669864
0.0049101339
0.0048473685
0.020627745
0.02440262
0.028775433
0.033764894
0.039435405
0.045842326
0.053012199
0.060935919
0.069557301
0.078733678
0.088191039
0.097452996
0.1057402
0.11183794
0.11393213
0.10948864
0.095304168
0.068399146
0.037731652
0.016948652
0.0096588432
0.0077731882
0.0069594785
0.0061929028
0.0057042851
0.0054472012
0.0052749321
0.0051344405
0.0050658896
0.0049098499
0.0048474556
0.021653642
0.025541138
0.030026358
0.035117854
0.040893302
0.047394266
0.054643203
0.062622779
0.071271462
0.08043651
0.089832235
0.098967599
0.10704501
0.1128272
0.1144787
0.10945026
0.094556509
0.066996804
0.03646387
0.016423139
0.0095295314
0.0077368674
0.006939027
0.0061782603
0.0056950623
0.0054417676
0.0052728183
0.0051329288
0.0050648198
0.0049095726
0.0048475401
0.022657277
0.026660409
0.031247482
0.036446588
0.04232412
0.048916428
0.056240965
0.064274578
0.072948194
0.082099873
0.091432834
0.1004421
0.10831138
0.11378242
0.11499972
0.10939857
0.093813094
0.065630169
0.035271321
0.015952489
0.0094166281
0.0077031821
0.0069194552
0.0061642965
0.0056862498
0.0054365326
0.0052710312
0.0051315799
0.0050637582
0.0049093036
0.004847621
0.023640795
0.027756238
0.032444217
0.037749668
0.043726798
0.050407507
0.057802119
0.065890209
0.074586539
0.083723163
0.092992902
0.1018773
0.10954039
0.11470583
0.11549836
0.10933811
0.093079615
0.064302995
0.034155245
0.015533058
0.0093188877
0.0076719019
0.0069007331
0.006151006
0.0056778426
0.0054315205
0.0052695523
0.0051303566
0.0050626881
0.0049090473
0.0048476972
0.024605732
0.028829196
0.03361744
0.039026515
0.045100503
0.051866929
0.059329234
0.067468852
0.076185659
0.085306019
0.094512706
0.10327227
0.11073318
0.11560095
0.11597814
0.10927341
0.092361241
0.06301868
0.03311648
0.015161806
0.00923601
0.0076428397
0.006882835
0.0061383689
0.0056698238
0.0054267471
0.0052683668
0.0051292533
0.0050616172
0.0049088079
0.004847768
0.025553824
0.029879756
0.034767624
0.04027663
0.046444219
0.053293703
0.060824691
0.069009642
0.077744848
0.08684847
0.095991403
0.10462752
0.11189239
0.11646949
0.11644256
0.109209
0.091662845
0.06178025
0.032155293
0.014835839
0.0091661555
0.0076158436
0.0068657394
0.0061263498
0.0056621668
0.0054222109
0.0052674384
0.0051282445
0.0050605625
0.0049085862
0.0048478319
0.026487265
0.030908724
0.035894571
0.041499399
0.047756932
0.054686249
0.062282807
0.070508813
0.079263568
0.088349905
0.097428133
0.10594415
0.11301861
0.11731371
0.11689514
0.10914937
0.090989083
0.060590483
0.031271443
0.014552323
0.0091055928
0.0075907993
0.0068494289
0.0061148998
0.0056548445
0.0054178887
0.0052667208
0.0051273005
0.0050595362
0.0049083722
0.0048478894
0.027406993
0.031918052
0.036997801
0.042694222
0.04903779
0.056043657
0.063702444
0.07196678
0.08074064
0.089807128
0.098822735
0.10722423
0.11411313
0.118136
0.11733932
0.10909895
0.09034443
0.059451908
0.030464293
0.014308577
0.0090541936
0.0075676238
0.0068339016
0.0061040018
0.0056477798
0.0054137539
0.0052661864
0.0051264476
0.0050585406
0.0049081622
0.0048479416
0.028313408
0.032909342
0.038077684
0.04386088
0.050286263
0.057365479
0.065084866
0.073389285
0.082170761
0.091219548
0.10017743
0.10846712
0.11517735
0.11893868
0.1177785
0.10906215
0.089733235
0.058366843
0.029732887
0.014101828
0.0090088562
0.0075459441
0.0068191582
0.0060935908
0.0056409501
0.0054097787
0.0052658058
0.0051256748
0.0050575703
0.0049079768
0.0048479901
0.029207836
0.033883695
0.039135026
0.04500013
0.051502871
0.058650786
0.066425477
0.074765966
0.083554128
0.092588732
0.10149039
0.10967296
0.11621257
0.11972399
0.11821597
0.10904333
0.089159746
0.057337571
0.029084947
0.013923196
0.0089629839
0.0075256882
0.0068051855
0.0060836387
0.0056343348
0.0054059365
0.0052655272
0.0051249761
0.0050566189
0.0049078319
0.0048480363
0.030093368
0.03484331
0.040170948
0.046111873
0.052686376
0.059896821
0.06771989
0.076094854
0.08489855
0.093910468
0.10276092
0.11084214
0.11721993
0.12049403
0.11865491
0.10904675
0.088628589
0.056375268
0.028504474
0.013752581
0.0089188156
0.0075068525
0.0067919774
0.0060741284
0.0056279343
0.005402215
0.0052653116
0.0051243851
0.005055701
0.004907701
0.0048480814
0.030966944
0.035785987
0.041183036
0.04719214
0.053831776
0.06109899
0.068969314
0.077378922
0.086195353
0.095190994
0.10398864
0.11197497
0.11820046
0.12125076
0.11909834
0.10907651
0.088145056
0.0554871
0.027982686
0.013590246
0.0088760663
0.007489412
0.0067795267
0.006065071
0.0056217627
0.0053986182
0.0052651181
0.0051239043
0.0050548459
0.0049075773
0.0048481268
0.031818161
0.036703048
0.042165003
0.048237052
0.054935018
0.062257315
0.070174841
0.07861475
0.087442706
0.096424537
0.10517113
0.11307149
0.11915505
0.12199599
0.11954908
0.10913667
0.08771465
0.054677863
0.027513792
0.013435235
0.0088350955
0.0074733467
0.0067678275
0.0060564986
0.0056158517
0.0053951726
0.0052649044
0.0051235392
0.0050540644
0.0049074671
0.0048481735
0.032639681
0.037587007
0.043110761
0.04924334
0.055998586
0.06337241
0.071331858
0.079799959
0.088639495
0.097609802
0.10631367
0.11412749
0.12008431
0.12273134
0.12000983
0.10923107
0.087342878
0.053950818
0.027092495
0.013286753
0.0087960296
0.0074586359
0.006756874
0.0060484614
0.0056102441
0.0053919229
0.0052646363
0.0051232566
0.0050533492
0.0049073814
0.0048482226
0.033444265
0.038443469
0.044021163
0.050208642
0.057017214
0.064438996
0.072437602
0.080933039
0.089784571
0.09874567
0.10741187
0.11515263
0.12098342
0.12345805
0.12048301
0.10936321
0.087035155
0.053308284
0.02671415
0.01314404
0.0087590271
0.0074452608
0.0067466604
0.0060410178
0.0056049889
0.0053888961
0.0052642875
0.0051230588
0.0050527046
0.0049073137
0.0048482755
0.034244335
0.03928305
0.044903398
0.051136437
0.057990949
0.065455692
0.073490776
0.082012496
0.090876578
0.09983099
0.10846483
0.11614108
0.12186525
0.1241729
0.12097067
0.10953631
0.086796683
0.052752121
0.026374669
0.013006366
0.0087242248
0.0074332049
0.0067371814
0.0060342247
0.0056001308
0.0053860999
0.0052638388
0.0051229449
0.0050521223
0.0049072682
0.0048483342
0.035039085
0.04010737
0.045759811
0.052028587
0.058920717
0.066422358
0.074490197
0.083036761
0.091914058
0.10086448
0.1094717
0.11709228
0.12272289
0.12488725
0.12147333
0.10975331
0.086632377
0.052284063
0.026070358
0.012873001
0.0086917705
0.0074224541
0.0067284328
0.0060281283
0.0055956995
0.0053835414
0.0052632793
0.0051229034
0.0050515884
0.0049072462
0.0048484027
0.035825314
0.04091469
0.046589877
0.05288513
0.059806527
0.067338396
0.075434553
0.084004222
0.092895501
0.10184471
0.11043148
0.11800572
0.12355628
0.12559585
0.12199615
0.11001688
0.0865468
0.051906024
0.025797737
0.012743196
0.0086618321
0.0074129969
0.0067204122
0.0060227577
0.0055917047
0.0053812138
0.0052626063
0.0051229138
0.0050511043
0.004907246
0.0048484935
0.036599865
0.041702483
0.047391859
0.053704926
0.060647478
0.068202735
0.076322385
0.084913226
0.093819319
0.10277017
0.11134301
0.11888074
0.12436529
0.12629918
0.12253841
0.11032855
0.086544096
0.051620369
0.025553362
0.012616161
0.0086346137
0.0074048243
0.0067131205
0.0060181224
0.0055881247
0.0053790917
0.0052618221
0.0051229537
0.0050506644
0.0049072683
0.0048485588
0.037360624
0.042468729
0.048164041
0.054486564
0.061442342
0.069014035
0.077152134
0.085762169
0.094683707
0.1036392
0.11220497
0.11971646
0.12514958
0.12699746
0.12310106
0.11069193
0.086627227
0.051429672
0.025334134
0.01249105
0.0086103737
0.0073979297
0.0067065613
0.0060142167
0.0055848915
0.0053771464
0.0052609301
0.0051229972
0.0050502664
0.0049073053
0.0048486351
0.038106938
0.043212415
0.048905251
0.055228814
0.062189866
0.069770786
0.077922299
0.086549623
0.095486463
0.10445336
0.11302106
0.12051744
0.12591351
0.12769432
0.12368715
0.11110928
0.086801792
0.051337602
0.025136354
0.012366927
0.0085894432
0.0073923059
0.0067007392
0.0060110287
0.0055819275
0.0053753305
0.0052599286
0.0051230206
0.00504994
0.0049073536
0.0048487211
0.038839527
0.043933467
0.049614849
0.055930644
0.062888803
0.070471217
0.078632304
0.0872813
0.096238096
0.10521235
0.11378109
0.12127049
0.12664572
0.12838163
0.12429169
0.11157766
0.087067842
0.05134788
0.024955268
0.012242711
0.0085722466
0.0073879419
0.0066956569
0.0060085494
0.0055791429
0.0053735987
0.0052588088
0.0051230135
0.0050497175
0.00490741
0.0048488166
0.039560138
0.044632319
0.05029235
0.056590969
0.06353764
0.07111556
0.079290345
0.08795141
0.096911366
0.10590095
0.11448469
0.12198071
0.12735084
0.12906297
0.12491744
0.11209969
0.087427853
0.051471201
0.024784944
0.012117132
0.0085593372
0.0073848248
0.0066913146
0.0060067856
0.0055764556
0.0053719068
0.0052575552
0.0051229792
0.0050495375
0.0049074764
0.0048489207
0.040271606
0.04530963
0.050937067
0.057208605
0.064134155
0.071708464
0.079886014
0.088542102
0.097515261
0.10652576
0.11513209
0.12264656
0.12802791
0.12973775
0.1255642
0.1126754
0.087882411
0.051714618
0.02461954
0.011988755
0.0085514852
0.007382966
0.0066877181
0.0060057726
0.0055738126
0.005370221