/*--------------------------------*- C++ -*----------------------------------*\
| =========                 |                                                 |
| \\      /  F ield         | OpenFOAM: The Open Source CFD Toolbox           |
|  \\    /   O peration     | Version:  2406                                  |
|   \\  /    A nd           | Website:  www.openfoam.com                      |
|    \\/     M anipulation  |                                                 |
\*---------------------------------------------------------------------------*/
FoamFile
{
    version     2.0;
    format      ascii;
    arch        "LSB;label=32;scalar=64";
    class       volScalarField;
    location    "0.045";
    object      k;
}
// * * * * * * * * * * * * * * * * * * * * * * * * * * * * * * * * * * * * * //

dimensions      [0 2 -2 0 0 0 0];

internalField   nonuniform List<scalar> 
35803
(
823.96709
804.50416
778.67411
746.23774
707.02455
661.05613
608.80288
551.25564
489.86901
426.4187
362.66108
300.28747
240.8075
185.44753
135.09512
90.407684
51.951867
21.692487
6.219871
2.118625
1.2669072
0.94113107
0.76492997
0.61250029
0.52157045
0.48301208
0.46172909
0.43766012
0.42499163
0.40099947
0.39178732
811.00826
789.45311
762.04074
728.77109
689.42762
643.96339
592.72654
536.57446
476.87325
415.23446
353.2691
292.52995
234.49377
180.37452
131.07253
87.270327
49.621346
20.309074
5.6468665
2.0246295
1.2379079
0.92821238
0.75725512
0.60825509
0.51932343
0.48201802
0.46113745
0.43731991
0.42480176
0.40094794
0.39181539
792.00227
769.12386
740.90843
707.35571
668.305
623.71667
573.87465
519.5132
461.83462
402.29801
342.38768
283.54931
227.19593
174.52174
126.44119
83.665704
46.941337
18.711985
5.1255288
1.9361648
1.2212359
0.9205234
0.75254135
0.60589993
0.5176471
0.48116657
0.46068581
0.43708929
0.42468901
0.40092787
0.39184605
765.28866
741.76619
713.54741
680.501
642.44973
599.3559
551.46172
499.39783
444.20044
387.17443
329.68405
273.08091
218.70633
167.72911
121.08023
79.503222
43.853259
16.888766
4.618137
1.8475041
1.1965081
0.9083685
0.74503217
0.60179821
0.51480643
0.47957321
0.46000963
0.43673901
0.42448507
0.40089838
0.39188131
730.21023
706.85519
679.3773
647.5751
611.23822
570.30522
524.96918
475.75929
423.55891
369.51582
314.87288
260.8896
208.83423
159.84532
114.87278
74.693316
40.29914
14.853216
4.1133748
1.7574355
1.1722581
0.89644982
0.73778
0.59733735
0.51170665
0.47772346
0.45931672
0.4364206
0.4242965
0.40086641
0.3919222
686.35602
663.98308
637.98896
608.14011
574.20745
536.0993
493.94944
448.18212
399.5316
348.98638
297.66359
246.72894
197.37454
150.70417
107.68958
69.138706
36.222985
12.652717
3.6157748
1.6673517
1.1439981
0.88187195
0.72878551
0.59137413
0.50857874
0.47601465
0.45841944
0.4360386
0.42404466
0.40082502
0.39196987
633.68791
613.05007
589.22745
561.98658
531.09305
496.42952
458.0676
416.32351
371.7826
325.27116
277.77131
230.34766
184.11099
140.12547
99.389218
62.736939
31.581307
10.362869
3.1381203
1.5827005
1.1140112
0.86621173
0.71920765
0.58585412
0.50593615
0.47458458
0.45743146
0.43566976
0.42380853
0.40077484
0.39202403
572.65644
554.43041
533.34172
509.25608
481.93976
451.25225
417.20359
380.0036
340.09173
298.13063
254.95585
211.51695
168.83472
127.92747
89.826451
55.391074
26.366328
8.0949662
2.6967371
1.4999041
1.0803263
0.84810989
0.70804784
0.5803551
0.50373631
0.47295415
0.45621015
0.43522396
0.42354759
0.40070874
0.39208502
504.54825
489.11282
471.15522
450.60889
427.24858
400.91536
371.56348
339.30443
304.43975
267.4704
229.07473
190.06959
151.37269
113.94829
78.866854
47.030443
20.661279
6.2133676
2.3125977
1.4181321
1.0437833
0.82835757
0.6959888
0.57411657
0.5016989
0.47117935
0.45484717
0.4347037
0.42327006
0.40062157
0.39216151
431.43661
418.90562
404.21689
387.34491
368.07851
346.24853
321.76425
294.6517
265.08626
233.41249
200.14448
165.94955
131.62706
98.079168
66.423659
37.638487
14.724868
4.6034347
1.986035
1.3371775
1.003122
0.80609072
0.68232236
0.56602397
0.49838112
0.46892495
0.45331725
0.43400732
0.42287721
0.40050261
0.39225385
355.73149
346.01128
334.50019
321.20207
305.92889
288.51326
268.83415
246.84905
222.62376
196.35857
168.40489
139.27106
109.62778
80.314311
52.503793
27.334696
9.2387304
3.3160929
1.7209315
1.2566504
0.95887202
0.78183088
0.66741062
0.55696638
0.49442596
0.46634423
0.45173023
0.43316226
0.4224267
0.40034462
0.39236492
279.96539
272.8145
264.2294
254.22853
242.65304
229.35084
214.1902
197.08114
178.00289
157.03343
134.37545
110.38116
85.600368
60.832828
37.291943
16.612669
5.689153
2.4492132
1.5336137
1.1752425
0.91044309
0.75487225
0.65074601
0.54855932
0.49050051
0.46333483
0.45017537
0.43219826
0.42199658
0.40013997
0.39250116
206.69676
201.67686
195.61264
188.50931
180.21838
170.59315
159.49897
146.82072
132.48358
116.47873
98.886583
79.917871
60.059802
40.15919
21.375245
8.2137956
3.3816466
1.9030994
1.40228
1.091496
0.85922238
0.72568572
0.63308178
0.53860911
0.48593727
0.45998206
0.44847687
0.4312723
0.42151822
0.39988343
0.39266187
138.02896
134.72451
130.72027
126.00707
120.46967
113.98038
106.40449
97.612413
87.500677
76.00967
63.113279
48.877006
33.988043
19.660194
9.419195
4.0301991
2.2244264
1.630132
1.2451909
1.0092994
0.80420904
0.69369478
0.61495935
0.52825053
0.48049236
0.45621157
0.4464425
0.42981823
0.42044655
0.3995658
0.39282961
76.160971
74.209144
71.840274
69.033551
65.696829
61.727667
57.025812
51.491496
45.051629
37.698155
29.694422
21.661264
14.124899
7.9094404
3.9905515
2.2581376
1.7043144
1.4103325
1.1355847
0.92055242
0.74783686
0.66197411
0.59642856
0.51925111
0.47471125
0.45221505
0.44433659
0.42797668
0.4191265
0.39917452
0.39301045
31.209679
30.309874
29.25587
28.038151
26.586661
24.822142
22.707513
20.214139
17.351301
14.172946
10.873792
7.7852703
5.2428609
3.2767282
2.1107027
1.6165191
1.4405738
1.2047367
0.97236558
0.83225656
0.69245636
0.63040046
0.57753425
0.50808407
0.46793767
0.44779002
0.44154745
0.42577464
0.41740467
0.3987497
0.39319652
10.259081
10.010646
9.6971439
9.315801
8.8516221
8.2834763
7.6311748
6.8568535
5.9494747
4.9568897
3.9487117
3.0156618
2.2776889
1.7356014
1.466229
1.3046517
1.1397712
0.99785733
0.87939561
0.74570177
0.63907138
0.60043136
0.55843905
0.49832487
0.46075302
0.44284554
0.43821322
0.42316447
0.415484
0.39847323
0.39337429
3.4151642
3.3762814
3.3113863
3.2177285
3.0942832
2.9377347
2.7499062
2.5367383
2.2899612
2.0228386
1.7540527
1.5059007
1.3157229
1.1996382
1.1612034
0.9977398
0.93835521
0.85657025
0.74802778
0.66354537
0.59662199
0.56692676
0.53819558
0.48896578
0.45373005
0.43774678
0.43511789
0.41990349
0.41317029
0.39833558
0.39353219
1.4599074
1.452039
1.4373497
1.4152947
1.3862057
1.3495144
1.3036786
1.2457895
1.1825037
1.1157372
1.0504201
0.99835837
0.96381026
0.91572782
0.86225252
0.81618155
0.75792119
0.70317113
0.67834402
0.61175509
0.55478459
0.5326456
0.52341732
0.47907015
0.44601707
0.43227062
0.43184126
0.41677343
0.41087607
0.39829367
0.3936582
0.9003728
0.89575242
0.89027354
0.88327202
0.87459617
0.86448318
0.85282173
0.8390837
0.82797242
0.81819161
0.80738281
0.77687887
0.75462829
0.73082945
0.70282163
0.6715349
0.65453359
0.62320746
0.5922851
0.55305925
0.51475537
0.50770535
0.50671485
0.47000476
0.43733002
0.42691064
0.42662027
0.41345204
0.40843365
0.39828595
0.39388121
0.70614989
0.7040182
0.70262461
0.70121141
0.6999312
0.69943476
0.69948223
0.69876257
0.69426055
0.68267407
0.66315926
0.65128277
0.62817866
0.62973771
0.60241669
0.59571091
0.57437857
0.54621884
0.54054081
0.51398564
0.49162735
0.47851803
0.48970139
0.45934775
0.42953953
0.42220066
0.42127417
0.41080365
0.40646532
0.39822451
0.39420228
0.586167
0.58379485
0.5809173
0.57769418
0.57473656
0.57191574
0.56913575
0.56636954
0.56372044
0.5608598
0.55885943
0.56086816
0.55967884
0.53791023
0.53424197
0.51583371
0.52327459
0.50508006
0.48581667
0.47319516
0.46133039
0.45765187
0.47864966
0.44680742
0.42049011
0.41778673
0.41704104
0.40877823
0.40460691
0.39807449
0.3945162
0.50778839
0.50800603
0.50863777
0.50946031
0.51016384
0.5108346
0.51134466
0.51127489
0.51018012
0.50681984
0.4992288
0.49094991
0.4877705
0.48552539
0.48655256
0.47864035
0.46855365
0.46581154
0.45504122
0.45114274
0.44504195
0.44063169
0.4571415
0.43753794
0.41289252
0.41363549
0.41192202
0.40640263
0.40320059
0.39798147
0.39333002
0.46141387
0.46071836
0.45965245
0.45829737
0.45709995
0.45595712
0.45491509
0.45406005
0.45337982
0.45277322
0.45221199
0.45298536
0.45222007
0.45128603
0.44532812
0.44613626
0.43898937
0.44390057
0.42803142
0.42681623
0.42288403
0.42946255
0.43897099
0.42694615
0.40762711
0.40913738
0.40706423
0.40368061
0.40171967
0.39759859
0.39357009
0.42985884
0.42978623
0.42963008
0.42943164
0.42935951
0.42952565
0.42997521
0.43060675
0.43098823
0.43061506
0.42906951
0.42646845
0.42475568
0.42334022
0.42239657
0.42154265
0.41907791
0.4179619
0.40911267
0.40882121
0.40797034
0.41682144
0.42867661
0.41968702
0.40398906
0.40353841
0.40300592
0.40142383
0.40073635
0.39712109
0.39385021
0.41359659
0.41354267
0.41340552
0.41320467
0.4130249
0.41288207
0.41274777
0.41261068
0.41246419
0.41239613
0.41238008
0.4122869
0.41233235
0.41253775
0.41174176
0.41202854
0.4107394
0.40850174
0.40406371
0.40285567
0.40234498
0.40695949
0.42370899
0.41132498
0.40125084
0.40014564
0.40054134
0.39925171
0.39988896
0.39702728
0.39463538
0.40386364
0.40387585
0.4038562
0.40380926
0.40377831
0.40378925
0.40387007
0.40407136
0.40442121
0.40479157
0.40479356
0.40429108
0.40363058
0.40324267
0.40339885
0.40336999
0.40367246
0.40336257
0.40297028
0.40035066
0.39964661
0.40223356
0.41510321
0.40691437
0.39939885
0.39846533
0.39905228
0.39801131
0.39876135
0.39697566
0.39523331
0.39961844
0.39961794
0.39958572
0.39953222
0.39948216
0.39944187
0.39941461
0.39941027
0.39946172
0.39952718
0.39955048
0.39950994
0.39945753
0.39953107
0.39971015
0.39986596
0.39987475
0.39972482
0.39938595
0.39770346
0.39814851
0.39949019
0.40375091
0.40419354
0.39844295
0.39774643
0.39810731
0.39726221
0.39788231
0.39691034
0.3955228
0.39776295
0.39775962
0.39774725
0.39773147
0.39772247
0.39772492
0.39774037
0.39777068
0.39781649
0.39786941
0.39791826
0.39798256
0.39804377
0.39809535
0.39823807
0.39835056
0.39844013
0.39823712
0.39799693
0.39737054
0.39765203
0.39920013
0.39989753
0.40189322
0.3980192
0.39741048
0.3974676
0.39691861
0.39716169
0.39695188
0.39602198
0.39725147
0.39724645
0.39724117
0.39723734
0.39723805
0.39724562
0.39726112
0.39728331
0.3973082
0.39733157
0.39735217
0.39736922
0.3973846
0.39741274
0.39748168
0.39761621
0.39767775
0.39762019
0.39757282
0.39765531
0.39813984
0.39988426
0.39873488
0.39982284
0.39789405
0.39729134
0.39735907
0.39683008
0.39696356
0.39693915
0.39676907
0.39766198
0.39765841
0.39765302
0.39764475
0.39763414
0.39762243
0.39761164
0.39760314
0.39759709
0.39759246
0.39758803
0.39758312
0.39757751
0.39757104
0.39756188
0.39752472
0.39746423
0.39744638
0.39745238
0.39761195
0.39816188
0.39915087
0.39797788
0.39793325
0.39744496
0.39752847
0.39749791
0.39735685
0.3973459
0.39740941
0.39724499
125.55136
164.29344
207.07171
243.7126
294.97316
361.12194
421.02092
460.4666
475.29762
470.75263
447.39525
403.70913
350.95596
293.29707
234.5454
178.00818
126.08009
80.072455
42.200492
16.704338
5.0083328
1.7688837
1.0405714
0.7602486
0.61507544
0.53302322
0.48501698
0.45131571
0.43517925
0.40221906
0.39100156
148.49756
193.95872
232.70996
272.08313
332.49702
395.65775
445.36885
474.05874
480.90937
471.85714
442.81438
397.18434
343.85545
286.42943
228.41272
172.83595
121.91004
76.850778
39.977115
15.503035
4.597354
1.6836559
1.018309
0.75164852
0.61050128
0.53088908
0.48397024
0.45069866
0.43480418
0.40213196
0.39099761
176.95572
217.27861
247.01243
296.22901
360.6818
420.1623
462.64991
483.61635
484.89222
471.43844
437.59714
390.65234
336.94084
279.80446
222.51457
167.86521
117.903
73.755442
37.857071
14.389813
4.2476887
1.6099691
1.0044453
0.7459235
0.60710303
0.52927626
0.48316242
0.45016911
0.43445899
0.4020505
0.39099406
204.16592
232.75804
269.20301
328.21393
391.09729
443.32728
477.47227
491.10693
487.7029
469.55376
432.11285
384.17683
330.2105
273.40872
216.83851
163.08624
114.05138
70.780331
35.83716
13.357283
3.9388638
1.5448261
0.98976052
0.73942999
0.6033124
0.52743925
0.4822654
0.44960087
0.43410639
0.40196928
0.39099142
222.7187
247.69853
297.72061
360.25568
418.75841
463.44351
489.77685
497.05593
490.03539
466.37607
426.53234
377.78545
323.66192
267.2321
211.37447
158.4907
110.34813
67.92017
33.915375
12.397644
3.6612678
1.4867352
0.97667827
0.73349511
0.59977085
0.52570693
0.48142423
0.44905413
0.43376099
0.40189287
0.39099003
233.31623
271.30742
330.66293
391.97015
444.02313
480.87724
499.92933
501.90879
490.90231
462.45276
420.9236
371.49705
317.29677
261.26904
206.11532
154.07192
106.78728
65.170186
32.087639
11.505163
3.410315
1.4347761
0.96435913
0.72762487
0.59622617
0.52393837
0.48056905
0.44850049
0.43341573
0.40181826
0.39099
250.67364
304.23874
365.24784
421.65371
466.38585
495.71555
508.17538
505.78356
490.50285
458.22484
415.33253
365.32779
311.11859
255.51607
201.05536
149.82411
103.36343
62.526392
30.349666
10.67565
3.1832792
1.3882683
0.95291388
0.721991
0.59279249
0.52220393
0.47973263
0.44795693
0.43307509
0.40174672
0.39099133
280.92299
339.90238
398.33247
448.46043
485.87156
508.22079
514.91486
509.04347
488.73014
453.84476
409.78274
359.2922
305.13167
249.97088
196.18982
145.74215
100.07172
59.984116
28.697533
9.9057911
2.9781313
1.3466475
0.9421802
0.7165157
0.58943011
0.52048112
0.47890328
0.44741882
0.43273786
0.40167755
0.390994
317.3035
375.88769
429.11949
472.3136
502.69327
518.68573
520.55714
510.85775
486.13899
449.38077
404.29575
353.40438
299.34052
244.63183
191.51459
141.82142
96.907763
57.538881
27.126672
9.1927491
2.7931303
1.3094679
0.93209732
0.711219
0.58616519
0.51879133
0.47808479
0.44689393
0.43240573
0.40161131
0.39099794
355.21607
409.8615
456.80873
493.20306
517.09925
527.3785
525.37829
511.42481
483.2687
444.88789
398.89311
347.67777
293.7495
239.49759
187.02601
138.05777
93.867646
55.189401
25.632898
8.5342462
2.6266861
1.2764774
0.92258502
0.70608422
0.58299471
0.51713587
0.47727501
0.4463843
0.43207884
0.40154844
0.3910031
391.80116
440.83607
481.37756
511.40308
529.4016
534.69394
529.29519
511.0532
480.22653
440.39125
393.59557
342.12471
288.36246
234.56695
182.72073
134.44739
90.947825
52.934524
24.213185
7.9294032
2.4772759
1.2477132
0.91357955
0.7011107
0.57992735
0.51552454
0.47647654
0.44589564
0.43175816
0.40148964
0.39100946
425.41259
468.5789
503.0401
527.21702
539.88807
540.96706
532.08929
509.86475
477.04216
435.91964
388.42394
336.75635
283.1827
229.83865
178.59562
130.98678
88.145635
50.772021
22.864018
7.3745822
2.3433062
1.2215855
0.90502158
0.69629245
0.57696483
0.51396137
0.47569046
0.44543233
0.43144454
0.40143443
0.39101702
455.81472
493.2748
522.0892
540.94193
548.80059
546.49055
533.5354
508.36162
473.78874
431.50507
383.3978
331.58243
278.21287
225.31138
174.64769
127.67272
85.459621
48.700898
21.583525
6.8644905
2.223353
1.198077
0.89687959
0.69162653
0.57410967
0.5124508
0.47491803
0.44499903
0.43113931
0.4013827
0.39102587
483.01735
515.16444
538.82683
552.87194
556.51837
551.09651
534.18769
506.68957
470.50715
427.17616
378.5348
326.61133
273.45502
220.98369
170.8741
124.50213
82.886353
46.719648
20.371837
6.3961117
2.1161275
1.1767829
0.88911419
0.68710929
0.5713614
0.5109945
0.47415952
0.44459882
0.43084372
0.40133428
0.39103609
507.28458
534.56832
553.55924
563.26908
563.33494
554.71349
534.43267
504.88866
467.2329
422.95967
373.8507
321.85015
268.91061
216.85401
167.27206
121.4721
80.423383
44.82661
19.228091
5.9671254
2.0204423
1.1574592
0.88169911
0.68273801
0.56871819
0.50959285
0.47341567
0.44423155
0.43055866
0.40128898
0.39104773
528.92505
551.79979
566.56579
572.33825
569.5364
557.27856
534.4355
503.00159
464.0023
418.88035
369.3593
317.30479
264.5806
212.92068
163.8389
118.57988
78.070081
43.020365
18.151079
5.5753829
1.9351894
1.1398573
0.87460982
0.6785101
0.56617644
0.50824434
0.47268717
0.44388817
0.4302841
0.40124659
0.39106078
548.26638
567.15947
578.11562
580.44277
574.85177
559.2321
534.20679
501.07105
460.85028
414.96045
365.07259
312.98014
260.4655
209.18195
160.57199
115.82274
75.824519
41.299446
17.139221
5.2187831
1.8593364
1.123771
0.86782722
0.67442357
0.5637316
0.50694617
0.47197415
0.44354888
0.43001904
0.40120689
0.3910752
565.61729
580.91672
588.42275
587.81236
579.30116
560.81639
533.8362
499.14697
457.80929
411.21963
361.00083
308.88017
256.56546
205.63601
157.4688
113.19901
73.684938
39.662588
16.190602
4.8952372
1.7919276
1.1090402
0.8613349
0.67047691
0.56137872
0.50569448
0.47127348
0.44319505
0.42976253
0.40116965
0.39109083
581.25898
593.31414
597.68965
594.58992
582.97742
562.19863
533.39474
497.27355
454.90812
407.67506
357.15279
305.00804
252.88033
202.28101
154.52673
110.70585
71.649566
38.10862
15.303098
4.6026416
1.7320816
1.0954857
0.85511854
0.66666932
0.5591131
0.50448478
0.47057963
0.44282363
0.42951487
0.40113464
0.39110749
595.44257
604.57277
606.17728
600.65322
586.23073
563.42556
532.93521
495.4893
452.172
404.3416
353.5359
301.36628
249.40971
199.1151
151.74329
108.3396
69.714737
36.6362
14.474458
4.3388669
1.6789913
1.082951
0.84916712
0.66300078
0.55693088
0.5033124
0.46989457
0.44243686
0.42927745
0.40110177
0.39112497
608.39014
614.86411
614.08187
606.04878
589.23308
564.56232
532.50638
493.82817
449.62294
401.23208
350.15642
297.95689
246.15302
196.13647
149.1161
106.0983
67.876343
35.243585
13.702359
4.1017906
1.6319257
1.0713304
0.84347064
0.659472
0.55482923
0.50217325
0.46923598
0.44203971
0.4290506
0.40107073
0.39114307
620.30556
624.35899
621.49501
610.921
592.08332
565.6663
532.15106
492.31976
447.28005
398.35753
347.01965
294.78139
243.10959
193.34343
146.64509
103.9802
66.131979
33.928617
12.984383
3.8893643
1.5902275
1.0605244
0.83802015
0.65608431
0.5528064
0.50106482
0.46862296
0.4416511
0.4288321
0.40104133
0.39116163
631.37203
633.23883
628.38566
615.50488
594.82909
566.78516
531.90655
490.98965
445.15985
395.72742
344.13003
291.841
240.27864
190.73404
144.32776
101.98397
64.479142
32.68958
12.318035
3.7012665
1.5533152
1.0504523
0.83280743
0.65283935
0.55086136
0.49998666
0.46805959
0.4412916
0.42862015
0.40101352
0.39118059
641.73545
641.64554
634.82459
619.91256
597.52764
567.96204
531.80573
489.85971
443.27661
393.34985
341.49127
289.13668
237.65934
188.30812
142.15985
100.10791
62.917129
31.522729
11.700988
3.5337268
1.5206478
1.0410451
0.82782482
0.64973845
0.54899342
0.49894009
0.46753718
0.44096701
0.42841458
0.40098721
0.3911999
651.51152
649.72934
640.87329
624.21705
600.22704
569.23374
531.86435
488.94855
441.64263
391.23174
339.10653
286.66924
235.25093
186.06385
140.14079
98.350484
61.445687
30.425217
11.131211
3.3845289
1.4917765
1.0322459
0.82306519
0.64678204
0.54720166
0.49792753
0.46705485
0.44066727
0.42821229
0.40096238
0.39121952
660.82156
657.43321
646.71843
628.45613
602.96841
570.63104
532.08661
488.27311
440.26859
389.37904
336.97845
284.43921
233.05609
183.99834
138.26942
96.71037
60.064101
29.394698
10.606857
3.2520201
1.4663602
1.0240071
0.81852186
0.64396892
0.54548438
0.49695204
0.46661166
0.44038532
0.42800926
0.40093906
0.39123942
669.74497
664.83053
652.43256
632.67569
605.78718
572.18439
532.52911
487.85059
439.16386
387.79696
335.10901
282.44955
231.07308
182.1118
136.54462
95.186408
58.771255
28.428776
10.126093
3.1347908
1.4442249
1.0162899
0.8141887
0.64129564
0.54383882
0.49601603
0.46620732
0.44012042
0.4278058
0.40091727
0.39125955
678.35443
671.9734
658.06607
636.91045
608.7096
573.91904
533.23838
487.6941
438.33635
386.48998
333.50217
280.69946
229.2979
180.40333
134.96542
93.777591
57.565834
27.524988
9.687015
3.0315576
1.4249721
1.0090623
0.8100602
0.63875615
0.54226139
0.49511961
0.46583882
0.43986888
0.42760481
0.40089677
0.39127966
686.71964
678.90978
663.64825
641.18647
611.75712
575.84742
534.19176
487.79202
437.79204
385.46517
332.16669
279.18691
227.73157
178.87207
133.53104
92.483071
56.446491
26.681003
9.2876854
2.9411331
1.4079279
1.0022989
0.8061316
0.63634169
0.54074904
0.4942596
0.46550265
0.43962615
0.42740823
0.40087537
0.39129966
694.86844
685.70384
669.1982
645.52524
614.94846
577.98403
535.39021
488.15724
437.5396
384.73579
331.1003
277.91536
226.37426
177.51746
132.2409
91.302184
55.41195
25.894659
8.926194
2.8624388
1.3929959
0.99598046
0.80240034
0.63404821
0.53929173
0.49343255
0.46519816
0.4393972
0.42721602
0.40085251
0.39131957
702.81644
692.40607
674.74536
649.94687
618.29821
580.34203
536.86294
488.86601
437.5899
384.29836
330.29867
276.8852
225.22608
176.33923
131.09465
90.234468
54.461074
25.163965
8.6006939
2.7944787
1.3796163
0.99005062
0.79886454
0.63186384
0.53788593
0.49263473
0.46492457
0.43918111
0.42702708
0.40083315
0.39133937
710.61687
699.05746
680.32436
654.48476
621.83941
582.95082
538.63284
489.90325
437.94919
384.1481
329.76637
276.09643
224.28729
175.3373
130.09214
89.279677
53.592918
24.487167
8.3121921
2.7350385
1.3666845
0.98449414
0.79552082
0.62978074
0.53652829
0.49186194
0.46467704
0.43897793
0.42683959
0.40082053
0.39135903
718.49339
705.83038
686.06291
659.23754
625.65022
585.86485
540.72748
491.24571
438.64274
384.27607
329.50431
275.54964
223.55828
174.51182
129.23344
88.437838
52.807026
23.866555
8.0549519
2.6797792
1.3545309
0.97930564
0.79236696
0.62779268
0.53521805
0.49111171
0.46445174
0.43879439
0.42665518
0.40081176
0.39137854
726.66721
712.91902
692.11322
664.29321
629.76787
589.10718
543.12711
492.8824
439.63232
384.71949
329.51378
275.24587
223.03965
173.86309
128.51883
87.709309
52.103635
23.302897
7.8253922
2.6285375
1.3430837
0.97447734
0.78940074
0.62589776
0.53395623
0.49038371
0.46424454
0.43863201
0.42647886
0.40080591
0.39139797
734.97402
720.23386
698.42859
669.62262
634.15435
592.61385
545.80521
494.82556
440.9263
385.45996
329.78995
275.18618
222.73223
173.39166
127.9487
87.094473
51.483414
22.796179
7.6209119
2.5809442
1.3323763
0.97000261
0.78662011
0.62409806
0.53274649
0.48968127
0.46405087
0.43849249
0.42631335
0.4008027
0.39141744
742.56062
727.13093
704.56205
674.96092
638.67596
596.32276
548.76161
497.07027
442.52668
386.49721
330.35309
275.36183
222.63683
173.09828
127.52369
86.593875
50.947483
22.345992
7.4391817
2.5366866
1.3224076
0.96587519
0.7840229
0.62239958
0.53159462
0.48901109
0.46386746
0.43837043
0.42615757
0.40080214
0.39143703
749.35711
733.42553
710.32225
680.14882
643.24163
600.22427
551.97923
499.61316
444.43463
387.83301
331.19357
275.79828
222.74483
172.98367
127.24463
86.208387
50.497233
21.951776
7.2781759
2.495479
1.3131844
0.96208946
0.78160672
0.62081101
0.53050809
0.48837753
0.46369209
0.43826637
0.4260123
0.40080319
0.39145688
756.09416
739.59612
715.98683
685.32275
647.89607
604.3109
555.45201
502.45237
446.65137
389.46957
332.31334
276.4842
223.08093
173.04287
127.11239
85.938984
50.134149
21.613044
7.1361333
2.4570594
1.3047122
0.95864058
0.77936903
0.61934219
0.52949458
0.48778297
0.46352337
0.43818055
0.42587645
0.40080569
0.39147716
762.86805
745.79054
721.67958
690.563
652.67749
608.59295
559.18055
505.58756
449.17832
391.40917
333.71528
277.42175
223.63406
173.2919
127.12676
85.786777
49.859883
21.329495
7.0114989
2.4211811
1.2970008
0.95552449
0.77730723
0.61800245
0.52856038
0.48723068
0.46336099
0.43811181
0.42574764
0.40080966
0.39149812
769.6616
752.04199
727.45353
695.91715
657.61757
613.08553
563.16883
509.01969
452.01735
393.65428
335.40257
278.61401
224.40647
173.72425
127.29283
85.753107
49.676241
21.101148
6.9028654
2.3876059
1.2900652
0.95273808
0.77541895
0.61679913
0.52770885
0.4867226
0.46320561
0.43805781
0.42562605
0.40081525
0.39152032
776.44003
758.33981
733.31998
701.4057
662.73541
617.80068
567.4218
512.75056
455.17077
396.20773
337.37877
280.06447
225.40111
174.34202
127.61014
85.838826
49.585147
20.928459
6.8089153
2.3560989
1.2839278
0.95027918
0.77370233
0.61573686
0.52693846
0.48625738
0.46305837
0.43801612
0.42551086
0.40082279
0.3915426
783.16922
764.65778
739.26846
707.03037
668.0386
622.74601
571.94448
516.78226
458.64097
399.07282
339.64783
281.77707
226.62132
175.14772
128.08051
86.046861
49.588147
20.812432
6.7283603
2.3264236
1.2786207
0.94814648
0.77215606
0.61481759
0.5262406
0.48583131
0.46292016
0.43798365
0.42540207
0.40083272
0.39156533
789.81259
770.9621
745.27682
712.78103
673.52619
627.92506
576.74248
521.11615
462.43008
402.2537
342.21429
283.75634
228.07101
176.14425
128.70595
86.378095
49.688294
20.754808
6.6598647
2.2983344
1.274188
0.94633881
0.77077908
0.61404156
0.52560286
0.48543771
0.46279049
0.43795677
0.42530469
0.40084501
0.39158931
796.31878
777.21005
751.31489
718.63995
679.19103
633.33846
581.82174
525.75676
466.53874
405.75534
345.08318
286.00719
229.75447
177.33491
129.48877
86.834233
49.887194
20.757608
6.6019386
2.2715638
1.2706876
0.94485407
0.76957008
0.61340866
0.52500905
0.48506898
0.46266669
0.43793273
0.42522536
0.40085959
0.3916144
802.62181
783.35193
757.34843
724.58659
685.02294
638.9868
587.18536
530.71169
470.96952
409.58178
348.25979
288.53501
231.67654
178.72349
130.43152
87.417016
50.187015
20.825997
6.5528386
2.2458099
1.2681967
0.94369009
0.7685279
0.61292085
0.52444221
0.48471672
0.46254389
0.43791033
0.42515401
0.40087655
0.39164056
808.65211
789.33937
763.34632
730.60377
691.01732
644.87017
592.83811
535.98331
475.7293
413.73803
351.75005
291.34586
233.84269
180.31437
131.53719
88.128232
50.589581
20.964115
6.5103718
2.2207513
1.2668321
0.9428518
0.76765445
0.61258519
0.52388884
0.48437318
0.46241463
0.43788735
0.4250881
0.40089568
0.39166786
814.33938
795.12798
769.28373
736.67426
697.17347
650.99278
598.77691
541.57507
480.82583
418.22997
355.55985
294.44585
236.25865
182.11229
132.80895
88.969663
51.096303
21.178929
6.4718243
2.1961112
1.2667623
0.94236281
0.76695807
0.6124151
0.52334405
0.4840334
0.46227107
0.4378593
0.42504527
0.40091675
0.39169608
819.57298
800.64341
775.11875
742.77001
703.46012
657.33479
604.99312
547.48488
486.25923
423.06037
359.69338
297.84017
238.9297
184.1219
134.24993
89.94294
51.70784
21.47981
6.4339918
2.1719499
1.2674892
0.94224968
0.76644419
0.61242366
0.52281173
0.48369633
0.46210961
0.43781523
0.42501849
0.40094022
0.39172517
823.71912
805.06886
779.94209
747.96973
708.98271
663.05875
610.73709
553.05124
491.45727
427.75441
363.76716
301.22605
241.62214
186.16578
135.72567
90.945094
52.341236
21.810617
6.3921214
2.1487605
1.2689237
0.94238349
0.76608799
0.6125281
0.52229445
0.48336813
0.46193577
0.43774747
0.4249901
0.40096732
0.39175495
122.51436
160.0629
206.19535
243.49268
288.53571
351.12651
410.66403
452.18142
470.08007
467.42018
446.91686
405.11637
353.2519
295.97256
237.30268
180.57725
128.30818
81.908472
43.540642
17.438697
5.2075924
1.7990817
1.048664
0.76391933
0.61760143
0.5342055
0.48563387
0.45174416
0.43546856
0.40227481
0.39099922
127.09142
162.37991
206.91606
243.50683
284.6722
344.79854
403.56724
445.62063
464.92948
463.89307
444.55016
404.08217
352.98223
296.26025
237.95207
181.39918
129.16321
82.728697
44.228446
17.866654
5.3439449
1.8262338
1.0539567
0.76654037
0.61952824
0.53508526
0.48610667
0.45207565
0.43568141
0.40229827
0.39099461
132.37049
166.2214
208.45635
243.63258
281.31263
338.76832
396.63959
439.14111
459.7679
460.05002
441.81971
402.7638
352.61135
296.51027
238.57627
182.20581
130.01077
83.545232
44.919381
18.301083
5.4857253
1.8530213
1.0593696
0.76920993
0.62145778
0.53595608
0.48658949
0.45240938
0.4359001
0.402323
0.39098913
137.01732
169.8403
210.27729
243.98651
278.50916
333.10021
389.90211
432.74215
454.57432
456.01385
439.03356
401.37217
352.18345
296.7196
239.1733
182.99598
130.85015
84.358036
45.612933
18.740771
5.632483
1.8804211
1.0649287
0.77194782
0.62340342
0.53682874
0.48708747
0.45274549
0.43612628
0.40234987
0.39098296
141.4055
173.27751
212.10043
244.49617
276.18098
327.80277
383.36439
426.42316
449.33945
451.94875
436.18881
399.90885
351.69683
296.88649
239.74191
183.76882
131.68076
85.166717
46.308736
19.184727
5.7840667
1.9087396
1.0706007
0.77473535
0.62535508
0.53770239
0.487599
0.45308171
0.43635803
0.40237859
0.39097617
145.66955
176.57061
213.84138
245.01498
274.23657
322.86952
377.03603
420.18656
444.00676
447.85286
433.28213
398.37919
351.15138
297.01009
240.28136
184.52376
132.50216
85.971149
47.006465
19.631574
5.9405115
1.9380519
1.0763656
0.77755818
0.62730516
0.53857717
0.48812266
0.45341725
0.43659453
0.40240916
0.39096938
149.85977
179.75346
215.49745
245.55907
272.63224
318.29522
370.92948
414.04365
438.66406
443.73238
430.31855
396.78429
350.54751
297.08985
240.79113
185.26032
133.31395
86.771105
47.705808
20.079897
6.1019036
1.9684389
1.0822256
0.78041375
0.62925416
0.53945679
0.48865881
0.45375263
0.43683628
0.40244161
0.39096242
154.02243
182.86068
217.08889
246.14742
271.34264
314.07435
365.05773
408.02361
433.61764
439.60186
427.30305
395.12551
349.88576
297.12521
241.27077
185.97807
134.11574
87.566323
48.406474
20.529206
6.2683082
1.9999267
1.0881904
0.78330376
0.63120667
0.54034626
0.48920852
0.45408894
0.43708381
0.40247591
0.39095474
158.20231
185.94193
218.67423
246.79966
270.33304
310.20088
359.43042
402.13249
428.56071
435.45919
424.23956
393.40469
349.16677
297.11751
241.71986
186.67655
134.90716
88.356575
49.108205
20.979021
6.4397644
2.0325784
1.0942682
0.78622946
0.63316821
0.54124995
0.48977273
0.45442725
0.43733707
0.40251182
0.39094666
162.42537
189.0376
220.29132
247.50665
269.5904
306.66095
354.0547
396.36924
423.38202
431.30019
421.13063
391.62438
348.3913
297.07134
242.13798
187.35532
135.68781
89.141628
49.810812
21.428932
6.6163012
2.0664181
1.1004656
0.7891909
0.63514439
0.54217115
0.49035208
0.45476856
0.43759526
0.40254906
0.39093768
166.70508
192.17528
221.96441
248.22802
269.07963
303.43903
348.93518
390.74335
418.24521
427.12929
417.9764
389.78878
347.56012
296.97576
242.5246
188.01394
136.45731
89.921238
50.514201
21.878546
6.7979241
2.1014974
1.106789
0.79218765
0.63714076
0.54311214
0.49094692
0.45511365
0.43785693
0.40258728
0.39092854
171.04751
195.37278
223.71217
248.97241