/*--------------------------------*- C++ -*----------------------------------*\
| =========                 |                                                 |
| \\      /  F ield         | OpenFOAM: The Open Source CFD Toolbox           |
|  \\    /   O peration     | Version:  2406                                  |
|   \\  /    A nd           | Website:  www.openfoam.com                      |
|    \\/     M anipulation  |                                                 |
\*---------------------------------------------------------------------------*/
FoamFile
{
    version     2.0;
    format      ascii;
    arch        "LSB;label=32;scalar=64";
    class       volScalarField;
    location    "0.045";
    object      nut;
}
// * * * * * * * * * * * * * * * * * * * * * * * * * * * * * * * * * * * * * //

dimensions      [0 2 -1 0 0 0 0];

internalField   nonuniform List<scalar> 
35803
(
0.037702583
0.041462758
0.04585926
0.050866567
0.056477082
0.062663127
0.069367128
0.076497084
0.083913418
0.091382449
0.098510849
0.10470639
0.10908298
0.11033704
0.10661179
0.095496822
0.074454983
0.044150945
0.019523363
0.0095178101
0.0071027408
0.0061350242
0.0055483207
0.0049924678
0.0046223755
0.0044566423
0.0043603037
0.0042547332
0.0041945964
0.0040774968
0.0040323724
0.042456763
0.04624899
0.050528469
0.055351958
0.06073761
0.066668962
0.073092829
0.079915738
0.086994764
0.094091815
0.10080947
0.10653614
0.11037128
0.11099476
0.10653808
0.094601552
0.072808013
0.042361818
0.01824159
0.0092739834
0.0070194014
0.0060945235
0.0055213562
0.0049758396
0.0046131991
0.0044523616
0.0043566992
0.0042530015
0.0041937399
0.0040771651
0.0040324901
0.048053954
0.051743204
0.05587352
0.060494899
0.06563071
0.071271984
0.077371363
0.083836613
0.090519118
0.097174776
0.10340042
0.10857015
0.11176537
0.11164733
0.10633539
0.093445717
0.070773956
0.040158504
0.01705994
0.0089963929
0.0069733831
0.006071432
0.0055049006
0.0049666679
0.00460664
0.0044486977
0.0043535508
0.0042517292
0.0041932204
0.0040770123
0.0040326206
0.054595939
0.058090146
0.0620047
0.066375137
0.071217822
0.076522792
0.082244254
0.08829008
0.094505782
0.10063936
0.10627963
0.11078772
0.1132256
0.11223407
0.10592093
0.091925158
0.068244948
0.037500105
0.015891521
0.008737051
0.0069035763
0.0060334973
0.0054783925
0.0049506282
0.0045951382
0.0044417803
0.0043491758
0.0042498474
0.0041922571
0.004076762
0.004032774
0.062155118
0.065392447
0.069025929
0.073082961
0.077572508
0.082479725
0.087756197
0.093306851
0.098970581
0.10448563
0.10943038
0.11315231
0.11469326
0.11267225
0.1051873
0.089909229
0.065090525
0.034365354
0.014702693
0.0084689356
0.0068359464
0.0059965367
0.0054528583
0.0049330056
0.0045824548
0.0044337904
0.0043446572
0.004248043
0.0041913222
0.0040764984
0.0040329555
0.070768551
0.073690956
0.076986586
0.080666997
0.084735428
0.089171786
0.093922987
0.098888553
0.10389901
0.10868087
0.11279977
0.11558825
0.11606712
0.11283306
0.10397861
0.087219252
0.061146636
0.030767835
0.013491437
0.0082031682
0.006756318
0.0059504579
0.0054209238
0.004909518
0.0045695592
0.0044264332
0.0043390668
0.0042458597
0.0041900781
0.0040761455
0.0040331704
0.08040553
0.082952808
0.085860936
0.089104008
0.092680457
0.096565293
0.10069994
0.10497682
0.1092163
0.11313126
0.11627212
0.11795469
0.1171779
0.11251678
0.1020671
0.083609653
0.056213549
0.026766673
0.012281296
0.0079628522
0.0066717142
0.0059006348
0.0053869007
0.0048880297
0.0045588802
0.0044201818
0.004333165
0.0042436308
0.0041888674
0.0040757217
0.0040334171
0.090899645
0.09304852
0.095515502
0.098258851
0.10127036
0.1045185
0.10793744
0.11141055
0.11474623
0.11764188
0.11963031
0.12000824
0.11775226
0.1114185
0.099121851
0.078746217
0.05006824
0.022501968
0.011109877
0.0077319187
0.0065748933
0.0058419333
0.0053469687
0.004866516
0.0045500288
0.004412894
0.004326436
0.0042409562
0.0041875251
0.0040751614
0.0040337047
0.10192788
0.1036502
0.10562933
0.1078146
0.1101898
0.11271492
0.11531456
0.11786074
0.12014778
0.12185553
0.12249668
0.12134633
0.11735901
0.10907845
0.094664821
0.0721838
0.042526433
0.018872086
0.010044066
0.0075058213
0.0064681156
0.0057769527
0.005303747
0.0048417921
0.0045417518
0.004404753
0.0043196654
0.0042378929
0.0041860656
0.0040744404
0.0040340714
0.11289995
0.11416618
0.11561182
0.11718195
0.11885032
0.12056593
0.12224098
0.12373322
0.12481992
0.12516059
0.12424466
0.12132304
0.1153303
0.104812
0.088019705
0.06334731
0.033597089
0.015498584
0.0090874485
0.0072848982
0.0063458301
0.0057019913
0.0052543752
0.0048095235
0.0045278145
0.0043942622
0.0043131168
0.0042341494
0.0041840276
0.0040734781
0.0040345275
0.12278353
0.12356748
0.12443806
0.12534013
0.12623561
0.1270601
0.12771029
0.128026
0.12776357
0.12655814
0.12387202
0.1189292
0.11065081
0.097616272
0.078249051
0.051577667
0.024142419
0.012476226
0.0082805969
0.0070674109
0.006208737
0.0056186768
0.0052003225
0.0047739567
0.0045112797
0.0043823745
0.0043076363
0.0042299822
0.0041817122
0.0040722394
0.0040350842
0.12987232
0.13015908
0.13042632
0.13062101
0.13069147
0.13055807
0.13009951
0.12913384
0.12739188
0.1244799
0.11982804
0.11262949
0.10181103
0.086064697
0.064112218
0.03645652
0.017652912
0.010211153
0.0077516256
0.0068467304
0.0060526125
0.005523708
0.0051393729
0.0047407602
0.0044946817
0.0043688102
0.0043037391
0.0042255286
0.0041794709
0.0040706846
0.004035775
0.13147738
0.13125334
0.13090149
0.13037709
0.12960744
0.12849056
0.12688223
0.12457489
0.1212712
0.11654627
0.10979025
0.100153
0.086634443
0.068259598
0.044202339
0.022333776
0.01255406
0.0086312739
0.0074636832
0.0066118051
0.0058812004
0.0054188184
0.0050744412
0.0047002469
0.004474762
0.0043540076
0.0043000165
0.0042213113
0.004176796
0.0040688076
0.0040365703
0.1233909
0.12266915
0.12172313
0.12050884
0.1189368
0.11688248
0.11417287
0.11056941
0.10574614
0.099250663
0.090400427
0.078217482
0.062125642
0.042351982
0.025258386
0.014271321
0.0094560748
0.0079733487
0.0070236014
0.0063642309
0.0056891921
0.0053012362
0.0050069777
0.0046585242
0.0044506637
0.0043372536
0.004294121
0.0042141972
0.004171013
0.0040666367
0.0040373785
0.099345704
0.098236543
0.096828565
0.095072189
0.092855096
0.09002758
0.086397911
0.081716173
0.075671088
0.067909389
0.058341979
0.047413743
0.035257766
0.023425673
0.014412341
0.0096541203
0.0080553311
0.0074609212
0.0067654842
0.0060889049
0.0054865786
0.0051829743
0.0049368341
0.0046220692
0.0044245539
0.0043188217
0.0042852557
0.0042047948
0.0041640182
0.0040641692
0.0040381983
0.063170161
0.062148776
0.060908267
0.059415262
0.057560754
0.055211312
0.052256654
0.048561518
0.04399257
0.038435817
0.031943098
0.024966951
0.018428966
0.012871023
0.0093642611
0.0078394007
0.0074828818
0.006888717
0.0062291081
0.005783662
0.0052806038
0.0050618661
0.0048628834
0.0045748668
0.0043929908
0.0042976674
0.0042695695
0.0041934025
0.0041551198
0.0040619055
0.0040389405
0.032213962
0.031757613
0.031143893
0.030352863
0.029338282
0.028040666
0.026450408
0.024473853
0.022067429
0.019247724
0.016137175
0.012961445
0.010295856
0.0082593877
0.0074096108
0.0071528098
0.0066759999
0.0062867914
0.0059575475
0.0054804833
0.0050812102
0.0049434942
0.0047855593
0.0045347598
0.0043596313
0.0042747216
0.0042507119
0.0041800529
0.0041453007
0.0040613475
0.0040394755
0.0153154
0.015215021
0.015007986
0.01468922
0.014259278
0.013712451
0.013063295
0.012272274
0.011323612
0.010250166
0.009062468
0.0078795102
0.0071041904
0.0066813261
0.0067388841
0.0062824802
0.0061547275
0.0058717947
0.0054656396
0.0051607409
0.0049211764
0.004803871
0.0047009629
0.0044940066
0.0043266008
0.004250778
0.004239671
0.0041644447
0.0041336346
0.004060889
0.004039702
0.0083245762
0.0083077218
0.0082564967
0.0081676586
0.0080425235
0.0078744886
0.0076556836
0.0074113919
0.0071436796
0.0068644577
0.0065486863
0.0063152937
0.0062136537
0.006119452
0.005893335
0.0057482537
0.0055472842
0.0053357771
0.005231198
0.0049918215
0.0047600376
0.0046611658
0.004638081
0.0044497254
0.0042893449
0.0042242705
0.0042250361
0.0041499408
0.0041220457
0.0040606406
0.0040395518
0.0059285848
0.0059191664
0.0059110954
0.0059062589
0.0059050639
0.0059041393
0.0058751697
0.0058213618
0.0057753873
0.0057247819
0.0056428609
0.005525792
0.00549301
0.0054208124
0.0053589308
0.0052182467
0.0051454888
0.0050244853
0.0048990007
0.0047656189
0.0045973013
0.004560526
0.0045628506
0.0044057961
0.0042472769
0.0041990376
0.0041935152
0.0041330945
0.0041097333
0.0040605185
0.0040397366
0.0053598862
0.0053507997
0.0053418467
0.0053263703
0.0053042301
0.0052898028
0.0052848875
0.0052847133
0.0052748167
0.0052402706
0.0051982611
0.0051688476
0.0050577356
0.0050465554
0.0049158633
0.004910914
0.0048142546
0.0047270264
0.0047237128
0.0045951392
0.0044970419
0.0044320327
0.0044874202
0.0043520032
0.0042098051
0.0041769453
0.0041680119
0.0041204882
0.0040997961
0.0040599439
0.0040406868
0.0048584947
0.0048479159
0.0048379328
0.004833075
0.0048346913
0.0048294116
0.0048203073
0.0048096353
0.0047988288
0.0047863398
0.0047656477
0.004769895
0.0047732691
0.0046902064
0.0046822711
0.0046009496
0.004644172
0.0045528157
0.0044572375
0.0044092439
0.004357912
0.0043422879
0.0044406479
0.0042921342
0.0041647806
0.0041549511
0.0041523093
0.0041107276
0.0040902764
0.0040586364
0.0040411989
0.0045628191
0.0045658881
0.0045704532
0.0045737133
0.0045721933
0.0045722107
0.0045730517
0.0045725216
0.0045677907
0.0045536393
0.0045234839
0.0044887755
0.0044746057
0.0044642736
0.0044692202
0.0044350922
0.0043857765
0.004376644
0.0043256044
0.0043070216
0.0042806834
0.0042597189
0.0043365203
0.004249738
0.0041291861
0.0041339017
0.0041244085
0.0040975228
0.0040827871
0.00405777
0.0040344204
0.0043491741
0.0043454923
0.0043403474
0.0043350592
0.0043328379
0.0043293624
0.0043253138
0.0043215994
0.0043184355
0.0043156642
0.0043130434
0.0043145437
0.0043106705
0.0043067008
0.0042792083
0.0042842119
0.00425086
0.004274222
0.0041989623
0.004192753
0.0041726838
0.0042060536
0.0042521025
0.0041990872
0.0041030984
0.0041098701
0.0040997082
0.0040829265
0.0040744563
0.0040548051
0.0040350836
0.0042077167
0.0042073976
0.0042066866
0.0042057762
0.0042054443
0.0042060012
0.004207826
0.0042107204
0.0042123836
0.0042106951
0.0042036282
0.0041922768
0.0041840703
0.0041770281
0.0041725487
0.0041687697
0.0041574182
0.0041515793
0.0041085405
0.0041063165
0.0041028578
0.0041442877
0.0042028592
0.0041624179
0.0040844827
0.0040814806
0.0040794333
0.0040708484
0.0040680989
0.0040514422
0.0040344273
0.0041288137
0.0041285677
0.0041279308
0.0041269953
0.0041261625
0.0041255106
0.0041249456
0.0041245289
0.0041238957
0.0041237879
0.0041238049
0.0041232606
0.0041233868
0.004124044
0.0041201819
0.0041219168
0.0041166602
0.0041049088
0.0040836349
0.0040766716
0.0040744394
0.0040965998
0.0041780047
0.0041186674
0.0040702875
0.0040636834
0.004065989
0.0040587462
0.0040627828
0.0040500572
0.0040370251
0.0040802377
0.0040803003
0.0040802107
0.0040799887
0.0040798391
0.0040798902
0.0040803091
0.0040815153
0.004083763
0.0040859297
0.004085881
0.0040827459
0.0040786788
0.0040765111
0.0040772678
0.0040774086
0.0040793998
0.0040787397
0.0040775153
0.0040637585
0.0040597511
0.0040724106
0.0041335236
0.0040950093
0.0040600345
0.0040539999
0.0040572236
0.0040515642
0.0040555161
0.0040469524
0.0040384431
0.0040579922
0.0040579967
0.0040578449
0.0040575843
0.004057335
0.0040571175
0.0040568996
0.0040566105
0.0040567025
0.004056873
0.0040567426
0.0040564515
0.0040561764
0.0040567813
0.0040577814
0.0040587038
0.0040586441
0.0040579543
0.0040563334
0.0040495177
0.0040508914
0.0040581021
0.004076916
0.0040802062
0.004053611
0.0040491979
0.0040510086
0.0040467428
0.0040493328
0.0040434675
0.004038538
0.0040476739
0.0040476724
0.0040476288
0.0040475629
0.0040475132
0.0040474755
0.0040474128
0.0040473214
0.0040472307
0.0040471294
0.0040471916
0.0040476818
0.0040481523
0.0040484712
0.0040492364
0.0040498175
0.0040501777
0.0040485628
0.004047514
0.0040461374
0.004047323
0.0040548613
0.004056567
0.0040671391
0.0040483702
0.0040466152
0.0040462512
0.0040442081
0.004043609
0.0040426474
0.0040387977
0.0040426106
0.0040425601
0.0040425087
0.0040424715
0.0040424779
0.0040425555
0.0040427221
0.0040429623
0.0040432288
0.0040434769
0.0040436854
0.0040438448
0.0040439706
0.0040441482
0.0040445313
0.0040452646
0.0040453158
0.0040443298
0.0040442944
0.0040439915
0.0040463635
0.0040563763
0.004048799
0.0040543014
0.004045303
0.0040418357
0.0040427233
0.0040403834
0.0040411956
0.0040412014
0.0040389991
0.004042699
0.0040426826
0.0040426512
0.0040425962
0.0040425189
0.0040424273
0.0040423402
0.004042273
0.0040422278
0.0040421944
0.0040421589
0.004042114
0.0040420584
0.0040419806
0.0040418402
0.0040413622
0.004040698
0.0040405573
0.0040406436
0.0040419333
0.004045266
0.0040496924
0.0040429879
0.0040436012
0.0040410791
0.0040412583
0.0040410789
0.0040403487
0.0040403759
0.0040406645
0.0040395817
0.002135501
0.0019256903
0.0019876328
0.0024219045
0.0034769529
0.0060115504
0.0098285054
0.01469224
0.020528738
0.027612675
0.035960674
0.044999168
0.054948889
0.065293882
0.075080654
0.082763354
0.0859003
0.080838852
0.064179434
0.039110868
0.018348058
0.0091314056
0.006538798
0.0055634223
0.0050049911
0.0046702081
0.0044651204
0.0043138085
0.0042393174
0.0040871158
0.0040306843
0.0018862132
0.0018043592
0.0021104054
0.0027387982
0.0046531104
0.0078082924
0.011873813
0.01677814
0.022647691
0.029853468
0.038094261
0.047091367
0.056948335
0.067101099
0.076566696
0.083757165
0.086192862
0.080214307
0.06266703
0.037352525
0.017272954
0.0088281157
0.0064505797
0.0055301889
0.004986163
0.004660868
0.0044600147
0.0043107604
0.0042375385
0.0040866612
0.0040306308
0.001700217
0.0018280374
0.0022080599
0.0033689709
0.0058078159
0.009233259
0.013472435
0.018526616
0.024570707
0.031923429
0.04009331
0.049096971
0.058875899
0.068839864
0.077981488
0.084674983
0.086406888
0.079516125
0.061116623
0.035644718
0.01632767
0.0085411099
0.0063972439
0.0055083887
0.00497222
0.0046537605
0.0044559122
0.0043081111
0.004235904
0.0040862249
0.0040305787
0.0016199968
0.0018952396
0.002535318
0.0043543825
0.0071445689
0.010731001
0.015075656
0.020242364
0.026456621
0.033890683
0.042028317
0.051046742
0.060746007
0.070517556
0.07932953
0.085520369
0.086546024
0.078748462
0.059536029
0.033989546
0.015471612
0.008290594
0.0063411267
0.0054834362
0.0049566031
0.0046456951
0.0044514286
0.0043053078
0.0042342416
0.0040857916
0.0040305306
0.0016437833
0.0020145052
0.0032953464
0.0055236553
0.0085225572
0.012226085
0.016673241
0.021957959
0.028363601
0.035775142
0.043929599
0.052954857
0.062566592
0.072139019
0.080614336
0.086296485
0.086613594
0.077915441
0.057933681
0.032386632
0.014684914
0.0080668183
0.0062919857
0.0054607459
0.0049420418
0.0046381003
0.0044471738
0.0043026155
0.0042326251
0.0040853785
0.0040304879
0.0016866935
0.0025396582
0.0042872414
0.006773397
0.0099139611
0.013724525
0.018275456
0.023691872
0.030236332
0.037613237
0.045808238
0.054827793
0.064342143
0.073707505
0.081838668
0.087006155
0.086612794
0.077021065
0.056315944
0.030836807
0.013957957
0.0078665209
0.0062462434
0.0054382359
0.0049274494
0.004630369
0.0044428551
0.0042999091
0.0042310193
0.0040849736
0.0040304508
0.0020057315
0.0033661713
0.0054128591
0.0080646833
0.01131761
0.015230005
0.019883089
0.02544272
0.03207427
0.039434239
0.04766848
0.056668315
0.06607518
0.075225211
0.083004721
0.087651908
0.08654668
0.076069493
0.054688462
0.02934201
0.013286088
0.0076873175
0.0062043122
0.0054166377
0.0049133325
0.0046228178
0.0044386185
0.004297268
0.0042294481
0.0040845803
0.0040304193
0.0027056663
0.0043756123
0.0066020282
0.0093716191
0.01272695
0.016739852
0.021499321
0.027220038
0.033854958
0.041245568
0.049509978
0.058477265
0.06776708
0.076693657
0.084114316
0.08823609
0.086418246
0.075064255
0.053056688
0.027904772
0.012666607
0.0075273078
0.0061654455
0.0053956123
0.0048995171
0.0046153497
0.0044344187
0.0042946725
0.0042279034
0.0040841948
0.0040303932
0.0035627111
0.0054385412
0.0078049344
0.010684369
0.014140574
0.018252835
0.02313004
0.028969346
0.035600794
0.043047207
0.051331089
0.060254626
0.069418564
0.078113957
0.085169058
0.088760967
0.086230504
0.074008772
0.051425018
0.026527843
0.012097421
0.0073850948
0.0061293408
0.0053752501
0.0048861234
0.0046080609
0.0044302786
0.0042921608
0.0042263923
0.0040838188
0.0040303724
0.0045467917
0.0065701104
0.0090369779
0.012006771
0.015556962
0.019766286
0.024777848
0.030686286
0.037339804
0.044837857
0.053129861
0.061999985
0.071029989
0.07948699
0.086170443
0.0892288
0.085986543
0.072908309
0.049797694
0.025215048
0.011576514
0.0072602381
0.0060956102
0.0053554799
0.0048731376
0.0046009537
0.0044261972
0.0042897442
0.0042249129
0.0040834543
0.0040303568
0.0055920592
0.0077075077
0.010260775
0.013323762
0.016971198
0.021282687
0.026429562
0.032375059
0.039072398
0.046613652
0.054904338
0.063712768
0.072601519
0.080813523
0.08711994
0.08964189
0.085689542
0.071768287
0.048179666
0.023974247
0.011101651
0.0071538572
0.0060639352
0.0053363026
0.0048605973
0.0045940667
0.0044221932
0.0042874507
0.0042234684
0.0040831046
0.0040303462
0.0066383315
0.0088384767
0.011482167
0.014640195
0.018383903
0.022805318
0.028063398
0.034030746
0.04079351
0.048371391
0.056652868
0.065392368
0.074133232
0.082094287
0.088019042
0.090002629
0.085343062
0.070593495
0.04657516
0.02280473
0.01066981
0.0070576339
0.0060340166
0.0053176948
0.0048485054
0.0045874101
0.0044182779
0.0042853012
0.0042220616
0.0040827671
0.0040303406
0.0076836403
0.0099679569
0.012701959
0.015953742
0.019791356
0.024336811
0.029654236
0.035675886
0.042501903
0.050108679
0.058374037
0.067038196
0.0756252
0.083330039
0.08886931
0.090313518
0.08495128
0.069389586
0.044989548
0.021699528
0.010278268
0.0069720852
0.006005723
0.0052996464
0.0048368663
0.0045809951
0.0044144633
0.0042833163
0.0042206983
0.0040824412
0.0040303399
0.0087209135
0.011091394
0.013916319
0.017261454
0.02119584
0.025860777
0.03121945
0.037312692
0.044194393
0.051823341
0.060066607
0.068649719
0.077077531
0.084521595
0.089672401
0.090577158
0.084517484
0.068161939
0.043430047
0.020657566
0.0099244692
0.0068954089
0.0059788591
0.0052821425
0.0048256686
0.0045748198
0.0044107583
0.0042815062
0.0042193832
0.0040821258
0.0040303439
0.0097503681
0.012207719
0.015123099
0.018560829
0.022598786
0.027363675
0.032771754
0.038936902
0.045867984
0.053513579
0.061729517
0.070226488
0.078490405
0.085669866
0.090430079
0.090796302
0.084045486
0.066915847
0.041902847
0.019679261
0.0096059198
0.0068266545
0.0059533062
0.0052651721
0.0048148939
0.0045688764
0.0044071739
0.0042798617
0.0042181191
0.0040818205
0.0040303525
0.01076965
0.013313883
0.016319293
0.019848176
0.024003216
0.028831412
0.034313604
0.040544966
0.047520373
0.055177905
0.063361848
0.071768145
0.079864093
0.086775863
0.091144233
0.090973805
0.083540072
0.065656816
0.04041363
0.018765021
0.0093201159
0.0067647756
0.0059289474
0.0052487242
0.0048045165
0.0045631492
0.0044037208
0.0042783297
0.004216904
0.0040815249
0.0040303656
0.011775781
0.014407034
0.017502778
0.021126478
0.02538983
0.030276391
0.035838526
0.042133918
0.049149738
0.056815053
0.064962815
0.073274435
0.081198967
0.087840717
0.091816874
0.091112634
0.083005471
0.064390329
0.038967439
0.017914836
0.009064556
0.0067089171
0.0059056946
0.0052327905
0.0047945093
0.0045576181
0.0044004055
0.0042768133
0.0042157323
0.0040812393
0.0040303828
0.012765711
0.015484612
0.018671009
0.022396059
0.026750521
0.031703662
0.037345557
0.043701973
0.050754585
0.058423917
0.066531744
0.074745202
0.082495508
0.088865672
0.092450134
0.091216231
0.082446068
0.063122018
0.037568623
0.01712819
0.0088367671
0.0066584441
0.0058834707
0.0052173659
0.0047848468
0.0045522607
0.0043972189
0.0042752339
0.0042146004
0.0040809627
0.0040304041
0.013736991
0.016544738
0.019822241
0.023655342
0.028080807
0.033115878
0.038833352
0.045247527
0.052333589
0.060003514
0.068068064
0.076180396
0.083754303
0.089852089
0.093046229
0.091287665
0.081866283
0.061857577
0.036220907
0.016404019
0.0086343288
0.0066125639
0.0058622079
0.0052024494
0.0047755102
0.0045470548
0.0043941441
0.0042735875
0.0042135106
0.0040806947
0.004030429
0.01468841
0.017586381
0.020957884
0.024892832
0.029389823
0.034509663
0.040300059
0.046769096
0.053885547
0.061552963
0.069571302
0.077580058
0.084976041
0.090801443
0.093607492
0.091329744
0.081269521
0.060602523
0.034927438
0.015740714
0.008454913
0.0065705771
0.0058418567
0.0051880453
0.0047664889
0.0045419814
0.0043912025
0.0042718878
0.0042124676
0.0040804348
0.0040304574
0.015619006
0.018608122
0.022078648
0.026103561
0.030680031
0.035883308
0.041744166
0.04826534
0.055409356
0.063071469
0.071041065
0.078944325
0.086161512
0.091715319
0.094136371
0.091346002
0.080658853
0.059361958
0.033690821
0.015136207
0.0082963225
0.0065320549
0.0058223722
0.0051741624
0.0047577812
0.004537028
0.0043884836
0.0042701625
0.0042114684
0.0040801812
0.0040304891
0.016528842
0.019609592
0.023182647
0.027287392
0.031951229
0.037235299
0.043164296
0.049735009
0.056903991
0.064558308
0.072477036
0.080273411
0.087311595
0.092595408
0.094636077
0.091340077
0.080038217
0.058140482
0.032513082
0.01458817
0.0081565152
0.0064965769
0.0058037147
0.0051608132
0.0047493926
0.0045321924
0.0043860734
0.0042685072
0.0042105004
0.0040799331
0.0040305236
0.017418366
0.020591721
0.024263994
0.028449466
0.033201147
0.038564111
0.044559185
0.051176916
0.058368487
0.066012815
0.073878961
0.081567609
0.088427241
0.093443397
0.095109092
0.091315781
0.079411421
0.056942849
0.031395675
0.014100276
0.0080336428
0.0064638094
0.0057858492
0.0051480116
0.0047413321
0.0045274837
0.0043839823
0.004267019
0.0042095566
0.0040796911
0.0040305607
0.018288161
0.021555251
0.025320947
0.029590639
0.03442863
0.039868453
0.045927682
0.052589908
0.059801927
0.067434373
0.075246637
0.082827272
0.08950947
0.094261469
0.095557421
0.091276807
0.078783263
0.055771838
0.030339788
0.013662701
0.0079258972
0.0064334671
0.005768744
0.0051357689
0.0047336085
0.0045229191
0.0043821666
0.004265716
0.0042086353
0.004079455
0.0040306
0.01913877
0.022502138
0.026352045
0.03071071
0.035632629
0.041147087
0.047267583
0.05397285
0.06120343
0.068822397
0.076579902
0.084052808
0.090559343
0.095051416
0.095984182
0.091226885
0.078158774
0.054630609
0.029346572
0.013270787
0.0078318026
0.0064053179
0.0057523709
0.0051240906
0.0047262259
0.004518519
0.0043806186
0.0042645468
0.0042077209
0.0040792261
0.0040306413
0.019971588
0.023428321
0.027361739
0.031808278
0.03681215
0.042398874
0.048575965
0.055324732
0.062572148
0.070176329
0.077878615
0.085244634
0.091578625
0.095814815
0.096392331
0.091169788
0.077542642
0.053522426
0.028417047
0.012921499
0.0077503223
0.00637917
0.0057367052
0.0051129722
0.0047191801
0.0045143038
0.0043793219
0.0042634804
0.0042067993
0.0040790075
0.0040306841
0.020787631
0.024334076
0.028350554
0.032882729
0.037966281
0.043623096
0.049854999
0.056644871
0.063907263
0.07149563
0.079142617
0.08640353
0.092568194
0.096553907
0.096784799
0.091109305
0.07693921
0.052450186
0.027551891
0.012612304
0.0076812057
0.0063548679
0.0057217253
0.0051023972
0.0047124568
0.0045102868
0.0043782616
0.0042625119
0.0042058766
0.0040788009
0.0040307283
0.021588115
0.025219578
0.029318661
0.033933455
0.039094043
0.044818874
0.051106543
0.057932421
0.065207934
0.072779747
0.080371991
0.08752975
0.093528532
0.097270715
0.097164507
0.091049209
0.076352552
0.051416389
0.026751323
0.012340792
0.0076229223
0.0063322851
0.0057074133
0.0050923359
0.0047060342
0.0045064668
0.0043774073
0.0042616201
0.004204967
0.0040786035
0.0040307727
0.022374652
0.026085289
0.030265694
0.034959773
0.040194453
0.045984699
0.052325627
0.059183837
0.06647321
0.074028384
0.081567412
0.088623394
0.094461077
0.097967199
0.097534368
0.090993246
0.075786559
0.050423308
0.026015135
0.012104604
0.0075723684
0.0063113265
0.0056937547
0.0050827477
0.0046998897
0.0045028244
0.0043767233
0.0042607807
0.0042040804
0.0040784021
0.0040308167
0.023147792
0.02693264
0.031191057
0.035961002
0.04126658
0.047119416
0.053510605
0.060398681
0.067702449
0.075241777
0.082728125
0.08968522
0.095367039
0.098645323
0.097897258
0.090945122
0.075244969
0.049473027
0.025342797
0.011901505
0.0075294371
0.0062919232
0.0056807479
0.0050736182
0.0046939591
0.0044993376
0.0043761884
0.0042600154
0.0042032186
0.0040781926
0.0040308607
0.02390762
0.027762689
0.032094729
0.036936539
0.042309445
0.048221906
0.054661512
0.061582674
0.068894585
0.076418517
0.083853162
0.090715611
0.096247543
0.099307012
0.098256007
0.090908498
0.074731412
0.048567455
0.02473351
0.011729188
0.0074915485
0.0062737648
0.0056683934
0.0050648936
0.0046882237
0.0044959836
0.0043757812
0.0042593154
0.004202377
0.0040779961
0.004030905
0.024655077
0.028575921
0.03297675
0.037886164
0.043322719
0.049291676
0.055777424
0.062730391
0.070047814
0.077557096
0.084942697
0.091714825
0.097103646
0.099954126
0.09861337
0.090886975
0.074249422
0.047708474
0.024193693
0.011580265
0.0074532177
0.0062567915
0.0056566804
0.0050565503
0.0046826665
0.0044927405
0.0043754613
0.0042586766
0.0042015498
0.004077831
0.0040309499
0.02539326
0.029374865
0.033838877
0.038811007
0.044307102
0.050328864
0.056857655
0.063838719
0.071165648
0.07865396
0.085996357
0.092683119
0.097936315
0.10058843
0.098972012
0.090884105
0.073802829
0.046905364
0.023710035
0.011438021
0.0074163066
0.0062410006
0.0056456037
0.0050485743
0.0046772877
0.0044895981
0.0043751954
0.0042581278
0.0042007489
0.0040776787
0.0040309957
0.026120563
0.030158939
0.034680914
0.039710224
0.045260822
0.051331648
0.057898988
0.064905413
0.072241692
0.079715709
0.087013732
0.093620703
0.098746417
0.10121156
0.09933447
0.090903393
0.073396002
0.046164077
0.023275226
0.011302673
0.007380578
0.006226371
0.0056351573
0.0050409746
0.0046720993
0.00448656
0.0043749494
0.0042576723
0.0041999984
0.0040775366
0.0040310427
0.026828865
0.030921311
0.03549748
0.040579624
0.04617979
0.052295135
0.058898445
0.065929974
0.073275477
0.080737515
0.087992723
0.094527629
0.099534707
0.10182505
0.099703119
0.09094812
0.073033476
0.045488592
0.022884444
0.011173427
0.0073463308
0.0062128862
0.0056253363
0.0050337781
0.0046671276
0.0044836482
0.0043746874
0.0042573153
0.0041993069
0.0040774118
0.0040310915
0.027504503
0.031648761
0.036276903
0.04141017
0.047058287
0.053216057
0.059855029
0.066910888
0.074266007
0.081718148
0.08893775
0.095400386
0.10030169
0.10243025
0.10008018
0.091021374
0.07271989
0.04488161
0.022533278
0.01104962
0.0073136701
0.0062005289
0.0056161357
0.0050270266
0.0046624085
0.0044808998
0.0043743812
0.0042570285
0.0041986676
0.0040773137
0.0040311427
0.028161694
0.032348456
0.037021939
0.042201746
0.047895097
0.054093998
0.060767026
0.06784678
0.075212165
0.082656652
0.089845139
0.096247038
0.10104336
0.10302821
0.10046768
0.091126122
0.072459813
0.044345045
0.022217862
0.010930621
0.0072827275
0.0061892835
0.0056075508
0.0050207687
0.004657983
0.0044783364
0.0043740088
0.0042568128
0.0041980836
0.0040772344
0.0040311968
0.028812963
0.033031735
0.037741096
0.042959638
0.048692325
0.054928406
0.061633284
0.068736338
0.076112758
0.083552061
0.090714116
0.09706271
0.10177046
0.10361625
0.10086732
0.091265066
0.072257566
0.043880437
0.021934791
0.010815823
0.0072536168
0.0061791362
0.0055995772
0.0050150517
0.0046538884
0.0044759645
0.0043735545
0.0042566668
0.0041975471
0.0040771737
0.0040312546
0.029457195
0.033699782
0.038436364
0.043685554
0.049450739
0.05571898
0.062452796
0.069578261
0.076966528
0.084403302
0.091543954
0.097846934
0.10247722
0.10420386
0.10127955
0.091440618
0.072117231
0.043489218
0.021680991
0.010704618
0.0072264608
0.0061700754
0.0055922113
0.0050099141
0.0046501497
0.0044737899
0.0043730099
0.0042565801
0.0041970459
0.0040771294
0.004031317
0.030091948
0.034351274
0.039107356
0.04437951
0.050170264
0.056465188
0.0632245
0.070371215
0.077772152
0.085209196
0.092333806
0.098599286
0.10316361
0.10478668
0.10170866
0.091654993
0.072042603
0.043172968
0.021453566
0.010596383
0.0072013989
0.0061620914
0.0055854514
0.0050053801
0.0046467751
0.0044718071
0.0043723732
0.0042565348
0.0041965804
0.0040770992
0.004031387
0.0307152
0.034984512
0.039752844
0.045040655
0.050850176
0.057166138
0.063947214
0.071113801
0.078528232
0.085968471
0.093082699
0.099319189
0.10382953
0.10536513
0.10215408
0.091909437
0.072037109
0.042933649
0.02124965
0.010490463
0.007178601
0.0061551768
0.0055792981
0.0050014578
0.0046437468
0.0044699948
0.0043716473
0.0042565118
0.0041961464
0.0040770833
0.0040314606
0.031325628
0.035598072
0.040371482
0.0456678
0.051489401
0.057820686
0.064619668
0.071804534
0.079233268
0.08667977
0.093789532
0.1000059
0.10447467
0.1059394
0.10261662
0.092206947
0.072103134
0.042773395
0.021066664
0.010386152
0.0071582816
0.0061493261
0.0055737544
0.0049981424
0.0046410082
0.0044683294
0.0043708362
0.0042564893
0.004195744
0.0040770811
0.0040315359
0.031922491
0.036190929
0.040962057
0.0462597
0.052086731
0.058427533
0.065240579
0.072441788
0.079885756
0.087344403
0.094457401
0.10066324
0.10510272
0.10651258
0.10309884
0.09254936
0.072245246
0.042695244
0.020901533
0.010282671
0.0071407159
0.0061445333
0.0055688242
0.004995424
0.0046384948
0.0044667715
0.0043699405
0.0042564479
0.0041953982
0.004077091
0.004031618
0.032505509
0.036762397
0.041523526
0.046815144
0.052640955
0.058985278
0.06580903
0.073030383
0.080494998
0.087962032
0.095077825
0.10128018
0.10570418
0.1070779
0.10359664
0.092934216
0.0724635
0.042702283
0.020750301
0.010179122
0.0071262562
0.0061407891
0.0055645098
0.0049932951
0.0046361316
0.0044652838
0.0043689537
0.0042563795
0.0041951409
0.0040771113
0.0040317061
0.033074998
0.037312157
0.042055024
0.04733301
0.053150842
0.059494164
0.066331318
0.073566177
0.081038118
0.088520166
0.095650472
0.10186096
0.10628289
0.10763834
0.10411233
0.093363687
0.072759999
0.042803402
0.020608037
0.010074449
0.0071153624
0.0061380828
0.0055608114
0.0049917615
0.0046338503
0.0044638295
0.0043678636
0.0042562876
0.0041949213
0.0040771437
0.0040318001
0.033632415
0.037840476
0.04255591
0.047812398