/*--------------------------------*- C++ -*----------------------------------*\
| =========                 |                                                 |
| \\      /  F ield         | OpenFOAM: The Open Source CFD Toolbox           |
|  \\    /   O peration     | Version:  2406                                  |
|   \\  /    A nd           | Website:  www.openfoam.com                      |
|    \\/     M anipulation  |                                                 |
\*---------------------------------------------------------------------------*/
FoamFile
{
    version     2.0;
    format      ascii;
    arch        "LSB;label=32;scalar=64";
    class       volScalarField;
    location    "0.045";
    object      T;
}
// * * * * * * * * * * * * * * * * * * * * * * * * * * * * * * * * * * * * * //

dimensions      [0 0 0 1 0 0 0];

internalField   nonuniform List<scalar> 
35803
(
292.46058
292.46583
292.47024
292.47857
292.49091
292.5064
292.52407
292.54268
292.56045
292.57596
292.58738
292.59233
292.5891
292.57588
292.55282
292.52088
292.48711
292.47351
292.53666
292.61876
292.66101
292.68792
292.71041
292.72962
292.76478
292.78609
292.82309
292.83244
292.84542
292.85624
293.03892
292.50906
292.51034
292.51312
292.51898
292.52767
292.53894
292.55222
292.56641
292.5799
292.59175
292.60021
292.60275
292.59748
292.58262
292.55815
292.52529
292.49162
292.48021
292.54723
292.62588
292.66528
292.69103
292.71295
292.73172
292.76606
292.78745
292.8239
292.83315
292.84636
292.8564
293.03909
292.57168
292.56814
292.56672
292.56822
292.57214
292.57834
292.58641
292.59546
292.60422
292.61176
292.61667
292.61618
292.60835
292.5914
292.56512
292.53097
292.49698
292.48849
292.55952
292.63361
292.66994
292.69445
292.71572
292.73384
292.76742
292.78885
292.82462
292.83387
292.84755
292.8565
293.03899
292.64106
292.63329
292.62727
292.62383
292.62257
292.62337
292.62596
292.62962
292.63332
292.63604
292.63658
292.63247
292.62156
292.60209
292.57362
292.53782
292.50348
292.49889
292.57377
292.64226
292.67528
292.69843
292.71895
292.73629
292.76972
292.79082
292.82527
292.83464
292.84896
292.85665
293.03884
292.71308
292.70207
292.69208
292.68402
292.67771
292.67311
292.67012
292.66823
292.66659
292.6642
292.65989
292.65158
292.6371
292.61466
292.58365
292.54605
292.51164
292.51214
292.59026
292.65188
292.68139
292.70301
292.72264
292.7393
292.77333
292.79343
292.82589
292.83544
292.85053
292.8569
293.03854
292.78651
292.773
292.75981
292.74779
292.73689
292.72722
292.71879
292.71133
292.70417
292.69641
292.68691
292.67391
292.65533
292.62944
292.59548
292.55594
292.52178
292.52918
292.60916
292.66253
292.68836
292.7083
292.72687
292.74302
292.77724
292.79624
292.82654
292.83641
292.85226
292.85728
293.03796
292.86064
292.84519
292.82949
292.81423
292.79943
292.78524
292.77177
292.75891
292.74622
292.73292
292.71795
292.69982
292.67664
292.6468
292.60947
292.5679
292.53457
292.55126
292.63039
292.67429
292.69629
292.7144
292.73171
292.74684
292.78056
292.79873
292.82731
292.8376
292.85413
292.85782
293.03724
292.93439
292.9177
292.90022
292.88244
292.86445
292.84641
292.82847
292.81062
292.79256
292.7737
292.75312
292.72954
292.70134
292.66709
292.62599
292.58244
292.55111
292.57924
292.65355
292.68727
292.70534
292.72142
292.73723
292.75095
292.78277
292.801
292.82826
292.83902
292.85613
292.85857
293.03806
293.00603
292.98886
292.97044
292.95101
292.93067
292.90959
292.88791
292.86566
292.84266
292.81845
292.79229
292.76312
292.72962
292.6906
292.64548
292.60013
292.57332
292.61378
292.67787
292.70166
292.71566
292.72949
292.7435
292.75617
292.78471
292.80336
292.82951
292.84065
292.85819
292.85955
293.03709
293.07371
293.05672
293.03807
293.01788
292.99619
292.97307
292.9486
292.92278
292.89551
292.86645
292.835
292.80036
292.76149
292.71753
292.66835
292.622
292.60433
292.65498
292.70275
292.71761
292.72749
292.73871
292.75065
292.76205
292.78829
292.80625
292.83112
292.84249
292.8605
292.86082
293.03616
293.13607
293.11979
293.10166
293.08155
293.05938
293.03512
293.00878
292.98035
292.94969
292.91653
292.88041
292.8407
292.79672
292.74798
292.6952
292.65028
292.64886
292.70079
292.72803
292.7353
292.74105
292.74925
292.75882
292.76896
292.79227
292.80997
292.83327
292.8446
292.8631
292.86254
293.03515
293.19285
293.17704
293.15939
293.13977
293.1178
293.09328
293.06611
293.03616
293.00323
292.96703
292.92717
292.8832
292.83475
292.78193
292.72749
292.69063
292.70925
292.74527
292.75398
292.75488
292.7565
292.76129
292.76823
292.77674
292.79728
292.81448
292.8359
292.84697
292.8658
292.86486
293.03632
293.24215
293.22722
293.21018
293.19093
293.16937
293.14525
293.11822
293.0879
293.05392
293.0159
292.97347
292.92637
292.8747
292.82
292.77052
292.7543
292.77625
292.78565
292.78084
292.77632
292.7738
292.77522
292.77906
292.78553
292.80302
292.81967
292.83888
292.84954
292.86816
292.86759
293.03499
293.28194
293.26827
293.25277
293.23507
293.21466
293.19128
293.16463
293.13434
293.09999
293.06112
293.01747
292.96923
292.91782
292.86834
292.83731
292.8393
292.83626
292.82181
292.80922
292.79968
292.79336
292.79084
292.79148
292.7953
292.8099
292.82565
292.84233
292.85235
292.87042
292.87021
293.03358
293.31004
293.29697
293.2822
293.26569
293.24699
293.22531
293.20018
293.17142
293.13869
293.10165
293.06032
293.01624
292.97377
292.94209
292.92798
292.91071
292.88116
292.85714
292.83894
292.82507
292.81485
292.80847
292.80543
292.80612
292.81785
292.83239
292.84718
292.85602
292.87294
292.87224
293.03198
293.32832
293.31718
293.3038
293.28776
293.26921
293.24866
293.22615
293.2012
293.17386
293.14404
293.11209
293.07977
293.04941
293.02334
292.99397
292.95552
292.91985
292.89172
292.86994
292.85218
292.83827
292.82773
292.82113
292.81794
292.82709
292.84009
292.85297
292.86063
292.87582
292.87362
293.0304
293.34939
293.34178
293.33314
293.32298
293.31008
293.29316
293.27203
293.24707
293.22021
293.19372
293.1666
293.13645
293.10272
293.06558
293.02769
292.99146
292.95535
292.92517
292.90039
292.88027
292.86302
292.84894
292.8384
292.83094
292.83713
292.84862
292.86082
292.86638
292.8791
292.87472
293.02904
293.31781
293.31106
293.30356
293.29534
293.28678
293.27841
293.27041
293.26208
293.24936
293.22791
293.1991
293.16398
293.12805
293.09177
293.05659
293.02234
292.98756
292.95551
292.92903
292.90798
292.88874
292.87143
292.85693
292.84521
292.84833
292.85805
292.86979
292.87291
292.8833
292.87746
293.02832
293.29675
293.29099
293.28415
293.27595
293.26607
293.25409
293.23976
293.22358
293.20727
293.19155
293.17627
293.16438
293.14687
293.113
293.07847
293.047
293.01494
292.98345
292.95538
292.93413
292.91384
292.89444
292.87665
292.86176
292.86121
292.86864
292.87942
292.87995
292.88913
292.88402
293.02509
293.25144
293.24784
293.24375
293.23913
293.23393
293.22811
293.22151
293.2138
293.20457
293.19324
293.17809
293.15679
293.13591
293.12181
293.09448
293.06633
293.03839
293.00919
292.98084
292.9575
292.93649
292.91688
292.89716
292.88133
292.87807
292.88153
292.88834
292.88777
292.89768
292.8947
293.03433
293.22607
293.22303
293.21943
293.21515
293.21001
293.20382
293.19643
293.18773
293.17775
293.16666
293.1552
293.14409
293.13127
293.11602
293.10447
293.08043
293.05538
293.02981
293.00405
292.97815
292.95618
292.9377
292.91612
292.90207
292.89886
292.89818
292.89778
292.89742
292.90911
292.9087
293.0436
293.18914
293.1872
293.18501
293.18252
293.17968
293.17648
293.17283
293.16863
293.16363
293.15737
293.14911
293.13785
293.12426
293.10975
293.09417
293.08265
293.06811
293.04473
293.02108
292.9952
292.97334
292.95652
292.93337
292.92006
292.91882
292.91763
292.91294
292.91098
292.92067
292.92361
293.05364
293.16929
293.16764
293.16568
293.16332
293.16046
293.15698
293.15273
293.14761
293.14154
293.13461
293.12704
293.11915
293.11051
293.09972
293.08794
293.07424
293.05743
293.0461
293.02793
293.00681
292.98765
292.97229
292.95041
292.9349
292.93431
292.93372
292.93092
292.92581
292.93131
292.93581
293.05683
293.12629
293.12517
293.12389
293.1224
293.12071
293.1188
293.11664
293.1142
293.11141
293.10804
293.10369
293.0979
293.09053
293.08203
293.07145
293.06045
293.05118
293.03775
293.02597
293.01029
292.99651
292.98253
292.96613
292.94776
292.94591
292.94382
292.94329
292.93889
292.94273
292.94455
293.05748
293.10114
293.10042
293.09956
293.09851
293.09722
293.09565
293.09371
293.09131
293.08832
293.08462
293.08036
293.07573
293.0708
293.06536
293.05957
293.05196
293.04219
293.03411
293.02321
293.01329
293.00048
292.98806
292.97819
292.96134
292.95747
292.95312
292.95099
292.94738
292.95216
292.94956
293.05429
293.06189
293.06147
293.06098
293.0604
293.05971
293.05892
293.05803
293.05709
293.05615
293.05527
293.05429
293.05286
293.05062
293.0474
293.04329
293.03921
293.03472
293.02856
293.02375
293.01679
293.00695
292.99434
292.98512
292.97057
292.96614
292.96466
292.96199
292.95803
292.95813
292.95081
293.05356
293.04341
293.04315
293.04283
293.04242
293.0419
293.04124
293.04038
293.03927
293.03783
293.03602
293.0339
293.03165
293.02953
293.02771
293.02601
293.0238
293.02132
293.01918
293.01726
293.02149
293.02076
293.0067
292.99489
292.97662
292.97336
292.97616
292.97235
292.97121
292.96724
292.95456
293.04546
293.0152
293.0151
293.01499
293.01486
293.01472
293.01459
293.0145
293.01447
293.01459
293.01487
293.0153
293.01581
293.01617
293.01597
293.01508
293.01384
293.01193
293.00888
293.00563
293.00248
293.00712
293.0116
293.00548
292.99114
292.98843
292.99109
292.98674
292.99001
292.98628
292.9745
293.03602
293.00098
293.00102
293.00105
293.00109
293.00112
293.00115
293.00118
293.00118
293.00115
293.00106
293.00088
293.00056
293.00013
292.99975
292.9993
292.99862
292.99755
292.99613
292.99542
292.99645
293.00031
293.01036
293.01069
293.00311
293.00042
293.00443
293.00223
293.0073
293.00622
293.00055
293.03527
292.99165
292.99174
292.99184
292.99195
292.99206
292.99218
292.99231
292.99244
292.99258
292.99275
292.99298
292.9933
292.99372
292.99424
292.99497
292.99578
292.9962
292.99657
292.9977
293.00101
293.00684
293.01975
293.02513
293.01917
293.01343
293.01745
293.01155
293.01441
293.01713
293.01609
293.03689
293.00484
293.00506
293.00534
293.00565
293.00601
293.00639
293.0068
293.00723
293.00767
293.0081
293.00854
293.00899
293.00946
293.00996
293.01047
293.01092
293.01226
293.01455
293.0155
293.01419
293.0131
293.01463
293.02991
293.02514
293.02294
293.02199
293.01742
293.02144
293.01997
293.02627
293.02885
293.05062
293.13245
293.24363
293.30113
293.26164
293.1663
293.05268
292.94802
292.85956
292.78503
292.72111
292.66523
292.61567
292.57104
292.52947
292.4899
292.44858
292.40646
292.36174
292.36499
292.44465
292.54389
292.60253
292.64691
292.70135
292.73806
292.77
292.78297
292.80388
292.83046
293.05859
293.09804
293.18852
293.26075
293.25308
293.19474
293.10308
293.00297
292.91145
292.83226
292.76394
292.70432
292.65172
292.60478
292.56223
292.52227
292.48394
292.44343
292.40235
292.36022
292.36681
292.45139
292.54891
292.60553
292.64922
292.70345
292.73969
292.77091
292.78354
292.80445
292.83123
293.05819
293.16067
293.24896
293.27645
293.2409
293.16126
293.06229
292.96674
292.88253
292.8094
292.74562
292.68947
292.63969
292.59509
292.55441
292.51589
292.47864
292.43884
292.39858
292.35898
292.369
292.45819
292.55373
292.60836
292.65138
292.70542
292.74125
292.77176
292.78407
292.805
292.83216
293.05803
293.23691
293.29022
293.27574
293.21153
293.1184
293.02161
292.93374
292.85653
292.78864
292.72879
292.67573
292.62855
292.58611
292.54717
292.50999
292.47373
292.43459
292.39506
292.358
292.37163
292.46512
292.55843
292.61116
292.65354
292.70739
292.74281
292.7726
292.78458
292.80554
292.83312
293.05786
293.30259
293.30211
293.25336
293.16916
293.07404
292.98408
292.90384
292.83257
292.76915
292.71277
292.66261
292.6179
292.57754
292.54026
292.50436
292.46903
292.43059
292.39178
292.35729
292.37473
292.47215
292.56301
292.61391
292.6557
292.70934
292.74437
292.77341
292.78507
292.80606
292.83413
293.05767
293.32697
293.28683
293.21268
293.12224
293.03219
292.95012
292.87648
292.81016
292.75064
292.69744
292.65003
292.60771
292.56936
292.53367
292.49901
292.46457
292.42684
292.38878
292.35682
292.37833
292.47923
292.56745
292.61662
292.65784
292.71126
292.7459
292.7742
292.78554
292.80658
292.83518
293.05746
293.31811
293.24933
293.16529
293.07707
292.99443
292.91941
292.85114
292.78902
292.73297
292.68275
292.63801
292.598
292.56158
292.52742
292.49395
292.46036
292.42337
292.38603
292.3565
292.38244
292.4863
292.57173
292.61928
292.65996
292.71314
292.74742
292.77497
292.78598
292.8071
292.83623
293.05726
293.2852
293.20225
293.11759
293.03588
292.96047
292.89118
292.82731
292.76887
292.71602
292.66868
292.62652
292.58876
292.55422
292.52153
292.48919
292.45641
292.42016
292.3835
292.35633
292.38707
292.49331
292.57585
292.62191
292.66207
292.71499
292.7489
292.77572
292.78642
292.80761
292.83726
293.05707
293.23736
293.15304
293.07366
292.99896
292.92945
292.86471
292.80461
292.74952
292.69971
292.65517
292.61554
292.57998
292.54725
292.51598
292.48473
292.45272
292.41721
292.38121
292.3564
292.39214
292.50019
292.57984
292.62449
292.66416
292.7168
292.75035
292.77645
292.78684
292.80813
292.83823
293.0569
293.18556
293.10687
293.0341
292.9653
292.90044
292.83948
292.78277
292.73085
292.68399
292.6422
292.60507
292.57165
292.54068
292.51078
292.48056
292.44927
292.41449
292.37921
292.35677
292.39754
292.50695
292.58369
292.62704
292.66623
292.71856
292.75176
292.77717
292.78727
292.80864
292.83912
293.05675
293.13693
293.06519
292.99807
292.93385
292.87275
292.81513
292.7616
292.71275
292.66882
292.62977
292.59508
292.56377
292.53451
292.50591
292.47669
292.44608
292.41201
292.37748
292.35747
292.40321
292.51357
292.58741
292.62956
292.66829
292.72028
292.75312
292.77789
292.78771
292.80916
292.83993
293.05662
293.09305
293.02709
292.96434
292.90377
292.84591
292.7914
292.74099
292.69518
292.65417
292.61784
292.58559
292.55633
292.52872
292.50139
292.47312
292.44313
292.40979
292.37599
292.3585
292.40921
292.52005
292.591
292.63204
292.67033
292.72196
292.75443
292.77861
292.78819
292.80969
292.84067
293.05648
293.05286
292.99126
292.93192
292.87445
292.81959
292.76815
292.72085
292.6781
292.64004
292.60643
292.57657
292.54932
292.52333
292.4972
292.46983
292.44043
292.40787
292.37472
292.35987
292.41553
292.52638
292.59449
292.6345
292.67235
292.72359
292.75569
292.77935
292.78873
292.81023
292.84134
293.05631
293.01478
292.95651
292.90006
292.84546
292.79358
292.74526
292.70113
292.6615
292.62641
292.59551
292.56803
292.54276
292.51832
292.49335
292.46684
292.438
292.40617
292.37369
292.36156
292.42213
292.53253
292.59787
292.63694
292.67436
292.72518
292.7569
292.78012
292.78936
292.81078
292.84196
293.0561
292.97742
292.92196
292.86824
292.81653
292.76773
292.72265
292.68179
292.64535
292.61327
292.5851
292.55997
292.53662
292.51369
292.48984
292.46413
292.4358
292.4047
292.37299
292.36355
292.42898
292.5385
292.60115
292.63935
292.67635
292.72672
292.75805
292.78091
292.7901
292.81135
292.84253
293.05584
292.93975
292.88701
292.83612
292.78746
292.74196
292.70029
292.66282
292.62967
292.60064
292.57519
292.55237
292.53092
292.50945
292.48666
292.46172
292.43384
292.4035
292.37264
292.36583
292.43603
292.54427
292.60435
292.64173
292.67831
292.72823
292.75915
292.78174
292.79093
292.81193
292.84307
293.05554
292.90108
292.85124
292.80346
292.75817
292.71622
292.67816
292.64424
292.61446
292.58851
292.56578
292.54526
292.52565
292.50559
292.48383
292.45959
292.43215
292.40252
292.37261
292.36837
292.44324
292.54984
292.60746
292.6441
292.68026
292.7297
292.76019
292.78259
292.79184
292.81253
292.84359
293.0552
292.86092
292.81441
292.77013
292.72859
292.6905
292.65628
292.62605
292.59973
292.5769
292.55688
292.53861
292.52081
292.50211
292.48132
292.45774
292.43076
292.40175
292.37285
292.37116
292.45059
292.5552
292.61051
292.64645
292.6822
292.73114
292.76118
292.78346
292.79282
292.81315
292.84411
293.05484
292.81899
292.77634
292.7361
292.69873
292.66483
292.63467
292.60829
292.58549
292.56581
292.54848
292.53244
292.51639
292.49901
292.47916
292.4562
292.42967
292.4012
292.3733
292.3742
292.45802
292.56037
292.6135
292.64877
292.68411
292.73255
292.76212
292.78437
292.79385
292.81379
292.84465
293.05448
292.77513
292.73704
292.7014
292.66866
292.63927
292.61339
292.59098
292.57178
292.55525
292.5406
292.52675
292.51241
292.4963
292.47733
292.45495
292.42887
292.40085
292.37392
292.37753
292.46549
292.56532
292.61643
292.65108
292.686
292.73392
292.76301
292.78532
292.79493
292.81446
292.84521
293.05411
292.72942
292.6966
292.66615
292.63848
292.61389
292.59248
292.57417
292.55861
292.54525
292.53325
292.52153
292.50886
292.49397
292.47582
292.45399
292.42836
292.40064
292.37471
292.38121
292.47295
292.57009
292.61931
292.65337
292.68787
292.73528
292.76385
292.78635
292.79607
292.81517
292.84579
293.05375
292.68214
292.65526
292.63056
292.60833
292.58881
292.57204
292.5579
292.54603
292.5358
292.52641
292.5168
292.50574
292.49201
292.47464
292.45337
292.42812
292.40066
292.37566
292.38525
292.48035
292.57466
292.62215
292.65564
292.68971
292.7366
292.76465
292.78746
292.79728
292.81591
292.84641
293.05339
292.63378
292.61339
292.59489
292.57842
292.56416
292.55214
292.54224
292.53404
292.52694
292.52012
292.51254
292.50304
292.49043
292.47381
292.45307
292.42812
292.40094
292.37677
292.38965
292.48763
292.57905
292.62494
292.6579
292.69153
292.7379
292.7654
292.78866
292.79855
292.81668
292.84707
293.05301
292.58498
292.57147
292.55948
292.54895
292.54007
292.53287
292.52723
292.5227
292.51867
292.51436
292.50877
292.50078
292.48921
292.47336
292.45305
292.42835
292.40146
292.37806
292.39438
292.49476
292.58327
292.6277
292.66014
292.69333
292.73918
292.76611
292.78996
292.79989
292.81748
292.84777
293.05261
292.53652
292.5301
292.52458
292.52011
292.51669
292.51435
292.51295
292.51204
292.51101
292.50915
292.50549
292.49892
292.48838
292.47328
292.4533
292.42884
292.40217
292.3796
292.39943
292.50172
292.58732
292.63043
292.66236
292.6951
292.74042
292.76679
292.79136
292.80129
292.81831
292.84852
293.05218
292.48894
292.48955
292.49059
292.49216
292.49421
292.49669
292.49944
292.50208
292.50398
292.50449
292.50267
292.49747
292.48801
292.47353
292.45385
292.42958
292.40308
292.38137
292.40477
292.50849
292.59123
292.63312
292.66456
292.69684
292.74164
292.76745
292.79293
292.80277
292.81917
292.84932
293.05172
292.44291
292.45036
292.45787
292.46536
292.47276
292.47995
292.48679
292.49286
292.49757
292.50037
292.5003
292.49657
292.48806
292.47406
292.45469
292.43057
292.4042
292.38336
292.41034
292.51505
292.59499
292.63578
292.66675
292.69854
292.74282
292.76808
292.79463
292.8043
292.82005
292.85016
293.05124
292.39905
292.41301
292.42671
292.43994
292.4525
292.46425
292.47503
292.4844
292.49179
292.49675
292.49848
292.49616
292.48841
292.47492
292.45582
292.43181
292.40553
292.38558
292.41612
292.52139
292.59862
292.6384
292.66892
292.70022
292.74397
292.7687
292.7964
292.8059
292.82097
292.85101
293.05073
292.35784
292.37788
292.39744
292.41612
292.43358
292.44964
292.46418
292.47669
292.48661
292.49373
292.49731
292.49616
292.48914
292.47612
292.45725
292.43331
292.40708
292.38796
292.42204
292.52752
292.60214
292.641
292.67106
292.70185
292.74508
292.76932
292.79821
292.80755
292.82191
292.85183
293.05018
292.31967
292.3453
292.37031
292.39409
292.41611
292.43615
292.4542
292.46967
292.48215
292.49158
292.49672
292.49648
292.49025
292.47765
292.45897
292.43509
292.40888
292.39052
292.42805
292.53343
292.60553
292.64355
292.67318
292.70345
292.74615
292.76994
292.80001
292.80921
292.82288
292.85253
293.04962
292.28487
292.31553
292.34552
292.37396
292.40015
292.4238
292.44508
292.46355
292.47886
292.49017
292.49651
292.49725
292.49173
292.4795
292.46098
292.43714
292.41092
292.39327
292.43414
292.53911
292.60882
292.64607
292.67527
292.705
292.74717
292.77058
292.80173
292.81083
292.82387
292.85302
293.04905
292.25386
292.28898
292.32335
292.35592
292.38585
292.41291
292.43746
292.45887
292.4764
292.4892
292.49681
292.49849
292.49358
292.48169
292.46329
292.43946
292.41321
292.39622
292.44024
292.54458
292.61204
292.64855
292.67735
292.70652
292.74815
292.77123
292.80341
292.81239
292.82489
292.85337
293.04852
292.22843
292.26705
292.3049
292.34086
292.37396
292.40412
292.43173
292.45532
292.47453
292.48878
292.49761
292.50015
292.49581
292.48421
292.46589
292.44205
292.41572
292.39936
292.44634
292.54987
292.61518
292.65101
292.6794
292.70799
292.74908
292.77191
292.80506
292.81385
292.82593
292.85365
293.04801
292.20913
292.25044
292.29081
292.32934
292.36482
292.39768
292.42723
292.45242
292.47331
292.48893
292.49887
292.50222
292.49841
292.48705
292.46878
292.4449
292.41846
292.40269
292.45241
292.55498
292.61827
292.65343
292.68142
292.70942
292.74997
292.77261
292.8067
292.81521
292.82701
292.8539
293.04754
292.19436
292.23782
292.28005
292.32025
292.35793
292.39273
292.42344
292.45035
292.47275
292.48963
292.50059
292.50469
292.50137
292.49021
292.47195
292.44799
292.42141
292.40622
292.45841
292.55993
292.62129
292.65582
292.68342
292.71082
292.75083
292.77334
292.80832
292.81653
292.82813
292.85414
293.04708
292.18188
292.22684
292.27052
292.31217
292.35171
292.3882
292.4206
292.44915
292.4729
292.49089
292.50278
292.50757
292.5047
292.49369
292.47541
292.4513
292.42459
292.40993
292.46434
292.56473
292.62426
292.65818
292.68539
292.71219
292.75166
292.77408
292.80993
292.81781
292.82929
292.85435
293.04663
292.17443
292.21949
292.26364
292.30621
292.34691
292.38473
292.41879
292.44882
292.47377
292.49273
292.50546
292.51087
292.5084
292.4975
292.47915
292.45485
292.42798
292.41383
292.47017
292.56937
292.62718
292.6605
292.68734
292.71352
292.75249
292.77486
292.81149
292.81908
292.83051
292.85459
293.0462
292.17308
292.21676
292.2602
292.30277
292.34395
292.38272
292.41811
292.44941
292.47539
292.49518
292.50864
292.51459
292.51246
292.50163
292.48318
292.45862
292.43158
292.41789
292.4759
292.57387
292.63004
292.66279
292.68925
292.71483
292.75332
292.77567
292.81298
292.82036
292.83182
292.85491
293.04575
292.1762
292.2176
292.25966
292.30168
292.34293
292.3823
292.41866
292.45099
292.4778
292.49826
292.51231
292.51873
292.51688
292.50609
292.48749
292.46262
292.43538
292.42211
292.48151
292.57823
292.63286
292.66505
292.69114
292.71612
292.75418
292.77652
292.81436
292.82164
292.83323
292.85529
293.04525
292.18185
292.22089
292.26149
292.30281
292.3439
292.38357
292.42054
292.45359
292.481
292.50197
292.51649
292.52329
292.52166
292.51086
292.49208
292.46685
292.43938
292.42646
292.48701
292.58246
292.63564
292.66728
292.69299
292.71739
292.75507
292.77738
292.81562
292.82292
292.83475
292.85573
293.04435
292.18883
292.22607
292.26556
292.30621
292.34698
292.38662
292.42382
292.45727
292.48501
292.50632
292.52116
292.52825
292.5268
292.51596
292.49696
292.47131
292.44356
292.43094
292.49238
292.58656
292.63837
292.66947
292.69483
292.71865
292.756
292.77826
292.81674
292.8242
292.83632
292.85599
293.04453
292.1975
292.23362
292.27228
292.31224
292.3524
292.3916
292.42859
292.46204
292.48984
292.51132
292.52632
292.53362
292.53228
292.52137
292.50212
292.47599
292.4479
292.43552
292.49762
292.59053
292.64105
292.67164
292.69663
292.71989
292.75698
292.77915
292.81772
292.82544
292.83792
292.85625
293.04412
292.20988
292.24496
292.2826
292.32143
292.36045
292.39863
292.43489
292.46787
292.49548
292.51695
292.53196
292.53939
292.53811
292.52709
292.50755
292.4809
292.45239
292.4402
292.50274
292.59438
292.64369
292.67377
292.69841
292.72112
292.75798
292.78004
292.81857
292.82664
292.83921
292.8564
293.04361
292.22864
292.26184
292.2975
292.33429
292.37134
292.40781
292.44271
292.47476
292.50194
292.5232
292.53809
292.54554
292.54427
292.53312
292.51327
292.48603
292.45703
292.44494
292.50772
292.5981
292.64629
292.67588
292.70017
292.72234
292.75902
292.78092
292.81931
292.82776
292.84034
292.85643
293.04309
292.25553
292.28525
292.31745
292.35096
292.38505
292.41905
292.45196
292.48267
292.5092
292.53005
292.54467
292.55207
292.55076
292.53945
292.51925
292.49138
292.4618
292.44973
292.51257
292.60171
292.64884
292.67796
292.70192
292.72355
292.76006
292.78179
292.81997
292.82879
292.84139
292.85638
293.04256
292.28995
292.31457
292.34184
292.37092
292.40122
292.43203
292.46246
292.49153
292.51713
292.53744
292.5517
292.55896
292.55755
292.54606
292.52548
292.49697
292.46671
292.45455
292.5173
292.60521
292.65135
292.68002
292.70365
292.72476
292.7611
292.78265
292.82059
292.8297
292.84237
292.85631
293.04203
292.3287
292.34732
292.36887
292.39293
292.41893
292.4462
292.474
292.50113
292.5255
292.54522
292.55909
292.56614
292.56459
292.55291
292.53193
292.50273
292.47173
292.4594
292.52196
292.60862
292.65381
292.68204
292.70536
292.72596
292.76211
292.7835
292.82121
292.83051
292.84321
292.85624
293.04155
292.36787
292.38038
292.39606
292.41515
292.43703
292.46094
292.48605
292.5111
292.53404
292.55315
292.56671
292.57352
292.57183
292.55995
292.53855
292.50866
292.47686
292.46423
292.52652
292.61186
292.65617
292.68399
292.70702
292.72713
292.76306
292.78435
292.82185
292.8312
292.84393
292.85621
293.04111
292.40657
292.41406
292.42389
292.43806
292.456
292.47669
292.49906
292.52184
292.54317
292.56141
292.57475
292.58128
292.57939
292.56729
292.54542
292.51477
292.48206
292.46878
292.53073
292.61474
292.65833
292.68579
292.7086
292.72827
292.76391
292.7852
292.82248
292.83183
292.84463
292.85621
293.04062
293.02126
293.0892
293.19359
293.27695
293.2648
293.17976
293.06735
292.96121
292.87058
292.79416
292.7288
292.67175
292.62113
292.57556
292.53325
292.49307
292.45152
292.40889
292.36338
292.36431
292.44043
292.54078
292.60054
292.64538
292.6999
292.73687
292.76932
292.78253
292.80345
292.82986
293.05702
293.01344
293.0717
293.15983
293.24453
293.24722
293.17263
293.0677
292.96471
292.87502
292.79877
292.73334
292.67604
292.62501
292.57892
292.53612
292.49541
292.45358
292.41037
292.36482
292.36345
292.43732
292.53863
292.59914
292.64433
292.69883
292.73592
292.76877
292.78215
292.80307
292.82939
293.05704
293.00835
293.06226
293.14356
293.22811
293.23962
293.17284
293.07195
292.97038
292.88079
292.80423
292.73841
292.68069
292.62916
292.58251
292.53918
292.49791
292.45576
292.41197
292.3662
292.36253
292.43396
292.53619
292.59757
292.64314
292.69765
292.73491
292.76817
292.78172
292.80264
292.82888
293.05709
293.00358
293.05359
293.13017
293.21607
293.2352
293.1743
293.07627
292.97572
292.88617
292.80934
292.74319
292.68512
292.63317
292.58603
292.54222
292.50044
292.45796
292.41366
292.36765
292.36178
292.43068
292.53367
292.59592
292.64189
292.69642
292.73388
292.76754
292.78128
292.80216
292.82835
293.05708
292.99916
293.04553
293.11744
293.20371
293.2306
293.17517
293.08007
292.98065
292.89126
292.81423
292.74781
292.68944
292.63712
292.58954
292.54528
292.50302
292.46021
292.41544
292.36919
292.36118
292.4275
292.53115
292.59427
292.64064
292.69519
292.73284
292.7669
292.78082
292.80167
292.82785
293.057
292.99537
293.0385
293.10592
293.19063
293.2248
293.17539
293.08354
292.9854
292.89625
292.81907
292.75239
292.69375
292.64108
292.59309
292.5484
292.50566
292.46253
292.41729
292.37083
292.36071
292.42439
292.52861
292.59262
292.63939
292.69396
292.73183
292.76625
292.78035
292.80115
292.82737
293.05689
292.99221
293.0325
293.09574
293.17778
293.21801
293.17518
293.08684
292.99009
292.90122
292.82389
292.75698
292.69806
292.64508
292.59669
292.55159
292.50839
292.46491
292.41922
292.37255
292.36036
292.42136
292.52606
292.59097
292.63815
292.69274
292.73083
292.7656
292.77986
292.80062
292.82691
293.05652
292.98969
293.02743
293.08683
293.16573
293.2108
293.17466
293.09002
292.99473
292.90617
292.82873
292.76157
292.70239
292.6491
292.60035
292.55485
292.5112
292.46737
292.42124
292.37436
292.36015
292.41839
292.52349
292.58932
292.6369
292.69153
292.72984
292.76494
292.77936
292.80006
292.82646
293.05641
292.98781
293.02325
293.07908
293.15462
293.20334
293.1738
293.09306
292.99932
292.91113
292.83358
292.76618
292.70674
292.65316
292.60406
292.55817
292.51409
292.4699
292.42334
292.37626
292.36006
292.41551
292.5209
292.58766
292.63565
292.69032
292.72886
292.76428
292.77885
292.79949
292.82602
293.05604
292.98655
293.01991
293.07243
293.14449
293.19567
293.17259
293.09597
293.00388
292.91611
292.83846
292.77082
292.71112
292.65726
292.60783
292.56156
292.51705
292.4725
292.42553
292.37826
292.3601
292.41271
292.51829
292.58601
292.63441
292.68911
292.72788
292.7636
292.77831
292.7989
292.8256
293.05597
292.98589
293.01737
293.06684
293.13537
293.18799
293.171
293.09875
293.00843
292.92112
292.8434
292.77551
292.71555
292.66142
292.61166
292.56502
292.5201
292.47517
292.4278
292.38034
292.36028
292.41
292.51568
292.58435
292.63316
292.6879
292.72692
292.76291
292.77775
292.79829
292.8252
293.05592
292.98582
293.0156
293.06225
293.12729
293.18068
293.16918
293.10142
293.01296
292.92617
292.8484
292.78027
292.72004
292.66563
292.61555
292.56855
292.52322
292.47792
292.43016
292.38251
292.3606
292.40739
292.51305
292.58269
292.63191
292.6867
292.72595
292.7622
292.77716
292.79768
292.82484
293.0559
292.98632
293.01457
293.05861
293.12027
293.17383
293.16729
293.104
293.01751
292.93129
292.85347
292.7851
292.72459
292.6699
292.61951
292.57216
292.52642
292.48074
292.4326
292.38476
292.36106
292.40488
292.51041
292.58103
292.63067
292.68551
292.72499
292.76148
292.77655
292.79707
292.82452
293.05593
292.98739
293.01423
293.05587
293.1143
293.16754
293.16543
293.10651
293.02208
292.93649
292.85864
292.79001
292.72922
292.67425
292.62354
292.57583
292.5297
292.48364
292.43511
292.38705
292.36166
292.40248
292.50777
292.57938
292.62944
292.68433
292.72403
292.76073
292.77591
292.79645
292.82425
293.05599
292.989
293.01455
293.05398
293.10938
293.16187
293.16378
293.10897
293.02668
292.94177
292.86392
292.79502
292.73393
292.67867
292.62765
292.57959
292.53305
292.48661
292.4377
292.38941
292.36236
292.4002
292.50512
292.57774
292.62821
292.68315
292.72307
292.75996
292.77524