/*--------------------------------*- C++ -*----------------------------------*\
| =========                 |                                                 |
| \\      /  F ield         | OpenFOAM: The Open Source CFD Toolbox           |
|  \\    /   O peration     | Version:  2406                                  |
|   \\  /    A nd           | Website:  www.openfoam.com                      |
|    \\/     M anipulation  |                                                 |
\*---------------------------------------------------------------------------*/
FoamFile
{
    version     2.0;
    format      ascii;
    arch        "LSB;label=32;scalar=64";
    class       volScalarField;
    location    "0.042";
    object      omega;
}
// * * * * * * * * * * * * * * * * * * * * * * * * * * * * * * * * * * * * * //

dimensions      [0 0 -1 0 0 0 0];

internalField   nonuniform List<scalar> 
35803
(
21839.719
19390.922
16970.36
14664.084
12515.219
10548.556
8778.3659
7210.5122
5844.2734
4674.6375
3690.9718
2877.9962
2217.6761
1690.3991
1275.8868
954.00788
703.70358
497.20958
325.41719
227.57382
182.91714
154.10024
134.37975
122.57096
114.7534
109.48691
105.8906
101.58364
100.29079
98.177262
97.101485
19087.899
17058.308
15072.836
13160.225
11347.664
9658.4692
8111.1183
6718.4304
5487.8505
4421.0632
3513.6363
2755.8004
2134.6983
1634.8604
1239.2436
930.07902
687.65967
485.21621
316.28867
223.26184
180.9416
152.91127
133.66296
122.11346
114.486
109.3233
105.78563
101.52316
100.25676
98.175266
97.105609
16468.103
14853.68
13252.567
11687.477
10179.954
8750.7817
7419.035
6200.7477
5108.0227
4147.6273
3320.3263
2621.4843
2042.8898
1573.0927
1198.3286
903.25537
669.5875
471.67779
306.97334
220.1086
179.70618
152.23016
133.2325
121.79198
114.27106
109.18146
105.72094
101.46987
100.22785
98.176708
97.11012
14005.437
12759.932
11501.119
10247.865
9018.6922
7832.3417
6707.2081
5660.3086
4706.05
3854.6192
3110.8636
2474.5741
1941.6911
1504.5655
1152.6863
873.14851
649.11613
456.00992
296.87534
216.29128
177.91163
151.12461
132.52812
121.30537
113.94294
108.98209
105.63026
101.40299
100.19152
98.177606
97.114254
11738.669
10802.028
9837.0165
8857.5128
7878.2164
6915.0164
5984.473
5102.9476
4285.4004
3543.8413
2886.0045
2315.1873
1830.901
1428.9612
1101.9891
839.43445
625.83393
437.67377
285.71503
212.24623
176.0582
150.03341
131.84393
120.81021
113.59155
108.77885
105.55302
101.3347
100.15643
98.178634
97.118757
9691.7262
9005.1757
8283.4414
7536.9457
6776.118
6013.1925
5261.8426
4536.471
3851.1625
3218.3171
2647.3137
2143.9548
1710.6137
1346.1109
1045.9711
801.79162
599.24115
416.38318
273.54621
207.83839
173.87343
148.68672
130.98226
120.18943
113.19664
108.55277
105.45785
101.25646
100.11949
98.179156
97.124119
7876.7954
7387.2471
6860.7011
6306.4547
5730.9965
5142.773
4552.0356
3970.3732
3409.9242
2882.2748
2397.2478
1962.1073
1581.2849
1256.0317
984.44123
759.89433
568.70758
391.83015
260.56674
203.11929
171.46898
147.22763
130.05564
119.52385
112.8593
108.32291
105.35873
101.17334
100.0884
98.179505
97.130214
6297.6263
5957.1682
5583.3805
5183.3018
4760.4343
4319.9707
3868.8498
3415.5721
2969.7282
2541.2185
2139.2722
1771.5977
1443.8325
1158.9943
917.31215
713.41024
533.40139
363.72115
247.17542
198.02962
168.73071
145.53404
128.96006
118.757
112.53781
108.06528
105.2392
101.08981
100.05285
98.179618
97.135112
4949.5514
4719.0331
4461.2651
4180.9907
3879.6631
3559.9971
3226.1515
2883.7592
2539.7344
2201.814
1877.8688
1575.164
1299.7101
1055.5783
844.60587
661.96065
492.25487
332.25516
233.93952
192.53603
165.68724
143.67562
127.75205
117.88511
112.18355
107.80193
105.11083
101.00263
100.00527
98.1796
97.142602
3822.3493
3670.6671
3498.1996
3307.8832
3099.9396
2875.4272
2636.4537
2386.3163
2129.4984
1871.4801
1618.3481
1376.27
1150.9045
946.67923
766.45589
604.86594
443.82082
298.81515
221.30765
186.57492
162.26609
141.57446
126.3566
116.84553
111.70755
107.51476
104.96613
100.91157
99.940961
98.179161
97.152446
2899.1013
2802.3816
2690.6244
2565.5575
2426.8044
2274.4714
2109.3284
1932.9776
1747.9476
1557.6863
1366.4183
1178.8608
999.79508
833.39931
682.89587
540.55413
386.70309
266.13175
209.44307
180.12196
158.47355
139.25233
124.8125
115.7709
111.12419
107.20071
104.81077
100.81853
99.875167
98.177864
97.164791
2158.0172
2098.5421
2028.6659
1949.3563
1860.0412
1760.3943
1650.442
1530.695
1402.2766
1267.0159
1127.47
986.8452
848.76836
716.70639
593.15996
465.20465
324.17252
238.56904
198.14756
173.17462
154.26187
136.6226
123.08123
114.59929
110.48815
106.84168
104.62869
100.72495
99.800229
98.175628
97.176551
1574.5016
1539.0855
1497.0536
1448.7634
1393.5873
1331.0046
1260.6729
1182.4859
1096.6758
1003.925
905.45814
803.11141
699.33875
596.53507
493.47153
374.56933
268.74754
217.57067
186.77871
165.83851
149.67812
133.70701
121.21601
113.34378
109.79639
106.39759
104.42147
100.63306
99.730828
98.171072
97.198082
1120.6412
1100.3662
1076.103
1047.9295
1015.3373
977.7908
934.76221
885.78767
830.54053
768.90049
701.00369
627.42022
549.83969
469.04356
378.92052
285.46752
232.20085
200.058
175.27671
158.48292
144.51558
130.55622
119.19908
112.0916
108.95965
105.84527
104.1663
100.54335
99.659954
98.162276
97.227725
767.88405
756.70454
743.25634
727.48672
708.95304
687.17278
661.64896
631.76945
596.91079
556.33555
509.21767
455.60996
398.16451
336.53949
278.02479
235.02248
206.92566
183.92757
165.04793
150.52817
139.53639
127.18382
116.99109
110.89077
108.06454
105.24098
103.8539
100.4559
99.607786
98.145085
97.265891
494.54826
488.22563
480.88727
472.49905
462.52962
450.3024
435.35847
417.05832
394.94362
368.8051
340.06881
309.8653
280.31481
248.59622
224.10066
206.48649
188.74922
170.3407
153.66157
143.22177
134.16261
123.6957
114.9021
109.70464
107.11453
104.63006
103.4703
100.36626
99.553713
98.122805
97.310233
319.17631
315.99813
312.22188
307.85875
302.724
296.47376
289.52529
281.24424
270.76537
258.76469
245.69772
232.61107
218.85334
202.81235
195.24367
184.32656
171.39572
157.27103
145.50589
136.36149
129.26673
119.8838
112.97547
108.54968
106.07481
103.97843
103.08356
100.25545
99.499189
98.115372
97.349668
223.65592
222.63979
221.48133
219.95451
217.98561
215.27197
211.67973
208.05542
203.79034
199.62072
196.20843
193.88147
186.15598
177.56287
168.29865
161.10349
157.80815
148.71877
136.18417
130.01515
124.14933
116.89071
111.17437
107.35493
104.99335
103.31849
102.69531
100.10143
99.421286
98.116561
97.365136
175.70521
175.14506
174.52441
173.81705
173.04529
172.3918
171.52672
169.42307
167.04639
164.98216
162.5173
162.43499
161.3458
158.36408
149.83311
141.84378
139.03827
135.71052
129.84351
124.74322
120.3413
113.5181
109.24888
106.07882
104.0688
102.74505
102.32817
99.896903
99.311811
98.1344
97.344626
151.66437
151.17519
150.5012
149.4745
148.06923
146.49568
145.31428
144.34991
143.587
142.95011
143.02509
139.98968
137.1619
134.48292
133.66502
128.9886
125.02427
124.58935
121.57279
119.20766
114.97298
111.34123
107.50377
104.65702
103.18377
102.1963
101.7543
99.659987
99.163132
98.168684
97.406888
131.46355
131.29892
131.26678
131.41537
131.81255
132.12736
132.24937
132.04543
131.23401
129.37135
126.39421
124.58412
123.45491
122.05719
120.28661
120.5556
117.34642
115.16897
114.83538
113.78559
111.01844
108.47118
105.44589
103.30516
102.38496
101.72294
101.27722
99.40124
98.937375
98.239903
97.475519
120.3608
120.13155
119.81567
119.29465
118.59382
118.10766
117.73031
117.39305
117.05927
116.69434
116.87309
116.6236
115.12553
114.23362
112.45046
111.93808
111.24192
110.09046
109.015
108.94893
107.11815
105.5673
103.91909
102.24225
101.45653
101.18024
100.67276
99.163423
98.775738
98.369337
97.493294
111.10132
111.04336
110.99675
111.00704
111.10988
111.27087
111.36245
111.34829
111.16758
110.62423
109.37382
108.69181
108.3557
107.77964
107.65731
106.59469
106.17176
105.95366
105.75035
106.21059
105.05298
103.05538
101.95314
101.21887
100.55184
100.58211
100.26579
98.969544
98.661929
98.429361
97.549758
106.11939
106.06306
105.97376
105.83061
105.63058
105.40129
105.23726
105.09299
104.95541
104.82491
104.72088
104.86342
104.83151
104.61959
103.96592
103.82647
103.48102
103.78437
103.28007
103.27174
103.38719
101.70931
100.15236
100.28589
99.910356
99.966727
99.832427
98.778536
98.5881
98.317629
97.5772
102.13852
102.1287
102.11027
102.08862
102.09076
102.14077
102.20616
102.24498
102.23909
102.16984
101.97647
101.65987
101.42783
101.23027
101.0926
101.00129
100.84199
100.81822
100.33769
100.40221
100.9103
100.28518
99.293113
99.216387
99.233732
99.343552
99.420996
98.551318
98.466566
98.326487
97.595755
100.14921
100.13648
100.10928
100.07259
100.03401
99.996751
99.966773
99.944116
99.941117
99.955179
99.968495
99.961215
99.949483
99.888744
99.74059
99.766905
99.631892
99.490852
99.380701
99.484712
99.634029
99.458403
98.879407
98.640746
98.8328
98.818565
98.92968
98.357157
98.346959
98.257914
97.706726
98.941462
98.94237
98.940088
98.935023
98.933214
98.938763
98.958091
99.006957
99.071419
99.115661
99.097137
99.016196
98.911606
98.850477
98.85418
98.84246
98.885678
98.910142
98.940622
99.089706
98.923306
98.657106
98.623315
98.383069
98.450618
98.503057
98.605484
98.230182
98.24586
98.106833
97.881651
98.406428
98.403982
98.398592
98.392134
98.386646
98.383007
98.382629
98.387716
98.398558
98.410813
98.417405
98.415771
98.407822
98.407702
98.427783
98.451745
98.483573
98.539007
98.625021
98.586354
98.489283
98.35932
98.332323
98.280246
98.29775
98.361572
98.420871
98.159649
98.183402
98.053734
98.015888
98.21433
98.212768
98.209964
98.206505
98.203377
98.201345
98.201287
98.203836
98.210357
98.221409
98.235276
98.247752
98.258112
98.269724
98.291596
98.311593
98.343179
98.374722
98.435882
98.420706
98.327022
98.287958
98.239062
98.242639
98.250223
98.294184
98.337868
98.147419
98.136084
98.067181
98.109394
98.268992
98.269556
98.269585
98.269008
98.267772
98.265848
98.263131
98.259406
98.254205
98.247415
98.24025
98.236833
98.236749
98.241134
98.250254
98.269435
98.293432
98.327517
98.374549
98.357089
98.322303
98.339442
98.343823
98.34214
98.329452
98.280088
98.331859
98.260771
98.182359
98.252653
98.23008
98.374755
98.374753
98.374201
98.372977
98.371108
98.368826
98.366479
98.364382
98.362667
98.361154
98.359547
98.357929
98.357029
98.356943
98.357942
98.361361
98.365887
98.367768
98.357508
98.342031
98.337755
98.369547
98.382202
98.381193
98.352548
98.363721
98.37755
98.347582
98.340031
98.358237
98.336189
58486.3
84738.286
103583.74
100172.74
84548.937
59897.906
42706.977
31241.516
23083.363
17004.73
12416.687
8959.4988
6382.0977
4490.408
3123.3768
2150.1805
1466.76
989.35845
656.27968
425.88515
273.2183
192.13201
155.61987
136.99174
124.26982
114.71348
108.21398
103.02804
101.2857
98.230243
96.961882
78213.483
106734.99
109699.08
98943.566
71299.15
50540.903
37393.881
28165.933
21173.716
15768.474
11603.805
8424.8033
6034.4618
4267.6922
2982.9112
2063.02
1413.481
957.0326
636.86389
414.06366
266.5344
189.1162
154.34228
136.31125
123.87301
114.49202
108.09671
102.98286
101.26368
98.221051
96.963037
103275.17
118174.12
111312.62
87704.048
61944.643
45366.881
34228.719
26022.744
19681.173
14735.948
10897.701
7949.3411
5720.4633
4064.1774
2853.3886
1982.0591
1363.6974
926.66403
618.57794
402.94948
260.62856
186.89794
153.48409
135.83093
123.59054
114.33696
108.01475
102.95342
101.24688
98.21175
96.964486
125176.81
122176.25
105809.73
75187.22
54587.249
41180.56
31568.499
24188.704
18387.506
13827.993
10267.854
7520.4039
5434.4527
3877.2416
2733.5529
1906.6812
1317.0942
898.07613
601.31389
392.44714
255.15519
184.73714
152.55024
135.29124
123.26638
114.15723
107.91907
102.91769
101.23003
98.203103
96.966271
134704.63
122383.22
90142.058
65066.372
48988.851
37781.408
29280.979
22572.405
17236.715
13013.766
9698.6182
7130.1232
5172.4491
3704.8736
2622.387
1836.3716
1273.4068
871.13278
585.01374
382.47604
249.97815
182.70746
151.68365
134.78615
122.96272
113.99162
107.8318
102.88618
101.21528
98.194632
96.968416
137580.29
106574.64
76968.211
57711.059
44643.227
34921.663
27270.856
21128.59
16201.204
12276.378
9180.4453
6773.1256
4931.501
3545.4923
2519.0569
1770.6951
1232.4069
845.71376
569.60642
372.97936
245.06688
180.79954
150.84174
134.28274
122.65507
113.82303
107.74253
102.85352
101.20131
98.186608
96.970938
124654.9
90218.842
67316.9
52125.682
41072.541
32443.297
25483.638
19830.645
15263.822
11604.983
8706.7425
6445.4229
4709.2991
3397.8087
2422.8609
1709.2765
1193.894
821.71447
555.02317
363.91992
240.41179
179.00792
150.03469
133.79309
122.35349
113.6587
107.65586
102.82203
101.18858
98.178864
96.973866
103658.19
77526.106
60170.979
47701.055
38051.489
30266.095
23885.268
18659.453
14412.024
10991.689
8272.5025
6143.8689
4503.9643
3260.7444
2333.1977
1651.7881
1157.6904
799.03414
541.20176
355.27229
236.00607
177.32623
149.25666
133.31269
122.05417
113.49533
107.56945
102.79019
101.17666
98.171492
96.977141
88927.481
68957.45
54820.372
44064.861
35437.352
28334.358
22449.612
17599.312
13635.773
10430.314
7873.6725
5865.8746
4313.923
3133.379
2249.5453
1597.9412
1123.6382
777.58174
528.07643
347.01811
231.84313
175.74797
148.50711
132.84335
121.75929
113.33456
107.48433
102.75834
101.16558
98.164433
96.980778
77988.824
62224.735
50397.982
40949.388
33140.042
26609.41
21155.795
16637.048
12926.95
9915.7375
7506.8347
5609.2466
4137.8283
3014.9142
2171.4448
1547.4791
1091.5961
757.29302
515.58776
339.14087
227.91696
174.26692
147.78403
132.38452
121.46871
113.17603
107.40002
102.72598
101.15516
98.157707
96.984751
69921.451
57043.415
46776.819
38269.982
31108.293
25062.515
19986.494
15761.591
12278.76
9443.5186
7169.0318
5372.0883
3974.5083
2904.6484
2098.4892
1500.172
1061.4374
738.10952
503.68731
331.62206
224.22171
172.87671
147.08615
131.9366
121.18341
113.02049
107.31692
102.69317
101.1454
98.151282
96.989025
63942.795
52876.202
43689.315
35914.154
29294.249
23669.745
18927.047
14963.512
11685.322
9009.7447
6857.6703
5152.7371
3822.9304
2801.9592
2030.3141
1455.8131
1033.051
719.9715
492.32222
324.44352
220.75073
171.57101
146.4122
131.49964
120.90393
112.86827
107.23508
102.65986
101.1362
98.14515
96.993568
59192.735
49363.776
40999.117
33824.292
27667.842
22412.645
17964.918
14234.8
11141.531
8610.9503
6570.4561
4949.7213
3682.1764
2706.2895
1966.5915
1414.2152
1006.3415
702.83146
481.44979
317.59077
217.49642
170.34393
145.76114
131.07381
120.63092
112.71994
107.15478
102.62626
101.12747
98.139289
96.998328
55273.742
46343.821
38632.002
31960.476
26205.162
21275.277
17089.371
13568.719
10642.847
8244.0434
6305.3477
4761.7288
3551.4243
2617.1381
1907.0245
1375.2078
981.21617
686.64226
471.06521
311.0524
214.45066
169.18997
145.13205
130.65924
120.36486
112.57587
107.07621
102.5926
101.119
98.133687
97.003238
51934.678
43704.436
36532.133
30290.881
24886.267
20244.003
16291.332
12959.37
10185.193
7906.261
6060.5209
4587.5835
3429.9343
2534.0516
1851.3432
1338.6349
957.58661
671.36056
461.15384
304.81895
211.60488
168.10389
144.52416
130.25604
120.10606
112.43632
106.99967
102.55924
101.11053
98.128325
97.008247
49039.265
41377.465
34660.158
28790.589
23694.467
19307.145
15563.021
12401.497
9764.9237
7595.1327
5834.3404
4426.2273
3317.0379
2456.6186
1799.3014
1304.3531
935.3746
656.94644
451.69993
298.88271
208.95014
167.08082
143.9368
129.8643
119.85461
112.30136
106.92547
102.52647
101.10171
98.123183
97.013305
46502.771
39313.873
32984.911
27439.134
22615.329
18454.605
14897.753
11890.408
9378.7812
7308.4473
5625.3371
4276.7056
3212.1292
2384.4644
1750.6737
1272.2309
914.51055
643.3629
442.6861
293.23802
206.4773
166.11622
143.36942
129.48408
119.61045
112.17087
106.85482
102.49454
101.09206
98.118239
97.018363
44266.525
37475.849
31481.045
26219.131
21636.42
17677.779
14289.654
11421.932
9023.8589
7044.2225
5432.1878
4138.1547
3114.6582
2317.2475
1705.254
1242.1527
894.92922
630.5774
434.09351
287.88106
204.17726
165.20591
142.82153
129.11539
119.37336
112.04452
106.78753
102.46356
101.08115
98.113479
97.023364
42285.419
35832.602
30127.443
25115.71
20747.017
16969.27
13733.52
10992.354
8697.5574
6800.678
5253.6994
4009.7926
3024.1242
2254.6557
1662.8524
1214.0074
876.56971
618.56082
425.90294
282.80846
202.04111
164.34603
142.29272
128.75819
119.14309
111.92187
106.72365
102.43347
101.06883
98.108907
97.028217
40521.347
34358.383
28906.45
24115.981
19937.852
16322.696
13224.713
10598.356
8397.549
6576.2132
5088.7939
3890.9099
2940.0715
2196.4033
1623.2931
1187.6828
859.36525
607.28502
418.09564
278.01598
200.06008
163.53307
141.78262
128.41239
118.91939
111.8024
106.66332
102.40414
101.05469
98.104562
97.032825
38944.432
33032.035
27802.929
23208.84
19200.994
15732.398
12759.103
10236.976
8121.7466
6369.3866
4936.497
3780.8625
2862.0844
2142.2291
1586.415
1163.0805
843.24673
596.7206
410.65369
273.49824
198.22563
162.76387
141.2909
128.07782
118.70208
111.68564
106.60667
102.37549
101.03793
98.100519
97.037119
37529.07
31835.555
26803.798
22384.657
18529.557
15193.344
12333.005
9905.5635
7868.2769
6178.8995
4795.927
3679.0655
2789.784
2091.894
1552.0808
1140.1134
828.15715
586.83599
403.55939
269.24917
196.52951
162.03562
140.81727
127.75429
118.49106
111.57135
106.55286
102.34759
101.0183
98.096882
97.041023
36254.265
30753.78
25897.674
21635.03
17917.524
14701.05
11943.134
9601.7455
7635.4564
6003.5802
4666.2854
3584.9876
2722.8248
2045.1783
1520.1533
1118.704
814.0458
577.60596
396.79546
265.26235
194.96372
161.34586
140.36146
127.44155
118.28624
111.45957
106.50103
102.31993
100.99634
98.093776
97.044487
35101.894
29773.561
25074.657
20952.675
17359.531
14251.527
11586.554
9323.3951
7421.7716
5842.3715
4546.8495
3498.1462
2660.8914
2001.8889
1490.4965
1098.778
800.87285
568.98684
390.34864
261.53119
193.52064
160.69243
139.92324
127.13935
118.08743
111.3508
106.45075
102.29185
100.97238
98.091308
97.047473
34056.577
28883.495
24326.104
20331.192
16850.789
13841.225
11260.637
9068.6033
7225.8608
5694.3191
4436.9645
3418.103
2603.6979
1961.8413
1463.0021
1080.2672
788.60602
560.94687
384.21166
258.04911
192.193
160.07352
139.50243
126.84747
117.89435
111.24594
106.40163
102.26309
100.94646
98.089559
97.049942
33105.321
28073.153
23644.445
19764.984
16387.063
13466.942
10963.026
8835.6609
7046.4991
5558.5617
4336.0378
3344.4595
2551.0013
1924.859
1437.5671
1063.1089
777.21234
553.45935
378.38115
254.80942
190.97403
159.4876
139.09886
126.56576
117.70675
111.14615
106.35327
102.23346
100.91825
98.088561
97.051847
32236.749
27334.136
23023.17
19249.146
15964.597
13125.811
10691.61
8623.0369
6882.5856
5434.3232
4243.5314
3276.8752
2502.5581
1890.7975
1414.0964
1047.2455
766.65838
546.49743
372.8548
251.80521
189.85709
158.93345
138.71241
126.29409
117.52459
111.05262
106.30553
102.20294
100.88708
98.088321
97.053176
31441.381
26659.022
22456.532
18779.254
15580.008
12815.323
10444.503
8429.344
6733.1306
5320.9029
4158.978
3215.0148
2458.1339
1859.5175
1392.5035
1032.6239
756.91134
540.03449
367.62987
249.02904
188.83588
158.41009
138.34299
126.03242
117.34789
110.96605
106.25885
102.17178
100.85224
98.0887
97.053982
30711.043
26041.344
21939.48
18351.377
15230.287
12533.211
10220.05
8253.3316
6597.242
5217.6961
4081.9813
3158.5603
2417.5391
1830.8911
1372.7091
1019.1956
747.94003
534.04587
362.70349
246.47289
187.90481
157.91678
137.99053
125.78064
117.17684
110.88542
106.21433
102.14039
100.81475
98.089537
97.054399
30038.624
25475.436
21467.564
17962.022
14912.755
12277.452
10016.74
8093.8673
6474.1478
5124.2058
4012.1247
3107.2661
2380.5969
1804.8031
1354.6417
1006.9165
739.71545
528.50917
358.07351
244.12839
187.05875
157.45285
137.65507
125.53873
117.01202
110.80712
106.17303
102.10934
100.77625
98.090748
97.05454
29417.808
24956.281
21036.856
17608.103
14625.014
12046.224
9833.2539
7950.176
6363.2541
5039.8838
3949.0205
3060.8884
2347.147
1781.1499
1338.2362
995.74658
732.21113
523.40428
353.7388
241.98871
186.29157
157.0178
137.3367
125.30668
116.85414
110.72663
106.13507
102.07911
100.74063
98.092269
97.054537
28843.095
24479.52
20643.984
17287.073
14365.14
11838.118
9668.5926
7821.5668
6263.8994
4964.228
3892.3652
3019.2047
2317.0454
1759.8381
1323.4345
985.64999
725.40337
518.71344
349.70779
240.03801
185.59543
156.61134
137.03534
125.08458
116.70329
110.64397
106.0998
102.04942
100.71219
98.094145
97.054536
28314.076
24044.123
20287.72
16997.752
14132.2
11652.301
9521.94
7706.9886
6175.4052
4896.8522
3841.8697
2982.0189
2290.1627
1740.784
1310.1843
976.59436
719.27135
514.42203
345.98734
238.25939
184.96902
156.23334
136.75097
124.87255
116.55875
110.56258
106.06623
102.01962
100.68837
98.096405
97.05468
27836.713
23653.129
19969.19
16740.074
13925.628
11487.916
9392.2304
7605.6657
6097.2774
4837.3792
3797.2802
2949.1581
2266.3839
1723.9128
1298.4389
968.5547
713.79755
510.519
342.57718
236.64381
184.40988
155.88368
136.48351
124.67073
116.41937
110.48197
106.03387
101.98917
100.66618
98.099063
97.05509
27408.912
23305.013
19686.946
16512.548
13743.335
11343.183
9278.3335
7517.0101
6029.028
4785.481
3758.3713
2920.4706
2245.6079
1709.1586
1288.1567
961.50595
708.96845
506.99626
339.47493
235.18343
183.91621
155.56236
136.23288
124.47925
116.28375
110.40096
106.00278
101.95781
100.64473
98.102128
97.055862
27009.769
22985.967
19432.122
16309.593
13582.267
11216.411
9179.3811
7440.3687
5970.2336
4740.8683
3724.9484
2895.8235
2227.7461
1696.4636
1279.3015
955.42408
704.77355
503.84867
336.67746
233.87096
183.48631
155.26942
135.99893
124.29822
116.14989
110.31972
105.97347
101.92579
100.62358
98.105585
97.057055
26621.138
22682.886
19195.972
16125.991
13439.927
11106.256
9094.4259
7375.1699
5920.5249
4703.2916
3696.8438
2875.104
2212.7223
1685.7779
1271.8424
950.2926
701.20482
501.07381
334.18135
232.69948
183.11872
155.005
135.78153
124.12761
116.01615
110.2379
105.94677
101.89366
100.60231
98.10941
97.058686
26251.385
22399.5
18979.495
15961.274
13314.972
11011.577
9022.7224
7320.9252
5879.5836
4672.5377
3673.9153
2858.2178
2200.4731
1677.0589
1265.7532
946.09703
698.25644
498.67181
331.98332
231.66246
182.8122
154.76926
135.58052
123.96731
115.88104
110.15582
105.92375
101.86223
100.58056
98.113576
97.060738
25905.138
22137.953
18783.303
15815.204
13206.817
10931.707
8963.7083
7277.2332
5847.1419
4648.428
3656.0462
2845.0876
2190.9476
1670.2722
1261.0121
942.826
695.92517
496.64502
330.08044
230.75376
182.56567
154.5624
135.39579
123.81698
115.74423
110.07414
105.90527
101.83232
100.55805
98.118054
97.063169
25582.943
21898.726
18607.533
15687.589
13115.087
10866.196
8916.966
7243.7738
5822.9825
4630.8185
3643.1442
2835.653
2184.1053
1665.3915
1257.6018
940.47108
694.21029
494.99806
328.47024
229.97107
182.37461
154.38464
135.22729
123.67612
115.60677
109.99405
105.89168
101.80447
100.53469
98.122818
97.065924
25283.217
21680.903
18451.648
15578.028
13039.424
10814.702
8882.1839
7220.2995
5806.9356
4619.5985
3635.1412
2829.8711
2179.9178
1662.3966
1255.5096
939.02641
693.11339
493.73781
327.15065
229.31249
182.23562
154.23616
135.07503
123.54398
115.47108
109.91721
105.88282
101.77879
100.51054
98.127834
97.068931
25003.692
21482.89
18314.659
15485.917
12979.438
10776.945
8859.1334
7206.626
5798.8743
4614.691
3631.9928
2827.716
2178.3683
1661.2752
1254.7267
938.48874
692.63776
492.8736
326.11991
228.77423
182.14838
154.11714
134.93911
123.41964
115.34121
109.84546
105.87816
101.75501
100.48573
98.133041
97.072059
24741.749
21302.83
18195.374
15410.542
12934.715
10752.692
8847.6633
7202.6209
5798.7196
4615.9262
3633.5186
2829.0424
2179.3522
1661.9537
1255.1988
938.81917
692.76915
492.41753
325.37684
228.35297
182.11189
154.0277
134.81964
123.30203
115.22176
109.78053
105.87723
101.73273
100.46049
98.13832
97.07538
24494.533
21138.793
18092.57
15351.173
12904.845
10741.761
8847.739
7207.673
5805.6169
4623.1803
3639.9778
2834.1513
2183.0923
1664.5847
1257.0346
940.10201
693.56004
492.38573
324.9207
228.04556
182.12032
153.96777
134.71668
123.19007
115.11735
109.72364
105.87968
101.71174
100.43522
98.143498
97.078608
24259.089
20988.898
18005.116
15307.161
12889.469
10743.868
8858.1975
7221.8755
5820.9729
4637.0971
3651.3733
2842.9042
2189.4892
1669.0977
1260.1783
942.29269
694.99537
492.79815
324.75092
227.84886
182.18518
153.93735
134.63038
123.08292
115.03089
109.67524
105.88536
101.69193
100.41032
98.148536
97.082008
24032.249
20851.331
17932.071
15277.974
12888.519
10758.108
8879.8961
7246.693
5844.3868
4657.3206
3667.6832
2855.3504
2198.5759
1675.5139
1264.64
945.39585
697.08593
493.67875
324.83746
227.75976
182.3012
153.93725
134.56141
122.98035
114.96324
109.63489
105.89425
101.67314
100.38609
98.153616
97.085686
23809.621
20723.958
17872.639
15263.27
12900.779
10784.656
8914.1027
7281.2878
5875.7908
4683.9506
3688.9778
2871.5496
2210.3975
1683.8628
1270.4346
949.41733
699.84261
495.06116
325.26418
227.7744
182.46333
153.96415
134.51133
122.883
114.91251
109.60108
105.90383
101.65486
100.36191
98.158964
97.089424
23582.658
20603.069
17825.58
15263.143
12926.535
10824.582
8959.5044
7325.639
5915.2806
4717.0831
3715.3425
2891.572
2225.0069
1694.1799
1277.5802
954.36306
703.27542
496.98376
325.96115
227.87571
182.66745
154.02376
134.48139
122.79156
114.87278
109.57054
105.91048
101.63586
100.33745
98.164618
97.093268
23333.791
20480.67
17786.533
15273.941
12964.125
10873.94
9010.9498
7374.2808
5958.2217
4753.1314
3744.11
2913.4846
2241.028
1705.4887
1285.366
959.6809
706.91581
499.06194
326.74668
228.08802
182.84991
154.09408
134.46838
122.70467
114.83221
109.53752
105.91284
101.61343
100.31366
98.170561
97.097264
50820.13
74813.913
98875.288
98062.479
84202.212
60979.924
43782.738
32000.804
23641.59
17427.855
12737.136
9196.0887
6550.6936
4606.5537
3200.9212
2200.4435
1498.4278
1008.8945
667.95384
432.85603
276.69028
193.376
156.12807
137.3153
124.45925
114.81768
108.26659
103.04566
101.30042
98.23701
96.960621
48988.371
70160.993
93531.046
95960.112
82957.835
60758.907
43800.944
32100.146
23751.103
17534.827
12834.616
9278.8344
6615.9452
4655.1084
3235.3889
2223.923
1513.8004
1018.6806
673.96285
436.70406
278.8318
194.18894
156.47626
137.55338
124.59705
114.89395
108.30336
103.05521
101.30934
98.240426
96.959053
47421.554
66449.025
88521.674
93135.669
81386.117
60356.391
43791.339
32184.797
23853.202
17637.427
12929.387
9360.0688
6680.5969
4703.5434
3269.9429
2247.5496
1529.3151
1028.5694
680.05498
440.58686
281.025
195.02972
156.83101
137.79295
124.73501
114.97227
108.3406
103.06487
101.31941
98.244075
96.95743
45988.174
63312.555
83982.804
90287.201
79827.767
59914.44
43758.732
32254.18
23947.179
17735.228
13021.206
9439.6571
6744.5496
4751.7998
3304.5531
2271.3096
1544.9663
1038.5613
686.22824
444.49151
283.25495
195.89696
157.19457
138.03579
124.87506
115.05351
108.37885
103.07522
101.33055
98.248027
96.955695
44703.291
60605.414
79864.312
87408.801
78264.091
59435.914
43691.089
32307.089
24032.343
17827.854
13109.874
9517.4767
6807.7191
4799.828
3339.1934
2295.1906
1560.7487
1048.6545
692.48184
448.40799
285.51556
196.7855
157.56415
138.27993
125.01677
115.13745
108.41839
103.08636
101.34214
98.252298
96.953827
43563.507
58233.959
76132.973
84527.572
76689.484
58917.704
43592.967
32342.915
24108.164
17914.993
13195.232
9593.4277
6870.0347
4847.5846
3373.8405
2319.1816
1576.6577
1058.8493
698.81531
452.32123
287.80594
197.69322
157.93798
138.52397
125.15995
115.22401
108.45949
103.09808
101.35359
98.256851
96.951836
42558.384
56136.637
72751.875
81676.688
75070.772
58379.573
43466.668
32360.524
24174.199
17996.41
13277.139
9667.4175
6931.43
4895.0281
3408.4719
2343.2718
1592.6889
1069.1443
705.22828
456.2212
290.1268
198.62044
158.31601
138.76777
125.30521
115.3134
108.50241
103.11013
101.36447
98.261606
96.949743
41678.691
54272.438
69687.658
78884.492
73414.281
57816.77
43313.075
32358.631
24230.07
18071.923
13355.452
9739.3526
6991.8383
4942.1171
3443.0648
2367.45
1608.8374
1079.5383
711.72052
460.10597
292.47843
199.56785
158.6988
139.01169
125.45343
115.40594
108.54738
103.12236
101.37436
98.266462
96.947561
40915.28
52611.487
66908.698
76175.841
71729.179
57230.471
43133.601
32344.751
24275.696
18141.261
13430.023
9809.1374
7051.1916
4988.8085
3477.5954
2391.7045
1625.0983
1090.0301
718.29216
463.97408
294.86068
200.53592
159.08683
139.2561
125.60542
115.50187
108.59455
103.13456
101.38284
98.271337
96.945299
40255.547
51127.696
64382.091
73548.538
69981.279
56635.903
42929.986
32312.26
24310.673
18204.144
13500.7
9876.6747
7109.4218
5035.0583
3512.0391
2416.0231
1641.4663
1100.6185
724.9439
467.82475
297.2732
201.52497
159.4805
139.50127
125.7618
115.60126
108.64403
103.14655
101.38954
98.276186
96.942967
39687.513
49800.11
62085.752
71022.375
68247.278
56024.447
42703.476
32260.441
24334.631
18260.351
13567.333
9941.8667
7166.4612
5080.8221
3546.3706
2440.3931
1657.9357
1111.3017
731.67744
471.65964
299.7152
202.53539
159.88018
139.74743
125.92298
115.70404
108.69588
103.15809
101.39422
98.281007
96.940746
39199.789
48609.99
59993.635
68586.198
66407.192
55339.189
42451.499
32191.286
24347.078
18309.664
13629.777
10004.615
7222.2417
5126.0554
3580.5639
2464.8014
1674.5007
1122.078
738.49625
475.48994
302.18549
203.56759
160.28629
139.99481
126.08915
115.81001
108.75008
103.16893
101.39691
98.285818
96.938438
38782.505
47542.451
58085.155
66269.899
64646.055
54593.236
42172.669
32104.645
24346.658
18351.892
13687.893
10064.82
7276.6947
5170.7129
3614.5927
2489.2342
1691.155
1132.9449
745.40087
479.32954
304.68277
204.62202
160.69928
140.24358
126.26028
115.9188
108.8066
103.17876
101.39773
98.290649
96.936003
38427.047
46584.581
56344.598
64095.57
63058.966
53807.505
41867.199
32000.848
24338.702
18387.052
13741.558
10122.387
7329.751
5214.7491
3648.43
2513.6775
1707.8922
1143.8999
752.37635
483.2054
307.20617
205.6991
161.11959
140.49386
126.43606
116.02993
108.86532
103.1872
101.39746
98.295518
96.933426
38123.456
45723.84
54757.631
62067.376
61571.93
52993.758
41536.048
31879.973
24318.968
18414.954
13790.65
10177.22
7381.3409
5258.118
3682.0484
2538.1168
1724.7055
1154.9409
759.41169
487.15705
309.75496
206.79921
161.54766
140.74568
126.61593
116.14276
108.92608
103.19398