/*--------------------------------*- C++ -*----------------------------------*\
| =========                 |                                                 |
| \\      /  F ield         | OpenFOAM: The Open Source CFD Toolbox           |
|  \\    /   O peration     | Version:  2406                                  |
|   \\  /    A nd           | Website:  www.openfoam.com                      |
|    \\/     M anipulation  |                                                 |
\*---------------------------------------------------------------------------*/
FoamFile
{
    version     2.0;
    format      ascii;
    arch        "LSB;label=32;scalar=64";
    class       volScalarField;
    location    "0.042";
    object      rho;
}
// * * * * * * * * * * * * * * * * * * * * * * * * * * * * * * * * * * * * * //

dimensions      [1 -3 0 0 0 0 0];

internalField   nonuniform List<scalar> 
35803
(
1.2024012
1.2014546
1.2008897
1.2001623
1.1994139
1.1987611
1.1982488
1.1978987
1.1977145
1.1976682
1.197769
1.1981012
1.1985987
1.1992873
1.2000559
1.2010041
1.2019392
1.2028265
1.2029879
1.2030487
1.2032168
1.2033498
1.203503
1.203548
1.2037143
1.2036944
1.2038558
1.2038607
1.204189
1.2039029
1.2031187
1.2040939
1.2032952
1.2024782
1.2015619
1.2006864
1.1999214
1.199301
1.1988499
1.1985879
1.1984359
1.1984332
1.1986689
1.1990871
1.1996967
1.2003964
1.2012621
1.2020989
1.2029165
1.2030302
1.2030956
1.2032577
1.2033835
1.2035289
1.2035692
1.2037493
1.2037282
1.2038959
1.2038948
1.20421
1.2039225
1.2031768
1.2050618
1.2043878
1.2035264
1.2025529
1.2016274
1.2008054
1.2001185
1.1996071
1.1992597
1.1990351
1.1989299
1.1990888
1.1994425
1.1999923
1.200656
1.2014857
1.2022741
1.2030175
1.2030911
1.2031548
1.2033073
1.2034242
1.2035602
1.2035957
1.2037899
1.2037668
1.2039405
1.2039314
1.2042304
1.2039413
1.2032299
1.2058934
1.2052685
1.2044262
1.2034424
1.2024879
1.2016233
1.2008771
1.2002851
1.1998494
1.1995564
1.1994016
1.1994927
1.1997861
1.2002798
1.2009146
1.2017168
1.2024684
1.2031235
1.2031665
1.2032232
1.2033645
1.2034712
1.2035959
1.2036271
1.2038351
1.2038085
1.2039865
1.2039693
1.20425
1.2039595
1.2032774
1.206641
1.2060617
1.205263
1.2042993
1.2033396
1.202451
1.2016613
1.2010021
1.200491
1.200132
1.1999306
1.1999546
1.2001854
1.2006192
1.2012203
1.2019835
1.2026881
1.2032332
1.2032557
1.2033024
1.2034303
1.2035255
1.2036368
1.2036648
1.2038839
1.2038521
1.2040321
1.2040078
1.2042688
1.2039769
1.203326
1.2072504
1.2067244
1.2059866
1.2050712
1.2041371
1.203253
1.2024466
1.2017476
1.2011822
1.2007664
1.2005152
1.2004744
1.2006421
1.2010142
1.2015788
1.2022908
1.2029353
1.2033501
1.2033593
1.2033942
1.2035059
1.2035881
1.2036834
1.2037083
1.2039302
1.2038962
1.2040762
1.2040462
1.2042856
1.203993
1.2033769
1.2077004
1.2072194
1.2065532
1.2057132
1.2048379
1.2039909
1.2031989
1.2024905
1.2018957
1.2014394
1.201144
1.2010454
1.2011526
1.2014641
1.2019923
1.2026396
1.2032089
1.2034801
1.2034783
1.2035009
1.2035927
1.2036602
1.2037366
1.2037572
1.2039677
1.2039396
1.2041188
1.2040842
1.2042994
1.2040086
1.2034322
1.207999
1.2075217
1.2069222
1.2061926
1.2054158
1.2046416
1.203897
1.2032107
1.2026144
1.2021387
1.2018118
1.2016661
1.2017186
1.2019735
1.2024656
1.2030307
1.203507
1.2036347
1.2036137
1.2036247
1.2036924
1.2037428
1.2037972
1.2038118
1.2039966
1.203981
1.2041598
1.2041222
1.2043138
1.2040256
1.2034783
1.2081367
1.2077038
1.2071814
1.2065599
1.2058897
1.2052067
1.204534
1.2038974
1.2033272
1.2028557
1.2025145
1.2023358
1.2023425
1.2025472
1.2029994
1.2034728
1.2038207
1.203823
1.2037684
1.2037671
1.2038071
1.2038371
1.2038667
1.2038737
1.2040247
1.2040212
1.2041987
1.2041602
1.2043335
1.2040458
1.2035261
1.2082138
1.2078116
1.2073636
1.2068428
1.2062797
1.205698
1.2051141
1.2045489
1.204029
1.203585
1.2032491
1.2030537
1.2030264
1.2031902
1.2035996
1.2039661
1.2041388
1.2040394
1.2039475
1.2039294
1.2039387
1.2039446
1.2039464
1.2039433
1.204059
1.2040612
1.204235
1.2041981
1.2043571
1.2040702
1.2035775
1.2082237
1.2078718
1.2074858
1.207054
1.2066021
1.2061343
1.2056539
1.2051766
1.2047257
1.2043288
1.2040166
1.203821
1.2037735
1.2039081
1.2042688
1.2044964
1.2044637
1.2042752
1.2041565
1.2041122
1.2040893
1.2040666
1.2040381
1.2040219
1.2041012
1.2041026
1.2042681
1.2042357
1.2043827
1.2040986
1.2036414
1.2081091
1.2080049
1.2077422
1.207371
1.2069886
1.2066062
1.2062141
1.2058204
1.2054424
1.2051022
1.2048262
1.2046443
1.2045915
1.2047082
1.2049941
1.2050352
1.2047887
1.2045379
1.2043971
1.2043162
1.2042595
1.2042041
1.2041445
1.2041095
1.2041521
1.2041472
1.2042995
1.2042725
1.2044083
1.2041312
1.2036923
1.2081939
1.2081349
1.2080007
1.2077865
1.2074972
1.2071737
1.2068447
1.2065201
1.2062098
1.205929
1.2056985
1.2055443
1.2054995
1.2055915
1.2057237
1.205517
1.2051139
1.2048367
1.2046625
1.2045415
1.2044483
1.204357
1.2042679
1.2042083
1.2042135
1.2041988
1.2043322
1.2043087
1.2044356
1.2041689
1.2037431
1.2085232
1.2084704
1.2083062
1.2080928
1.2078942
1.2076887
1.2074731
1.2072517
1.2070325
1.2068307
1.2066667
1.2065568
1.2065094
1.2064849
1.2063189
1.2058841
1.205464
1.2051672
1.204946
1.2047863
1.2046524
1.2045276
1.2044084
1.2043199
1.2042871
1.2042596
1.2043714
1.2043455
1.2044669
1.2042137
1.2037986
1.2090043
1.2090301
1.208973
1.2087984
1.2085694
1.2083812
1.2082452
1.2081193
1.2079796
1.2078323
1.2076914
1.2075547
1.207391
1.207115
1.2066761
1.2062151
1.205831
1.2055064
1.2052465
1.2050454
1.2048743
1.2047127
1.2045641
1.204447
1.2043748
1.204331
1.2044195
1.2043851
1.2045084
1.2042694
1.2038604
1.2098512
1.2099483
1.2100167
1.2100307
1.2099387
1.2097261
1.2094724
1.2092259
1.2089794
1.208732
1.2084743
1.2081778
1.2078221
1.2074019
1.2069629
1.2065559
1.2061769
1.2058383
1.2055503
1.2053156
1.2051062
1.2049081
1.2047348
1.2045896
1.2044785
1.2044141
1.204476
1.2044303
1.2045645
1.2043417
1.2039303
1.2098565
1.2098227
1.2097393
1.2096225
1.2095499
1.2095391
1.2095395
1.2095287
1.2094129
1.2091533
1.2088292
1.2084906
1.2081101
1.2076925
1.2072827
1.2068731
1.2064878
1.2061418
1.2058452
1.2055848
1.2053406
1.2051126
1.2049169
1.2047468
1.2046018
1.2045107
1.2045385
1.2044802
1.2046247
1.2044337
1.2040134
1.209932
1.2098775
1.2098037
1.2097064
1.2095922
1.2094496
1.2092681
1.2090512
1.2088739
1.2087626
1.2086494
1.2085337
1.2083099
1.2079366
1.2075276
1.2071506
1.2067803
1.2064244
1.2061172
1.2058423
1.2055694
1.2053165
1.2051033
1.2049154
1.2047461
1.2046239
1.2046038
1.2045333
1.2046765
1.2045355
1.2041186
1.2095699
1.2095311
1.2094819
1.209424
1.2093576
1.2092809
1.2091907
1.2090828
1.2089608
1.208827
1.2086582
1.2084
1.2081679
1.2079977
1.2076984
1.207376
1.2070444
1.2067003
1.2063741
1.2060797
1.2057849
1.2055137
1.2052864
1.2050842
1.2049021
1.2047494
1.2046724
1.204594
1.204721
1.2046297
1.2042624
1.2092579
1.2092223
1.2091781
1.209126
1.2090652
1.208994
1.2089111
1.2088159
1.208707
1.208581
1.2084388
1.2082969
1.2081221
1.2079267
1.2077874
1.2075903
1.2072999
1.2069584
1.2066186
1.2062952
1.2059859
1.2057048
1.205461
1.2052467
1.2050547
1.2048899
1.2047697
1.2046821
1.2047795
1.204718
1.2044505
1.2089235
1.2088983
1.2088675
1.2088319
1.2087913
1.208745
1.2086921
1.208631
1.2085594
1.208474
1.2083704
1.2082423
1.2080957
1.207954
1.2077786
1.2075847
1.2074332
1.2071607
1.2068193
1.2064892
1.2061835
1.2058969
1.2056305
1.2054015
1.2051997
1.2050388
1.2049136
1.204798
1.2048478
1.2047887
1.2045801
1.2087232
1.2087023
1.2086764
1.2086459
1.2086104
1.2085686
1.2085194
1.2084617
1.2083949
1.2083187
1.2082336
1.2081389
1.2080283
1.2078868
1.2077418
1.2075696
1.2073349
1.2071836
1.2069448
1.2066531
1.2063752
1.2060976
1.2058099
1.2055494
1.2053308
1.2051746
1.2050654
1.2049298
1.2049125
1.2048302
1.2046197
1.2084086
1.2083923
1.2083722
1.208349
1.2083226
1.2082924
1.2082579
1.2082183
1.2081721
1.2081171
1.2080503
1.2079687
1.207872
1.2077624
1.2076195
1.2074677
1.2073264
1.2071461
1.2070016
1.2067729
1.2065296
1.2062754
1.206
1.2057139
1.2054657
1.205289
1.2051825
1.2050423
1.2050076
1.2048889
1.2046465
1.2081832
1.2081701
1.2081539
1.2081351
1.2081133
1.2080874
1.2080564
1.2080193
1.2079752
1.2079235
1.2078641
1.2077969
1.2077207
1.2076325
1.2075343
1.2074084
1.2072697
1.2071301
1.2069799
1.2068291
1.2066039
1.2063657
1.2061379
1.2058901
1.2056384
1.2054263
1.205274
1.2051359
1.205117
1.2049563
1.2047393
1.2078652
1.2078554
1.2078435
1.20783
1.2078149
1.2077978
1.2077786
1.2077568
1.2077317
1.2077022
1.2076667
1.2076225
1.207567
1.2074982
1.2074159
1.2073254
1.2072148
1.2070875
1.2069556
1.2068046
1.2066305
1.2063917
1.2061952
1.2060216
1.2058168
1.2056068
1.2054333
1.2052694
1.2052143
1.2050059
1.2049572
1.2075978
1.2075902
1.2075807
1.2075699
1.2075571
1.2075417
1.2075231
1.2075008
1.2074743
1.2074432
1.2074078
1.2073682
1.207323
1.2072717
1.2072131
1.207144
1.2070689
1.2069842
1.2068732
1.2067928
1.206712
1.2065002
1.2062745
1.206107
1.20593
1.2057437
1.2055906
1.205403
1.2053049
1.2051065
1.2051556
1.2073215
1.207316
1.2073095
1.2073022
1.207294
1.2072849
1.2072748
1.2072637
1.2072515
1.2072374
1.2072201
1.2071985
1.2071731
1.2071422
1.2071043
1.2070584
1.2070007
1.206929
1.2068499
1.2067126
1.2065963
1.2065354
1.2063739
1.2061712
1.2059933
1.2058271
1.2056886
1.2055173
1.2054195
1.2051861
1.205206
1.2071842
1.2071793
1.2071735
1.207167
1.2071594
1.2071505
1.20714
1.2071274
1.2071123
1.2070945
1.2070737
1.2070489
1.2070196
1.2069852
1.2069452
1.206899
1.2068485
1.2067919
1.2067261
1.2066611
1.2065627
1.2065171
1.2064542
1.206267
1.2061083
1.2059576
1.2058197
1.2056779
1.2055554
1.2052958
1.2053157
1.2070113
1.2070075
1.207003
1.2069979
1.2069922
1.2069856
1.206978
1.2069693
1.206959
1.2069468
1.2069327
1.2069167
1.2068988
1.2068781
1.2068531
1.2068241
1.2067895
1.2067504
1.2067046
1.2066445
1.206592
1.206517
1.2064125
1.2062933
1.2061592
1.2060182
1.2059179
1.2058119
1.2056992
1.2054591
1.205367
1.2069648
1.2069622
1.2069591
1.2069555
1.2069513
1.2069465
1.2069407
1.2069339
1.2069262
1.2069172
1.2069069
1.2068949
1.2068807
1.2068636
1.2068426
1.2068163
1.2067848
1.2067443
1.2066963
1.2066432
1.206573
1.2064645
1.2063508
1.2062919
1.2062023
1.2060951
1.2060136
1.2058969
1.2057885
1.2056704
1.2055859
1.2068347
1.2068292
1.2068234
1.2068172
1.2068105
1.2068033
1.2067952
1.2067861
1.2067758
1.2067637
1.2067496
1.206733
1.2067135
1.2066915
1.2066675
1.2066407
1.2066095
1.2065762
1.2065401
1.2065066
1.2064476
1.2064295
1.206342
1.2062005
1.2060927
1.2060155
1.2059378
1.2058704
1.2058466
1.2057046
1.20561
1.1876321
1.1873624
1.1870714
1.1869722
1.1872803
1.1878275
1.1884838
1.1891143
1.1897397
1.1904136
1.1911749
1.1920421
1.1930175
1.1940922
1.1952736
1.1965032
1.1978361
1.1991538
1.2005088
1.2014806
1.2018461
1.2021142
1.2024543
1.2026958
1.2029214
1.2030061
1.2030757
1.2030633
1.203277
1.2034538
1.2024695
1.1875669
1.1873827
1.1873495
1.1875226
1.1879033
1.1883952
1.1889109
1.1894363
1.1900154
1.190676
1.1914404
1.1923116
1.1932885
1.1943596
1.1955293
1.1967341
1.1980394
1.1992777
1.2006258
1.2014962
1.2018578
1.2021321
1.2024733
1.2027112
1.2029326
1.2030145
1.2030825
1.2030698
1.2032868
1.2034671
1.2024762
1.1874716
1.1873519
1.1873638
1.1875583
1.187974
1.1884987
1.1890208
1.1895531
1.1901424
1.1908147
1.1915913
1.1924701
1.1934506
1.1945208
1.1956847
1.1968779
1.1981804
1.1993934
1.2007293
1.2015248
1.2018791
1.2021544
1.2024946
1.2027282
1.2029448
1.2030236
1.2030897
1.2030768
1.2032969
1.2034796
1.2024809
1.187294
1.187284
1.1873564
1.1876495
1.1881142
1.1886174
1.1891127
1.1896379
1.1902307
1.1909127
1.1916999
1.1925862
1.1935715
1.1946434
1.1958055
1.1969936
1.1983012
1.1995124
1.2008219
1.2015557
1.2019029
1.202177
1.2025161
1.2027451
1.202957
1.2030326
1.2030971
1.203084
1.2033075
1.2034917
1.2024852
1.1870767
1.1872025
1.1873901
1.1877618
1.1882322
1.1887064
1.1891864
1.1897132
1.1903143
1.1910097
1.1918082
1.1927035
1.1936948
1.1947694
1.1959302
1.1971137
1.1984242
1.1996365
1.2009023
1.2015845
1.201927
1.2021999
1.2025377
1.202762
1.2029691
1.2030417
1.2031048
1.2030917
1.2033184
1.2035034
1.2024891
1.1869464
1.1871596
1.1874635
1.1878774
1.1883269
1.1887755
1.1892498
1.1897835
1.1903972
1.1911084
1.1919191
1.1928241
1.1938215
1.1948985
1.1960574
1.1972362
1.1985473
1.1997572
1.2009756
1.2016111
1.2019515
1.202223
1.2025594
1.2027789
1.2029813
1.2030509
1.2031128
1.2030997
1.2033296
1.2035149
1.2024932
1.1869184
1.187196
1.1875519
1.1879682
1.1883902
1.188824
1.1893015
1.1898471
1.1904772
1.1912053
1.1920288
1.192944
1.1939472
1.1950264
1.1961829
1.1973573
1.1986668
1.1998742
1.2010521
1.201636
1.2019764
1.2022465
1.2025812
1.2027958
1.2029935
1.2030601
1.2031212
1.2031081
1.2033409
1.2035261
1.2024977
1.1869646
1.1872769
1.1876331
1.1880241
1.188425
1.1888558
1.1893434
1.1899048
1.1905545
1.1912997
1.1921369
1.1930624
1.1940714
1.1951527
1.1963065
1.1974767
1.198781
1.1999903
1.2011369
1.201659
1.2020019
1.2022704
1.2026031
1.2028127
1.2030058
1.2030694
1.20313
1.2031171
1.2033525
1.2035371
1.2025017
1.1870258
1.1873351
1.1876723
1.1880427
1.1884364
1.1888743
1.1893775
1.1899584
1.1906295
1.1913923
1.1922437
1.1931797
1.1941943
1.1952776
1.1964286
1.1975945
1.1988933
1.2001035
1.2012225
1.2016819
1.202028
1.2022946
1.2026251
1.2028296
1.2030181
1.2030788
1.2031395
1.2031265
1.203364
1.2035478
1.2025061
1.1870674
1.1873547
1.1876727
1.188033
1.1884302
1.1888823
1.1894052
1.190009
1.1907023
1.1914835
1.1923498
1.1932961
1.1943161
1.1954013
1.1965491
1.1977106
1.1990062
1.2002065
1.2013014
1.2017078
1.2020546
1.2023191
1.2026472
1.2028466
1.2030304
1.2030883
1.2031497
1.2031365
1.2033756
1.2035582
1.2025106
1.1870613
1.1873284
1.1876378
1.1879996
1.1884092
1.1888814
1.1894278
1.1900573
1.1907735
1.1915739
1.1924551
1.1934117
1.194437
1.1955239
1.1966681
1.1978258
1.1991181
1.2003013
1.2013734
1.2017375
1.2020814
1.2023439
1.2026693
1.2028635
1.2030428
1.203098
1.2031606
1.203147
1.2033871
1.2035683
1.2025155
1.1870016
1.1872608
1.1875731
1.1879463
1.1883758
1.188873
1.1894467
1.1901037
1.1908436
1.1916637
1.19256
1.1935266
1.1945568
1.1956452
1.1967855
1.1979412
1.1992271
1.2003948
1.2014388
1.2017692
1.2021083
1.2023691
1.2026914
1.2028805
1.2030552
1.2031078
1.2031726
1.2031582
1.2033984
1.2035781
1.202521
1.1868932
1.1871569
1.1874825
1.1878759
1.1883319
1.1888586
1.1894631
1.1901487
1.1909131
1.1917533
1.1926645
1.1936408
1.1946758
1.1957653
1.1969015
1.198057
1.199329
1.2004883
1.2014976
1.2018013
1.2021355
1.2023945
1.2027136
1.2028974
1.2030678
1.2031178
1.2031855
1.20317
1.2034095
1.2035876
1.2025272
1.1867415
1.1870207
1.1873694
1.1877912
1.1882794
1.1888398
1.1894777
1.1901929
1.1909826
1.191843
1.1927689
1.1937545
1.1947938
1.1958841
1.1970161
1.1981724
1.1994238
1.2005809
1.2015514
1.2018338
1.2021628
1.2024202
1.2027358
1.2029144
1.2030804
1.203128
1.2031995
1.2031825
1.2034205
1.2035966
1.2025338
1.1865515
1.1868566
1.1872373
1.1876945
1.1882204
1.1888182
1.1894913
1.1902371
1.1910527
1.1919332
1.1928733
1.1938677
1.1949109
1.1960018
1.1971293
1.1982874
1.1995142
1.200671
1.2016017
1.2018667
1.2021903
1.2024461
1.202758
1.2029314
1.203093
1.2031383
1.2032146
1.2031956
1.2034311
1.2036052
1.2025411
1.1863276
1.1866682
1.1870892
1.1875886
1.1881567
1.1887953
1.189505
1.1902824
1.1911239
1.1920241
1.1929779
1.1939806
1.1950273
1.1961182
1.1972415
1.1984029
1.199602
1.2007583
1.2016493
1.2018998
1.2022181
1.2024722
1.2027802
1.2029484
1.2031058
1.2031489
1.2032307
1.2032093
1.2034416
1.2036134
1.2025491
1.1860739
1.1864594
1.1869288
1.1874764
1.1880909
1.1887727
1.1895201
1.1903296
1.1911967
1.192116
1.1930829
1.1940931
1.1951428
1.1962334
1.1973534
1.1985196
1.199692
1.200843
1.2016951
1.2019328
1.2022462
1.2024985
1.2028024
1.2029655
1.2031186
1.2031596
1.2032477
1.2032236
1.2034519
1.2036212
1.2025577
1.1857949
1.1862349
1.1867601
1.1873611
1.1880255
1.1887522
1.189538
1.1903795
1.1912717
1.1922092
1.1931884
1.1942055
1.1952576
1.1963474
1.197466
1.1986323
1.1997866
1.2009259
1.2017397
1.2019654
1.2022745
1.202525
1.2028246
1.2029826
1.2031316
1.2031705
1.2032653
1.2032383
1.2034621
1.2036285
1.2025665
1.1854973
1.1860007
1.186588
1.1872465
1.1879632
1.1887356
1.18956
1.1904329
1.1913493
1.192304
1.1932946
1.1943178
1.1953716
1.1964602
1.1975766
1.1987372
1.1998803
1.2010068
1.201783
1.201998
1.2023031
1.2025516
1.2028467
1.2029998
1.2031445
1.2031816
1.2032834
1.2032534
1.2034723
1.2036356
1.202575
1.18519
1.1857644
1.1864185
1.187137
1.1879071
1.1887252
1.1895876
1.1904909
1.1914301
1.1924008
1.1934017
1.1944301
1.1954849
1.196572
1.1976857
1.1988368
1.1999723
1.2010841
1.2018254
1.2020305
1.202332
1.2025783
1.2028689
1.203017
1.2031575
1.2031928
1.2033014
1.2032686
1.2034825
1.2036424
1.2025828
1.1848843
1.185535
1.1862579
1.1870371
1.1878602
1.1887233
1.1896223
1.1905542
1.1915147
1.1924999
1.1935099
1.1945424
1.1955973
1.1966841
1.1977956
1.1989322
1.2000681
1.2011562
1.2018667
1.202063
1.2023611
1.2026051
1.202891
1.2030343
1.2031706
1.203204
1.2033193
1.2032838
1.2034929
1.203649
1.2025897
1.1845933
1.1853225
1.1861128
1.1869514
1.187826
1.1887323
1.1896654
1.1906238
1.1916036
1.1926016
1.1936192
1.1946546
1.1957094
1.1967985
1.1978988
1.1990227
1.2001617
1.2012266
1.2019073
1.2020958
1.2023905
1.202632
1.2029131
1.2030516
1.2031836
1.2032154
1.203337
1.203299
1.2035037
1.2036554
1.2025955
1.1843308
1.1851381
1.1859895
1.1868843
1.1878079
1.1887547
1.1897184
1.1907005
1.1916973
1.1927061
1.1937298
1.1947671
1.1958226
1.1969099
1.1979961
1.1991142
1.2002463
1.2012998
1.2019473
1.202129
1.2024201
1.2026589
1.2029351
1.2030689
1.2031966
1.2032267
1.2033543
1.2033141
1.2035151
1.2036615
1.2026002
1.1841099
1.1849898
1.1858944
1.1868409
1.1878094
1.1887929
1.1897827
1.1907852
1.1917964
1.1928136
1.1938418
1.1948811
1.1959401
1.1970153
1.1980937
1.1992041
1.2003248
1.2013765
1.2019869
1.2021625
1.2024499
1.2026858
1.2029572
1.2030863
1.2032096
1.2032379
1.2033713
1.2033293
1.2035273
1.2036672
1.2026036
1.1839328
1.1848754
1.18584
1.1868276
1.187834
1.1888481
1.18986
1.190879
1.1919012
1.1929241
1.193956
1.1950004
1.1960572
1.1971143
1.1981932
1.1992922
1.2004022
1.2014549
1.202026
1.2021965
1.2024799
1.2027127
1.2029792
1.2031037
1.2032224
1.2032489
1.2033881
1.2033447
1.2035409
1.2036725
1.2026058
1.1838181
1.1848168
1.185826
1.1868485
1.1878824
1.18892
1.1899522
1.1909829
1.1920123
1.1930387
1.1940762
1.1951281
1.1961621
1.1972117
1.1982909
1.1993784
1.2004797
1.2015318
1.2020652
1.2022308
1.2025101
1.2027396
1.2030012
1.2031211
1.2032352
1.2032597
1.2034046
1.2033605
1.2035565
1.2036773
1.2026065
1.1837735
1.1848173
1.1858572
1.1869051
1.1879595
1.1890133
1.1900574
1.1910968
1.1921315
1.1931614
1.1942091
1.1952401
1.1962562
1.1973155
1.1983868
1.1994628
1.2005564
1.2016056
1.2021047
1.2022655
1.2025403
1.2027664
1.2030231
1.2031385
1.2032479
1.2032701
1.2034211
1.2033767
1.203575
1.2036822
1.2026058
1.1838044
1.184881
1.1859385
1.1870007
1.1880669
1.1891288
1.1901777
1.1912216
1.1922638
1.1933017
1.194338
1.1953392
1.1963647
1.1974187
1.1984812
1.1995453
1.2006322
1.2016765
1.2021447
1.2023006
1.2025707
1.2027932
1.2030451
1.2031559
1.2032606
1.2032799
1.2034375
1.2033934
1.2035974
1.203688
1.2026041
1.1839155
1.1850118
1.1860731
1.1871376
1.1882058
1.1892679
1.1903171
1.1913666
1.1924182
1.193453
1.194444
1.1954421
1.1964739
1.1975204
1.1985743
1.1996257
1.2007068
1.2017451
1.202185
1.202336
1.2026011
1.2028199
1.203067
1.2031733
1.2032733
1.2032896
1.203454
1.2034106
1.2036246
1.2036959
1.202602
1.1841112
1.1852136
1.1862643
1.187319
1.18838
1.1894386
1.1904907
1.1915466
1.1925835
1.1935691
1.1945405
1.1955592
1.1965816
1.1976209
1.1986661
1.1997041
1.2007799
1.2018115
1.2022256
1.2023717
1.2026316
1.2028465
1.2030889
1.2031908
1.2032861
1.2032995
1.2034706
1.2034282
1.2036555
1.2037061
1.2025996
1.1843989
1.1854946
1.1865205
1.1875546
1.1886016
1.1896582
1.1907173
1.191737
1.1926938
1.1936706
1.1946672
1.1956776
1.1966889
1.1977208
1.1987566
1.1997806
1.2008512
1.201876
1.2022662
1.2024077
1.202662
1.202873
1.2031107
1.2032083
1.2032992
1.20331
1.2034872
1.2034462
1.2036887
1.203718
1.2025974
1.1847847
1.1858644
1.1868567
1.1878653
1.1888913
1.1899192
1.1909315
1.1918662
1.1928082
1.193813
1.1947992
1.1957956
1.1967961
1.19782
1.198846
1.199856
1.2009208
1.2019385
1.2023068
1.2024437
1.2026924
1.2028994
1.2031324
1.2032258
1.2033126
1.2033213
1.203504
1.2034645
1.2037225
1.2037298
1.2025957
1.1852246
1.1862849
1.187237
1.188216
1.1891991
1.1901554
1.1910735
1.1919957
1.1929758
1.1939656
1.1949322
1.1959145
1.1969032
1.1979184
1.1989339
1.1999314
1.200989
1.2019994
1.2023473
1.2024796
1.2027225
1.2029257
1.203154
1.2032433
1.2033265
1.2033335
1.203521
1.2034832
1.203755
1.2037398
1.202595
1.1856588
1.1866988
1.1875978
1.1885238
1.1894344
1.1903223
1.191235
1.1921939
1.1931561
1.1941223
1.1950684
1.1960348
1.1970102
1.1980161
1.1990205
1.2000014
1.2010559
1.2020586
1.2023875
1.2025153
1.2027525
1.2029518
1.2031755
1.2032609
1.2033411
1.2033467
1.2035384
1.2035021
1.2037863
1.2037479
1.2025956
1.1861238
1.187123
1.1879485
1.1887846
1.1896599
1.1905738
1.1914934
1.1924134
1.1933436
1.1942855
1.1952086
1.1961565
1.197117
1.198113
1.1991046
1.2000679
1.2011227
1.202116
1.2024275
1.2025507
1.2027824
1.2029777
1.2031969
1.2032785
1.2033565
1.2033612
1.2035562
1.2035216
1.2038162
1.2037543
1.2025982
1.1868522
1.1877724
1.1885039
1.189259
1.1900732
1.1909186
1.1917818
1.1926468
1.1935414
1.1944564
1.195353
1.1962796
1.1972238
1.1982091
1.1991872
1.2001368
1.2011876
1.2021717
1.2024672
1.2025858
1.2028121
1.2030035
1.2032182
1.2032962
1.203373
1.2033769
1.2035743
1.2035415
1.2038444
1.2037601
1.2026032
1.1877589
1.1885689
1.1891807
1.1898308
1.1905452
1.1913037
1.192093
1.1928967
1.1937513
1.1946348
1.1955018
1.1964042
1.1973304
1.1983042
1.1992681
1.2002049
1.2012499
1.2022256
1.2025067
1.2026206
1.2028416
1.203029
1.2032394
1.2033139
1.2033909
1.203394
1.2035928
1.2035618
1.2038712
1.2037659
1.2026112
1.1886841
1.1893971
1.1898913
1.190433
1.1910474
1.1917173
1.192428
1.1931646
1.193974
1.1948209
1.1956553
1.1965306
1.197437
1.1983983
1.1993473
1.2002718
1.2013095
1.2022777
1.2025459
1.2026551
1.202871
1.2030544
1.2032604
1.2033316
1.2034102
1.2034124
1.2036114
1.2035826
1.2038966
1.2037718
1.2026227
1.1896384
1.1902581
1.1906351
1.1910677
1.1915819
1.1921606
1.1927876
1.1934504
1.1942099
1.1950146
1.1958138
1.1966588
1.1975436
1.1984914
1.1994247
1.2003378
1.2013665
1.202328
1.2025847
1.2026892
1.2029002
1.2030796
1.2032812
1.2033494
1.2034313
1.2034322
1.2036301
1.2036037
1.2039217
1.2037777
1.2026384
1.1906223
1.191155
1.1914163
1.1917394
1.1921516
1.1926352
1.1931711
1.1937537
1.19446
1.1952157
1.1959776
1.196789
1.1976501
1.1985832
1.1995003
1.2004032
1.2014207
1.2023764
1.2026231
1.2027229
1.2029293
1.2031045
1.2033019
1.2033672
1.2034539
1.2034532
1.2036488
1.2036251
1.2039474
1.2037838
1.2026584
1.1916345
1.1920889
1.192238
1.1924511
1.1927581
1.1931412
1.1935779
1.1940752
1.194725
1.1954242
1.1961467
1.1969216
1.1977567
1.1986736
1.1995739
1.2004681
1.2014725
1.2024229
1.2026611
1.2027561
1.2029581
1.2031293
1.2033223
1.203385
1.2034781
1.2034752
1.2036672
1.2036466
1.2039736
1.2037897
1.2026824
1.1926898
1.1930697
1.1931076
1.1932074
1.1934039
1.1936794
1.1940074
1.1944175
1.1950044
1.19564
1.1963214
1.1970566
1.1978633
1.1987624
1.1996453
1.2005326
1.2015232
1.2024673
1.2026985
1.2027888
1.2029868
1.2031538
1.2033426
1.2034028
1.2035034
1.203498
1.2036854
1.2036683
1.2040004
1.2037954
1.2027108
1.1938163
1.1941151
1.1940362
1.1940142
1.1940919
1.1942494
1.1944604
1.1947872
1.1952929
1.195863
1.1965017
1.1971944
1.1979701
1.1988494
1.1997142
1.2005973
1.201574
1.2025098
1.2027353
1.202821
1.2030152
1.2031782
1.2033627
1.2034205
1.2035292
1.2035212
1.2037032
1.2036899
1.2040276
1.2038002
1.202743
1.1950378
1.1952382
1.1950313
1.1948747
1.1948218
1.194848
1.1949442
1.1951827
1.1955838
1.1960944
1.1966876
1.1973349
1.1980768
1.1989341
1.1997799
1.2006621
1.2016242
1.2025502
1.2027714
1.2028528
1.2030435
1.2032023
1.2033826
1.2034383
1.2035548
1.2035444
1.2037206
1.2037115
1.2040541
1.2038046
1.2027812
1.1963539
1.196433
1.196087
1.1957827
1.1955865
1.1954713
1.1954674
1.1955932
1.1958786
1.1963311
1.1968794
1.1974787
1.1981841
1.1990168
1.1998422
1.200727
1.2016732
1.2025886
1.2028069
1.2028841
1.2030715
1.2032263
1.2034023
1.203456
1.2035797
1.2035673
1.2037376
1.2037331
1.2040792
1.2038107
1.2028266
1.1977398
1.1976707
1.1971825
1.1967242
1.1963729
1.1961401
1.1960271
1.1960134
1.1961874
1.1965754
1.1970803
1.1976298
1.1982954
1.1991
1.1999034
1.2007927
1.2017211
1.2026237
1.2028412
1.2029145
1.203099
1.2032498
1.2034217
1.2034736
1.2036037
1.2035899
1.2037548
1.2037548
1.2041029
1.203822
1.2028763
1.1991883
1.1989379
1.1983187
1.1977127
1.1972275
1.1968766
1.1966259
1.1964853
1.1965507
1.196852
1.1973059
1.1978022
1.1984228
1.1991938
1.1999722
1.2008614
1.2017684
1.2026528
1.2028721
1.2029432
1.2031254
1.2032726
1.2034405
1.203491
1.2036274
1.2036127
1.2037731
1.2037773
1.2041255
1.203839
1.2029319
1.2007396
1.200298
1.1996005
1.1988658
1.1982362
1.1977389
1.1973553
1.1970913
1.1970618
1.1972269
1.1975882
1.1980205
1.1985868
1.1993151
1.2000636
1.20094
1.2018171
1.2026747
1.2028965
1.2029695
1.2031509
1.2032948
1.2034589
1.2035085
1.2036525
1.2036367
1.2037946
1.2038018
1.2041471
1.2038594
1.2029907
1.2021869
1.2016878
1.2010657
1.2002539
1.1994601
1.1987842
1.1982497
1.1978763
1.1977251
1.19775
1.1979349
1.1982857
1.198787
1.199464
1.2001796
1.2010332
1.201874
1.2027073
1.2029209
1.202999
1.2031785
1.2033187
1.2034786
1.2035268
1.2036811
1.2036636
1.2038219
1.2038296
1.2041682
1.2038812
1.2030517
1.1881435
1.1880456
1.1878114
1.1876247
1.1877548
1.1881818
1.1887638
1.1893621
1.1899762
1.1906429
1.1913916
1.1922399
1.193194
1.1942447
1.1953963
1.1965941
1.1978693
1.1991687
1.2003822
1.2013989
1.2017974
1.2020832
1.2024301
1.2026767
1.2029073
1.2029956
1.2030679
1.2030566
1.2032671
1.2034394
1.2024671
1.1880696
1.1879764
1.1878155
1.1877054
1.1878215
1.1882148
1.1887588
1.189343
1.1899522
1.1906136
1.191355
1.1921957
1.1931432
1.194189
1.1953369
1.1965371
1.1978101
1.199143
1.2003242
1.2013858
1.2017869
1.2020678
1.2024143
1.2026635
1.2028971
1.2029874
1.2030616
1.2030513
1.2032603
1.2034268
1.202458
1.1880375
1.1879358
1.187788
1.1876847
1.1877848
1.1881688
1.1887211
1.189317
1.1899349
1.1905989
1.1913375
1.1921718
1.1931116
1.1941505
1.1952921
1.1964917
1.197761
1.1991076
1.2002896
1.2013699
1.2017779
1.2020558
1.2024012
1.2026522
1.2028881
1.2029799
1.2030558
1.2030466
1.203254
1.2034154
1.2024476
1.1880633
1.1879745
1.1878333
1.1877012
1.1877742
1.1881543
1.1887151
1.1893215
1.1899472
1.1906136
1.1913489
1.1921755
1.1931057
1.1941349
1.1952669
1.1964619
1.1977236
1.1990719
1.200255
1.2013465
1.2017643
1.202042
1.2023873
1.2026403
1.2028786
1.202972
1.2030497
1.2030421
1.2032477
1.2034049
1.202436
1.1880906
1.1880176
1.187888
1.187742
1.1877901
1.1881612
1.1887217
1.1893341
1.1899662
1.1906352
1.1913679
1.1921875
1.1931085
1.1941281
1.1952499
1.1964389
1.1976916
1.1990375
1.2002177
1.2013198
1.2017489
1.2020268
1.2023724
1.2026276
1.2028686
1.2029637
1.2030434
1.2030376
1.2032414
1.2033949
1.2024231
1.1881059
1.1880457
1.1879278
1.1877831
1.187812
1.1881694
1.1887254
1.1893427
1.1899813
1.1906537
1.1913852
1.1921993
1.1931122
1.1941229
1.1952349
1.1964177
1.1976619
1.1990041
1.2001796
1.2012916
1.2017338
1.2020115
1.2023574
1.2026147
1.2028584
1.2029553
1.2030368
1.2030332
1.2032354
1.2033855
1.2024088
1.1881144
1.1880637
1.1879568
1.187818
1.1878325
1.1881738
1.1887243
1.1893466
1.189992
1.1906687
1.1914001
1.1922099
1.1931156
1.1941181
1.1952208
1.1963974
1.1976332
1.1989715
1.2001419
1.2012621
1.201719
1.2019965
1.2023424
1.2026019
1.2028482
1.2029469
1.2030301
1.2030289
1.2032297
1.2033764
1.2023928
1.1881184
1.1880761
1.1879798
1.1878482
1.1878517
1.1881762
1.1887205
1.1893476
1.1900001
1.1906817
1.1914137
1.1922202
1.1931194
1.1941141
1.1952078
1.196378
1.1976057
1.1989395
1.2001049
1.2012319
1.2017043
1.2019817
1.2023276
1.202589
1.2028379
1.2029384
1.2030234
1.2030249
1.2032243
1.2033677
1.2023753
1.1881188
1.1880845
1.1879984
1.1878747
1.1878707
1.1881786
1.1887157
1.1893471
1.1900064
1.1906933
1.1914267
1.1922304
1.1931239
1.1941111
1.1951959
1.1963596
1.1975794
1.198908
1.2000687
1.2012013
1.2016894
1.201967
1.2023128
1.2025762
1.2028276
1.20293
1.2030167
1.203021
1.2032192
1.2033593
1.2023571
1.1881166
1.1880892
1.1880127
1.1878975
1.1878904
1.188182
1.1887106
1.1893455
1.1900114
1.1907037
1.1914391
1.1922409
1.1931291
1.1941092
1.1951854
1.1963424
1.1975543
1.1988771
1.2000333
1.20117
1.2016743
1.2019525
1.2022981
1.2025633
1.2028173
1.2029215
1.2030099
1.2030174
1.2032144
1.2033511
1.2023398
1.1881126
1.1880907
1.188023
1.1879174
1.1879105
1.188187
1.188706
1.1893433
1.1900156
1.1907134
1.1914512
1.1922517
1.193135
1.1941085
1.1951763
1.1963264
1.1975305
1.1988467
1.1999993
1.2011377
1.201659
1.2019382
1.2022835
1.2025504
1.2028068
1.202913
1.2030032
1.203014
1.2032099
1.203343
1.2023192
1.1881076
1.1880903
1.1880308
1.1879363
1.1879311
1.1881935
1.1887024
1.1893411
1.1900192
1.1907225
1.1914631
1.1922627
1.1931419
1.1941089
1.1951685
1.1963115
1.197508
1.1988169
1.1999663
1.2011046
1.2016435
1.2019241
1.202269
1.2025375
1.2027963
1.2029044
1.2029965
1.2030109
1.2032056
1.2033351
1.2023035
1.1881028
1.1880899
1.1880383
1.1879563
1.1879526
1.1882012
1.1887003
1.1893394
1.1900227
1.1907315
1.1914751
1.1922743
1.1931496
1.1941105
1.195162
1.1962979
1.1974867
1.1987885
1.199934
1.2010708
1.2016277
1.2019101
1.2022546
1.2025246
1.2027858
1.2028959
1.2029898
1.2030078
1.2032016
1.2033276
1.2022922
1.1880991
1.1880905
1.1880468
1.187977
1.187975
1.1882106
1.1887004
1.1893386
1.1900266
1.1907406
1.1914873
1.1922864
1.1931582
1.1941132
1.195157
1.1962855
1.1974668
1.1987627
1.1999047
1.2010383
1.2016115
1.2018964
1.2022402
1.2025117
1.2027752
1.2028873
1.2029833
1.203005
1.2031979
1.2033203
1.2022836
1.1880971
1.1880927
1.1880563
1.1879976
1.1879981
1.1882225
1.188703
1.1893393
1.1900313
1.1907502
1.1915001
1.1922993
1.1931679
1.1941173
1.1951533
1.1962744
1.1974482
1.198737
1.1998779
1.2010102
1.2015954
1.201883
1.202226
1.2024989
1.2027646
1.2028788
1.2029767
1.2030023