/*--------------------------------*- C++ -*----------------------------------*\
| =========                 |                                                 |
| \\      /  F ield         | OpenFOAM: The Open Source CFD Toolbox           |
|  \\    /   O peration     | Version:  2406                                  |
|   \\  /    A nd           | Website:  www.openfoam.com                      |
|    \\/     M anipulation  |                                                 |
\*---------------------------------------------------------------------------*/
FoamFile
{
    version     2.0;
    format      ascii;
    arch        "LSB;label=32;scalar=64";
    class       volScalarField;
    location    "0.016";
    object      k;
}
// * * * * * * * * * * * * * * * * * * * * * * * * * * * * * * * * * * * * * //

dimensions      [0 2 -2 0 0 0 0];

internalField   nonuniform List<scalar> 
23203
(
266.58372
263.59676
261.43243
260.30329
260.31745
261.47386
263.66664
266.70767
270.35788
274.35849
278.45671
282.42365
286.06466
289.22343
291.78174
293.65664
294.79621
295.1751
294.79022
293.65237
291.78714
289.23169
286.02706
264.95453
261.92445
259.73197
258.57765
258.56305
259.679
261.81553
264.78498
268.35221
272.26447
276.27577
280.16369
283.73908
286.84973
289.38013
291.24871
292.40375
292.819
292.48908
291.424
289.64702
287.1915
284.09563
263.28349
260.23277
258.02811
256.86233
256.82823
257.91025
259.99545
262.89713
266.38437
270.21052
274.13637
277.94597
281.45559
284.51713
287.01782
288.87749
290.04469
290.4924
290.2136
289.21685
287.52331
285.16369
282.17409
261.59602
258.54233
256.34059
255.1744
255.12819
256.181
258.21799
261.05408
264.46284
268.20388
272.04474
275.77585
279.21886
282.22976
284.69849
286.54633
287.72217
288.19836
287.96652
287.03368
285.41905
283.15114
280.26425
259.91869
256.87693
254.6897
253.53117
253.4779
254.5043
256.4944
259.26541
262.59574
266.25135
270.00655
273.65809
277.0329
279.99101
282.42506
284.2578
285.43851
285.93903
285.74983
284.87642
283.33616
281.15542
258.27836
255.26051
253.09625
251.95054
251.89275
252.89335
254.836
257.54073
260.79115
264.35971
268.02748
271.59741
274.90165
277.80419
280.20036
282.01436
283.19592
283.71646
283.56544
282.74693
281.27648
279.17779
256.70151
253.71666
251.58093
250.45048
250.38819
251.36138
253.25403
255.88957
259.05712
262.5357
266.11312
269.59847
272.82901
275.67259
278.02717
279.81844
280.99657
281.53267
281.41527
280.64707
279.24201
277.22193
255.2137
252.26826
250.16391
249.04851
248.97933
249.92132
251.75953
254.32127
257.40148
260.78587
264.26895
267.66583
270.81877
273.5994
275.90825
277.67243
278.84263
279.38967
279.30122
278.57874
277.23467
275.28927
253.83916
250.93695
248.86416
247.76115
247.68042
248.58543
250.36296
252.84472
255.83173
259.11652
262.5002
265.80386
268.87459
271.58772
273.84623
275.57866
276.73618
277.28938
277.22514
276.54372
275.25613
273.38112
252.59963
249.74168
247.69815
246.60283
246.50418
247.36482
249.07396
251.46819
254.35492
257.53355
260.81185
264.01671
266.99997
269.64049
271.84365
273.53936
274.67925
275.2337
275.18881
274.5437
273.30798
271.49884
251.51229
248.69743
246.6793
245.58582
245.46171
246.26942
247.90125
250.19923
252.97749
256.04246
259.20851
262.30826
265.19815
267.76048
269.90292
271.55665
272.67377
273.2244
273.1939
272.58026
271.3917
269.64384
250.58809
247.81534
245.81915
244.72117
244.56313
245.30824
246.85274
249.04472
251.70534
254.64824
257.6944
260.68207
263.47217
265.95029
268.02627
269.63253
270.72153
271.26315
271.24199
270.6549
269.5087
267.81746
249.83741
247.10667
245.12838
244.01876
243.81729
244.48914
245.93536
248.01067
250.54368
253.35536
256.27332
259.14136
261.82477
264.21228
266.2158
267.76884
268.82423
269.35153
269.33456
268.76902
267.66033
266.02099
249.27055
246.57844
244.6143
243.48519
243.23055
243.8181
245.15457
247.10199
249.49684
252.1676
254.94855
257.68898
260.25841
262.54858
264.47337
265.9673
266.98343
267.49099
267.47297
266.92392
265.84784
264.25566
248.89677
246.2407
244.28289
243.1257
242.80737
243.29919
244.51423
246.32232
248.56816
251.08799
253.7228
256.32732
258.77519
260.96109
262.80068
264.22942
265.20054
265.68286
265.6585
265.12084
264.07243
262.52265
248.72079
246.09566
244.13663
242.94189
242.54919
242.93427
244.01637
245.67383
247.75989
250.11874
252.59815
255.05831
257.37691
259.45142
261.19923
262.55661
263.47688
263.92837
263.89234
263.36091
262.33521
260.82304
248.73748
246.13909
244.17214
242.93132
242.45495
242.72289
243.66123
245.15729
247.07317
249.26121
251.57609
253.88345
256.06501
258.02096
259.67033
260.9501
261.81361
262.22867
262.17557
261.64521
260.63724
259.1579
248.93819
246.36349
244.38344
243.08965
242.52125
242.66234
243.44731
244.77214
246.50811
248.51597
250.65747
252.80377
254.84061
256.67086
258.21511
259.411
260.21183
260.5848
260.50924
259.97475
258.97952
257.52821
249.31374
246.76017
244.76268
243.40995
242.74235
242.74865
243.37179
244.51664
246.06386
247.88285
249.84261
251.8199
253.70453
255.40204
256.83455
257.94031
258.67252
258.99776
258.89432
258.3505
257.36302
255.93493
249.85292
247.31862
245.30008
243.8838
243.11117
242.97657
243.43076
244.38797
245.73863
247.36092
249.13122
250.93202
252.65726
254.2152
255.52947
256.53892
257.19661
257.46847
257.33173
256.77339
255.78866
254.379
250.54101
248.02407
245.98232
244.49944
243.61822
243.33831
243.61816
244.38185
245.52957
246.94847
248.52245
250.13991
251.69904
253.11085
254.30057
255.20763
255.78496
255.99783
255.8224
255.24434
254.25736
252.86134
251.36082
248.86077
246.79517
245.24388
244.25204
243.82427
243.92668
244.49289
245.43292
246.64304
248.01489
249.44295
250.82978
252.08931
253.14841
253.94716
254.43841
254.58673
254.36724
253.76428
252.77006
251.38287
252.2974
249.81491
247.72511
246.10539
245.00237
244.42564
244.34896
244.71528
245.44438
246.44168
247.60669
248.84013
250.04914
251.15071
252.07345
252.75819
253.15773
253.23602
252.96714
252.33412
251.32767
249.94452
253.33487
250.86972
248.75627
247.06969
245.85692
245.13214
244.87662
245.04242
245.55898
246.34085
247.29552
248.3301
249.35651
250.29496
251.07599
251.64129
251.94368
251.94656
251.62303
250.95482
249.93118
248.54726
254.4547
252.00752
249.87239
248.12135
246.80178
245.93191
245.4999
245.46659
245.77082
246.33627
247.07845
247.91105
248.75094
249.52178
250.15622
250.59695
250.79698
250.71922
250.33584
249.62735
248.58157
247.19211
255.63996
253.21214
251.05771
249.24561
247.82348
246.813
246.20863
245.97946
246.0734
246.42307
246.95206
247.58073
248.23114
248.83062
249.31413
249.62559
249.71829
249.55483
249.10653
248.35274
247.27989
245.8801
256.87443
254.46767
252.29696
250.42816
248.90883
247.76357
246.99252
246.57239
246.45974
246.59589
246.91241
247.33648
247.79549
248.22067
248.54955
248.72746
248.70822
248.45421
247.93606
247.13202
246.02723
244.61234
258.14284
255.75904
253.57559
251.65519
250.04497
248.77193
247.8412
247.23649
246.92251
246.84893
246.95517
247.17523
247.44199
247.69083
247.86207
247.9027
247.76727
247.41815
246.82538
245.96627
244.82472
243.38999
259.43069
257.07199
254.87987
252.91346
251.21944
249.82652
248.74426
247.9627
247.45408
247.17601
247.07555
247.09348
247.16833
247.23972
247.25107
247.15129
246.89587
246.44738
245.77545
244.85658
243.67354
242.21428
260.72382
258.39251
256.19532
254.18892
252.4188
250.915
249.69069
248.74145
248.04639
247.57059
247.26844
247.08744
246.9718
246.86566
246.7157
246.47303
246.09432
245.54257
244.78721
243.80407
242.5749
241.08649
262.01158
259.70946
257.51216
255.47259
253.63415
252.02851
250.6719
249.56472
248.69225
248.02647
247.52877
247.15318
246.84958
246.56677
246.25492
245.86754
245.3628
244.70432
243.86156
242.80984
241.53007
240.00795
263.28656
261.01554
258.82197
256.75483
254.85649
253.15863
251.6799
250.42499
249.38477
248.53758
247.85142
247.28659
246.79859
246.34092
245.86744
245.33428
244.70134
243.93313
242.99934
241.87499
240.54032
238.98004
264.53835
262.30033
260.11425
258.02601
256.07587
254.29559
252.70548
251.3138
250.11638
249.09737
248.23087
247.48321
246.81542
246.1857
245.55172
244.87249
244.10982
243.22939
242.20135
241.00062
239.60694
238.0042
265.75878
263.55549
261.38087
259.27715
257.28312
255.43007
253.73957
252.2227
250.87945
249.69909
248.66139
247.73838
246.89642
246.09844
245.30601
244.48118
243.58795
242.59337
241.46829
240.18777
238.73123
237.0819
266.94336
264.776
262.61622
260.50304
258.47313
256.55661
254.77633
253.1456
251.6679
250.33701
249.13781
248.04764
247.03797
246.07638
245.12839
244.15924
243.1353
242.02523
240.80081
239.43747
237.91449
236.21464
268.0895
265.95917
263.81729
261.70005
259.64145
257.67067
255.811
254.07747
252.47654
251.006
249.65533
248.40672
247.23649
246.11671
245.01685
243.90541
242.75131
241.52502
240.19948
238.7507
237.15804
235.40398
269.19248
267.10004
264.979
262.86237
260.78172
258.76546
256.83668
255.01158
253.29907
251.70027
250.20873
248.8111
247.48822
246.21646
244.96922
243.7183
242.43529
241.09269
239.66479
238.1284
236.46317
234.65149
270.2507
268.19661
266.09879
263.98718
261.89102
259.83757
257.84929
255.94344
254.13076
252.41511
250.79354
249.2567
247.7896
246.37275
244.98331
243.59644
242.18649
240.72812
239.19719
237.57149
235.83121
233.95879
271.26536
269.24992
267.17719
265.07438
262.96893
260.88604
258.8474
256.87098
254.96887
253.14727
251.40628
249.74009
248.13753
246.58291
245.05705
243.53839
242.00412
240.43115
238.79709
237.0809
235.26347
233.32755
272.23605
270.25928
268.21339
266.12296
264.01318
261.90742
259.82713
257.79004
255.8092
253.89266
252.04306
250.25769
248.5288
246.84425
245.18834
243.54271
241.88737
240.2016
238.46487
236.65752
234.76132
232.75949
273.16395
271.22555
269.20777
267.13266
265.02324
262.90133
260.78744
258.69882
256.64937
254.64852
252.70095
250.80658
248.9607
247.15442
245.37529
243.60804
241.83548
240.03932
238.20098
236.30232
234.32617
232.25642
274.05242
272.15211
270.16348
268.1062
266.00124
263.86916
261.72897
259.59743
257.48886
255.41367
253.37825
251.38477
249.43119
247.51152
245.61631
243.73324
241.84784
239.94423
238.0059
236.01631
233.95952
231.82023
274.90364
273.04086
271.08213
269.04493
266.94828
264.81103
262.65083
260.48432
258.32567
256.1859
254.07268
251.99002
249.93815
247.91369
245.90992
243.91728
241.92392
239.91637
237.88019
235.80058
233.66293
231.45294
275.72123
273.89533
271.96697
269.95159
267.86639
265.7286
263.55493
261.36106
259.16056
256.96523
254.78368
252.62136
250.48043
248.35977
246.25512
244.15947
242.06345
239.95594
237.82458
235.65637
233.43815
231.15672
276.50932
274.71969
272.82214
270.83022
268.75936
266.62529
264.44354
262.22856
259.99403
257.75172
255.5109
253.27816
251.05726
248.84898
246.65127
244.45942
242.26642
240.06337
237.83998
235.58508
233.28704
230.93388
277.27178
275.5178
273.65134
271.6842
269.63017
267.50354
265.31858
263.089
260.82789
258.54657
256.25502
253.96069
251.66859
249.38115
247.09821
244.81715
242.53311
240.23931
237.92749
235.58829
233.21165
230.78693
278.01261
276.29382
274.45877
272.51768
270.48282
268.36708
266.18353
263.94507
261.6637
259.35092
257.01678
254.66934
252.31461
249.95636
247.59605
245.23292
242.86405
240.48466
238.08841
235.66774
233.21421
230.71855
278.73526
277.0513
275.24804
273.3342
271.32066
269.21897
267.04104
264.79877
262.50364
260.16673
257.79768
255.40523
252.99612
250.5752
248.14533
245.70731
243.26001
240.80048
238.32419
235.82533
233.29707
230.73155
279.44257
277.79334
276.02239
274.13707
272.14696
270.06237
267.89408
265.65303
263.35006
260.99533
258.59874
256.16909
253.71366
251.23814
248.7465
246.24092
243.72181
241.18789
238.63633
236.063
233.46263
230.82882
280.13649
278.52213
276.78416
274.9287
272.96413
270.8996
268.74476
266.50962
264.20425
261.83839
259.42158
256.96223
254.46827
251.946
249.40029
246.83447
244.25032
241.64802
239.02632
236.38266
233.71329
231.01324
280.81783
279.23875
277.53467
275.71058
273.77374
271.73221
269.59463
267.37004
265.06773
262.6969
260.26627
257.78466
255.25985
252.69868
250.10669
247.48814
244.84595
242.18163
239.49533
236.78595
234.0512
231.28751
281.48607
279.94297
278.27391
276.48284
274.57599
272.5604
270.44374
268.23413
265.94008
263.57018
261.13286
258.63626
256.08811
253.49573
250.86523
248.2016
245.50865
242.789
240.04406
237.27405
234.47808
231.6539
282.13929
280.63319
279.00059
277.24448
275.37015
273.3837
271.29184
269.10182
266.82132
264.45825
262.0206
259.51602
256.95237
254.33659
251.67538
248.97431
246.23795
243.46987
240.67257
237.84749
234.99496
232.11405
282.7736
281.30571
279.71115
277.99205
276.15283
274.19869
272.13546
269.96954
267.70781
265.35749
262.92601
260.42078
257.8489
255.21767
252.53375
249.80322
247.03124
244.22213
241.37933
238.50532
235.6016
232.6684
283.3836
281.95529
280.4005
278.72058
276.91914
275.00054
272.9698
270.83248
268.59469
266.26295
263.84411
261.34514
258.77289
256.13421
253.43572
250.6839
247.88439
245.04211
242.16124
239.24512
236.29626
233.316
283.96249
282.57524
281.06207
279.42361
277.66272
275.78302
273.78871
271.6846
269.47603
267.1688
264.76912
262.28344
259.71832
257.08014
254.37566
251.611
248.79232
245.92502
243.01385
240.06292
237.07559
234.05417
284.50209
283.15739
281.68765
280.09287
278.37524
276.53767
274.58362
272.51716
270.3429
268.06594
265.69184
263.22648
260.676
258.04657
255.34426
252.57551
249.7464
246.86272
243.92967
240.95193
237.9336
234.8778
284.99331
283.69252
282.26792
280.71893
279.04713
277.25477
275.34463
273.32007
271.185
268.94385
266.60152
264.16332
261.63489
259.02206
256.33065
253.56665
250.73609
247.84495
244.89889
241.90297
238.86181
235.77927
285.42638
284.17075
282.79284
281.29159
279.66801
277.92375
276.06096
274.08235
271.99116
269.79117
267.48664
265.08226
262.58314
259.99466
257.32242
254.57193
251.7491
248.85979
245.90982
242.90472
239.8495
236.74851
285.79134
284.58189
283.25198
281.80015
280.22689
278.53331
276.72099
274.79202
272.74903
270.59517
268.33406
265.96981
263.50694
260.95036
258.30527
255.57703
252.77095
249.89285
246.94843
243.94351
240.88343
237.77295
286.0785
284.91592
283.635
282.23391
280.71271
279.07202
277.31289
275.43686
273.44597
271.34278
269.1303
266.81207
264.39204
261.87456
259.26439
256.56654
253.78617
250.92848
247.99928
245.00411
241.94867
238.83802
286.27865
285.16328
283.93195
282.58253
281.1147
279.52863
277.82491
276.00457
274.06912
272.02056
269.86135
267.59443
265.22322
262.75152
260.18357
257.52395
254.77755
251.94937
249.04461
246.06888
243.02776
239.92653
286.38347
285.31528
284.13373
282.83647
281.42283
279.89259
278.24594
276.48344
274.60613
272.61549
270.51345
268.30242
265.98526
263.56526
261.04616
258.43206
255.72744
252.93708
250.06579
247.11885
244.10167
241.01953
286.3859
285.36449
284.23253
282.98748
281.62837
280.15467
278.56619
276.86309
275.04598
273.11587
271.07421
268.92292
266.66432
264.30123
261.83684
259.27481
256.61915
253.87426
251.04478
248.13543
245.15144
242.0979
286.28042
285.30505
284.22209
283.02887
281.72419
280.30722
278.77746
277.13473
275.37925
273.51161
271.53283
269.44436
267.24805
264.94623
262.54161
260.03735
257.43702
254.74456
251.96428
249.10072
246.15851
243.1426
286.06313
285.13274
284.09784
282.95568
281.70487
280.34435
278.87334
277.29136
275.5983
273.7944
271.88026
269.85693
267.72583
265.4888
263.14812
260.70647
258.16694
255.53305
252.80867
249.99802
247.10552
244.13552
285.73181
284.84503
283.85692
282.7647
281.5668
280.26198
278.84924
277.32785
275.6974
273.95781
272.10936
270.1527
268.08885
265.91925
263.64574
261.27054
258.79632
256.22613
253.56341
250.81198
247.97595
245.05941
285.28587
284.44108
283.49822
282.45448
281.30818
280.05792
278.70252
277.24103
275.6728
273.99749
272.21506
270.32584
268.3305
266.23008
264.02603
261.72017
259.31473
256.81232
254.21597
251.52908
248.75538
245.89869
284.72626
283.92166
283.02227
282.02531
280.92899
279.73181
278.43242
277.02971
275.52284
273.91121
272.19455
270.37288
268.44656
266.41632
264.28321
262.04868
259.71457
257.28308
254.75683
252.13881
249.43231
246.64081
284.05536
283.28899
282.43114
281.47904
280.43085
279.28498
278.03996
276.69456
275.24774
273.69874
272.04705
270.29246
268.43506
266.47525
264.41379
262.25177
259.99066
257.6323
255.17889
252.63302
249.99759
247.27568
283.27678
282.5466
281.72822
280.81892
279.81684
278.72029
277.52775
276.23786
274.84947
273.36164
271.7737
270.08521
268.29603
266.40631
264.41652
262.32744
260.1402
257.85629
255.47756
253.0062
250.44471
247.79579
282.39519
281.6991
280.91804
280.04938
279.09124
278.04189
276.89973
275.66334
274.33146
272.90303
271.37721
269.75341
268.03128
266.21075
264.29203
262.27563
260.16239
257.95347
255.65038
253.25495
250.76932
248.19581
281.41607
280.75195
280.00604
279.17582
278.25937
277.25497
276.16097
274.97589
273.69838
272.32731
270.86171
269.30084
267.64418
265.89147
264.0427
262.09815
260.05838
257.92428
255.69704
253.37816
250.96944
248.47283
280.34557
279.7113
278.99838
278.20435
277.32733
276.36556
275.3174
274.18132
272.95593
271.63999
270.23247
268.73248
267.1394
265.45278
263.67243
261.79843
259.8311
257.77107
255.61926
253.37686
251.04536
248.62638
279.19027
278.58379
277.9017
277.14165
276.30177
275.38032
274.37565
273.28619
272.11053
270.84739
269.49563
268.05431
266.52266
264.90011
263.18632
261.38118
259.48482
257.49763
255.42029
253.25371
250.9991
248.65778
277.95702
277.37633
276.72298
275.99473
275.18975
274.3063
273.34275
272.29752
271.16917
269.95639
268.658
267.27296
265.80043
264.23973
262.59038
260.85211
259.02489
257.10891
255.10462
253.0127
250.8341
248.56985
276.6528
276.09597
275.46935
274.77079
273.99851
273.15079
272.22602
271.22263
270.13916
268.97429
267.72679
266.39558
264.97974
263.4785
261.89127
260.21767
258.45749
256.61077
254.67775
252.65893
250.55498
248.36671
275.2846
274.74979
274.14795
273.47705
272.73534
271.92115
271.03287
270.06896
269.02798
267.90856
266.70947
265.42959
264.06794
262.62368
261.09615
259.48482
257.7894
256.00976
254.14598
252.19835
250.16736
248.0536
273.85925
273.34472
272.76583
272.12065
271.40748
270.62468
269.77068
268.84396
267.84309
266.7667
265.61356
264.38251
263.07253
261.68273
260.21237
258.66086
257.02776
255.31285
253.51605
251.63749
249.67748
247.6364
272.3834
271.88751
271.32984
270.70853
270.02195
269.26851
268.44666
267.55492
266.59186
265.55614
264.44652
263.26182
262.001
260.66313
259.24741
257.75317
256.1799
254.52725
252.79504
250.98325
249.09202
247.12158
270.8634
270.38463
269.84653
269.24736
268.58554
267.85951
267.06777
266.20888
265.28143
264.2841
263.21563
262.07486
260.86073
259.57228
258.20865
256.76914
255.25315
253.66025
251.99015
250.24271
248.41794
246.5159
269.30529
268.8422
268.32215
267.74349
267.10468
266.40423
265.64068
264.81261
263.91865
262.95749
261.9279
260.82872
259.65886
258.41736
257.10333
255.71602
254.25477
252.71907
251.10856
249.42298
247.66223
245.82624
267.7147
267.26597
266.76255
266.20287
265.58545
264.90886
264.17167
263.37249
262.51001
261.58292
260.59002
259.53015
258.40224
257.2053
255.93842
254.60081
253.19178
251.71076
250.1573
248.53107
246.83185
245.05948
266.09688
265.6613
265.17319
264.63108
264.03354
263.37917
262.66662
261.89453
261.06161
260.16659
259.2083
258.18557
257.09736
255.94265
254.72055
253.43022
252.07094
250.6421
249.14319
247.5738
245.93362
244.22241
264.45669
264.03314
263.55912
263.03326
262.45418
261.82054
261.13102
260.3843
259.57914
258.71431
257.78863
256.80099
255.75032
254.63563
253.45601
252.21062
250.8987
249.5196
248.07276
246.55773
244.97412
243.32159
262.79855
262.386
261.92497
261.41414
260.85222
260.2379
259.5699
258.84697
258.06788
257.23144
256.33651
255.38198
254.36682
253.29003
252.1507
250.94798
249.68111
248.34939
246.95223
245.48913
243.95964
242.36335
261.12649
260.72401
260.27494
259.77805
259.23207
258.63577
257.9879
257.28726
256.53266
255.72294
254.85699
253.93373
252.95213
251.91123
250.8101
249.6479
248.42385
247.13723
245.78744
244.37391
242.89615
241.35371
259.44414
259.05089
258.61285
258.12887
257.59773
257.01825
256.38922
255.70949
254.9779
254.19334
253.35471
252.46098
251.51112
250.50419
249.43928
248.31554
247.13219
245.88849
244.58382
243.21759
241.78926
240.29833
257.75475
257.36997
256.94212
256.47012
255.95281
255.38904
254.77767
254.11756
253.40762
252.64675
251.8339
250.96805
250.04822
249.07347
248.0429
246.95567
245.81099
244.60813
243.34644
242.02531
240.64419
239.20251
256.06122
255.68423
255.26581
254.80495
254.30054
253.75147
253.15665
252.51499
251.82542
251.08689
250.29837
249.45889
248.56747
247.6232
246.6252
245.57263
244.46471
243.30072
242.07997
240.80185
239.46577
238.07116
254.36611
253.9963
253.58663
253.13615
252.6438
252.10851
251.52924
250.90493
250.23456
249.51711
248.75159
247.93704
247.07253
246.15716
245.19006
244.17042
243.09745
241.97043
240.78868
239.55157
238.25849
236.90886
252.67167
252.30851
251.90698
251.4662
250.98514
250.4628
249.89815
249.2902
248.63794
247.94041
247.19664
246.40571
245.5667
244.67874
243.74098
242.75263
241.7129
240.62108
239.47649
238.27849
237.02646
235.71979
250.97989
250.62291
250.22897
249.79727
249.32683
248.81667
248.26581
247.67329
247.03816
246.35947
245.6363
244.86775
244.05294
243.191
242.28113
241.32253
240.31444
239.25614
238.14697
236.98627
235.77343
234.50782
249.29248
248.94127
248.55446
248.13129
247.67084
247.17217
246.63434
246.05643
245.43751
244.77668
244.07304
243.32574
242.5339
241.6967
240.81335
239.88306
238.9051
237.87875
236.80335
235.67826
234.50285
233.27648
247.61095
247.26515
246.88504
246.46993
246.01892
245.53112
245.00563
244.44155
243.83801
243.19413
242.50906
241.78194
241.01195
240.19829
239.34018
238.43687
237.48762
236.49174
235.44857
234.35747
233.21782
232.02897
245.93659
245.59589
245.22212
244.81463
244.37258
243.89509
243.38131
242.83038
242.24146
241.6137
240.94628
240.23838
239.4892
238.69797
237.86392
236.98632
236.06446
235.09767
234.08527
233.02665
231.92118
230.76822
244.27052
243.93466
243.56691
243.16667
242.73313
242.26545
241.76282
241.22442
240.64942
240.03702
239.38643
238.69685
237.96751
237.19767
236.38658
235.53353
234.63784
233.69882
232.71583
231.68826
230.61549
229.49687
242.61368
242.28245
241.92045
241.52713
241.10171
240.64341
240.15142
239.62497
239.06327
238.46553
237.831
237.15892
236.44854
235.69913
234.90998
234.08039
233.2097
232.29724
231.34239
230.34453
229.30306
228.21733
240.96691
240.64012
240.28364
239.89696
239.47932
239.02999
238.54819
238.03318
237.4842
236.90049
236.28133
235.62599
234.93374
234.20388
233.43571
232.62858
231.78181
230.89478
229.96686
228.99745
227.98596
226.93174
239.3309
239.0084
238.65724
238.27695
237.86681
237.42609
236.95408
236.45004
235.91325
235.343
234.73857
234.09927
233.42439
232.71325
231.9652
231.17957
230.35573
229.49305
228.59095
227.64881
226.66605
225.64206
237.70623
237.38792
237.04191
236.6678
236.26488
235.83247
235.36988
234.8764
234.35134
233.79401
233.20373
232.57982
231.92161
231.22844
230.49968
229.73468
228.93283
228.09352
227.21617
226.3002
225.34502
224.35002
236.09341
235.77919
235.4382
235.07008
234.67417
234.24979
233.79629
233.31299
232.79923
232.25434
231.67767
231.06857
230.42638
229.75049
229.04026
228.29507
227.51434
226.69748
225.8439
224.95305
224.02435
223.0572
234.49284
234.18265
233.84658
233.4843
233.09519
232.6786
232.2339
231.76044
231.25759
230.72471
230.16116
229.56632
228.93957
228.28029
227.58789
226.86176
226.10134
225.30605
224.47532
223.60862
222.70537
221.765
232.90489
232.59866
232.26742
231.91086
231.52838
231.11937
230.68321
230.21929
229.727
229.20572
228.65484
228.07377
227.4619
226.81864
226.14341
225.43564
224.69477
223.92024
223.11151
222.26804
221.38928
220.47466
231.32981
231.02753
230.70105
230.3501
229.9741
229.57248
229.14463
228.68998
228.20793
227.69789
227.15928
226.59151
225.99401
225.36622
224.70756
224.01749
223.29546
222.54094
221.75339
220.93229
220.07712
219.18729
229.76784
229.46949
229.14772
228.80229
228.43266
228.03825
227.61852
227.17288
226.70078
226.20165
225.67492
225.12004
224.53645
223.9236
223.28095
222.60797
221.90413
221.16891
220.40179
219.60226
218.76981
217.90388
228.21914
227.92472
227.60762
227.26765
226.90427
226.51695
226.10514
225.6683
225.20589
224.71736
224.20217
223.65979
223.08967
222.4913
221.86413
221.20767
220.5214
219.80482
219.05742
218.27871
217.46819
216.62531
226.68384
226.39335
226.08091
225.74633
225.38912
225.00875
224.60471
224.17647
223.72352
223.24531
222.74135
222.2111
221.65406
221.06971
220.45756
219.81709
219.14781
218.44925
217.72091
216.96231
216.17296
215.35233
225.16201
224.87548
224.56768
224.23846
223.88734
223.51382
223.1174
222.69759
222.25387
221.78574
221.29271
220.77427
220.22994
219.65921
219.0616
218.43663
217.78382
217.10269
216.39279
215.65364
214.88475
214.08562
223.6537
223.37116
223.068
222.74411
222.39901
222.03225
221.64333
221.23177
220.79709
220.33881
219.85645
219.34952
218.81754
218.26005
217.67657
217.06664
216.42979
215.76557
215.07352
214.35318
213.6041
212.82575
222.15892
221.88039
221.58188
221.26329
220.92418
220.56408
220.18255
219.77911
219.3533
218.90465
218.43271
217.937
217.41708
216.87247
216.30273
215.7074
215.08604
214.43822
213.76347
213.06137
212.33146
211.57324
220.67762
220.40315
220.1093
219.79601
219.46283
219.10934
218.7351
218.33965
217.92254
217.48334
217.02159
216.53685
216.02867
215.49662
214.94025
214.35913
213.75283
213.12092
212.46297
211.77856
211.06722
210.3285
219.20976
218.93939
218.65023
218.34222
218.01495
217.66801
217.30096
216.91338
216.50484
216.0749
215.62314
215.14913
214.65243
214.13263
213.58929
213.022
212.43035
211.81391
211.17227
210.50502
209.81171
209.09189
217.75523
217.48901
217.20456
216.90184
216.58046
216.24001
215.88009
215.50028
215.10017
214.67934
214.23737
213.77386
213.28839
212.78055
212.24993
211.69612
211.11873
210.51734
209.89156
209.24098
208.56518
207.8637
216.31392
216.05191
215.77219
215.47477
215.15926
214.82527
214.4724
214.10027
213.70847
213.29659
212.86425
212.41104
211.93656
211.44042
210.92222
210.38156
209.81807
209.23134
208.621
207.98663
207.32784
206.64418
214.88568
214.62793
214.35299
214.06088
213.75123
213.42366
213.07779
212.71325
212.32965
211.9266
211.50372
211.06061
210.59691
210.11222
209.60616
209.07835
208.52842
207.95598
207.36067
206.74209
206.09984
205.4335
213.47035
213.21692
212.94679
212.66
212.3562
212.03503
211.69611
211.33909
210.96359
210.56924
210.15567
209.7225
209.26936
208.79589
208.30172
207.78647
207.24978
206.69129
206.11063
205.50742
204.88129
204.23179
212.06773
211.81868
211.5534
211.27196
210.97401
210.65921
210.32721
209.97764
209.61015
209.22438
208.81998
208.39658
207.95383
207.49136
207.00883
206.50587
205.98213
205.43726
204.8709
204.28268
203.67224
203.03915
210.67762
210.433
210.17263
209.89655
209.60446
209.29602
208.97088
208.62871
208.26915
207.89187
207.49651
207.08273
206.65018
206.19852
205.7274
205.23647
204.7254
204.19384
203.64145
203.06786
202.47272
201.85563
209.2998
209.05967
208.80423
208.53356
208.24733
207.94523
207.62693
207.2921
206.9404
206.5715
206.18507
205.78077
205.35826
204.91721
204.45729
203.97817
203.4795
202.96097
202.42222
201.86293
201.28272
200.68122
207.93401
207.69845
207.44799
207.18274
206.90238
206.60662
206.29513
205.96759
205.62368
205.26308
204.88547
204.49051
204.0779
203.64729
203.19837
202.73082
202.24432
201.73853
201.21314
200.66781
200.10219
199.51591
206.58002
206.34907
206.10365
205.84384
205.56938
205.27994
204.97524
204.65495
204.31877
203.96639
203.59749
203.21177
202.80889
202.38856
201.95046
201.49428
201.0197
200.5264
200.01409
199.48242
198.93106
198.35964
205.23756
205.01129
204.77094
204.51662
204.24805
203.96494
203.667
203.35393
203.02543
202.68119
202.32092
201.9443
201.55104
201.14083
200.71337
200.26835
199.80548
199.32444
198.82493
198.30663
197.76922
197.21233
203.90637
203.68484
203.4496
203.20079
202.93814
202.66136
202.37017
202.06428
201.7434
201.40723
201.05549
200.68788
200.30411
199.90387
199.48689
199.05285
198.60148
198.13246
197.64551
197.14032
196.61656
196.07388
202.58617
202.36943
202.13936
201.89609
201.63937
201.36892
201.08446
200.78572
200.47242
200.14426
199.80098
199.44227
199.06787
198.67747
198.2708
197.84757
197.4075
196.9503
196.47567
195.98332
195.47293
194.94416
201.27668
201.0648
200.83994
200.60225
200.35147
200.08735
199.80961
199.51799
199.21222
198.89202
198.55711
198.20721
197.84206
197.46138
197.06488
196.65229
196.22334
195.77774
195.3152
194.83545
194.33817
193.82302
199.97765
199.77067
199.55106
199.31897
199.07416
198.81637
198.54534
198.26082
197.96254
197.65023
197.32362
196.98245
196.62645
196.25535
195.86888
195.46678
195.04877
194.61458
194.16393
193.69654
193.21212
192.71032
198.68879
198.48677
198.27245
198.04599
197.80716
197.5557
197.29138
197.01393
196.72309
196.41862
196.10025
195.76772
195.42077
195.05914
194.68257
194.2908
193.88356
193.4606
193.02163
192.56639
192.09458
191.60588
197.40985
197.21284
197.00384
196.78304
196.5502
196.30508
196.04744
195.77704
195.49362
195.19693
194.88673
194.56276
194.22477
193.8725
193.5057
193.12412
192.7275
192.31558
191.8881
191.44479
190.98537
190.50952
196.14056
195.9486
195.74497
195.52985
195.30301
195.06423
194.81327
194.54989
194.27385
193.9849
193.68281
193.36732
193.03819
192.69517
192.33803
191.9665
191.58034
191.1793
190.76312
190.33155
189.88429
189.42106
194.88068
194.69381
194.49558
194.28616
194.06534
193.8329
193.5886
193.33222
193.06352
192.78226
192.48821
192.18113
191.86078
191.52691
191.1793
190.81769
190.44185
190.05152
189.64647
189.22644
188.79115
188.3403
193.62996
193.44823
193.25542
193.05173
192.83693
192.61083
192.37318
192.12378
191.86238
191.58876
191.3027
191.00395
190.69228
190.36747
190.02928
189.67746
189.3118
188.93204
188.53794
188.12927
187.70574
187.26706
192.38819
192.21162
192.02427
191.82631
191.61755
191.39777
191.16677
190.92431
190.67018
190.40416
190.12602
189.83553
189.53247
189.21661
188.88773
188.54559
188.18996
187.82062
187.43732
187.03981
186.62785
186.20115
191.15514
190.98378
190.80189
190.60968
190.40696
190.19351
189.96912
189.73359
189.48669
189.22822
188.95794
188.67564
188.38111
188.07411