/*--------------------------------*- C++ -*----------------------------------*\
| =========                 |                                                 |
| \\      /  F ield         | OpenFOAM: The Open Source CFD Toolbox           |
|  \\    /   O peration     | Version:  2406                                  |
|   \\  /    A nd           | Website:  www.openfoam.com                      |
|    \\/     M anipulation  |                                                 |
\*---------------------------------------------------------------------------*/
FoamFile
{
    version     2.0;
    format      ascii;
    arch        "LSB;label=32;scalar=64";
    class       volScalarField;
    location    "0.016";
    object      Ma;
}
// * * * * * * * * * * * * * * * * * * * * * * * * * * * * * * * * * * * * * //

dimensions      [0 0 0 0 0 0 0];

internalField   nonuniform List<scalar> 
23203
(
0.086520826
0.092155779
0.097531295
0.1025867
0.10727174
0.11155507
0.1154284
0.11890315
0.12200476
0.12476711
0.12722775
0.12942442
0.13139279
0.13316529
0.13477054
0.13623338
0.13757502
0.13881352
0.13996404
0.14103927
0.14204953
0.14300335
0.14390811
0.086622847
0.092147137
0.097419154
0.10237775
0.10697631
0.11118597
0.11499903
0.11842635
0.12149224
0.12422909
0.12667284
0.12885968
0.13082388
0.13259662
0.1342055
0.13567449
0.13702416
0.13827199
0.13943276
0.14051879
0.14154022
0.14250546
0.1434217
0.086723768
0.092135866
0.09730291
0.10216622
0.10668015
0.11081729
0.11457053
0.11795042
0.12098028
0.12369112
0.12611738
0.12829375
0.13025314
0.13202552
0.13363748
0.13511218
0.13646949
0.13772635
0.1388971
0.13999373
0.14102617
0.14200271
0.14293036
0.086821495
0.092122175
0.097185104
0.1019537
0.10638376
0.11044902
0.1141428
0.11747531
0.12046894
0.1231534
0.12556168
0.12772705
0.12968107
0.13145256
0.13306712
0.13454708
0.13591165
0.13717723
0.1383577
0.13946471
0.14050799
0.14149568
0.14243466
0.086916762
0.092106954
0.097066621
0.10174107
0.10608779
0.11008162
0.11371623
0.11700146
0.11995875
0.12261655
0.12500646
0.12716034
0.1291085
0.13087861
0.1324953
0.13398008
0.13535152
0.13662546
0.13781534
0.13893248
0.13998639
0.14098505
0.087010242
0.092090573
0.096947655
0.10152857
0.10579252
0.10971542
0.11329121
0.11652932
0.11945024
0.1220812
0.12445243
0.12659444
0.12853629
0.13030454
0.1319229
0.13341208
0.13478997
0.1360719
0.13727086
0.13839787
0.13946217
0.1404716
0.087102307
0.092073202
0.096828283
0.1013163
0.10549813
0.10935066
0.11286807
0.1160593
0.11894394
0.12154797
0.12390029
0.12603011
0.12796525
0.12973124
0.13135082
0.13284396
0.13422789
0.13551741
0.13672511
0.13786167
0.13893612
0.13995607
0.087193081
0.092054873
0.096708529
0.10110435
0.10520476
0.10898757
0.11244711
0.11559183
0.11844035
0.12101746
0.12335073
0.1254681
0.12739622
0.12915954
0.13077994
0.1322766
0.13366616
0.13496288
0.13617896
0.13732475
0.13840902
0.13943925
0.087282432
0.092035493
0.0965884
0.1008928
0.10491258
0.10862638
0.11202865
0.1151273
0.11793998
0.12049026
0.12280443
0.12490916
0.12682997
0.12859028
0.13021111
0.13171089
0.13310566
0.13440919
0.13563326
0.13678792
0.13788171
0.13892189
0.087370202
0.092015525
0.096468417
0.1006821
0.10462194
0.10826744
0.11161306
0.11466613
0.11744331
0.11996693
0.12226202
0.12435401
0.12626728
0.12802429
0.12964518
0.13114769
0.13254727
0.13385719
0.13508887
0.13625204
0.13735499
0.13840478
0.087457182
0.091996098
0.096349517
0.10047289
0.10433333
0.10791112
0.11120069
0.11420871
0.11695078
0.119448
0.1217241
0.1238033
0.12570888
0.12746232
0.12908296
0.13058784
0.13199183
0.13330775
0.13454664
0.13571791
0.13682964
0.13788867
0.087548108
0.091978693
0.096231827
0.100265
0.10404658
0.10755738
0.11079163
0.11375526
0.11646273
0.1189339
0.1211912
0.12325766
0.12515545
0.12690513
0.12852523
0.13003214
0.13144016
0.13276169
0.13400737
0.13518635
0.13630645
0.13737432
0.087641269
0.091960747
0.096113399
0.10005739
0.10376114
0.10720596
0.11038584
0.11330588
0.11597942
0.11842501
0.12066381
0.12271763
0.12460762
0.12635339
0.12797272
0.12948134
0.13089304
0.13221978
0.13347185
0.13465811
0.13578616
0.13686247
0.087731961
0.09194193
0.09599556
0.099850527
0.10347721
0.10685701
0.10998348
0.11286082
0.11550115
0.1179217
0.12014236
0.12218376
0.12406597
0.12580775
0.1274261
0.12893616
0.1303512
0.13168276
0.13294081
0.13413393
0.1352695
0.13635381
0.087822426
0.091923438
0.095877533
0.099644499
0.10319509
0.10651088
0.10958492
0.11242043
0.11502829
0.1174244
0.11962732
0.12165652
0.12353105
0.12526878
0.126886
0.12839725
0.1298153
0.13115131
0.13241494
0.1336145
0.13475714
0.135849
0.087908739
0.091903443
0.095759904
0.099439999
0.1029155
0.10616821
0.10919071
0.11198522
0.11456131
0.11693353
0.11911914
0.1211364
0.12300335
0.12473702
0.12635298
0.12786518
0.12928595
0.13062607
0.13189487
0.13310043
0.13424971
0.13534868
0.087995356
0.091884552
0.095644293
0.099238327
0.10263951
0.10582991
0.10880161
0.11155579
0.11410074
0.11644958
0.11861825
0.12062383
0.12248333
0.12421293
0.12582752
0.12734048
0.12876369
0.13010756
0.13138115
0.13259231
0.13374778
0.13485339
0.088084201
0.091868206
0.095531795
0.099040429
0.10236798
0.10549673
0.10841827
0.11113273
0.11364706
0.11597297
0.11812505
0.12011919
0.12197137
0.12369692
0.12531004
0.12682357
0.12824897
0.12959628
0.13087429
0.13209062
0.13325185
0.13436366
0.088175206
0.091854717
0.095422886
0.098846893
0.10210155
0.10516934
0.10804131
0.11071658
0.11320074
0.11550411
0.1176399
0.11962281
0.12146777
0.12318929
0.12480086
0.12631482
0.12774215
0.1290926
0.13037467
0.13159578
0.13276235
0.13387991
0.088269016
0.091844645
0.095318002
0.098658279
0.1018409
0.10484841
0.10767138
0.11030789
0.11276225
0.11504337
0.11716312
0.11913495
0.1209728
0.12269028
0.12430025
0.12581446
0.12724352
0.12859682
0.12988262
0.13110814
0.13227964
0.13340252
0.088365192
0.09183924
0.095219573
0.098476723
0.10158767
0.10453521
0.10730941
0.10990738
0.11233213
0.11459117
0.116695
0.11865586
0.12048662
0.12220007
0.12380834
0.12532268
0.12675326
0.12810915
0.12939838
0.13062795
0.13180399
0.13293179
0.088465353
0.091839512
0.09512856
0.098303742
0.10134338
0.104231
0.10695643
0.10951583
0.11191095
0.1141479
0.11623582
0.11818571
0.12000939
0.12171875
0.12332524
0.12483957
0.12627148
0.12762973
0.12892208
0.13015539
0.13133561
0.13246794
0.088572171
0.091845766
0.095043552
0.09813784
0.10110723
0.10393563
0.1066126
0.10913354
0.11149902
0.11371383
0.11578578
0.11772464
0.11954115
0.12124635
0.12285096
0.12436514
0.1257982
0.12715858
0.1284538
0.12969053
0.1308746
0.1320111
0.088685369
0.091860149
0.094967014
0.097980652
0.10088027
0.10364981
0.10627851
0.10876098
0.11109673
0.11328925
0.11534506
0.11727274
0.11908196
0.12078286
0.12238546
0.12389933
0.12533336
0.12669567
0.12799352
0.1292334
0.13042101
0.13156133
0.088804697
0.091882957
0.094900832
0.097834594
0.10066462
0.10337522
0.10595542
0.10839911
0.11070475
0.11287461
0.11491397
0.11683017
0.11863187
0.12032827
0.12192867
0.12344206
0.12487688
0.1262409
0.12754115
0.12878393
0.12997479
0.13111865
0.088931908
0.091915347
0.094845619
0.097700419
0.10046123
0.10311288
0.10564428
0.10804872
0.11032372
0.1124704
0.1144928
0.11639712
0.11819093
0.11988255
0.1214805
0.12299319
0.12442859
0.12579412
0.12709655
0.12834199
0.12953586
0.13068296
0.089067997
0.091958239
0.094802153
0.097578859
0.10027089
0.10286358
0.10534586
0.10771053
0.10995425
0.11207707
0.1140819
0.11597378
0.11775923
0.11944567
0.12104085
0.12255257
0.12398832
0.12535514
0.12665954
0.12790741
0.12910405
0.13025415
0.089213797
0.092012566
0.094771405
0.097470828
0.10009445
0.10262819
0.10506098
0.10738527
0.10959696
0.11169514
0.11368162
0.11556037
0.11733688
0.11901763
0.12060965
0.12212006
0.12355587
0.12492374
0.12622988
0.12747997
0.12867915
0.12983201
0.089370012
0.092079022
0.094753855
0.097376692
0.099932414
0.10240729
0.10479031
0.1070736
0.10925245
0.1113251
0.11329235
0.11515715
0.11692399
0.11859847
0.12018681
0.12169552
0.12313107
0.12449971
0.12580734
0.12705942
0.12826093
0.12941634
0.089536236
0.092157677
0.094751347
0.097299176
0.099787204
0.10220283
0.10453535
0.10677669
0.10892164
0.11096764
0.1129146
0.11476446
0.11652078
0.11818825
0.11977232
0.12127882
0.12271371
0.12408279
0.12539165
0.1266455
0.12784912
0.12900687
0.089715199
0.092250078
0.09476255
0.097236812
0.099658214
0.10201475
0.10429632
0.10649492
0.10860494
0.11062318
0.11254872
0.11438259
0.11612742
0.11778705
0.11936614
0.12086988
0.12230363
0.12367279
0.12498257
0.12623792
0.12744342
0.12860331
0.089907943
0.092358281
0.094790365
0.097190165
0.09954471
0.10184226
0.10407277
0.10622815
0.10830246
0.11029195
0.11219499
0.11401178
0.1157441
0.11739497
0.11896832
0.12046862
0.12190071
0.1232695
0.12457985
0.12583641
0.12704356
0.12820537
0.090112931
0.092480504
0.094834327
0.097160948
0.099448818
0.10168719
0.10386615
0.10597752
0.1080151
0.10997469
0.11185399
0.11365248
0.11537116
0.11701225
0.11857894
0.12007506
0.12150486
0.12287278
0.12418328
0.12544073
0.12664926
0.12781276
0.090330554
0.092617057
0.094894351
0.097150051
0.099372417
0.10155147
0.10367813
0.10574443
0.10774402
0.10967231
0.11152648
0.1133053
0.11500905
0.11663919
0.11819821
0.11968927
0.12111606
0.12248251
0.1237927
0.12505064
0.12626024
0.12742518
0.090563089
0.092770223
0.094971899
0.097157033
0.099314653
0.10143476
0.10350878
0.10552918
0.10748965
0.10938534
0.11121296
0.1129707
0.11465816
0.11627612
0.11782634
0.11931139
0.12073434
0.12209865
0.12340797
0.12466597
0.12587627
0.12704237
0.090811473
0.092941043
0.095068255
0.097182491
0.099274742
0.10133561
0.10335692
0.1053311
0.10725175
0.10911383
0.11091369
0.11264903
0.11431886
0.11592334
0.1174636
0.11894157
0.12035979
0.1217212
0.12302901
0.12428656
0.12549716
0.12666408
0.09107389
0.093127288
0.095181522
0.097226986
0.099255025
0.10125704
0.10322511
0.10515215
0.10703182
0.10885895
0.11062959
0.11234103
0.11399176
0.11558136
0.11711036
0.11858011
0.11999259
0.12135024
0.12265583
0.12391233
0.12512275
0.12629011
0.091351671
0.093330539
0.095313146
0.09729087
0.099256078
0.10119961
0.10311422
0.10499327
0.10683076
0.10862154
0.11036145
0.11204743
0.11367751
0.11525073
0.11676709
0.11822735
0.11963298
0.12098591
0.12228848
0.12354327
0.12475296
0.12592031
0.091646569
0.093552776
0.095465105
0.097375408
0.09927632
0.10116114
0.10302214
0.104853
0.1066478
0.10840134
0.11010935
0.11176852
0.1133765
0.11493189
0.1164342
0.11788368
0.11928127
0.12062845
0.1219271
0.12317941
0.12438774
0.12555457
0.091957212
0.093792154
0.095635436
0.09747965
0.099318078
0.10114431
0.10295148
0.10473342
0.10648451
0.1081996
0.10987433
0.11150519
0.11308952
0.11462555
0.11611231
0.1175496
0.11893788
0.12027817
0.1215719
0.12282089
0.12402715
0.12519286
0.092284108
0.094049316
0.095824841
0.097603968
0.099380709
0.10114931
0.10290287
0.10463552
0.10634196
0.10801735
0.10965736
0.11125834
0.11281741
0.11433245
0.1158021
0.11722573
0.11860333
0.11993548
0.12122322
0.12246794
0.12367132
0.12483523
0.092628431
0.094325727
0.096035046
0.097750191
0.099465533
0.10117543
0.10287482
0.10455771
0.10621906
0.10785406
0.10945836
0.11102824
0.11256064
0.11405319
0.1155042
0.11691266
0.11827817
0.11960089
0.12088145
0.12212086
0.12332046
0.12448181
0.092989173
0.094619978
0.096264283
0.097916455
0.09957147
0.10122432
0.1028701
0.10450291
0.10611825
0.10771167
0.1092789
0.1108162
0.11232035
0.11378878
0.11521953
0.11661124
0.11796315
0.11927503
0.12054713
0.1217801
0.12297492
0.12413285
0.093366952
0.09493292
0.096513644
0.098103974
0.099699358
0.10129523
0.10288705
0.10447009
0.1060392
0.10759034
0.10911947
0.11062289
0.11209733
0.11354008
0.11494895
0.1163223
0.11765905
0.11895862
0.1202209
0.1214462
0.12263514
0.12378868
0.093761758
0.095264556
0.096783167
0.098312887
0.099849614
0.10138921
0.10292745
0.10446035
0.10598277
0.10749084
0.10898085
0.11044915
0.11189248
0.11330802
0.1146934
0.11604677
0.11736676
0.11865249
0.11990352
0.12111981
0.12230169
0.12344978
0.09417343
0.095614702
0.097072648
0.09854296
0.10002196
0.10150592
0.10299103
0.10447353
0.10594914
0.10741366
0.1088637
0.11029579
0.11170669
0.11309354
0.11445387
0.11578564
0.11708726
0.11835758
0.11959585
0.12080174
0.12197526
0.12311673
0.094601824
0.095983284
0.097382098
0.098794317
0.10021664
0.10164574
0.10307814
0.1045103
0.105939
0.10735961
0.1087689
0.11016372
0.11154094
0.1128977
0.11423144
0.11554001
0.11682163
0.11807491
0.11929887
0.12049288
0.12165667
0.12279029
0.095046606
0.096369987
0.097711238
0.09906673
0.10043351
0.10180863
0.10318896
0.10457127
0.10595246
0.10732886
0.10869684
0.11005357
0.11139603
0.1127214
0.11402713
0.11531096
0.11657098
0.11780562
0.11901368
0.12019429
0.12134691
0.12247131
0.09550732
0.096774398
0.098059708
0.099359903
0.10067236
0.10199445
0.10332339
0.10465625
0.10599009
0.10732226
0.1086486
0.10996641
0.11127305
0.1125658
0.11384211
0.1150997
0.11633654
0.11755094
0.11874149
0.11990712
0.12104706
0.12216084
0.095983423
0.097196022
0.098427077
0.099673494
0.10093294
0.1022031
0.1034815
0.10476551
0.10605238
0.10733955
0.10862402
0.10990246
0.11117252
0.11243164
0.11367735
0.11490733
0.11611952
0.11731211
0.11848357
0.11963264
0.12075836
0.12186004
0.096474193
0.097634168
0.098812691
0.10000689
0.10121471
0.1024341
0.1036629
0.10489876
0.10613924
0.10738186
0.10862436
0.10986287
0.11109543
0.11231995
0.11353393
0.11473504
0.11592117
0.11709046
0.11824126
0.1193722
0.12048213
0.12157018
0.096978765
0.098087992
0.099215737
0.10035933
0.10151694
0.10268677
0.10386693
0.10505532
0.10624975
0.10744799
0.10864801
0.10984768
0.11104314
0.11223239
0.11341352
0.11458443
0.11574305
0.1168875
0.11801607
0.11912727
0.12021982
0.12129269
0.097496348
0.098556807
0.099635663
0.10073043
0.10183948
0.10296128
0.10409415
0.10523626
0.10638564
0.10754024
0.10869796
0.109857
0.11101447
0.11216791
0.11331559
0.11445551
0.11558563
0.11670407
0.11780908
0.11889912
0.1199728
0.12102898
0.098025716
0.099039352
0.10007117
0.10111884
0.10218093
0.1032561
0.10434288
0.10543968
0.10654475
0.10765625
0.10877226
0.10989096
0.11101072
0.1121281
0.11324156
0.11434961
0.11545023
0.11654151
0.11762169
0.11868919
0.11974256
0.12078056
0.098565661
0.099534445
0.10052111
0.10152347
0.10254027
0.10357033
0.1046124
0.10566505
0.10672676
0.10779588
0.1088707
0.10994951
0.11103089
0.11211303
0.11319269
0.11426831
0.11533843
0.11640137
0.11745542
0.118499
0.11953064
0.120549
0.099114953
0.10004089
0.10098434
0.10194327
0.10291656
0.10390321
0.10490212
0.10591206
0.10693169
0.10795957
0.10899415
0.11003385
0.11107702
0.11212246
0.1131676
0.1142104
0.11524959
0.11628356
0.11731067
0.11832934
0.11933809
0.12033556
0.099672157
0.10055722
0.10145937
0.10237672
0.10330827
0.10425315
0.10521042
0.10617902
0.10715775
0.10814536
0.10914049
0.11014168
0.11114744
0.11215641
0.11316737
0.11417728
0.11518491
0.11618921
0.11718858
0.11818142
0.11916624
0.12014166
0.10023585
0.101082
0.10194477
0.10282239
0.10371397
0.10461878
0.105536
0.1064647
0.10740384
0.10835231
0.10930891
0.11027236
0.1112413
0.11221439
0.11319063
0.11416868
0.11514527
0.1161194
0.11709027
0.11805641
0.11901633
0.11996862
0.10080463
0.10161381
0.10243909
0.10327885
0.10413229
0.10499878
0.10587761
0.10676799
0.107669
0.10857967
0.10949894
0.11042569
0.11135871
0.11229673
0.11323852
0.11418324
0.11512918
0.11607363
0.11701569
0.11795462
0.11888896
0.11981728
0.10137704
0.10215115
0.10294083
0.10374457
0.10456166
0.10539157
0.10623368
0.1070873
0.10795165
0.10882585
0.10970899
0.11060006
0.11149799
0.11240164
0.11330986
0.11422157
0.11513616
0.11605137
0.11696521
0.11787669
0.11878486
0.11968847
0.10195169
0.10269258
0.1034485
0.10421804
0.10500058
0.10579565
0.10660275
0.10742125
0.10825047
0.10908967
0.10993803
0.11079465
0.1116586
0.11252885
0.11340433
0.11428395
0.11516682
0.11605238
0.11693779
0.11782168
0.11870344
0.11958198
0.10252718
0.10323665
0.10396059
0.1046977
0.10544744
0.1062094
0.10698314
0.10776813
0.10856378
0.10936943
0.11018436
0.11100779
0.11183887
0.11267671
0.11352033
0.11436868
0.11522071
0.11607567
0.1169328
0.11778942
0.11864464
0.11949787
0.10310217
0.10378195
0.10447562
0.10518202
0.10590064
0.10663114
0.10737315
0.1081262
0.10888978
0.1096633
0.11044614
0.1112376
0.11203693
0.11284332
0.11365591
0.11447376
0.1152959
0.11612137
0.11694968
0.11777974
0.11860899
0.11943672
0.10367541
0.10432715
0.10499221
0.10566953
0.10635868
0.10705935
0.10777121
0.10849388
0.10922689
0.10996974
0.11072186
0.11148265
0.11225144
0.11302752
0.1138101
0.11459836
0.11539143
0.11618841
0.11698846
0.11779115
0.11859499
0.11939787
0.10424575
0.10487102
0.10550905
0.10615888
0.10682013
0.10749253
0.1081758
0.1088696
0.10957353
0.11028714
0.11100995
0.1117414
0.11248091
0.11322784
0.11398149
0.11474113
0.11550597
0.11627517
0.11704789
0.1178234
0.11860136
0.11938001
0.10481212
0.10541242
0.10602492
0.10664878
0.10728364
0.10792928
0.10858546
0.10925188
0.10992818
0.11061399
0.11130885
0.1120123
0.11272382
0.11344282
0.1141687
0.11490079
0.11563838
0.11638072
0.117127
0.11787641
0.11862833
0.11938238
0.10537357
0.10595031
0.10653872
0.10713803
0.10774795
0.10836827
0.10899879
0.10963924
0.11028932
0.11094868
0.11161695
0.1122937
0.11297846
0.11367073
0.11436995
0.11507553
0.11578683
0.11650317
0.11722381
0.11794797
0.11867487
0.11940395
0.10592924
0.10648375
0.10704941
0.10762554
0.10821187
0.10880824
0.10941445
0.11003029
0.11065548
0.11128972
0.11193267
0.11258396
0.11324317
0.11390985
0.1145835
0.11526359
0.11594953
0.11664071
0.11733646
0.11803608
0.11873883
0.11944402
0.10647836
0.10701189
0.10755607
0.1081103
0.10867434
0.10924804
0.10983125
0.11042376
0.11102534
0.11163572
0.1122546
0.11288165
0.1135165
0.11415874
0.11480793
0.11546359
0.11612519
0.11679217
0.11746395
0.11813987
0.11881928
0.1195015
0.10702028
0.10753401
0.1080579
0.10859143
0.10913439
0.10968665
0.11024807
0.11081848
0.11139767
0.1119854
0.11258141
0.1131854
0.11379704
0.11441597
0.11504179
0.11567407
0.11631233
0.11695607
0.11760476
0.1182578
0.11891462
0.11957457
0.10755445
0.10804947
0.10855419
0.10906815
0.10959117
0.11012314
0.11066393
0.1112134
0.11177135
0.11233759
0.11291187
0.11349393
0.11408348
0.1146802
0.11528372
0.11589366
0.1165096
0.11713107
0.1177576
0.11838866
0.11902371
0.11966218
0.10808037
0.10855771
0.1090443
0.10953976
0.11004392
0.11055667
0.11107792
0.11160754
0.11214536
0.11269119
0.11324483
0.11380605
0.11437458
0.11495013
0.11553238
0.11612098
0.11671556
0.1173157
0.11792096
0.11853087
0.11914494
0.11976265
0.10859767
0.10905828
0.10952772
0.11000566
0.11049196
0.11098652
0.11148925
0.11200005
0.11251876
0.11304522
0.11357925
0.11412064
0.11466916
0.11522454
0.1157865
0.11635473
0.11692887
0.11750857
0.11809342
0.11868299
0.11927684
0.1198745
0.10910602
0.1095508
0.110004
0.11046535
0.11093472
0.11141203
0.11189721
0.11239015
0.11289073
0.1133988
0.11391419
0.11443673
0.1149662
0.11550237
0.11604498
0.11659376
0.11714839
0.11770853
0.11827383
0.1188439
0.11941834
0.11999672
0.10960518
0.11003494
0.11047276
0.11091839
0.11137172
0.11183267
0.11230119
0.11277718
0.11326054
0.11375113
0.11424881
0.11475342
0.11526476
0.11578263
0.1163068
0.11683702
0.117373
0.11791445
0.11846104
0.11901242
0.11956823
0.1201281
0.11009495
0.11051048
0.11093371
0.11136442
0.11180252
0.11224795
0.11270066
0.11316056
0.11362755
0.11410153
0.11458237
0.11506991
0.11556399
0.11606443
0.11657101
0.11708352
0.1176017
0.11812527
0.11865396
0.11918743
0.11972538
0.12026746
0.11057521
0.11097723
0.11138661
0.11180316
0.1122268
0.11265749
0.11309517
0.11353977
0.11399121
0.11444939
0.1149142
0.1153855
0.11586314
0.11634696
0.11683677
0.11733238
0.11783355
0.11834004
0.11885158
0.1193679
0.11988871
0.12041368
0.11104587
0.11143506
0.11183127
0.11223436
0.11264427
0.11306094
0.11348434
0.11391439
0.11435104
0.11479419
0.11524373
0.11569956
0.11616154
0.11662952
0.11710334
0.11758281
0.11806773
0.11855789
0.11905304
0.11955293
0.1200573
0.12056588
0.11150691
0.11188389
0.11226758
0.11265788
0.11305472
0.11345805
0.11386785
0.11428407
0.11470663
0.11513546
0.11557047
0.11601156
0.11645861
0.11691148
0.11737003
0.1178341
0.1183035
0.11877804
0.1192575
0.11974165
0.12023027
0.12072311
0.11195833
0.11232368
0.11269546
0.11307358
0.11345797
0.11384862
0.11424547
0.11464851
0.11505765
0.11547284
0.115894
0.11632103
0.11675384
0.1171923
0.11763628
0.11808563
0.11854019
0.11899979
0.11946424
0.11993331
0.12040682
0.12088454
0.11240017
0.11275445
0.11311488
0.11348138
0.11385393
0.11423248
0.114617
0.11500747
0.11540382
0.11580601
0.11621395
0.11662758
0.1170468
0.11747149
0.11790155
0.11833685
0.11877723
0.11922254
0.1196726
0.12012724
0.12058627
0.12104949
0.11283251
0.11317622
0.11352583
0.11388127
0.11424252
0.11460953
0.11498229
0.11536077
0.11574493
0.1161347
0.11653004
0.11693087
0.11733711
0.11774866
0.11816542
0.11858727
0.11901409
0.11944572
0.11988202
0.12032282
0.12076796
0.12121726
0.11325545
0.11358909
0.11392837
0.11427325
0.11462371
0.11497972
0.11534125
0.11570829
0.1160808
0.11645873
0.11684203
0.11723063
0.11762447
0.11802346
0.1184275
0.1188365
0.11925033
0.11966887
0.12009198
0.12051951
0.12095132
0.12138726
0.11366914
0.11399315
0.11432256
0.11465736
0.11499752
0.11534301
0.11569382
0.11604994
0.11641132
0.11677793
0.11714972
0.11752664
0.11790862
0.11829559
0.11868747
0.11908417
0.11948557
0.11989157
0.12030203
0.12071684
0.12113586
0.12155896
0.11407374
0.11438853
0.11470852
0.11503368
0.11536399
0.11569943
0.11603999
0.11638566
0.1167364
0.11709219
0.11745298
0.11781872
0.11818936
0.11856484
0.11894507
0.11932998
0.11971947
0.12011345
0.1205118
0.12091439
0.12132114
0.1217319
0.11446942
0.11477539
0.11508636
0.1154023
0.11572319
0.11604902
0.11637978
0.11671545
0.11705602
0.11740145
0.1177517
0.11810675
0.11846654
0.118831
0.11920008
0.1195737
0.11995178
0.12033423
0.12072095
0.12111182
0.12150677
0.12190568
0.11485638
0.11515392
0.11545625
0.11576335
0.11607523
0.11639185
0.11671322
0.11703933
0.11737015
0.11770566
0.11804584
0.11839064
0.11874002
0.11909394
0.11945233
0.11981513
0.12018226
0.12055365
0.12092921
0.12130883
0.12169245
0.12207996
0.11523485
0.1155243
0.11581835
0.11611699
0.11642022
0.11672803
0.11704041
0.11735735
0.11767883
0.11800484
0.11833535
0.11867034
0.11900975
0.11935355
0.11970169
0.1200541
0.12041074
0.12077151
0.12113634
0.12150516
0.12187788
0.12225442
0.11560505
0.11588674
0.11617285
0.11646338
0.11675833
0.11705768
0.11736143
0.11766958
0.11798211
0.11829901
0.11862025
0.11894582
0.11927566
0.11960976
0.11994806
0.12029051
0.12063706
0.12098763
0.12134217
0.12170058
0.12206283
0.12242882
0.11596723
0.11624147
0.11651996
0.1168027
0.11708969
0.11738093
0.1176764
0.11797612
0.11828006
0.11858821
0.11890056
0.11921708
0.11953775
0.11986253
0.12019138
0.12052426
0.12086111
0.12120189
0.12154652
0.12189494
0.1222471
0.12260294
0.11632164
0.11658872
0.11685989
0.11713515
0.1174145
0.11769794
0.11798547
0.11827708
0.11857277
0.11887252
0.11917633
0.11948417
0.11979602
0.12011184
0.12043161
0.12075529
0.12108283
0.12141418
0.12174928
0.12208808
0.12243053
0.12277658
0.11666854
0.11692873
0.11719286
0.11746092
0.11773293
0.11800888
0.11828877
0.11857259
0.11886035
0.11915203
0.11944763
0.11974712
0.12005049
0.12035771
0.12066875
0.12098357
0.12130215
0.12162442
0.12195035
0.12227988
0.12261298
0.1229496
0.11700819
0.11726174
0.1175191
0.11778024
0.11804519
0.11831393
0.11858646
0.1188628
0.11914293
0.11942684
0.11971454
0.120006
0.12030121
0.12060015
0.12090278
0.12120909
0.12151903
0.12183258
0.12214967
0.12247027
0.12279435
0.12312187
0.11734084
0.11758801
0.11783884
0.11809331
0.11835146
0.11861326
0.11887872
0.11914784
0.11942063
0.11969707
0.11997716
0.12026089
0.12054824
0.12083921
0.12113375
0.12143186
0.12173349
0.12203861
0.12234719
0.12265918
0.12297457
0.12329331
0.11766676
0.11790778
0.11815231
0.11840036
0.11865195
0.11890706
0.11916571
0.11942788
0.11969359
0.11996283
0.1202356
0.12051188
0.12079167
0.12107495
0.1213617
0.12165189
0.12194551
0.12224252
0.12254288
0.12284657
0.12315357
0.12346383
0.11798621
0.11822129
0.11845975
0.11870161
0.11894687
0.11919553
0.1194476
0.11970308
0.11996197
0.12022427
0.12048997
0.12075908
0.12103157
0.12130744
0.12158667
0.12186924
0.12215513
0.12244431
0.12273675
0.12303242
0.12333131
0.1236334
0.11829945
0.11852878
0.11876139
0.11899726
0.11923643
0.11947886
0.11972459
0.1199736
0.12022591
0.12048151
0.1207404
0.12100258
0.12126803
0.12153675
0.12180873
0.12208394
0.12236237
0.12264399
0.12292878
0.12321671
0.12350778
0.12380196
0.11860673
0.11883051
0.11905745
0.11928755
0.11952082
0.11975724
0.11999684
0.12023962
0.12048557
0.12073471
0.12098702
0.12124251
0.12150117
0.12176299
0.12202796
0.12229606
0.12256729
0.12284161
0.12311901
0.12339946
0.12368296
0.1239695
0.11890828
0.1191267
0.11934817
0.11957268
0.11980024
0.12003086
0.12026454
0.12050129
0.1207411
0.12098399
0.12122995
0.12147898
0.12173107
0.12198622
0.12224442
0.12250566
0.12276993
0.1230372
0.12330745
0.12358067
0.12385686
0.124136
0.11920436
0.11941758
0.11963375
0.11985285
0.12007491
0.12029991
0.12052786
0.12075878
0.12099266
0.1212295
0.12146932
0.1217121
0.12195785
0.12220656
0.12245822
0.12271282
0.12297035
0.1232308
0.12349415
0.12376038
0.12402949
0.12430148
0.11949518
0.11970338
0.11991442
0.12012829
0.120345
0.12056457
0.12078698
0.12101225
0.12124039
0.12147139
0.12170526
0.12194201
0.12218162
0.12242409
0.12266942
0.12291761
0.12316863
0.12342248
0.12367914
0.1239386
0.12420086
0.12446592
0.11978099
0.11998431
0.12019038
0.12039917
0.12061072
0.12082501
0.12104206
0.12126187
0.12148445
0.1217098
0.12193792
0.12216881
0.12240248
0.12263892
0.12287813
0.1231201
0.12336482
0.12361228
0.12386247
0.12411537
0.12437101
0.12462936
0.120062
0.12026059
0.12046183
0.12066571
0.12087224
0.12108143
0.12129328
0.1215078
0.12172499
0.12194486
0.1221674
0.12239264
0.12262055
0.12285115
0.12308442
0.12332037
0.12355899
0.12380026
0.12404418
0.12429074
0.12453995
0.1247918
0.12033841
0.12053242
0.12072897
0.12092808
0.12112975
0.12133399
0.1215408
0.12175018
0.12196215
0.12217671
0.12239386
0.1226136
0.12283594
0.12306088
0.1232884
0.12351852
0.12375122
0.1239865
0.12422435
0.12446475
0.12470773
0.12495328
0.12061045
0.12079999
0.120992
0.12118647
0.12138343
0.12158286
0.12178478
0.12198918
0.12219608
0.12240549
0.1226174
0.12283182
0.12304876
0.1232682
0.12349016
0.12371462
0.12394159
0.12417105
0.12440301
0.12463745
0.12487439
0.12511383
0.1208783
0.12106351
0.1212511
0.12144107
0.12163344
0.12182821
0.12202537
0.12222494
0.12242693
0.12263134
0.12283817
0.12304742
0.12325911
0.12347323
0.12368978
0.12390876
0.12413016
0.12435399
0.12458023
0.12480888
0.12503996
0.12527347
0.12114217
0.12132316
0.12150645
0.12169205
0.12187997
0.12207019
0.12226274
0.12245762
0.12265483
0.12285438
0.12305628
0.12326052
0.12346712
0.12367607
0.12388737
0.12410102
0.12431703
0.12453538
0.12475608
0.12497911
0.1252045
0.12543225
0.12140224
0.12157913
0.12175824
0.12193958
0.12212316
0.12230898
0.12249704
0.12268735
0.12287992
0.12307475
0.12327186
0.12347123
0.12367288
0.12387681
0.12408301
0.1242915
0.12450226
0.1247153
0.12493061
0.12514819
0.12536806
0.12559022
0.12165871
0.1218316
0.12200664
0.12218383
0.1223632
0.12254472
0.12272841
0.12291429
0.12310234
0.12329259
0.12348503
0.12367967
0.12387651
0.12407556
0.12427682
0.12448028
0.12468595
0.12489382
0.1251039
0.12531618
0.12553068
0.12574741
0.12191176
0.12208074
0.12225182
0.12242497
0.12260023
0.12277757
0.12295702
0.12313857
0.12332223
0.12350801
0.12369592
0.12388596
0.12407812
0.12427243
0.12446887
0.12466745
0.12486817
0.12507102
0.12527601
0.12548314
0.12569243
0.12590388
0.12216155
0.12232674
0.12249394
0.12266316
0.12283441
0.12300768
0.12318299
0.12336033
0.12353972
0.12372116
0.12390465
0.1240902
0.12427782
0.12446751
0.12465927
0.1248531
0.125049
0.12524697
0.12544702
0.12564914
0.12585336
0.12605967
0.12240828
0.12256976
0.12273319
0.12289857
0.12306591
0.12323521
0.12340648
0.12357972
0.12375494
0.12393214
0.12411134
0.12429253
0.12447572
0.12466091
0.12484811
0.12503732
0.12522853
0.12542176
0.125617
0.12581424
0.12601352
0.12621484
0.12265212
0.12280996
0.12296971
0.12313134
0.12329487
0.12346029
0.12362762
0.12379687
0.12396802
0.1241411
0.12431611
0.12449305
0.12467192
0.12485274
0.1250355
0.1252202
0.12540686
0.12559546
0.12578601
0.12597851
0.12617298
0.12636944
0.12289322
0.12304752
0.12320366
0.12336163
0.12352144
0.12368308
0.12384657
0.12401191
0.1241791
0.12434815
0.12451908
0.12469187
0.12486654
0.12504309
0.12522152
0.12540184
0.12558405
0.12576814
0.12595413
0.12614201
0.12633181
0.12652353
0.12313176
0.1232826
0.12343521
0.1235896
0.12374577
0.12390372
0.12406345
0.12422498
0.1243883
0.12455342
0.12472036
0.12488911
0.12505967
0.12523206
0.12540628
0.12558232
0.12576019
0.1259399
0.12612144
0.12630481
0.12649005
0.12667716
0.12336789
0.12351534
0.1236645
0.12381539
0.123968
0.12412233
0.1242784
0.1244362
0.12459574
0.12475703
0.12492008
0.12508488
0.12525144
0.12541976
0.12558986
0.12576173
0.12593538
0.1261108
0.126288
0.12646699
0.12664778
0.12683039
0.12360177
0.1237459
0.12389169
0.12403914
0.12418827
0.12433907
0.12449155
0.12464571
0.12480156
0.1249591
0.12511834
0.12527928
0.12544193
0.12560629
0.12577237
0.12594017
0.12610969
0.12628093
0.1264539
0.12662861
0.12680506
0.12698328
0.12383356
0.12397443
0.12411691
0.12426101
0.12440673
0.12455407
0.12470303
0.12485363
0.12500586
0.12515973
0.12531525
0.12547243
0.12563125
0.12579174
0.1259539
0.12611772
0.12628321
0.12645037
0.12661921
0.12678973
0.12696196
0.12713589
0.1240634
0.12420107
0.12434031
0.12448112
0.1246235
0.12476745
0.12491297
0.12506008
0.12520877
0.12535906
0.12551094
0.12566442
0.12581951
0.12597621
0.12613453
0.12629446
0.12645602
0.12661919
0.126784
0.12695044
0.12711853
0.12728828
0.12429143
0.12442597
0.12456203
0.1246996
0.12483871
0.12497933
0.12512149
0.12526517
0.1254104
0.12555717
0.12570549
0.12585537
0.1260068
0.1261598
0.12631436
0.12647049
0.1266282
0.12678748
0.12694834
0.12711079
0.12727484
0.12744051
0.12451779
0.12464925
0.12478219
0.12491659
0.12505248
0.12518984
0.12532869
0.12546903
0.12561086
0.12575419