/*--------------------------------*- C++ -*----------------------------------*\
| =========                 |                                                 |
| \\      /  F ield         | OpenFOAM: The Open Source CFD Toolbox           |
|  \\    /   O peration     | Version:  2406                                  |
|   \\  /    A nd           | Website:  www.openfoam.com                      |
|    \\/     M anipulation  |                                                 |
\*---------------------------------------------------------------------------*/
FoamFile
{
    version     2.0;
    format      ascii;
    arch        "LSB;label=32;scalar=64";
    class       volScalarField;
    location    "0.012";
    object      nutMean;
}
// * * * * * * * * * * * * * * * * * * * * * * * * * * * * * * * * * * * * * //

dimensions      [0 2 -1 0 0 0 0];

internalField   nonuniform List<scalar> 
23204
(
0.0041883378
0.0041830593
0.0041790008
0.0041741446
0.0041779136
0.0043135104
0.0042980922
0.0042839261
0.004271023
0.0042593745
0.0042488928
0.0042393867
0.0042306631
0.0042224816
0.004214796
0.004207508
0.0042009728
0.0041948944
0.0041891113
0.0041838185
0.0041797543
0.0041749149
0.0041786608
0.078785643
0.066746075
0.054881259
0.043360699
0.032405018
0.022323954
0.013748812
0.0077728122
0.0051566203
0.0046178176
0.0045305405
0.0044943015
0.0044650326
0.0044383658
0.0044137037
0.0043908537
0.0043696922
0.0043500902
0.0043319308
0.0043151117
0.0042995907
0.0042853298
0.0042723384
0.0042606076
0.00425005
0.0042404743
0.0042316885
0.0042234496
0.0042157123
0.004208375
0.0042017995
0.0041956954
0.0041898882
0.004184581
0.0041805109
0.0041756872
0.0041794067
0.188845
0.1948877
0.20093865
0.20693778
0.21281521
0.2184854
0.22384574
0.22877772
0.2331503
0.23682515
0.23966352
0.24153579
0.24233268
0.24197472
0.2404184
0.23766011
0.23373483
0.2287145
0.22272201
0.21595947
0.20877418
0.20166549
0.19453371
0.18684078
0.17843889
0.1693533
0.15963954
0.14936592
0.13860301
0.12742523
0.11590428
0.10411597
0.092139942
0.080048999
0.067991836
0.056093646
0.044518827
0.033481517
0.02327693
0.014489948
0.0081969292
0.0052744909
0.0046344135
0.0045348017
0.0044973106
0.0044677325
0.0044408552
0.0044160076
0.0043929894
0.0043716762
0.0043519376
0.0043336546
0.0043167217
0.004301097
0.0042867405
0.0042736601
0.0042618462
0.004251212
0.0042415663
0.0042327174
0.0042244209
0.0042166319
0.0042092451
0.0042026291
0.0041964995
0.0041906687
0.0041853472
0.0041812708
0.0041764614
0.0041801514
0.046581994
0.049091066
0.051691926
0.054380665
0.057156396
0.060019149
0.0629694
0.066007921
0.069135736
0.072354104
0.075664523
0.079068739
0.082568744
0.086166777
0.089865311
0.093667012
0.097574689
0.10159122
0.10571948
0.10996226
0.11432218
0.11880168
0.12340292
0.12812784
0.13297806
0.13795496
0.14305954
0.14829231
0.15365303
0.15914042
0.1647516
0.17048165
0.17632256
0.1822583
0.18820311
0.19422651
0.20026732
0.20626754
0.21215873
0.21785733
0.22326282
0.22825837
0.23271396
0.23649122
0.23945019
0.24145871
0.24240342
0.24219956
0.24079759
0.23818707
0.234396
0.22948844
0.22357647
0.21684579
0.20961155
0.20239027
0.19526127
0.18765233
0.17933876
0.17033295
0.16068976
0.15047729
0.13976602
0.12863008
0.11714119
0.10537455
0.093408534
0.081321173
0.069248537
0.057318707
0.045691903
0.034576071
0.024253539
0.015264723
0.0086598712
0.0054142049
0.0046544175
0.0045393682
0.0045003628
0.0044704535
0.0044433622
0.0044183271
0.0043951387
0.0043736722
0.0043537956
0.0043353879
0.0043183404
0.004302611
0.0042881581
0.0042749879
0.0042630904
0.004252379
0.0042426625
0.0042337502
0.0042253957
0.0042175547
0.0042101185
0.004203462
0.0041973069
0.0041914528
0.0041861169
0.004182034
0.0041772377
0.0041808946
0.04707485
0.049551037
0.052119474
0.054776836
0.057521707
0.06035371
0.063273091
0.066280505
0.06937692
0.072563578
0.075841978
0.079213875
0.082681278
0.086246443
0.089911857
0.093680199
0.097554289
0.10153702
0.10563126
0.10983982
0.11416534
0.11861026
0.12317678
0.12786684
0.13268215
0.13762409
0.14269374
0.14789173
0.153218
0.15867139
0.16424923
0.16994651
0.17575428
0.18165409
0.18759896
0.19360731
0.19963818
0.20563815
0.2115412
0.21726593
0.22271411
0.2277708
0.23230706
0.23618467
0.23926262
0.24140629
0.24249837
0.24244884
0.24120211
0.23874095
0.2350864
0.23029503
0.2244688
0.21777809
0.210508
0.20316272
0.19599997
0.18846634
0.18024091
0.17131558
0.1617435
0.1515928
0.14093381
0.12984051
0.11838453
0.10664056
0.094686294
0.082602582
0.070516338
0.058556603
0.046880032
0.035688645
0.025253277
0.016072729
0.00916239
0.0055789366
0.0046787231
0.004544321
0.0045034652
0.0044731958
0.0044458866
0.0044206617
0.0043973017
0.0043756802
0.0043556642
0.0043371304
0.0043199676
0.0043041328
0.0042895827
0.004276322
0.0042643401
0.004253551
0.0042437631
0.0042347868
0.004226374
0.0042184808
0.0042109951
0.0042042983
0.0041981177
0.0041922404
0.0041868903
0.0041828005
0.0041780156
0.0041816361
0.047613146
0.050058033
0.052594933
0.055221061
0.05793487
0.060735792
0.063623934
0.066599873
0.069664543
0.072819176
0.076065275
0.07940461
0.082839206
0.086371343
0.090003523
0.093738442
0.097578933
0.10152789
0.10558822
0.10976271
0.11405402
0.11846462
0.12299671
0.12765226
0.13243301
0.13734038
0.14237551
0.1475391
0.15283121
0.15825083
0.16379542
0.16946
0.17523552
0.18110493
0.18703817
0.19303178
0.19905233
0.2050506
0.21096342
0.21671181
0.22219994
0.22731495
0.2319292
0.23590475
0.23909973
0.24137723
0.24261606
0.24272105
0.24163054
0.23932055
0.23580498
0.23113331
0.22539808
0.21875524
0.21146298
0.20399254
0.19675529
0.18928311
0.18114512
0.17230097
0.16280075
0.15271251
0.14210657
0.13105672
0.11963455
0.10791427
0.095973201
0.083893531
0.071795353
0.059807429
0.04808325
0.036819158
0.026275676
0.016913407
0.0097050145
0.0057719384
0.0047084444
0.0045497661
0.0045066251
0.0044759602
0.0044484282
0.0044230116
0.0043994781
0.0043777001
0.0043575432
0.0043388824
0.0043216034
0.0043056622
0.0042910141
0.0042776621
0.0042655954
0.0042547279
0.004244868
0.0042358271
0.0042273556
0.0042194101
0.004211875
0.0042051378
0.0041989318
0.0041930315
0.0041876672
0.0041835698
0.0041787949
0.0041823756
0.04819957
0.050612571
0.053119175
0.055714792
0.058397735
0.061167472
0.064024126
0.066968284
0.070000886
0.073123177
0.076336679
0.079643184
0.083044745
0.086543661
0.090142461
0.093843857
0.097650699
0.1015659
0.10559236
0.10973289
0.11399017
0.11836665
0.12286457
0.12748592
0.13223244
0.1371056
0.14210658
0.14723613
0.15249438
0.15788047
0.16339197
0.16902408
0.17476814
0.18060918
0.18652514
0.192503
0.1985124
0.20450755
0.21042808
0.21619768
0.22172295
0.22689336
0.23158275
0.23565363
0.23896346
0.24137321
0.24275801
0.24301754
0.24208412
0.23992698
0.23655286
0.23200424
0.22636496
0.21977752
0.21247627
0.20488873
0.19753617
0.19010407
0.18205171
0.17328931
0.16386171
0.15383666
0.14328451
0.13227894
0.12089148
0.10919587
0.09726926
0.085194243
0.073085663
0.061071255
0.049301555
0.037967523
0.027320309
0.017786072
0.010288084
0.0059964873
0.0047449468
0.0045558411
0.0045098505
0.0044787483
0.0044509872
0.0044253767
0.004401668
0.0043797319
0.0043594328
0.0043406436
0.0043232477
0.0043071991
0.0042924523
0.0042790081
0.0042668559
0.0042559095
0.0042459769
0.0042368711
0.0042283405
0.0042203425
0.0042127582
0.0042059805
0.0041997491
0.0041938259
0.0041884472
0.004184342
0.0041795754
0.0041831125
0.046500629
0.048817529
0.051212867
0.053693472
0.056260123
0.058912736
0.061651366
0.064476391
0.067388518
0.070388756
0.073478397
0.076659002
0.079932398
0.083300671
0.086766153
0.090331399
0.093999144
0.097772256
0.10165366
0.10564628
0.10975294
0.11397631
0.11831887
0.12278286
0.12737027
0.13208287
0.13692216
0.14188934
0.1469852
0.15220993
0.15756276
0.16304142
0.16864136
0.17435454
0.18016791
0.18606343
0.19202424
0.19802144
0.20401203
0.20993826
0.21572663
0.22128631
0.22650911
0.23127066
0.23543411
0.2388564
0.24139664
0.24292636
0.24334026
0.24256465
0.24056194
0.23733158
0.2329092
0.22737053
0.22084556
0.21354755
0.20585777
0.1983547
0.19093162
0.18296109
0.17428083
0.1649266
0.15496544
0.14446785
0.13350737
0.12215547
0.1104855
0.09857449
0.086504872
0.074387332
0.062348106
0.050534927
0.039133656
0.028386791
0.018689922
0.01091176
0.0062557548
0.0047898872
0.0045627247
0.004513155
0.0044815592
0.0044535642
0.0044277568
0.0044038713
0.0043817755
0.0043613327
0.0043424139
0.0043249001
0.0043087434
0.0042938969
0.00428036
0.0042681214
0.0042570955
0.0042470898
0.0042379183
0.0042293285
0.0042212778
0.0042136441
0.0042068262
0.0042005693
0.0041946233
0.0041892302
0.0041851167
0.0041803567
0.0041838467
0.04719288
0.049492135
0.051866615
0.054321855
0.056860268
0.059482926
0.062190531
0.064983818
0.067863691
0.070831282
0.073887962
0.077035357
0.080275346
0.083610056
0.08704186
0.090573344
0.094207274
0.09794654
0.10179409
0.10575286
0.10982568
0.11401524
0.11832402
0.12275428
0.12730801
0.13198699
0.13679272
0.14172642
0.14678893
0.15198047
0.15730035
0.16274646
0.16831455
0.17399729
0.17978313
0.18565634
0.19159877
0.19758261
0.20356715
0.20949722
0.21530193
0.22089328
0.22616548
0.2309961
0.23524918
0.2387814
0.24145013
0.24312352
0.24369141
0.24307411
0.24122722
0.23814285
0.23384972
0.22841599
0.22196012
0.21467652
0.20690317
0.19922565
0.19176975
0.18387381
0.1752758
0.16599561
0.15609906
0.14565673
0.13474211
0.12342663
0.11178324
0.099888904
0.087825518
0.075700398
0.063637983
0.051783321
0.040317439
0.029474763
0.019624057
0.01157605
0.0065526599
0.0048452577
0.0045706507
0.0045165547
0.0044843943
0.0044561589
0.0044301529
0.0044060878
0.0043838307
0.0043632428
0.0043441931
0.0043265604
0.0043102945
0.0042953476
0.0042817171
0.0042693916
0.0042582856
0.0042482062
0.0042389686
0.0042303191
0.0042222156
0.0042145328
0.0042076747
0.0042013923
0.0041954234
0.0041900157
0.0041858935
0.0041811384
0.0041845778
0.047955433
0.050229952
0.052580182
0.055009172
0.057519261
0.060111994
0.062788526
0.065549916
0.068397293
0.071331939
0.074355335
0.077469186
0.080675439
0.083976279
0.087374123
0.090871599
0.094471508
0.098176768
0.10199035
0.1059152
0.10995418
0.11410998
0.11838509
0.12278177
0.12730203
0.13194764
0.1367201
0.14162065
0.14665012
0.1518088
0.15709605
0.16250992
0.16804649
0.17369907
0.17945732
0.18530703
0.19122992
0.19719919
0.20317623
0.20910828
0.21492703
0.22054732
0.22586588
0.23076237
0.23510204
0.23874143
0.24153644
0.24335202
0.24407328
0.24361461
0.24192474
0.23898839
0.23482736
0.22950263
0.22312205
0.21586303
0.20802582
0.20016482
0.19262481
0.18479065
0.1762744
0.1670689
0.15723767
0.14685127
0.13598327
0.12470503
0.11308916
0.1012125
0.089156253
0.07702487
0.064940872
0.053046684
0.041518733
0.030583887
0.020587531
0.012280813
0.0068898172
0.0049134215
0.0045799216
0.0045200715
0.0044872554
0.0044587707
0.0044325639
0.0044083174
0.0043858972
0.0043651628
0.0043459809
0.0043282283
0.0043118522
0.004296804
0.0042830793
0.0042706661
0.0042594795
0.0042493258
0.0042400216
0.0042313122
0.0042231557
0.0042154238
0.0042085257
0.0042022176
0.0041962261
0.0041908038
0.0041866721
0.0041819202
0.0041853053
0.048787374
0.05103507
0.053358885
0.055760444
0.058241668
0.060804193
0.06344942
0.066178657
0.068993236
0.071894598
0.074884347
0.077964284
0.081136436
0.084403052
0.087766609
0.091229783
0.094795413
0.098466454
0.1022459
0.10613673
0.1101418
0.11426383
0.11850531
0.12286852
0.12735547
0.13196792
0.13670737
0.14157505
0.14657179
0.15169789
0.15695282
0.16233476
0.16784011
0.17346273
0.1791933
0.18501867
0.19092103
0.19687462
0.20284266
0.20877488
0.21460545
0.22025194
0.22561385
0.23057295
0.23499598
0.23873963
0.24165848
0.24361453
0.2444883
0.24418831
0.24265648
0.23987005
0.23584378
0.23063181
0.22433231
0.21710717
0.20922487
0.20118641
0.19350681
0.18571292
0.17727684
0.16814656
0.15838133
0.14805156
0.13723089
0.12599071
0.11440327
0.10254527
0.090497107
0.07836075
0.066256748
0.054324952
0.042737391
0.031713855
0.021579392
0.013025764
0.0072694785
0.0049971239
0.0045909319
0.0045237346
0.0044901438
0.0044613987
0.0044349884
0.0044105604
0.0043879749
0.0043670923
0.0043477769
0.0043299031
0.004313416
0.0042982657
0.004284446
0.0042719444
0.0042606767
0.0042504482
0.004241077
0.0042323074
0.0042240977
0.004216317
0.0042093789
0.0042030452
0.0041970309
0.0041915939
0.0041874522
0.0041827017
0.0041860289
0.049692065
0.051911927
0.054207886
0.056580881
0.059032484
0.061564282
0.064177793
0.066874493
0.069655883
0.072523553
0.075479234
0.078524833
0.081662462
0.084894449
0.088223335
0.091651852
0.095182887
0.098819431
0.10256451
0.10642113
0.11039217
0.11448036
0.1186882
0.12301798
0.12747171
0.13205115
0.13675779
0.14159283
0.14655712
0.15165094
0.15687382
0.16222412
0.16769849
0.17329133
0.17899408
0.18479451
0.19067549
0.19661237
0.20257004
0.20850057
0.21434079
0.22001081
0.22541303
0.23043143
0.23493446
0.23877929
0.24181932
0.24391385
0.244939
0.24479753
0.24342449
0.24078969
0.23690071
0.23180499
0.22559188
0.21840921
0.2104987
0.20230073
0.19443042
0.1866429
0.17828344
0.16922866
0.15953012
0.14925766
0.13848503
0.12728369
0.11572557
0.10388719
0.09184808
0.079708019
0.067585562
0.055618049
0.043973271
0.032864392
0.022598721
0.013810464
0.0076934746
0.0050995014
0.0046041916
0.0045275829
0.0044930611
0.0044640429
0.0044374275
0.0044128159
0.0043900635
0.0043690309
0.0043495806
0.0043315846
0.0043149854
0.0042997323
0.0042858167
0.0042732262
0.0042618768
0.004251573
0.0042421343
0.0042333043
0.0042250414
0.0042172118
0.004210234
0.0042038746
0.0041978376
0.0041923857
0.0041882333
0.0041834826
0.0041867481
0.050674523
0.052865693
0.05513265
0.057476012
0.059897126
0.062397511
0.06497873
0.067642372
0.070390072
0.073223552
0.076144665
0.079155427
0.082258046
0.08545493
0.088748693
0.092142128
0.09563818
0.099239878
0.10295029
0.10677244
0.11070925
0.11476344
0.11893756
0.12323388
0.12765441
0.1322009
0.13687486
0.14167746
0.1466095
0.1516713
0.15686241
0.1621813
0.16762491
0.17318808
0.1788629
0.18463792
0.19049678
0.19641597
0.20236202
0.2082891
0.21413676
0.21982776
0.22526715
0.23034157
0.2349211
0.23886379
0.24202216
0.24425293
0.24542807
0.24544464
0.24423093
0.24174927
0.23799996
0.23302371
0.2269019
0.21976962
0.21184568
0.20351313
0.1954149
0.18758465
0.17929465
0.1703153
0.16068409
0.15046959
0.1397457
0.12858397
0.11705603
0.10523821
0.093209154
0.081066638
0.068927247
0.056925877
0.045226218
0.034035256
0.02364465
0.014634315
0.0081632075
0.005224061
0.0046203715
0.0045316698
0.0044960107
0.0044667036
0.0044398796
0.0044150826
0.0043921627
0.0043709783
0.0043513916
0.0043332722
0.0043165601
0.0043012032
0.0042871912
0.0042745111
0.0042630794
0.0042527
0.0042431934
0.0042343026
0.0042259864
0.0042181081
0.0042110908
0.0042047055
0.0041986461
0.0041931789
0.0041890152
0.0041842624
0.0041874628
0.051740718
0.053902262
0.05613914
0.058451804
0.060841478
0.063309623
0.065857825
0.068487749
0.071201134
0.073999818
0.076885769
0.079861109
0.082928142
0.086089367
0.089347472
0.092705321
0.096165913
0.099732334
0.10340769
0.10719504
0.11109731
0.11511728
0.11925749
0.12352022
0.12790748
0.13242105
0.13706236
0.14183261
0.14673257
0.15176253
0.15692209
0.1622098
0.16762283
0.17315641
0.17880318
0.18455241
0.19038852
0.1962891
0.20222231
0.20814432
0.21399722
0.21970663
0.22518015
0.23030717
0.23495967
0.23899672
0.24227032
0.24463486
0.2459583
0.2461322
0.24507807
0.24275081
0.23914339
0.23428965
0.22826359
0.22118897
0.2132646
0.20482439
0.19648188
0.18854541
0.18031118
0.17140666
0.16184321
0.15168737
0.1410129
0.12989153
0.11839462
0.10659827
0.094580283
0.082436543
0.070281718
0.058248316
0.046496061
0.035226212
0.024716383
0.015496551
0.0086796791
0.0053746663
0.0046403416
0.0045360633
0.0044989955
0.0044693789
0.0044423434
0.00441736
0.0043942714
0.0043729342
0.0043532093
0.0043349653
0.0043181393
0.0043026779
0.0042885687
0.0042757985
0.004264284
0.0042538285
0.0042442536
0.0042353019
0.0042269324
0.0042190056
0.004211949
0.0042055378
0.0041994559
0.0041939733
0.0041897975
0.0041850411
0.0041881724
0.052897355
0.055028211
0.057233886
0.059514738
0.061871925
0.064306878
0.066821196
0.069416598
0.07209491
0.07485807
0.077708149
0.080647376
0.083678151
0.086803062
0.090024881
0.093346542
0.096771109
0.10030172
0.10394153
0.10769364
0.111561
0.11554641
0.11965242
0.12388134
0.12823519
0.1327157
0.13732435
0.14206226
0.14693021
0.15192845
0.15705659
0.16231329
0.16769588
0.17319991
0.17881854
0.18454164
0.19035442
0.19623557
0.20215476
0.20807016
0.21392622
0.2196514
0.22515606
0.2303322
0.23505407
0.23918181
0.24256732
0.24506289
0.24653269
0.24686286
0.24596827
0.24379644
0.24033292
0.23560455
0.22967834
0.22266801
0.2147547
0.20623228
0.19765119
0.1895373
0.18133438
0.17250295
0.16300756
0.152911
0.1422866
0.13120633
0.11974125
0.10796727
0.095961374
0.083817635
0.07164886
0.059585234
0.047782652
0.036437017
0.025813219
0.016396233
0.0092435415
0.005555453
0.0046652126
0.004540858
0.0045020212
0.0044720694
0.0044448189
0.0044196475
0.0043963885
0.0043748974
0.0043550335
0.0043366633
0.0043197225
0.0043041558
0.0042899488
0.0042770879
0.0042654903
0.0042549583
0.0042453148
0.0042363021
0.0042278791
0.0042199039
0.0042128083
0.004206371
0.0042002668
0.0041947685
0.0041905798
0.0041858182
0.0041888767
0.054151806
0.056250759
0.058424008
0.060671843
0.06299539
0.065396067
0.067875488
0.070435419
0.073077759
0.075804531
0.078617906
0.081520209
0.084513937
0.087601771
0.090786565
0.094071332
0.0974592
0.10095337
0.10455705
0.10827336
0.11210531
0.11605572
0.12012715
0.12432193
0.12864207
0.13308933
0.13766514
0.14237063
0.14720654
0.15217309
0.15726989
0.16249567
0.1678479
0.17332241
0.17891277
0.18460942
0.19039834
0.19625926
0.20216333
0.20807062
0.21392786
0.21966625
0.225199
0.23042077
0.23520829
0.23942294
0.24291678
0.24554042
0.24715433
0.24763942
0.24690401
0.24488838
0.24157059
0.23697025
0.23114766
0.22420761
0.21631565
0.20773328
0.19893681
0.19057917
0.18236683
0.1736044
0.16417722
0.15414048
0.14356681
0.13252831
0.12109585
0.10934514
0.097352318
0.085209811
0.073028561
0.060936498
0.049085824
0.037667411
0.02693451
0.01733227
0.009855142
0.0057706537
0.0046963977
0.0045461802
0.0045050981
0.0044747756
0.0044473063
0.0044219438
0.0043985134
0.0043768672
0.0043568633
0.0043383659
0.0043213092
0.0043056364
0.004291331
0.0042783789
0.0042666977
0.0042560889
0.0042463764
0.0042373026
0.0042288261
0.0042208029
0.0042136684
0.004207205
0.0042010785
0.0041955642
0.0041913618
0.0041865933
0.0041895753
0.055512068
0.057577751
0.059717225
0.061930717
0.064219343
0.066584522
0.069027889
0.071551251
0.074156568
0.076845947
0.079621645
0.082486081
0.085441848
0.088491716
0.091638626
0.094885669
0.098236046
0.10169302
0.10525984
0.10893969
0.11273562
0.11665045
0.12068679
0.12484697
0.12913302
0.1335467
0.13808941
0.14276228
0.14756598
0.15250075
0.15756619
0.16276104
0.16808292
0.17352787
0.17908983
0.18475974
0.19052431
0.19636424
0.2022521
0.20814982
0.21400634
0.21975542
0.22531325
0.23057714
0.23542647
0.23972417
0.24332255
0.24607098
0.24782648
0.24846484
0.24788795
0.24602895
0.2428585
0.23838871
0.23267322
0.22580886
0.21794746
0.20932393
0.20034502
0.19169669
0.18341356
0.17471143
0.16535235
0.15537586
0.14485353
0.13385744
0.12245837
0.11073178
0.098753029
0.086612953
0.074420676
0.062301943
0.0504054
0.038917109
0.028079671
0.018303447
0.010514565
0.0060244881
0.0047356755
0.0045522003
0.0045082373
0.0044774963
0.0044498047
0.0044242489
0.0044006453
0.004378843
0.0043586976
0.0043400724
0.0043228986
0.0043071191
0.0042927146
0.0042796711
0.0042679058
0.0042572198
0.0042474383
0.0042383032
0.0042297733
0.004221702
0.004214529
0.0042080394
0.0042018905
0.00419636
0.0041921429
0.0041873662
0.0041902677
0.056986754
0.05901764
0.061121842
0.063299528
0.065551814
0.067880127
0.070286127
0.072771665
0.075338756
0.077989582
0.080726482
0.083551964
0.086468715
0.089479593
0.092587627
0.095795986
0.099107949
0.10252684
0.10605596
0.10969856
0.1134577
0.11733625
0.12133686
0.12546184
0.12971328
0.13409289
0.13860211
0.143242
0.14801325
0.15291604
0.15794996
0.16311378
0.16840522
0.17382052
0.1793539
0.18499677
0.19073647
0.19655468
0.2024253
0.20831202
0.21416595
0.21992327
0.22550315
0.23080574
0.23571289
0.24008963
0.2437886
0.24665829
0.24855258
0.24934223
0.24892284
0.24722065
0.24419884
0.23986194
0.23425677
0.227473
0.21965044
0.21100153
0.20187528
0.19291864
0.18448402
0.17582491
0.16653305
0.15661712
0.14614676
0.13519373
0.12382876
0.11212712
0.1001634
0.088026923
0.075825048
0.063681395
0.051741187
0.040185831
0.029248189
0.019308487
0.011221656
0.0063210134
0.0047852522
0.0045591443
0.0045114516
0.0044802317
0.0044523113
0.0044265617
0.0044027832
0.0043808234
0.004360536
0.0043417821
0.0043244905
0.0043086032
0.0042940992
0.0042809637
0.004269114
0.0042583507
0.0042484999
0.0042393035
0.0042307202
0.004222601
0.0042153897
0.0042088738
0.0042027028
0.0041971556
0.0041929228
0.0041881364
0.0041909536
0.058585053
0.060579458
0.062646739
0.064787007
0.067001381
0.069291307
0.071658473
0.074104769
0.076632269
0.079243222
0.081940047
0.084725336
0.087601866
0.090572584
0.093640604
0.096809179
0.10008166
0.10346144
0.10695188
0.11055628
0.11427774
0.11811917
0.12208323
0.1261723
0.13038843
0.13473337
0.13920853
0.14381498
0.14855335
0.15342382
0.15842594
0.16355851
0.16881932
0.17420476
0.17970932
0.18532481
0.19103916
0.19683493
0.20268728
0.20856161
0.21441107
0.22017428
0.22577319
0.23111101
0.23607202
0.24052359
0.24431908
0.24730621
0.24933619
0.25027483
0.25001163
0.24846605
0.24559394
0.24139205
0.23590024
0.22920145
0.22142512
0.21276435
0.20352282
0.19426995
0.185595
0.17694655
0.16771942
0.15786433
0.14744649
0.13653713
0.12520692
0.11353102
0.10158329
0.089451562
0.077241504
0.06507467
0.053092953
0.041473292
0.030439626
0.020346068
0.01197602
0.006663884
0.004847811
0.0045673095
0.0045147624
0.0044829843
0.0044548272
0.0044288827
0.0044049275
0.0043828084
0.0043623776
0.0043434936
0.0043260839
0.004310088
0.0042954841
0.0042822562
0.0042703219
0.004259481
0.0042495608
0.0042403031
0.0042316663
0.0042234996
0.0042162503
0.004209708
0.0042035147
0.0041979505
0.0041937011
0.0041889036
0.0041916328
0.060316712
0.06227279
0.064301345
0.066402428
0.068577165
0.070827023
0.073153722
0.075559196
0.078045574
0.08061517
0.083270477
0.086014174
0.08884912
0.091778351
0.094805069
0.097932605
0.10116439
0.10450387
0.1079545
0.11151959
0.11520232
0.11900563
0.12293221
0.12698446
0.13116444
0.13547393
0.13991432
0.14448668
0.14919161
0.15402925
0.15899915
0.16410011
0.16932997
0.17468525
0.18016067
0.18574837
0.19143683
0.19720944
0.20304253
0.20890307
0.21474623
0.22051297
0.22612796
0.23149749
0.23650849
0.24103048
0.24491826
0.2480188
0.25018102
0.25126606
0.2511574
0.24976792
0.24704623
0.24298126
0.23760565
0.23099583
0.22327226
0.21461138
0.20528147
0.19576592
0.1867731
0.17807999
0.16891175
0.15911754
0.14875263
0.13788754
0.12659277
0.11494336
0.10301255
0.090886726
0.078669878
0.066481563
0.05446048
0.042779209
0.031653588
0.021414904
0.012777038
0.0070562089
0.0049265656
0.0045771003
0.0045181967
0.004485756
0.004457352
0.0044312107
0.0044070765
0.0043847969
0.0043642207
0.0043452062
0.004327678
0.0043115733
0.0042968685
0.0042835481
0.0042715289
0.0042606103
0.0042506206
0.0042413016
0.0042326114
0.0042243974
0.0042171103
0.0042105415
0.004204326
0.0041987444
0.0041944772
0.0041896674
0.004192305
0.062191992
0.064107741
0.066095609
0.06815558
0.070288796
0.072496745
0.074781182
0.077144087
0.079587643
0.082114227
0.084726409
0.087426947
0.090218783
0.09310504
0.096089003
0.099174087
0.10236379
0.10566165
0.10907116
0.11259569
0.11623848
0.1200025
0.12389047
0.12790482
0.13204765
0.13632074
0.14072548
0.14526292
0.14993367
0.15473783
0.15967491
0.16474375
0.1699422
0.1752669
0.18071273
0.18627216
0.19193415
0.19768284
0.20349564
0.20934103
0.21517604
0.22094399
0.22657215
0.23196986
0.23702692
0.24161494
0.2455905
0.24880024
0.25109094
0.25231949
0.25236339
0.25112916
0.24855825
0.24463185
0.2393751
0.23285793
0.22519288
0.21654218
0.20714574
0.19741054
0.18805358
0.17923277
0.17011058
0.16037675
0.1500651
0.13924489
0.12798623
0.11636408
0.10445106
0.09233226
0.080109988
0.067901869
0.05584354
0.044103316
0.032889664
0.022513785
0.013623856
0.0075005255
0.0050252774
0.0045890535
0.0045217929
0.0044885449
0.0044598845
0.0044335429
0.0044092289
0.0043867871
0.0043660656
0.0043469198
0.004329272
0.004313058
0.0042982522
0.0042848389
0.0042727346
0.0042617382
0.0042516789
0.0042422987
0.0042335552
0.0042252939
0.0042179693
0.004211374
0.0042051362
0.0041995368
0.0041952506
0.0041904273
0.00419297
0.064221625
0.066094887
0.068039956
0.070056738
0.072146389
0.074310427
0.076550645
0.078869066
0.081267931
0.083749684
0.086316962
0.088972605
0.091719636
0.094561263
0.097500855
0.1005419
0.10368799
0.10694271
0.11030963
0.11379218
0.11739363
0.12111702
0.12496509
0.12894031
0.13304479
0.13728033
0.14164835
0.14614989
0.15078552
0.15555534
0.16045885
0.16549487
0.1706613
0.17595483
0.18137052
0.18690109
0.19253593
0.19825987
0.20405135
0.2098802
0.21570528
0.22147209
0.22711055
0.23253292
0.23763201
0.24228171
0.24634036
0.24965486
0.25207001
0.2534388
0.253633
0.25255281
0.25013273
0.24634623
0.24121079
0.23478966
0.22718821
0.21855668
0.20911158
0.19919939
0.1894722
0.18041968
0.17131719
0.16164204
0.15138393
0.14060913
0.12938723
0.11779304
0.10589869
0.09378799
0.081561646
0.069335381
0.057241893
0.045445349
0.034147442
0.023641557
0.014515389
0.0079987491
0.0051482378
0.004603879
0.0045256014
0.0044913555
0.0044624258
0.0044358801
0.0044113845
0.0043887801
0.0043679115
0.0043486333
0.0043308649
0.0043145413
0.0042996345
0.0042861278
0.0042739383
0.004262864
0.0042527352
0.0042432939
0.0042344972
0.004226189
0.004218827
0.0042122051
0.0042059449
0.0042003273
0.0041960209
0.0041911829
0.0041936272
0.066416751
0.068245231
0.070145241
0.072116606
0.074160499
0.07627847
0.07847235
0.080744213
0.083096356
0.085531286
0.088051714
0.090660556
0.093360918
0.096156091
0.099049523
0.10204479
0.10514554
0.10835545
0.11167813
0.1151171
0.11867565
0.12235687
0.12616356
0.1300982
0.13416296
0.13835963
0.14268966
0.14715409
0.15175348
0.15648791
0.1613569
0.16635922
0.17149283
0.17675446
0.18213929
0.18764028
0.19324719
0.19894549
0.20471452
0.21052543
0.21633875
0.22210212
0.22774801
0.23319152
0.23832857
0.24303558
0.24717253
0.25058713
0.2531224
0.25462783
0.25496976
0.25404209
0.25177247
0.24812688
0.24311502
0.23679309
0.22925974
0.22065517
0.21117633
0.20112391
0.19105509
0.18166708
0.17253443
0.1629136
0.15270917
0.14198019
0.13079565
0.11923013
0.10735529
0.095253764
0.083024678
0.070781902
0.058655311
0.046805031
0.035426478
0.024797155
0.015450414
0.008552154
0.0053002534
0.0046225295
0.0045296929
0.0044941966
0.0044649742
0.0044382205
0.0044135437
0.0043907736
0.0043697571
0.0043503449
0.0043324558
0.0043160227
0.0043010145
0.0042874145
0.0042751395
0.0042639874
0.0042537892
0.0042442868
0.0042354369
0.004227082
0.0042196829
0.0042130342
0.0042067517
0.0042011154
0.0041967876
0.0041919338
0.0041942765
0.06878886
0.070570124
0.072422688
0.074346277
0.076342074
0.078411674
0.080556947
0.082780021
0.085083249
0.087469205
0.089940673
0.092500642
0.095152304
0.097899027
0.10074434
0.1036919
0.10674543
0.10990866
0.1131853
0.11657888
0.12009278
0.12373013
0.12749376
0.1313862
0.13540964
0.13956592
0.14385649
0.1482824
0.15284422
0.15754203
0.16237531
0.16734287
0.17244266
0.17767146
0.18302456
0.18849508
0.19407316
0.1997448
0.20549019
0.21128168
0.2170814
0.22283901
0.22848947
0.23395065
0.23912156
0.24388139
0.2480918
0.25160159
0.25425246
0.25589056
0.25637732
0.25560033
0.25348048
0.24997643
0.24509012
0.23887035
0.23140918
0.22283827
0.21333835
0.2031751
0.19281299
0.18301467
0.17376869
0.16419186
0.15404082
0.14335801
0.13221142
0.12067523
0.10882073
0.096729444
0.084498909
0.072241225
0.06008353
0.048182059
0.036726365
0.025979684
0.016427379
0.0091614311
0.0054865634
0.0046462675
0.0045341669
0.0044970693
0.0044675291
0.004440565
0.0044157039
0.004392767
0.0043716011
0.0043520547
0.0043340447
0.0043175013
0.0043023917
0.0042886982
0.0042763378
0.0042651079
0.0042548403
0.0042452771
0.0042363742
0.0042279727
0.0042205366
0.0042138611
0.0042075561
0.0042019009
0.0041975502
0.0041926796
0.0041949176
0.071349712
0.07308123
0.07488383
0.076757152
0.078702396
0.080721187
0.082815446
0.084987354
0.087239326
0.089574001
0.09199424
0.094503106
0.09710387
0.099799982
0.10259505
0.10549281
0.10849705
0.11161159
0.11484017
0.1181864
0.12165371
0.12524527
0.12896398
0.13281239
0.13679272
0.14090686
0.14515629
0.14954205
0.15406475
0.15872446
0.16352066
0.16845216
0.17351693
0.17871178
0.18403207
0.18947107
0.19501924
0.20066307
0.20638353
0.21215404
0.21793825
0.22368779
0.22933995
0.23481536
0.24001598
0.24482402
0.2491031
0.25270293
0.25546464
0.25723117
0.25785947
0.25723102
0.2552599
0.25189762
0.24713853
0.24102368
0.23363839
0.2251069
0.2155967
0.20534577
0.194743
0.18450812
0.17503357
0.16547786
0.15537888
0.14474257
0.13363443
0.12212827
0.11029489
0.098214868
0.085984164
0.073713137
0.061526306
0.049576159
0.038046712
0.027188371
0.017444546
0.0098267597
0.0057126223
0.0046767406
0.0045391558
0.0044999797
0.0044700911
0.0044429128
0.0044178648
0.0043947605
0.0043734437
0.0043537627
0.0043356311
0.0043189761
0.004303765
0.0042899785
0.0042775327
0.0042662249
0.0042558882
0.0042462644
0.0042373086
0.0042288606
0.0042213876
0.0042146854
0.0042083579
0.0042026831
0.0041983081
0.0041934197
0.0041955505
0.074111261
0.075790403
0.077540438
0.0793609
0.081253012
0.08321844
0.085259155
0.087377391
0.089575629
0.091856577
0.09422317
0.09667855
0.099226063
0.10186924
0.10461178
0.10745747
0.1104102
0.11347382
0.11665216
0.11994889
0.12336748
0.12691117
0.13058287
0.1343852
0.13832044
0.14239049
0.14659686
0.15094064
0.15542243
0.16004233
0.16479984
0.16969377
0.17472207
0.17988162
0.18516781
0.19057406
0.1960911
0.20170582
0.20739988
0.21314774
0.21891447
0.22465354
0.23030453
0.23579072
0.24101698
0.24586854
0.25021133
0.25389596
0.25676343
0.25865392
0.25942013
0.25893774