/*--------------------------------*- C++ -*----------------------------------*\
| =========                 |                                                 |
| \\      /  F ield         | OpenFOAM: The Open Source CFD Toolbox           |
|  \\    /   O peration     | Version:  2406                                  |
|   \\  /    A nd           | Website:  www.openfoam.com                      |
|    \\/     M anipulation  |                                                 |
\*---------------------------------------------------------------------------*/
FoamFile
{
    version     2.0;
    format      ascii;
    arch        "LSB;label=32;scalar=64";
    class       volScalarField;
    location    "0.1";
    object      T;
}
// * * * * * * * * * * * * * * * * * * * * * * * * * * * * * * * * * * * * * //

dimensions      [0 0 0 1 0 0 0];

internalField   nonuniform List<scalar> 
2065
(
293.13179
293.07751
293.02765
292.98562
292.94826
293.35846
293.30516
293.24318
293.18357
293.12953
293.41302
293.38638
293.35005
293.30682
293.39726
293.38365
293.36549
293.38828
293.37992
293.3687
293.38572
293.37936
293.38598
293.38868
293.39361
293.44845
293.45616
293.46591
293.48175
293.48476
293.51803
293.51935
293.618
293.61224
293.60381
293.74399
293.73095
293.71083
293.68238
293.74482
293.71511
293.6776
293.64037
293.60431
292.87798
292.68615
292.51132
292.35632
292.22707
292.12608
292.05129
291.99747
291.95893
292.85051
292.66065
292.49552
292.35265
292.23472
292.14242
292.07366
292.02387
291.98803
292.82345
292.64268
292.48764
292.35547
292.24673
292.16174
292.0983
292.05225
292.01901
292.79973
292.62981
292.48281
292.35944
292.25905
292.18094
292.12267
292.08032
292.04966
292.77672
292.61758
292.47864
292.36358
292.27118
292.19974
292.14652
292.75488
291.92753
291.89737
291.86754
291.83497
291.79202
291.71165
291.9587
291.93038
291.90232
291.87154
291.83036
291.75386
291.99161
291.96493
291.93826
291.90869
291.86877
291.79606
292.02423
291.99932
291.9742
291.94606
291.90777
291.83869
292.46768
292.47633
292.48945
292.51164
292.55873
292.69954
292.33887
292.34516
292.35491
292.37155
292.40586
292.5022
292.20309
292.20707
292.21417
292.2277
292.25782
292.34603
292.06098
292.06159
292.06408
292.07054
292.08735
292.1463
291.91594
291.91323
291.91188
291.91418
291.92703
291.97967
291.77326
291.76772
291.76259
291.75853
291.75739
291.77545
291.63387
291.6244
291.61435
291.60382
291.59397
291.60316
291.50249
291.48854
291.47327
291.45693
291.44162
291.44936
291.3863
291.36846
291.34885
291.32769
291.3071
291.30845
291.29179
291.27092
291.24833
291.22416
291.19993
291.19036
291.22292
291.1987
291.17255
291.14421
291.11407
291.09206
291.18443
291.15743
291.12896
291.0988
291.06647
291.03295
291.17571
291.14483
291.11142
291.07465
291.03305
290.97908
291.192
291.1627
291.13086
291.09507
291.05194
290.98789
291.22547
291.1968
291.16629
291.1322
291.08839
291.01587
291.27518
291.24427
291.21184
291.17583
291.1311
291.05677
291.34237
291.31042
291.27704
291.23983
291.19301
291.11418
291.41963
291.38664
291.35266
291.31518
291.26774
291.18508
291.5026
291.46881
291.4342
291.39602
291.34735
291.26279
291.587
291.553
291.5186
291.48106
291.43312
291.34646
291.66915
291.63502
291.60047
291.56243
291.51343
291.42745
291.74763
291.71417
291.68082
291.64465
291.5979
291.51098
291.81853
291.78523
291.75185
291.7152
291.66769
291.58364
291.89034
291.85841
291.82673
291.79221
291.74704
291.66226
292.30249
292.31944
292.33833
292.3599
292.38156
292.40192
292.42087
292.43874
292.45577
292.15998
292.1853
292.21236
292.23842
292.26185
292.28208
292.29946
292.31498
292.32927
292.02133
292.05293
292.08485
292.11379
292.13796
292.15714
292.17233
292.185
292.19617
291.88245
291.91908
291.95462
291.98567
292.01019
292.02804
292.0407
292.05002
292.05743
291.74674
291.78734
291.82558
291.85777
291.88182
291.89774
291.90732
291.91278
291.91603
291.61895
291.66207
291.70165
291.73379
291.75639
291.76968
291.77574
291.77725
291.77657
291.50416
291.54777
291.58684
291.61752
291.63764
291.64755
291.64949
291.64648
291.64122
291.40613
291.4484
291.48539
291.51324
291.52985
291.5356
291.53285
291.52479
291.51445
291.3327
291.36964
291.40225
291.42597
291.4381
291.43898
291.43107
291.41784
291.40254
291.26805
291.30668
291.33966
291.36048
291.36785
291.36332
291.34992
291.33154
291.31168
291.2888
291.31487
291.32852
291.33327
291.32925
291.31593
291.29544
291.27131
291.24667
291.31384
291.32931
291.33949
291.3389
291.32481
291.30029
291.27133
291.24101
291.2117
291.36297
291.36513
291.36104
291.34854
291.32952
291.30501
291.27391
291.2396
291.20651
291.44785
291.43341
291.41253
291.38594
291.35496
291.32083
291.28609
291.2526
291.22118
291.57716
291.54133
291.49989
291.45556
291.40997
291.36552
291.32442
291.28742
291.25471
291.7326
291.67406
291.61143
291.54848
291.48868
291.43399
291.38535
291.34304
291.30694
291.90394
291.82184
291.73693
291.65489
291.58048
291.51563
291.46033
291.41395
291.37556
292.08236
291.97687
291.86987
291.76899
291.68011
291.60528
291.54379
291.49402
291.45395
292.25476
292.12827
292.00173
291.88396
291.78205
291.69837
291.63154
291.57898
291.53769
292.40914
292.26623
292.12466
291.99351
291.881
291.7901
291.719
291.66436
291.62238
292.54378
292.38724
292.23424
292.09331
291.97298
291.87675
291.80267
291.74671
291.70453
292.65343
292.4899
292.32989
292.18233
292.05645
291.95647
291.88061
291.8242
291.78242
292.74576
292.56993
292.40549
292.25617
292.12852
292.02696
291.95033
291.89403
291.85286
292.8775
292.69591
292.51281
292.3466
292.20818
292.1006
292.02112
291.96413
291.92357
291.52407
291.76519
291.934
292.06136
292.16507
292.25403
291.3719
291.61251
291.78389
291.91326
292.01821
292.10762
291.22541
291.46724
291.63946
291.76853
291.87384
291.96417
291.08995
291.33093
291.50049
291.62773
291.73219
291.82233
290.97
291.20647
291.37083
291.49523
291.59722
291.68535
290.87046
291.09866
291.25694
291.37607
291.47393
291.55805
290.79239
291.01155
291.16322
291.27541
291.36694
291.44532
290.74914
290.95923
291.097
291.1987
291.28156
291.35191
290.75113
290.92774
291.06227
291.15614
291.22836
291.28722
290.82725
290.99545
291.06738
291.12473
291.17748
291.22576
290.87856
290.98883
291.05571
291.13284
291.19842
291.25025
290.85722
291.00532
291.14642
291.21998
291.26555
291.29487
291.00172
291.17511
291.27485
291.31812
291.34182
291.35608
291.19278
291.3716
291.42243
291.44357
291.45341
291.45523
291.59396
291.63229
291.63941
291.63343
291.62118
291.60412
291.95245
291.9174
291.89294
291.85793
291.82012
291.78133
292.29165
292.20224
292.15491
292.09664
292.03522
291.97459
292.6306
292.55669
292.45778
292.35467
292.26072
292.17544
293.00922
292.8655
292.73935
292.60536
292.48135
292.36971
293.30116
293.22061
293.01854
292.83836
292.6806
292.54289
293.44102
293.41476
293.24616
293.04323
292.85774
292.69455
293.63561
293.56198
293.35252
293.172
292.98438
292.81176
293.48608
293.58627
293.49258
293.2783
293.10571
292.92259
293.37828
293.47089
293.53646
293.43833
293.20085
293.0257
293.4067
293.42002
293.45895
293.49964
293.44008
293.21936
293.38369
293.40593
293.41959
293.44446
293.45186
293.41367
293.39788
293.40052
293.40677
293.41527
293.42778
293.42554
293.39735
293.3977
293.39949
293.40213
293.4054
293.40641
293.39707
293.397
293.39672
293.39655
293.39589
293.39352
293.39465
293.3956
293.39524
293.39437
293.39282
293.3901
293.39383
293.39505
293.39497
293.39409
293.39243
293.38976
293.39432
293.39616
293.39648
293.39586
293.39436
293.39191
293.39731
293.39931
293.39994
293.3996
293.39841
293.39631
293.40228
293.40437
293.40514
293.40504
293.40416
293.40253
293.40886
293.4107
293.4114
293.41152
293.41106
293.41002
293.41491
293.41698
293.41781
293.41822
293.41825
293.41792
293.41829
293.42149
293.42298
293.42411
293.42494
293.42551
293.41938
293.42408
293.42702
293.42921
293.43098
293.43252
293.42034
293.42692
293.43101
293.43406
293.43668
293.43911
293.42202
293.43009
293.43507
293.43889
293.44228
293.44555
293.4248
293.4337
293.43935
293.44393
293.44822
293.4525
293.42854
293.438
293.44437
293.44993
293.45547
293.46127
293.43329
293.44256
293.45031
293.45773
293.4659
293.4753
293.43792
293.44756
293.45797
293.46959
293.48549
293.50914
293.44143
293.45325
293.4681
293.48942
293.5294
293.60618
293.44153
293.4577
293.48436
293.5377
293.63796
293.73832
293.44688
293.47932
293.57635
293.70791
293.80742
293.76306
293.43196
293.59668
293.76977
293.84828
291.25248
291.51946
291.71207
291.86082
291.45697
291.69386
291.86599
291.9985
292.10895
292.20428
291.66628
291.87411
292.02539
292.14178
292.23859
292.32223
291.8728
292.05528
292.18627
292.28654
292.36973
292.44162
292.07465
292.2358
292.34602
292.42972
292.49907
292.55911
292.26181
292.40624
292.49715
292.56505
292.62176
292.6711
292.45569
292.56047
292.63152
292.6865
292.73296
292.77408
292.61953
292.69679
292.75208
292.79615
292.83419
292.86786
292.75994
292.81647
292.85818
292.89295
292.92318
292.9502
292.87877
292.91457
292.94612
292.97336
292.99738
293.01915
292.96549
292.99214
293.01523
293.03597
293.05507
293.07301
293.01489
293.04512
293.06226
293.07833
293.09439
293.11025
293.03314
293.05478
293.07516
293.09413
293.1119
293.12881
292.99565
293.03176
293.06041
293.08529
293.10749
293.12787
292.9331
292.98711
293.02572
293.05715
293.08479
293.10985
292.84496
292.92195
292.97251
293.01199
293.04584
293.07646
292.73714
292.83566
292.90024
292.94988
292.99143
293.02822
292.61382
292.73513
292.8136
292.8734
292.92322
292.96731
292.46743
292.62118
292.71497
292.78454
292.84277
292.89441
292.32755
292.49234
292.60011
292.68142
292.74951
292.80949
292.17249
292.35142
292.47431
292.56781
292.64597
292.71445
292.01372
292.20841
292.34392
292.44799
292.5354
292.61211
291.84514
292.0562
292.2066
292.32215
292.41912
292.50408
291.6764
291.91744
292.0789
292.20319
292.30752
292.3973
293.6687
293.82888
293.88311
290.87001
291.05545
291.34981
292.48553
292.58813
292.68954
292.78393
292.87031
292.94661
293.01179
293.06505
293.10618
293.13364
293.14693
293.14475
293.12575
293.09094
293.04149
292.9786
292.90358
292.81788
292.72396
292.62245
292.51543
292.40578
292.29575
292.57931
292.68271
292.77601
292.86052
292.93638
293.0023
293.05787
293.10255
293.13563
293.1566
293.16508
293.16014
293.14137
293.10956
293.0654
293.00971
292.94345
292.86779
292.78454
292.69393
292.59792
292.49842
292.39628
292.67871
292.77545
292.85871
292.93307
292.99864
293.05482
293.10103
293.13739
293.16318
293.17833
293.18261
293.17542
293.15695
293.12772
293.08821
293.03903
292.9809
292.91466
292.84096
292.76061
292.67499
292.58554
292.49286
292.77896
292.86508
292.93778
293.00174
293.05715
293.10373
293.14132
293.16961
293.18866
293.19853
293.19909
293.19008
293.17194
293.145
293.10963
293.06628
293.01542
292.95758
292.89299
292.82263
292.74697
292.66737
292.58426
292.87655
292.95048
293.01227
293.06572
293.11123
293.1486
293.1777
293.19862
293.21161
293.21677
293.21404
293.20361
293.18582
293.16093
293.12924
293.09105
293.04667
292.99642
292.94047
292.87917
292.81316
292.74323
292.66972
292.96897
293.03014
293.08092
293.12423
293.16019
293.18865
293.20984
293.22406
293.23159
293.23254
293.22708
293.21551
293.19809
293.17505
293.14662
293.11298
293.07434
293.03085
292.98266
292.92991
292.87292
292.81223
292.74813
293.05391
293.10257
293.14286
293.17635
293.20305
293.2232
293.2372
293.24542
293.24809
293.24543
293.23775
293.2253
293.2083
293.18694
293.16139
293.13178
293.0982
293.06076
293.01951
292.97452
292.92588
292.87385
292.81864
293.12959
293.16683
293.197
293.22094
293.23901
293.25166
293.25929
293.2622
293.26069
293.25507
293.24562
293.23254
293.21603
293.19622
293.17324
293.14717
293.11805
293.08594
293.05085
293.01277
292.9717
292.92771
292.8809
293.19496
293.2216
293.24201
293.25712
293.26747
293.27352
293.27557
293.274
293.26911
293.26117
293.25039
293.23696
293.22102
293.20267
293.18198
293.159
293.13377
293.1063
293.07656
293.04455
293.01023
292.97352
292.93422
293.24897
293.26522
293.27669
293.28407
293.28779
293.28825
293.28579
293.28071
293.27325
293.26362
293.25198
293.23848
293.2232
293.20621
293.18757
293.16731
293.14542
293.1219
293.09674
293.06988
293.0413
293.01093
292.97847
293.28913
293.29639
293.30033
293.30139
293.29988
293.29609
293.29027
293.28264
293.27339
293.26267
293.2506
293.23727
293.22275
293.20708
293.1903
293.1724
293.15339
293.13325
293.11195
293.08946
293.06573
293.04071
293.01417
293.31443
293.31528
293.3138
293.31026
293.30494
293.29809
293.2899
293.28056
293.27019
293.2589
293.24676
293.23383
293.22015
293.20575
293.19064
293.1748
293.15825
293.14096
293.12289
293.10403
293.08433
293.06374
293.04209
293.32848
293.32443
293.31892
293.31207
293.30411
293.29525
293.28561
293.27532
293.26445
293.25305
293.24117
293.22884
293.21608
293.20289
293.18928
293.17525
293.16077
293.14585
293.13045
293.11455
293.09813
293.08114
293.33252
293.32517
293.31698
293.3081
293.29868
293.28881
293.27856
293.26799
293.25713
293.24602
293.23466
293.22308
293.21127
293.19925
293.18701
293.17453
293.16182
293.14886
293.13563
293.12212
293.10831
293.09417
293.32887
293.31978
293.31032
293.30057
293.29059
293.28044
293.27014
293.25973
293.24923
293.23864
293.22796
293.21721
293.20639
293.19547
293.18447
293.17337
293.16216
293.15084
293.13939
293.1278
293.11606
293.10416
293.31943
293.30973
293.29993
293.29007
293.28018
293.27029
293.2604
293.25053
293.24069
293.23086
293.22105
293.21125
293.20145
293.19166
293.18185
293.17202
293.16217
293.15228
293.14235
293.13237
293.12235
293.11225
293.30508
293.29556
293.28611
293.27673
293.26743
293.25822
293.24911
293.24009
293.23115
293.22229
293.2135
293.20476
293.19608
293.18743
293.17882
293.17023
293.16165
293.15308
293.14451
293.13594
293.12737
293.1188
293.28602
293.2772
293.26854
293.26004
293.2517
293.2435
293.23545
293.22752
293.21972
293.21202
293.20441
293.19689
293.18943
293.18203
293.17467
293.16735
293.16005
293.15278
293.14552
293.13828
293.13106
293.12384
293.26106
293.25347
293.24608
293.23888
293.23186
293.22501
293.21831
293.21174
293.2053
293.19897
293.19273
293.18657
293.18048
293.17444
293.16844
293.16247
293.15653
293.15061
293.1447
293.1388
293.13292
293.12704
293.22998
293.22402
293.21826
293.21267
293.20725
293.20198
293.19684
293.19183
293.18692
293.1821
293.17736
293.17268
293.16805
293.16346
293.15889
293.15434
293.14981
293.14527
293.14074
293.1362
293.13166
293.12712
293.19225
293.18818
293.18428
293.18054
293.17692
293.17343
293.17003
293.16673
293.1635
293.16032
293.1572
293.15411
293.15104
293.14798
293.14492
293.14186
293.13879
293.1357
293.1326
293.12947
293.12632
293.12314
293.14121
293.14021
293.13917
293.1381
293.13701
293.13591
293.13478
293.13364
293.13247
293.13127
293.13003
293.12875
293.12742
293.12604
293.12462
293.12314
293.12162
293.12006
293.11845
293.11679
293.11509
293.11335
293.07577
293.07782
293.07979
293.08167
293.08346
293.08517
293.08678
293.08831
293.08973
293.09103
293.09219
293.0932
293.09404
293.09472
293.09524
293.09561
293.09585
293.09596
293.09596
293.09586
293.09569
293.09543
293.02877
293.03137
293.03383
293.03626
293.03873
293.04127
293.04386
293.04646
293.049
293.0514
293.05362
293.05564
293.05747
293.05914
293.06068
293.06212
293.06346
293.06472
293.0659
293.067
293.06803
293.06898
293.01731
293.01736
293.0176
293.01804
293.01869
293.01957
293.02066
293.0219
293.02324
293.02459
293.02592
293.02721
293.02847
293.02971
293.03092
293.03213
293.03334
293.03454
293.03574
293.03692
293.03808
293.03922
293.01376
293.01407
293.01435
293.01464
293.01497
293.01535
293.01578
293.01627
293.01681
293.01738
293.01796
293.01853
293.01907
293.01959
293.02008
293.02056
293.02103
293.02151
293.022
293.02251
293.02307
293.02368
292.99503
292.99519
292.99538
292.9956
292.99588
292.99621
292.9966
292.99705
292.99753
292.99805
292.9986
292.99918
292.99979
293.00043
293.0011
293.00178
293.00247
293.00318
293.00389
293.00462
293.00535
293.0061
292.99053
292.99097
292.99139
292.9918
292.9922
292.9926
292.99301
292.99341
292.99381
292.99421
292.99461
292.995
292.99539
292.99579
292.99618
292.99659
292.99701
292.99745
292.9979
292.99835
292.99881
292.99928
293.02321
293.02369
293.0241
293.02445
293.02475
293.02501
293.02524
293.02544
293.02562
293.02581
293.026
293.02616
293.02628
293.02634
293.02636
293.02634
293.02628
293.0262
293.02609
293.02594
293.02575
293.0255
293.05202
293.05233
293.05275
293.05329
293.05395
293.05472
293.05548
293.05621
293.0569
293.0575
293.05799
293.05838
293.05866
293.05883
293.05887
293.05877
293.05852
293.05813
293.05761
293.05697
293.05621
293.05533
293.03567
293.03526
293.03481
293.03431
293.03378
293.03321
293.03261
293.03199
293.03135
293.03069
293.03001
293.02932
293.02863
293.02793
293.02723
293.02653
293.02585
293.02518
293.02453
293.02389
293.02327
293.02269
292.55988
292.5414
292.52291
292.50468
292.48707
292.47011
292.45599
292.44923
292.44878
292.63878
292.62078
292.60328
292.58706
292.57264
292.55995
292.5501
292.54597
292.54774
292.72196
292.70405
292.68746
292.6732
292.66153
292.65248
292.64644
292.64484
292.64766
292.80852
292.79078
292.7749
292.76206
292.75259
292.74644
292.74356
292.7444
292.7483
292.89775
292.87999
292.86452
292.85261
292.84471
292.84066
292.84005
292.84258
292.84727
292.98834
292.9703
292.95489
292.94339
292.93635
292.93352
292.93417
292.93748
292.94234
293.07838
293.05983
293.04407
293.03242
293.02546
293.0229
293.02377
293.0269
293.03117
293.16532
293.1461
293.12963
293.11722
293.10953
293.10624
293.10628
293.10829
293.1112
293.24598
293.22583
293.2083
293.19468
293.18553
293.1805
293.17862
293.17896
293.18061
293.3168
293.29586
293.27695
293.26178
293.25077
293.24387
293.24044
293.23945
293.23968
293.37581
293.35572
293.33659
293.32015
293.30741
293.2985
293.29257
293.28847
293.28559
293.41886
293.39998
293.3806
293.36221
293.34665
293.33452
293.32562
293.31936
293.31499
293.44104
293.42263
293.40397
293.38623
293.37037
293.35706
293.34647
293.33843
293.33251
293.45269
293.4352
293.41697
293.39905
293.38245
293.36796
293.35593
293.34637
293.33906
293.44609
293.43055
293.41404
293.39737
293.38144
293.36704
293.35469
293.3446
293.33672
293.42872
293.41515
293.40049
293.38543
293.37074
293.35717
293.34531
293.33546
293.32766
293.4009
293.38984
293.37756
293.36465
293.35183
293.33981
293.32914
293.32018
293.31301
293.36303
293.35519
293.346
293.33595
293.32567
293.31578
293.30688
293.2993
293.29319
293.30806
293.3061
293.30202
293.29645
293.29002
293.28338
293.27709
293.27156
293.26699
293.23412
293.24325
293.24711
293.24757
293.24596
293.24324
293.24009
293.23702
293.23432
293.1234
293.15179
293.17181
293.18414
293.19087
293.19402
293.19511
293.19514
293.1947
293.02776
293.04568
293.0695
293.0926
293.11098
293.12375
293.13204
293.13726
293.14051
293.00615
293.00953
293.01656
293.02658
293.0388
293.05073
293.06032
293.06744
293.07259
293.01073
293.00986
293.00888
293.00938
293.01135
293.01476
293.01888
293.02279
293.02595
293.01725
293.01834
293.01919
293.0194
293.01912
293.01854
293.01793
293.01753
293.01739
293.00733
293.00798
293.00889
293.00991
293.01104
293.01187
293.01256
293.01309
293.01347
292.99497
292.99463
292.9943
292.99407
292.99401
292.99414
292.99437
292.99464
292.99489
292.98639
292.98681
292.9873
292.98783
292.98835
292.98886
292.98934
292.98978
292.99014
293.02059
293.02072
293.02094
293.02123
293.02157
293.02192
293.02224
293.02251
293.02272
293.05403
293.05358
293.05316
293.05274
293.05234
293.05202
293.05184
293.0518
293.05187
293.0369
293.03697
293.03699
293.03695
293.03685
293.03669
293.0365
293.03629
293.0361
292.57361
292.6528
292.73668
292.82387
292.91389
293.00543
293.0966
293.18469
293.26655
293.33777
293.39536
293.43692
293.4591
293.46968
293.46119
293.44178
293.41129
293.36994
293.30757
293.21717
293.08943
293.01731
293.00491
293.01095
293.01607
293.00693
292.99523
292.98606
293.02062
293.05461
293.03674
292.58529
292.66544
292.75064
292.83908
292.93061
293.02384
293.11682
293.20657
293.28972
293.36069
293.41613
293.45605
293.47855
293.48794
293.47745
293.4556
293.42185
293.37602
293.30166
293.18415
293.05483
293.01328
293.00455
293.01059
293.01489
293.0067
292.99535
292.98575
293.02066
293.05525
293.03663
292.60235
292.68392
292.77097
292.86101
292.95453
293.04992
293.14515
293.23656
293.31988
293.38855
293.44042
293.47844
293.50095
293.50874
293.49576
293.47046
293.43177
293.37832
293.27793
293.12607
293.03667
293.01235
293.00488
293.00978
293.01395
293.00658
292.99521
292.98569
293.0209
293.056
293.0366
292.62949
292.71331
292.803
292.89518
292.99153
293.08971
293.18762
293.28017
293.3604
293.42329
293.46998
293.50645
293.52731
293.5333
293.51678
293.48529
293.43554
293.36054
293.20413
293.0777
293.03503
293.00987
293.00573
293.00857
293.01333
293.00636
292.99505
292.98626
293.02159
293.05692
293.03691
292.68256
292.7705
292.86427
292.96013
293.06057
293.16163
293.26036
293.35044
293.41965
293.47089
293.51072
293.54327
293.55533
293.56046
293.53476
293.48317
293.38484
293.25307
293.14935
293.07626
293.02853
293.00426
293.0023
293.00505
293.01165
293.00532
292.99444
292.98794
293.02356
293.05818
293.03733
292.83373
292.92893
293.03488
293.13952
293.24192
293.33478
293.41047
293.47002
293.51455
293.54779
293.56601
293.57443
293.55488
293.50915
293.44026
293.36475
293.2941
293.22978
293.14217
293.0552
293.01523
292.99208
292.98578
292.99148
292.99903
292.99711
292.98654
292.9846
293.01893
293.05585
293.04193
)
;

boundaryField
{
    Side1
    {
        type            empty;
    }
    Inlet
    {
        type            totalTemperature;
        gamma           1.4;
        T0              uniform 294.31799;
        value           uniform 293.00245;
    }
    Side2
    {
        type            empty;
    }
    Outlet
    {
        type            zeroGradient;
    }
    Botwall
    {
        type            zeroGradient;
    }
    Cyli
    {
        type            zeroGradient;
    }
    procBoundary0to1
    {
        type            processor;
        value           nonuniform List<scalar> 
44
(
292.91426
292.91426
293.08247
293.26186
293.26186
293.34254
293.34254
293.35446
293.37113
293.37113
293.38088
293.38088
293.38446
293.39015
293.40042
293.40042
293.40856
293.41727
293.4258
293.43378
293.44123
293.44123
293.45067
293.45887
293.46896
293.46896
293.48747
292.10784
292.07972
292.60644
292.47585
292.36867
292.28368
292.21851
292.10784
292.17013
292.60644
292.7351
292.05627
292.03318
292.00976
291.98332
291.94711
291.88164
)
;
    }
    procBoundary0to2
    {
        type            processor;
        value           nonuniform List<scalar> 
55
(
293.61806
293.5843
293.55376
293.52764
293.50191
293.77759
293.66851
293.87788
293.77759
293.7771
291.559
291.98556
291.71826
291.98556
292.09259
293.87788
293.905
293.905
293.76917
290.70554
291.18887
291.18887
291.559
292.19095
292.29025
292.39301
292.4935
292.58905
292.67791
292.75853
292.83009
292.89176
292.94344
292.98575
293.01912
293.06348
293.06348
293.07965
293.09205
293.10208
293.11021
293.11665
293.1212
293.1226
293.11997
293.11158
293.09511
293.06987
293.04034
293.02433
293.00685
292.99974
293.0252
293.05432
293.02215
)
;
    }
    procBoundary0to3
    {
        type            processor;
        value           nonuniform List<scalar> 7(293.51997 293.51997 293.59468 293.59468 293.65176 293.65176 293.57129);
    }
}


// ************************************************************************* //
