/*--------------------------------*- C++ -*----------------------------------*\
| =========                 |                                                 |
| \\      /  F ield         | OpenFOAM: The Open Source CFD Toolbox           |
|  \\    /   O peration     | Version:  2406                                  |
|   \\  /    A nd           | Website:  www.openfoam.com                      |
|    \\/     M anipulation  |                                                 |
\*---------------------------------------------------------------------------*/
FoamFile
{
    version     2.0;
    format      ascii;
    arch        "LSB;label=32;scalar=64";
    class       volScalarField;
    location    "0.098";
    object      alphat;
}
// * * * * * * * * * * * * * * * * * * * * * * * * * * * * * * * * * * * * * //

dimensions      [1 -1 -1 0 0 0 0];

internalField   nonuniform List<scalar> 
8260
(
0.040014018
0.045379441
0.051686383
0.058809919
0.066587855
0.074847318
0.08336824
0.09185327
0.099899646
0.10693169
0.11213861
0.11440022
0.1121996
0.10364431
0.086696406
0.060395415
0.031884619
0.014915858
0.0096579182
0.0079930555
0.0071352024
0.0065252821
0.0060367675
0.005645715
0.0054148757
0.005251685
0.0051414601
0.0050608509
0.0050031819
0.0049643585
0.0049442863
0.047364683
0.052890574
0.058955195
0.065627467
0.072866127
0.080540679
0.088442972
0.096275424
0.10362731
0.10991484
0.11429802
0.11563429
0.11238792
0.10267923
0.084526619
0.057513259
0.029134337
0.014049956
0.0094051173
0.0078921831
0.0070749853
0.0064878714
0.0060169012
0.0056346722
0.0054084135
0.0052478344
0.0051389199
0.005059224
0.0050020693
0.004963611
0.0049438266
0.055785881
0.061103423
0.066863551
0.073104488
0.079803163
0.086855046
0.094070041
0.10115912
0.10770701
0.11311592
0.11653281
0.11678975
0.11233394
0.10130722
0.081822013
0.054016521
0.026431455
0.013150198
0.0092252372
0.0078390826
0.0070425327
0.006468038
0.0060064537
0.0056292885
0.0054051042
0.0052458671
0.0051375528
0.0050583182
0.0050012611
0.00496295
0.0049432895
0.06538762
0.070273741
0.075589353
0.081313386
0.087407466
0.093767568
0.10020953
0.10644826
0.11206478
0.11645024
0.11873731
0.11773672
0.11188249
0.099349884
0.078397998
0.049821571
0.023640917
0.012366595
0.0090714798
0.0077552739
0.0069870022
0.0064330721
0.0059872769
0.0056194134
0.0053989233
0.0052421457
0.0051349081
0.0050565476
0.0049999906
0.004962049
0.0049426359
0.076166403
0.080454634
0.085200805
0.090291874
0.095675901
0.10124061
0.10679753
0.11205775
0.11659494
0.11978908
0.12075793
0.11829435
0.11082607
0.09657883
0.0740318
0.044844448
0.02085015
0.011612987
0.0088999562
0.0076779527
0.0069374786
0.0064023188
0.005970192
0.0056110304
0.0053937486
0.0052390228
0.0051327173
0.0050550818
0.0049988098
0.004961135
0.0049418903
0.087915299
0.091535499
0.095597583
0.099937387
0.10449093
0.10913557
0.11367338
0.11780574
0.12109436
0.12290559
0.1223427
0.11818395
0.10886259
0.092680369
0.068444638
0.039049394
0.018340515
0.010922548
0.0087381597
0.0075828442
0.0068733932
0.006361089
0.0059466947
0.0055993786
0.0053864646
0.0052345338
0.0051295657
0.0050529604
0.0049972522
0.0049600027
0.0049410343
0.10026619
0.10317676
0.10646616
0.10995129
0.11355687
0.11714981
0.12052107
0.12335916
0.12521071
0.12542635
0.12309526
0.1169859
0.10555782
0.08722696
0.061303163
0.032533608
0.01597628
0.010308217
0.0085655927
0.0074855637
0.0068095327
0.0063195041
0.0059225569
0.0055880061
0.005379452
0.005230143
0.0051265255
0.0050509046
0.0049956555
0.0049587873
0.0049400605
0.11261444
0.11478471
0.11723234
0.11977421
0.1223233
0.12473518
0.12678828
0.12815645
0.1283697
0.12676218
0.12241044
0.11408098
0.10029809
0.079650091
0.052265435
0.025669347
0.013829551
0.0098570533
0.0083933564
0.007374363
0.0067341637
0.0062677994
0.0058923896
0.0055736491
0.0053705966
0.0052244467
0.0051226016
0.0050482306
0.004993683
0.0049573333
0.0049389493
0.12400369
0.12540657
0.1269546
0.12847741
0.1298734
0.1309841
0.13157318
0.13129801
0.12967111
0.12601118
0.11938628
0.10857331
0.092235279
0.069236114
0.041177726
0.02014188
0.012062305
0.009466618
0.0082017658
0.0072598734
0.0066568279
0.006211985
0.0058602151
0.0055585652
0.0053615708
0.0052185103
0.0051185646
0.0050454424
0.0049915659
0.004955728
0.0049376833
0.13293381
0.13356076
0.1341619
0.13460401
0.13476764
0.13447597
0.13347439
0.13140129
0.12775187
0.12183392
0.11271664
0.099204349
0.080241506
0.055239595
0.028707036
0.015738276
0.010704031
0.0091120747
0.0079996008
0.0071360716
0.0065676651
0.0061451546
0.005822588
0.0055398549
0.005350543
0.0052111992
0.0051136024
0.0050419617
0.0049890116
0.0049538329
0.0049362383
0.13714567
0.13700857
0.13665053
0.13597914
0.1348578
0.13309304
0.13040941
0.1264249
0.12062169
0.11231044
0.10058621
0.084293628
0.063006004
0.0373701
0.019798983
0.012595803
0.0099319849
0.0087866331
0.007778143
0.0070098182
0.0064721979
0.0060744724
0.0057831241
0.0055190837
0.0053385205
0.0052034359
0.005108356
0.0050381798
0.0049861861
0.0049517114
0.0049345883
0.13334725
0.13242623
0.13113263
0.12937001
0.12698092
0.12374731
0.11936969
0.11345061
0.10547845
0.0948101
0.080645756
0.06178931
0.039622492
0.022871282
0.014244033
0.010583787
0.0094176074
0.0084031772
0.0075506968
0.006866011
0.0063637614
0.0059976894
0.0057386821
0.0054942415
0.0053235159
0.0051941093
0.0051020942
0.0050335609
0.0049828057
0.0049492344
0.0049323909
0.11690708
0.11534265
0.11322018
0.11044615
0.10685872
0.1022247
0.096223393
0.088475566
0.078553465
0.066025701
0.050835504
0.036045201
0.023212109
0.014956938
0.011127329
0.0097993333
0.0088452437
0.0080752961
0.0073118169
0.0067178988
0.0062459663
0.0059210596
0.0056898287
0.005467685
0.0053069138
0.0051840021
0.0050953911
0.0050284678
0.0049790227
0.0049464587
0.0049296842
0.082322052
0.080120526
0.077432796
0.074294606
0.070556068
0.066028777
0.060513206
0.053942152
0.046277157
0.037602307
0.028424335
0.020132167
0.014238491
0.011136399
0.0097711945
0.0090478922
0.0083700123
0.007630788
0.0070507632
0.006548292
0.0061349226
0.0058312057
0.0056365485
0.0054381697
0.0052864453
0.0051720818
0.0050874115
0.0050224156
0.0049745956
0.0049432603
0.0049267225
0.046357563
0.044964317
0.043245451
0.041200537
0.038686559
0.035634845
0.032255226
0.028489055
0.024361568
0.019990303
0.015729027
0.012340565
0.01038641
0.0094664092
0.0091917586
0.0085001816
0.0077503062
0.0073012891
0.0068001125
0.0064052233
0.0060055263
0.0057384427
0.0055802581
0.0054064576
0.0052657796
0.0051587376
0.0050786511
0.0050157834
0.004969746
0.0049396994
0.0049235325
0.022958898
0.022463145
0.021729901
0.020799787
0.019642979
0.018261163
0.016723816
0.015065862
0.013342356
0.011669321
0.010183783
0.009223847
0.0087834761
0.008850485
0.0082270385
0.0077158956
0.007305579
0.0068504725
0.0065423649
0.0062150105
0.0058709089
0.0056520117
0.0055188199
0.0053699702
0.0052407833
0.0051443016
0.005067642
0.0050081302
0.0049642938
0.0049356611
0.0049202065
0.012204188
0.012085288
0.011839049
0.011495632
0.01107015
0.010587392
0.010073425
0.0095280699
0.0089381628
0.0084729199
0.0082669339
0.0081556555
0.0081891046
0.0076543227
0.0076048136
0.0073259805
0.0067957998
0.0065800705
0.0062911861
0.0060405265
0.0057535733
0.0055599495
0.0054532651
0.0053331247
0.0052156855
0.0051279865
0.0050560054
0.0049996354
0.0049584429
0.0049312053
0.0049169144
0.00826528
0.008236109
0.0081597441
0.0080537189
0.0079220169
0.0077788286
0.0076573046
0.0075493703
0.0074919813
0.0074809036
0.0075482342
0.0074518191
0.0070537709
0.0070432586
0.0067553867
0.0065570506
0.0065055541
0.0062072952
0.0060137541
0.0058411435
0.0056153502
0.0054859877
0.0053908019
0.0052866568
0.0051880339
0.0051102901
0.0050415744
0.0049899834
0.0049519146
0.0049262297
0.0049124251
0.0069775597
0.0069296517
0.0068978023
0.0068781183
0.0068724967
0.0068743208
0.0069007783
0.0068699725
0.0068380106
0.0068085126
0.0066981153
0.0066133408
0.0066324533
0.0064269701
0.0062927952
0.0062762295
0.0060412615
0.0059129075
0.0057140332
0.0056557986
0.0055355487
0.0054075049
0.0053258195
0.0052507899
0.0051565675
0.0050899362
0.005027524
0.0049791952
0.0049448736
0.0049207471
0.004908324
0.0063911333
0.0063887616
0.0063833049
0.0063818315
0.0063967571
0.0064185132
0.0064047013
0.0063854633
0.0063383784
0.0062379902
0.006176906
0.0061477665
0.0060224566
0.00604736
0.0060224822
0.0058925304
0.005804085
0.0056895286
0.0055924477
0.0055226303
0.0054385282
0.0053549594
0.0052662099
0.0052017208
0.0051244426
0.0050673687
0.005009643
0.0049674565
0.0049370735
0.0049146972
0.0049028879
0.0059626639
0.0059594347
0.0059523191
0.0059340389
0.005902578
0.0058604929
0.0058447985
0.0058354608
0.0058227658
0.0058122687
0.0058134488
0.0057870865
0.005775906
0.0056888637
0.0057478066
0.0056934074
0.0056287979
0.0055324291
0.0054717607
0.0054267057
0.0053608307
0.0052769978
0.0052120317
0.0051615445
0.0050881795
0.0050394681
0.0049935136
0.004955064
0.0049286658
0.0049082579
0.0048979364
0.0055565574
0.0055576179
0.005555666
0.0055506405
0.0055451301
0.0055463498
0.0055555206
0.0055533479
0.005545498
0.0055255202
0.0054982419
0.0054719908
0.0054619647
0.0054456224
0.0054090572
0.0053956215
0.0053923084
0.0053617621
0.005345063
0.0052783409
0.0052372661
0.0051992044
0.0051333305
0.0051059246
0.005052903
0.0050097664
0.0049732623
0.0049419917
0.0049197107
0.0049014699
0.0048916415
0.0053423286
0.0053434875
0.0053417923
0.0053377264
0.0053302962
0.0053184598
0.0053015165
0.0052919667
0.0052861792
0.0052823783
0.0052774724
0.0052818774
0.0052612018
0.0052699666
0.0052479203
0.0052356225
0.0052136195
0.0052080368
0.005212899
0.0051984677
0.0051516861
0.005101462
0.0050681858
0.0050502747
0.0050182629
0.0049753398
0.0049550786
0.0049312835
0.0049097321
0.0048943112
0.004886102
0.0051439492
0.0051456215
0.0051453598
0.0051438061
0.0051414621
0.0051391395
0.0051396153
0.0051439349
0.005145554
0.0051459092
0.0051445679
0.0051350408
0.0051283088
0.0051069668
0.0051062721
0.005099873
0.005097327
0.0050870985
0.0050743507
0.0050610502
0.0050565196
0.0050493353
0.0050076808
0.0049887068
0.0049821403
0.0049519505
0.0049350723
0.0049185224
0.004899836
0.0048871989
0.0048796771
0.0050454286
0.0050473176
0.0050474335
0.0050461598
0.0050435983
0.005039734
0.0050340083
0.0050274147
0.0050256342
0.0050254281
0.0050249941
0.0050246457
0.0050234671
0.0050215974
0.0050271108
0.0050176734
0.0050130297
0.0050224493
0.0050050905
0.0049917608
0.0049859215
0.0049866932
0.0049779642
0.0049556222
0.0049500134
0.0049350059
0.004919609
0.004907224
0.004891056
0.004880002
0.0048741669
0.0049596344
0.0049602541
0.0049599206
0.0049590703
0.0049583245
0.0049579726
0.0049580977
0.0049588898
0.0049614098
0.0049645867
0.0049679173
0.0049716737
0.0049737223
0.0049743043
0.004966192
0.0049662642
0.0049651847
0.004964691
0.0049649492
0.0049566986
0.004949598
0.0049524085
0.0049529922
0.004936398
0.0049318849
0.0049205943
0.0049073502
0.0048940912
0.0048822062
0.0048738817
0.0048675996
0.004917627
0.0049178024
0.0049174579
0.0049170165
0.0049168642
0.0049170313
0.0049174287
0.0049178776
0.0049179767
0.0049177256
0.0049185043
0.0049204903
0.004923582
0.0049250335
0.004931559
0.0049325975
0.0049354335
0.004931512
0.004928766
0.0049321439
0.0049326945
0.0049239074
0.0049213464
0.0049226723
0.0049086669
0.0049088327
0.0048961211
0.0048839129
0.0048761252
0.0048679259
0.0048638195
0.0048845508
0.0048850872
0.00488549
0.0048858414
0.0048862798
0.00488683
0.0048874824
0.004888254
0.0048891205
0.0048900774
0.004891238
0.0048929167
0.0048962984
0.0048996303
0.0048985274
0.004899381
0.0048987521
0.004899073
0.0049008401
0.0049009284
0.0049101592
0.0049016193
0.0048975573
0.0048981292
0.0048941564
0.004889542
0.0048826462
0.0048765322
0.0048696575
0.0048645442
0.0048619546
0.0048724591
0.004872716
0.0048728909
0.0048730793
0.0048733433
0.0048736875
0.0048740994
0.0048745931
0.0048751338
0.0048757258
0.0048763949
0.0048770793
0.0048779514
0.0048793406
0.0048793652
0.0048800563
0.0048815717
0.0048825286
0.0048826609
0.0048839945
0.0048838875
0.0048813904
0.004882572
0.004880583
0.0048811906
0.0048781314
0.0048750936
0.0048707501
0.0048663453
0.004862221
0.0048580949
0.0048662276
0.004866425
0.0048665863
0.0048667669
0.0048669899
0.0048672644
0.0048675786
0.0048678565
0.0048681218
0.0048684436
0.0048688297
0.0048694622
0.0048707539
0.0048718891
0.0048717341
0.004871359
0.0048715093
0.0048720611
0.0048729051
0.0048735137
0.0048743942
0.0048744803
0.0048746217
0.0048740597
0.004873662
0.0048722159
0.0048706279
0.0048681576
0.0048625165
0.0048584036
0.0048585737
0.0048593917
0.0048595113
0.0048596942
0.0048599379
0.0048602486
0.0048606333
0.0048610975
0.0048616483
0.0048623039
0.0048630904
0.0048640441
0.0048654031
0.0048667545
0.0048670622
0.0048668498
0.0048664912
0.004866829
0.0048677997
0.004868634
0.0048692579
0.0048698511
0.0048706307
0.0048694419
0.0048700012
0.0048690882
0.0048683789
0.0048672654
0.0048643364
0.0048625461
0.0048617045
0.0048599381
0.00087856337
0.0018993854
0.003806344
0.0066478746
0.010406539
0.015178869
0.021065055
0.028118746
0.036426549
0.045458373
0.055363037
0.065689867
0.075653256
0.084021519
0.08894264
0.087783094
0.077279335
0.056363179
0.031889458
0.015529826
0.0092063324
0.007254808
0.0063733291
0.0058483
0.0055435109
0.0053376104
0.0051970944
0.0050985911
0.0050321947
0.0049864004
0.0049631462
0.0021569287
0.0043356433
0.0071838226
0.010601916
0.014780675
0.019843294
0.025860136
0.033166882
0.041245894
0.050213225
0.05991739
0.069844169
0.079155317
0.086556
0.090135771
0.087232191
0.074706459
0.052326382
0.028113099
0.013800191
0.0087115937
0.0071094149
0.0063120697
0.00581592
0.0055262739
0.0053274426
0.0051914108
0.0050953179
0.0050303377
0.0049852712
0.0049625521
0.0039766327
0.0063171857
0.009210211
0.012839145
0.017342262
0.022814322
0.0293653
0.036874533
0.045179605
0.054279211
0.063900484
0.073500449
0.082203351
0.088664572
0.090929634
0.086329758
0.071917048
0.048456053
0.025196534
0.012648465
0.0083765011
0.0070473466
0.0062848604
0.0058009329
0.0055180725
0.0053224258
0.0051885648
0.0050934189
0.0050290903
0.004984335
0.0049618582
0.0057519536
0.0083296439
0.011588512
0.015614428
0.020452648
0.026232588
0.03304316
0.040605515
0.049026146
0.05814706
0.067620298
0.076856698
0.084929149
0.09043974
0.091394763
0.085134799
0.068956334
0.044761697
0.0226463
0.011586671
0.0081733957
0.0069706992
0.0062436286
0.0057773635
0.0055048082
0.0053142107
0.0051839077
0.0050906338
0.0050274329
0.00498327
0.0049611797
0.0075038892
0.010439956
0.014042345
0.018366705
0.023509161
0.029598541
0.036496933
0.044238542
0.052764326
0.061860458
0.071141133
0.079976235
0.087388931
0.091931319
0.091577029
0.08368913
0.065869162
0.041214382
0.020386695
0.010877522
0.0079817372
0.0069176139
0.0062171601
0.0057624358
0.0054963555
0.0053088962
0.0051808709
0.0050886415
0.0050261211
0.0049823128
0.0049605236
0.0093494828
0.012585314
0.016464386
0.021065074
0.02655031
0.032850094
0.03993046
0.047825468
0.05640996
0.065437002
0.074486308
0.082886328
0.089612593
0.093171622
0.091511
0.082024853
0.062700146
0.037818661
0.018407621
0.010183914
0.0078492624
0.0068633282
0.0061854216
0.0057437914
0.0054855622
0.0053020417
0.0051769583
0.0050862141
0.0050245974
0.0049812891
0.0049598189
0.011139701
0.014663761
0.018843114
0.023779716
0.029528843
0.036027085
0.043313831
0.051337454
0.059948882
0.068875204
0.07766301
0.085600925
0.091620124
0.094186355
0.091227019
0.080181511
0.059491103
0.034628048
0.0167166
0.0097171382
0.0077303769
0.0068195986
0.0061617316
0.0057301208
0.0054775545
0.0052968681
0.0051739759
0.0050842529
0.0050232699
0.0049803283
0.0049590764
0.01287251
0.016713855
0.021207195
0.026487972
0.032449889
0.039170348
0.046634184
0.054758724
0.06337142
0.07217197
0.080674565
0.088130078
0.093428665
0.09500002
0.090755962
0.078202704
0.056285185
0.031685608
0.015348809
0.0093117648
0.0076403732
0.0067781398
0.00613684
0.0057151938
0.0054686387
0.0052910561
0.0051706138
0.0050821056
0.0050218403
0.0049793361
0.0049583098
0.014601238
0.018741537
0.023555439
0.029101445
0.035308305
0.042245799
0.049869985
0.058076223
0.066669787
0.075324477
0.083523909
0.090483449
0.095055557
0.095638976
0.090137704
0.076127187
0.053154484
0.029024798
0.01419619
0.0090203053
0.0075600756
0.0067425335
0.0061168062
0.0057033503
0.0054614464
0.0052862787
0.0051678139
0.0050802492
0.0050205263
0.0049783825
0.0049575341
0.016275355
0.020719304
0.025855798
0.031635649
0.03809771
0.045242575
0.053010917
0.061281118
0.069838028
0.078331063
0.086214979
0.092671781
0.096519426
0.096129279
0.089409891
0.073999465
0.050109645
0.026661363
0.013296609
0.0087972411
0.007494527
0.0067098379
0.0060973454
0.0056914687
0.0054540795
0.0052813423
0.0051648918
0.0050783397
0.0050191699
0.0049774168
0.0049567506
0.017932643
0.022671991
0.028087082
0.034112238
0.040818367
0.048152211
0.056047551
0.064365528
0.072871382
0.081191392
0.088753162
0.09470745
0.097840737
0.096498921
0.088604231
0.071861972
0.047201371
0.02460492
0.012537772
0.0086188012
0.0074357206
0.0066810731
0.0060812022
0.005681706
0.0054478814
0.0052771091
0.0051623357
0.0050766268
0.0050178866
0.0049764764
0.0049559617
0.019544784
0.024581232
0.030243758
0.036525121
0.043457362
0.050962901
0.058970665
0.067322465
0.075766257
0.083906483
0.091145368
0.096604423
0.099040634
0.096780279
0.087755281
0.069760304
0.044471861
0.022854684
0.011957267
0.0084793285
0.0073855528
0.0066550525
0.0060663784
0.0056724957
0.0054418785
0.0052729705
0.0051597902
0.0050749295
0.0050165938
0.004975534
0.0049551682
0.021131512
0.026439048
0.032343889
0.038865757
0.045993726
0.053664419
0.061771424
0.070146021
0.078520402
0.086478789
0.093399826
0.09837737
0.10013988
0.096998253
0.086895438
0.067733276
0.04195374
0.021393004
0.011498688
0.0083685485
0.0073406366
0.0066319809
0.0060541197
0.0056648833
0.0054367493
0.0052693679
0.0051575068
0.0050733765
0.0050153529
0.0049746094
0.0049543712
0.022690322
0.028241766
0.034384335
0.041125969
0.04842261
0.056251045
0.064441695
0.072830426
0.08113299
0.088913347
0.095526591
0.10004336
0.10116159
0.097180523
0.086059954
0.065807301
0.039671436
0.020201534
0.01116315
0.0082808572
0.0073015265
0.0066113085
0.0060434908
0.0056580674
0.0054319957
0.0052659931
0.0051553029
0.0050718728
0.0050141215
0.0049736875
0.0049535709
0.02422966
0.029996337
0.03635852
0.043300524
0.050772135
0.058690951
0.066977274
0.075373891
0.083603639
0.09121624
0.09753576
0.10161733
0.10213185
0.097364678
0.085294937
0.064006174
0.037640498
0.019261521
0.010936411
0.0082121091
0.0072668589
0.0065930496
0.0060350399
0.005652532
0.0054279523
0.0052630677
0.005153307
0.005070483
0.0050129341
0.0049727793
0.0049527663
0.025724025
0.031694582
0.038255313
0.045375644
0.052998787
0.061034027
0.06934608
0.077764466
0.085926782
0.093379154
0.09943533
0.10311609
0.10307432
0.097583289
0.084641528
0.062370423
0.03587347
0.018561871
0.010764755
0.008155499
0.0072367677
0.0065769762
0.0060283931
0.0056477702
0.0054243613
0.0052604346
0.0051514261
0.005069157
0.0050117706
0.0049718776
0.0049519559
0.027123036
0.033295666
0.04004127
0.047324153
0.055080616
0.063214425
0.071574311
0.079961707
0.088070194
0.095404053
0.1012243
0.10455225
0.10401014
0.097866159
0.084136295
0.060963063
0.034420148
0.017969932
0.010590093
0.0081062846
0.0072106972
0.006563118
0.00602367
0.0056440721
0.0054213785
0.0052581999
0.0051497249
0.0050679265
0.0050106484
0.0049709872
0.0049511406
0.028396343
0.034735683
0.041643839
0.0490752
0.056961578
0.065195986
0.073622678
0.082023811
0.090069397
0.097260367
0.10289755
0.10593651
0.1049588
0.098240073
0.083811011
0.059836219
0.033256729
0.017475887
0.01044143
0.0080665554
0.007188617
0.0065513978
0.006020622
0.0056412024
0.0054188696
0.0052562808
0.0051481574
0.0050667655
0.0050095583
0.0049701046
0.0049503207
0.029740338
0.036153449
0.043149297
0.050677
0.058655286
0.066969381
0.075455315
0.083884027
0.09191
0.099020584
0.10448943
0.10725192
0.10593509
0.098728343
0.083692984
0.059029036
0.032363035
0.017060143
0.010304953
0.0080345974
0.0071703
0.006541827
0.0060192453
0.0056393014
0.0054169066
0.0052547244
0.0051467565
0.0050656902
0.0050085106
0.0049692329
0.004949494
0.031077776
0.037539972
0.044579834
0.052155659
0.060186037
0.068552228
0.077082009
0.085538533
0.093562302
0.10062609
0.10598518
0.10856949
0.10695655
0.099319286
0.083803316
0.058570362
0.031726924
0.016707662
0.010183069
0.008010919
0.0071557629
0.0065343781
0.0060193847
0.0056382776
0.0054154325
0.0052534886
0.0051455024
0.0050646886
0.0050075018
0.0049683705
0.0049486587
0.032386503
0.038860715
0.04590802
0.053494949
0.061543012
0.069937323
0.078498177
0.086983056
0.095021209
0.10207385
0.10737694
0.10984747
0.10803296
0.10010154
0.084151391
0.058480854
0.031348183
0.016397228
0.01006995
0.007995123
0.007145122
0.0065291314
0.0060212156
0.0056382969
0.0054144913
0.0052525928
0.0051444123
0.0050637679
0.0050065361
0.0049675182
0.0049478172
0.033654568
0.040100793
0.047115758
0.05467779
0.062709767
0.071116151
0.079726718
0.088267672
0.096357255
0.10342086
0.10869203
0.11109614
0.1091639
0.10103715
0.084779472
0.058775276
0.031251567
0.016100726
0.0099624225
0.0079875902
0.0071386578
0.0065261936
0.0060245564
0.0056389941
0.0054140624
0.0052520039
0.0051434708
0.0050629178
0.0050056082
0.0049666733
0.00494697
0.034892692
0.041242043
0.048168366
0.055667574
0.063695846
0.072130268
0.080781168
0.089358875
0.097470832
0.10457269
0.10987988
0.11229978
0.11034784
0.10213306
0.085673704
0.059480536
0.031413783
0.015782741
0.0098632148
0.0079880438
0.0071364617
0.006525527
0.0060288558
0.0056409089
0.0054141219
0.0052516936
0.0051426673
0.005062132
0.0050047143
0.0049658341
0.0049461031
0.03609648
0.042247217
0.048985247
0.056333381
0.064271611
0.072669046
0.081325688
0.089954465
0.098153108
0.10535428
0.11076597
0.11327944
0.11138907
0.10318152
0.08661651
0.060328629
0.031852283
0.015367723
0.0097640201
0.0079925131
0.0071376735
0.0065261443
0.0060333025
0.0056433094
0.0054143829
0.0052515987
0.0051419689
0.0050613969
0.0050038492
0.004965002
0.0049451956
0.00089990088
0.0018387697
0.0036362207
0.0063282422
0.0099059413
0.01439696
0.019956554
0.026694535
0.034733769
0.043578694
0.053368289
0.063685698
0.073780882
0.082485895
0.088002306
0.087733772
0.078351607
0.058256385
0.033560794
0.016065684
0.0093408625
0.0072893215
0.0063877698
0.0058573777
0.0055491332
0.0053413646
0.005199279
0.0051000443
0.0050331476
0.0049871317
0.004963408
0.00095445435
0.0018898196
0.0036582828
0.0062772737
0.0097590205
0.014177699
0.019653352
0.026285939
0.034187858
0.042943677
0.052582553
0.062775981
0.072842693
0.081621977
0.087348811
0.087462652
0.078669687
0.059117011
0.034438928
0.016432418
0.0094237971
0.0073075748
0.0063956033
0.005863107
0.0055528121
0.0053438699
0.0052007901
0.0051010661
0.0050338447
0.0049876668
0.0049636671
0.0010208659
0.0019454065
0.00369063
0.0062631912
0.0096792652
0.014011856
0.019375353
0.025875389
0.033601535
0.042228621
0.051743341
0.061842624
0.071873535
0.080719802
0.086653721
0.087154092
0.078963408
0.059990883
0.035372939
0.016845276
0.0095152433
0.0073286394
0.0064047887
0.0058692644
0.0055567216
0.0053465441
0.0052023299
0.0051021215
0.0050345464
0.0049882374
0.0049640129
0.0010968509
0.0020043007
0.0037228629
0.006248363
0.0095981016
0.013843772
0.019094758
0.025454016
0.033012432
0.041503714
0.0508883
0.060884332
0.07087292
0.07977802
0.085914296
0.086804028
0.079226211
0.060875149
0.036360496
0.017302738
0.009616964
0.0073479172
0.0064127597
0.005875791
0.0055608803
0.005349433
0.0052041298
0.0051033185
0.0050353727
0.0049888453
0.00496441
0.0011898561
0.0020747914
0.0037604603
0.0062371051
0.0095192717
0.013676687
0.018814128
0.025030906
0.032421507
0.040771462
0.050018919
0.059904122
0.069841178
0.078795995
0.085128574
0.086409033
0.079451651
0.061764865
0.037396717
0.017808987
0.0097307528
0.0073763943
0.0064255626
0.00588368
0.0055656951
0.0053525671
0.0052059232
0.0051045435
0.0050361765
0.0049894984
0.0049647817
0.001297623
0.0021500989
0.0037996582
0.0062269269
0.0094422126
0.013511795
0.018536203
0.024614275
0.031832838
0.040035444
0.049138466
0.058904599
0.068779975
0.07777428
0.084295454
0.085966045
0.079636037
0.062655822
0.038461636
0.018360558
0.0098606867
0.0073974977
0.0064340973
0.005891207
0.005570487
0.0053559717
0.0052079497
0.005105892
0.0050370782
0.0049901943
0.004965074
0.0014309604
0.0022499935
0.0038547281
0.006230519
0.0093782201
0.013358978
0.018269204
0.024206624
0.03125251
0.039301093
0.048251096
0.057889125
0.067691606
0.076714802
0.08341564
0.085474369
0.07978181
0.063550996
0.039582546
0.018968146
0.010005015
0.0074252692
0.0064460686
0.0059000658
0.0055758843
0.0053596345
0.0052101136
0.005107326
0.0050380287
0.0049909336
0.0049654933
0.001592078
0.0023693909
0.0039253627
0.0062461564
0.0093249529
0.013216148
0.018011664
0.023808264
0.030688613
0.03856915
0.047359017
0.056860389
0.066577055
0.07562024
0.082490743
0.08493361
0.079883253
0.064434841
0.040779556
0.019634966
0.010168575
0.007455689
0.0064589844
0.0059097112
0.0055816964
0.0053635501
0.0052124407
0.0051088545
0.0050390483
0.0049917168
0.0049660803
0.001782204
0.0025115379
0.0040177252
0.0062819527
0.0092911108
0.013092163
0.017772172
0.023425679
0.030124631
0.037844665
0.046468577
0.055824278
0.065448313
0.074493391
0.081520485
0.084339244
0.079933696
0.065300348
0.042035573
0.020365977
0.010353022
0.0074889478
0.0064731926
0.0059201956
0.0055879248
0.0053677811
0.0052149154
0.0051104779
0.0050401145
0.0049925433
0.0049667875
0.0020060352
0.0026914267
0.0041419257
0.0063459892
0.0092838666
0.012993807
0.017557125
0.023065297
0.029583899
0.037134116
0.045585382
0.05478628
0.064310593
0.073337914
0.080506298
0.083689379
0.079927829
0.066148003
0.043340781
0.021166276
0.010560876
0.0075261397
0.0064886419
0.005931823
0.0055947856
0.0053722926
0.0052175895
0.0051122125
0.0050412683
0.004993418
0.0049674818
0.0022716451
0.0029116581
0.0043034435
0.0064464296
0.0093115211
0.012928924
0.017373993
0.022735219
0.029080111
0.036450413
0.044716628
0.05375167
0.063155971
0.072156975
0.079450201
0.082983156
0.079861166
0.066963573
0.044694579
0.022043187
0.010795576
0.0075670674
0.0065059205
0.0059442498
0.0056019758
0.0053771929
0.005220419
0.0051140548
0.0050424606
0.0049943404
0.0049681614
0.0025793635
0.0031816832
0.0045205505
0.0065956615
0.0093844004
0.012906691
0.017230991
0.022443053
0.028614135
0.035794773
0.043868733
0.052726808
0.061997584
0.07095519
0.078354922
0.082220568
0.079729268
0.06772963
0.04605412
0.022995065
0.011059972
0.0076142413
0.0065248553
0.0059585122
0.0056102598
0.0053823898
0.0052234906
0.0051160322
0.0050437649
0.0049953219
0.004968901
0.0029318671
0.0035121873
0.0047989859
0.0068054961
0.0095136538
0.012937163
0.017138828
0.022195416
0.028189279
0.03515679
0.043044938
0.051717817
0.060841436
0.069737432
0.077223876
0.081402454
0.079528885
0.06843908
0.047408141
0.024027208
0.011359483
0.0076660154
0.0065463054
0.0059732569
0.0056185574
0.0053880311
0.0052267244
0.0051181281
0.0050450921
0.0049963482
0.0049697251
0.00332857
0.0039033744
0.0051412721
0.0070861838
0.0097099579
0.013030009
0.017104979
0.022001638
0.027812613
0.0345729
0.042255347
0.050731686
0.059693694
0.068506458
0.076060975
0.080530521
0.079257934
0.069084953
0.048771562
0.025144318
0.01169683
0.0077278672
0.0065701755
0.0059909258
0.0056287004
0.0053939966
0.005230241
0.0051203959
0.0050465608
0.0049974424
0.0049706028
0.0037894423
0.0043732229
0.0055724687
0.0074447668
0.0099819514
0.013193929
0.017136725
0.021869455
0.02749062
0.034044598
0.041520571
0.049777664
0.058561183
0.067270383
0.074871223
0.079607478
0.078915181
0.069658581
0.050133526
0.026343974
0.012080789
0.0077958233
0.0065970849
0.006008754
0.0056384404
0.0054003926
0.0052339548
0.0051227852
0.0050480326
0.0049985744
0.0049715301
0.0043425979
0.0049440232
0.0061098743
0.0079149099
0.010343137
0.013435826
0.017238882
0.02180383
0.027228139
0.033569992
0.040814396
0.048857909
0.057451535
0.066053132
0.073662316
0.078637366
0.078501058
0.070150255
0.051494952
0.027633655
0.012510925
0.0078776576
0.0066283942
0.00603026
0.0056505733
0.0054072568
0.005237976
0.0051254025
0.0050496754
0.0049997907
0.0049725024
0.0050067392
0.0056134767
0.0067382395
0.0084543501
0.010785159
0.013753483
0.017410539
0.021804777
0.027026343
0.033149904
0.040152345
0.047975798
0.056368584
0.064836339
0.072438752
0.077625141
0.078018953
0.070556286
0.052845295
0.028994577
0.013004267
0.0079724644
0.0066614566
0.0060527656
0.0056626449
0.0054143708
0.0052422781
0.0051281228
0.0050513106
0.0050010315
0.0049735128
0.0058079269
0.0063947062
0.0074582162
0.009077599
0.01129758
0.014137719
0.017645089
0.02186719
0.026883181
0.032786485
0.039555694
0.047138089
0.055316558
0.063630512
0.071205906
0.076576183
0.077473859
0.070887423
0.05419337
0.030483246
0.013554736
0.0080902091
0.0067051398
0.0060777031
0.0056760354
0.0054224429
0.0052469137
0.0051311378
0.0050531353
0.0050023718
0.0049745559
0.006737307
0.0072875796
0.0082736655
0.0097885842
0.011885325
0.014580062
0.017931432
0.021980572
0.026791589
0.032474105
0.039006956
0.046349334
0.054298527
0.062443226
0.069969154
0.07549528
0.07686597
0.071144482
0.05551303
0.03204771
0.014189675
0.0082303393
0.0067432091
0.0061064711
0.005691897
0.0054302337
0.0052518668
0.0051342129
0.0050549652
0.0050037138
0.004975629
0.0077995275
0.0082907197
0.0091779744
0.010564221
0.012514037
0.015062069
0.01825376
0.022130021
0.026740115
0.032203992
0.038501819
0.045601621
0.053316348
0.061277527
0.068730558
0.074386543
0.076196443
0.071312448
0.056775146
0.033667202
0.014890987
0.0083850064
0.006805351
0.0061351298
0.0057056643
0.0054401461
0.005257356
0.0051376211
0.0050569756
0.0050051578
0.0049767322
0.0089564156
0.009385109
0.010151131
0.011385076
0.013167841
0.015561544
0.018591528
0.022296836
0.026713421
0.031963151
0.038027436
0.044872346
0.052362399
0.060131818
0.067483706
0.073252456
0.075468861
0.071393249
0.057974157
0.035378609
0.015698514
0.0085778138
0.0068511162
0.0061678188
0.0057254592
0.0054484905
0.0052627946
0.005141079