/*--------------------------------*- C++ -*----------------------------------*\
| =========                 |                                                 |
| \\      /  F ield         | OpenFOAM: The Open Source CFD Toolbox           |
|  \\    /   O peration     | Version:  2406                                  |
|   \\  /    A nd           | Website:  www.openfoam.com                      |
|    \\/     M anipulation  |                                                 |
\*---------------------------------------------------------------------------*/
FoamFile
{
    version     2.0;
    format      ascii;
    arch        "LSB;label=32;scalar=64";
    class       volScalarField;
    location    "0.098";
    object      omega;
}
// * * * * * * * * * * * * * * * * * * * * * * * * * * * * * * * * * * * * * //

dimensions      [0 0 -1 0 0 0 0];

internalField   nonuniform List<scalar> 
8260
(
19417.637
16553.156
13858.138
11450.807
9367.5018
7593.2312
6099.5168
4855.3995
3830.4661
2995.014
2321.54
1784.9235
1362.2521
1032.8987
776.69434
573.31232
394.0836
261.08761
197.40147
166.00673
147.45304
133.83813
122.92069
114.29927
109.35082
105.81968
103.43544
101.68283
100.43763
99.598317
99.164673
16031.968
13809.889
11767.708
9913.4936
8257.1292
6800.778
5539.5121
4463.1409
3558.0348
2807.6296
2193.7459
1698.479
1304.2123
994.1941
750.51205
554.0198
378.01527
250.97365
193.3862
163.9355
146.14531
133.0287
122.49627
114.06594
109.21447
105.73907
103.38305
101.65054
100.41625
99.584834
99.157404
13129.776
11492.908
9953.0142
8522.9972
7212.8266
6030.2563
4979.9039
4062.5109
3274.9205
2609.9948
2057.4176
1605.4516
1241.3337
952.02281
721.8614
532.79955
361.70641
244.22746
191.25143
162.82125
145.43248
132.59913
122.27497
113.95112
109.14386
105.69737
103.35469
101.63252
100.40169
99.573567
99.148721
10636.406
9469.1171
8332.8817
7248.2596
6228.1565
5283.7594
4424.2527
3656.1056
2982.4771
2402.7054
1912.6041
1505.6082
1173.273
906.00072
690.30954
509.00195
344.01553
236.35357
188.17591
160.99504
144.20342
131.84009
121.86982
113.74136
109.01281
105.61949
103.30056
101.59791
100.37763
99.557533
99.137898
8520.9852
7711.0941
6889.9157
6084.477
5306.6638
4567.9868
3879.0488
3248.8045
2683.8074
2187.507
1760.1203
1399.199
1099.9766
855.90043
655.44371
481.88268
324.45323
228.59699
185.30919
159.31722
143.09853
131.16763
121.50544
113.56252
108.90257
105.55349
103.2553
101.56901
100.35589
99.541672
99.125545
6752.4961
6199.7377
5619.1154
5034.6122
4455.3828
3891.1732
3351.8017
2846.4575
2382.9313
1966.8546
1601.2847
1286.7928
1021.5698
801.5635
616.78119
450.73858
303.29774
220.79662
182.01133
157.23149
141.67888
130.27211
121.00657
113.31503
108.7481
105.45945
103.19057
101.52747
100.3266
99.521629
99.111319
5289.8665
4918.5878
4516.8538
4102.6316
3681.9831
3262.0182
2850.5535
2455.5756
2084.577
1743.8441
1437.9058
1169.2811
938.35822
742.86669
573.65275
414.96057
281.33593
213.24189
178.64163
155.09774
140.24685
129.35956
120.48885
113.07248
108.59891
105.36702
103.12773
101.48706
100.29702
99.500381
99.095131
4093.3116
3848.3847
3576.5769
3290.1551
2992.5955
2688.4486
2383.2023
2082.965
1793.9957
1522.1372
1272.2708
1047.8851
850.82697
679.65812
525.00843
374.19853
259.87949
205.92327
174.90357
152.65027
138.57139
128.23412
119.84402
112.76758
108.41145
105.2475
103.04693
101.43473
100.26004
99.474668
99.076627
3125.9657
2967.717
2788.1234
2595.1199
2390.3656
2176.3865
1956.5845
1735.1039
1516.5741
1305.7415
1107.0314
924.08418
759.54779
611.56937
469.22152
329.61192
240.62997
198.83324
170.92932
150.12758
136.83077
127.00725
119.14946
112.44594
108.22018
105.12257
102.9634
101.38004
100.22066
99.446455
99.055501
2353.4283
2253.588
2138.0267
2011.5958
1874.8475
1728.9247
1575.6255
1417.3968
1257.2525
1098.5956
944.92144
799.39765
664.82156
537.55202
404.43683
285.48438
224.64803
191.70462
166.53715
147.39018
134.84463
125.54984
118.33957
112.04817
107.98775
104.96897
102.86104
101.31196
100.17275
99.412885
99.031309
1744.1822
1682.7658
1610.815
1530.6763
1442.3411
1346.1393
1242.7866
1133.4481
1019.7812
903.89904
788.18738
674.8542
566.00302
453.96906
332.45197
249.79339
211.63785
184.33552
161.8672
144.58199
132.69672
123.9924
117.48263
111.60458
107.73413
104.8054
102.7525
101.23785
100.11989
99.375434
99.003575
1268.9623
1232.4438
1189.2586
1140.382
1085.4941
1024.4123
957.14228
883.96203
805.52387
722.87552
637.30488
549.29994
458.73303
358.59648
270.56599
226.75227
199.33398
176.27683
156.98865
141.38067
130.28629
122.31144
116.52241
111.07536
107.41844
104.60914
102.62358
101.14748
100.05615
99.331504
98.971772
900.59564
880.02686
855.31382
826.75787
793.86731
756.15889
713.23955
664.86367
611.04592
552.04099
488.3557
419.02939
344.12504
276.71826
235.50892
209.08183
186.42538
168.63957
151.77243
138.04311
127.6454
120.61625
115.46197
110.50803
107.068
104.39565
102.48567
101.04791
99.984807
99.282464
98.93189
610.68445
599.11004
584.97267
568.48939
549.05036
525.83811
498.46422
466.70746
430.4515
389.25311
345.31372
301.28716
262.86212
232.68159
212.8969
191.63114
174.91315
159.62923
146.12277
134.25703
125.16074
118.65758
114.31393
109.88156
106.63629
104.14442
102.32267
100.92967
99.900887
99.225872
98.883129
391.10465
384.30468
376.63304
368.15234
357.93534
345.34187
330.52083
314.05411
295.57214
275.55107
256.01197
236.39651
220.04899
207.97002
192.90095
176.7854
161.60968
151.44152
140.17141
130.88316
122.30068
116.62383
113.09837
109.20923
106.19952
103.86222
102.14432
100.80055
99.809215
99.163202
98.827768
267.40895
264.11504
260.14604
255.95916
251.35052
246.06879
239.83004
233.16225
224.4814
216.12797
208.04207
200.93352
194.93324
184.63465
174.24687
161.35098
150.94064
142.18324
134.349
126.77009
119.40409
114.72359
111.78322
108.44045
105.67308
103.55962
101.92103
100.6518
99.70629
99.092281
98.767126
201.57348
200.34391
198.91909
197.23165
195.53263
193.47704
190.858
188.36849
185.78889
183.69789
177.72272
171.4707
165.75641
161.4977
156.75418
150.2494
139.89073
134.43585
128.24098
122.95524
116.82104
112.71063
110.3798
107.66265
105.14033
103.21882
101.68638
100.48698
99.596631
99.014629
98.702948
167.38674
166.50645
165.82067
165.13296
164.58161
164.73516
164.66052
163.12023
160.75103
156.50315
154.43667
153.71263
149.89529
144.09677
140.11442
138.02334
132.83364
126.43739
122.58083
119.03434
114.00114
111.0664
109.03735
106.68866
104.55672
102.85445
101.39668
100.30002
99.474791
98.928428
98.637525
148.45497
148.48795
148.33126
147.79798
146.75355
144.89278
142.53767
141.18258
140.49042
140.16101
139.54946
136.11366
134.41142
131.94713
129.32032
127.17265
124.67808
121.05173
117.16105
115.36437
112.12771
109.34197
107.64083
105.92431
103.88712
102.43725
101.11847
100.09074
99.344518
98.834194
98.561373
130.69704
130.52476
130.35262
130.12708
129.91309
130.04779
130.79435
130.89683
130.21097
128.50631
126.14935
125.70103
125.79346
124.8734
123.66373
119.67494
118.04734
115.18839
112.96643
111.93145
110.07736
108.12811
106.35661
104.9209
103.2102
101.98185
100.76455
99.863724
99.201569
98.730943
98.48277
121.40781
121.51606
121.50207
121.35513
121.03551
120.46457
119.30714
118.67042
118.30566
118.0113
118.3892
117.96648
116.33825
115.52619
116.10571
115.45126
113.063
111.75197
110.51283
109.35075
108.20888
106.50053
105.16974
104.08084
102.45237
101.41906
100.44964
99.624585
99.049937
98.622815
98.394589
112.40466
112.4191
112.39486
112.3189
112.22211
112.15516
112.37423
112.65205
112.53751
112.17023
111.46665
110.71518
110.94168
110.56647
110.08961
109.1508
109.72259
108.81321
108.19345
106.61944
105.76705
104.88165
103.56804
102.95917
101.73988
100.83013
100.05307
99.372795
98.893094
98.511359
98.305455
107.8257
107.93201
107.95952
107.91794
107.81357
107.63183
107.30882
106.85013
106.69559
106.6184
106.51102
106.65312
106.14906
106.06709
105.72479
105.73464
105.23064
104.95571
105.15808
104.90961
103.88605
102.84618
102.11414
101.77817
101.04702
100.14365
99.698308
99.17436
98.72136
98.396577
98.214545
103.62239
103.66785
103.6727
103.64788
103.60612
103.55799
103.52705
103.6547
103.75945
103.78049
103.74088
103.4944
103.45007
103.19402
103.10873
102.87082
102.79386
102.55284
102.25102
102.03349
102.00575
101.7755
100.84394
100.49304
100.33132
99.683087
99.310867
98.942177
98.558224
98.288162
98.127868
101.57867
101.63292
101.6461
101.62674
101.58171
101.51266
101.41442
101.27674
101.20228
101.18759
101.17819
101.17299
101.15831
101.11793
101.11295
101.03433
100.94036
101.14914
100.79417
100.52296
100.40813
100.45743
100.23214
99.810389
99.687485
99.357685
99.016947
98.752631
98.425847
98.1839
98.055313
99.81699
99.833248
99.829275
99.81465
99.801835
99.797538
99.80324
99.821305
99.873342
99.936601
100.01251
100.08882
100.13632
100.16224
100.04058
100.00021
99.951924
99.94736
99.96924
99.800543
99.664658
99.751238
99.751117
99.433518
99.330136
99.093016
98.80673
98.54694
98.298227
98.109684
98.008143
98.980435
98.988329
98.98518
98.978219
98.97682
98.982402
98.99416
99.008749
99.020467
99.037643
99.066503
99.103972
99.149476
99.186918
99.261822
99.287949
99.362617
99.284801
99.261951
99.302328
99.335544
99.175593
99.120434
99.176217
98.908599
98.882102
98.631816
98.406214
98.225486
98.067147
97.982734
98.421143
98.429951
98.435138
98.441383
98.451201
98.464715
98.481233
98.500244
98.521738
98.546527
98.576474
98.612858
98.660567
98.713919
98.726405
98.743051
98.751807
98.760192
98.798143
98.801392
98.940913
98.802242
98.745256
98.749631
98.679147
98.592847
98.46494
98.318479
98.176213
98.049877
97.96903
98.231848
98.238165
98.243049
98.248553
98.25606
98.265672
98.277153
98.290445
98.305878
98.324274
98.346831
98.377079
98.415602
98.451216
98.468692
98.481625
98.502847
98.529788
98.542988
98.565675
98.585343
98.529211
98.537751
98.516767
98.520189
98.458283
98.381519
98.275604
98.159194
98.063708
98.025199
98.163732
98.168937
98.173779
98.179185
98.185789
98.193717
98.203
98.213823
98.22669
98.242826
98.26508
98.298232
98.338832
98.372486
98.388586
98.39689
98.404766
98.423612
98.438541
98.454173
98.469513
98.446489
98.46522
98.440701
98.453542
98.417828
98.353171
98.269879
98.218095
98.179123
98.131109
98.283302
98.281613
98.280119
98.278689
98.277341
98.276213
98.275568
98.27577
98.277205
98.280513
98.287161
98.301685
98.331852
98.355526
98.364366
98.374878
98.387818
98.397213
98.407113
98.422216
98.433745
98.455274
98.4408
98.45318
98.4443
98.427113
98.391334
98.361458
98.343736
98.309219
98.304722
106489.4
89675.975
70421.229
54160.218
41361.203
31206.627
23263.298
17208.948
12638.924
9196.3996
6626.1493
4731.6429
3351.7727
2357.3242
1647.2966
1143.6307
785.9109
526.69498
343.98436
231.54716
175.78985
147.54646
129.85747
118.6415
112.08254
107.63318
104.56277
102.42158
100.96755
99.973944
99.466383
93284.696
70298.652
53956.287
42190.405
32837.356
25303.596
19332.006
14605.758
10901.06
8037.3114
5860.9141
4232.3032
3029.5786
2151.6467
1517.2815
1061.9591
734.09276
493.25185
322.46392
219.80583
170.79903
145.30207
128.64254
117.95427
111.71704
107.41797
104.44408
102.35436
100.93133
99.953671
99.457808
74705.387
59359.997
47536.406
37615.87
29293.619
22522.767
17153.493
12952.069
9689.7444
7179.7263
5270.3125
3834.3053
2766.2002
1980.1266
1407.1415
991.91086
689.37767
464.72565
305.62887
212.90455
168.51159
144.30654
128.09715
117.63284
111.54278
107.31162
104.38449
102.31636
100.90817
99.937566
99.447173
65845.483
53000.677
42087.044
33038.05
25714.749
19861.316
15217.209
11554.943
8691.0965
6476.6185
4783.5501
3502.9897
2544.4269
1834.0614
1312.3576
931.03806
650.20927
439.84837
290.71781
205.76423
165.46447
142.82617
127.24612
117.12218
111.26083
107.13785
104.28762
102.25959
100.87637
99.918725
99.436913
58647.352
46731.935
37025.477
29170.578
22823.144
17715.792
13633.517
10397.49
7858.4067
5887.4562
4373.344
3221.8649
2354.7981
1708.1598
1229.9951
877.65513
615.57004
417.41572
277.1618
199.88422
163.35709
141.85213
126.69725
116.79547
111.08082
107.0251
104.22473
102.21963
100.85198
99.902214
99.427161
52180.615
41630.194
33075.619
26118.575
20481.431
15941.69
12308.709
9424.6403
7156.0463
5388.3766
4024.0697
2981.0987
2191.3586
1598.9215
1158.0274
830.54372
584.7528
396.79851
264.94218
194.63965
161.17891
140.73667
126.03711
116.39043
110.85203
106.88039
104.14366
102.17049
100.82317
99.884298
99.416364
47150.345
37593.36
29849.34
23580.942
18522.267
14452.47
11194.234
8604.0316
6561.1971
4963.6355
3725.2504
2773.9651
2049.9344
1503.829
1094.9593
788.88753
557.20317
377.94913
254.02345
190.15565
159.43471
139.87633
125.54034
116.09001
110.68172
106.77066
104.08223
102.13122
100.79857
99.867747
99.404747
43084.087
34236.861
27153.34
21463.017
16884.874
13203.858
10256.648
7910.8049
6056.3333
4601.3454
3469.0441
2595.4233
1927.3713
1420.9571
1039.6383
752.08639
532.50859
360.77768
244.35192
186.2562
157.78162
139.0048
125.01825
115.76574
110.49305
106.64801
104.01302
102.08805
100.77187
99.850541
99.392605
39596.454
31413.015
24905.233
19696.734
15513.972
12155.198
9466.5698
7324.3769
5627.3868
4292.0842
3249.2641
2441.4966
1821.174
1348.7808
991.23127
719.60299
510.60771
345.20883
235.86429
182.89954
156.3721
138.28075
124.59518
115.5066
110.34032
106.54678
103.95571
102.05106
100.74766
99.834174
99.380264
36731.735
29075.925
23034.074
18219.597
14363.789
11273.388
8800.3555
6828.1953
5263.0135
4028.2379
3060.9027
2308.9594
1729.3111
1286.0545
949.02719
691.03226
490.89931
331.14369
228.47789
179.99163
155.07786
137.59131
124.18429
115.24936
110.18451
106.44258
103.89602
102.01301
100.7226
99.817564
99.36775
34289.224
27104.734
21460.691
16978.507
13397.783
10531.96
8238.9692
6408.8541
4953.9832
3803.5855
2899.8535
2195.1559
1650.0984
1231.7353
912.34823
666.02084
473.26745
318.51216
222.10143
177.47564
153.94363
136.99932
123.84226
115.0369
110.053
106.35293
103.84409
101.97914
100.69911
99.801508
99.355118
32227.786
25444.128
20137.741
15936.284
12587.45
9909.5459
7767.0067
6055.4501
4692.759
3613.0228
2762.7293
2097.882
1582.1256
1185.0118
880.63613
644.30612
457.5773
307.25313
216.64618
175.29179
152.9169
136.45447
123.52884
114.83766
109.92601
106.26552
103.79255
101.94568
100.67545
99.785422
99.342385
30466.734
24038.686
19024.13
15062.345
11908.937
9388.7296
7371.9012
5759.1212
4473.1929
3452.3609
2646.7306
2015.2995
1524.2415
1145.0709
853.36518
625.62347
443.68824
297.31924
212.02243
173.39697
152.00877
135.98027
123.2698
114.67188
109.81726
106.18927
103.74657
101.91531
100.65288
99.769722
99.329573
28959.618
22848.249
18087.673
14331.587
11343.688
8955.7248
7043.4692
5512.6571
4290.3074
3318.2465
2549.6064
1945.9941
1475.4513
1111.1978
830.12975
609.65077
431.47387
288.66782
208.14732
171.75394
151.19575
135.5529
123.04619
114.52366
109.71668
106.11798
103.70238
101.88606
100.63053
99.754089
99.316691
27673.215
21845.367
17306.692
13726.527
10878.21
8600.2407
6774.2085
5310.6926
4140.3163
3208.2267
2469.726
1888.7381
1434.9509
1082.9689
810.70011
596.10827
420.80746
281.25261
204.94931
170.33591
150.47857
135.18041
122.86921
114.40243
109.63097
106.05613
103.6626
101.85926
100.60909
99.738755
99.303716
26612.108
21024.409
16672.712
13238.538
10504.459
8315.8519
6559.2855
5149.7174
4020.569
3120.0308
2405.5143
1842.4534
1402.1051
1059.9945
794.85567
584.95675
411.61302
275.0462
202.34683
169.12244
149.84552
134.85176
122.72959
114.30009
109.55494
106.00057
103.6253
101.83386
100.58815
99.723562
99.290618
25774.575
20381.383
16178.975
12860.303
10215.858
8096.7488
6393.8693
5025.5599
3928.069
3051.506
2355.434
1806.3224
1376.3838
1041.9498
782.39488
576.18759
403.92603
270.00095
200.21132
168.09978
149.29453
134.57034
122.63113
114.22106
109.49167
105.95346
103.59181
101.81053
100.56806
99.708609
99.277418
25001.493
19826.191
15773.49
12561.296
9993.9728
7931.5111
6270.6715
4933.5588
3859.848
3001.1755
2318.5976
1779.6998
1357.3806
1028.5781
773.14415
569.69916
397.78676
266.00041
198.54307
167.25899
148.81928
134.33218
122.56827
114.16149
109.43844
105.91313
103.56115
101.78872
100.54863
99.693821
99.264121
24195.794
19282.27
15403.105
12307.245
9818.0314
7808.214
6183.2573
4870.852
3814.291
2967.9004
2294.3257
1762.1222
1344.7975
1019.6911
766.97295
565.41408
393.21754
262.98009
197.29973
166.59458
148.41798
134.13948
122.54131
114.1235
109.39666
105.88054
103.53401
101.76875
100.53006
99.679254
99.250678
23536.221
18841.181
15110.402
12115.255
9693.2818
7727.3594
6130.548
4835.8175
3790.314
2950.9733
2282.1377
1753.2905
1338.443
1015.1627
763.79625
563.25942
390.23403
260.88286
196.46712
166.10512
148.0893
133.9915
122.54425
114.10576
109.3652
105.85485
103.50995
101.75038
100.51229
99.664873
99.23705
22951.551
18480.776
14891.47
11986.166
9620.585
7688.9804
6112.1626
4827.9138
3787.3983
2950.0403
2281.8077
1753.0591
1338.2089
1014.9391
763.57875
563.17472
388.85798
259.66852
196.03286
165.79556
147.83692
133.8905
122.58629
114.10819
109.34494
105.83648
103.48932
101.73373
100.4954
99.650689
99.223284
22428.48
18185.93
14737.675
11916.384
9599.2012
7692.392
6125.5945
4843.9661
3802.4606
2963.3043
2292.6704
1761.2877
1344.0793
1019.0243
766.33363
565.11686
389.04712
259.33234
196.00163
165.67635
147.66702
133.8374
122.65691
114.13696
109.33546
105.82479
103.47178
101.71859
100.47928
99.636637
99.20938
21940.031
17940.084
14639.631
11901.44
9623.5555
7732.0335
6168.8368
4885.5726
3839.4897
2993.4927
2315.8382
1778.312
1356.1378
1027.4651
772.11995
569.15823
390.87262
259.69592
196.24201
165.71924
147.58221
133.83163
122.75163
114.18383
109.33585
105.81916
103.45708
101.70479
100.46382
99.622678
99.195021
21436.474
17713.488
14578.334
11927.105
9686.9928
7807.0739
6241.4558
4948.823
3891.2479
3033.9558
2346.2058
1800.3109
1371.607
1038.1641
779.32793
574.07757
393.6897
260.77719
196.82961
165.87911
147.56662
133.84881
122.84651
114.24416
109.34083
105.81808
103.44449
101.69205
100.44893
99.60885
99.179783
103795.71
87505.783
69307.577
53819.183
41559.786
31862.939
24062.917
17934.231
13212.128
9632.5068
6946.591
4959.6876
3509.409
2463.4412
1717.014
1188.4377
814.1254
543.79098
353.83446
235.88839
177.23525
148.08591
130.15155
118.84797
112.20431
107.71328
104.6079
102.45052
100.9852
99.986468
99.469434
98412.241
83185.443
66751.999
52595.231
41027.331
31604.783
23980.477
17952.061
13287.671
9723.5379
7031.9097
5030.44
3563.7877
2503.0053
1744.5617
1206.895
826.22495
551.53678
358.95008
238.40734
178.07677
148.37386
130.31676
118.98244
112.28438
107.76577
104.63838
102.47021
100.99761
99.995371
99.472194
93182.453
79131.303
63999.516
50988.177
40151.177
31183.547
23836.705
17953.094
13356.667
9812.9039
7118.3183
5103.4553
3620.6156
2544.7252
1773.7985
1226.5743
839.13869
559.7789
364.40606
241.13459
179.00168
148.70723
130.50577
119.12217
112.36804
107.82248
104.66962
102.49055
101.0101
100.0047
99.476696
88190.84
75369.543
61353.911
49367.649
39238.337
30728.139
23666.319
17942.467
13417.407
9899.259
7204.9956
5178.3082
3679.7288
2588.5771
1804.7621
1247.5345
852.90704
568.5948
370.1938
244.07668
179.95941
148.99665
130.67992
119.27813
112.4592
107.88228
104.70562
102.5134
101.02479
100.01478
99.482418
83428.118
71839.688
58803.105
47738.526
38287.895
30234.839
23465.965
17912.541
13467.593
9981.1482
7291.0741
5254.562
3740.96
2634.5388
1837.4958
1269.8418
867.58035
578.05872
376.30266
247.26235
181.12975
149.46298
130.94277
119.45003
112.56113
107.94895
104.74211
102.53705
101.03914
100.02553
99.487049
78767.356
68552.182
56383.542
46122.366
37306.605
29703.238
23232.402
17856.603
13504.368
10056.863
7375.5413
5331.6932
3804.0951
2682.5655
1872.0346
1293.5616
883.19524
588.20034
382.59483
250.60024
182.20187
149.75906
131.13278
119.63129
112.66656
108.0206
104.78303
102.56293
101.05522
100.03698
99.489607
74189.874
65322.115
54007.58
44481.25
36273.594
29120.377
22957.656
17772.582
13524.055
10124.348
7457.2428
5409.0887
3868.8564
2732.572
1908.3906
1318.7409
899.83375
599.00602
389.17955
254.2026
183.46352
150.18185
131.392
119.83399
112.7835
108.09766
104.82674
102.59033
101.07218
100.04909
99.494311
69776.822
62161.302
51698.814
42841.803
35206.019
28494.746
22644.854
17660.112
13522.956
10182.311
7535.2864
5486.1855
3934.9617
2784.4667
1946.5769
1345.4188
917.58476
610.55266
396.42743
258.04661
184.83176
150.64011
131.67212
120.05355
112.90921
108.18005
104.87364
102.61954
101.09029
100.06187
99.502801
65492.226
59033.338
49425.832
41190.823
34095.385
27818.635
22287.45
17515.13
13507.375
10228.791
7608.0126
5562.0175
4001.9364
2838.0596
1986.5464
1373.6027
936.47722
622.89212
404.22589
262.14075
186.31862
151.13714
131.98307
120.29236
113.04459
108.26892
104.92353
102.6504
101.10928
100.07528
99.513683
61388.831
55890.511
47154.266
39519.269
32939.529
27089.749
21882.463
17334.098
13466.87
10261.284
7673.8473
5635.6124
4069.2607
2893.1273
2028.2358
1403.3011
956.54587
636.15301
412.54658
266.50487
187.94022
151.68277
132.31875
120.55459
113.19286
108.36374
104.9773
102.68342
101.12968
100.08941
99.523716
57405.743
52736.123
44860.781
37817.549
31736.138
26306.452
21427.348
17113.155
13395.532
10275.547
7730.927
5705.8887
4136.3273
2949.3803
2071.5465
1434.5105
977.81118
650.31283
421.47954
271.1756
189.7095
152.28843
132.69953
120.83666
113.34993
108.46634
105.03417
102.7183
101.15083
100.10423
99.532989
53571.437
49534.729
42517.696
36074.805
30482.895
25468.109
20920.601
16849.964
13294.057
10270.733
7777.536
5771.6761
4202.4532
3006.4738
2116.3428
1467.2083
1000.292
665.3102
430.70399
276.12697
191.6546
152.95146
133.10733
121.15494
113.52877
108.57535
105.09588
102.75581
101.17377
100.1199
99.543143
49903.95
46303.919
40124.661
34291.882
29183.038
24577.145
20362.846
16543.818
13161.761
10250.174
7812.6504
5831.8275
4266.8901
3064.0047
2162.4493
1501.3502
1024.0027
681.19165
440.2142
281.40442
193.77004
153.72114
133.58103
121.48795
113.71076
108.69287
105.16057
102.79543
101.19716
100.13622
99.554684
46370.553
43070.526
37689.027
32474.098
27844.457
23639.979
19757.502
16195.559
12996.886
10204.155
7834.3098
5885.1462
4328.8454
3121.517
2209.6497
1536.8679
1048.9481
697.98965
450.2841
287.05435
196.11476
154.53803
134.08519
121.87784
113.92976
108.81764
105.2313
102.83823
101.22287
100.15341
99.566924
42936.745
39864.286
35225.755
30629.3
26475.56
22665.173
19110.614
15808.065
12799.59
10133.549
7838.6824
5930.2451
4387.4884
3178.5158
2257.6924
1573.6697
1075.1166
715.70746
460.95152
293.07558
198.65605
155.54997
134.67462
122.27442
114.14242
108.95028
105.3052
102.88352
101.24846
100.17119
99.579753
39649.202
36813.769
32832.321
28815.126
25110.918
21673.11
18433.989
15387.462
12572.44
10040.43
7831.096
5966.6656
4442.05
3234.4817
2306.3054
1611.6465
1102.4963
734.32703
472.38459
299.56053
201.52812
156.58941
135.3223
122.74457
114.40545
109.09331
105.38615
102.93244
101.27715
100.18992
99.593025
36541.526
33976.958
30578.245
27079.073
23782.784
20687.274
17743.184
14942.892
12320.144
9926.6559
7809.2971
5993.9393
4491.8908
3288.8874
2355.1738
1650.675
1131.1034
753.89244
484.64453
306.36181
204.58411
157.90015
136.02418
123.23116
114.66417
109.24105
105.47166
102.9842
101.30497
100.20914
99.606525
33693.324
31425.819
28516.988
25462.108
22522.888
19731.387
17055.266
14485.368
12048.69
9793.8933
7769.9641
6011.2811
4536.4072
3341.2205
2403.9616
1690.6057
1160.9513
774.60428
497.99733
314.08151
208.12583
159.32655
136.91766
123.77114
114.95669
109.40816
105.56429
103.03983
101.33689
100.22924
99.620073
31175.156
29207.975
26701.253
24009.968
21367.416
18832.545
16389.332
14027.468
11765.501
9646.0141
7717.2829
6018.138
4575.1039
3390.983
2452.3001
1731.2254
1191.8985
796.48143
512.35168
322.28436
211.82584
160.91308
137.66709
124.3751
115.28999
109.57188
105.66368
103.09817
101.36711
100.24955
99.63356
28989.743
27313.455
25146.632
22751.284
20344.778
18014.595
15763.86
13582.078
11478.576
9487.2634
7652.7072
6015.483
4607.517
3437.6593
2499.7781
1772.2679
1223.7913
819.35402
527.58823
330.82273
216.17022
162.90362
138.91941
124.97845
115.58996
109.77458
105.771
103.16062
101.40238
100.27049
99.646948
27124.636
25713.797
23839.082
21690.185
19469.547
17294.625
15193.9
13160.586
11195.502
9322.1743
7578.9575
6006.0279
4633.8054
3480.8055
2545.9528
1813.4253
1256.4866
843.21894
543.78171
340.19154
220.69959
164.85022
139.73989
125.65316
116.00633
109.95191
105.88185
103.22466
101.43525
100.29145
99.66016
25491.947
24325.473
22717.407
20794.597
18734.551
16679.157
14689.403
12771.752
10922.501
9154.4288
7497.1501
5986.2993
4653.3382
3519.8282
2590.3241
1854.374
1289.8123
868.02321
560.91467
350.29739
225.83312
167.19214
141.05728
126.37244
116.3571
110.20417
106.01143
103.2939
101.47372
100.31294
99.673009
24012.238
23063.561
21702.924
20002.2
18103.086
16154.363
14249.651
12419.186
10663.197
8986.3309
7408.3066
5958.2116
4665.931
3554.1412
2632.3034
1894.6949
1323.5458
893.67912
578.94886
360.9211
231.72927
169.67301
142.47179
127.01086
116.77014
110.38385
106.12274
103.36314
101.50991
100.33411
99.685274
22621.839
21857.002
20716.894
19232.817
17506.248
15674.596
13851.646
12094.13
10415.046
8817.0138
7311.3808
5919.6254
4667.5058
3582.1383
2671.0087
1933.8413
1357.4003
920.07406
597.90138
372.43193
237.4419
172.44368
143.15139
127.76057
117.28914
110.6827
106.28172
103.43925
101.55068
100.35572
99.696683
21242.262
20635.215
19689.342
18412.296
16871.208
15180.574
13456.509
11775.427
10167.994
8641.9003
7204.3275
5870.5108
4662.5936
3603.6677
2705.7006
1971.2166
1391.0139
947.05344
617.74026
385.21563
243.67146
174.9973
144.73699
128.54136
117.62842
110.87364
106.38922
103.51762
101.59068
100.37575
99.706961
19801.469
19328.033
18560.483
17484.442
16140.405
14616.978
13019.21
11432.833
9904.6957
8452.0457
7082.7246
5808.3764
4647.5949
3617.2787
2735.3176
2006.084
1423.9156
974.35434
638.36441
398.89802
250.39359
177.6223
145.82109
128.91893
118.14595
111.1547
106.56045
103.59895
101.63054
100.39692
99.715674
18300.058
17918.102
17295.88
16408.785
15268.712
13934.884
12495.678
11033.529
9604.2994
8235.4937
6939.6172
5727.7022
4615.0031
3617.8744
2757.9871
2037.5208
1455.6056
1001.6557
659.49399
413.17551
257.29455
180.31951
146.70926
129.64135
118.69491
111.4224
106.70772
103.68662
101.67334
100.41447
99.72251
16752.486
16437.543
15928.773
15200.585
14253.956
13121.879
11865.765
10556.614
9250.417
7981.699
6769.151
5626.2048
4567.9126
3611.5822
2774.1016
2064.968
1485.5566
1028.6292
680.94827
428.01207
264.6487
182.78241
147.37229
130.25808
118.88457
111.62057
106.86019
103.76391
101.7121
100.43357
99.726865
15197.645
14932.446
14516.995
13926.188
13153.039
12213.97
11148.202
10007.793
8842.3541
7688.408
6569.5307
5502.7104
4504.4197
3592.8062
2781.6847
2087.6144
1513.2607
1054.9526
702.5253
443.19608
271.69657
184.644
147.80595
130.34778
119.29934
111.95369
107.03826
103.84522
101.75312
100.44582
99.728432
13711.183
13484.406
13144.15
12667.909
12044.737
11278.838
10391.719
9418.3133
8398.0634
7365.2982
6345.91
5359.7792
4424.9362
3559.6515
2780.6413
2105.1912
1538.4253
1080.4019
724.13525
458.85878
279.20648
186.39307
148.25645
130.42962
119.72482
112.16121
107.21901
103.93167
101.79129
100.45864
99.726285
12372.345
12175.748
11893.883
11507.773
11005.239
10383.337
9650.855
8828.6784
7945.3691
7030.4263
6109.6749
5204.5966
4334.4852
3518.3642
2774.9245
2118.5662
1561.1382
1104.8873
745.71262
475.06109
287.84083
188.43216
148.42804
130.41345
119.79089
112.43039
107.33246
103.99356
101.81882
100.46616
99.720065
11243.082
11069.352
10830.007
10509.841
10097.053
9584.7993
8974.8363
8278.6605
7514.7845
6706.2023
5876.5413
5047.6672
4239.5837
3471.5808
2762.3755
2128.165
1581.7268
1128.4959
767.24107
491.73008
297.3416
191.14164
148.48129
130.30985
119.96029
112.53992
107.50106
104.07565
101.85287
100.46599
99.708702
10350.089
10192.706
9982.6069
9708.2624
9359.0855
8927.0081
8409.1099
7809.5631
7140.279
6419.0444
5666.3354
4903.1408
4149.7316
3425.341
2748.4441
2135.8847
1601.0288
1151.5751
788.86569
508.90779
307.6264
194.25197
148.61052
130.2639
120.11177
112.78455
107.67303
104.14343
101.86989
100.46205
99.691801
9691.2171
9548.4661
9360.2343
9117.8093
8811.8271
8434.2141
7980.0358
7449.4407
6849.171
6192.628
5498.1239
4785.8591
4075.898
3387.4108
2738.2083
2144.5573
1620.3505
1174.7231
810.89732
526.78813
318.90998
197.93303
149.02305
130.24359
120.11651
112.83465
107.72411
104.18654
101.87044
100.45288
99.668718
9190.4152
9066.6914
8902.1513
8689.0453
8418.3677
8082.1051
7674.4249
7193.4869
6643.0994
6033.5742
5380.9296
4704.8858
4025.965
3363.6413
2736.0555
2156.2393
1640.7974
1198.4664
833.53335
545.45582
331.35567
202.21146
149.93648
130.27266
120.11071
112.83305
107.77466
104.20069
101.86628
100.43047
99.638725
8741.0745
8641.364
8506.0868
8327.5322
8096.1073
7802.5201
7439.5477
7003.6951
6496.5225
5925.921
5306.3425
4657.2039
3999.8428
3354.6729
2739.4335
2171.7773
1662.9882
1222.9108
856.68554
564.80404
344.90661
207.57033
151.27233
130.50562
120.08648
112.79957
107.7759
104.183
101.84377
100.40552
99.601838
8267.4635
8192.181
8086.5769
7943.1923
7753.0161
7506.4343
7194.343
6810.0623
6351.9413
5825.0664
5241.7421
4620.2313
3982.584
3351.4181
2749.2722
2190.083
1686.1282
1247.533
880.01986
584.60199
359.44403
214.0497
153.08421
130.98143
120.01132
112.71291
107.70998
104.14868
101.8191
100.36943
99.557283
7742.2171
7688.363
7609.3874
7497.8116
7345.0933
7142.0168
6879.495
6549.8708
6148.6189
5676.514
5141.6694
4559.7852
3951.7054
3340.6558
2750.7822
2203.8168
1706.6584
1270.8021
902.67174
604.40792
374.72718
221.69141
155.12376
131.21812
119.84676
112.53346
107.61005
104.10104
101.76275
100.31575
99.505598
7179.2465
7138.4876
7077.7208
6990.0473
6867.7756
6702.2623
6484.5162
6206.3071
5861.8268
5449.5379
4973.7637
4445.8638
3883.8213
3309.3902
2741.8584
2205.9954
1720.9964
1290.5894
923.53794
623.50461
390.04156
229.84029
156.86446
131.23818
119.45642
112.18395
107.37373
103.94085
101.67901
100.25845
99.447366
6623.8882
6586.3414
6532.788
6457.5174
6354.1536
6215.3031
6032.9102
5799.0277
5507.0849
5153.5245
4739.5798
4272.5278
3765.8369
3238.3111
2710.6763
2198.8022
1725.2406
1304.4187
941.33014
640.99789
404.50062
237.58241
158.09325
131.12718
118.91168
111.7507