/*--------------------------------*- C++ -*----------------------------------*\
| =========                 |                                                 |
| \\      /  F ield         | OpenFOAM: The Open Source CFD Toolbox           |
|  \\    /   O peration     | Version:  2406                                  |
|   \\  /    A nd           | Website:  www.openfoam.com                      |
|    \\/     M anipulation  |                                                 |
\*---------------------------------------------------------------------------*/
FoamFile
{
    version     2.0;
    format      ascii;
    arch        "LSB;label=32;scalar=64";
    class       surfaceScalarField;
    location    "0.042";
    object      phi;
}
// * * * * * * * * * * * * * * * * * * * * * * * * * * * * * * * * * * * * * //

dimensions      [1 0 -1 0 0 0 0];

oriented        oriented;

internalField   nonuniform List<scalar> 
16284
(
0.010511262
-0.014654581
0.015101661
-0.010958343
0.010067871
-0.017207091
0.017650478
0.0096028885
-0.020135917
0.020600893
0.0091195726
-0.023520561
0.024003871
0.0086251988
-0.027430326
0.027924693
0.0081300248
-0.031931878
0.032427046
0.0076457447
-0.037100556
0.037584834
0.0071820842
-0.043025798
0.043489455
0.0067452366
-0.049829009
0.050265843
0.0063376806
-0.05765129
0.058058815
0.0059599372
-0.066621145
0.066998843
0.0056075245
-0.076902922
0.077255291
0.005270261
-0.088661227
0.088998466
0.0049306206
-0.10201638
0.10235601
0.0045596314
-0.11680764
0.11717865
0.0040890658
-0.13267303
0.13314363
0.0035077381
-0.14881276
0.14939411
0.0029892099
-0.1661582
0.16667671
0.0026069494
-0.18707823
0.18746051
0.002284497
-0.21134449
0.21166698
0.0019947478
-0.238943
0.23923274
0.0017306382
-0.27023069
0.27049478
0.0014863288
-0.30563518
0.30587944
0.001260582
-0.34565211
0.34587784
0.0010552449
-0.39110302
0.39130839
0.00086665006
-0.44287792
0.44306652
0.00068949876
-0.50169557
0.50187267
0.00051895991
-0.56852221
0.56869269
0.00035058481
-0.64439763
0.64456589
0.00017963436
-0.73076065
0.73093159
-0.82889113
0.82907088
0.011651691
-0.014262615
-0.012043662
0.011211238
-0.016766646
0.01074393
-0.019668618
0.010253529
-0.023030169
0.009744763
-0.026921567
0.009226801
-0.03141392
0.0087112915
-0.036585049
0.0082100435
-0.042524557
0.0077297264
-0.049348714
0.0072737919
-0.057195399
0.0068448922
-0.0661923
0.0064399189
-0.076497997
0.0060486346
-0.088269966
0.0056477565
-0.10161551
0.0052060228
-0.11636588
0.0046461525
-0.13211313
0.0039672282
-0.14813381
0.0033861797
-0.16557718
0.0029582664
-0.1866503
0.002593359
-0.21097955
0.0022642235
-0.23861388
0.0019641755
-0.26993066
0.0016866043
-0.30535765
0.0014303882
-0.3453959
0.0011975481
-0.39087014
0.00098356976
-0.44266393
0.00078261509
-0.50149467
0.00058899535
-0.56832866
0.00039786798
-0.64420663
0.00020370956
-0.73056649
-0.82868728
0.012791344
-0.013919688
-0.013134279
0.012391429
-0.01636674
0.011947816
-0.019225015
0.011468539
-0.022550904
0.010960067
-0.026413104
0.010431388
-0.03088525
0.0098939856
-0.036047658
0.009360806
-0.041991395
0.008840632
-0.048828575
0.0083369498
-0.056691768
0.0078548547
-0.065710261
0.0073924839
-0.076035669
0.0069397786
-0.087817276
0.0064682833
-0.10114401
0.0059421783
-0.11583975
0.0052743439
-0.13144525
0.0044867598
-0.1473462
0.0038465052
-0.16493695
0.0033680134
-0.18617179
0.0029539845
-0.21056549
0.0025786746
-0.23823859
0.0022363364
-0.26958834
0.0019196165
-0.30504098
0.0016275982
-0.3451039
0.0013624846
-0.39060498
0.0011188253
-0.44242026
0.00089019194
-0.50126609
0.00066984909
-0.56810839
0.00045251531
-0.64398945
0.00023163605
-0.73034562
-0.82845547
0.013947063
-0.013634703
-0.014232058
0.01360309
-0.01602278
0.013204172
-0.018826111
0.012756331
-0.022103077
0.012266226
-0.025923015
0.011742539
-0.03036158
0.011196439
-0.035501579
0.010640931
-0.041435917
0.010086428
-0.048274117
0.009538124
-0.05614352
0.0090022289
-0.065174418
0.008478279
-0.075511753
0.0079563717
-0.087295376
0.0074032869
-0.10059091
0.006775656
-0.11521208
0.005977579
-0.13064713
0.0050698347
-0.14643843
0.0043701679
-0.16423733
0.0038325975
-0.18563421
0.0033623224
-0.21009519
0.0029343086
-0.2378106
0.0025438694
-0.26919792
0.0021827284
-0.30467988
0.0018502842
-0.34477146
0.0015488368
-0.39030347
0.0012716991
-0.44214311
0.0010118509
-0.50100631
0.0007612774
-0.56785791
0.0005142915
-0.64374264
0.00026312164
-0.73009447
-0.82819214
0.015115354
-0.013416281
-0.015333791
0.014838026
-0.015745469
0.01450011
-0.018488214
0.014103345
-0.021706334
0.01365186
-0.025471555
0.013152445
-0.029862193
0.012614823
-0.03496399
0.012050997
-0.040872131
0.011472034
-0.047695204
0.010885183
-0.055556722
0.010297214
-0.064586491
0.0097087684
-0.074923328
0.0091097873
-0.086696389
0.0084621518
-0.09994326
0.0077105989
-0.11446048
0.0067572023
-0.12969369
0.0057234791
-0.14540467
0.004964573
-0.16347846
0.0043607349
-0.18503036
0.0038273353
-0.20956176
0.0033397228
-0.23732301
0.0028946509
-0.26875287
0.0024828724
-0.30426816
0.0021043892
-0.34439299
0.0017615524
-0.38996056
0.0014461728
-0.44182772
0.0011507131
-0.50071093
0.00086559749
-0.56757289
0.00058483385
-0.64346208
0.00029906057
-0.72980871
-0.82789283
0.016286521
-0.013271693
-0.016431131
0.016085731
-0.015544703
0.015822828
-0.018225336
0.01549514
-0.021378673
0.015102694
-0.025079139
0.014648676
-0.029408209
0.014139773
-0.034455124
0.013585655
-0.040318054
0.012996652
-0.047106244
0.012380997
-0.054941107
0.011745593
-0.063951111
0.011091449
-0.074269186
0.010407482
-0.086012401
0.0096496312
-0.099185382
0.0087457959
-0.11355659
0.0076095846
-0.12855743
0.006456188
-0.14425124
0.0056369865
-0.16265931
0.0049594883
-0.18435287
0.0043548338
-0.2089571
0.0037997921
-0.23676801
0.0032927727
-0.26824586
0.0028234363
-0.30379887
0.0023927697
-0.34396232
0.0020031038
-0.38957081
0.0016443269
-0.44146893
0.0013084746
-0.50037516
0.0009840919
-0.56724863
0.00066499051
-0.64314322
0.00033982308
-0.72948356
-0.82755271
0.017456233
-0.013205807
-0.017522145
0.017339353
-0.015427849
0.017162815
-0.018048824
0.016919368
-0.021135251
0.016604313
-0.024764111
0.016216223
-0.029020149
0.01575736
-0.033996291
0.015233481
-0.039794206
0.014652339
-0.046525129
0.014021249
-0.054310034
0.013346051
-0.063275913
0.012626695
-0.07354981
0.011849115
-0.085234786
0.010961298
-0.09829753
0.0098686131
-0.11246384
0.0085267226
-0.12721548
0.0072803509
-0.14300483
0.0063943166
-0.16177333
0.0056365133
-0.18359508
0.0049520915
-0.20827269
0.004321565
-0.23613752
0.0037447866
-0.26766908
0.0032103143
-0.30326444
0.0027206003
-0.34347261
0.002277977
-0.38912807
0.0018698809
-0.44106082
0.0014881067
-0.49999348
0.0011189961
-0.56687966
0.0007563214
-0.64278083
0.00038621894
-0.72911349
-0.82716613
0.018636563
-0.013218982
-0.018623406
0.018605756
-0.015397059
0.018519955
-0.017963038
0.018369068
-0.020984379
0.018144179
-0.024539235
0.017838701
-0.028714683
0.017449262
-0.033606863
0.016976056
-0.039321006
0.016422093
-0.045971165
0.015791242
-0.053679169
0.015086034
-0.062570676
0.014302602
-0.072766336
0.013419829
-0.084351965
0.012375973
-0.097253634
0.011050457
-0.11113824
0.0094984228
-0.12566337
0.0082040914
-0.14171045
0.0072434368
-0.16081271
0.0063986303
-0.18275031
0.0056255245
-0.20749963
0.0049111909
-0.23542321
0.0042562934
-0.26701415
0.0036485266
-0.30265671
0.0030922648
-0.34291633
0.0025900129
-0.38862568
0.0021260863
-0.44059689
0.001692212
-0.4995597
0.0012723119
-0.56645991
0.00086016905
-0.64236903
0.00043889575
-0.72869226
-0.8267268
0.019837661
-0.013304758
-0.019751877
0.019889276
-0.015448665
0.019893257
-0.017967009
0.019837184
-0.020928295
0.019708806
-0.024410843
0.019496541
-0.0285024
0.019190889
-0.033301189
0.018785293
-0.038915381
0.018275997
-0.045461833
0.017660564
-0.053063688
0.016934925
-0.061844981
0.016086465
-0.071917817
0.015077309
-0.083342757
0.013842081
-0.096018367
0.012245252
-0.10954133
0.010525245
-0.12394327
0.0092303894
-0.14041553
0.0081907231
-0.15977306
0.007250959
-0.18181063
0.0063813207
-0.20663008
0.0055749995
-0.23461691
0.0048335422
-0.26627265
0.0041441183
-0.30196731
0.0035132685
-0.34228544
0.002944109
-0.38805633
0.0024171455
-0.44006993
0.0019241408
-0.4990668
0.0014466292
-0.56598259
0.00097829712
-0.64190109
0.00049882006
-0.72821284
-0.82622747
0.021070202
-0.013451483
-0.020923444
0.021192643
-0.015571069
0.021278203
-0.018052531
0.021312512
-0.020962564
0.021279134
-0.02437742
0.021161904
-0.02838512
0.020945626
-0.033084855
0.020616647
-0.038586339
0.020162906
-0.045008022
0.019572755
-0.052473463
0.018831444
-0.061103596
0.017911196
-0.070997507
0.016750184
-0.082181701
0.015253063
-0.094521214
0.013379919
-0.10766812
0.011620992
-0.12218425
0.01035054
-0.139145
0.009239816
-0.15866238
0.0081951971
-0.18076614
0.0072254661
-0.20566043
0.0063178971
-0.23370935
0.0054817297
-0.2654364
0.0047024739
-0.30118807
0.0039886388
-0.34157153
0.0033448202
-0.38741229
0.002747147
-0.43947227
0.0021871367
-0.49850689
0.0016444927
-0.56544015
0.0011123993
-0.64136945
0.00056692378
-0.72766745
-0.82565993
0.022334634
-0.013653721
-0.022132353
0.022517021
-0.015753406
0.022668859
-0.018204311
0.022775537
-0.021069175
0.022820339
-0.024422152
0.022784652
-0.028349356
0.022648557
-0.032948679
0.022391211
-0.038328905
0.021990594
-0.044607315
0.021422339
-0.051905121
0.020655886
-0.060337071
0.019637409
-0.06997899
0.018259992
-0.080804273
0.016434368
-0.092695584
0.014461504
-0.10569521
0.012864492
-0.12058712
0.011582093
-0.13786246
0.010367842
-0.15744817
0.0092390403
-0.17963752
0.0081426445
-0.20456414
0.0071364326
-0.23270312
0.0062057817
-0.26450565
0.0053289235
-0.30031119
0.0045236318
-0.34076612
0.0037971398
-0.38668551
0.0031207708
-0.43879591
0.002484967
-0.49787119
0.0018688254
-0.56482426
0.001264462
-0.64076562
0.00064444004
-0.72704754
-0.82501477
0.023522153
-0.013887422
-0.0232884
0.02374358
-0.015974775
0.02394174
-0.018402407
0.024100735
-0.0212281
0.024202809
-0.024524151
0.024227538
-0.028374002
0.024151185
-0.032872237
0.023945673
-0.038123301
0.023576948
-0.044238499
0.023002424
-0.051330521
0.02216653
-0.059501138
0.020981372
-0.068793844
0.01934343
-0.079166382
0.017340479
-0.09069269
0.015573003
-0.10392775
0.014167767
-0.11918176
0.012831732
-0.13652623
0.011584844
-0.15620126
0.010352782
-0.17840567
0.0091841424
-0.20339564
0.0080602004
-0.23157911
0.0069964284
-0.26344173
0.0060225697
-0.29933729
0.0051225526
-0.33986593
0.0043053452
-0.38586798
0.003542348
-0.4380329
0.0028212117
-0.49715016
0.0021224333
-0.56412578
0.0014363971
-0.64008018
0.00073254428
-0.72634384
-0.82428139
0.024455363
-0.014123369
-0.024219377
0.024679882
-0.01619925
0.024881465
-0.018603941
0.025047245
-0.021393824
0.025160067
-0.02463691
0.025198138
-0.028412003
0.025133751
-0.032807774
0.024930009
-0.037919479
0.024537583
-0.043846001
0.023889564
-0.05068246
0.022902646
-0.058514238
0.021515033
-0.067406312
0.019832829
-0.077484294
0.018230153
-0.089090159
0.016825656
-0.10252336
0.015498521
-0.11785454
0.014191062
-0.13521854
0.01286127
-0.15487137
0.011552913
-0.1770975
0.010261752
-0.20210459
0.0090440277
-0.2303612
0.0078861687
-0.26228365
0.0067868903
-0.29823795
0.0057879017
-0.33886674
0.0048741683
-0.38495391
0.0040165127
-0.4371752
0.00319977
-0.4963335
0.00240838
-0.56333476
0.0016302829
-0.63930275
0.00083217759
-0.72554593
-0.82344827
0.02431127
-0.014322413
-0.024112192
0.024498428
-0.016386364
0.024665141
-0.018770601
0.024807295
-0.02153591
0.024914676
-0.024744214
0.024956739
-0.028453987
0.024890289
-0.032741237
0.024667283
-0.037696381
0.02423745
-0.043416085
0.023548025
-0.049992989
0.022583827
-0.057550076
0.021422974
-0.066245563
0.020271368
-0.076332818
0.019189531
-0.088008499
0.018067047
-0.10140107
0.016832538
-0.11662011
0.015506083
-0.13389194
0.014163682
-0.15352883
0.012789392
-0.17572328
0.011431716
-0.20074697
0.010110228
-0.22903941
0.0088373523
-0.26101042
0.007639
-0.29703948
0.0065186013
-0.3377461
0.0055031635
-0.38393813
0.0045425754
-0.43621452
0.0036246079
-0.49541558
0.0027299725
-0.56244053
0.0018479812
-0.6384215
0.00094364894
-0.72464187
-0.82250357
0.023209747
-0.01456514
-0.022967001
0.023437565
-0.016614166
0.023628226
-0.018961254
0.023750959
-0.021658646
0.023779824
-0.024773081
0.023713808
-0.028387962
0.023553755
-0.032581166
0.023310698
-0.03745329
0.023000713
-0.043106054
0.022602565
-0.049594798
0.022123833
-0.05707134
0.021579216
-0.065700983
0.020957377
-0.075711074
0.020168903
-0.087220149
0.019180249
-0.1004126
0.018047395
-0.11548748
0.016793023
-0.13263762
0.015440893
-0.15217661
0.014046909
-0.17432927
0.012617682
-0.1993177
0.011220137
-0.22764149
0.0098617328
-0.25965151
0.0085502019
-0.2957277
0.0073357619
-0.33653142
0.0062012559
-0.38280323
0.0051309277
-0.43514401
0.0040999034
-0.49438459
0.0030874084
-0.56142848
0.0020917723
-0.63742664
0.0010657526
-0.72361619
-0.82143669
0.020841269
-0.014868126
-0.020538232
0.021173056
-0.016945898
0.021534779
-0.019322916
0.021922132
-0.022045932
0.022307621
-0.025158501
0.022651041
-0.028731317
0.022894302
-0.03282438
0.022930784
-0.037489752
0.022747839
-0.042923103
0.022458228
-0.049305226
0.022190978
-0.056804205
0.021914496
-0.065424662
0.021490138
-0.075286962
0.020857305
-0.086587463
0.02004703
-0.099602413
0.019065607
-0.11450626
0.017914966
-0.13148702
0.016631511
-0.15089314
0.015251847
-0.17294962
0.013824944
-0.19789073
0.012374155
-0.22619035
0.010936726
-0.25821344
0.0095430557
-0.29433362
0.008209636
-0.33519766
0.0069663063
-0.3815595
0.0057732097
-0.43395065
0.0046241989
-0.49323558
0.0034919266
-0.56029668
0.0023640682
-0.63629956
0.0011978149
-0.72245036
-0.82023769
0.01927231
-0.015107439
-0.019032925
0.019530807
-0.017204307
0.019808579
-0.019600585
0.020103138
-0.022340374
0.020418186
-0.025473422
0.020753481
-0.029066475
0.021135906
-0.033206659
0.021629223
-0.037982918
0.022103592
-0.043397367
0.022361859
-0.04956359
0.022266685
-0.056709359
0.02196712
-0.065125651
0.021632284
-0.074952937
0.021227738
-0.086183404
0.020613814
-0.098988818
0.01980466
-0.11369739
0.018829782
-0.13051184
0.017654834
-0.1497178
0.016355907
-0.17165081
0.014983776
-0.1965189
0.013524447
-0.22473095
0.012043307
-0.25673178
0.010583358
-0.29287309
0.0091581555
-0.33377197
0.007797862
-0.38019879
0.0064834556
-0.432636
0.0052051454
-0.49195734
0.0039339272
-0.55902593
0.0026643184
-0.63503067
0.0013463004
-0.72113284
-0.81889018
0.019024987
-0.015349469
-0.018782862
0.019285021
-0.017464236
0.019562364
-0.019877815
0.019856829
-0.022634718
0.020171158
-0.025787629
0.020503018
-0.029398223
0.02083355
-0.033537114
0.021137018
-0.038286383
0.021464556
-0.043724994
0.021905339
-0.050004421
0.022303602
-0.057107577
0.022307066
-0.065129174
0.021885004
-0.074531305
0.021363816
-0.08566315
0.020853208
-0.098479191
0.020243122
-0.11308868
0.019470146
-0.12973887
0.018483883
-0.14873053
0.017302214
-0.17046899
0.016048409
-0.19526589
0.014664157
-0.22334725
0.013168344
-0.25523594
0.011654573
-0.29135871
0.010147456
-0.33226434
0.0086889127
-0.37873996
0.0072495143
-0.43119651
0.0058321526
-0.49054023
0.0044219677
-0.55761623
0.0030004397
-0.63360973
0.0015113225
-0.71964429
-0.81737765
0.018154034
-0.015577186
-0.017926201
0.018403981
-0.017714055
0.018675668
-0.02014936
0.018967547
-0.022926445
0.019275057
-0.026094985
0.01958901
-0.029712031
0.019894802
-0.033842787
0.020171288
-0.038562799
0.020414723
-0.04396843
0.020576449
-0.050166248
0.020785772
-0.057317088
0.021297834
-0.065641332
0.021722468
-0.074955474
0.021556871
-0.085496518
0.021100044
-0.098022693
0.020571946
-0.11256303
0.019978743
-0.12914768
0.019187178
-0.14793801
0.018155988
-0.16943703
0.01699641
-0.19410704
0.015704345
-0.22205603
0.014251308
-0.25378334
0.01272902
-0.28983637
0.011186941
-0.33072202
0.0096305363
-0.37718355
0.0080697345
-0.42963592
0.0065106396
-0.48898163
0.0049491911
-0.5560553
0.0033634726
-0.63202437
0.0016943893
-0.71797577
-0.81568203
0.017844853
-0.015793481
-0.017628502
0.018082371
-0.017951507
0.018342074
-0.020408999
0.018624507
-0.023208814
0.01893024
-0.026400664
0.019260368
-0.030042122
0.019617567
-0.034199982
0.020005743
-0.038951018
0.020418736
-0.044381522
0.020842639
-0.050590285
0.021208005
-0.057682542
0.021340635
-0.065773825
0.021527169
-0.075141473
0.021871638
-0.085839833
0.021708799
-0.097857932
0.021100991
-0.11195436
0.020429148
-0.12847749
0.019787656
-0.14729858
0.018964193
-0.16861402
0.017879743
-0.19302248
0.016673868
-0.22085061
0.015286742
-0.25239656
0.013769065
-0.28831916
0.012222517
-0.32917588
0.010594461
-0.37555595
0.008925216
-0.42796722
0.0072209771
-0.48727801
0.0055062045
-0.55434099
0.0037517144
-0.63027006
0.0018948922
-0.71611938
-0.81378587
0.016861084
-0.015996165
-0.016658435
0.017085735
-0.01817619
0.017333315
-0.0206566
0.017604363
-0.023479862
0.01789835
-0.026694611
0.018213004
-0.030356668
0.018543223
-0.034529992
0.018880884
-0.039288328
0.019218414
-0.04471853
0.019552184
-0.050923366
0.019894837
-0.05802443
0.020281442
-0.066159832
0.020579861
-0.07543978
0.02091835
-0.086179366
0.021472573
-0.098412958
0.021570208
-0.11204815
0.021034314
-0.12793842
0.020322464
-0.14658786
0.019616356
-0.16790955
0.018673356
-0.19207923
0.017528151
-0.21970502
0.016264353
-0.25113261
0.014759218
-0.28681421
0.013225475
-0.32764307
0.011561891
-0.37389315
0.0097915794
-0.42619756
0.0079566328
-0.48544365
0.0060810958
-0.55246584
0.0041502933
-0.6283393
0.0021113229
-0.71408064
-0.81167322
0.01638525
-0.016185763
-0.01619575
0.016595394
-0.018386451
0.016827825
-0.020889161
0.017083905
-0.023736087
0.017364885
-0.026975741
0.017671891
-0.030663817
0.018006171
-0.034864377
0.018368953
-0.039651133
0.018758709
-0.045108157
0.019166176
-0.051330474
0.019568246
-0.058425856
0.019930108
-0.066520769
0.020270096
-0.075778651
0.02040699
-0.086314714
0.020447236
-0.098452373
0.020855463
-0.11245959
0.021062481
-0.12814635
0.020627513
-0.14614912
0.019966846
-0.16724618
0.019246387
-0.19135625
0.018297195
-0.21875483
0.017119316
-0.24995487
0.015690707
-0.28538508
0.014152619
-0.32610551
0.012454949
-0.37219615
0.010616332
-0.42435942
0.0086730773
-0.48350086
0.0066622956
-0.55045559
0.004557013
-0.62623401
0.0023373007
-0.71186085
-0.80933462
0.015232286
-0.016360454
-0.01505758
0.015426949
-0.018581097
0.015642901
-0.021105097
0.015881358
-0.02397453
0.016143043
-0.027237411
0.016427865
-0.030948625
0.016734513
-0.035171003
0.017059944
-0.039976529
0.017400009
-0.045448156
0.017752068
-0.051682416
0.018117778
-0.058791378
0.018499305
-0.066902041
0.018875632
-0.076154705
0.01929514
-0.086734022
0.019634794
-0.098791009
0.019808572
-0.11263045
0.020279642
-0.12861727
0.020581924
-0.14645383
0.020173392
-0.16683456
0.019532761
-0.19071108
0.018719989
-0.21794116
0.017717789
-0.2489547
0.016464398
-0.28413205
0.01495446
-0.32459527
0.013260783
-0.3705027
0.011383486
-0.4224822
0.0093412683
-0.48145916
0.0072069271
-0.54832207
0.0049524891
-0.62397962
0.0025644158
-0.70947235
-0.80676915
0.014746582
-0.016519591
-0.014587383
0.014924063
-0.018758509
0.015121565
-0.021302517
0.015340684
-0.024193554
0.015582988
-0.027479602
0.015849975
-0.031215477
0.016143044
-0.035463908
0.01646345
-0.04029673
0.016811825
-0.045796272
0.017186507
-0.05205677
0.017581474
-0.059185937
0.017987951
-0.067308027
0.018400754
-0.076566936
0.01878643
-0.087119116
0.019161966
-0.099166149
0.019431338
-0.11289852
0.019384764
-0.12856847
0.01951708
-0.14658536
0.019697329
-0.16701461
0.01935343
-0.1903661
0.018647759
-0.21723338
0.017749554
-0.248055
0.016888758
-0.28327272
0.015591538
-0.32329882
0.013892891
-0.36880355
0.011989746
-0.42057859
0.009913023
-0.47938281
0.0076876536
-0.54609773
0.0053122281
-0.6216042
0.0027787752
-0.7069382
-0.80398978
0.013489453
-0.01666269
-0.01334622
0.01364971
-0.01891862
0.013828346
-0.021480987
0.014026737
-0.024391755
0.014246033
-0.027698678
0.014486971
-0.03145616
0.014749622
-0.035726264
0.015033057
-0.040579819
0.015334978
-0.046097782
0.015651638
-0.052372934
0.01597823
-0.059511923
0.016308301
-0.067637352
0.016633999
-0.076891731
0.016962245
-0.087446291
0.017278189
-0.09948088
0.017570937
-0.11319025
0.017840185
-0.12883597
0.018071777
-0.14681399
0.018395835
-0.16733827
0.01858278
-0.1905579
0.018267812
-0.21692323
0.017662842
-0.24744942
0.016908115
-0.28251917
0.015838295
-0.32223119
0.014239047
-0.36720221
0.01238491
-0.41872292
0.010283204
-0.47728018
0.0080274136
-0.54384257
0.0055961933
-0.61917266
0.002958765
-0.70430002
-0.80103101
0.013111337
-0.016786788
-0.012987222
0.013249616
-0.019056873
0.013403373
-0.021634713
0.013573879
-0.024562226
0.013762514
-0.027887274
0.013970882
-0.031664485
0.014200985
-0.035956319
0.014455454
-0.040834239
0.014737784
-0.046380065
0.015052441
-0.052687554
0.015404691
-0.059864155
0.015800017
-0.068032707
0.016239519
-0.077331369
0.016703498
-0.087910565
0.017168028
-0.099945787
0.017628852
-0.11365163
0.018047876
-0.12925642
0.018234463
-0.14700311
0.01816605
-0.16727142
0.018142809
-0.19053477
0.018026728
-0.21680588
0.017495979
-0.24691532
0.016588377
-0.28160726
0.015403646
-0.32104335
0.014012207
-0.36580941
0.012325522
-0.41703393
0.010387731
-0.47533983
0.0081765684
-0.54163077
0.0057436929
-0.61673901
0.0030641076
-0.70161958
-0.79796733
0.011478462
-0.016884161
-0.011381192
0.011587991
-0.019166522
0.011711098
-0.021757959
0.011849234
-0.024700523
0.012003868
-0.028042095
0.012176326
-0.031837159
0.012367399
-0.036147644
0.012576908
-0.041044037
0.012803174
-0.046606663
0.013042498
-0.052927253
0.013288546
-0.060110617
0.01353161
-0.068276207
0.013761951
-0.077562104
0.013980885
-0.088129776
0.014199356
-0.10016449
0.01441164
-0.1138641
0.014616836
-0.12946162
0.014869463
-0.14725579
0.015072636
-0.16747529
0.014980464
-0.19044186
0.015165704
-0.21698908
0.015369711
-0.24711983
0.015050567
-0.28128995
0.014155387
-0.3201438
0.013122872
-0.36477343
0.011760646
-0.4156688
0.010081379
-0.47365811
0.0080374792
-0.53958528
0.0057166765
-0.61441732
0.0030881157
-0.69898995
-0.7948796
0.010924001
-0.016953443
-0.010854607
0.011002331
-0.019244727
0.01109072
-0.021846208
0.011190302
-0.024799949
0.011302215
-0.028153838
0.011427571
-0.031962319
0.011567493
-0.036287338
0.011723094
-0.041199369
0.01189537
-0.046778612
0.012084918
-0.053116387
0.01229158
-0.060316764
0.012514178
-0.068498193
0.012748547
-0.07779575
0.012984924
-0.088365314
0.013204307
-0.10038292
0.013392662
-0.11405145
0.013534746
-0.12960279
0.013576687
-0.14729686
0.013635867
-0.1675343
0.013814223
-0.19062087
0.013716592
-0.21689248
0.013412623
-0.24682066
0.013073314
-0.28095382
0.01264158
-0.31971221
0.011945439
-0.3640772
0.010852902
-0.41457651
0.0094407698
-0.47224516
0.0076474372
-0.53779019
0.0054676299
-0.61223701
0.0029982192
-0.69651986
-0.79188128
0.010537152
-0.017012094
-0.010478415
0.010603284
-0.019310764
0.01067763
-0.02192045
0.010761052
-0.024883255
0.01085442
-0.02824708
0.010958597
-0.032066367
0.011074512
-0.036403125
0.011203109
-0.04132785
0.011345246
-0.046920659
0.011501425
-0.053272535
0.01167136
-0.06048674
0.011854202
-0.068681147
0.012047764
-0.077989516
0.012248645
-0.088566514
0.012457019
-0.10059178
0.012676284
-0.11427135
0.012911245
-0.12983849
0.013170558
-0.14755707
0.013336566
-0.16770077
0.013343268
-0.19062769
0.013197428
-0.21674605
0.012831107
-0.24645114
0.012204215
-0.28032535
0.011573944
-0.31908168
0.010776478
-0.36327901
0.0098010919
-0.41359935
0.008496566
-0.47094024
0.0068966098
-0.53618978
0.0049545507
-0.61029376
0.0027174162
-0.69428177
-0.78916299
0.0099358737
-0.017040161
-0.0099078048
0.0099668079
-0.019341691
0.010000253
-0.021953881
0.010036123
-0.0249191
0.01007427
-0.028285191
0.010114487
-0.032106529
0.010156414
-0.036444979
0.010199571
-0.04137091
0.010243476
-0.046964437
0.010288007
-0.053316904
0.010333905
-0.060532435
0.010382969
-0.068729959
0.010439565
-0.0780458
0.01050547
-0.08863205
0.010575287
-0.10066111
0.010637711
-0.11433313
0.010678097
-0.12987802
0.010680261
-0.14755801
0.010660498
-0.16767939
0.010630355
-0.19059548
0.010581962
-0.21669576
0.010583405
-0.2464504
0.010528852
-0.28026705
0.010125906
-0.31867857
0.0094195283
-0.36257521
0.0085060175
-0.41268874
0.0073679719
-0.4698025
0.0059744741
-0.53479234
0.0043021713
-0.60861856
0.0023231206
-0.69230066
-0.78683832
0.0095544889
-0.0095501659
0.009559511
0.0095658464
0.0095738643
0.0095839922
0.0095967177
0.0096125627
0.0096320249
0.0096554602
0.0096828561
0.0097135657
0.0097461571
0.0097792647
0.0098105421
0.0098376673
0.0098576765
0.0098657499
0.0098552289
0.0098130678
0.0097170034
0.0095425496
0.009251094
0.0088713987
0.0084665701
0.0079643695
0.0072744825
0.006352058
0.0051765755
0.0037364099
0.0020154326
0.011600508
-0.011408211
0.0091107395
-0.0093030905
0.013333982
-0.014654552
0.012921042
0.014635086
-0.017921063
0.016619906
0.015674979
-0.021533562
0.020493609
0.016586187
-0.025668504
0.024757233
0.017431124
-0.030440848
0.02959584
0.018215046
-0.035922822
0.035138844
0.018954839
-0.042184303
0.041444473
0.019652021
-0.049378704
0.048681504
0.02028363
-0.057619165
0.056987558
0.0208305
-0.067034952
0.066488102
0.021281032
-0.077784725
0.077334219
0.021625588
-0.090047828
0.089703288
0.021851799
-0.10400187
0.10377566
0.021941901
-0.1198248
0.11973469
0.021834787
-0.13754367
0.13765077
0.021465229
-0.15695799
0.15732752
0.020729248
-0.17757504
0.17831098
0.019560748
-0.19822353
0.19939201
0.018318924
-0.22000881
0.22125066
0.017195775
-0.24609392
0.24721707
0.016070666
-0.27661291
0.27773799
0.014878624
-0.31147672
0.31266871
0.013588034
-0.35106585
0.35235642
0.012184803
-0.39600958
0.39741287
0.010653883
-0.44725149
0.44878247
0.0089699693
-0.50563664
0.50732052
0.0071015529
-0.57215243
0.57402074
0.0050121254
-0.64785724
0.6499467
0.002660523
-0.73419879
0.73655046
-0.83252632
0.83518676
0.012747439
-0.012855268
-0.011300454
0.013731489
-0.015638668
0.014548468
-0.018738109
0.01531246
-0.022297629
0.016069456
-0.026425578
0.016818808
-0.031190271
0.017541531
-0.036645605
0.018231957
-0.042874771
0.018872199
-0.050018967
0.01944016
-0.058187126
0.019924704
-0.067519478
0.020318285
-0.078178286
0.020612586
-0.090342119
0.0207957
-0.10418499
0.020849401
-0.1198785
0.020705033
-0.13739931
0.020305343
-0.15655833
0.01953935
-0.17680909
0.018373122
-0.19705732
0.017203692
-0.21883939
0.016151183
-0.24504141
0.015087889
-0.27554964
0.013959872
-0.31034876
0.012740155
-0.34984616
0.011417066
-0.39468643
0.0099768446
-0.44581121
0.0083954761
-0.50405532
0.0066435863
-0.57040063
0.0046867566
-0.64590038
0.0024873153
-0.73199929
-0.83003918
0.01230179
-0.013663015
-0.011494111
0.013019315
-0.016356265
0.0137484
-0.019467271
0.014506377
-0.023055687
0.015268346
-0.027187624
0.01600472
-0.031926713
0.016700303
-0.037341244
0.017351544
-0.043526052
0.017939833
-0.050607277
0.018454066
-0.05870136
0.018887093
-0.067952492
0.019233447
-0.078524625
0.019485766
-0.090594435
0.019632799
-0.10433203
0.019655299
-0.11990101
0.019481507
-0.13722553
0.01906167
-0.15613852
0.018272795
-0.17602026
0.01712882
-0.19591337
0.016040637
-0.21775118
0.015055882
-0.24405664
0.014054668
-0.27454846
0.012993253
-0.3092874
0.011847907
-0.34870083
0.01060896
-0.39344741
0.009263973
-0.44446617
0.0077904836
-0.50258188
0.0061611744
-0.56877142
0.0043440739
-0.64408325
0.0023043826
-0.72995954
-0.82773499
0.011404194
-0.01439935
-0.010667951
0.012164289
-0.017116444
0.012932598
-0.020235666
0.01369277
-0.023815944
0.014428836
-0.02792377
0.015126593
-0.032624538
0.015778007
-0.037992714
0.016377547
-0.044125631
0.016911351
-0.051141102
0.017372038
-0.059162051
0.017754911
-0.068335357
0.018055939
-0.078825645
0.018268363
-0.090806862
0.018380992
-0.10444467
0.018368732
-0.11988877
0.018169373
-0.13702618
0.017738855
-0.15570803
0.016935493
-0.17521694
0.015827221
-0.19480511
0.014819611
-0.21674352
0.013901629
-0.24313866
0.012965292
-0.27361217
0.011974314
-0.30829649
0.010907805
-0.34763434
0.0097580146
-0.39229755
0.0085138299
-0.44322193
0.0071543291
-0.50122243
0.0056543236
-0.56727151
0.0039843907
-0.64241329
0.0021126233
-0.72808771
-0.82562252
0.010495441
-0.015185712
-0.0097092121
0.011276321
-0.017897426
0.012042155
-0.021001596
0.012784832
-0.024558708
0.013492621
-0.028631637
0.014153994
-0.033285976
0.014762045
-0.038600816
0.015310758
-0.044674381
0.01579166
-0.051622026
0.016200761
-0.059571156
0.016535617
-0.068670208
0.016793454
-0.07908348
0.016968017
-0.090981432
0.017047958
-0.10452462
0.01700297
-0.11984379
0.016784063
-0.13680729
0.016344999
-0.15526899
0.015533243
-0.17440522
0.014473233
-0.1937451
0.013547806
-0.21581806
0.012697409
-0.24228827
0.011828444
-0.27274325
0.010911137
-0.30737926
0.0099272011
-0.34665042
0.0088706753
-0.39124096
0.0077318227
-0.44208302
0.0064913418
-0.49998201
0.0051262596
-0.56590652
0.0036097745
-0.64089679
0.0019128811
-0.72639077
-0.82370977
0.0095537063
-0.015987001
-0.008752523
0.010335334
-0.018679148
0.011091044
-0.021757394
0.011811433
-0.025279177
0.012485235
-0.029305508
0.013104301
-0.033905099
0.01366397
-0.039160531
0.014160073
-0.045170519
0.014588339
-0.052050313
0.014947254
-0.059930079
0.015235957
-0.068958912
0.015452606
-0.079300132
0.015591429
-0.091120268
0.015641223
-0.10457443
0.015568187
-0.11977077
0.015337938
-0.13657706
0.014890335
-0.15482141
0.014073432
-0.17358834
0.013073668
-0.19274533
0.012229975
-0.21497432
0.011447186
-0.24150548
0.010647635
-0.27194375
0.0098068997
-0.30653859
0.0089089727
-0.34575251
0.0079495608
-0.39028148
0.0069203316
-0.44105374
0.0058036275
-0.49886537
0.004578754
-0.56468173
0.0032215841
-0.6395396
0.0017060681
-0.7248752
-0.82200382
0.0085830696
-0.01679634
-0.0077737894
0.0093599391
-0.019456097
0.010095991
-0.022493521
0.010782865
-0.025966117
0.011413701
-0.029936397
0.011984021
-0.034475462
0.012491183
-0.039667729
0.012933394
-0.045612758
0.013309331
-0.05242627
0.013619224
-0.060239983
0.013863362
-0.069203056
0.014040622
-0.079477401
0.014145885
-0.091225548
0.014168742
-0.10459731
0.01407448
-0.11967652
0.013838862
-0.13634145
0.013381393
-0.15436397
0.012564431
-0.1727714
0.011634899