/*--------------------------------*- C++ -*----------------------------------*\
| =========                 |                                                 |
| \\      /  F ield         | OpenFOAM: The Open Source CFD Toolbox           |
|  \\    /   O peration     | Version:  2406                                  |
|   \\  /    A nd           | Website:  www.openfoam.com                      |
|    \\/     M anipulation  |                                                 |
\*---------------------------------------------------------------------------*/
FoamFile
{
    version     2.0;
    format      ascii;
    arch        "LSB;label=32;scalar=64";
    class       volScalarField;
    location    "0.042";
    object      rho;
}
// * * * * * * * * * * * * * * * * * * * * * * * * * * * * * * * * * * * * * //

dimensions      [1 -3 0 0 0 0 0];

internalField   nonuniform List<scalar> 
8260
(
1.1999453
1.1990079
1.1984616
1.1977779
1.197135
1.1966496
1.1963546
1.196254
1.1963435
1.1966034
1.1970396
1.1976309
1.1983415
1.1991374
1.1999499
1.2007875
1.2011672
1.201231
1.2013333
1.2014907
1.2016505
1.2017914
1.2019115
1.2020161
1.2021054
1.2021816
1.2022469
1.2022996
1.2023434
1.2023697
1.202388
1.2015334
1.2007353
1.1999469
1.1990856
1.1983212
1.1977241
1.1973134
1.197102
1.1970768
1.1972295
1.1975652
1.1980683
1.1986986
1.1994321
1.2001536
1.2009135
1.2012177
1.2012812
1.201383
1.2015332
1.201685
1.201819
1.2019336
1.2020337
1.2021197
1.2021931
1.2022565
1.2023076
1.2023502
1.2023757
1.2023935
1.2024975
1.2017888
1.2009449
1.2000307
1.1992188
1.198563
1.1980805
1.197794
1.197694
1.1977532
1.1980117
1.1984453
1.199016
1.1997094
1.2003685
1.2010664
1.2012869
1.2013486
1.2014449
1.2015839
1.2017258
1.2018516
1.2019595
1.2020544
1.2021362
1.2022065
1.2022674
1.2023167
1.2023581
1.2023825
1.2023998
1.2032326
1.2025862
1.2017679
1.2008572
1.2000276
1.1993352
1.198799
1.1984421
1.1982682
1.1982621
1.1984526
1.1988222
1.1993399
1.1999962
1.2006025
1.2012296
1.2013731
1.2014265
1.2015159
1.2016415
1.201772
1.2018886
1.2019889
1.2020778
1.202155
1.2022217
1.2022799
1.2023271
1.2023669
1.2023903
1.2024069
1.2038299
1.2032449
1.2024843
1.2016135
1.2007967
1.2000933
1.199525
1.1991151
1.1988777
1.1988134
1.1989389
1.1992449
1.1997086
1.2003194
1.200868
1.2013982
1.2014775
1.2015165
1.2015974
1.2017072
1.2018247
1.2019307
1.2020224
1.2021044
1.2021764
1.202239
1.2022941
1.202339
1.202377
1.2023992
1.202415
1.2042793
1.20375
1.2030659
1.2022676
1.2014974
1.2008139
1.2002409
1.199803
1.1995211
1.1994066
1.1994734
1.1997186
1.2001293
1.2006856
1.201167
1.201571
1.2016014
1.2016208
1.2016904
1.201782
1.2018846
1.2019786
1.2020606
1.2021348
1.2022007
1.2022587
1.2023102
1.2023525
1.2023885
1.2024093
1.2024242
1.204583
1.2041068
1.2035042
1.2028035
1.2021103
1.2014762
1.2009265
1.2004871
1.2001827
1.200032
1.2000506
1.2002418
1.2006037
1.2010955
1.201495
1.2017504
1.2017423
1.2017425
1.2017963
1.2018671
1.2019527
1.202033
1.202104
1.2021694
1.2022285
1.2022812
1.2023286
1.2023678
1.2024015
1.2024208
1.2024346
1.2047634
1.2043453
1.2038352
1.2032418
1.2026418
1.2020784
1.2015759
1.2011594
1.2008548
1.200685
1.2006684
1.2008155
1.2011352
1.2015455
1.2018415
1.2019467
1.201898
1.2018836
1.2019159
1.2019637
1.2020299
1.2020944
1.2021532
1.2022088
1.20226
1.2023067
1.2023494
1.2023853
1.2024163
1.2024339
1.2024465
1.204879
1.2045049
1.2040848
1.2036028
1.2031069
1.2026301
1.2021937
1.2018207
1.2015362
1.2013645
1.2013268
1.201441
1.2017233
1.2020248
1.202196
1.202165
1.2020723
1.202045
1.2020505
1.2020731
1.202117
1.2021637
1.202209
1.2022535
1.2022958
1.2023358
1.2023731
1.2024052
1.2024332
1.2024488
1.2024599
1.2049578
1.2046552
1.2043042
1.2039243
1.2035377
1.2031565
1.2027976
1.2024818
1.2022326
1.2020735
1.2020276
1.202118
1.2023542
1.2025328
1.2025479
1.202394
1.2022724
1.2022265
1.2022006
1.2021962
1.2022149
1.2022419
1.2022719
1.2023039
1.2023363
1.2023689
1.2024001
1.2024278
1.2024524
1.2024659
1.2024752
1.2050113
1.2048609
1.2046209
1.2043334
1.2040228
1.2037152
1.2034249
1.2031666
1.2029586
1.2028223
1.2027811
1.202853
1.2030177
1.203046
1.2028669
1.2026346
1.2025038
1.2024264
1.2023665
1.2023329
1.2023244
1.2023302
1.2023427
1.2023606
1.2023822
1.2024066
1.202431
1.2024536
1.2024743
1.2024853
1.2024926
1.2051981
1.2051194
1.204982
1.2047743
1.2045438
1.2043153
1.204098
1.2039016
1.2037407
1.2036355
1.2036079
1.2036461
1.2036568
1.2034771
1.2031511
1.2029063
1.2027567
1.2026389
1.2025472
1.2024823
1.2024468
1.2024293
1.2024224
1.2024247
1.202434
1.2024494
1.2024665
1.2024831
1.2024992
1.2025075
1.2025126
1.2056187
1.2056895
1.205637
1.2054633
1.2052672
1.2050828
1.2049145
1.2047625
1.2046316
1.2045304
1.2044556
1.2043567
1.204129
1.2037703
1.2034453
1.2032037
1.203013
1.2028625
1.2027399
1.2026445
1.2025795
1.202539
1.2025122
1.2024971
1.2024927
1.2024979
1.2025069
1.2025167
1.2025275
1.2025326
1.2025356
1.20647
1.2063668
1.2062229
1.2060456
1.2058792
1.2057529
1.205653
1.2055459
1.2054123
1.2052442
1.205026
1.2047365
1.2043888
1.2040523
1.2037564
1.2034935
1.2032733
1.2030895
1.2029392
1.2028143
1.202722
1.2026583
1.2026115
1.2025785
1.2025595
1.2025524
1.2025523
1.2025547
1.2025594
1.202561
1.2025621
1.2067778
1.206839
1.2068728
1.2068781
1.2067947
1.2065996
1.2063694
1.2061331
1.2058702
1.205576
1.2052636
1.2049382
1.2046275
1.2043309
1.2040415
1.2037699
1.2035264
1.2033168
1.2031399
1.2029897
1.2028703
1.2027849
1.2027197
1.2026685
1.2026339
1.2026131
1.202603
1.2025972
1.2025953
1.2025929
1.2025925
1.2067772
1.2067037
1.2065894
1.2064464
1.2063397
1.2062854
1.2062423
1.2061961
1.2060634
1.2058103
1.205498
1.2051761
1.2048707
1.2045708
1.2042838
1.2040142
1.2037664
1.2035393
1.2033394
1.2031653
1.2030235
1.2029166
1.2028336
1.202766
1.2027151
1.2026801
1.2026586
1.2026442
1.2026352
1.2026285
1.2026271
1.20677
1.206713
1.2066378
1.2065473
1.2064501
1.2063382
1.2061828
1.2059762
1.2058012
1.2057136
1.2055946
1.2053731
1.2050848
1.2047837
1.2044924
1.2042215
1.2039742
1.2037468
1.2035348
1.2033422
1.2031797
1.2030515
1.2029519
1.202868
1.202802
1.2027531
1.2027196
1.2026959
1.2026795
1.2026681
1.2026661
1.2064859
1.2064362
1.2063755
1.2063076
1.2062316
1.2061456
1.2060502
1.2059445
1.2058205
1.2056574
1.2054927
1.2053876
1.2052352
1.2049819
1.2046897
1.204409
1.2041508
1.2039239
1.2037171
1.2035173
1.20334
1.2031917
1.203072
1.2029737
1.2028941
1.2028323
1.2027864
1.2027525
1.2027284
1.2027121
1.2027096
1.2062986
1.2062611
1.2062142
1.2061605
1.2060984
1.2060255
1.2059396
1.2058401
1.2057292
1.2056124
1.2054763
1.2052888
1.2051215
1.2050205
1.2048436
1.2045957
1.2043287
1.2040812
1.2038738
1.2036814
1.2034982
1.2033364
1.2031973
1.2030835
1.2029918
1.2029173
1.2028594
1.2028147
1.2027823
1.2027609
1.2027574
1.206016
1.2059838
1.2059443
1.2058999
1.2058501
1.2057939
1.2057308
1.2056595
1.2055778
1.2054814
1.2053726
1.2052639
1.2051224
1.2049451
1.2048493
1.2047294
1.204503
1.2042477
1.2040146
1.2038227
1.2036421
1.203478
1.203329
1.2031994
1.2030946
1.203008
1.2029382
1.2028827
1.2028415
1.2028149
1.2028095
1.2058123
1.2057891
1.2057601
1.2057273
1.2056896
1.2056459
1.2055948
1.2055351
1.2054659
1.2053873
1.205297
1.2051875
1.2050747
1.2049615
1.2047853
1.204656
1.2045707
1.2043832
1.20416
1.2039497
1.2037676
1.2036047
1.2034571
1.2033189
1.2032012
1.2031022
1.2030212
1.2029559
1.2029062
1.202874
1.2028657
1.2055485
1.2055288
1.2055047
1.2054779
1.2054478
1.2054137
1.2053751
1.2053314
1.2052818
1.2052249
1.20516
1.2050891
1.2050043
1.2049071
1.2048134
1.2046551
1.2044928
1.2044091
1.204268
1.204071
1.2038834
1.2037146
1.2035666
1.2034322
1.2033067
1.2031977
1.2031073
1.2030334
1.2029761
1.2029384
1.202926
1.2053471
1.2053333
1.205316
1.2052967
1.2052747
1.2052492
1.2052193
1.2051844
1.2051433
1.2050953
1.205039
1.2049718
1.2048956
1.2048088
1.2047114
1.2046268
1.2045119
1.2043905
1.2043157
1.2041687
1.2039872
1.2038185
1.2036564
1.203528
1.2034073
1.2032932
1.2031953
1.2031144
1.2030505
1.2030078
1.2029904
1.2051088
1.205097
1.2050827
1.2050668
1.205049
1.2050288
1.205006
1.2049802
1.2049511
1.2049183
1.2048811
1.2048393
1.2047908
1.2047337
1.2046647
1.2045832
1.2045127
1.2044069
1.2042686
1.2041833
1.2040625
1.2039082
1.2037448
1.2036145
1.2035018
1.2033871
1.2032854
1.2031979
1.2031289
1.2030815
1.203059
1.2049359
1.2049282
1.2049188
1.2049083
1.2048963
1.2048823
1.2048658
1.2048462
1.2048228
1.204795
1.2047618
1.2047224
1.2046768
1.2046255
1.2045697
1.204504
1.2044222
1.2043488
1.204273
1.2041707
1.2040945
1.2039829
1.2038334
1.2037084
1.2035903
1.2034769
1.2033739
1.2032833
1.2032101
1.2031587
1.2031314
1.2047302
1.2047232
1.2047147
1.2047053
1.2046946
1.2046825
1.2046686
1.204653
1.2046353
1.2046155
1.2045935
1.2045692
1.2045422
1.2045114
1.2044737
1.2044287
1.2043773
1.2043128
1.2042434
1.2041784
1.2040963
1.2040062
1.2038907
1.2037836
1.2036654
1.2035574
1.2034564
1.2033676
1.2032923
1.2032381
1.2032072
1.2045989
1.2045943
1.2045888
1.2045828
1.204576
1.2045684
1.2045597
1.2045497
1.2045383
1.2045251
1.2045097
1.2044914
1.2044693
1.2044421
1.2044096
1.2043721
1.2043286
1.204279
1.204213
1.2041496
1.2040768
1.2039713
1.2039084
1.203821
1.2037234
1.2036275
1.2035329
1.203448
1.2033743
1.2033184
1.2032853
1.2044497
1.2044464
1.2044424
1.2044381
1.2044332
1.2044277
1.2044212
1.2044136
1.2044047
1.2043942
1.2043821
1.2043679
1.2043514
1.2043324
1.2043105
1.2042839
1.2042518
1.2042151
1.2041776
1.2041259
1.2040741
1.2040353
1.2039683
1.2038625
1.2037764
1.2036918
1.2036058
1.2035251
1.2034543
1.2033978
1.2033633
1.2043607
1.2043585
1.2043559
1.2043529
1.2043495
1.2043454
1.2043406
1.2043349
1.2043281
1.2043199
1.20431
1.204298
1.2042837
1.2042666
1.2042465
1.2042235
1.2041976
1.2041676
1.204135
1.2040999
1.2040518
1.2040142
1.2039784
1.2039052
1.2038241
1.2037455
1.2036696
1.2035943
1.2035268
1.2034725
1.2034384
1.2042693
1.2042666
1.2042636
1.2042603
1.2042565
1.2042523
1.2042474
1.2042418
1.2042355
1.2042284
1.2042203
1.2042113
1.2042007
1.2041885
1.2041748
1.2041594
1.2041416
1.2041209
1.2040949
1.2040622
1.2040268
1.203976
1.2039272
1.2038986
1.2038489
1.2037855
1.2037186
1.2036528
1.2035916
1.2035408
1.2035095
1.2041477
1.2041468
1.2041457
1.2041445
1.2041432
1.2041418
1.2041402
1.2041383
1.2041359
1.2041332
1.2041298
1.2041256
1.2041207
1.2041147
1.2041072
1.2040979
1.2040865
1.2040719
1.2040543
1.2040335
1.2040088
1.2039807
1.2039461
1.2039008
1.2038509
1.2037987
1.2037421
1.2036838
1.203628
1.203581
1.203552
1.1883501
1.1886765
1.1890688
1.1894267
1.1897126
1.1899918
1.1903581
1.1908313
1.1913822
1.1920547
1.1928374
1.193712
1.1946638
1.1956681
1.1967013
1.1978135
1.1988045
1.1997854
1.2002555
1.2005319
1.200776
1.2010345
1.2012793
1.2014926
1.2016728
1.201821
1.2019417
1.2020367
1.2021115
1.2021602
1.2021923
1.189174
1.1894458
1.1895868
1.1897258
1.1898963
1.1901495
1.190531
1.1910412
1.1916524
1.192366
1.1931698
1.1940507
1.194996
1.1959779
1.1969824
1.1980458
1.199015
1.1998907
1.200267
1.2005568
1.200805
1.2010652
1.201306
1.2015147
1.2016908
1.2018357
1.201954
1.2020471
1.2021206
1.2021684
1.2021999
1.1889902
1.1890898
1.1891705
1.1893482
1.1896239
1.1899941
1.1904766
1.1910771
1.191754
1.192518
1.1933586
1.1942627
1.1952186
1.1961968
1.197197
1.1982252
1.1992014
1.1999829
1.2003055
1.2005923
1.2008412
1.2010996
1.2013347
1.2015382
1.2017099
1.2018512
1.2019668
1.2020579
1.20213
1.2021769
1.2022076
1.1885596
1.188688
1.1888406
1.1890941
1.1894427
1.1898872
1.19044
1.1910968
1.1918273
1.1926354
1.1935085
1.1944339
1.1954007
1.1963797
1.1973891
1.1983883
1.1993615
1.2000699
1.200356
1.2006283
1.2008776
1.2011335
1.201363
1.2015615
1.2017288
1.2018666
1.2019796
1.2020688
1.2021395
1.2021854
1.2022154
1.1879445
1.1881452
1.188388
1.1887432
1.1891987
1.189747
1.1903891
1.1911144
1.1919043
1.1927569
1.1936604
1.1946048
1.1955804
1.1965598
1.1975802
1.1985603
1.1995038
1.2001477
1.2004043
1.2006648
1.2009154
1.2011677
1.2013915
1.2015849
1.2017479
1.2018822
1.2019926
1.2020798
1.2021491
1.2021939
1.2022234
1.1871965
1.187503
1.1878783
1.1883706
1.1889533
1.189613
1.1903459
1.1911423
1.1919901
1.1928846
1.1938163
1.1947778
1.1957599
1.1967386
1.1977683
1.1987362
1.1996276
1.2002121
1.2004492
1.200702
1.2009539
1.2012018
1.2014199
1.2016083
1.2017669
1.2018979
1.2020057
1.2020909
1.2021588
1.2022026
1.2022315
1.1863033
1.1867886
1.1873453
1.1879978
1.1887167
1.1894895
1.1903128
1.19118
1.1920825
1.1930157
1.1939729
1.1949493
1.1959357
1.1969123
1.1979464
1.1989046
1.1997488
1.2002685
1.200492
1.2007406
1.200993
1.2012359
1.2014483
1.2016317
1.201786
1.2019136
1.2020188
1.2021021
1.2021685
1.2022113
1.2022396
1.1854216
1.1861095
1.1868507
1.1876586
1.1885084
1.1893886
1.1902976
1.1912311
1.1921831
1.1931506
1.1941298
1.1951184
1.1961069
1.1970831
1.1981153
1.1990579
1.1998724
1.2003225
1.200534
1.2007805
1.2010325
1.2012698
1.2014765
1.201655
1.2018051
1.2019293
1.202032
1.2021133
1.2021783
1.20222
1.2022477
1.1846444
1.1855174
1.1864193
1.18737
1.1883421
1.18932
1.1903064
1.1912988
1.1922937
1.1932901
1.1942875
1.1952855
1.1962746
1.1972627
1.19828
1.1991936
1.1999878
1.2003773
1.2005765
1.2008217
1.2010722
1.2013036
1.2015047
1.2016783
1.2018242
1.2019451
1.2020452
1.2021246
1.2021882
1.2022288
1.2022559
1.1839931
1.1850381
1.1860721
1.1871535
1.1882348
1.1892933
1.1903442
1.1913858
1.1924155
1.1934349
1.194446
1.1954505
1.1964407
1.197443
1.1984377
1.1993255
1.2000897
1.200432
1.2006201
1.200864
1.2011118
1.2013372
1.2015327
1.2017014
1.2018432
1.2019609
1.2020585
1.2021359
1.2021981
1.2022377
1.2022641
1.1834992
1.1846769
1.1858523
1.1870379
1.188199
1.1893153
1.1904167
1.1914948
1.1925496
1.193585
1.1946056
1.1956152
1.1966116
1.1976199
1.1985802
1.1994527
1.2001798
1.2004867
1.2006648
1.2009071
1.2011513
1.2013706
1.2015605
1.2017244
1.2018621
1.2019766
1.2020717
1.2021473
1.202208
1.2022466
1.2022724
1.1832465
1.1845214
1.1857801
1.187019
1.1882236
1.1893939
1.1905318
1.1916298
1.1926979
1.1937422
1.1947686
1.1957834
1.1967877
1.1977665
1.1987038
1.199576
1.2002628
1.2005406
1.2007105
1.2009509
1.2011905
1.2014038
1.2015882
1.2017473
1.201881
1.2019923
1.202085
1.2021587
1.202218
1.2022555
1.2022807
1.1832746
1.1845854
1.1858654
1.1871193
1.1883416
1.1895285
1.1906831
1.1917979
1.1928687
1.1939141
1.1949413
1.1959568
1.1969339
1.1978832
1.1988304
1.1996872
1.2003421
1.2005936
1.2007573
1.2009949
1.2012294
1.2014366
1.2016156
1.20177
1.2018997
1.202008
1.2020983
1.20217
1.202228
1.2022644
1.202289
1.183572
1.1848703
1.1861176
1.1873448
1.1885519
1.1897306
1.1908856
1.1920052
1.1930756
1.1941111
1.195122
1.1960997
1.1970575
1.1980068
1.1989477
1.1997897
1.200421
1.2006464
1.2008052
1.2010391
1.201268
1.2014691
1.2016427
1.2017925
1.2019183
1.2020236
1.2021115
1.2021814
1.202238
1.2022734
1.2022974
1.1839501
1.1852701
1.1864973
1.1876883
1.1888608
1.1900134
1.1911495
1.1922387
1.1932859
1.1942869
1.1952468
1.1962123
1.1971933
1.1981285
1.1990568
1.1998959
1.2004992
1.2006997
1.2008539
1.2010831
1.2013061
1.2015013
1.2016696
1.2018147
1.2019368
1.202039
1.2021246
1.2021928
1.202248
1.2022824
1.2023058
1.1843766
1.1856787
1.1869
1.1880752
1.189215
1.1903236
1.1914102
1.1924271
1.1934071
1.1943953
1.1953908
1.1963627
1.1973303
1.1982452
1.1991615
1.200001
1.2005753
1.2007544
1.2009031
1.2011267
1.2013436
1.201533
1.2016961
1.2018367
1.201955
1.2020544
1.2021377
1.2022041
1.202258
1.2022914
1.2023142
1.1853908
1.1864248
1.1874398
1.188483
1.1895377
1.1905732
1.1915637
1.1925705
1.193604
1.1945861
1.1955597
1.1965171
1.1974644
1.198357
1.1992616
1.2001003
1.2006482
1.2008098
1.200952
1.2011698
1.2013806
1.2015642
1.2017221
1.2018583
1.201973
1.2020696
1.2021506
1.2022153
1.2022679
1.2023004
1.2023226
1.1871449
1.1878927
1.188593
1.18936
1.1901995
1.1910776
1.1919611
1.1928967
1.1938674
1.1948009
1.1957355
1.1966688
1.1975951
1.1984649
1.1993569
1.200195
1.2007182
1.2008655
1.2010008
1.2012123
1.201417
1.2015949
1.2017478
1.2018797
1.2019909
1.2020846
1.2021635
1.2022265
1.2022779
1.2023094
1.202331
1.1887189
1.1893195
1.1898205
1.1903743
1.191012
1.1917142
1.192455
1.1932762
1.1941615
1.1950278
1.1959149
1.1968187
1.1977223
1.1985696
1.1994473
1.2002863
1.2007859
1.2009214
1.2010494
1.2012541
1.2014527
1.201625
1.2017729
1.2019006
1.2020084
1.2020994
1.2021762
1.2022375
1.2022877
1.2023184
1.2023395
1.1904502
1.190838
1.1911105
1.1914469
1.1918832
1.1924013
1.1929871
1.1936854
1.1944753
1.1952672
1.1960978
1.1969662
1.1978447
1.1986712
1.1995329
1.2003748
1.2008516
1.2009771
1.2010977
1.2012951
1.2014875
1.2016544
1.2017975
1.2019211
1.2020255
1.202114
1.2021887
1.2022485
1.2022975
1.2023274
1.2023479
1.1923611
1.1924986
1.192511
1.1926028
1.1928147
1.1931321
1.1935645
1.1941289
1.1948049
1.1955185
1.1962846
1.1971104
1.1979612
1.1987696
1.1996141
1.2004584
1.2009147
1.201031
1.201145
1.2013347
1.201521
1.2016827
1.2018212
1.2019409
1.2020423
1.2021282
1.202201
1.2022593
1.2023072
1.2023363
1.2023564
1.1944552
1.1943027
1.1940374
1.1938614
1.1938189
1.1939427
1.194224
1.1946222
1.1951617
1.1957928
1.1964862
1.1972598
1.1980773
1.1988679
1.1996919
1.200532
1.2009725
1.2010794
1.2011899
1.2013726
1.201553
1.20171
1.2018441
1.2019602
1.2020587
1.2021422
1.2022131
1.2022701
1.2023169
1.2023453
1.2023649
1.196818
1.1963848
1.1958655
1.1953999
1.1950954
1.1949835
1.1950371
1.1952502
1.1956249
1.196141
1.1967422
1.1974458
1.1982155
1.19898
1.1997728
1.2005939
1.2010211
1.2011201
1.2012331
1.2014096
1.2015844
1.2017368
1.2018667
1.2019793
1.2020749
1.2021561
1.2022252
1.2022808
1.2023266
1.2023543
1.2023734
1.1992253
1.1986947
1.1981207
1.1974466
1.1968364
1.1963981
1.1961574
1.1961226
1.1962865
1.1966164
1.1970886
1.1976954
1.1983963
1.1991239
1.1998733
1.2006628
1.2010709
1.2011648
1.2012807
1.2014496
1.2016178
1.2017649
1.2018902
1.2019988
1.2020914
1.2021701
1.2022373
1.2022914
1.2023361
1.2023631
1.2023818
1.1888144
1.1891558
1.1895265
1.1898795
1.190191
1.1904889
1.1908304
1.1912565
1.1917497
1.1923615
1.1930835
1.1939008
1.1947984
1.1957533
1.1967321
1.1977813
1.1987146
1.1996442
1.2001965
1.200484
1.2007383
1.2010019
1.2012523
1.2014705
1.2016549
1.2018064
1.2019297
1.2020266
1.2021028
1.2021525
1.2021855
1.1890008
1.1893875
1.1897546
1.1900764
1.1903658
1.1906591
1.1909904
1.1913635
1.1918263
1.192407
1.1930988
1.1938903
1.1947669
1.1957084
1.1966817
1.1977247
1.1986824
1.1995918
1.2001858
1.200468
1.200719
1.2009828
1.2012356
1.2014564
1.2016432
1.2017967
1.2019216
1.2020197
1.2020968
1.2021471
1.202179
1.1890366
1.1894013
1.1897828
1.1901344
1.1904498
1.1907555
1.1910894
1.1914598
1.1919155
1.1924768
1.1931448
1.1939122
1.1947667
1.1956907
1.1966541
1.1976827
1.1986513
1.1995619
1.2001734
1.2004589
1.200706
1.2009682
1.201222
1.2014443
1.2016328
1.2017877
1.2019138
1.2020129
1.2020907
1.2021416
1.2021721
1.1890645
1.1894057
1.1898088
1.1901881
1.1905305
1.1908571
1.1912006
1.1915808
1.1920331
1.1925771
1.1932211
1.1939626
1.1947918
1.1956935
1.1966412
1.1976469
1.1986163
1.1995265
1.2001528
1.2004467
1.2006917
1.2009527
1.2012076
1.2014316
1.2016217
1.2017781
1.2019054
1.2020057
1.2020842
1.2021357
1.2021633
1.189117
1.1894468
1.1898641
1.1902577
1.1906171
1.1909604
1.1913152
1.191704
1.1921535
1.1926832
1.1933057
1.1940222
1.1948258
1.1957038
1.196633
1.1976114
1.1985781
1.1994874
1.2001268
1.2004319
1.2006752
1.2009353
1.2011917
1.2014175
1.2016094
1.2017677
1.2018964
1.2019978
1.2020771
1.2021293
1.2021555
1.1891752
1.1894898
1.1899131
1.1903199
1.1906946
1.1910536
1.1914209
1.1918179
1.1922668
1.1927862
1.1933905
1.1940841
1.1948632
1.1957173
1.1966267
1.1975757
1.1985363
1.1994488
1.2000976
1.2004158
1.2006579
1.2009165
1.2011743
1.2014022
1.2015963
1.2017563
1.2018865
1.2019893
1.2020695
1.2021225
1.202149
1.1892302
1.1895204
1.1899446
1.1903654
1.1907577
1.1911343
1.1915161
1.1919228
1.1923738
1.1928865
1.1934758
1.1941487
1.1949042
1.1957344
1.1966229
1.1975427
1.198498
1.1994112
1.2000706
1.2003987
1.2006406
1.2008973
1.2011564
1.2013862
1.2015824
1.2017443
1.2018761
1.2019802
1.2020614
1.2021152
1.2021442
1.1892792
1.1895535
1.1899714
1.1904021
1.1908115
1.1912067
1.1916044
1.1920225
1.1924777
1.1929862
1.1935632
1.1942173
1.1949502
1.1957564
1.196623
1.1975181
1.1984649
1.1993695
1.2000479
1.2003819
1.2006236
1.2008777
1.2011379
1.2013695
1.2015678
1.2017317
1.2018651
1.2019706
1.2020528
1.2021075
1.2021346
1.1893195
1.1895877
1.1899991
1.1904371
1.1908623
1.1912755
1.1916896
1.1921197
1.1925805
1.193087
1.1936538
1.1942908
1.1950019
1.1957843
1.196628
1.1975033
1.1984297
1.1993207
1.2000252
1.2003664
1.2006072
1.200858
1.2011189
1.2013523
1.2015527
1.2017185
1.2018535
1.2019605
1.2020437
1.2020992
1.2021238
1.1893545
1.1896245
1.1900309
1.1904755
1.1909153
1.1913456
1.1917757
1.1922178
1.1926849
1.1931906
1.1937487
1.1943698
1.19506
1.1958185
1.1966386
1.1974949
1.1983953
1.1992728
1.1999986
1.2003519
1.2005913
1.2008382
1.2010995
1.2013345
1.2015369
1.2017046
1.2018413
1.2019498
1.2020341
1.2020905
1.2021146
1.1894015
1.189674
1.1900765
1.1905259
1.1909781
1.1914237
1.1918681
1.1923212
1.1927942
1.1932994
1.1938495
1.1944556
1.1951252
1.1958599
1.1966555
1.1974916
1.1983697
1.1992311
1.1999661
1.2003385
1.2005763
1.2008183
1.2010797
1.2013161
1.2015204
1.20169
1.2018284
1.2019384
1.2020238
1.2020811
1.2021059
1.189471
1.1897494
1.1901486
1.1905999
1.1910605
1.1915178
1.1919737
1.1924354
1.1929126
1.1934162
1.193958
1.1945493
1.1951984
1.195909
1.1966793
1.1974935
1.1983504
1.1991956
1.1999325
1.2003267
1.2005624
1.2007986
1.2010596
1.2012972
1.2015032
1.2016747
1.2018148
1.2019264
1.202013
1.2020713
1.202097
1.1895811
1.1898675
1.1902624
1.1907108
1.1911744
1.191638
1.1921005
1.1925668
1.193045
1.1935447
1.1940768
1.1946525
1.1952807
1.1959666
1.1967106
1.1975014
1.1983356
1.1991583
1.1998967
1.2003183
1.20055
1.2007794
1.2010394
1.2012778
1.2014855
1.2016588
1.2018005
1.2019138
1.2020015
1.2020608
1.2020875
1.1897576
1.1900352
1.1904258
1.1908692
1.19133
1.1917935
1.1922564
1.1927219
1.1931966
1.1936888
1.1942088
1.1947672
1.1953734
1.1960337
1.1967504
1.1975159
1.1983255
1.1991249
1.1998582
1.2003102
1.2005392
1.2007609
1.2010192
1.2012581
1.2014673
1.2016422
1.2017856
1.2019004
1.2019893
1.2020497
1.2020772
1.1900215
1.1903074
1.1906788
1.1911
1.1915444
1.1919964
1.1924503
1.1929073
1.1933722
1.1938523
1.1943566
1.1948953
1.1954778
1.1961113
1.1967993
1.1975376
1.1983206
1.1990968
1.1998215
1.2003011
1.2005302
1.2007435
1.2009993
1.2012382
1.2014485
1.2016251
1.2017699
1.2018864
1.2019765
1.2020379
1.2020661
1.1903619
1.1906445
1.1909966
1.1913934
1.1918155
1.1922485
1.1926857
1.1931267
1.1935754
1.194038
1.1945225
1.1950384
1.195595
1.1962001
1.1968579
1.1975669
1.19832
1.1990707
1.1997866
1.2002929
1.2005231
1.2007275
1.2009799
1.2012183
1.2014295
1.2016073
1.2017536
1.2018716
1.201963
1.2020255
1.2020543
1.1907996
1.1910547
1.1913793
1.1917469
1.1921409
1.1925484
1.1929621
1.1933807
1.1938072
1.1942471
1.1947077
1.1951976
1.195726
1.1963008
1.1969269
1.197604
1.1983213
1.1990435
1.1997577
1.2002872
1.2005177
1.2007133
1.2009612
1.2011985
1.2014102
1.2015891
1.2017367
1.2018562
1.2019488
1.2020123
1.2020418
1.1912931
1.1915214
1.1918152
1.1921499
1.192512
1.1928895
1.1932748
1.1936662
1.1940658
1.1944788
1.1949118
1.195373
1.1958711
1.1964137
1.1970065
1.1976494
1.1983276
1.1990256
1.1997423
1.2002842
1.200515
1.2007017
1.2009436
1.201179
1.2013907
1.2015704
1.2017191
1.2018401
1.2019339
1.2019984
1.2020286
1.1918243
1.1920258
1.1922855
1.1925844
1.1929124
1.193258
1.1936132
1.1939751
1.1943456
1.1947293
1.1951326
1.1955632
1.1960294
1.1965388
1.1970972
1.1977051
1.1983501
1.1990265
1.1997346
1.2002786
1.2005145
1.2006928
1.2009271
1.2011602
1.2013714
1.2015515
1.2017011
1.2018233
1.2019183
1.2019838
1.2020148
1.1923609
1.1925334
1.1927596
1.1930241
1.1933193
1.1936346
1.1939613
1.1942953
1.1946376
1.1949922
1.1953657
1.1957654
1.1961994
1.1966753
1.197199
1.1977721
1.1983863
1.1990345
1.1997121
1.2002698
1.2005196
1.2006876
1.2009127
1.2011423
1.2013522
1.2015322
1.2016824
1.2018058
1.201902
1.2019685
1.2020002
1.1928778
1.1930241
1.1932186
1.1934502
1.1937144
1.1940022
1.1943037
1.1946134
1.1949307
1.1952593
1.195605
1.1959754
1.1963783
1.1968214
1.1973109
1.1978493
1.1984318
1.1990499
1.1996955
1.2002614
1.2005305
1.2006865
1.2008992
1.2011249
1.2013336
1.2015131
1.2016636
1.2017878
1.201885
1.2019524
1.2019848
1.1933577
1.1934803
1.1936452
1.1938458
1.1940811
1.194344
1.1946246
1.1949152
1.1952132
1.1955209
1.1958434
1.196188
1.1965626
1.196975
1.1974316
1.1979361
1.1984859
1.1990739
1.1996918
1.2002493
1.2005416
1.2006892
1.2008897
1.2011103
1.2013159
1.2014939
1.2016443
1.2017692
1.2018673
1.2019356
1.2019687
1.1937855
1.1938932
1.1940326
1.194205
1.1944131
1.1946531
1.1949157
1.1951917
1.1954761
1.1957691
1.1960742
1.1963981
1.1967487
1.1971336
1.1975597
1.1980314
1.1985486
1.1991058
1.1996945
1.2002455
1.2005609
1.2006989
1.200882
1.2010954
1.2012982
1.2014752
1.2016252
1.2017502
1.201849
1.2019181
1.2019517
1.1941461
1.1942339
1.1943624
1.1945189
1.1947063
1.1949272
1.1951748
1.1954398
1.1957154
1.1959992
1.196293
1.196602
1.1969333
1.1972947
1.1976933
1.1981343
1.1986195
1.1991448
1.1996979
1.200229
1.2005798
1.2007114
1.2008789
1.2010846
1.2012833
1.2014569
1.2016058
1.2017307
1.2018302
1.2018999
1.201934
1.1944792
1.194551
1.1946522
1.1947872
1.1949591
1.1951656
1.1954017
1.1956593
1.1959303
1.19621
1.1964978
1.1967972
1.1971143
1.1974564
1.1978311
1.1982439
1.1986984
1.1991908
1.1997091
1.2002325
1.2006079
1.2007369
1.2008803
1.2010765
1.2012672
1.2014388
1.2015869
1.2017112
1.2018108
1.201881
1.2019156
1.1947562
1.1948234
1.1949178
1.1950405
1.1951957
1.1953869
1.1956128
1.1958636
1.1961305
1.1964075
1.1966919
1.1969852
1.1972919
1.1976185
1.1979722
1.1983595
1.1987845
1.1992463
1.1997368
1.2002446
1.200629
1.2007594
1.2008872
1.2010704
1.2012545
1.2014228
1.2015683
1.2016915
1.201791
1.2018616
1.2018965
1.1950248
1.1950859
1.1951714
1.1952853
1.1954348
1.1956146
1.1958244
1.1960664
1.196328
1.1966012
1.1968821
1.1971702
1.1974682
1.1977814
1.1981164
1.1984803
1.1988781
1.1993111
1.199775
1.2002613
1.2006511
1.2007721
1.2008978
1.2010729
1.201246
1.2014057
1.2015498
1.2016719
1.2017709
1.2018415
1.2018767
1.1953162
1.1953742
1.1954537
1.1955575
1.1956918
1.1958591
1.1960589
1.1962879
1.1965385
1.1968033
1.1970771
1.1973578
1.1976464
1.1979466
1.1982643
1.1986062
1.1989779
1.1993827
1.1998189
1.2002797
1.200672
1.2008029
1.2009198
1.2010727
1.2012324
1.2013921
1.201533
1.2016527
1.2017506
1.2018211
1.2018564
1.1956422
1.1956964
1.1957694
1.1958633
1.1959848
1.1961388
1.1963247
1.1965366
1.1967707
1.1970215
1.1972834
1.197553
1.1978297
1.1981159
1.1984161
1.1987364
1.199083
1.1994602
1.1998688
1.2003057
1.2006971
1.2008429
1.2009319
1.2010731
1.2012305
1.2013815
1.2015154
1.2016334
1.2017305
1.2018004
1.2018356
1.1960116
1.196061
1.1961269
1.1962101
1.1963144
1.1964493
1.1966168
1.1968085
1.1970232
1.1972563
1.1975022
1.197757
1.198019
1.1982893
1.1985711
1.1988699
1.1991919
1.1995421
1.1999227
1.2003323
1.2007186
1.2008763
1.2009493
1.2010862
1.201227
1.2013657
1.2015008
1.2016155
1.2017101
1.2017794
1.2018145
1.19641
1.1964532
1.1965101
1.1965811
1.1966744
1.1967933
1.1969354
1.1971026
1.1972936
1.1975048
1.197731
1.1979677
1.1982124
1.1984649
1.1987275
1.1990048
1.1993026
1.1996265
1.1999797
1.2003618
1.2007379
1.200919
1.2009796
1.2010912
1.2012248
1.2013615
1.2014882
1.2015972
1.2016905
1.2017587
1.2017933
1.1968288
1.1968635
1.1969118
1.1969745
1.1970533
1.19715
1.1972681
1.1974097
1.1975744
1.1977599
1.1979627
1.1981786
1.1984042
1.198638
1.1988813
1.1991376
1.1994124
1.1997114
1.2000389
1.2003958
1.2007601
1.2009637
1.2010061
1.2011026
1.2012349
1.2013562
1.2014731
1.2015806
1.2016711
1.2017378
1.2017721
1.1972619
1.1972914
1.19733
1.1973747
1.1974328
1.1975074
1.1976009
1.1977153
1.1978517
1.1980097
1.198187
1.1983801
1.1985857
1.1988011
1.1990261
1.1992632
1.1995171
1.1997934
1.2000974
1.2004313
1.2007848
1.2010025
1.2010396
1.2011269
1.2012375
1.2013523
1.2014656
1.2015653
1.2016524
1.2017178
1.2017512
1.1976688
1.1976908
1.1977284
1.1977714
1.1978159
1.1978701
1.1979388
1.1980246
1.19813
1.1982566
1.198404
1.1985705
1.1987532
1.1989492
1.1991568
1.1993768
1.1996124
1.1998689
1.2001516
1.2004641
1.2008024
1.2010366
1.2010774
1.2011459
1.2012447
1.2013569
1.2014585
1.2015513
1.2016357
1.2016981
1.2017309
1.1980036
1.1980138
1.1980307
1.1980642
1.1981147
1.198175
1.1982372
1.198303
1.1983836
1.198483
1.1986027
1.1987429
1.1989024
1.1990788
1.1992697
1.1994743
1.1996947
1.1999348
1.2001996
1.2004932
1.200815
1.2010713
1.201117
1.2011714
1.2012638
1.2013576
1.201451
1.2015405
1.2016188
1.2016794
1.2017111
1.198275
1.1982865
1.1983012
1.1983172
1.198336
1.1983625
1.1984081
1.1984758
1.198559
1.1986515
1.1987549
1.1988772
1.1990191
1.19918
1.199358
1.1995516
1.1997613
1.1999897
1.200241
1.2005194
1.2008264
1.2010987
1.201158
1.201201
1.2012763
1.2013583
1.2014508
1.2015343
1.2016061
1.2016626
1.2016926
1.1984289
1.1984465
1.1984674
1.1984905
1.1985152
1.1985418
1.1985724
1.1986108
1.1986627
1.1987383
1.1988395
1.1989572
1.1990911
1.1992444
1.1994165
1.1996056
1.199811
1.2000335
1.2002761
1.2005431
1.2008377
1.2011213
1.2012008
1.2012317
1.2012937
1.2013718
1.2014518
1.201525
1.2015935
1.2016462
1.2016746
1.1984455
1.1984663
1.1984899
1.1985168
1.1985479
1.1985841
1.1986265
1.1986762
1.198735
1.1988055
1.1988922
1.1990006
1.1991326
1.1992852
1.1994565
1.1996448
1.199849
1.200069
1.2003065
1.200565
1.2008491
1.2011377
1.201243
1.201265
1.2013168
1.2013837
1.2014518
1.2015203
1.2015828
1.2016327
1.2016593
1.1984443
1.1984654
1.1984889
1.1985156
1.1985473
1.198585
1.1986297
1.1986834
1.1987489
1.1988286
1.198924
1.199035
1.1991659
1.1993197
1.1994921
1.1996805
1.1998836
1.2001015
1.2003349
1.2005866
1.2008617
1.2011548
1.2012822
1.2012985
1.2013406
1.2013952
1.2014583
1.2015218
1.2015759
1.2016211
1.2016448
1.1985107
1.1985284
1.1985483
1.1985713
1.1985992
1.1986334
1.1986757
1.1987282
1.1987925
1.198868
1.1989572
1.19907
1.1992071
1.1993621
1.1995338
1.199721
1.199922
1.2001362
1.2003645
1.2006091
1.2008756
1.2011653
1.2013191
1.201333
1.2013664
1.2014119
1.2014677
1.2015231
1.2015704
1.20161