/*--------------------------------*- C++ -*----------------------------------*\
| =========                 |                                                 |
| \\      /  F ield         | OpenFOAM: The Open Source CFD Toolbox           |
|  \\    /   O peration     | Version:  2406                                  |
|   \\  /    A nd           | Website:  www.openfoam.com                      |
|    \\/     M anipulation  |                                                 |
\*---------------------------------------------------------------------------*/
FoamFile
{
    version     2.0;
    format      ascii;
    arch        "LSB;label=32;scalar=64";
    class       volScalarField;
    location    "0.08";
    object      T;
}
// * * * * * * * * * * * * * * * * * * * * * * * * * * * * * * * * * * * * * //

dimensions      [0 0 0 1 0 0 0];

internalField   nonuniform List<scalar> 
2065
(
292.31188
292.31873
292.33181
292.35584
292.38905
292.42927
292.474
292.52128
292.56937
292.61622
292.66001
292.69963
292.73433
292.76353
292.7872
292.80546
292.81847
292.82662
292.83027
292.82963
292.82469
292.8158
292.80332
292.78756
292.76965
292.75388
292.7511
292.75855
292.7892
292.85875
293.14082
292.40829
292.40795
292.41493
292.43066
292.45381
292.48348
292.51831
292.55673
292.59704
292.63739
292.676
292.71156
292.74318
292.77008
292.79206
292.80909
292.82121
292.82873
292.83192
292.83096
292.8258
292.81678
292.80423
292.7885
292.77072
292.75515
292.7532
292.76131
292.79159
292.86079
293.14095
292.50771
292.50224
292.50254
292.50978
292.52324
292.54269
292.56751
292.59659
292.62854
292.66175
292.6945
292.72547
292.75351
292.77773
292.79774
292.81334
292.82444
292.83122
292.83389
292.83255
292.82715
292.81797
292.80532
292.7896
292.77192
292.75656
292.75552
292.7644
292.7942
292.863
293.14123
292.60598
292.59608
292.59026
292.58984
292.59465
292.60479
292.62011
292.64001
292.66347
292.6892
292.71567
292.74152
292.76554
292.78672
292.80445
292.81837
292.82827
292.83418
292.83621
292.83443
292.82873
292.81935
292.80658
292.79088
292.7733
292.75818
292.75813
292.76787
292.79703
292.86559
293.14214
292.7004
292.68699
292.67621
292.66938
292.66672
292.6686
292.67522
292.6864
292.70154
292.71967
292.73956
292.75991
292.7795
292.79722
292.81235
292.82433
292.8328
292.83768
292.83896
292.83665
292.83058
292.82097
292.80805
292.79234
292.77487
292.76005
292.76109
292.77176
292.80013
292.86872
293.14351
292.78942
292.77352
292.75907
292.74721
292.73841
292.73322
292.73211
292.73526
292.74244
292.75307
292.76621
292.78076
292.79554
292.80944
292.82161
292.83134
292.83817
292.84183
292.84223
292.83927
292.83277
292.82286
292.80976
292.79403
292.77667
292.76221
292.76444
292.77614
292.80352
292.87246
293.14529
292.8713
292.854
292.83716
292.8217
292.80821
292.79733
292.7897
292.78576
292.78563
292.78908
292.79553
292.80411
292.8138
292.82355
292.83241
292.8396
292.84451
292.84675
292.8461
292.84237
292.83535
292.82508
292.81176
292.79599
292.77876
292.76474
292.76828
292.78104
292.80722
292.8768
293.14752
292.94458
292.92685
292.90876
292.89108
292.87438
292.85932
292.84658
292.83676
292.83026
292.82716
292.82722
292.82988
292.83433
292.83965
292.84491
292.84925
292.85197
292.85257
292.85069
292.84606
292.8384
292.8277
292.8141
292.79827
292.78116
292.76769
292.77271
292.78653
292.81125
292.88158
293.15013
293.00833
292.99066
292.97234
292.95375
292.9353
292.91757
292.90124
292.88695
292.87525
292.8665
292.86077
292.85779
292.85706
292.85782
292.85923
292.86045
292.86072
292.85943
292.85613
292.85043
292.84201
292.83079
292.81684
292.80092
292.78394
292.77112
292.77787
292.79265
292.81561
292.88654
293.15305
293.06197
293.04504
293.02731
293.00885
292.98985
292.97081
292.9523
292.93497
292.91942
292.90615
292.89547
292.88742
292.88176
292.87799
292.87544
292.87333
292.87091
292.8675
292.86255
292.85562
292.8463
292.83444
292.82008
292.804
292.78716
292.7751
292.78385
292.79943
292.82028
292.89137
293.15645
293.10636
293.09054
293.07367
293.05592
293.03731
293.01808
292.99867
292.97965
292.96159
292.94504
292.93046
292.91811
292.90804
292.89999
292.89351
292.88796
292.88265
292.87691
292.87012
292.86176
292.85138
292.83876
292.82389
292.80761
292.79091
292.77973
292.79078
292.80692
292.82529
292.89586
293.1606
293.14136
293.12724
293.11182
293.09521
293.07756
293.05895
293.03964
293.02007
293.00072
292.98213
292.9648
292.94913
292.93536
292.92349
292.91329
292.90434
292.89605
292.8878
292.87897
292.86899
292.85739
292.84387
292.8284
292.81183
292.79527
292.78512
292.79877
292.81514
292.83071
292.90003
293.16556
293.16809
293.15563
293.14191
293.12687
293.11058
293.09318
293.07476
293.05558
293.03602
293.01653
292.99759
292.97965
292.96306
292.94802
292.93452
292.92235
292.9111
292.90025
292.88923
292.87747
292.86447
292.84991
292.83372
292.81678
292.80037
292.79146
292.80785
292.82414
292.83672
292.90412
293.1708
293.18782
293.17695
293.1649
293.15161
293.13698
293.12107
293.10405
293.08596
293.06703
293.04761
293.02808
293.00889
292.99042
292.973
292.95679
292.94178
292.92774
292.91431
292.90101
292.88733
292.87278
292.85703
292.84
292.82262
292.80637
292.79906
292.81815
292.83398
292.84375
292.90853
293.17548
293.20202
293.1926
293.1821
293.17045
293.15757
293.14343
293.12804
293.11145
293.09371
293.07504
293.05575
293.0362
293.01678
292.99782
292.9796
292.96226
292.94576
292.9299
292.91434
292.89868
292.88246
292.86538
292.8474
292.8295
292.8135
292.80837
292.83013
292.84464
292.85243
292.91339
293.17923
293.21237
293.20424
293.19514
293.18498
293.17365
293.16104
293.14717
293.13215
293.11596
293.09859
293.0802
293.06107
293.04151
293.02185
293.00238
292.98335
292.96485
292.94685
292.92918
292.91155
292.89361
292.87512
292.8561
292.83764
292.82209
292.82002
292.84376
292.85592
292.86317
292.91852
293.18528
293.21949
293.21247
293.2046
293.19578
293.1859
293.17488
293.16258
293.14895
293.13414
293.11829
293.1013
293.08319
293.06417
293.04452
293.02454
293.00449
292.98457
292.96487
292.94536
292.92589
292.90627
292.88635
292.86626
292.84728
292.83264
292.83473
292.8587
292.86724
292.87482
292.92362
293.19817
293.22375
293.21771
293.21091
293.20328
293.19471
293.1851
293.17439
293.16246
293.1492
293.13465
293.119
293.10223
293.08429
293.06529
293.04546
293.02507
293.00435
292.98349
292.96255
292.94154
292.9204
292.89914
292.87807
292.85875
292.84598
292.85326
292.87417
292.87785
292.885
292.92829
293.22785
293.22513
293.22001
293.21423
293.20772
293.20037
293.1921
293.1828
293.17239
293.16075
293.14774
293.13329
293.11764
293.10101
293.08327
293.06431
293.04429
293.02347
293.00206
292.98024
292.95812
292.93579
292.91344
292.89164
292.87262
292.8634
292.87534
292.88892
292.88743
292.89193
292.93318
293.24561
293.22217
293.21792
293.2131
293.20765
293.20148
293.1945
293.18661
293.17772
293.16774
293.15657
293.14409
293.13008
293.1145
293.09776
293.08006
293.06116
293.04098
293.01974
292.99768
292.97503
292.95202
292.92905
292.90715
292.88987
292.88699
292.8985
292.90212
292.8964
292.89752
292.93963
293.24205
293.21355
293.21017
293.20632
293.20194
293.19695
293.19126
293.1848
293.17744
293.1691
293.15965
293.149
293.13706
293.12367
293.10862
293.09208
293.07445
293.05554
293.03521
293.01368
292.99125
292.96833
292.94566
292.92533
292.91301
292.91612
292.91923
292.91398
292.90574
292.90392
292.94602
293.25143
293.19651
293.19406
293.19125
293.18803
293.18432
293.18005
293.17514
293.16949
293.16299
293.15551
293.14693
293.1371
293.12589
293.11309
293.09844
293.08208
293.06465
293.04605
293.02607
293.00513
292.98398
292.96395
292.94874
292.94343
292.94223
292.93505
292.92543
292.91629
292.91264
292.95199
293.25831
293.16762
293.16619
293.16451
293.16254
293.16022
293.15748
293.15425
293.15044
293.14594
293.14065
293.13443
293.12716
293.11869
293.10886
293.09745
293.08385
293.06775
293.05047
293.03323
293.01599
292.99957
292.9859
292.97676
292.96989
292.9595
292.94792
292.93733
292.92784
292.9234
292.95693
293.22678
293.12127
293.12098
293.12057
293.11999
293.11922
293.11819
293.11684
293.1151
293.1129
293.11012
293.10668
293.10248
293.09742
293.09147
293.08465
293.07712
293.06857
293.05749
293.04321
293.02835
293.01555
293.00471
292.99502
292.98387
292.97148
292.96005
292.94948
292.9396
292.93376
292.96382
293.21053
293.07418
293.07435
293.0745
293.07461
293.07465
293.07461
293.07445
293.07413
293.07361
293.07281
293.07165
293.07005
293.06788
293.06506
293.06152
293.05733
293.05278
293.04859
293.04463
293.0381
293.0269
293.01401
293.0034
292.99369
292.98285
292.97214
292.96169
292.95111
292.94314
292.97182
293.16956
293.05362
293.05365
293.05367
293.05369
293.05368
293.05365
293.05356
293.05341
293.05316
293.05276
293.05216
293.0513
293.0501
293.04846
293.04629
293.04348
293.03994
293.03575
293.03123
293.02739
293.02486
293.01965
293.01084
293.00254
292.9936
292.98408
292.97438
292.96363
292.95392
292.9794
293.17721
293.04102
293.04089
293.04073
293.04053
293.04029
293.03998
293.0396
293.03914
293.03858
293.03791
293.03712
293.0362
293.03515
293.03397
293.03267
293.03125
293.02966
293.02793
293.02611
293.02365
293.02025
293.01807
293.01446
293.00837
293.00225
292.99538
292.98821
292.97987
292.97127
292.98943
293.2144
293.01711
293.01696
293.01679
293.0166
293.01637
293.01611
293.01582
293.01548
293.01509
293.01465
293.01417
293.01362
293.01302
293.01237
293.0117
293.01104
293.01039
293.00981
293.00929
293.00908
293.00947
293.00858
293.00689
293.00632
293.00508
293.00365
293.00248
293.00082
292.9977
293.00847
293.15903
292.96415
292.96454
292.96497
292.96546
292.966
292.9666
292.96727
292.968
292.9688
292.96967
292.97061
292.97161
292.97269
292.97387
292.97514
292.97647
292.97787
292.97936
292.98093
292.98274
292.98487
292.98913
292.9958
293.00104
293.00466
293.00933
293.01444
293.01939
293.0218
293.03833
293.22549
292.93402
292.93466
292.9354
292.93627
292.93728
292.93847
292.93984
292.94142
292.94324
292.94528
292.94755
292.95003
292.95265
292.9554
292.95826
292.96134
292.96477
292.96868
292.97318
292.97802
292.98285
292.98821
292.9946
293
293.0048
293.01197
293.01913
293.02722
293.03462
293.03944
293.16595
292.99862
292.99877
292.99896
292.99921
292.99952
292.99992
293.00042
293.00103
293.00176
293.00261
293.00357
293.00463
293.00577
293.00696
293.00817
293.00939
293.01055
293.01156
293.01238
293.01315
293.01405
293.0151
293.0189
293.01797
293.01745
293.01905
293.01752
293.01783
293.03129
293.02325
293.01097
293.69055
293.5761
293.46506
293.35796
293.25689
293.16363
293.08078
293.01044
292.95301
292.9088
292.87689
292.85566
292.84298
292.83661
292.83444
292.83414
292.83392
292.83283
292.82982
292.82418
292.81548
292.80342
292.78737
292.76713
292.74349
292.71721
292.68794
292.6788
292.71154
292.83543
293.08422
293.5721
293.45454
293.34876
293.25061
293.16006
293.07882
293.00886
292.95105
292.90537
292.87173
292.84882
292.83492
292.82798
292.826
292.82695
292.82875
292.83001
292.82997
292.82766
292.82249
292.81416
292.80241
292.78663
292.76672
292.74345
292.71788
292.68961
292.68146
292.71465
292.83708
293.08408
293.46006
293.34988
293.25094
293.15969
293.07741
293.00602
292.9466
292.8993
292.86384
292.83937
292.8242
292.81664
292.81476
292.81657
292.82012
292.82379
292.82642
292.82736
292.82568
292.82097
292.813
292.80155
292.78604
292.76645
292.74354
292.71868
292.69142
292.68422
292.71779
292.83855
293.08382
293.3313
293.23235
293.14348
293.063
292.99257
292.93354
292.88626
292.85042
292.82529
292.80969
292.80184
292.80026
292.80296
292.80804
292.81395
292.81933
292.82323
292.82504
292.82391
292.81964
292.812
292.80083
292.78559
292.76631
292.74376
292.71961
292.69338
292.68707
292.72096
292.83981
293.08356
293.19198
293.10613
293.0304
292.96397
292.90788
292.86266
292.82828
292.80415
292.7892
292.78222
292.78147
292.78547
292.79223
292.80029
292.80837
292.81535
292.82043
292.82297
292.82236
292.81849
292.81117
292.80026
292.78528
292.7663
292.7441
292.72068
292.6955
292.69002
292.72418
292.84085
293.08337
293.03666
292.96989
292.9129
292.86415
292.82443
292.79401
292.77301
292.76071
292.75568
292.75709
292.76299
292.77195
292.78247
292.79329
292.80337
292.81188
292.81798
292.82114
292.82102
292.81753
292.81049
292.79983
292.7851
292.76641
292.74458
292.72188
292.69777
292.69306
292.72745
292.84166
293.08341
292.87526
292.83208
292.79622
292.76622
292.74359
292.72842
292.7209
292.72041
292.72504
292.73411
292.74608
292.75968
292.77366
292.78701
292.79899
292.80888
292.81582
292.81956
292.81989
292.81675
292.80997
292.79954
292.78506
292.76664
292.74518
292.7232
292.70017
292.6962
292.73078
292.84225
293.08347
292.71645
292.6969
292.68144
292.67099
292.6661
292.66679
292.6727
292.68307
292.69684
292.71311
292.73073
292.74859
292.76572
292.78146
292.79525
292.80625
292.81392
292.81823
292.81898
292.81616
292.80962
292.7994
292.78515
292.76701
292.7459
292.72461
292.7027
292.69944
292.73416
292.84265
293.0834
292.55915
292.56432
292.57123
292.58084
292.59357
292.60941
292.62801
292.64879
292.67107
292.69404
292.71685
292.73858
292.75864
292.77671
292.79205
292.80393
292.81231
292.81714
292.81827
292.81576
292.80944
292.7994
292.78538
292.76749
292.74674
292.72612
292.70533
292.70275
292.73756
292.84289
293.08732
292.41004
292.43947
292.46822
292.49709
292.52652
292.55657
292.58704
292.61759
292.6477
292.67679
292.7043
292.72962
292.75254
292.77272
292.78925
292.80193
292.811
292.81629
292.81778
292.81554
292.80941
292.79955
292.78573
292.76809
292.74768
292.7277
292.70807
292.70614
292.74098
292.84301
293.08987
292.27295
292.32505
292.37408
292.42076
292.46556
292.50865
292.54998
292.58941
292.62661
292.66122
292.69309
292.72191
292.74745
292.76923
292.78676
292.80029
292.80996
292.81568
292.81748
292.81549
292.80954
292.79983
292.78622
292.76881
292.74871
292.72934
292.7109
292.7096
292.74442
292.84306
293.09496
292.15376
292.22455
292.29082
292.35297
292.41128
292.46593
292.51693
292.5642
292.60772
292.64746
292.68349
292.7155
292.74307
292.76611
292.78468
292.79899
292.8092
292.81529
292.81738
292.81562
292.80982
292.80026
292.78683
292.76964
292.74985
292.73105
292.71382
292.71312
292.74786
292.84308
293.09782
292.05618
292.14093
292.22047
292.29497
292.36443
292.42884
292.48816
292.54237
292.59155
292.63588
292.67551
292.70999
292.7392
292.76345
292.783
292.798
292.80868
292.81513
292.81746
292.81591
292.81026
292.80082
292.78756
292.77057
292.75106
292.73279
292.71682
292.71668
292.7513
292.84313
293.09946
291.97849
292.07522
292.16485
292.24841
292.32619
292.39815
292.46421
292.52429
292.57829
292.62647
292.66872
292.70498
292.73576
292.76125
292.78167
292.7973
292.80842
292.81517
292.81774
292.81637
292.81084
292.80151
292.78841
292.77161
292.75236
292.73457
292.71986
292.72028
292.75474
292.84326
293.10108
291.90122
292.01339
292.11547
292.20882
292.29443
292.37287
292.44439
292.5091
292.56709
292.61821
292.66246
292.70058
292.73288
292.75948
292.78069
292.79688
292.80838
292.81541
292.81818
292.81697
292.81157
292.80233
292.78936
292.77274
292.75372
292.73636
292.72294
292.7239
292.75816
292.84353
293.10313
291.83724
291.95602
292.06728
292.16997
292.26383
292.34909
292.4261
292.49517
292.55657
292.61045
292.65705
292.69696
292.73056
292.75811
292.78003
292.79672
292.80856
292.81584
292.8188
292.81771
292.81242
292.80327
292.79042
292.77395
292.75515
292.73817
292.72602
292.72752
292.76157
292.84399
293.10611
291.82202
291.93483
292.04356
292.14671
292.24294
292.33144
292.4118
292.48395
292.548
292.60414
292.65267
292.69408
292.72877
292.75714
292.77968
292.79681
292.80896
292.81645
292.81958
292.81859
292.8134
292.80433
292.79158
292.77525
292.75664
292.73997
292.72907
292.73115
292.76495
292.8446
293.11378
291.82186
291.93065
292.0359
292.13672
292.23204
292.32086
292.40237
292.47607
292.54174
292.59942
292.64935
292.69191
292.72749
292.75656
292.77962
292.79714
292.80955
292.81724
292.82052
292.81962
292.81451
292.80549
292.79284
292.77663
292.75818
292.74178
292.73208
292.73476
292.76829
292.84548
293.12011
291.83884
291.94096
292.04087
292.13749
292.22981
292.31687
292.3977
292.47152
292.53779
292.59627
292.64707
292.69044
292.72671
292.75634
292.77984
292.79769
292.81033
292.81818
292.8216
292.82078
292.81572
292.80677
292.79418
292.77808
292.75976
292.74357
292.73503
292.73836
292.77157
292.84663
293.12573
291.8734
291.9657
292.05774
292.14808
292.23554
292.31907
292.39763
292.47025
292.53612
292.59467
292.64582
292.68966
292.72641
292.75646
292.78032
292.79845
292.81128
292.81927
292.82281
292.82206
292.81705
292.80814
292.79561
292.7796
292.76139
292.74536
292.73792
292.74192
292.77478
292.84811
293.13081
291.9248
292.00451
292.08619
292.16808
292.24882
292.32719
292.40199
292.47215
292.53667
292.5946
292.64557
292.68954
292.72656
292.75689
292.78103
292.79939
292.81238
292.8205
292.82413
292.82345
292.81847
292.8096
292.79711
292.78118
292.76306
292.74716
292.74075
292.74544
292.77792
292.84992
293.13522
291.99106
292.0559
292.12514
292.19656
292.26888
292.34065
292.41042
292.47697
292.53927
292.59593
292.64627
292.69004
292.72712
292.75762
292.78195
292.80049
292.81362
292.82184
292.82555
292.82493
292.81999
292.81114
292.79867
292.78281
292.76476
292.74895
292.74353
292.74891
292.78097
292.85208
293.13866
292.07083
292.11793
292.17198
292.23094
292.29353
292.35784
292.42185
292.48403
292.5435
292.59844
292.64778
292.69108
292.72804
292.75859
292.78304
292.80173
292.81498
292.82328
292.82706
292.82649
292.82158
292.81274
292.8003
292.78448
292.76649
292.75073
292.74624
292.75233
292.78392
292.85451
293.14047
292.17172
292.19836
292.23222
292.27516
292.32521
292.38016
292.43705
292.4939
292.54965
292.60223
292.65013
292.69263
292.72928
292.75976
292.78426
292.80306
292.81642
292.8248
292.82864
292.82811
292.82324
292.81441
292.80197
292.7862
292.76824
292.75245
292.74887
292.75566
292.78675
292.857
293.13988
293.7024
293.58494
293.47814
293.37762
293.28215
293.19271
293.11105
293.03943
292.97976
292.93232
292.89677
292.87184
292.85573
292.84636
292.8417
292.8395
292.83785
292.83567
292.83185
292.82564
292.81649
292.8041
292.78777
292.76726
292.74337
292.71658
292.68659
292.67671
292.70896
292.83375
293.08289
293.68034
293.56658
293.46613
293.37317
293.28589
293.20313
293.12612
293.05709
292.998
292.94971
292.9124
292.88523
292.86672
292.85506
292.84834
292.84443
292.84144
292.83821
292.83358
292.82677
292.81716
292.8044
292.78779
292.767
292.7429
292.71565
292.68514
292.6748
292.70688
292.83282
293.08286
293.6649
293.55804
293.46384
293.3768
293.29441
293.21601
293.1423
293.07512
293.01639
292.9673
292.92833
292.89904
292.87819
292.86425
292.85544
292.84976
292.84536
292.841
292.8355
292.82804
292.81792
292.80477
292.78783
292.76675
292.74242
292.71467
292.68362
292.67281
292.70462
292.83176
293.08244
293.65242
293.55155
293.46196
293.37974
293.30172
293.22736
293.15698
293.09195
293.03407
292.98465
292.94442
292.91327
292.89023
292.87405
292.86312
292.85559
292.84968
292.84411
292.83766
292.82947
292.8188
292.8052
292.78791
292.76651
292.74194
292.71364
292.68203
292.67072
292.7022
292.83052
293.08113
293.63884
293.54395
293.45879
293.38082
293.3073
293.23713
293.17028
293.10775
293.05115
293.00184
292.96068
292.92791
292.90284
292.88446
292.87139
292.86194
292.85443
292.84756
292.84008
292.83109
292.8198
292.80571
292.78804
292.76628
292.74145
292.71255
292.68036
292.66853
293.62465
293.53595
293.4553
293.3814
293.3121
293.24596
293.18263
293.12278
293.06776
293.01888
292.97712
293.85876
293.82514
293.79495
293.76994
293.74621
294.02441
293.91034
292.1348
292.24194
294.12075
294.01569
293.90814
293.80265
294.1492
294.03103
293.93524
293.82378
293.69676
293.98711
294.02363
293.95406
293.82989
293.69827
293.57698
293.87599
293.89643
293.7686
293.64284
293.5303
293.43202
293.50467
293.53379
293.49959
293.42723
293.34832
293.27569
293.25998
293.28329
293.25637
293.2051
293.15101
293.10068
292.87875
292.9197
292.95157
292.94736
292.9311
292.91302
292.51435
292.6082
292.67583
292.70494
292.71918
292.72774
292.15766
292.28467
292.397
292.46541
292.51096
292.54514
291.79923
292.00956
292.14556
292.24232
292.31451
292.37174
291.39437
291.74486
291.92173
292.04017
292.13447
292.21217
291.08119
291.5091
291.73608
291.87475
291.98352
292.07551
290.84394
291.29231
291.57286
291.73725
291.86115
291.965
290.7501
291.10557
291.39348
291.5953
291.7494
291.87283
290.70066
291.03755
291.25895
291.46539
291.63612
291.77769
290.60981
291.01151
291.25152
291.42237
291.57348
291.71109
290.54694
290.93327
291.20487
291.40311
291.56316
291.70093
290.53025
290.92876
291.19536
291.39627
291.56054
291.70127
290.54488
290.94559
291.21439
291.41657
291.58131
291.72203
290.62781
291.00355
291.26586
291.46407
291.62558
291.76342
290.72622
291.0884
291.343
291.53519
291.69134
291.82419
290.85923
291.20296
291.44485
291.62784
291.77629
291.90208
291.34153
291.56801
291.73957
291.87858
291.99591
291.70981
291.86938
291.99946
292.10994
292.34
292.43873
292.54087
292.64075
292.73568
292.8239
292.90385
292.97456
293.03541
293.08602
293.12706
293.15885
293.20121
293.18278
293.21507
293.20011
293.22468
293.21235
293.23133
293.22108
293.23543
293.22686
293.23714
293.22998
293.23609
293.23029
293.23077
293.2263
293.21968
293.2166
293.19996
293.19839
293.16809
293.16819
293.11899
293.12057
293.07207
293.07338
293.05297
293.05336
293.04081
293.04095
293.0167
293.01695
292.96254
292.96341
292.9325
292.93331
292.99838
292.99853
)
;

boundaryField
{
    Side1
    {
        type            empty;
    }
    Inlet
    {
        type            totalTemperature;
        gamma           1.4;
        T0              uniform 294.31799;
        value           nonuniform List<scalar> 
92
(
294.31799
292.99835
292.99286
292.99335
292.99384
292.99434
292.99486
292.99541
292.996
292.99662
292.99727
292.99794
292.99861
292.9993
293.00007
293.00092
293.00166
293.00315
294.31799
293.00656
293.00841
294.31799
294.31799
294.31799
293.01483
294.31799
294.31799
293.01894
294.31799
294.31799
293.00245
293.00245
293.00245
293.00245
293.00245
293.00245
293.00245
293.00245
293.00245
293.00245
293.00245
293.00245
293.00245
293.00245
293.00245
293.00245
293.00245
293.00245
293.00245
293.00245
293.00245
293.00245
293.00245
293.00245
293.00245
293.00245
293.00245
293.00245
293.00245
293.00245
293.02283
293.00245
294.31799
294.31799
294.31799
294.31799
294.31799
294.31799
294.31799
292.983
294.31799
292.98405
294.31799
294.31799
294.31799
294.31799
294.31799
292.98741
294.31799
294.31799
294.31799
294.31799
294.31799
294.31799
294.31799
292.99184
294.31799
294.31799
294.31799
294.31799
293.00245
293.00245
)
;
    }
    Side2
    {
        type            empty;
    }
    Outlet
    {
        type            zeroGradient;
    }
    Botwall
    {
        type            zeroGradient;
    }
    Cyli
    {
        type            zeroGradient;
    }
    procBoundary2to0
    {
        type            processor;
        value           nonuniform List<scalar> 
55
(
293.99233
293.96273
293.92526
293.88888
293.85424
294.0534
294.01026
294.0156
294.09938
294.09938
291.86079
292.00986
292.00986
292.25649
292.35201
294.08469
294.08469
294.13239
294.13239
291.02146
291.02146
291.50014
291.50014
292.44333
292.5434
292.63951
292.73044
292.81543
292.89338
292.96337
293.02496
293.07747
293.12081
293.15531
293.18168
293.18168
293.21883
293.22957
293.23676
293.24148
293.24401
293.24434
293.24195
293.23529
293.22281
293.20155
293.16797
293.11734
293.07079
293.05263
293.04069
293.0165
292.9617
292.93174
292.99827
)
;
    }
    procBoundary2to3
    {
        type            processor;
        value           nonuniform List<scalar> 
35
(
292.6996
292.8291
293.07815
292.94294
292.91599
292.89548
292.88026
292.86884
292.85965
292.85138
292.84278
292.83292
292.82095
292.80632
292.78821
292.76606
292.74096
292.7114
292.67862
292.6996
292.66624
293.61094
293.72317
293.52843
293.45236
293.38236
293.31685
293.25439
293.19439
293.13724
293.08396
293.03577
292.94294
292.99368
293.72317
)
;
    }
}


// ************************************************************************* //
