/*--------------------------------*- C++ -*----------------------------------*\
| =========                 |                                                 |
| \\      /  F ield         | OpenFOAM: The Open Source CFD Toolbox           |
|  \\    /   O peration     | Version:  2406                                  |
|   \\  /    A nd           | Website:  www.openfoam.com                      |
|    \\/     M anipulation  |                                                 |
\*---------------------------------------------------------------------------*/
FoamFile
{
    version     2.0;
    format      ascii;
    arch        "LSB;label=32;scalar=64";
    class       volScalarField;
    location    "0.01";
    object      p;
}
// * * * * * * * * * * * * * * * * * * * * * * * * * * * * * * * * * * * * * //

dimensions      [1 -1 -2 0 0 0 0];

internalField   nonuniform List<scalar> 
8260
(
100989.99
100906.32
100857.95
100799.3
100745.69
100706.82
100685.05
100680.16
100691.21
100716.07
100754.82
100805.1
100864.18
100928.17
100993.45
101060.66
101103.42
101136.11
101163.47
101186.2
101206.01
101223.81
101238.41
101251.64
101262.52
101271.7
101279.61
101285.66
101290.89
101294.05
101296.59
101155.58
101082.09
101010.55
100934.06
100867.2
100815.9
100781.49
100764.62
100763.72
100777.54
100806.15
100847.65
100898.77
100956.67
101013.61
101074.06
101112.16
101144.8
101170.38
101191.63
101210.29
101227.26
101241.16
101253.86
101264.33
101273.18
101280.84
101286.7
101291.8
101294.86
101297.37
101267.24
101200.02
101121.71
101038.32
100964.8
100905.79
100862.56
100836.71
100827.12
100830.98
100851.28
100885.46
100930.29
100983.99
101035.03
101090.9
101123.31
101155.33
101178.48
101197.95
101215.29
101231.27
101244.36
101256.44
101266.41
101274.87
101282.26
101287.89
101292.84
101295.8
101298.25
101359.16
101296.02
101218.24
101133.12
101055.8
100991.18
100940.81
100906.46
100888.2
100884.34
100896.95
100924.11
100963.08
101012.74
101058.63
101109.54
101136.99
101167.24
101187.69
101205.15
101220.99
101235.85
101248.01
101259.37
101268.79
101276.81
101283.87
101289.25
101294.01
101296.86
101299.26
101438.62
101379.74
101305.64
101222.31
101144.14
101076.4
101020.95
100979.7
100953.67
100942.64
100947.71
100967.73
101000.63
101045.43
101085.71
101129.83
101153.64
101180.58
101198.16
101213.35
101227.48
101241.06
101252.18
101262.71
101271.5
101279.02
101285.7
101290.79
101295.35
101298.07
101300.4
101504.29
101449.47
101381.06
101302.75
101227.04
101159.16
101101.24
101055.4
101023.32
101005.81
101003.82
101016.84
101043.65
101082.74
101116.7
101152.02
101173.56
101195.49
101210.01
101222.68
101234.87
101246.99
101256.93
101266.5
101274.59
101281.53
101287.78
101292.55
101296.87
101299.44
101301.7
101555.94
101505.33
101443.36
101372.64
101302.42
101237.32
101179.66
101131.74
101095.66
101072.95
101064.8
101071.36
101092.4
101124.94
101151.59
101176.87
101196.45
101212.23
101223.41
101233.28
101243.25
101253.71
101262.36
101270.82
101278.1
101284.4
101290.14
101294.55
101298.59
101301
101303.16
101594.99
101549.34
101495.24
101433.3
101370.34
101310.26
101255.31
101207.72
101169.81
101143.54
101130.46
101131.43
101147.29
101172.02
101190.11
101205.97
101221.69
101231.02
101238.48
101245.29
101252.75
101261.29
101268.54
101275.73
101282.11
101287.65
101292.82
101296.82
101300.54
101302.78
101304.82
101626.19
101584.49
101538.22
101485.82
101431.5
101378.27
101328.07
101283
101245.36
101217.29
101200.68
101197.17
101208.44
101223.4
101232.32
101240.49
101248.76
101251.98
101255.36
101258.84
101263.53
101269.86
101275.54
101281.32
101286.65
101291.34
101295.86
101299.4
101302.73
101304.79
101306.7
101651.51
101616.55
101576.53
101533.09
101488.19
101442.96
101398.93
101358.01
101322.35
101294.12
101275.44
101268.54
101274.86
101279.54
101279.04
101278.94
101277.54
101275.17
101274.06
101274.02
101275.75
101279.55
101283.47
101287.67
101291.8
101295.55
101299.31
101302.32
101305.21
101307.07
101308.81
101671.54
101650.37
101620.58
101585.56
101547.49
101508.72
101470.53
101434.25
101401.6
101374.53
101355.33
101346.09
101346.28
101340.43
101329.32
101318.44
101308.5
101300.44
101294.54
101290.89
101289.55
101290.54
101292.4
101294.85
101297.63
101300.33
101303.22
101305.66
101308.03
101309.66
101311.22
101701.91
101687.45
101666.63
101638.71
101607.82
101576.11
101544.38
101513.52
101484.83
101460.21
101442.01
101430.47
101420.18
101402.27
101379.14
101358.22
101341.1
101327.28
101316.89
101309.44
101304.87
101302.97
101302.45
101302.97
101304.23
101305.76
101307.67
101309.47
101311.28
101312.63
101313.97
101744.72
101740.34
101728.43
101705.73
101679.76
101653.49
101627.37
101601.53
101576.54
101553.49
101533.01
101513
101487.99
101456.99
101425.52
101397.6
101374.32
101355.64
101340.88
101329.59
101321.59
101316.76
101313.74
101312.14
101311.69
101311.92
101312.77
101313.84
101315.03
101316.04
101317.14
101824.66
101814.24
101794.75
101770.4
101746.33
101725.05
101705.38
101684.6
101661.41
101635.7
101607.09
101574.94
101539.59
101502.84
101467.29
101435.31
101407.8
101384.77
101366.08
101351.13
101339.63
101331.76
101326.23
101322.44
101320.11
101318.9
101318.61
101318.83
101319.37
101319.98
101320.8
101859.56
101859.95
101856.93
101850.43
101835.47
101810.56
101782.49
101753.6
101722.17
101688.17
101652.71
101615.68
101577.93
101540.37
101504.23
101470.62
101440.36
101414.04
101391.89
101373.71
101358.84
101347.78
101339.79
101333.88
101329.59
101326.79
101325.26
101324.53
101324.36
101324.52
101325.01
101862.37
101853.33
101840.48
101824.7
101811.18
101800.77
101789.76
101776.94
101755.82
101724.12
101686.83
101647.51
101609.04
101571.85
101536.09
101502.26
101470.97
101442.53
101417.62
101396.73
101379.02
101364.78
101354.2
101346.28
101340.16
101335.59
101332.73
101330.95
101330.02
101329.68
101329.82
101855.02
101847.07
101837.12
101825.49
101812.93
101798.95
101781.48
101760.08
101739.97
101723.73
101702.32
101672.16
101636.18
101599.01
101563.31
101529.57
101498.29
101469.25
101442.54
101419.42
101399.74
101382.79
101369.36
101359.37
101351.59
101345.26
101341.01
101338.09
101336.33
101335.45
101335.24
101825.56
101819.18
101811.53
101802.76
101792.7
101781.06
101767.57
101752.1
101735.1
101715.9
101696.67
101679.38
101655.92
101623.02
101587.16
101552.69
101521.49
101492.9
101465.85
101441.18
101420.2
101401.41
101385.24
101372.92
101363.62
101355.68
101350.01
101345.92
101343.23
101341.77
101341.21
101798.81
101793.68
101787.49
101780.43
101772.36
101763.07
101752.41
101740.24
101726.48
101711.07
101693.28
101672.14
101652.15
101634.2
101606.88
101573.92
101542.08
101513.36
101486.81
101461.32
101439.29
101419.87
101401.86
101386.85
101375.97
101366.67
101359.62
101354.39
101350.67
101348.55
101347.7
101767.34
101763.3
101758.43
101752.89
101746.56
101739.28
101730.92
101721.33
101710.35
101697.8
101683.73
101668.36
101650.36
101631.8
101614.6
101591.22
101562.55
101532.66
101505.58
101479.88
101456.52
101436.84
101418.59
101401.44
101388.6
101378.1
101369.74
101363.41
101358.61
101355.74
101354.63
101739.14
101735.96
101732.12
101727.75
101722.75
101717.01
101710.38
101702.75
101693.96
101683.84
101672.17
101658.69
101643.9
101627.11
101608.74
101594.1
101576.57
101550.92
101523.3
101497.51
101472.85
101451.89
101434.24
101416.69
101401.72
101389.95
101380.26
101372.87
101367.05
101363.31
101361.97
101709.23
101706.75
101703.78
101700.41
101696.55
101692.11
101686.99
101681.08
101674.27
101666.44
101657.46
101647.24
101635.36
101622.16
101608.68
101591.74
101574.74
101560.34
101537.72
101513.03
101489.44
101466.63
101448.11
101431.56
101415.32
101402.13
101391.1
101382.64
101375.95
101371.32
101369.69
101681.93
101680.02
101677.72
101675.11
101672.13
101668.7
101664.73
101660.14
101654.85
101648.72
101641.64
101633.47
101624.21
101613.53
101601.59
101589.14
101574.19
101558.12
101543.25
101523.37
101503.64
101482.19
101461.01
101444.66
101428.67
101414.45
101402.18
101392.66
101385.26
101379.85
101377.78
101654.62
101653.18
101651.45
101649.48
101647.24
101644.66
101641.67
101638.21
101634.21
101629.59
101624.25
101618.09
101610.94
101602.81
101593.44
101582.59
101570.27
101555.51
101540.28
101527.54
101512.41
101494.12
101473.59
101455.79
101440.57
101426.31
101413.38
101402.86
101394.88
101388.92
101386.28
101630.17
101629.08
101627.78
101626.3
101624.61
101622.66
101620.39
101617.76
101614.7
101611.14
101606.99
101602.16
101596.56
101590.08
101582.67
101574.24
101564.68
101554.85
101544.86
101531.73
101514.5
101498.79
101483.18
101465.61
101450.47
101436.92
101424.3
101413.08
101404.56
101398.31
101395.12
101606.69
101605.87
101604.89
101603.78
101602.51
101601.03
101599.31
101597.32
101595.01
101592.31
101589.18
101585.54
101581.36
101576.58
101571.05
101564.58
101557.29
101548.74
101538.68
101529.85
101519.79
101505.92
101491.86
101475.58
101459.36
101446.12
101434.19
101422.98
101413.92
101407.46
101403.84
101585.66
101585.05
101584.33
101583.52
101582.6
101581.54
101580.32
101578.9
101577.24
101575.32
101573.09
101570.48
101567.38
101563.69
101559.34
101554.36
101548.5
101541.95
101534.57
101525.19
101515.96
101508.12
101498.16
101483.66
101467.84
101454.37
101442.76
101432.09
101422.79
101416.01
101412.04
101567.38
101566.93
101566.41
101565.81
101565.13
101564.34
101563.42
101562.34
101561.09
101559.63
101557.93
101555.94
101553.63
101550.94
101547.81
101544.11
101539.78
101534.69
101528.66
101521.96
101514.2
101504.47
101495
101486.48
101473.78
101461.59
101449.91
101439.78
101430.86
101423.91
101419.67
101552.28
101551.92
101551.51
101551.04
101550.5
101549.88
101549.15
101548.31
101547.33
101546.18
101544.84
101543.26
101541.41
101539.23
101536.63
101533.52
101529.9
101525.69
101520.94
101515.51
101509.01
101501.82
101492.79
101482.48
101474.76
101465.05
101454.78
101445.4
101437.17
101430.49
101426.23
101537.85
101537.51
101537.11
101536.65
101536.13
101535.51
101534.79
101533.95
101532.98
101531.85
101530.54
101529.03
101527.3
101525.29
101523.03
101520.5
101517.58
101514.13
101510.04
101505.23
101500
101494.11
101487.51
101481.53
101474.43
101465.59
101456.86
101448.47
101441.01
101434.85
101430.87
101522.09
101521.61
101521.08
101520.54
101519.95
101519.31
101518.6
101517.83
101516.98
101516.03
101514.99
101513.81
101512.48
101510.94
101509.17
101507.13
101504.74
101501.94
101498.73
101495.25
101491.49
101487.18
101482.16
101476.29
101469.68
101462.65
101455.24
101447.82
101440.79
101434.9
101431.21
100335.06
100320.51
100310.84
100301.7
100291.93
100286.26
100291.16
100308.46
100335.01
100374.6
100426.13
100487.72
100557.59
100633.11
100711.44
100795.92
100869.83
100947
100995.36
101043.89
101088.02
101125.06
101156.66
101183.37
101205.4
101223.53
101238.2
101249.61
101258.48
101264.09
101267.47
100346.29
100330.33
100309.46
100292.38
100280.37
100277.35
100287.04
100310.45
100344.63
100390.04
100445.49
100509.43
100580.22
100655.01
100731.61
100812.94
100885.32
100955.95
100998.56
101050.09
101093.3
101129.49
101160.29
101186.35
101207.84
101225.56
101239.91
101251.08
101259.8
101265.3
101268.63
100306.11
100280.18
100255.99
100242.4
100239.41
100246.83
100266.76
100299.49
100341.34
100393.11
100453.57
100521.06
100594.05
100669.5
100746.25
100825.55
100899.33
100964.02
101004.37
101056.94
101098.8
101134.04
101164
101189.38
101210.32
101227.61
101241.63
101252.57
101261.12
101266.51
101269.81
100241.94
100220.02
100203.3
100197.84
100203.17
100219.46
100247.78
100287.7
100336.45
100394.07
100459.08
100529.85
100604.94
100681.33
100759.46
100836.74
100911.49
100971.7
101011.83
101063.79
101104.26
101138.57
101167.7
101192.42
101212.81
101229.67
101243.38
101254.07
101262.45
101267.73
101270.99
100158.46
100144.91
100138.47
100144.39
100161.55
100189.45
100228.07
100276.41
100332.59
100396.08
100465.43
100539.21
100616.14
100693.38
100773.02
100849.17
100922.95
100979.13
101019.76
101070.56
101109.71
101143.09
101171.39
101195.46
101215.32
101231.75
101245.13
101255.58
101263.8
101268.96
101272.18
100058.92
100058.64
100067.22
100088.25
100119.59
100160.17
100209.54
100266.68
100330.2
100399.31
100472.73
100549.27
100627.81
100705.75
100786.79
100862.37
100933.01
100985.87
101027.84
101077.22
101115.11
101147.58
101175.08
101198.5
101217.82
101233.84
101246.9
101257.1
101265.15
101270.2
101273.38
99945.241
99964.713
99992.912
100031.63
100078.46
100132.26
100192.56
100258.55
100329.15
100403.54
100480.72
100559.75
100639.63
100718.1
100800.16
100875.25
100942.81
100992.31
101036.02
101083.76
101120.48
101152.04
101178.75
101201.54
101220.33
101235.93
101248.68
101258.63
101266.52
101271.45
101274.58
99829.437
99871.863
99921.093
99977.886
100040.22
100107.01
100177.94
100252.42
100329.59
100408.81
100489.36
100570.55
100651.5
100730.53
100813.08
100887.53
100953.35
100998.95
101044.26
101090.2
101125.81
101156.47
101182.4
101204.57
101222.84
101238.03
101250.46
101260.17
101267.89
101272.7
101275.79
99721.676
99786.576
99855.286
99929.222
100006.48
100085.53
100166.36
100248.63
100331.72
100415.21
100498.69
100581.69
100663.51
100743.86
100825.96
100898.8
100963.71
101006.27
101052.46
101096.54
101131.09
101160.87
101186.03
101207.59
101225.35
101240.13
101252.25
101261.72
101269.27
101273.96
101277.01
99625.738
99712.22
99798.08
99887.895
99979.061
100068.88
100158.36
100247.49
100335.67
100422.8
100508.72
100593.17
100675.82
100757.94
100838.71
100909.74
100973.26
101014.23
101060.55
101102.79
101136.32
101165.23
101189.63
101210.59
101227.85
101242.23
101254.05
101263.27
101270.65
101275.23
101278.23
99545.982
99649.832
99753.168
99857.166
99959.493
100057.86
100154.53
100249.29
100341.58
100431.61
100519.47
100605.1
100689.02
100772.51
100850.77
100920.51
100982.07
101022.57
101068.51
101108.95
101141.5
101169.55
101193.21
101213.58
101230.34
101244.32
101255.84
101264.82
101272.04
101276.5
101279.45
99490.212
99608.07
99723.717
99837.024
99946.865
100053.07
100155.78
100254.46
100349.64
100441.82
100531.19
100617.87
100703.39
100785.53
100861.23
100931.17
100990.53
101031.13
101076.3
101115.04
101146.63
101173.82
101196.75
101216.55
101232.82
101246.41
101257.64
101266.38
101273.43
101277.77
101280.68
99462.549
99588.781
99710.92
99829.559
99944.338
100054.91
100161.54
100263.59
100360.59
100454.1
100544.53
100632.03
100716.37
100795.53
100872.13
100941.57
100998.9
101039.79
101083.94
101121.06
101151.69
101178.06
101200.27
101219.49
101235.29
101248.5
101259.42
101267.93
101274.82
101279.04
101281.92
99463.319
99593.082
99716.188
99835.733
99952.027
100064.38
100173.16
100277.3
100375.6
100469.3
100559.37
100645.52
100726.92
100805.01
100882.76
100951.04
101007.48
101048.5
101091.42
101127
101156.68
101182.24
101203.74
101222.41
101237.73
101250.56
101261.21
101269.48
101276.21
101280.32
101283.15
99478.365
99612.444
99736.256
99855.099
99970.605
100082.67
100191.54
100294.45
100391.85
100483.54
100569.78
100655
100738.17
100816.16
100892.84
100960.8
101016.34
101057.24
101098.74
101132.86
101161.6
101186.37
101207.18
101225.3
101240.16
101252.62
101262.98
101271.03
101277.6
101281.6
101284.39
99502.465
99636.007
99761.313
99880.959
99995.549
100105.37
100211.17
100308.92
100401.5
100492.82
100582.43
100668.22
100750.79
100827.42
100902.81
100971.03
101025.35
101065.98
101105.87
101138.63
101166.44
101190.44
101210.56
101228.15
101242.56
101254.66
101264.75
101272.56
101278.98
101282.88
101285.64
99582.146
99694.718
99803.385
99912.508
100020.66
100125.11
100223.46
100320.83
100418.51
100509.87
100597.83
100682.44
100763.69
100838.52
100912.76
100981.24
101034.4
101074.63
101112.81
101144.31
101171.21
101194.45
101213.91
101230.96
101244.94
101256.68
101266.5
101274.1
101280.37
101284.16
101286.88
99727.852
99816.587
99899.339
99985.811
100076.38
100168.07
100257.88
100349.41
100442.11
100529.68
100614.44
100697
100776.67
100849.57
100922.66
100991.35
101043.4
101083.14
101119.6
101149.9
101175.89
101198.4
101217.2
101233.74
101247.29
101258.68
101268.23
101275.62
101281.74
101285.44
101288.13
99872.367
99944.996
100008.31
100075.22
100147.95
100224.41
100301.99
100383.93
100469.5
100551.17
100631.99
100711.96
100789.75
100860.67
100932.49
101001.4
101052.3
101091.49
101126.26
101155.39
101180.49
101202.28
101220.44
101236.47
101249.61
101260.65
101269.95
101277.13
101283.11
101286.72
101289.37
100033.56
100085.87
100127.39
100173.77
100227.79
100287.54
100351.26
100422.37
100499.5
100574.57
100650.48
100727.26
100802.85
100871.83
100942.23
101011.26
101061.07
101099.65
101132.78
101160.77
101184.99
101206.08
101223.61
101239.15
101251.88
101262.6
101271.64
101278.62
101284.47
101287.99
101290.61
100215.56
100243.4
100259.94
100282.99
100315.8
100356.83
100406.27
100465.16
100531.93
100599.87
100669.98
100742.83
100815.88
100883.04
100951.84
101020.7
101069.59
101107.49
101139.1
101165.99
101189.34
101209.76
101226.69
101241.76
101254.11
101264.5
101273.31
101280.1
101285.81
101289.25
101291.86
100418.09
100417.35
100406.83
100404.14
100412.71
100435.06
100470.05
100513.66
100567.81
100628.02
100691.46
100759.44
100829.35
100894.6
100961.43
101029.51
101077.64
101114.7
101145.11
101170.99
101193.51
101213.3
101229.68
101244.29
101256.28
101266.37
101274.96
101281.56
101287.15
101290.52
101293.11
100648.8
100619.29
100582.92
100551.9
100535.12
100534.95
100548.55
100574.89
100613.81
100663.3
100718.24
100779.74
100845.17
100907.71
100971.63
101037.84
101084.81
101120.99
101150.81
101175.84
101197.56
101216.76
101232.6
101246.78
101258.43
101268.23
101276.59
101283.02
101288.49
101291.79
101294.36
100889.26
100846.73
100800.94
100747.6
100700.81
100669.52
100655.44
100658.62
100678.01
100710.46
100753.54
100806.13
100865.17
100923.96
100983.92
101047.26
101091.82
101127.23
101156.73
101180.89
101201.75
101220.32
101235.59
101249.32
101260.59
101270.09
101278.23
101284.47
101289.82
101293.05
101295.6
100376.96
100370.08
100359.64
100349.8
100341.42
100336.58
100339.28
100351.77
100373.01
100406.94
100452.65
100508.64
100573.19
100643.85
100717.06
100795.6
100864.5
100935.52
100989.31
101037.6
101083.28
101121.2
101153.51
101180.78
101203.29
101221.78
101236.73
101248.36
101257.38
101263.1
101266.55
100385.96
100383.31
100374.18
100363.98
100355.41
100351.49
100354.3
100363.3
100382.5
100413.99
100457.07
100510.59
100572.98
100642.07
100714.42
100792.03
100863.11
100931.48
100987.82
101034.94
101080.75
101118.88
101151.5
101179.05
101201.82
101220.54
101235.66
101247.43
101256.54
101262.33
101265.89
100381.07
100378.57
100372.92
100367.25
100362.65
100361.16
100365.16
100374.68
100393.62
100423.58
100464.51
100515.67
100575.77
100642.9
100713.97
100789.91
100861.82
100929.67
100986.14
101032.66
101078.61
101116.87
101149.7
101177.45
101200.41
101219.31
101234.58
101246.47
101255.66
101261.53
101265.15
100376.39
100374.69
100372.72
100371.01
100370.13
100371.47
100377.14
100388.07
100407.07
100435.72
100474.57
100523.29
100580.87
100645.67
100714.96
100788.48
100860.16
100927.64
100983.83
101030.01
101076.24
101114.69
101147.75
101175.72
101198.9
101217.99
101233.41
101245.43
101254.72
101260.65
101264.06
100374.25
100374.84
100375.52
100376.38
100378.06
100381.8
100389.22
100401.49
100420.69
100448.37
100485.4
100531.82
100586.9
100649.27
100716.57
100787.34
100858.24
100925.39
100981.13
101027.09
101073.6
101112.27
101145.6
101173.82
101197.25
101216.55
101232.15
101244.31
101253.7
101259.72
101262.85
100371.99
100374.81
100377.78
100381
100385.09
100391.15
100400.43
100414.06
100433.7
100460.76
100496.33
100540.68
100593.38
100653.34
100718.53
100786.5
100856.56
100923.29
100978.5
101024.03
101070.83
101109.7
101143.3
101171.79
101195.47
101215
101230.79
101243.11
101252.6
101258.72
101261.77
100368.93
100373.03
100378.46
100384.3
100391.01
100399.51
100410.82
100425.94
100446.23
100473.01
100507.39
100549.89
100600.33
100657.89
100720.91
100786.35
100855.55
100921.23
100976.41
101020.93
101068.01
101107.06
101140.92
101169.65
101193.6
101213.36
101229.35
101241.83
101251.44
101257.65
101260.74
100365.57
100371.74
100379.09
100387.22
100396.47
100407.41
100420.8
100437.49
100458.6
100485.31
100518.75
100559.57
100607.87
100663.06
100723.83
100787.21
100854.66
100918.86
100974.7
101017.97
101065.17
101104.35
101138.45
101167.43
101191.64
101211.64
101227.83
101240.47
101250.2
101256.51
101259.7
100362.08
100370.68
100380.04
100390.47
100402.17
100415.46
100430.87
100449.12
100471.1
100497.88
100530.54
100569.84
100616.09
100668.93
100727.4
100788.83
100853.75
100916.64
100972.92
101015.19
101062.32
101101.6
101135.91
101165.12
101189.59
101209.83
101226.22
101239.04
101248.88
101255.3
101258.57
100360.31
100370.66
100382.15
100394.87
100408.86
100424.31
100441.59
100461.26
100484.07
100510.96
100542.93
100580.8
100625.06
100675.58
100731.67
100791.09
100853.83
100914.79
100970.83
101012.57
101059.47
101098.8
101133.3
101162.73
101187.45
101207.92
101224.52
101237.51
101247.48
101254.01
101257.33
100361.58
100373.56
100386.96
100401.62
100417.53
100434.78
100453.6
100474.44
100497.9
100524.81
100556.08
100592.57
100634.87
100683.07
100736.72
100793.99
100854.63
100913.48
100968.75
101010.2
101056.64
101095.97
101130.62
101160.25
101185.21
101205.92
101222.73
101235.9
101246
101252.64
101255.98
100367.9
100381.04
100395.84
100411.96
100429.26
100447.77
100467.66
100489.24
100513.04
100539.75
100570.2
100605.26
100645.58
100691.44
100742.58
100797.58
100856.05
100913.11
100966.96
101008.19
101053.86
101093.13
101127.89
101157.69
101182.87
101203.82
101220.85
101234.19
101244.42
101251.18
101254.56
100380.97
100394.17
100410.19
100427.2
100445.17
100464.24
100484.54
100506.31
100529.97
100556.13
100585.54
100619.04
100657.32
100700.76
100749.32
100801.91
100858.06
100912.88
100965.35
101006.71
101051.17
101090.31
101125.13
101155.05
101180.45
101201.62
101218.86
101232.39
101242.75
101249.62
101253.09
100401.72
100416.44
100432.21
100448.73
100466.33
100485.06
100504.96
100526.19
100549.13
100574.29
100602.35
100634.08
100670.17
100711.12
100756.99
100807.03
100860.68
100913.15
100963.95
101005.53
101048.59
101087.54
101122.35
101152.36
101177.95
101199.33
101216.78
101230.48
101240.98
101247.97
101251.54
100430.32
100444.98
100460.39
100476.22
100492.89
100510.55
100529.29
100549.28
100570.87
100594.52
100620.83
100650.52
100684.26
100722.58
100765.66
100812.99
100863.96
100913.96
100963.04
101004.67
101046.15
101084.85
101119.59
101149.63
101175.37
101196.95
101214.59
101228.48
101239.1
101246.22
101249.86
100468.25
100481.32
100495.55
100509.97
100524.96
100540.8
100557.65
100575.72
100595.35
100616.96
100641.12
100668.47
100699.65
100735.21
100775.37
100819.81
100867.72
100915.12
100962.78
101004.25
101043.9
101082.3
101116.87
101146.88
101172.73
101194.47
101212.31
101226.37
101237.13
101244.36
101248.06
100512
100523.62
100536.32
100548.87
100561.71
100575.23
100589.68
100605.3
100622.46
100641.6
100663.23
100687.95
100716.38
100749.04
100786.17
100827.55
100871.93
100916.69
100963.82
101004.34
101041.92
101079.93
101114.21
101144.13
101170.04
101191.92
101209.94
101224.16
101235.04
101242.4
101246.15
100559.85
100569.92
100580.85
100591.35
100601.86
100612.83
100624.57
100637.43
100651.81
100668.17
100687.01
100708.91
100734.43
100764.07
100798.09
100836.28
100877.14
100919.97
100966.5
101004.96
101040.3
101077.8
101111.66
101141.4
101167.32
101189.3
101207.47
101221.84
101232.85
101240.32
101244.14
100608.85
100617.31
100626.55
100635.17
100643.5
100652.01
100661.09
100671.17
100682.7
100696.19
100712.15
100731.14
100753.69
100780.27
100811.15
100846.17
100884.12
100924.78
100968.3
101005.68
101039.44
101075.97
101109.25
101138.73
101164.58
101186.62
101204.91
101219.43
101230.55
101238.13
101242.02
100657.56
100664.33
100671.82
100678.64
100684.97
100691.23
100697.89
100705.4
100714.26
100725.01
100738.18
100754.32
100773.95
100797.52
100825.3
100857.22
100892.39
100930.17
100970.05
101006.56
101039.08
101074.48
101107.01
101136.14
101161.85
101183.89
101202.27
101216.91
101228.15
101235.82
101239.78
100704.06
100709.07
100714.77
100719.91
100724.51
100728.91
100733.56
100738.93
100745.52
100753.88
100764.55
100778.08
100794.97
100815.66
100840.45
100869.31
100901.59
100936.48
100973.32
101008.25
101039.12
101073.33
101104.97
101133.68
101159.16
101181.13
101199.56
101214.31
101225.63
101233.39
101237.42
100746.33
100749.77
100753.81
100757.44
100760.67
100763.72
100766.92
100770.72
100775.6
100782.08
100790.71
100801.99
100816.45
100834.51
100856.46
100882.36
100911.72
100943.77
100977.92
101010.21
101039.91
101072.69
101103.19
101131.36
101156.54
101178.35
101196.78
101211.62
101223.02
101230.85
101234.93
100782.88
100785.74
100788.82
100791.18
100793.31
100795.34
100797.53
100800.26
100803.96
100809.12
100816.22
100825.73
100838.14
100853.87
100873.22
100896.29
100922.76
100951.93
100982.99
101013.23
101041.71
101072.52
101101.71
101129.23
101153.99
101175.59
101193.97
101208.84
101220.3
101228.2
101232.32
100816.61
100817.09
100818.57
100820.33
100821.8
100823.24
100824.95
100827.2
100830.34
100834.76
100840.87
100849.1
100859.87
100873.6
100890.61
100911.04
100934.7
100960.95
100988.59
101016.13
101044.49
101073.19
101100.5
101127.42
101151.59
101172.87
101191.12
101206.01
101217.5
101225.43
101229.59
100844.84
100845.31
100846.09
100846.73
100847.33
100848.29
100849.9
100852.11
100855.14
100859.25
100864.8
100872.12
100881.61
100893.65
100908.57
100926.54
100947.5
100970.84
100995.47
101021.39
101047.53
101074.67
101100.47
101125.64
101149.28
101170.22
101188.29
101203.12
101214.62
101222.57
101226.74
100868.25
100868.44
100869.05
100869.97
100871.32
100872.32
100873.49
100875.89
100879.1
100883.17
100888.38
100895.04
100903.47
100914.04
100927.06
100942.75
100961.12
100981.75
101003.97
101028.02
101051.25
101075.31
101100.16
101124.61
101147.27
101167.68
101185.46
101200.19
101211.66
101219.61
101223.78
100890.99
100891.43
100892.12
100892.91
100894.06
100895.55
100897.45
100900.05
100903.3
100907.28
100912.17
100918.21
100925.67
100934.86
100946.08
100959.62
100975.53
100993.58
101013.24
101034.53
101054.66
101076.57
101101.32
101124.37
101145.35
101165.3
101182.7
101197.25
101208.65
101216.58
101220.72
100914.07
100914.85
100915.88
100916.98
100918.4
100920.29
100922.64
100925.34
100928.47
100932.18
100936.61
100941.92
100948.34
100956.16
100965.65
100977.09
100990.61
101006.11
101023.14
101041.59
101059.45
101079.43
101102.18
101123.68
101143.99
101163.1
101180.03
101194.31
101205.61
101213.48
101217.58
100938.98
100940.03
100941.36
100942.66
100943.86
100945.88
100948.78
100951.5
100954.46
100957.82
100961.67
100966.16
100971.48
100977.88
100985.64
100995.01
101006.2
101019.2
101033.69
101049.52
101065.09
101082.82
101102.98
101123.3
101143.12
101161.15
101177.47
101191.42
101202.54
101210.33
101214.38
100965.23
100966.42
100967.84
100969.12
100970.85
100973.23
100975.66
100978.19
100980.93
100983.89
100987.11
100990.69
100994.84
100999.8
101005.81
101013.17
101022.1
101032.67
101044.66
101057.89
101071.31
101086.61
101104.9
101124.07
101142.26
101159.33
101175.11
101188.6
101199.48
101207.15
101211.13
100991.73
100992.76
100994.07
100995.76
100998.01
101000.32
101002.52
101004.81
101007.21
101009.68
101012.23
101014.93
101017.93
101021.47
101025.8
101031.23
101038.01
101046.28
101055.94
101066.83
101078.25
101091.17
101107.6
101124.79
101141.87
101157.98
101172.84
101185.88
101196.46
101203.97
101207.88
101018.6
101019.86
101021.36
101022.95
101024.78
101026.72
101028.66
101030.63
101032.57
101034.45
101036.27
101038.08
101040.01
101042.24
101045.04
101048.71
101053.54
101059.73
101067.25
101075.98
101085.46
101096.16
101110.44
101125.85
101141.73
101156.97
101170.97
101183.35
101193.53
101200.81
101204.65
101047.38
101047.35
101047.99
101049.05
101050.28
101051.6
101053.01
101054.46
101055.86
101057.12
101058.21
101059.2
101060.19
101061.32
101062.85
101065.07
101068.25
101072.63
101078.29
101085.09
101092.82
101101.52
101113.83
101127.7
101142.33
101156.34
101169.17
101180.97
101190.7
101197.72
101201.48
101072.87
101073.85
101075.39
101076.42
101076.75
101077.01
101077.33
101077.65
101077.89
101078.03
101078.09
101078.08
101078.09
101078.26
101078.76
101079.82
101081.7
101084.66
101088.78
101093.98
101100.21
101107.23
101117.74
101129.9
101143.12
101155.9
101167.79
101178.89
101188.04
101194.73
101198.4
101093.25
101092.01
101091.41
101091.87
101093.18
101094.65
101096.01
101096.44
101095.91
101095.24
101094.54
101093.82
101093.13
101092.59
101092.36
101092.62
101093.62
101095.57
101098.56
101102.56
101107.54
101113.21
101122.01
101132.55
101144.02
101155.73
101167.1
101177.14
101185.58
101191.9
101195.43
101111.95
101110.91
101110
101109
101107.9
101106.73
101105.67
101105.48
101106.13
101106.66
101106.44
101105.53
101104.6
101103.81
101103.31
101103.29
101103.9
101105.31
101107.59
101110.74
101114.74
101119.4
101126.61
101135.69
101145.62
101156.41
101166.55
101175.45
101183.39
101189.24
101192.55
101124.8
101124.16
101123.27
101122.26
101121.22
101120.13
101118.87
101117.41
101115.88
101114.44
101113.58
101113.25
101112.77
101112.23
101111.97
101112.13
101112.79
101114.04
101115.97
101118.57
101121.85
101125.75
101131.49
101139.24
101147.87
101157.17
101166.08
101174.29
101181.61
101186.88
101189.82
101125.61
101125.52
101125.34
101125.07
101124.74
101124.37
101123.96
101123.51
101122.96
101122.27
101121.46
101120.67
101120.1
101119.85
101119.88
101120.24
101121.01
101122.25
101123.99
101126.21
101128.92
101132.16
101136.68
101143.1
101150.41
101158.13
101166.42
101173.78
101180.03
101184.88
101187.48
101126.84
101127.1
101127.27
101127.38
101127.48
101127.59
101127.7
101127.81
101127.97
101128.11
101127.88
101127.28
101127.11
101127.46
101127.94
101128.52
101129.34
101130.5
101132.01
101133.86
101136.05
101138.64
101142.09
101147.3
101153.35
101159.95
101167.01
101173.45
101179.11
101183.32
101185.69
101131.07
101131.35
101131.58
101131.78
101132.02
101132.32
101132.7
101133.15
101133.62
101133.86
101134.16
101135.01
101135.93
101136.57
101137.11
101137.68
101138.36
101139.23
101140.34
101141.7
101143.3
101145.23
101147.72
101151.81
101156.69
101162.16
101167.91
101173.77