/*--------------------------------*- C++ -*----------------------------------*\
| =========                 |                                                 |
| \\      /  F ield         | OpenFOAM: The Open Source CFD Toolbox           |
|  \\    /   O peration     | Version:  2406                                  |
|   \\  /    A nd           | Website:  www.openfoam.com                      |
|    \\/     M anipulation  |                                                 |
\*---------------------------------------------------------------------------*/
FoamFile
{
    version     2.0;
    format      ascii;
    arch        "LSB;label=32;scalar=64";
    class       volVectorField;
    location    "0.08";
    object      U;
}
// * * * * * * * * * * * * * * * * * * * * * * * * * * * * * * * * * * * * * //

dimensions      [0 1 -1 0 0 0 0];

internalField   nonuniform List<vector> 
2065
(
(55.314342 0.92223806 -2.1848887e-19)
(54.336488 0.44963618 -4.2889292e-24)
(52.385552 0.074714232 4.8244608e-24)
(55.512917 0.21865117 5.1878969e-20)
(55.967791 0.89991733 1.2549163e-21)
(56.273105 1.5203641 -1.9344587e-21)
(56.45543 2.0568889 -4.6882678e-20)
(56.548022 2.4975688 -3.6621472e-20)
(56.584145 2.8377571 2.7756124e-20)
(56.589336 3.0808027 -4.3229268e-20)
(56.587067 3.2323474 -2.6464431e-22)
(56.595683 3.3046626 2.0749253e-22)
(56.622349 3.3053571 -1.600482e-22)
(56.67059 3.2494719 -3.4075943e-20)
(56.738401 3.1418014 0)
(56.806209 2.9883304 0)
(56.838678 2.7914328 0)
(56.794716 2.5396618 8.8584527e-20)
(56.545072 2.1705844 -4.887017e-23)
(56.050833 1.6427697 1.379502e-19)
(55.340886 0.92565335 -5.1540018e-23)
(54.351406 0.45443507 8.2748012e-24)
(52.398719 0.065905055 3.9449023e-21)
(41.742975 -3.5114669 6.8410395e-20)
(43.512985 -3.5619356 -5.5997828e-20)
(45.045542 -3.5763618 2.3195699e-20)
(46.471415 -3.5350926 -9.5926688e-21)
(47.847967 -3.4200633 -2.3714838e-20)
(49.1868 -3.2099646 -6.4789854e-20)
(50.474379 -2.8915241 5.2741938e-21)
(51.682985 -2.4632874 4.259054e-21)
(52.786159 -1.9353665 -3.4120803e-20)
(53.759823 -1.326069 4.6123449e-20)
(54.583302 -0.66279557 -3.4265995e-20)
(55.244619 0.020298075 0)
(55.74463 0.68718719 -1.3087577e-21)
(56.096622 1.3060763 3.4507497e-20)
(56.322874 1.8514966 4.943974e-20)
(56.453805 2.3076689 0)
(56.521493 2.6675562 7.169309e-26)
(56.551481 2.9319691 4.6754587e-20)
(56.567773 3.1047404 -2.8207381e-22)
(56.589766 3.1966701 2.2160556e-22)
(56.625672 3.2178044 -1.7311683e-22)
(56.680075 3.1744784 0)
(56.752262 3.0806606 1.185043e-22)
(56.823206 2.93946 5.2115443e-20)
(56.857336 2.7544681 8.6814027e-23)
(56.818479 2.5113965 -4.9191693e-23)
(56.575618 2.1533842 -5.1311918e-23)
(56.085665 1.6397039 -2.8585524e-19)
(55.369151 0.92920561 2.0379393e-19)
(54.367584 0.45954363 1.1896626e-23)
(52.414405 0.057487772 -1.6283546e-25)
(41.833963 -3.5045631 -1.5840199e-20)
(43.537869 -3.5486299 -2.4071097e-20)
(45.016424 -3.5380306 2.1881092e-20)
(46.380673 -3.4867808 -9.1375609e-21)
(47.690023 -3.3734021 2.281153e-20)
(48.963766 -3.1797357 3.1486393e-20)
(50.196654 -2.8917208 -5.1813919e-21)
(51.367883 -2.5039687 -6.635705e-25)
(52.453213 -2.0211242 3.4215707e-21)
(53.428519 -1.4561685 -2.7481294e-21)
(54.271385 -0.83130435 2.1882109e-21)
(54.966316 -0.1765587 0)
(55.508777 0.4743108 0)
(55.906607 1.0893801 3.050923e-24)
(56.177496 1.6414955 0)
(56.348455 2.111715 0)
(56.44977 2.4904624 -3.2232218e-20)
(56.506693 2.775961 3.8494967e-22)
(56.543512 2.9701648 3.8748318e-20)
(56.580433 3.0822206 -4.7226519e-22)
(56.627058 3.1218331 1.8760051e-22)
(56.688647 3.0943945 0)
(56.765785 3.0152415 -6.4506977e-20)
(56.840376 2.8870268 -2.1885765e-22)
(56.876244 2.7147516 7.7065062e-23)
(56.843322 2.4804747 -9.8564385e-20)
(56.607493 2.1346068 -5.3783469e-23)
(56.12229 1.6359116 4.4904016e-24)
(55.399355 0.93287083 -1.9646678e-19)
(54.385011 0.46489412 0)
(52.430638 0.049706796 0)
(41.894483 -3.563102 0)
(43.532079 -3.5938252 -2.5342624e-24)
(44.960314 -3.5636536 0)
(46.272182 -3.4963785 -1.7356598e-20)
(47.524638 -3.3762873 -2.7501743e-24)
(48.74136 -3.1887036 -3.6580127e-20)
(49.924011 -2.9198279 0)
(51.058318 -2.5619438 -3.3400611e-20)
(52.12334 -2.115504 0)
(53.096129 -1.588776 0)
(53.953747 -0.99905549 4.4495305e-21)
(54.678055 -0.37192028 -6.0303664e-20)
(55.260189 0.26184295 -4.4914839e-20)
(55.702724 0.87106755 -3.6415056e-20)
(56.018666 1.4276866 8.6301377e-22)
(56.231159 1.9103064 0)
(56.368126 2.3068404 -3.4052536e-20)
(56.454174 2.6129324 8.1622612e-22)
(56.5136 2.8285992 -4.1163341e-20)
(56.567192 2.9612111 -2.5129088e-22)
(56.626003 3.0197087 -5.1008852e-20)
(56.695925 3.0089738 0)
(56.778734 2.945321 6.8772421e-20)
(56.857556 2.830845 -5.8951774e-20)
(56.895643 2.6719999 7.878688e-27)
(56.869016 2.446706 -1.0075704e-22)
(56.64083 2.1141687 5.6247833e-23)
(56.160843 1.6312852 1.5225919e-19)
(55.431575 0.93662252 -1.8975323e-19)
(54.403873 0.47040174 2.1873178e-23)
(52.445256 0.041808167 5.1495139e-20)
(41.906052 -3.7109517 2.5111447e-20)
(43.492099 -3.6940435 2.1078977e-20)
(44.870365 -3.6492171 0)
(46.137283 -3.5593429 -1.6435188e-20)
(47.342407 -3.4257106 4.1791242e-20)
(48.51083 -3.2358172 1.1751596e-20)
(49.649259 -2.9764311 1.9717941e-20)
(50.749153 -2.6387339 2.4606942e-20)
(51.79337 -2.2202199 0)
(52.761049 -1.7253016 0)
(53.62977 -1.1667875 -3.5972034e-20)
(54.379857 -0.56579604 5.7856658e-20)
(54.998897 0.050326325 8.9443699e-20)
(55.484795 0.6519827 2.2848516e-21)
(55.845913 1.2109654 0)
(56.101215 1.7041669 4.5147063e-20)
(56.275771 2.1171768 1.1027762e-21)
(56.393142 2.4431362 5.4347398e-20)
(56.477337 2.680093 -4.3284027e-20)
(56.549501 2.833547 3.4409236e-20)
(56.622125 2.9114894 5.421404e-20)
(56.701598 2.9179085 4.342953e-20)
(56.790853 2.8706044 7.2920066e-20)
(56.874594 2.7706315 -6.2655276e-20)
(56.915706 2.6257327 0)
(56.895585 2.4097914 -1.0746241e-19)
(56.67547 2.0919839 0)
(56.201269 1.6257138 1.5668752e-19)
(55.46594 0.94040172 1.8367126e-19)
(54.424271 0.4759271 0)
(52.459192 0.034467601 -4.2727308e-20)
(41.8641 -3.8724622 -4.5460087e-20)
(43.39292 -3.856518 -2.0785219e-20)
(44.7342 -3.7812739 -1.4882292e-24)
(45.966183 -3.6670333 4.6553173e-20)
(47.133923 -3.5162149 0)
(48.263388 -3.317987 1.1289644e-20)
(49.364878 -3.0603942 -9.5513864e-21)
(50.434644 -2.7345371 -8.02168e-21)
(51.45944 -2.336127 6.6808912e-21)
(52.42108 -1.8666466 0)
(53.298448 -1.3350238 3.6142006e-20)
(54.071324 -0.75814529 0)
(54.724732 -0.15966051 -9.1444261e-20)
(55.252561 0.43303044 -4.0031879e-20)
(55.658734 0.99232602 0)
(55.957902 1.494151 -4.7120254e-20)
(56.17187 1.9220957 3.8195677e-20)
(56.322754 2.2669516 -5.9069368e-20)
(56.433943 2.5248042 4.5028447e-20)
(56.526703 2.6992278 -3.5598652e-20)
(56.61478 2.7970917 0)
(56.705128 2.8252891 3.5476824e-22)
(56.801965 2.7908492 -1.5528368e-19)
(56.891315 2.7061685 6.6483798e-20)
(56.936606 2.5755205 -7.3827766e-23)
(56.922684 2.3700658 1.115419e-19)
(56.711422 2.0680236 1.2225445e-22)
(56.243625 1.6190573 -1.6075683e-19)
(55.502572 0.94412716 -1.7855938e-19)
(54.44632 0.48125363 1.3895863e-23)
(52.473625 0.027921829 0)
(41.753052 -4.083105 2.2347e-20)
(43.233467 -4.0483507 -3.8994362e-20)
(44.546248 -3.9464442 1.6893973e-20)
(45.751484 -3.8099553 -5.8436011e-20)
(46.891116 -3.6406426 0)
(47.990941 -3.4302715 2.1605938e-20)
(49.063455 -3.1688319 0)
(50.108707 -2.8480947 -7.8064222e-21)
(51.117106 -2.4629891 6.5588045e-21)
(52.073368 -2.0129884 0)
(52.958265 -1.5038844 4.5157771e-21)
(53.7518 -0.94870862 -3.6955229e-21)
(54.437436 -0.36743351 5.097939e-20)
(55.005792 0.21520821 3.6194083e-20)
(55.456726 0.77287769 -1.9277805e-21)
(55.80059 1.2812542 -8.3334805e-25)
(56.055654 1.7223697 1.2089847e-21)
(56.242193 2.0848927 9.5414768e-22)
(56.382637 2.3630003 4.7437449e-20)
(56.498113 2.5583028 5.9697995e-22)
(56.603287 2.6763781 2.0357229e-25)
(56.706306 2.7244864 -4.9181303e-20)
(56.811874 2.7057525 1.6372679e-19)
(56.907511 2.6372264 -2.7398553e-22)
(56.958217 2.5210677 -4.3794998e-20)
(56.950064 2.3279821 1.1338597e-22)
(56.748625 2.0421944 -1.2698067e-22)
(56.287911 1.6111603 1.6023822e-22)
(55.541597 0.9476932 1.7451078e-19)
(54.470133 0.48608129 0)
(52.489308 0.022195752 0)
(41.574543 -4.3298977 -2.0929304e-20)
(43.015927 -4.2645601 1.3651419e-24)
(44.303109 -4.1394451 -2.8387297e-24)
(45.487834 -3.9805914 2.7429765e-20)
(46.607491 -3.7915706 2.3828743e-20)
(47.68643 -3.5665616 -1.0295951e-20)
(48.738115 -3.2973435 -8.8553607e-21)
(49.765361 -2.976647 -2.2690478e-20)
(50.761709 -2.59931 1.9227843e-20)
(51.71469 -2.1636035 5.3862828e-21)
(52.607284 -1.6728621 -4.4865286e-21)
(53.420346 -1.1368639 0)
(54.136615 -0.57211616 0)
(54.744245 -0.00036307915 2.4596746e-21)
(55.239545 0.5538573 -1.9785058e-21)
(55.628729 1.066629 -1.5822683e-21)
(55.926406 1.5189324 1.2575705e-21)
(56.150662 1.8976234 6.382804e-20)
(56.322629 2.1950751 -1.0038779e-19)
(56.463018 2.410922 2.940813e-25)
(56.587168 2.5493075 -5.0334704e-22)
(56.704552 2.6163212 0)
(56.820156 2.6150457 -8.6628737e-20)
(56.922933 2.563591 0)
(56.980225 2.4621645 4.9361796e-20)
(56.978066 2.2832078 1.1879539e-22)
(56.78704 2.0143784 1.3155187e-22)
(56.334118 1.6018484 0)
(55.583164 0.95097479 -1.7483127e-19)
(54.495818 0.49004216 0)
(52.506902 0.017306711 0)
(41.317556 -4.587543 -1.9134346e-20)
(42.7266 -4.4976898 -1.6591428e-20)
(43.99579 -4.3505147 2.9245956e-20)
(45.168137 -4.1694564 -2.5693001e-20)
(46.276413 -3.960328 -2.2474363e-20)
(47.343278 -3.7193979 -1.5948387e-24)
(48.382536 -3.4399904 1.696317e-20)
(49.398959 -3.1158618 2.9178613e-20)
(50.388654 -2.7421702 -2.4919313e-20)
(51.341694 -2.3165837 -3.1679054e-20)
(52.24333 -1.8406582 2.6615829e-20)
(53.075816 -1.3215503 -7.3864799e-21)
(53.821777 -0.77255637 4.8752317e-20)
(54.467688 -0.21237716 4.9825024e-21)
(55.006912 0.33665179 2.0213185e-21)
(55.441869 0.85158763 -1.62659e-21)
(55.783494 1.3128875 0)
(56.04741 1.7059703 -6.6437182e-20)
(56.253137 2.0215642 5.3726071e-20)
(56.420692 2.2573601 -6.5934803e-22)
(56.565874 2.4159712 -5.2969684e-22)
(56.699451 2.5022708 4.3027537e-22)
(56.826418 2.5184681 8.8932984e-20)
(56.937274 2.4850875 -6.1388803e-26)
(57.002488 2.3985909 4.2937104e-22)
(57.006744 2.2354156 -8.3002963e-27)
(56.826613 1.9844296 -4.0763507e-22)
(56.382217 1.5909212 1.6557364e-22)
(55.627331 0.95378655 7.5321098e-24)
(54.523504 0.49273926 0)
(52.526971 0.013107045 0)
(40.986051 -4.8354451 -1.745237e-20)
(42.364886 -4.7264541 -3.0755321e-24)
(43.62115 -4.561275 -2.7113166e-20)
(44.788023 -4.3614676 2.39863e-20)
(45.89292 -4.1345966 2.1150478e-20)
(46.956242 -3.8787397 3.7090924e-20)
(47.991475 -3.5887764 -8.08868e-20)
(49.004629 -3.259639 -2.8046616e-20)
(49.993789 -2.887137 -1.2064223e-20)
(50.951205 -2.4688269 5.1488086e-20)
(51.864325 -2.0051135 9.1636018e-24)
(52.717026 -1.5010852 0)
(53.492405 -0.96722927 -9.7427087e-20)
(54.175929 -0.41928637 0)
(54.758663 0.12283247 6.9768734e-20)
(55.239687 0.63761492 -3.3276693e-21)
(55.626392 1.1055166 2.6825162e-21)
(55.931755 1.5109333 6.4527629e-20)
(56.173408 1.8431594 1.720736e-21)
(56.370397 2.0980241 0)
(56.538752 2.2765728 5.5526815e-22)
(56.690291 2.3824237 -4.5180362e-22)
(56.830032 2.4216211 -1.8440184e-19)
(56.950407 2.4015845 -3.1899579e-22)
(57.024717 2.3302016 -6.3048616e-20)
(57.035948 2.1841711 -2.6359737e-22)
(56.867245 1.9521908 2.7986592e-22)
(56.43217 1.5781498 0)
(55.674143 0.95590327 3.5472747e-19)
(54.553284 0.49373937 -5.8055985e-20)
(52.549821 0.0091630117 6.6985238e-21)
(40.580642 -5.0724933 -3.1755809e-20)
(41.932538 -4.9443014 -2.6915702e-24)
(43.179519 -4.762244 7.5218194e-20)
(44.346184 -4.5456783 -2.2363392e-20)
(45.454534 -4.3031692 -1.945424e-25)
(46.522111 -4.0340707 -1.751918e-20)
(47.561355 -3.7345098 -1.0472555e-23)
(48.578791 -3.4004399 2.6842898e-20)
(49.573884 -3.0283702 0)
(50.54063 -2.616016 0)
(51.468484 -2.1630764 9.5063489e-24)
(52.342998 -1.6730979 -5.7730886e-20)
(53.148086 -1.1541452 4.2344881e-20)
(53.868887 -0.61924421 -1.7027952e-24)
(54.494779 -0.085815659 -6.213108e-20)
(55.022019 0.42638187 -5.4165692e-20)
(55.454722 0.89828289 2.7474088e-21)
(55.803122 1.3136932 -7.3154273e-20)
(56.082746 1.6607196 -1.7840001e-21)
(56.311411 1.9334614 4.5923658e-20)
(56.505107 2.1313751 7.6526286e-20)
(56.676234 2.2567709 -9.4553266e-22)
(56.830782 2.3179007 2.9737361e-24)
(56.962232 2.3128781 0)
(57.046846 2.2576507 7.3651885e-20)
(57.065394 2.1290552 2.7706762e-22)
(56.908783 1.9175008 -3.3244426e-26)
(56.483915 1.5632694 -3.3722945e-22)
(55.723684 0.9570831 -9.4609669e-23)
(54.585247 0.49266033 5.9113887e-20)
(52.57529 0.004690962 0)
(40.094593 -5.2715732 1.4414783e-20)
(41.425999 -5.1276594 2.5610722e-20)
(42.66941 -4.9333957 -2.3132144e-20)
(43.841948 -4.704817 2.0792402e-20)
(44.960583 -4.451024 1.8571654e-20)
(46.039851 -4.1724074 -1.650993e-20)
(47.090725 -3.8661784 2.916501e-20)
(48.119714 -3.5291971 -2.5620346e-20)
(49.127177 -3.1586787 -1.1168851e-20)
(50.108433 -2.7526586 9.6670194e-21)
(51.054676 -2.3104625 -3.3215809e-20)
(51.953127 -1.834452 6.3681798e-20)
(52.788693 -1.3307531 -5.9776769e-21)
(53.546705 -0.81005525 4.0058921e-20)
(54.215457 -0.2872756 -6.6515512e-20)
(54.788929 0.21974892 5.4759493e-20)
(55.268292 0.69283404 2.7979086e-21)
(55.661074 1.1156143 -2.2720789e-21)
(55.980544 1.4752789 0)
(56.243047 1.7643727 -4.9066589e-20)
(56.464259 1.9807531 -1.5312749e-19)
(56.656816 2.1253703 -6.3090615e-20)
(56.828003 2.2049264 2.9556433e-24)
(56.9722 2.2185439 -8.8403447e-20)
(57.068139 2.1816196 -3.0477487e-22)
(57.094719 2.0702418 -1.4775798e-19)
(56.951037 1.8801816 0)
(56.537383 1.5459832 -3.3873197e-22)
(55.776045 0.95706551 -1.7799188e-19)
(54.619503 0.48927615 0)
(52.602707 -0.00095358913 -1.7231469e-21)
(39.538559 -5.4131296 2.6137072e-20)
(40.853039 -5.257752 0)
(42.096846 -5.0568469 -1.0652384e-20)
(43.280092 -4.8222013 -5.7860562e-20)
(44.414734 -4.562896 1.7348509e-20)
(45.51207 -4.2800909 1.5510472e-20)
(46.581233 -3.9718819 0)
(47.628251 -3.6358568 1.2173673e-20)
(48.653976 -3.2698627 -1.0686464e-20)
(49.654652 -2.8722692 0)
(50.622905 -2.442247 3.2204656e-20)
(51.547499 -1.981282 0)
(52.414579 -1.4940529 -5.8770672e-21)
(53.209903 -0.98919786 -7.9325898e-20)
(53.921204 -0.47931501 7.0495171e-20)
(54.540746 0.019756861 0)
(55.067148 0.4910008 0)
(55.505362 0.91824159 7.4133092e-20)
(55.86632 1.2880499 0)
(56.164693 1.5916245 1.5330834e-21)
(56.415564 1.8252583 -1.2479991e-21)
(56.631626 1.9885268 6.5490246e-20)
(56.821261 2.0865748 2.1858144e-19)
(56.97957 2.1183815 9.1854606e-20)
(57.08754 2.1011045 0)
(57.123758 2.007963 1.5195e-19)
(56.993739 1.8400922 0)
(56.59247 1.5259334 -3.3889235e-22)
(55.831313 0.9555802 2.6237235e-22)
(54.656175 0.48358353 -2.9500761e-23)
(52.631167 -0.0075493344 8.5054832e-21)
(38.930337 -5.4704099 -2.3653013e-20)
(40.229818 -5.3108963 1.0667084e-20)
(41.475836 -5.1114488 -2.9383986e-20)
(42.672382 -4.879131 3.5709824e-20)
(43.826588 -4.6223926 -1.6175221e-20)
(44.946363 -4.3428566 0)
(46.038686 -4.0393262 2.6013108e-20)
(47.108659 -3.7100161 -3.6211211e-24)
(48.157285 -3.3533052 0)
(49.1814 -2.967873 0)
(50.174732 -2.5529085 1.024267e-23)
(51.127417 -2.1093275 0)
(52.026881 -1.6406857 0)
(52.859544 -1.1538929 4.3939684e-20)
(53.612947 -0.65950276 -4.1133834e-21)
(54.278137 -0.17139543 0)
(54.851629 0.29476145 0)
(55.335976 0.72328521 -7.2774599e-20)
(55.739765 1.1004189 -1.9231855e-21)
(56.075839 1.4162541 -5.0300076e-20)
(56.358422 1.6656033 1.6455023e-19)
(56.600081 1.8466909 6.7670739e-20)
(56.810125 1.9630694 -2.8722309e-24)
(56.983842 2.0123508 0)
(57.105046 2.0146498 -8.4902666e-20)
(57.152364 1.9414868 1.5658439e-19)
(57.036704 1.7964521 0)
(56.649036 1.502689 3.3783663e-22)
(55.889554 0.95235654 -1.7701703e-22)
(54.695391 0.47586469 0)
(52.659929 -0.01455374 0)
(38.295629 -5.4362933 -7.4827467e-20)
(39.580429 -5.2788479 1.94184e-20)
(40.828038 -5.0877229 4.6664091e-24)
(42.037591 -4.86533 3.3022134e-20)
(43.211931 -4.6189632 1.5043024e-20)
(44.355641 -4.3503583 -2.723253e-20)
(45.473374 -4.0587718 7.344079e-20)
(46.568953 -3.7428352 -2.1860435e-20)
(47.64318 -3.4012541 -1.9394295e-20)
(48.693214 -3.0329231 5.1251984e-20)
(49.713568 -2.6370839 -4.4824401e-20)
(50.695553 -2.2142619 -1.2979619e-20)
(51.627757 -1.7671458 1.1186076e-20)
(52.497407 -1.3012327 4.7843682e-20)
(53.292145 -0.82529861 5.6826371e-20)
(54.002212 -0.35140777 6.8318542e-21)
(54.622428 0.10620852 -5.7035535e-21)
(55.15319 0.53259138 0)
(55.600785 0.91393113 -5.8513496e-20)
(55.976118 1.2394657 9.7780475e-20)
(56.292302 1.5026588 -8.2986016e-20)
(56.561561 1.7004636 -6.9584931e-20)
(56.793666 1.834833 -1.1610271e-19)
(56.984538 1.9093592 0)
(57.120656 1.9227944 8.6628053e-20)
(57.179829 1.8704014 -1.5949977e-19)
(57.079721 1.7478918 1.5765819e-19)
(56.706865 1.4758926 0)
(55.950802 0.94713163 1.8072925e-22)
(54.737273 0.46674002 -6.027938e-23)
(52.688521 -0.021872719 0)
(37.65766 -5.3044128 0)
(38.927496 -5.1560267 1.7660263e-20)
(40.175116 -4.9800615 -1.6483604e-20)
(41.395868 -4.7749424 -1.5239133e-20)
(42.588905 -4.5465215 -1.39819e-20)
(43.75572 -4.2963776 -2.5443027e-20)
(44.898679 -4.0239941 2.3000252e-20)
(46.020156 -3.7282423 4.127434e-20)
(47.120498 -3.4080019 -3.3139577e-24)
(48.197019 -3.0622596 1.2388879e-23)
(49.24478 -2.6902672 2.8644815e-20)
(50.256064 -2.2922402 -1.2505438e-20)
(51.22051 -1.8701783 5.4209677e-20)
(52.126122 -1.4283888 9.7438979e-24)
(52.960897 -0.97418833 -6.3714916e-20)
(53.714583 -0.5179645 0)
(54.380655 -0.072517276 -4.5396818e-20)
(54.957621 0.34809374 -7.580133e-20)
(55.449547 0.73026161 6.2908166e-20)
(55.865344 1.062616 2.5699767e-24)
(56.216784 1.3374401 -8.5910402e-20)
(56.515498 1.5504494 -6.8958939e-20)
(56.77112 1.7019624 -1.2090811e-19)
(56.98131 1.794776 1.0099159e-19)
(57.134013 1.8254711 0)
(57.205633 1.7941258 -1.624205e-19)
(57.122278 1.6934041 -1.5829441e-19)
(56.765607 1.4452492 -6.6450309e-22)
(56.015069 0.93968851 1.8670304e-22)
(54.781924 0.45720037 -6.1074576e-23)
(52.716672 -0.029709561 1.4694217e-20)
(37.049027 -5.0845042 0)
(38.301185 -4.9505433 2.4075282e-20)
(39.54471 -4.7944397 -2.2646456e-20)
(40.772133 -4.6117912 -4.2173779e-20)
(41.979558 -4.4069632 6.4845261e-20)
(43.165728 -4.1812015 -3.5601499e-20)
(44.330852 -3.9340182 -2.1555827e-20)
(45.47581 -3.6643451 4.6042103e-24)
(46.600329 -3.3710555 -3.4818553e-20)
(47.701733 -3.0530841 -3.0960049e-20)
(48.775437 -2.7095949 9.8106907e-24)
(49.814495 -2.3404997 4.8029141e-20)
(50.809496 -1.9471469 -8.3705986e-20)
(51.749204 -1.532924 -2.7156981e-20)
(52.622007 -1.1038908 -7.7769228e-21)
(53.417429 -0.66888841 5.3054335e-20)
(54.127904 -0.23932998 -7.3432302e-24)
(54.75027 0.17175621 7.5458012e-20)
(55.286528 0.55117349 3.9402918e-21)
(55.74356 0.88719172 3.9653987e-24)
(56.131602 1.1711108 8.4328457e-20)
(56.461456 1.3974624 1.425891e-19)
(56.742378 1.5649641 3.7971413e-21)
(56.973704 1.6747154 -2.0844776e-19)
(57.144197 1.7224896 9.0399686e-20)
(57.22934 1.711934 1.6406405e-19)
(57.163951 1.631793 6.2078045e-22)
(56.824743 1.4105699 0)
(56.082382 0.92992418 -1.9468192e-22)
(54.829432 0.44861371 -6.3453267e-20)
(52.744311 -0.038186444 -1.2555949e-20)
(36.485383 -4.8014622 0)
(37.716503 -4.6850745 0)
(38.951756 -4.5509029 6.9090702e-21)
(40.181392 -4.3927598 1.2947567e-20)
(41.398801 -4.2137948 -1.2023251e-20)
(42.600142 -4.0150038 1.1060758e-20)
(43.783534 -3.7959499 -2.0186315e-20)
(44.94837 -3.5555998 1.8280373e-20)
(46.093701 -3.2927399 1.6437566e-20)
(47.216828 -3.0061311 0)
(48.313482 -2.6947016 -3.9090328e-20)
(49.377403 -2.3579618 -6.8927055e-20)
(50.400018 -1.9966306 9.0548745e-20)
(51.37093 -1.6132463 -2.6257609e-20)
(52.278942 -1.2126546 -6.0476885e-20)
(53.113494 -0.80233209 -5.1854757e-20)
(53.866237 -0.39231466 3.311759e-20)
(54.532555 0.0054869126 7.9373109e-20)
(55.112547 0.37845941 3.9249084e-21)
(55.611078 0.71477363 -5.5814911e-20)
(56.036683 1.0049692 -2.7407287e-21)
(56.399117 1.2424961 -7.0989344e-20)
(56.707106 1.4245775 1.2324566e-19)
(56.961497 1.5506281 1.0505992e-19)
(57.150883 1.6134685 -8.7752298e-20)
(57.250378 1.6228337 1.6497485e-19)
(57.204453 1.5623407 -1.5538976e-19)
(56.883602 1.37192 0)
(56.152429 0.91773839 2.0839744e-19)
(54.879901 0.44268782 6.4802002e-20)
(52.771725 -0.046985398 9.2325913e-21)
(35.995524 -4.4627781 5.6726533e-20)
(37.19833 -4.3677512 -5.2928954e-20)
(38.417724 -4.2579741 9.4767664e-20)
(39.642257 -4.1265958 -4.1041094e-25)
(40.862932 -3.9757162 -3.3396568e-20)
(42.073411 -3.8060647 4.11703e-20)
(43.269654 -3.6172502 -5.661709e-20)
(44.449437 -3.4083025 3.4330664e-20)
(45.610977 -3.1779705 -3.1000322e-20)
(46.751454 -2.9248834 2.7799736e-20)
(47.86687 -2.6477429 -2.4766242e-20)
(48.951605 -2.3456781 -7.2129737e-24)
(49.997906 -2.0188182 -3.8560458e-20)
(50.996163 -1.6688418 3.3697832e-20)
(51.935713 -1.2994994 5.850888e-20)
(52.806025 -0.91695224 0)
(53.598172 -0.5298739 5.4022761e-21)
(54.306312 -0.14898512 -8.2722722e-20)
(54.928793 0.21386202 7.7733934e-21)
(55.468505 0.54698439 -6.5416047e-21)
(55.932172 0.84041714 8.7829109e-20)
(56.328289 1.0866897 2.3035162e-21)
(56.664869 1.2817474 -1.9435797e-21)
(56.943803 1.423428 1.6588662e-21)
(57.15364 1.5103389 0)
(57.269267 1.5271789 1.2824729e-21)
(57.241759 1.4895408 -1.1683992e-21)
(56.941564 1.3296417 0)
(56.224893 0.90328293 -2.1838599e-19)
(54.933262 0.44106367 1.2922607e-22)
(52.799731 -0.055487121 -9.8925635e-21)
(35.588372 -4.1190967 -3.1995592e-21)
(36.755166 -4.0439084 0)
(37.950473 -3.9559489 5.7763256e-21)
(39.161949 -3.8482857 -4.3877474e-20)
(40.378716 -3.7223074 5.8973752e-25)
(41.592102 -3.5786962 6.0701824e-25)
(42.795798 -3.4173062 5.2873487e-20)
(43.98572 -3.2374238 3.2193256e-20)
(45.158963 -3.037917 -2.9179804e-20)
(46.31237 -2.8173618 2.6262016e-20)
(47.442123 -2.5742186 -2.3481545e-20)
(48.543202 -2.3071773 2.0860089e-20)
(49.608695 -2.0157044 0)
(50.629825 -1.7005881 -1.6168132e-20)
(51.596573 -1.3644474 -4.2307443e-20)
(52.498608 -1.0121155 6.1099246e-20)
(53.326617 -0.650893 -2.1040956e-20)
(54.073758 -0.29021659 9.0005911e-21)
(54.736814 0.058980688 0)
(55.316767 0.38542177 0)
(55.818464 0.67891426 -9.0181039e-20)
(56.248947 0.93127319 2.3041119e-21)
(56.615267 1.1373601 0)
(56.919431 1.2936597 0)
(57.152583 1.403833 0)
(57.286106 1.4315522 -1.6059983e-19)
(57.275889 1.4148784 1.4690665e-19)
(56.997906 1.2839934 6.1701774e-22)
(56.299358 0.88687951 4.4581304e-22)
(54.98944 0.44529972 6.6041709e-23)
(52.82984 -0.064060409 1.2304048e-20)
(35.269111 -3.7622655 -4.3332379e-20)
(36.390216 -3.7075665 4.9065833e-20)
(37.551751 -3.6416762 -4.7500997e-20)
(38.741247 -3.5577375 5.7021892e-25)
(39.946486 -3.4564522 3.8088128e-20)
(41.156637 -3.3383253 0)
(42.362941 -3.2033642 -1.6447687e-20)
(43.559046 -3.0511422 3.0152248e-20)
(44.740434 -2.880805 -2.7426724e-20)
(45.903203 -2.6911046 -3.9772175e-24)
(47.04349 -2.4804932 -4.4437542e-20)
(48.156786 -2.247423 9.3976478e-26)
(49.237041 -1.9908409 1.7553347e-20)
(50.276423 -1.7107406 1.5463196e-20)
(51.265679 -1.4086086 4.0616409e-20)
(52.194927 -1.088022 -4.7142413e-20)
(53.054713 -0.75485287 0)
(53.837418 -0.41717867 8.7709357e-21)
(54.538488 -0.084835865 -6.7501386e-20)
(55.157105 0.23158016 -5.1054971e-20)
(55.696221 0.52192351 -5.4114679e-21)
(56.161276 0.77753868 8.250311e-20)
(56.558119 0.99234182 -1.9462919e-21)
(56.888265 1.1618014 1.0505415e-19)
(57.146123 1.2864165 0)
(57.299226 1.3427509 1.5714651e-19)
(57.307216 1.3383892 -1.452061e-19)
(57.052216 1.2352208 -6.0083929e-22)
(56.374994 0.86882367 -4.7056364e-22)
(55.048295 0.45642849 6.7581246e-23)
(52.864209 -0.07074038 -2.2123751e-20)
(35.047262 -3.4193478 8.3534474e-20)
(36.115196 -3.3830694 -4.9499271e-21)
(37.233588 -3.3369604 -4.5053927e-25)
(38.39093 -3.2745094 -3.7080355e-20)
(39.574792 -3.1956646 0)
(40.773062 -3.1006097 8.2548799e-21)
(41.974966 -2.9893956 1.5326075e-20)
(43.17186 -2.8618632 2.8208967e-20)
(44.35721 -2.7175266 -5.1489814e-20)
(45.525806 -2.5554892 6.9963018e-20)
(46.673242 -2.374412 -4.197247e-20)
(47.795156 -2.1727274 1.876731e-20)
(48.886183 -1.94905 -1.6683992e-20)
(49.939487 -1.7026729 2.9495067e-20)
(50.94668 -1.4341201 -6.4815603e-20)
(51.898487 -1.1457379 4.5317474e-20)
(52.785637 -0.84193765 0)
(53.600015 -0.52936676 6.8053941e-20)
(54.335954 -0.21656689 1.1696199e-19)
(54.991043 0.086773293 5.62655e-20)
(55.566374 0.37085336 -5.3272318e-21)
(56.065692 0.62682747 -7.2524587e-20)
(56.49346 0.84787012 6.5687131e-20)
(56.850516 1.0288238 -1.1277399e-19)
(57.13297 1.166284 2.8886142e-21)
(57.307382 1.2545161 -9.3855239e-24)
(57.335431 1.2608725 1.4480725e-19)
(57.104344 1.183777 1.1661452e-21)
(56.450485 0.84928236 -9.925874e-22)
(55.10956 0.4744706 0)
(52.904774 -0.073439827 2.8109826e-20)
(34.91657 -3.0990722 -3.5432165e-20)
(35.925168 -3.0791063 7.1970889e-20)
(36.992432 -3.050128 -7.051616e-20)
(38.108581 -3.0065376 3.4069415e-20)
(39.261884 -2.9476914 0)
(40.43983 -2.8733133 2.2968036e-20)
(41.630258 -2.7833097 -5.7100407e-20)
(42.822487 -2.6776398 6.6331277e-25)
(44.007791 -2.556131 4.8274994e-20)
(45.179185 -2.4182981 -2.1931197e-20)
(46.331172 -2.2631827 0)
(47.459034 -2.0894389 1.7746827e-20)
(48.557757 -1.8956081 -1.5822748e-20)
(49.62131 -1.6805447 0)
(50.642312 -1.4440062 4.9476793e-20)
(51.612282 -1.1871574 -4.3396801e-20)
(52.522355 -0.91304392 0)
(53.364257 -0.6268189 -1.2321815e-19)
(54.131501 -0.3355916 -6.3823643e-20)
(54.820322 -0.047938233 0)
(55.430105 0.22699516 -5.2176832e-21)
(55.96284 0.48047273 4.458329e-21)
(56.421489 0.70519182 -6.4838333e-20)
(56.806189 0.89547128 6.5624209e-21)
(57.112886 1.0451107 -2.8581088e-21)
(57.309626 1.1513721 -1.594718e-19)
(57.35971 1.1805343 1.1217797e-21)
(57.153832 1.1305502 1.1288295e-21)
(56.523981 0.8281843 2.6007678e-19)
(55.172817 0.49819345 7.1895292e-20)
(52.952803 -0.071811501 -3.1310888e-20)
(34.871745 -2.8037719 -6.7846503e-20)
(35.81747 -2.7994139 0)
(36.827554 -2.7850259 0)
(37.89467 -2.7576189 5.4778611e-20)
(39.008656 -2.7163306 -5.9987919e-20)
(40.157559 -2.6604085 0)
(41.328699 -2.5894193 0)
(42.509944 -2.5032385 -1.2309312e-20)
(43.69055 -2.4018533 0)
(44.861509 -2.2851255 0)
(46.015723 -2.1525356 1.863709e-20)
(47.147533 -2.0031295 5.0263473e-20)
(48.251764 -1.8356325 -2.9952509e-20)
(49.322869 -1.6487598 2.6628125e-20)
(50.354335 -1.4417147 -1.1775509e-20)
(51.3386 -1.2147587 -2.0722442e-20)
(52.26742 -0.96966292 -4.09508e-26)
(53.132679 -0.71011952 7.1114321e-20)
(53.927431 -0.44174613 5.4809109e-20)
(54.646841 -0.17180071 -4.7302602e-20)
(55.288801 0.091464583 8.6434548e-20)
(55.85358 0.33973559 -4.3624817e-21)
(56.342576 0.56554626 3.7449819e-21)
(56.755003 0.7627807 -3.2292466e-21)
(57.085581 0.92386527 0)
(57.305728 1.0562205 1.525928e-19)
(57.378574 1.096668 2.2222421e-21)
(57.198472 1.0752298 -1.0895956e-21)
(56.594362 0.80531624 -2.5737758e-19)
(55.237467 0.52524489 -1.4633871e-19)
(53.009137 -0.066983123 4.4995589e-25)
(34.900052 -2.5434477 4.5372356e-25)
(35.783086 -2.5449852 -3.6903312e-21)
(36.733208 -2.5445911 0)
(37.746099 -2.5306061 -5.0343816e-20)
(38.813893 -2.5041015 5.5363333e-20)
(39.926037 -2.4642061 0)
(41.070248 -2.4100665 -4.9408516e-20)
(42.233762 -2.3412596 5.7410388e-20)
(43.404346 -2.2577271 0)
(44.571083 -2.1595167 0)
(45.725012 -2.0464772 -1.7522044e-20)
(46.859022 -1.9180911 -3.1584958e-20)
(47.967202 -1.7734339 0)
(49.044001 -1.6113364 0)
(50.083442 -1.4307734 -4.4730544e-20)
(51.078843 -1.2313304 0)
(52.022758 -1.0137295 -5.1995949e-20)
(52.90746 -0.78033242 1.5149809e-20)
(53.725903 -0.5352668 -1.0546348e-19)
(54.472537 -0.28440126 4.5688308e-20)
(55.143984 -0.034854758 -1.627276e-19)
(55.738975 0.20576176 4.2477186e-21)
(56.257299 0.4300951 5.8539619e-20)
(56.696951 0.63148701 1.0119002e-19)
(57.05106 0.80229389 8.5473079e-20)
(57.295009 0.9460957 -1.5349889e-19)
(57.391396 1.0062662 0)
(57.236246 1.01579 0)
(56.659867 0.78012833 2.5578908e-19)
(55.301744 0.55257536 7.5370586e-20)
(53.074611 -0.062151577 3.4169194e-20)
(34.991068 -2.3098306 -5.8039007e-20)
(35.811516 -2.3210146 1.1055384e-19)
(36.701797 -2.3252575 -1.0689739e-19)
(37.657905 -2.3245101 4.6285022e-20)
(38.674802 -2.3105319 -5.1096689e-20)
(39.744056 -2.2843637 8.489899e-25)
(40.854569 -2.245081 -1.1481031e-20)
(41.993772 -2.1918844 3.2113744e-20)
(43.148655 -2.1244571 9.8874275e-21)
(44.306815 -2.0428291 -1.810979e-20)
(45.457466 -1.9470621 -1.6462734e-20)
(46.591758 -1.8370053 4.4597466e-20)
(47.702535 -1.7121367 -1.055576e-24)
(48.783702 -1.5715769 -2.3844781e-20)
(49.829446 -1.4143264 6.3570586e-20)
(50.833643 -1.2395747 -3.7494241e-20)
(51.789632 -1.0473339 8.2549129e-20)
(52.690318 -0.83880771 0)
(53.52882 -0.61676626 -6.9395384e-24)
(54.299245 -0.38567143 -3.2973026e-20)
(54.997251 -0.15132683 6.6664971e-20)
(55.620231 0.079560046 0)
(56.166472 0.30006394 -5.3360459e-20)
(56.632758 0.50344169 -6.1643428e-21)
(57.010427 0.68139917 -1.7211328e-19)
(57.278528 0.83388009 4.7600352e-21)
(57.397126 0.90408191 -4.1929139e-21)
(57.266549 0.95157357 1.3094735e-19)
(56.718309 0.75191927 -2.495942e-19)
(55.365709 0.57721636 7.9411584e-20)
(53.143801 -0.058649475 -1.8738628e-20)
(35.137854 -2.0999984 -5.0018943e-20)
(35.89586 -2.1181061 5.2534538e-20)
(36.726323 -2.1314456 0)
(37.625642 -2.1350205 6.01487e-21)
(38.589161 -2.1337548 0)
(39.611043 -2.119505 0)
(40.682146 -2.0932312 1.0666356e-20)
(41.790865 -2.054066 -2.9925414e-20)
(42.924184 -2.0013448 6.4653804e-20)
(44.068824 -1.9348693 -7.5188721e-25)
(45.212493 -1.85472 1.5445364e-20)
(46.344582 -1.7609699 2.7956964e-20)
(47.45637 -1.6534489 -5.0303006e-20)
(48.540732 -1.5316333 -1.566374e-24)
(49.591546 -1.394706 0)
(50.602883 -1.2418076 0)
(51.568639 -1.072476 -4.706292e-20)
(52.482423 -0.88704656 1.3792949e-20)
(53.337742 -0.68712884 6.0383095e-20)
(54.128632 -0.47580643 3.1605125e-20)
(54.850152 -0.25756 0)
(55.498607 -0.038014762 -6.35723e-20)
(56.070955 0.17658655 6.8867806e-21)
(56.562698 0.37969896 -9.5678519e-20)
(56.963887 0.56269509 7.5735264e-20)
(57.256062 0.72284872 -1.4773733e-19)
(57.394401 0.81485326 1.9747333e-21)
(57.288563 0.88337118 -1.2159045e-19)
(56.768203 0.72010183 -1.8401259e-21)
(55.429934 0.59602542 -8.192485e-20)
(53.217147 -0.058946887 0)
(35.330127 -1.9126588 -2.9481615e-21)
(36.031006 -1.9341315 -5.6846703e-21)
(36.80182 -1.9537012 4.2393748e-20)