/*--------------------------------*- C++ -*----------------------------------*\
| =========                 |                                                 |
| \\      /  F ield         | OpenFOAM: The Open Source CFD Toolbox           |
|  \\    /   O peration     | Version:  2406                                  |
|   \\  /    A nd           | Website:  www.openfoam.com                      |
|    \\/     M anipulation  |                                                 |
\*---------------------------------------------------------------------------*/
FoamFile
{
    version     2.0;
    format      ascii;
    arch        "LSB;label=32;scalar=64";
    class       volScalarField;
    location    "0.014";
    object      T;
}
// * * * * * * * * * * * * * * * * * * * * * * * * * * * * * * * * * * * * * //

dimensions      [0 0 0 1 0 0 0];

internalField   nonuniform List<scalar> 
23203
(
292.84915
292.85951
292.86935
292.87866
292.88749
292.89582
292.90361
292.91092
292.91773
292.92407
292.92994
292.93535
292.94033
292.94487
292.949
292.95274
292.95609
292.95907
292.9617
292.964
292.96596
292.96762
292.96898
292.97004
292.97084
292.97136
292.97163
292.97166
292.97145
292.971
292.97034
292.96946
292.96837
292.96708
292.96559
292.9639
292.96202
292.95996
292.95771
292.95528
292.95267
292.94988
292.94692
292.94378
292.94048
292.93701
292.93339
292.92962
292.92572
292.9217
292.91762
292.91349
292.90936
292.90534
292.90158
292.89828
292.89579
292.89469
292.89617
292.90196
292.91719
292.94867
292.97776
292.98889
292.99296
292.99553
292.99781
293
293.00211
293.00415
293.00611
293.00802
293.0099
293.01174
293.01351
293.01524
293.01691
293.01853
293.02009
293.02161
293.02308
293.02449
293.02586
293.02718
293.02845
293.02966
293.03082
293.03193
293.03299
293.034
293.03496
293.03588
293.03675
293.03758
293.03836
293.03911
293.03981
293.04046
293.04107
293.04164
293.04215
293.04261
293.04302
293.04336
293.04364
293.04387
293.044
293.0441
292.86342
292.87263
292.88143
292.8898
292.89775
292.90525
292.9123
292.91892
292.9251
292.93085
292.93618
292.9411
292.94562
292.94975
292.95351
292.95689
292.95993
292.96262
292.96498
292.96702
292.96876
292.9702
292.97135
292.97224
292.97286
292.97322
292.97335
292.97323
292.97289
292.97233
292.97155
292.97057
292.96938
292.96799
292.96641
292.96464
292.96269
292.96055
292.95823
292.95574
292.95306
292.95022
292.9472
292.94402
292.94067
292.93716
292.93351
292.92971
292.92579
292.92176
292.91767
292.91356
292.90947
292.90552
292.90186
292.89873
292.8965
292.89582
292.89795
292.90503
292.92274
292.95602
292.98199
292.99088
292.99438
292.99681
292.99902
293.00116
293.00322
293.0052
293.00712
293.00898
293.01082
293.01262
293.01436
293.01604
293.01769
293.01927
293.02081
293.02229
293.02374
293.02513
293.02647
293.02777
293.02902
293.03021
293.03135
293.03244
293.03349
293.03448
293.03543
293.03633
293.03719
293.03801
293.03878
293.03951
293.0402
293.04085
293.04146
293.04201
293.04252
293.04298
293.04337
293.04372
293.04399
293.04421
293.04435
293.04444
292.87886
292.88686
292.89454
292.9019
292.9089
292.91553
292.9218
292.92769
292.93321
292.93835
292.94312
292.94752
292.95157
292.95527
292.95862
292.96165
292.96434
292.96673
292.9688
292.97058
292.97207
292.97328
292.97422
292.97491
292.97535
292.97554
292.97551
292.97525
292.97476
292.97407
292.97317
292.97206
292.97076
292.96927
292.96759
292.96572
292.96367
292.96144
292.95904
292.95646
292.95371
292.95079
292.9477
292.94445
292.94104
292.93748
292.93377
292.92992
292.92596
292.9219
292.9178
292.91369
292.90962
292.90573
292.90217
292.8992
292.89724
292.89701
292.89986
292.90837
292.92879
292.96307
292.98551
292.99267
292.99579
292.99811
293.00025
293.00233
293.00434
293.00627
293.00814
293.00996
293.01176
293.01352
293.01522
293.01687
293.01848
293.02003
293.02154
293.02299
293.02441
293.02578
293.0271
293.02837
293.0296
293.03077
293.03189
293.03297
293.03399
293.03497
293.0359
293.03679
293.03764
293.03844
293.03921
293.03993
293.04061
293.04125
293.04185
293.0424
293.0429
293.04335
293.04374
293.04408
293.04435
293.04457
293.0447
293.04479
292.89467
292.90147
292.90804
292.91437
292.92043
292.92619
292.93166
292.93681
292.94165
292.94617
292.95037
292.95424
292.9578
292.96105
292.96399
292.96663
292.96897
292.97102
292.97279
292.97429
292.97553
292.9765
292.97722
292.9777
292.97795
292.97797
292.97776
292.97734
292.97671
292.97587
292.97484
292.97361
292.9722
292.97059
292.9688
292.96684
292.96469
292.96237
292.95988
292.95722
292.95439
292.9514
292.94824
292.94492
292.94145
292.93783
292.93407
292.93018
292.92618
292.9221
292.91798
292.91386
292.90982
292.90599
292.90254
292.89975
292.89809
292.89835
292.90202
292.91217
292.93554
292.96984
292.98868
292.99444
292.99723
292.99944
293.00152
293.00354
293.0055
293.00738
293.00919
293.01097
293.01272
293.01444
293.0161
293.01772
293.01929
293.02081
293.02229
293.02371
293.0251
293.02644
293.02774
293.02899
293.03019
293.03134
293.03245
293.0335
293.03451
293.03547
293.03639
293.03726
293.0381
293.03889
293.03964
293.04035
293.04102
293.04165
293.04224
293.04278
293.04328
293.04372
293.04411
293.04444
293.04471
293.04493
293.04506
293.04515
292.91065
292.91628
292.92177
292.92709
292.93221
292.93711
292.94178
292.94619
292.95035
292.95424
292.95785
292.96119
292.96425
292.96704
292.96955
292.9718
292.97377
292.97549
292.97695
292.97817
292.97913
292.97986
292.98035
292.98062
292.98066
292.98049
292.98011
292.97953
292.97875
292.97777
292.9766
292.97524
292.9737
292.97198
292.97008
292.96801
292.96577
292.96336
292.96078
292.95803
292.95512
292.95205
292.94882
292.94543
292.9419
292.93822
292.9344
292.93047
292.92643
292.92233
292.9182
292.91409
292.91009
292.90632
292.903
292.90041
292.89908
292.89989
292.90452
292.91657
292.94298
292.97614
292.99147
292.99615
292.99869
293.00081
293.00282
293.00478
293.00668
293.0085
293.01027
293.012
293.01371
293.01539
293.01701
293.01859
293.02012
293.02161
293.02305
293.02445
293.02581
293.02712
293.02839
293.02962
293.0308
293.03193
293.03301
293.03405
293.03504
293.03598
293.03689
293.03775
293.03856
293.03934
293.04008
293.04078
293.04145
293.04207
293.04265
293.04318
293.04367
293.04411
293.04449
293.04482
293.04508
293.04529
293.04542
293.04552
292.92677
292.93127
292.9357
292.94003
292.94423
292.94828
292.95215
292.95583
292.9593
292.96255
292.96558
292.96838
292.97093
292.97325
292.97534
292.97718
292.97879
292.98016
292.9813
292.98222
292.98291
292.98338
292.98364
292.98368
292.98352
292.98316
292.9826
292.98184
292.9809
292.97977
292.97845
292.97696
292.9753
292.97346
292.97145
292.96927
292.96692
292.96441
292.96174
292.9589
292.95591
292.95275
292.94945
292.94599
292.94239
292.93865
292.93478
292.93081
292.92674
292.92261
292.91847
292.91438
292.91041
292.90673
292.90354
292.90119
292.90024
292.90168
292.90742
292.92169
292.951
292.98184
292.99398
292.99784
293.00017
293.0022
293.00415
293.00605
293.00789
293.00965
293.01137
293.01305
293.01472
293.01635
293.01793
293.01947
293.02097
293.02242
293.02383
293.0252
293.02653
293.02782
293.02906
293.03026
293.03142
293.03253
293.03359
293.0346
293.03558
293.0365
293.03739
293.03824
293.03904
293.03981
293.04053
293.04122
293.04188
293.04249
293.04306
293.04359
293.04407
293.0445
293.04487
293.0452
293.04546
293.04567
293.0458
293.04589
292.94295
292.94636
292.94977
292.95314
292.95645
292.95965
292.96274
292.96568
292.96848
292.9711
292.97354
292.97578
292.97784
292.97968
292.98133
292.98276
292.98399
292.98502
292.98583
292.98645
292.98685
292.98706
292.98707
292.98689
292.98651
292.98595
292.9852
292.98427
292.98316
292.98187
292.98041
292.97878
292.97698
292.97502
292.97289
292.9706
292.96814
292.96553
292.96276
292.95983
292.95675
292.95352
292.95013
292.9466
292.94294
292.93914
292.93522
292.93119
292.92709
292.92294
292.9188
292.91472
292.9108
292.90722
292.90419
292.9021
292.90157
292.90373
292.91077
292.92761
292.95935
292.98685
292.99628
292.99951
293.00167
293.00362
293.0055
293.00734
293.00912
293.01082
293.01249
293.01413
293.01575
293.01734
293.01888
293.02038
293.02184
293.02325
293.02463
293.02597
293.02727
293.02852
293.02974
293.03092
293.03205
293.03314
293.03418
293.03517
293.03613
293.03704
293.03791
293.03874
293.03953
293.04028
293.041
293.04167
293.04231
293.04292
293.04348
293.044
293.04447
293.0449
293.04527
293.04559
293.04585
293.04605
293.04618
293.04626
292.95912
292.9615
292.96392
292.96637
292.9688
292.97118
292.9735
292.97573
292.97785
292.97984
292.98169
292.98339
292.98494
292.98631
292.98751
292.98854
292.98939
292.99005
292.99054
292.99084
292.99096
292.9909
292.99066
292.99024
292.98964
292.98887
292.98793
292.98681
292.98553
292.98408
292.98247
292.9807
292.97876
292.97667
292.97441
292.972
292.96944
292.96672
292.96385
292.96083
292.95766
292.95434
292.95087
292.94727
292.94353
292.93967
292.9357
292.93163
292.92749
292.92332
292.91918
292.91512
292.91127
292.90779
292.90495
292.90315
292.90311
292.9061
292.91466
292.93443
292.96768
292.99119
292.99843
293.00118
293.0032
293.00507
293.00688
293.00866
293.01037
293.01202
293.01363
293.01523
293.0168
293.01835
293.01984
293.0213
293.02272
293.0241
293.02544
293.02675
293.02802
293.02925
293.03044
293.03159
293.0327
293.03376
293.03478
293.03575
293.03669
293.03758
293.03843
293.03925
293.04002
293.04076
293.04146
293.04213
293.04276
293.04336
293.04391
293.04442
293.04489
293.0453
293.04567
293.04598
293.04624
293.04644
293.04656
293.04665
292.97521
292.9766
292.9781
292.97965
292.98124
292.98283
292.9844
292.98592
292.98738
292.98875
292.99003
292.99119
292.99222
292.99312
292.99388
292.99449
292.99495
292.99526
292.99541
292.99539
292.99522
292.99488
292.99438
292.99372
292.9929
292.99192
292.99078
292.98947
292.98802
292.9864
292.98463
292.98271
292.98063
292.9784
292.97602
292.97349
292.97081
292.96799
292.96501
292.96189
292.95863
292.95522
292.95167
292.94799
292.94419
292.94026
292.93623
292.93212
292.92795
292.92377
292.91963
292.9156
292.91182
292.90847
292.90583
292.90437
292.90489
292.90883
292.9192
292.94217
292.97567
292.9949
293.00047
293.00285
293.00476
293.00654
293.00829
293.01
293.01165
293.01324
293.0148
293.01634
293.01787
293.01937
293.02082
293.02224
293.02362
293.02496
293.02627
293.02755
293.02878
293.02998
293.03115
293.03227
293.03335
293.03439
293.03539
293.03634
293.03726
293.03813
293.03897
293.03977
293.04053
293.04125
293.04194
293.0426
293.04322
293.0438
293.04434
293.04485
293.04531
293.04572
293.04608
293.04639
293.04664
293.04683
293.04695
293.04704
292.99115
292.99162
292.99223
292.99294
292.99372
292.99455
292.99539
292.99623
292.99705
292.99781
292.99851
292.99914
292.99967
293.0001
293.00042
293.00061
293.00069
293.00063
293.00044
293.00011
292.99963
292.99902
292.99826
292.99735
292.9963
292.99509
292.99375
292.99225
292.99061
292.98883
292.98689
292.98482
292.98259
292.98023
292.97772
292.97506
292.97227
292.96933
292.96625
292.96302
292.95966
292.95617
292.95254
292.94878
292.9449
292.94091
292.93683
292.93267
292.92847
292.92428
292.92015
292.91616
292.91246
292.90925
292.90685
292.90578
292.90694
292.91199
292.9245
292.95079
292.98301
292.99811
293.00243
293.00454
293.00634
293.00805
293.00972
293.01136
293.01295
293.01448
293.01599
293.01749
293.01897
293.02042
293.02182
293.0232
293.02454
293.02585
293.02712
293.02836
293.02956
293.03073
293.03187
293.03297
293.03402
293.03504
293.03601
293.03694
293.03784
293.03869
293.03951
293.0403
293.04104
293.04175
293.04243
293.04307
293.04368
293.04425
293.04479
293.04528
293.04574
293.04614
293.04649
293.0468
293.04704
293.04724
293.04736
293.04744
293.00689
293.0065
293.00628
293.00619
293.00621
293.0063
293.00645
293.00663
293.00682
293.00699
293.00713
293.00723
293.00727
293.00723
293.00711
293.00689
293.00658
293.00615
293.00562
293.00497
293.00419
293.00329
293.00227
293.00111
292.99982
292.9984
292.99684
292.99515
292.99332
292.99136
292.98926
292.98702
292.98465
292.98214
292.9795
292.97672
292.9738
292.97074
292.96755
292.96423
292.96077
292.95718
292.95346
292.94962
292.94567
292.94162
292.93748
292.93328
292.92905
292.92486
292.92074
292.9168
292.91319
292.91015
292.90803
292.9074
292.9093
292.91566
292.9307
292.96006
292.9895
293.00094
293.00434
293.00625
293.00795
293.00958
293.01118
293.01276
293.01428
293.01575
293.01721
293.01865
293.02008
293.02148
293.02284
293.02418
293.02548
293.02674
293.02798
293.02919
293.03036
293.0315
293.03261
293.03368
293.03471
293.0357
293.03665
293.03756
293.03843
293.03927
293.04007
293.04084
293.04157
293.04226
293.04293
293.04356
293.04415
293.04472
293.04524
293.04573
293.04617
293.04657
293.04692
293.04722
293.04746
293.04765
293.04776
293.04785
293.02238
293.02119
293.02019
293.01935
293.01865
293.01805
293.01753
293.01708
293.01666
293.01626
293.01586
293.01544
293.01499
293.01449
293.01393
293.01331
293.01261
293.01182
293.01095
293.00997
293.00889
293.00771
293.00641
293.005
293.00347
293.00182
293.00005
292.99816
292.99614
292.994
292.99173
292.98933
292.98681
292.98415
292.98137
292.97845
292.97541
292.97224
292.96893
292.9655
292.96194
292.95825
292.95445
292.95053
292.94651
292.94239
292.9382
292.93396
292.92971
292.92551
292.92141
292.91753
292.91404
292.9112
292.90938
292.90927
292.91203
292.91993
292.93792
292.96961
292.99506
293.00351
293.00624
293.00798
293.00958
293.01114
293.01267
293.01418
293.01563
293.01704
293.01844
293.01984
293.02122
293.02257
293.02388
293.02518
293.02643
293.02766
293.02886
293.03003
293.03117
293.03228
293.03336
293.0344
293.0354
293.03637
293.03729
293.03818
293.03904
293.03986
293.04064
293.04139
293.0421
293.04278
293.04343
293.04405
293.04464
293.04519
293.0457
293.04618
293.04662
293.04701
293.04735
293.04764
293.04788
293.04806
293.04818
293.04826
293.03758
293.03565
293.03393
293.03239
293.03101
293.02975
293.02861
293.02755
293.02655
293.0256
293.02467
293.02375
293.02282
293.02187
293.02089
293.01986
293.01878
293.01763
293.01641
293.01511
293.01373
293.01226
293.01069
293.00902
293.00725
293.00537
293.00339
293.00129
292.99908
292.99675
292.99431
292.99174
292.98906
292.98625
292.98333
292.98028
292.97711
292.97381
292.97039
292.96685
292.96318
292.9594
292.95551
292.95151
292.94741
292.94323
292.93898
292.9347
292.93044
292.92624
292.92217
292.91836
292.91501
292.91239
292.91094
292.91142
292.91518
292.92494
292.94627
292.97895
292.99971
293.00588
293.00813
293.00973
293.01125
293.01273
293.01419
293.01562
293.01701
293.01836
293.01971
293.02105
293.02238
293.02368
293.02495
293.02619
293.02741
293.0286
293.02976
293.03089
293.032
293.03308
293.03413
293.03514
293.03611
293.03705
293.03796
293.03882
293.03966
293.04045
293.04122
293.04195
293.04265
293.04331
293.04395
293.04456
293.04513
293.04567
293.04618
293.04664
293.04707
293.04745
293.04779
293.04808
293.04831
293.04849
293.0486
293.04868
293.05245
293.04984
293.04746
293.04527
293.04325
293.04138
293.03964
293.038
293.03645
293.03497
293.03353
293.03213
293.03074
293.02935
293.02795
293.02652
293.02506
293.02356
293.022
293.02038
293.01869
293.01693
293.01509
293.01317
293.01115
293.00904
293.00684
293.00453
293.00212
292.99961
292.99698
292.99425
292.99141
292.98845
292.98538
292.98219
292.97889
292.97546
292.97192
292.96827
292.9645
292.96062
292.95664
292.95255
292.94838
292.94413
292.93984
292.93553
292.93124
292.92705
292.92303
292.91931
292.91612
292.91375
292.91273
292.9139
292.91884
292.93083
292.9557
292.98762
293.00362
293.00813
293.01002
293.01151
293.01294
293.01434
293.01573
293.01709
293.01841
293.0197
293.021
293.02228
293.02356
293.02481
293.02603
293.02723
293.0284
293.02955
293.03068
293.03177
293.03284
293.03389
293.03491
293.03589
293.03684
293.03775
293.03863
293.03947
293.04028
293.04106
293.04181
293.04252
293.0432
293.04385
293.04448
293.04507
293.04563
293.04616
293.04665
293.04711
293.04753
293.04791
293.04823
293.04852
293.04874
293.04892
293.04903
293.04911
293.06695
293.06373
293.06073
293.05795
293.05534
293.0529
293.0506
293.04842
293.04635
293.04436
293.04244
293.04056
293.03873
293.03691
293.0351
293.03329
293.03146
293.0296
293.02771
293.02577
293.02378
293.02173
293.01962
293.01743
293.01517
293.01283
293.0104
293.00788
293.00528
293.00257
292.99977
292.99686
292.99385
292.99074
292.98752
292.98419
292.98075
292.9772
292.97354
292.96977
292.9659
292.96192
292.95784
292.95367
292.94942
292.94511
292.94077
292.93642
292.93214
292.92796
292.92399
292.92038
292.91738
292.91532
292.91478
292.91676
292.92312
292.93778
292.96601
292.99524
293.00697
293.0103
293.01194
293.01331
293.01467
293.01599
293.0173
293.01859
293.01984
293.02107
293.02231
293.02354
293.02476
293.02596
293.02713
293.02829
293.02941
293.03052
293.03161
293.03267
293.0337
293.03472
293.0357
293.03665
293.03758
293.03846
293.03932
293.04014
293.04093
293.04168
293.04241
293.0431
293.04377
293.0444
293.04501
293.04559
293.04614
293.04666
293.04714
293.04759
293.048
293.04837
293.04869
293.04897
293.04919
293.04937
293.04947
293.04955
293.08106
293.07728
293.07374
293.0704
293.06726
293.06428
293.06146
293.05878
293.05621
293.05374
293.05135
293.04904
293.04677
293.04454
293.04233
293.04014
293.03795
293.03574
293.03352
293.03127
293.02898
293.02664
293.02426
293.02181
293.01931
293.01673
293.01408
293.01135
293.00854
293.00564
293.00265
292.99957
292.9964
292.99313
292.98975
292.98628
292.9827
292.97902
292.97524
292.97135
292.96737
292.96329
292.95911
292.95486
292.95054
292.94617
292.94178
292.93741
292.93312
292.92897
292.92507
292.92159
292.9188
292.9171
292.91713
292.92007
292.92813
292.94595
292.97671
293.00165
293.00992
293.01244
293.01387
293.01515
293.01642
293.01767
293.01891
293.02012
293.02129
293.02247
293.02365
293.02482
293.02599
293.02713
293.02825
293.02936
293.03044
293.03151
293.03256
293.03358
293.03458
293.03556
293.03651
293.03744
293.03833
293.03919
293.04002
293.04081
293.04158
293.04231
293.04302
293.0437
293.04435
293.04497
293.04556
293.04612
293.04666
293.04717
293.04764
293.04808
293.04848
293.04884
293.04915
293.04943
293.04964
293.04982
293.04992
293.05
293.09476
293.09049
293.08645
293.08261
293.07897
293.07551
293.0722
293.06904
293.06601
293.06309
293.06026
293.05752
293.05484
293.05221
293.04963
293.04706
293.04452
293.04198
293.03943
293.03687
293.03428
293.03166
293.02901
293.02631
293.02355
293.02074
293.01786
293.01492
293.01191
293.00881
293.00564
293.00238
292.99904
292.99561
292.99208
292.98846
292.98474
292.98093
292.97702
292.97302
292.96892
292.96474
292.96047
292.95614
292.95174
292.94731
292.94288
292.93849
292.9342
292.93009
292.92627
292.92296
292.92042
292.91913
292.91984
292.92392
292.93405
292.95545
292.98716
293.0069
293.01261
293.01456
293.01583
293.01702
293.01821
293.01937
293.02053
293.02167
293.02278
293.02389
293.02501
293.02613
293.02724
293.02833
293.0294
293.03046
293.0315
293.03252
293.03353
293.03451
293.03547
293.03642
293.03734
293.03823
293.0391
293.03993
293.04073
293.0415
293.04224
293.04296
293.04364
293.0443
293.04493
293.04554
293.04611
293.04667
293.04719
293.04768
293.04815
293.04858
293.04897
293.04932
293.04963
293.04989
293.0501
293.05027
293.05038
293.05045
293.10803
293.10332
293.09883
293.09455
293.09046
293.08655
293.0828
293.0792
293.07573
293.07239
293.06915
293.066
293.06293
293.05992
293.05696
293.05405
293.05116
293.04829
293.04542
293.04256
293.03968
293.03678
293.03386
293.0309
293.0279
293.02486
293.02176
293.0186
293.01538
293.01209
293.00873
293.00529
293.00178
292.99818
292.9945
292.99073
292.98687
292.98293
292.97889
292.97477
292.97056
292.96627
292.96191
292.95749
292.95303
292.94854
292.94407
292.93966
292.9354
292.93133
292.92762
292.92449
292.92227
292.92146
292.92297
292.92841
292.94107
292.96619
292.99668
293.01122
293.01512
293.01668
293.01782
293.01892
293.02002
293.02111
293.02219
293.02325
293.02429
293.02534
293.0264
293.02746
293.02851
293.02955
293.03057
293.03158
293.03257
293.03355
293.03451
293.03546
293.03638
293.0373
293.03818
293.03904
293.03988
293.04068
293.04146
293.0422
293.04292
293.04361
293.04428
293.04492
293.04553
293.04612
293.04668
293.04722
293.04773
293.04821
293.04866
293.04908
293.04947
293.04981
293.05011
293.05037
293.05058
293.05074
293.05084
293.05092
293.12087
293.11577
293.11089
293.1062
293.1017
293.09738
293.09323
293.08922
293.08536
293.08162
293.07799
293.07446
293.07101
293.06764
293.06434
293.06108
293.05786
293.05467
293.05149
293.04833
293.04517
293.042
293.03881
293.0356
293.03235
293.02907
293.02575
293.02238
293.01895
293.01547
293.01192
293.0083
293.00461
293.00085
292.99701
292.99309
292.98909
292.98501
292.98084
292.9766
292.97228
292.96789
292.96344
292.95893
292.9544
292.94986
292.94536
292.94094
292.9367
292.93271
292.92913
292.92622
292.92436
292.92414
292.9266
292.9337
292.9494
292.97783
293.00481
293.01485
293.01754
293.01881
293.01984
293.02085
293.02187
293.02287
293.02387
293.02485
293.02583
293.02682
293.02781
293.02881
293.02981
293.03079
293.03175
293.03272
293.03366
293.03459
293.03552
293.03642
293.03731
293.03819
293.03904
293.03987
293.04067
293.04145
293.0422
293.04292
293.04361
293.04428
293.04493
293.04555
293.04614
293.04671
293.04726
293.04778
293.04828
293.04875
293.04919
293.0496
293.04997
293.05031
293.0506
293.05085
293.05105
293.05122
293.05131
293.05139
293.13326
293.12783
293.12259
293.11755
293.11269
293.108
293.10347
293.0991
293.09486
293.09075
293.08676
293.08288
293.07908
293.07537
293.07172
293.06814
293.0646
293.0611
293.05763
293.05418
293.05074
293.04729
293.04385
293.04039
293.0369
293.03339
293.02984
293.02626
293.02263
293.01894
293.01521
293.01141
293.00755
293.00362
292.99962
292.99555
292.9914
292.98718
292.98289
292.97852
292.97409
292.96959
292.96505
292.96047
292.95587
292.95128
292.94675
292.94234
292.93814
292.93423
292.93082
292.92818
292.92674
292.92721
292.93082
292.93996
292.95923
292.98964
293.01141
293.01802
293.01991
293.02097
293.02189
293.02281
293.02375
293.02467
293.02559
293.02649
293.02739
293.02832
293.02925
293.03019
293.03113
293.03205
293.03296
293.03388
293.03477
293.03566
293.03654
293.0374
293.03826
293.0391
293.03991
293.04071
293.04148
293.04223
293.04295
293.04365
293.04432
293.04497
293.04559
293.04619
293.04677
293.04732
293.04785
293.04836
293.04884
293.0493
293.04973
293.05013
293.05049
293.05082
293.0511
293.05135
293.05154
293.0517
293.05179
293.05187
293.14521
293.13948
293.13394
293.12859
293.1234
293.11838
293.11352
293.10881
293.10423
293.09979
293.09546
293.09124
293.08712
293.08308
293.07912
293.07522
293.07138
293.06758
293.06382
293.06009
293.05638
293.05267
293.04897
293.04526
293.04154
293.0378
293.03403
293.03023
293.0264
293.02252
293.01859
293.01461
293.01057
293.00648
293.00232
292.99809
292.9938
292.98945
292.98502
292.98053
292.97599
292.97139
292.96675
292.96209
292.95743
292.9528
292.94825
292.94386
292.93972
292.93592
292.9327
292.93039
292.92946
292.93076
292.93576
292.94742
292.97058
293.0007
293.01668
293.0209
293.02226
293.02316
293.02397
293.0248
293.02565
293.02649
293.02733
293.02815
293.02899
293.02985
293.03072
293.03159
293.03247
293.03333
293.03419
293.03506
293.0359
293.03674
293.03759
293.03841
293.03922
293.04002
293.0408
293.04157
293.04231
293.04303
293.04372
293.04439
293.04503
293.04566
293.04626
293.04684
293.0474
293.04793
293.04845
293.04894
293.04941
293.04985
293.05027
293.05066
293.05101
293.05133
293.05161
293.05185
293.05204
293.05219
293.05228
293.05235
293.15671
293.15074
293.14494
293.1393
293.13383
293.12852
293.12336
293.11834
293.11346
293.1087
293.10406
293.09953
293.0951
293.09076
293.0865
293.08231
293.07817
293.07409
293.07006
293.06605
293.06208
293.05812
293.05416
293.05022
293.04626
293.0423
293.03831
293.0343
293.03026
293.02619
293.02207
293.01791
293.0137
293.00943
293.00511
293.00073
292.9963
292.9918
292.98725
292.98264
292.97798
292.97328
292.96856
292.96382
292.95911
292.95444
292.94987
292.94552
292.94145
292.93779
292.93482
292.93289
292.93258
292.93487
292.9416
292.95634
292.98313
293.01022
293.02095
293.02361
293.02462
293.02537
293.02609
293.02683
293.02759
293.02834
293.02909
293.02984
293.03061
293.03141
293.03221
293.03302
293.03383
293.03464
293.03545
293.03626
293.03705
293.03785
293.03865
293.03943
293.0402
293.04096
293.04171
293.04244
293.04315
293.04384
293.0445
293.04514
293.04577
293.04637
293.04695
293.04751
293.04805
293.04856
293.04906
293.04953
293.04999
293.05042
293.05083
293.05121
293.05155
293.05186
293.05213
293.05236
293.05255
293.05269
293.05278
293.05285
293.16777
293.16159
293.15556
293.14969
293.14397
293.1384
293.13298
293.12768
293.12252
293.11748
293.11256
293.10775
293.10303
293.0984
293.09386
293.08939
293.08498
293.08063
293.07633
293.07206
293.06783
293.06362
293.05943
293.05525
293.05106
293.04687
293.04267
293.03846
293.03422
293.02994
293.02564
293.0213
293.01691
293.01248
293.008
293.00347
292.99889
292.99425
292.98957
292.98484
292.98007
292.97527
292.97046
292.96566
292.96089
292.9562
292.95163
292.94732
292.94336
292.93988
292.9372
292.93573
292.93616
292.93968
292.94854
292.96696
292.99609
293.01786
293.02455
293.02623
293.02699
293.02762
293.02824
293.02889
293.02956
293.03023
293.03089
293.03156
293.03226
293.03299
293.03372
293.03447
293.03522
293.03597
293.03672
293.03748
293.03823
293.03898
293.03973
293.04046
293.0412
293.04192
293.04263
293.04333
293.04401
293.04466
293.0453
293.04591
293.04651
293.04709
293.04765
293.04818
293.0487
293.0492
293.04968
293.05014
293.05058
293.051
293.05139
293.05176
293.05209
293.05239
293.05266
293.05288
293.05306
293.0532
293.05329
293.05336
293.1784
293.17204
293.16583
293.15976
293.15382
293.14803
293.14236
293.13683
293.13142
293.12612
293.12094
293.11586
293.11088
293.10599
293.10118
293.09645
293.09178
293.08718
293.08262
293.07811
293.07363
293.06918
293.06475
293.06034
293.05594
293.05153
293.04712
293.0427
293.03826
293.03379
293.0293
293.02478
293.02022
293.01562
293.01098
293.0063
293.00157
292.9968
292.99198
292.98713
292.98226
292.97736
292.97247
292.9676
292.96279
292.95808
292.95354
292.9493
292.94546
292.9422
292.93988
292.93897
292.94031
292.94534
292.95688
292.97931
293.00827
293.02381
293.02775
293.0288
293.02939
293.0299
293.03042
293.03097
293.03155
293.03214
293.03271
293.03331
293.03394
293.03459
293.03527
293.03595
293.03664
293.03733
293.03802
293.03872
293.03942
293.04012
293.04083
293.04152
293.04221
293.0429
293.04357
293.04423
293.04488
293.0455
293.04611
293.0467
293.04727
293.04782
293.04836
293.04887
293.04937
293.04985
293.05031
293.05076
293.05118
293.05159
293.05197
293.05233
293.05265
293.05294
293.05319
293.05341
293.05359
293.05372
293.05381
293.05387
293.1886
293.1821
293.17573
293.16949
293.16338
293.15738
293.15152
293.14577
293.14013
293.13461
293.12919
293.12387
293.11865
293.11352
293.10846
293.10349
293.09858
293.09372
293.08893
293.08418
293.07947
293.07479
293.07013
293.0655
293.06087
293.05626
293.05164
293.04701
293.04238
293.03772
293.03305
293.02835
293.02362
293.01885
293.01405
293.00922
293.00434
292.99944
292.9945
292.98953
292.98455
292.97956
292.97459
292.96967
292.96482
292.96011
292.95561
292.95146
292.94778
292.9448
292.94291
292.94269
292.94514
292.95206
292.9669
292.993
293.01862
293.0285
293.03071
293.03137
293.03182
293.03222
293.03264
293.03309
293.03358
293.03408
293.03456
293.03508
293.03565
293.03623
293.03683
293.03745
293.03807
293.0387
293.03934
293.03999
293.04064
293.04129
293.04194
293.0426
293.04325
293.04389
293.04453
293.04516
293.04577
293.04636
293.04693
293.04749
293.04804
293.04857
293.04908
293.04958
293.05005
293.05051
293.05096
293.05139
293.0518
293.05219
293.05256
293.0529
293.05321
293.05349
293.05374
293.05395
293.05412
293.05425
293.05433
293.0544
293.19838
293.19177
293.18528
293.1789
293.17263
293.16647
293.16043
293.15449
293.14866
293.14293
293.13731
293.13177
293.12633
293.12097
293.11569
293.11048
293.10534
293.10027
293.09524
293.09026
293.08533
293.08043
293.07556
293.07071
293.06587
293.06105
293.05623
293.05141
293.04658
293.04174
293.03688
293.03201
293.0271
293.02218
293.01722
293.01223
293.00722
293.00218
292.99711
292.99203
292.98695
292.98187
292.97683
292.97186
292.96699
292.96229
292.95787
292.95383
292.95035
292.94771
292.94635
292.94698
292.95082
292.96013
292.97887
293.00698
293.02672
293.03238
293.03354
293.03397
293.03428
293.03457
293.03489
293.03523
293.03564
293.03605
293.03644
293.03689
293.03739
293.03789
293.03843
293.03898
293.03953
293.0401
293.04069
293.04127
293.04187
293.04248
293.04308
293.04369
293.0443
293.04491
293.0455
293.04609
293.04667
293.04723
293.04777
293.04831
293.04882
293.04933
293.04982
293.05029
293.05075
293.05119
293.05162
293.05203
293.05242
293.0528
293.05316
293.05349
293.05379
293.05406
293.0543
293.0545
293.05466
293.05479
293.05487
293.05493
293.20775
293.20107
293.19448
293.18799
293.18159
293.1753
293.1691
293.163
293.157
293.15109
293.14527
293.13955
293.1339
293.12834
293.12285
293.11743
293.11208
293.10679
293.10155
293.09636
293.09121
293.0861
293.08102
293.07596
293.07093
293.0659
293.06089
293.05587
293.05086
293.04583
293.0408
293.03575
293.03068
293.02559
293.02048
293.01534
293.01019
293.00501
292.99983
292.99464
292.98946
292.9843
292.9792
292.97419
292.96932
292.96465
292.96032
292.95643
292.95321
292.95099
292.95029
292.95198
292.95755
292.96987
292.99271
293.01975
293.03284
293.03577
293.03635
293.03659
293.03675
293.03694
293.03717
293.03743
293.03773
293.03804
293.03835
293.03873
293.03915
293.03957
293.04005
293.04053
293.04101
293.04152
293.04205
293.04258
293.04313
293.04368
293.04424
293.0448
293.04537
293.04593
293.04649
293.04705
293.04759
293.04812
293.04863
293.04913
293.04962
293.0501
293.05057
293.05102
293.05146
293.05188
293.05228
293.05268
293.05306
293.05342
293.05376
293.05408
293.05437
293.05463
293.05486
293.05506
293.05522
293.05534
293.05542
293.05547
293.21674
293.21
293.20334
293.19676
293.19026
293.18385
293.17753
293.17129
293.16514
293.15908
293.15309
293.14719
293.14137
293.13562
293.12994
293.12433
293.11878
293.11329
293.10785
293.10246
293.09711
293.0918
293.08652
293.08126
293.07603
293.07081
293.06561
293.0604