/*--------------------------------*- C++ -*----------------------------------*\
| =========                 |                                                 |
| \\      /  F ield         | OpenFOAM: The Open Source CFD Toolbox           |
|  \\    /   O peration     | Version:  2406                                  |
|   \\  /    A nd           | Website:  www.openfoam.com                      |
|    \\/     M anipulation  |                                                 |
\*---------------------------------------------------------------------------*/
FoamFile
{
    version     2.0;
    format      ascii;
    arch        "LSB;label=32;scalar=64";
    class       volScalarField;
    location    "0.05";
    object      k;
}
// * * * * * * * * * * * * * * * * * * * * * * * * * * * * * * * * * * * * * //

dimensions      [0 2 -2 0 0 0 0];

internalField   nonuniform List<scalar> 
8260
(
950.35166
922.80592
884.93098
838.6318
785.25987
726.12759
663.04366
598.01365
532.94153
469.69312
409.78753
354.25776
303.74551
258.50584
218.46733
183.34585
152.72762
126.14129
103.12138
83.233124
66.078815
51.315731
38.661771
27.890774
18.826434
11.308475
5.3758779
1.9412967
1.0807812
0.68430995
0.45236292
926.4019
895.42037
855.94358
809.72862
757.69404
700.85826
640.65312
578.76565
516.88516
456.62945
399.38632
346.1365
297.5028
253.76941
214.90872
180.69018
150.75399
124.67735
102.03415
82.421484
65.468322
50.852439
38.306707
27.615879
18.611681
11.142071
5.2672215
1.890408
1.070304
0.68000353
0.45157787
892.53986
860.34573
820.99067
775.95499
726.01701
672.05198
615.22414
556.94084
498.66401
441.78998
387.55454
336.88225
290.37992
248.35974
210.84152
177.65358
148.4966
123.00267
100.79043
81.493039
64.769981
50.322555
37.900685
27.301797
18.3666
10.952506
5.1424538
1.8372358
1.0590751
0.67513345
0.45088391
847.78624
815.99954
778.34564
735.87685
689.17212
638.97463
586.25535
532.18966
478.0283
424.98047
374.14188
326.37819
282.28473
242.20151
206.20611
174.18952
145.91951
121.08969
99.369001
80.431514
63.971305
49.716442
37.436227
26.942643
18.08662
10.736721
4.999296
1.7813107
1.0468381
0.66967823
0.45031473
793.1107
763.1712
728.39924
689.58
647.08697
601.49697
553.59769
504.35635
454.828
406.0575
359.01396
314.50381
273.11399
235.20984
200.93223
170.24214
142.97924
118.90483
97.74422
79.217358
63.057429
49.022727
36.904581
26.531646
17.766564
10.490967
4.835447
1.7222253
1.0334286
0.66355524
0.44985551
729.90112
702.97266
672.01066
637.65026
600.11005
559.79858
517.31675
473.43091
429.0081
384.93874
342.07468
301.16019
262.77155
227.30015
194.94815
165.7522
139.62832
116.41068
95.886949
77.828143
62.011167
48.228196
36.295551
26.060924
17.400448
10.210942
4.6485841
1.6596015
1.0186999
0.65667973
0.44944058
660.17184
637.02969
610.50915
581.13267
549.01259
514.41086
477.75028
439.60349
400.65328
361.63633
323.288
286.28371
251.18175
218.39542
188.18366
160.65872
135.81587
113.56608
93.764418
76.238317
60.812744
47.317559
35.597304
25.521321
16.981353
9.8917123
4.4364542
1.5931769
1.0025364
0.64901951
0.44863522
586.42902
567.45354
545.67
521.49609
494.96823
466.22814
435.54271
403.308
370.03065
336.29225
302.70582
269.8668
238.30212
208.43645
180.5756
154.90188
131.48912
110.32655
91.340354
74.419034
59.439546
46.273185
34.796128
24.902208
16.50127
9.5275977
4.1970203
1.522867
0.98485014
0.64053719
0.44785328
511.5648
496.75254
479.65058
460.56872
439.48883
416.46023
391.62383
365.22451
337.60785
309.20267
280.49265
251.97928
224.13993
197.3931
172.07542
148.4275
126.59571
106.64545
88.575296
72.338085
57.865862
45.074801
33.876151
24.191254
15.950943
9.1120458
3.9287274
1.4488177
0.96557984
0.63117882
0.44717081
438.47482
427.48902
414.70325
400.30723
384.24381
366.4999
347.12172
326.23196
304.03662
280.82163
256.93932
232.78529
208.76785
185.277
162.65846
141.193
121.08723
102.47579
85.427377
69.96006
56.062738
43.699228
32.819064
23.374192
15.319707
8.6374844
3.63092
1.3714485
0.94469913
0.62086494
0.44646529
369.62693
361.90273
352.8569
342.53755
330.85838
317.76692
303.24604
287.32729
270.10435
251.73897
232.45933
212.55029
192.33531
172.15326
152.33393
133.17477
114.92407
97.773056
81.853732
67.246886
53.998029
42.120204
31.603881
22.434609
14.595339
8.0951536
3.3044859
1.2914778
0.92221058
0.60949891
0.44573248
307.01078
301.8979
295.85484
288.8544
280.79319
271.58589
261.17471
249.52984
236.66194
222.63319
207.56384
191.63279
175.07103
158.14816
141.15379
124.376
108.0812
92.499061
77.812701
64.158902
51.636774
40.308389
30.206799
21.353809
13.763979
7.4749328
2.9527981
1.2099294
0.89812611
0.59693645
0.44503603
251.96756
248.79764
244.99752
240.50892
235.23348
229.07405
221.94508
213.7809
204.53737
194.20405
182.8154
170.45797
157.27231
143.44894
129.21805
114.83363
100.55465
86.626725
73.266952
60.656645
48.942066
38.231688
28.601272
20.110849
12.810244
6.7674304
2.5829161
1.1281076
0.87244629
0.5837089
0.44437139
204.9891
203.15252
200.90534
198.18573
194.9077
190.98232
186.31566
180.82287
174.43139
167.0863
158.76209
149.47279
139.27926
128.29282
116.67357
104.62237
92.367091
80.145404
68.187524
56.703532
45.876634
35.856097
26.758466
18.68293
11.717753
5.9675664
2.206652
1.0475882
0.84512338
0.57023723
0.44347602
165.69871
164.70635
163.45772
161.8975
159.95863
157.56374
154.63123
151.07309
146.80593
141.75537
135.86169
129.08908
121.43618
112.94469
103.70459
93.853826
83.571595
73.066004
62.558606
52.269562
42.405386
33.147339
24.648366
17.046364
10.470289
5.0766938
1.8538768
0.97034927
0.81606543
0.55718981
0.44247281
133.09115
132.59649
131.94786
131.10112
130.00704
128.60747
126.83361
124.60856
121.85205
118.4845
114.43296
109.63592
104.05129
97.668035
90.51568
82.669694
74.251865
65.424994
56.382665
47.336054
38.499187
30.073688
22.241941
15.178569
9.0540966
4.1101162
1.5471176
0.89784155
0.78517557
0.54505352
0.44152086
105.85844
105.64863
105.34994
104.92862
104.3497
103.57186
102.54479
101.20887
99.493757
97.32404
94.623904
91.322792
87.36022
82.694358
77.310347
71.230196
64.518935
57.286636
49.685474
41.901399
34.140168
26.610462
19.514976
13.061841
7.4630646
3.1102804
1.2763297
0.82911301
0.75262767
0.53454828
0.44038113
82.719673
82.676826
82.586673
82.424043
82.164608
81.778782
81.230736
80.47702
79.464771
78.131961
76.408026
74.222339
71.506829
68.20416
64.274591
59.702821
54.506217
48.743747
42.520848
35.987785
29.328941
22.746989
16.454666
10.690422
5.7115123
2.1700009
1.0460552
0.75628419
0.72661717
0.52668908
0.43908048
62.734926
62.795187
62.834383
62.834232
62.778604
62.646217
62.411649
62.04328
61.50328
60.745199
59.715189
58.348869
56.578658
54.341951
51.581479
48.260813
44.367457
39.918591
34.975451
29.6492
24.094439
18.497483
13.070829
8.0839201
3.8682865
1.5268164
0.87353913
0.69460344
0.68350573
0.52203656
0.43837268
45.336788
45.460157
45.579269
45.681148
45.754844
45.786471
45.758385
45.647866
45.426233
45.060307
44.509788
43.726186
42.653807
41.228387
39.389692
37.082986
34.275922
30.964161
27.174279
22.981612
18.507929
13.918983
9.4152954
5.3186565
2.1800895
1.0649962
0.75074194
0.65023168
0.64615665
0.51959003
0.4371676
30.245127
30.397748
30.556409
30.71229
30.858538
30.986231
31.083483
31.134696
31.119977
31.014659
30.78676
30.401278
29.81589
28.979194
27.836372
26.332728
24.416655
22.064528
19.288287
16.13801
12.705123
9.1441102
5.6191748
2.7067145
1.2547792
0.78990419
0.67645479
0.60507411
0.60456903
0.51206251
0.43701162
17.393863
17.552747
17.722759
17.898064
18.07458
18.246778
18.406925
18.544463
18.645374
18.6915
18.66024
18.523837
18.248768
17.8009
17.136176
16.212807
14.990735
13.442885
11.551259
9.3517352
6.9241148
4.4733689
2.5374386
1.2892965
0.79061865
0.65242679
0.61552069
0.56166999
0.56331379
0.50170338
0.43685746
7.5890214
7.6910619
7.8025702
7.9203766
8.0425962
8.166529
8.2881154
8.4014058
8.4981334
8.5673446
8.5950331
8.5642672
8.4543873
8.2425165
7.9093058
7.4303989
6.7948138
5.9882696
5.0244475
3.940977
2.8124868
1.8005727
1.1262646
0.75047453
0.62174256
0.58608174
0.55983595
0.52034224
0.52445959
0.49098485
0.43586864
2.5712097
2.613282
2.6597394
2.7093304
2.761333
2.8147824
2.8683591
2.9197075
2.9656381
3.0021807
3.0243031
3.0256454
2.9992264
2.9357044
2.826432
2.6652825
2.45036
2.1763122
1.8575347
1.5010209
1.1499883
0.85115385
0.65966228
0.57092813
0.5456861
0.52451492
0.51073455
0.48304808
0.49105816
0.47837611
0.43278192
0.92417862
0.94228681
0.96174079
0.98232055
1.003664
1.0251382
1.0456375
1.0647767
1.0823105
1.0975289
1.1091958
1.1151094
1.1136896
1.1024944
1.0786433
1.0394564
0.98282321
0.90950554
0.82413424
0.72848929
0.63705077
0.55810226
0.51244615
0.5031584
0.49311128
0.48155392
0.47350788
0.45585501
0.46504565
0.47232659
0.42613268
0.53184688
0.53517336
0.53883384
0.54281655
0.54712215
0.55173778
0.55662422
0.56171076
0.56689969
0.57203788
0.57686798
0.58097101
0.58375262
0.58448685
0.58247498
0.57695055
0.56628427
0.54957155
0.52884213
0.50660591
0.48534782
0.46675496
0.46164312
0.46361259
0.45836558
0.45138255
0.44698811
0.43680708
0.44424502
0.44434553
0.42186048
0.4445077
0.44532638
0.4462259
0.44718778
0.44821583
0.44931025
0.4504668
0.45167622
0.45292283
0.45417891
0.45539485
0.45649305
0.45734959
0.45779499
0.45763217
0.4566313
0.45445168
0.45088366
0.44651167
0.44186138
0.43699764
0.43448596
0.43447624
0.43693094
0.43815488
0.434186
0.43085334
0.42202748
0.42191799
0.42702195
0.4203226
0.41840449
0.41850344
0.41860996
0.41871293
0.41881407
0.4189164
0.4190247
0.41914666
0.41929261
0.41947303
0.41969352
0.41994508
0.42022022
0.42052258
0.42080844
0.42100515
0.42102676
0.42080271
0.42038945
0.42004443
0.41926547
0.41886787
0.41839951
0.42164376
0.42215769
0.42022587
0.41761231
0.40996806
0.41004971
0.41946769
0.42128004
0.40807129
0.40803873
0.40799158
0.40793184
0.40785895
0.40777311
0.4076759
0.40757117
0.40746597
0.4073708
0.40729845
0.40726132
0.40726983
0.40734373
0.40749967
0.40773343
0.40803796
0.40845592
0.40911884
0.41021033
0.4109509
0.41057745
0.40988304
0.41142522
0.41066174
0.40811395
0.40696029
0.40382331
0.40423973
0.40867006
0.42576685
0.40220678
0.40215205
0.4020796
0.40199822
0.40190768
0.40180769
0.40169814
0.40157955
0.40145381
0.40132535
0.40120229
0.40109725
0.40102809
0.4010192
0.40109251
0.40126203
0.40155468
0.40207401
0.40309326
0.4047227
0.4063684
0.40631772
0.40602345
0.40649248
0.40573487
0.40323961
0.4030439
0.40166387
0.4007883
0.40609044
0.42807606
0.39942739
0.39942577
0.39941631
0.39939574
0.39936179
0.39931173
0.39924332
0.39915477
0.39904546
0.39891814
0.39878228
0.39865691
0.3985654
0.39851501
0.39850015
0.39852191
0.39859558
0.39876802
0.39914677
0.39986108
0.40112892
0.40286193
0.40258085
0.40269086
0.40178629
0.4014086
0.40156519
0.40069593
0.39828972
0.40434375
0.39972623
346.15597
445.76997
541.5125
617.2168
667.69346
692.06465
692.52987
674.01082
634.40289
583.24889
524.81678
462.97145
401.15959
342.24596
288.10956
239.73582
197.44077
161.05785
130.119
104.01084
82.08068
63.714381
48.360561
35.556064
24.923017
16.158886
9.1322555
3.8984113
1.5243937
0.83298247
0.48460237
489.84886
575.65756
640.01136
684.07212
707.39266
711.05066
698.4447
668.19712
622.97364
568.79623
509.38703
448.1107
387.86795
330.9619
278.89324
232.43302
191.79612
156.77898
126.92458
101.65099
80.350026
62.451935
47.442667
34.890711
24.443204
15.817446
8.8903129
3.7653995
1.49081
0.82233061
0.48245249
565.15747
632.01187
682.24445
713.65705
725.30762
719.61606
698.26802
659.85228
610.71612
554.63525
494.87211
434.39219
375.68145
320.62681
270.43664
225.71486
186.58593
152.81438
123.95056
99.442062
78.721289
61.256956
46.568552
34.253091
23.980479
15.485517
8.6532098
3.6357883
1.4576981
0.81186578
0.48033017
632.04399
686.02517
721.91888
739.3875
739.55177
724.5809
693.65592
650.35525
598.43569
541.09879
481.3335
421.76585
364.52357
311.16929
262.68983
219.54791
181.78975
149.15207
121.18915
97.381212
77.193977
60.130142
45.739369
33.644355
23.535749
15.164225
8.4217831
3.5101039
1.4257361
0.80188823
0.47835124
685.06353
726.36123
749.99348
756.47422
748.66618
724.86784
687.57456
640.4929
586.44145
528.29806
468.77907
410.17742
354.32268
302.53229
255.61208
213.90407
177.39055
145.77838
118.63373
95.465234
75.766912
59.071397
44.955529
33.065102
23.109586
14.854005
8.1964688
3.3888683
1.3954124
0.79251038
0.47656771
726.54632
757.55539
771.20722
769.32036
753.03709
722.33367
680.58821
630.59043
574.943
516.34131
457.21622
399.5784
345.02651
294.67205
249.1683
208.7603
173.36884
142.6807
116.27797
93.690949
74.438829
58.080499
44.217318
32.515827
22.70248
14.555237
7.9776567
3.2725408
1.3669442
0.78375179
0.47499806
760.15635
782.16169
787.30203
778.77052
754.69677
718.73342
673.3116
620.95781
564.12576
505.29799
446.63218
389.93689
336.59662
287.55106
243.33028
204.09552
169.70541
139.84898
114.11591
92.05524
73.208402
57.157132
43.52492
31.996938
22.314851
14.268259
7.7657014
3.1613985
1.3405264
0.77559371
0.47363762
787.61859
801.6747
799.74343
784.37314
754.6569
714.46786
666.07021
611.81886
554.10988
495.19354
437.02812
381.22882
328.9992
281.1395
238.07528
199.88386
166.38582
137.27388
112.14195
90.555092
72.074284
56.300911
42.878436
31.508755
21.94707
13.993366
7.5609069
3.055562
1.3161912
0.76799963
0.47244672
809.94655
817.0865
809.56427
787.65109
753.57858
709.96608
659.10696
603.34842
544.97743
486.06471
428.40193
373.43061
322.2072
275.4171
233.37914
196.1017
163.3967
134.94678
110.35089
89.187676
71.035111
55.511411
42.277911
31.051522
21.599463
13.730816
7.3635274
2.9551318
1.2937236
0.76093231
0.47137341
828.37519
829.73628
817.03503
789.95985
752.1335
705.58992
652.67103
595.68365
536.79579
477.93539
420.74567
366.52352
316.20336
270.3607
229.21041
192.73287
160.72593
132.85981
108.73795
87.950376
70.089538
54.788176
41.723345
30.625434
21.272301
13.480841
7.1737471
2.8601579
1.2729132
0.75436402
0.47075991
844.05808
840.60787
822.78797
791.77725
750.65511
701.59542
646.93493
588.92197
529.612
470.81822
414.05879
360.50275
310.96835
265.93155
225.54262
189.76198
158.36263
131.00589
107.29874
86.84075
69.236295
54.130739
41.214707
30.230649
20.965807
13.243654
6.9917121
2.7706323
1.2536231
0.74823057
0.47040741
857.82991
850.01387
827.73593
793.36079
749.39404
698.16449
642.01699
583.13964
523.48076
464.74755
408.35959
355.36196
306.47778
262.09897
222.36008
187.17542
156.29722
129.37869
106.02935
85.856528
68.474227
53.538636
40.751948
29.867292
20.680166
13.019449
6.8176407
2.6865041
1.235728
0.74250326
0.46955869
870.33727
858.45697
832.45497
795.06201
748.68437
695.54909
638.10466
578.47316
518.50115
459.788
403.65325
351.07945
302.6932
258.8485
219.64784
184.9615
154.52143
127.97267
104.92628
84.995637
67.802292
53.011425
40.335006
29.535464
20.41553
12.808399
6.651762
2.6076878
1.2191065
0.73711658
0.46922482
882.79565
867.07985
837.86767
797.53851
748.96804
694.158
635.51569
575.11558
514.74802
455.95453
399.91811
347.60535
299.58285
256.16306
217.39272
183.11034
153.02818
126.78309
103.98653
84.256262
67.219545
52.54869
39.963814
29.235247
20.172024
12.61066
6.494215
2.5340254
1.2036406
0.73201805
0.46884421
895.64115
876.06537
843.73752
800.93327
750.32939
694.11651
634.34632
573.0948
512.19096
453.13792
397.08317
344.90076
297.13547
254.02826
215.58404
181.61378
151.81161
125.80597
103.20756
83.636854
66.72515
52.150055
39.638306
28.966707
19.949754
12.426374
6.3450857
2.4653439
1.1891591
0.72712904
0.46745673
902.8875
881.89728
848.14208
804.22681
752.28335
694.83012
634.10329
572.08466
510.64035
451.248
395.09412
342.95877
295.33909
252.4338
214.21356
180.46543
150.86704
125.03813
102.58734
83.136136
66.318391
51.815187
39.358415
28.729899
19.748805
12.25568
6.2047959
2.4009807
1.1754631
0.7224099
0.46568658
908.35688
885.96263
851.14669
806.45472
753.94103
695.80431
634.40313
571.86871
509.98594
450.28825
393.96051
341.77285
294.18698
251.37307
213.27549
179.66064
150.19102
124.47716
102.12427
82.75311
65.998683
51.543805
39.124074
28.524868
19.569249
12.098706
6.0737265
2.3403503
1.1624464
0.71779116
0.46356363
915.93913
891.20322
854.83278
808.93777
755.72119
697.16316
635.38115
572.46389
510.2476
450.26483
393.68974
341.34344
293.67702
250.84283
212.76652
179.19653
149.78127
124.12143
101.81724
82.487052
65.765578
51.335683
38.935212
28.351646
19.411142
11.955572
5.9522129
2.2829316
1.1500531
0.71317622
0.46149957
923.42454
897.09282
859.4664
812.65214
758.66697
699.55606
637.3468
574.02688
511.42408
451.08305
394.21736
341.63714
293.79638
250.84259
212.68587
179.07203
149.63674
123.9701
101.66563
82.33752
65.618766
51.190646
38.79176
28.210252
19.274528
11.826385
5.8405448
2.2282526
1.1382539
0.70860527
0.45954696
930.56097
903.16019
864.7515
817.3997
762.95294
703.40608
640.75985
576.97722
513.88871
453.05849
395.72842
342.74758
294.58183
251.37731
213.03483
179.28559
149.75418
124.01987
101.66898
82.304337
65.55808
51.10857
38.693641
28.100685
19.159433
11.711233
5.7389657
2.1758745
1.1270328
0.70410935
0.4579712
937.27647
909.18987
870.45999
822.97268
768.36665
708.53082
645.45581
581.15545
517.49048
456.06721
398.15966
344.6506
296.0312
252.45537
213.82013
179.84526
150.14245
124.27811
101.82808
82.38763
65.582344
51.089355
38.640773
28.022922
19.065864
11.610185
5.6476802
2.1253786
1.1163817
0.69970725
0.4566088
943.42263
915.02512
876.40441
829.19071
774.74993
714.80402
651.39
586.58166
522.2745
460.153
401.54333
347.37028
298.16168
254.08852
215.04852
180.75287
150.80033
124.74293
102.14355
82.587778
65.694014
51.132972
38.633055
27.976909
18.993807
11.523288
5.566878
2.0763584
1.1063
0.69542084
0.45542816
948.5643
920.3489
882.26417
835.69009
781.74342
722.03381
658.55636
593.30233
528.29496
465.36288
405.91766
350.93675
300.99574
256.29282
216.73109
182.01554
151.73206
125.41674
102.61661
82.905342
65.892034
51.239428
38.670173
27.962552
18.943215
11.450559
5.4967424
2.0284124
1.09679
0.69128834
0.45403788
952.46466
924.77937
887.46223
841.61493
788.33003
728.9977
665.59069
600.14691
534.63658
471.00183
410.76449
354.97212
304.26263
258.87695
218.73426
183.54069
152.87378
126.25576
103.21767
83.320841
66.16394
51.401221
38.74862
27.978812
18.914004
11.391982
5.4374643
1.981132
1.0878441
0.68732063
0.45298515
332.92741
428.07923
519.68053
595.16123
648.49666
676.95002
682.66299
668.37052
633.12738
584.82222
528.24228
467.44333
406.13104
347.10552
292.49155
243.47337
200.49641
163.47808
131.99119
105.43573
83.155454
64.519401
48.960755
36.003638
25.256507
16.405289
9.3152588
4.0042845
1.5513979
0.84260383
0.48620297
330.62341
422.83892
510.12395
582.9758
635.42987
664.26204
671.57365
658.98259
627.13498
581.10178
526.03395
466.4188
405.95495
347.52157
293.22649
244.3184
201.32077
164.21372
132.61242
105.94272
83.562624
64.84327
49.218198
36.208985
25.420658
16.535501
9.4218573
4.0713276
1.5688246
0.84912716
0.48782355
328.20059
416.86544
499.96857
570.15045
621.70741
651.02555
659.80633
649.07445
619.71033
576.09434
523.05261
464.98304
405.60314
347.85725
293.93255
245.16629
202.16535
164.97689
133.26264
106.47659
83.992564
65.186168
49.491256
36.427044
25.595195
16.674256
9.5354277
4.1435972
1.5877272
0.85626917
0.48967576
325.56786
410.26746
489.4358
556.91567
607.45471
637.26036
647.39473
638.60533
611.73507
570.60205
519.68999
463.27546
405.07709
348.09489
294.59809
246.01001
203.02649
165.76609
133.94131
107.03779
84.44595
65.548891
49.780671
36.658457
25.780661
16.822084
9.6563111
4.2213054
1.6079876
0.86402231
0.49181863
323.01414
403.37014
478.61108
543.34715
592.75202
622.97986
634.37282
627.56594
603.19832
564.60482
515.92016
461.26878
404.35289
348.21444
295.20974
246.84107
203.89953
166.57925
134.64798
107.62659
84.923356
65.932218
50.087185
36.903875
25.977617
16.979559
9.7849085
4.3047615
1.630434
0.8725145
0.49410792
320.30949
396.03331
467.41191
529.45948
577.66129
608.23108
620.79868
615.97547
594.10532
558.09189
511.72097
458.94615
403.41863
348.21064
295.76552
247.6605
204.78687
167.41893
135.38447
108.24348
85.425194
66.335705
50.410131
37.162777
26.185881
17.145725
9.9206154
4.3945166
1.6564091
0.88198345
0.49625368
318.13167
389.10627
456.47323
515.69366
562.48243
593.18764
606.78011
603.8754
584.46878
551.05883
507.08071
456.29219
402.26145
348.09549
296.25869
248.4639
205.68623
168.28411
136.15039
108.8884
85.951958
66.759419
50.74963
37.435363
26.405753
17.320598
10.063468
4.4912485
1.6850973
0.89236456
0.49891599
315.87272
382.0523
445.44701
501.77943
547.04959
577.75403
592.26779
591.2322
574.27062
543.49248
501.98291
453.27373
400.84426
347.80526
296.66074
249.23081
206.58396
169.16687
136.94217
109.56071
86.504486
67.205206
51.107766
37.723405
26.638491
17.506351
10.214784
4.5951148
1.7168689
0.9037612
0.50198569
313.86545
375.29414
434.67202
488.02418
531.62091
562.12098
577.42945
578.13142
563.55438
535.40095
496.41032
449.87005
399.14363
347.32068
296.95432
249.94963
207.47282
170.06324
137.75804
110.25992
87.082641
67.673521
51.485133
38.027478
26.884607
17.703698
10.37496
4.7065993
1.7521363
0.91628019
0.50546948
312.25819
368.97436
424.28443
474.56258
516.31381
546.38718
562.37611
564.62867
552.35072
526.79467
490.35641
446.06327
397.13759
346.62792
297.12085
250.60771
208.34461
170.96853
138.59573
110.9853
87.686488
68.164693
51.882283
38.348138
27.144584
17.913299
10.544414
4.8262121
1.7913701
0.93005438
0.50937796
311.0644
363.12644
414.36854
461.49354
501.23812
530.68166
547.18139
550.79706
540.7014
517.69185
483.82006
441.83906
394.80566
345.7061
297.13903
251.19158
209.1902
171.87729
139.45246
111.73576
88.315952
68.679569
52.2997
38.685905
27.418866
18.135672
10.723577
4.9544872
1.8351016
0.94525406
0.51372631
310.359
357.8394
405.03231
448.92481
486.52632
515.10197
531.92784
536.71338
528.65736
508.11884
476.80702
437.18727
392.12954
344.53652
297.02345
251.68807
209.9995
172.78329
140.32489
112.50989
88.970706
69.218594
52.737742
39.041268
27.707855
18.371372
10.912883
5.0919786
1.8839341
0.96211162
0.51852583
310.16287
353.17282
396.32629
436.93724
472.27271
499.7541
516.70405
522.45822
516.27769
498.11087
469.32848
432.10174
389.09333
343.0981
296.7192
252.08027
210.76141
173.6795
141.20909
113.30587
89.650168
69.781337
53.196674
39.414675
28.011899
18.620911
11.112752
5.2392733
1.938557
0.98095343
0.52378461
310.38338
349.09969
388.27916
425.58508
458.54418
484.73759
501.59954
508.11467
503.62727
487.70902
461.40355
426.58337
385.68477
341.37155
296.20482
252.35057
211.46394
174.55811
142.10054
114.12146
90.353511
70.367686
53.676612
39.806551
28.331306
18.884698
11.323577
5.396984
1.9997647
1.0022413
0.52951163
310.93614
345.52208
380.84645
414.87209
445.38075
470.127
486.69589
493.765
490.77521
476.9622
453.05927
420.63886
381.89607
339.34136
295.47417
252.48073
212.09447
175.41057
142.99407
114.95398
91.079649
70.977497
54.178392
40.217271
28.666676
19.163051
11.545719
5.5657304
2.0684765
1.0266096
0.53572949
311.7672
342.38892
373.98656
404.78471
432.80346
455.97688
472.06368
479.48798
477.79277
465.92526
444.32917
414.28203
377.72462
336.99502
294.51117
252.45827
212.64072
176.2277
143.88393
115.80031
91.827194
71.610374
54.702438
40.647047
29.018562
19.456203
11.779493
5.746133
2.1457542
1.0548714
0.54247477
312.70368
339.59514
367.63071
395.28732
420.81267
442.32237
457.76047
465.35556
464.75107
454.65765
435.2548
407.53153
373.17113
334.3232
293.3032
252.29661
213.09088
176.99973
144.76375
116.65684
92.594421
72.265683
55.248122
41.095978
29.387709
19.764131
12.02509
5.9387846
2.232808
1.0879958
0.54974908
313.61622
337.03417
361.70286
386.33516
409.39614
429.18165
443.82521
451.44381
451.71657
443.21991
425.87989
400.41262
368.24401
331.32038
291.83399
251.93045
213.4283
177.71608
145.62657
117.51948
93.379268
72.942599
55.815212
41.56396
29.774617
20.086505
12.28279
6.1442136
2.3309807
1.1269984
0.55747812
314.3663
334.58676
356.10997
377.86417
398.51983
416.54978
430.28321
437.82706
438.75371
431.67296
416.25296
392.9573
362.95727
327.98571
290.0933
251.36412
213.63812
178.3658
146.46495
118.38371
94.17933
73.6401
56.403539
42.051849
30.179088
20.423636
12.552999
6.362859
2.4417006
1.1728113
0.56572654
314.81324
332.1276
350.7498
369.80114
388.14514
404.43061
417.16919
424.52279
425.92715
420.0787
406.42644
385.20197
357.33025
324.3234
288.07489
250.58973
213.70258
178.93793
147.27104
119.24452
94.99185
74.356919
57.012647
42.560005
30.600893
20.775834
12.836071
6.5950291
2.5663975
1.2258417
0.57510892
314.88516
329.59759
345.57329
362.11052
378.25669
392.83329
404.49826
411.55509
413.28928
408.49626
396.45446
377.18821
351.38663
320.34097
285.77588
249.59999
213.63576
179.42419
148.03685
120.09652
95.813713
75.091514
57.641875
43.087522
31.039815
21.14337
13.132333
6.8408373
2.7063728
1.2859205
0.5862608
314.64799
326.97323
340.51895
354.72664
368.80113
381.72046
392.28052
398.94457
400.88155
396.97857
386.3895
368.95837
345.15399
316.05125
283.1969
248.38766
213.41914
179.81403
148.75402
120.93392
96.641453
75.84209
58.290444
43.63406
31.495367
21.526403
13.442027
7.1001458
2.8626498
1.3522873
0.59940344
314.03215
324.24499
335.59411
347.65429
359.77863
371.0944
380.53321
386.71814
388.74375
385.57514
376.28218
360.55556
338.66415
311.47193
280.34172
246.94371
213.0127
180.09384
149.41363
121.75057
97.471265
76.606613
58.957479
44.199487
31.968399
21.924772
13.765073
7.3725646
3.035788
1.423994
0.61453619
313.05762
321.39331
330.76074
340.85208
351.15374
360.93242
369.25176
374.88881
376.90446
374.32762
366.17941
352.02379
331.95068
306.62289
277.21751
245.26625
212.42961
180.25282
150.0066
122.53997
98.299019
77.382795
59.641942
44.783423
32.45947
22.337562
14.101518
7.6575264
3.2256889
1.5001727
0.63185804
311.69882
318.43
326.04747
334.35133
342.95435
351.25924
358.46158
363.48661
365.39955
363.27956
356.12826
343.40733
325.04875
301.52743
273.83505
243.35576
211.66205
180.27264
150.52377
123.29549
99.120288
78.168088
60.342603
45.385329
32.96768
22.764901
14.452093
7.9542511
3.4315095
1.5804016
0.65165302
309.68669
315.14774
321.32187
328.08741
335.16676
342.09344
348.19875
352.55652
354.27672
352.48155
346.17955
334.7531
317.99709
296.21161
270.20746
241.216
210.71104
180.18863
150.9617
124.01078
99.930391
78.959692
61.058067
46.004675
33.492731
23.207362
14.818046
8.2616289
3.6516726
1.6649063
0.67425892
306.89064
311.39139
316.42628
321.92579
327.69666
333.38573
338.45378
342.11953
343.57342
341.98168
336.38485
326.10999
310.83634
290.70394
266.35069
238.85212
209.57165
179.96011
151.3105
124.67893
100.72433
79.754527
61.786764
46.640886
34.034583
23.663302
15.198776
8.5781684
3.884
1.7544703
0.70003406
303.0494
306.91892
311.14576
315.68756
320.40985
325.05109
329.18872
332.17816
333.31728
331.82434
326.79543
317.52778
303.60848
285.03654
262.28477
236.27122
208.23879
179.56844
151.55907
125.29233
101.49668
80.549177
62.52688
47.293234
34.593094
24.132423
15.593557
8.9020937
4.1260012
1.8501647
0.72929973
297.863
301.41803
305.17367
309.09229
313.07102
316.91245
320.28925
322.67839
323.49813
322.03177
317.45151
309.05246
296.35637
279.24237
258.03018
233.48219
206.71323
179.02439
151.69898
125.84286
102.24151
81.339807
63.276244
47.960681
35.167872
24.61565
16.001653
9.2308434
4.3752876
1.9533804
0.7623208
291.37312
294.82486
298.36311
301.94002
305.46168
308.76545
311.59001
313.50946
314.05575
312.58819
308.36827
300.71559
289.11526
273.35142
253.60743
230.49491
204.99541
178.31899
151.70802
126.32062
102.95228
82.122091
64.032243
48.641721
35.757873
25.113401
16.422244
9.5642413
4.6306967
2.0666536
0.79951767
283.80071
287.25718
290.73349
294.16362
297.45008
300.44429
302.9233
304.53049
304.8887
303.43656
299.52721
292.52521
281.90639
267.38685
249.03407
227.31819
203.0872
177.45457
151.62802
126.7243
103.62296
82.891302
64.791868
49.334512
36.361811
25.62531
16.855475
9.9115567
4.8932016
2.1949862
0.84198975
275.44317
278.93119
282.41519
285.81028
289.00661
291.85863
294.16341
295.60971
295.88198
294.4933
290.88051
284.46439
274.73332
261.36101
244.31993
223.95557
200.98671
176.42203
151.41353
127.04277
104.24621
83.642187
65.551871
50.037266
36.978998
26.151077
17.301455
10.271726
5.1657451
2.3459223
0.8920874
266.54837
270.06154
273.5693
276.97865
280.16823
282.987
285.24167
286.65133
286.93552
285.67181
282.36645
276.49837
267.58268
255.27266
239.46981
220.41056
198.6902
175.20822
151.04083
127.26113
104.81277
84.368696
66.308756
50.748491
37.609113
26.690531
17.7594
10.642818
5.4528869
2.5272943
0.9537564
257.24897
260.77283
264.3031
267.74425
270.97033
273.82486
276.11597
277.58369
277.96456
276.88964
273.91829
268.58282
260.43181
249.11477
234.48337
216.68217
196.19275
173.80514
150.51439
127.36233
105.31128
85.063648
67.058461
51.466504
38.252047
27.244158
18.228668
11.025455
5.7595769
2.7414537
1.032748
247.63597
251.15094
254.693
258.16662
261.44731
264.37689
266.76296
268.35899
268.90533
268.07801
265.47474
260.67275
253.25471
242.87684
229.35823
212.77079
193.49244
172.20607
149.82242
127.33842
105.73168
85.719223
67.796085
52.188927
38.907372
27.81292
18.711695
11.424014
6.0918378
2.986215
1.1382759
237.86339
241.34109
244.87001
248.35859
251.68631
254.70018
257.20896
258.97569
259.73682
259.20416
257.0018
252.74203
246.03797
236.55792
224.10132
208.68149
190.58952
170.40943
148.96635
127.2161
106.07206
86.328433
68.515967
52.912451
39.573882
28.397179
19.210568
11.844137
6.4540478
3.2537648
1.2841473
228.15093
231.55743
235.03836
238.50959
241.85744
244.93578
247.56224
249.50915
250.5051
250.29118
248.50908
244.79626
238.79007
230.17163
218.72905
204.43164
187.49691
168.41788
147.93279
126.93459
106.31421
86.881372
69.211239
53.632715
40.249464
28.996539
19.726551
12.289193
6.8407396
3.5347754
1.4772182
218.7
222.00566
225.40564
228.82496
232.1587
235.2698
237.98532
240.09351
241.32068
241.41958
240.05355
236.87735
231.54632
223.75194
213.27521
200.05226
184.23823
166.24429
146.7244
126.50301
106.45057
87.36912
69.874403
54.344449
40.931132
29.609899
20.260239
12.757873
7.2492848
3.8328525
1.7095681
209.56222
212.75068
216.0501
219.39441
222.6883
225.80513
228.58281
230.8209
232.26558
232.66042
231.69554
229.03623
224.35193
217.34171
207.78137
195.58104
180.8449
163.9107
145.35182
125.92323
106.45221