/*--------------------------------*- C++ -*----------------------------------*\
| =========                 |                                                 |
| \\      /  F ield         | OpenFOAM: The Open Source CFD Toolbox           |
|  \\    /   O peration     | Version:  2406                                  |
|   \\  /    A nd           | Website:  www.openfoam.com                      |
|    \\/     M anipulation  |                                                 |
\*---------------------------------------------------------------------------*/
FoamFile
{
    version     2.0;
    format      ascii;
    arch        "LSB;label=32;scalar=64";
    class       volScalarField;
    location    "0.05";
    object      nut;
}
// * * * * * * * * * * * * * * * * * * * * * * * * * * * * * * * * * * * * * //

dimensions      [0 2 -1 0 0 0 0];

internalField   nonuniform List<scalar> 
8260
(
0.043548351
0.049899044
0.057535614
0.066432834
0.076583664
0.088027129
0.10083991
0.11512393
0.1309946
0.14860828
0.16814582
0.18978141
0.21367429
0.23993016
0.26854078
0.29932467
0.33183093
0.36522162
0.39813637
0.42851909
0.45334687
0.46837905
0.46793987
0.44497972
0.39213022
0.30471095
0.18919153
0.095905231
0.065152717
0.051771215
0.042371888
0.051669513
0.058282195
0.065776219
0.074359461
0.084146421
0.095225172
0.10769079
0.12165552
0.13724601
0.15461338
0.17393199
0.19537034
0.21907649
0.24514519
0.27355374
0.30410423
0.33632958
0.36937555
0.40186387
0.43171676
0.45589528
0.47014586
0.46878556
0.44477595
0.39080784
0.30238946
0.18676712
0.094162145
0.064791455
0.051609264
0.04233554
0.061196051
0.067737323
0.07507328
0.083396166
0.092850362
0.10356282
0.1156573
0.12926589
0.14453022
0.16160406
0.18065636
0.20185044
0.22532367
0.25115846
0.2793161
0.3095805
0.34146651
0.37410189
0.4060883
0.43532366
0.45875096
0.47210242
0.46968686
0.44448028
0.38924114
0.29969501
0.18393003
0.092364778
0.064410871
0.051425926
0.042302552
0.072354871
0.078614782
0.085701987
0.093733466
0.1028476
0.11318505
0.12488968
0.13811233
0.15300992
0.16974366
0.18848078
0.20937997
0.23256829
0.25811359
0.28596197
0.31587671
0.34735255
0.37949734
0.41088992
0.4394015
0.46195485
0.47426656
0.47063661
0.44405925
0.38737252
0.29656054
0.18061437
0.090496519
0.064001887
0.051220111
0.042274617
0.085322724
0.091188286
0.097942054
0.10562119
0.11435672
0.12429147
0.13557898
0.14838258
0.16287151
0.17921558
0.19758299
0.21812879
0.2409709
0.26616052
0.29362789
0.32311539
0.35409508
0.38565248
0.41634117
0.44400286
0.46553791
0.47664557
0.47161659
0.44346813
0.38513291
0.29290275
0.17674598
0.08853949
0.063558209
0.050988434
0.042251239
0.1002197
0.10566564
0.1120247
0.11929579
0.12760732
0.13710248
0.14793893
0.16028674
0.17432317
0.19022523
0.20816331
0.22828931
0.25071246
0.27546793
0.30246788
0.33143376
0.36181301
0.39266608
0.42251885
0.44918082
0.46952764
0.4792391
0.47259671
0.44264631
0.38243465
0.28861976
0.17224378
0.08647582
0.063074159
0.050727349
0.042229368
0.11716149
0.12219579
0.12813415
0.13496568
0.14282058
0.1518441
0.16219657
0.17405169
0.18759133
0.2029973
0.22044185
0.24007379
0.26199389
0.28622212
0.3126517
0.34098214
0.37063488
0.40064285
0.42950137
0.45498581
0.47394421
0.48203471
0.47352995
0.44151179
0.37916582
0.28358644
0.16702051
0.084290718
0.062545197
0.050435173
0.042191579
0.13624141
0.14089459
0.14641818
0.15280806
0.16019725
0.16873346
0.17857931
0.18991084
0.2029125
0.21776871
0.23465241
0.2537089
0.2750306
0.2986232
0.32436073
0.35191977
0.38069477
0.40968876
0.43736407
0.46146021
0.47879454
0.48500127
0.47434512
0.43995335
0.37518263
0.27764788
0.16098464
0.081975024
0.061967853
0.050109954
0.042153768
0.15752683
0.16184825
0.16699149
0.17296635
0.17990715
0.18796266
0.19729667
0.20808637
0.22051724
0.23477437
0.25102973
0.26942435
0.29004221
0.31287551
0.33777923
0.36440655
0.39212408
0.41990312
0.44617084
0.46862956
0.48406291
0.48807893
0.47493628
0.43781982
0.3702992
0.27061114
0.15404499
0.079527374
0.061339636
0.049749009
0.042119891
0.18103643
0.18509099
0.18991537
0.19552946
0.20206577
0.20967243
0.21851226
0.22876129
0.24060362
0.25422251
0.26978687
0.28743218
0.30723357
0.32917015
0.35307841
0.37858806
0.40503747
0.4313648
0.45596056
0.47648886
0.48969682
0.49116462
0.47514779
0.43490509
0.36427391
0.26223426
0.14611978
0.076955803
0.060659147
0.049348519
0.042084564
0.20668909
0.21056529
0.21515583
0.22049064
0.22669524
0.23391375
0.24230505
0.25204028
0.26329838
0.27625717
0.29107944
0.30789304
0.32676321
0.34765587
0.37038948
0.39457062
0.41950937
0.44411006
0.46672559
0.48498133
0.49558587
0.49409072
0.47475309
0.43092746
0.35679107
0.25221167
0.13715321
0.074279387
0.059925594
0.048903774
0.042047453
0.23430293
0.23809421
0.24255105
0.24770925
0.25368273
0.26060346
0.26862164
0.27789907
0.28860446
0.30090514
0.31495323
0.33086552
0.34869514
0.36839364
0.38976133
0.41238189
0.43553722
0.45809772
0.47837857
0.49396633
0.50153034
0.49659421
0.47342439
0.42550104
0.34743651
0.24015461
0.1271446
0.071529665
0.059137478
0.048407887
0.042011449
0.26356553
0.26737261
0.27180413
0.2768956
0.28274928
0.2894814
0.29722426
0.30612498
0.31633591
0.32800703
0.34127345
0.35623545
0.37292969
0.39129027
0.41109751
0.43191141
0.45298553
0.47315651
0.49070227
0.50317136
0.50719492
0.49827193
0.47068987
0.41809652
0.33566587
0.22560226
0.11619475
0.068666421
0.058290343
0.047880235
0.041975811
0.29398533
0.29790211
0.30241112
0.30754428
0.31338873
0.32004484
0.32762175
0.33624251
0.34603687
0.3571306
0.36963412
0.38362334
0.39911096
0.41600711
0.43406743
0.45282529
0.47150437
0.48890736
0.50327562
0.51212141
0.51204121
0.4985162
0.46587306
0.40798762
0.32076538
0.20806456
0.10456893
0.065712877
0.057373285
0.047336595
0.041932012
0.32477727
0.32888299
0.33355884
0.3388288
0.34476574
0.35144844
0.35896577
0.36740933
0.37687706
0.38746423
0.3992487
0.41227161
0.42651066
0.44184181
0.45798762
0.47444861
0.49041457
0.50465233
0.51536687
0.52003678
0.51523037
0.49642284
0.45800782
0.394179
0.3018055
0.18706354
0.093397297
0.062816103
0.056365093
0.046803623
0.041883184
0.35483794
0.35918038
0.36407923
0.3695495
0.37564949
0.38244067
0.38998416
0.39834086
0.40757082
0.41772704
0.42884575
0.44092466
0.4538942
0.46758323
0.48166918
0.49560922
0.50855087
0.51921965
0.52578247
0.52568732
0.51548419
0.49066085
0.44572003
0.37531167
0.27759389
0.16231296
0.083608323
0.060074817
0.055235472
0.046303599
0.041835555
0.38268985
0.3872735
0.39240496
0.3980891
0.4043693
0.41129012
0.41889212
0.42720838
0.43625623
0.4460377
0.45653149
0.46767842
0.479353
0.49132804
0.5032216
0.51443229
0.52405112
0.53075138
0.53265667
0.52718743
0.51088916
0.47929017
0.42706603
0.34954689
0.24666321
0.13417473
0.074490957
0.05755169
0.053810137
0.045871432
0.041779905
0.40625505
0.41102715
0.41633988
0.42218817
0.42860109
0.4356039
0.44321529
0.45144222
0.46027071
0.46965741
0.47951581
0.48971562
0.50005421
0.51022975
0.51979121
0.52806622
0.53407175
0.53641258
0.53315991
0.52170996
0.49862295
0.45951108
0.39931957
0.31444637
0.20742754
0.10490106
0.066048084
0.054653832
0.05307149
0.045551601
0.041719539
0.42246962
0.42732408
0.43270343
0.4385945
0.4450161
0.45197094
0.45945628
0.46745024
0.47590878
0.48475015
0.49384653
0.50299048
0.51188951
0.52014989
0.52720825
0.53230785
0.53439302
0.53198439
0.52308917
0.50508476
0.47457456
0.42733074
0.35871155
0.2669234
0.15901817
0.0848075
0.059283297
0.05197579
0.051764883
0.045351473
0.041686373
0.42625508
0.43105318
0.43634762
0.44211693
0.44836419
0.45508069
0.46224201
0.46979705
0.47765789
0.48570922
0.4937769
0.50160742
0.50884341
0.51496993
0.51931892
0.52098386
0.51880297
0.5112481
0.49626214
0.47121968
0.43281462
0.37715281
0.30016854
0.20362696
0.10647638
0.068275718
0.054122925
0.050386255
0.050162901
0.045241361
0.041632259
0.40869386
0.41329255
0.41834685
0.42382476
0.42971593
0.43599487
0.44261322
0.44949215
0.45651535
0.46352159
0.47026069
0.47643831
0.48163995
0.48528547
0.48661181
0.48461163
0.47792766
0.46490921
0.44352085
0.41120258
0.3648325
0.30139055
0.21724526
0.12742241
0.076468512
0.056697041
0.051296591
0.048644945
0.048642594
0.044916975
0.041626254
0.35408417
0.35851113
0.36334503
0.3685359
0.37405569
0.37985729
0.38586501
0.39196572
0.3979986
0.40374275
0.40890968
0.41311806
0.41585221
0.41652553
0.41429996
0.40814156
0.39670504
0.37831503
0.35071097
0.31151189
0.2581416
0.19118656
0.12836973
0.079910973
0.056882437
0.050287766
0.049029928
0.046916852
0.046971537
0.044467364
0.041615997
0.25338925
0.25677883
0.26045712
0.26435848
0.26844204
0.27264818
0.2768893
0.28103693
0.2849136
0.28828644
0.29085915
0.29227559
0.29207964
0.28971252
0.28461082
0.27597238
0.26300109
0.24461008
0.21987095
0.18815839
0.14967983
0.10779613
0.075970757
0.056334317
0.049451832
0.047966438
0.046845149
0.04523116
0.045393193
0.044003174
0.041565766
0.14267159
0.14489464
0.14730162
0.14983819
0.15246483
0.15512916
0.15776583
0.16026313
0.16247961
0.16425338
0.16539329
0.16566701
0.16482882
0.16253143
0.1584731
0.15227665
0.14363849
0.13215964
0.11781684
0.10087072
0.082371192
0.064919056
0.053142044
0.047523607
0.046085081
0.045311283
0.044796419
0.043615068
0.043978422
0.043461238
0.041418364
0.071682798
0.073165801
0.074744694
0.076397925
0.078088365
0.079757897
0.081313804
0.082722192
0.083966523
0.085002645
0.085757551
0.086114215
0.085972155
0.085182048
0.08352234
0.08087145
0.077179025
0.072362967
0.066633666
0.060220247
0.053826107
0.048357771
0.045168601
0.044317253
0.044148652
0.043625863
0.043235467
0.042448619
0.042853992
0.043199731
0.041110144
0.047161873
0.047585471
0.048032697
0.04849711
0.048975798
0.049464325
0.049956184
0.050442911
0.050914518
0.051358324
0.05175504
0.052076969
0.052282585
0.052321156
0.052144325
0.051704049
0.050863928
0.04952196
0.047926222
0.046155002
0.044432434
0.043081003
0.042742709
0.04288081
0.042549222
0.042227426
0.04204157
0.041595598
0.041937258
0.041929792
0.040909917
0.041558957
0.041733184
0.0419107
0.042089098
0.04226641
0.042440084
0.042607366
0.042765523
0.042911809
0.043043097
0.043155214
0.043242737
0.043297493
0.043310539
0.043273552
0.043178215
0.042998879
0.042716089
0.042360783
0.041991912
0.041662102
0.041508417
0.041492656
0.041594305
0.041664827
0.041485482
0.041324213
0.040901943
0.040890504
0.041141134
0.04083617
0.040348932
0.04041872
0.040486734
0.04055125
0.04061092
0.040664939
0.04071286
0.040754564
0.040790267
0.040820341
0.040844965
0.040863553
0.04087633
0.04088634
0.04089335
0.040893086
0.040884166
0.040867727
0.040850458
0.040832025
0.040792256
0.040771437
0.040747072
0.040896397
0.040916179
0.040822911
0.040701294
0.040341709
0.040345506
0.040789225
0.040888146
0.040112759
0.040134811
0.040155157
0.040173157
0.04018833
0.040200322
0.040208977
0.04021442
0.040217117
0.040217907
0.04021792
0.040218316
0.040219751
0.040223393
0.040230682
0.040241877
0.04025654
0.040276464
0.040307353
0.040356455
0.040394928
0.040377436
0.040344251
0.040416201
0.040378824
0.040256354
0.040199514
0.040049528
0.040070087
0.040285313
0.04109922
0.039958172
0.039960907
0.039962183
0.039962262
0.039961029
0.039958421
0.039954455
0.03994926
0.039943119
0.039936532
0.039930273
0.039925352
0.039922651
0.039922966
0.039927035
0.039935375
0.03994921
0.039973575
0.040021485
0.04009804
0.04017536
0.040173245
0.040159695
0.040181068
0.040144267
0.040023483
0.040012091
0.039944789
0.039900734
0.040157885
0.041205923
0.039858525
0.039859014
0.039858793
0.039857624
0.039855401
0.039852038
0.039847518
0.039841868
0.039835158
0.039827531
0.039819306
0.039811221
0.039804822
0.039801023
0.039799504
0.039800101
0.039803419
0.039811698
0.039830659
0.039865908
0.039926045
0.040008403
0.039995359
0.039999161
0.03995385
0.039934962
0.039940757
0.039896281
0.039780008
0.04006671
0.039848697
0.0036126972
0.0056563698
0.0085440588
0.012300341
0.017016646
0.02284137
0.029962154
0.038688659
0.048896249
0.061082561
0.075485737
0.092323578
0.11182198
0.13425656
0.15987744
0.18884301
0.22114412
0.25648415
0.29411873
0.33263883
0.3697356
0.40188578
0.42396812
0.42902813
0.40850664
0.35384088
0.26249362
0.15315298
0.080991257
0.057327485
0.043881395
0.0061676266
0.0089354688
0.012324224
0.016466765
0.021498531
0.027628952
0.035157093
0.044137595
0.054698293
0.067198705
0.08187375
0.098956142
0.11868719
0.14132805
0.16710544
0.1961505
0.22842361
0.26358979
0.30086436
0.33879749
0.37504132
0.40604488
0.42667485
0.43000742
0.40759376
0.35113692
0.25849755
0.14962067
0.079773662
0.056932153
0.043784052
0.0078000301
0.010745295
0.014445005
0.019018982
0.024582947
0.03133307
0.039446314
0.048861273
0.059916523
0.072859037
0.087915888
0.10532835
0.12534775
0.14822705
0.17417696
0.20330918
0.23555647
0.27054911
0.30746296
0.34480984
0.38020655
0.41007404
0.42926803
0.43089553
0.40661844
0.34839824
0.25448088
0.14612533
0.078563199
0.056540979
0.043686981
0.0097044121
0.013044961
0.017125809
0.022067873
0.028028052
0.035204316
0.043628371
0.053481781
0.064986612
0.078348921
0.093787925
0.11154207
0.13185963
0.15498226
0.18110709
0.21032666
0.2425469
0.27736463
0.31391459
0.35067769
0.38523449
0.41397847
0.4317553
0.43170243
0.40559211
0.34564123
0.25046243
0.1426881
0.077389872
0.056166698
0.043595647
0.011569956
0.015235354
0.019670992
0.024999554
0.031425429
0.038975312
0.047783839
0.05806052
0.069980821
0.083736638
0.099542578
0.11762928
0.1382372
0.16159739
0.18789268
0.21719528
0.24938567
0.28402334
0.32020848
0.3563923
0.39011943
0.4177562
0.434139
0.43243497
0.40452533
0.34287809
0.24645665
0.13932839
0.076273636
0.055814214
0.043512771
0.013373343
0.017411485
0.022234163
0.027982729
0.034789088
0.042709061
0.051926021
0.062606003
0.074914216
0.089040283
0.10519296
0.12359491
0.14447998
0.16806755
0.19452485
0.22390495
0.25605898
0.29051145
0.32633372
0.36194527
0.39485634
0.42140615
0.4364224
0.43310086
0.40342929
0.34012135
0.24247778
0.13606419
0.075224427
0.055484649
0.043439401
0.015194243
0.019594338
0.024794325
0.030972775
0.038123685
0.046432626
0.056042055
0.067103785
0.079778892
0.094254303
0.1107322
0.12943215
0.15057944
0.17438178
0.20099181
0.23044298
0.26255072
0.29681622
0.33227945
0.36732857
0.39944083
0.42492809
0.43860962
0.43370862
0.40231574
0.33738383
0.23853991
0.13290948
0.074249795
0.055177515
0.043375467
0.016969879
0.021734491
0.027326477
0.033887863
0.041421075
0.050117094
0.060106443
0.071532293
0.084556665
0.099361529
0.11614654
0.13512731
0.15652121
0.18052584
0.20727983
0.23679111
0.26884606
0.30292455
0.33803486
0.37253451
0.40386914
0.42832254
0.4407056
0.43426735
0.40119694
0.33467849
0.23465663
0.12987447
0.073351873
0.054891564
0.043319291
0.018718763
0.023845019
0.02983615
0.036739965
0.04466312
0.053739365
0.064094172
0.07586934
0.089225665
0.10434218
0.12141711
0.14066191
0.16228783
0.18648451
0.21337153
0.24292971
0.27492939
0.308823
0.3435893
0.37755589
0.40813795
0.4315907
0.44271593
0.4347866
0.40008555
0.33201836
0.23084091
0.12696824
0.072525344
0.054625443
0.04326859
0.020435391
0.025918672
0.032285559
0.039541266
0.047839642
0.057279264
0.067983185
0.080091326
0.093762302
0.10917351
0.12652164
0.14601512
0.16786085
0.19223865
0.21924359
0.24884122
0.28078465
0.31449803
0.34893227
0.38238599
0.41224442
0.43473431
0.44464677
0.43527639
0.39899434
0.3294165
0.22710465
0.12419813
0.071764352
0.054378102
0.043238586
0.022116373
0.027953154
0.034659782
0.042277403
0.050930257
0.060714547
0.071749774
0.084173415
0.098141546
0.1138308
0.13143723
0.15116647
0.17321891
0.19776153
0.22487273
0.25450707
0.28639542
0.31993609
0.3540535
0.38701838
0.41618616
0.43775553
0.44650471
0.43574701
0.39793611
0.32688594
0.22345904
0.12156952
0.071064608
0.054147227
0.043219394
0.023761605
0.029932255
0.036962462
0.044925896
0.05391361
0.064022131
0.075369281
0.088090534
0.10233945
0.11829135
0.13614247
0.15609337
0.17833748
0.20302717
0.23023894
0.25990827
0.29174519
0.32512367
0.3589429
0.39144686
0.41996122
0.44065685
0.44829663
0.43620894
0.39692353
0.32443958
0.21991619
0.11908614
0.070421878
0.053931727
0.043178481
0.025362528
0.031844559
0.039187223
0.047470093
0.056774212
0.067184008
0.078822398
0.091822577
0.1063358
0.12253488
0.14061241
0.16076864
0.18318641
0.20801356
0.235321
0.26502558
0.29681739
0.33004731
0.36359058
0.39566537
0.42356793
0.44344094
0.45002955
0.43667265
0.39596909
0.32209003
0.21648822
0.11675023
0.069831871
0.053729246
0.043159547
0.026928413
0.033697192
0.041336977
0.0499034
0.059496456
0.070186644
0.082094702
0.095351091
0.11010602
0.12653373
0.14481692
0.16515818
0.18773638
0.21269677
0.24009716
0.26983963
0.30159544
0.33469369
0.36798684
0.3996681
0.42700476
0.44611055
0.45171048
0.43714853
0.39508496
0.31984955
0.21318558
0.11456072
0.069290181
0.053537888
0.04313957
0.02839314
0.035418419
0.043327494
0.052169244
0.062034207
0.072998283
0.085155532
0.098643428
0.11361494
0.1302445
0.14871775
0.16923
0.19196327
0.21705258
0.24454556
0.274331
0.30606279
0.33904955
0.3721221
0.40344931
0.43027014
0.44866832
0.45334626
0.43764665
0.39428289
0.31773
0.21001767
0.11251563
0.068788987
0.053354678
0.043074721
0.029674492
0.036944777
0.045107936
0.054224363
0.064343904
0.075550572
0.087942799
0.10164354
0.11681492
0.13362929
0.15228143
0.17295945
0.1958417
0.22105706
0.24864435
0.27848026
0.31020293
0.34310173
0.37598686
0.40700331
0.43336241
0.4511167
0.45494339
0.43817669
0.3935741
0.31574281
0.20700502
0.11059047
0.068318427
0.053178114
0.042992641
0.031048123
0.038475227
0.046803995
0.056101291
0.066416861
0.077821663
0.090414251
0.10431583
0.11967363
0.13666516
0.15548503
0.17632087
0.19934674
0.2246865
0.25237173
0.28226807
0.3139994
0.3468371
0.37957158
0.41032433
0.43627972
0.4534578
0.45650782
0.43874777
0.3929692
0.31389882
0.20416671
0.1087638
0.067873608
0.053005698
0.042894796
0.032371788
0.03992301
0.048379515
0.05779728
0.068250121
0.079806876
0.092560341
0.10663063
0.12216319
0.13932733
0.15830426
0.17928915
0.20245374
0.22791741
0.25570606
0.28567516
0.3174358
0.35024252
0.38286668
0.41340646
0.43901987
0.45569326
0.45804487
0.43936827
0.39247805
0.31220818
0.20152017
0.10701651
0.067452165
0.052833927
0.04279949
0.033665247
0.041291172
0.049826264
0.059328942
0.069866584
0.081520356
0.094386093
0.10858145
0.12425007
0.14155592
0.1606842
0.18181911
0.20512815
0.23072595
0.25862588
0.28868243
0.3204958
0.35330484
0.3858624
0.41624353
0.44158029
0.45782413
0.45955902
0.44004572
0.39210969
0.31068017
0.19908124
0.10533114
0.067052993
0.052664181
0.04271304
0.034897403
0.042555317
0.051123617
0.060669251
0.071258731
0.082976832
0.095921551
0.1102112
0.12598997
0.14341573
0.16266731
0.18392926
0.20736649
0.2330902
0.26110928
0.2912672
0.32315578
0.35600164
0.38854771
0.418829
0.4439579
0.45985076
0.46105385
0.44078665
0.39187222
0.3093231
0.19686409
0.10369112
0.066675569
0.05249832
0.042640264
0.036073254
0.043706021
0.052255173
0.061794945
0.072392005
0.084131986
0.097112406
0.11145613
0.12731207
0.1448338
0.16419418
0.18557385
0.20913581
0.23498854
0.26313793
0.29341935
0.32541542
0.35833848
0.39091418
0.42115615
0.44614135
0.46177249
0.46253186
0.44159643
0.39177269
0.30814421
0.19488149
0.10208016
0.066319672
0.052336379
0.042575691
0.037191772
0.044738103
0.053207226
0.062685261
0.073238892
0.084952279
0.097937779
0.11231682
0.12823201
0.1458307
0.16528158
0.1867623
0.21043572
0.23640964
0.26469125
0.29511574
0.32724997
0.36029206
0.3929508
0.42321774
0.4481424
0.46358807
0.4639944
0.44247918
0.39181703
0.30714957
0.19314524
0.10048178
0.065985334
0.052178916
0.042517721
0.038263423
0.045653442
0.053967244
0.063310754
0.073775745
0.085456294
0.098443346
0.11283367
0.12874558
0.14636167
0.16586213
0.18742281
0.21120443
0.23731397
0.26574917
0.29634132
0.32865248
0.36186599
0.39465359
0.42500605
0.44994744
0.4652954
0.46543932
0.44343759
0.3920099
0.30634398
0.19166644
0.098878888
0.065672678
0.052026797
0.042453769
0.039357871
0.046491249
0.05454299
0.063654482
0.073950121
0.085505437
0.098412649
0.11277131
0.12869298
0.14634129
0.16589787
0.18753908
0.21142636
0.23766771
0.2662604
0.2970312
0.32953799
0.36295415
0.39593488
0.42644493
0.4514811
0.46682495
0.46682606
0.44445927
0.39235449
0.30573083
0.19045579
0.097253252
0.065381537
0.051880951
0.042403351
0.0036064867
0.0055968722
0.0083539945
0.011957765
0.016503135
0.022040224
0.028856927
0.037196407
0.047033139
0.058799948
0.072761102
0.089160936
0.10827711
0.13035294
0.15565464
0.1843619
0.21648736
0.25176239
0.28947361
0.32826614
0.36585232
0.39871896
0.42175572
0.42801833
0.40889031
0.35563642
0.26544301
0.15592141
0.081954116
0.057682688
0.043952094
0.0038301134
0.0058799398
0.0085890928
0.012092406
0.016504865
0.02195007
0.028661008
0.036848362
0.046604571
0.058172814
0.071866725
0.087982397
0.10680728
0.12861358
0.15366286
0.18213832
0.21406585
0.24919497
0.28683423
0.32565321
0.36339575
0.39657207
0.42009527
0.4270318
0.40874658
0.3564161
0.26712793
0.15764029
0.082566824
0.057917539
0.044024209
0.0040693396
0.0061574627
0.0088589124
0.012317526
0.016655714
0.021991345
0.028558472
0.036556439
0.046105677
0.057455483
0.070901525
0.086750348
0.10529668
0.12682387
0.15160291
0.1798272
0.21153729
0.24650232
0.28405488
0.32289082
0.36078679
0.39428096
0.41831134
0.4259567
0.40856404
0.35721887
0.26889829
0.15947924
0.083231637
0.058174227
0.044106483
0.0043209068
0.0064329619
0.0091257432
0.012539941
0.016803115
0.022032796
0.028454414
0.036267675
0.045612755
0.056735308
0.069927328
0.085501784
0.10375709
0.12498867
0.14947913
0.17743168
0.20890325
0.24368403
0.28113269
0.31997434
0.35801889
0.39183793
0.41639567
0.42478524
0.40833662
0.35804241
0.27075448
0.16144193
0.08394736
0.058452819
0.044201477
0.0045896478
0.0067126567
0.0093922972
0.012761426
0.016949504
0.022075525
0.028351508
0.035984009
0.045124249
0.056017122
0.068949315
0.084244784
0.10219625
0.12311477
0.14729781
0.17495665
0.20616678
0.24074102
0.27806628
0.31689992
0.35508585
0.3892353
0.41433975
0.42350908
0.40805754
0.35888394
0.27269693
0.16353371
0.084736439
0.058757282
0.044304997
0.0048717178
0.0069934259
0.0096566213
0.012981753
0.017096546
0.022122098
0.028254614
0.035710673
0.044646896
0.055311009
0.067975397
0.082975129
0.10060667
0.12119268
0.14504656
0.17238727
0.20331079
0.23765415
0.27483473
0.31364466
0.35196518
0.38644975
0.41212103
0.42210868
0.40771324
0.35972811
0.27471508
0.16576308
0.085631591
0.059094348
0.044409452
0.005182857
0.0072991011
0.0099413303
0.013220906
0.017261517
0.022186205
0.028174724
0.035454809
0.044184729
0.05461591
0.067001416
0.081678702
0.098977666
0.11922068
0.14271714
0.16971568
0.20032742
0.23441501
0.2714285
0.31019765
0.3486453
0.38346751
0.40972532
0.42057081
0.40729349
0.36056681
0.2768047
0.16813901
0.086615286
0.059462856
0.044532261
0.005512127
0.0076162761
0.010232963
0.013463984
0.017428742
0.022251525
0.028095257
0.035199257
0.043719856
0.053901529
0.066014052
0.080379332
0.097334736
0.11721563
0.14033739
0.16697006
0.19724372
0.23104833
0.26786894
0.30657595
0.34513815
0.38029632
0.40715644
0.41889536
0.40679435
0.36140677
0.27897357
0.17066425
0.087698219
0.059866207
0.044670949
0.0058707693
0.0079594778
0.010546505
0.013726386
0.017614031
0.022334006
0.028034432
0.034961658
0.043271635
0.05320056
0.065036219
0.07908262
0.095683692
0.11518455
0.13791338
0.16415641
0.19406465
0.2275573
0.26415681
0.30277746
0.34143787
0.37692798
0.40440415
0.41707107
0.4062052
0.36224278
0.28121892
0.1733448
0.088892056
0.060307911
0.044825999
0.0062666381
0.0083362369
0.010889282
0.014015099
0.017823597
0.022439211
0.027999131
0.034747104
0.042846307
0.052528178
0.064075561
0.077794959
0.094031093
0.11313691
0.13545183
0.16128173
0.1907963
0.22394636
0.26029415
0.2988012
0.33754015
0.3733546
0.40145815
0.41508617
0.40551436
0.36306783
0.28353706
0.1761863
0.09020977
0.060792303
0.044996998
0.0067055413
0.0087521819
0.011267675
0.014336601
0.018063833
0.022574151
0.027994484
0.034561595
0.042449289
0.051881872
0.063140199
0.076523325
0.092383936
0.11108031
0.13295926
0.15835404
0.18744593
0.22022125
0.25628436
0.29464749
0.33344177
0.36957055
0.39830819
0.4129284
0.40470899
0.36387222
0.28592324
0.17919377
0.091665626
0.061324899
0.04518508
0.007196213
0.009215815
0.011689841
0.014698407
0.018342414
0.022744716
0.028025965
0.034411075
0.042086248
0.051267568
0.062236461
0.075273619
0.09074936
0.10902338
0.13045895
0.15538284
0.18402188
0.21638901
0.25213226
0.29031803
0.32914066
0.36557026
0.39494409
0.41058512
0.40377518
0.36464529
0.28837129
0.18237146
0.093275314
0.061913126
0.045393812
0.0077461717
0.0097341223
0.012162193
0.015107058
0.018665638
0.022957017
0.028099021
0.034301155
0.041762346
0.050688014
0.061344464
0.074048856
0.089134261
0.10697375
0.1279438
0.15237676
0.18053346
0.21245802
0.24784418
0.28581609
0.32463606
0.36134723
0.391356
0.40804349
0.40269791
0.36537462
0.29087329
0.18572281
0.095056111
0.062567236
0.045624849
0.0083587234
0.010312042
0.012690327
0.015568084
0.01903859
0.023216667
0.028218662
0.034236971
0.041482931
0.050151286
0.060503927
0.072859599
0.08754645
0.10493939
0.12542211
0.14934501
0.17699088
0.20843792
0.24342802
0.28114655
0.3199288
0.35689736
0.38753446
0.40529064
0.40146127
0.36604542
0.29341935
0.18925009
0.097027073
0.063301427
0.045879237
0.0090371241
0.01095153
0.013276779
0.016084595
0.019464693
0.023527628
0.028388813
0.034222813
0.04125276
0.049663229
0.059714292
0.071714963
0.085994292
0.10292892
0.12290855
0.14629695
0.17340522
0.20433958
0.23889321
0.27631609
0.31502147
0.3522183
0.38347373
0.40231387
0.4000508
0.36664076
0.29599741
0.19295389
0.09920915
0.064134712
0.04615719
0.0097845611
0.011655064
0.013923504
0.01665848
0.019945996
0.023892309
0.028612024
0.034261798
0.041075454
0.04922785
0.058976346
0.070632055
0.084485654
0.1009506
0.12041284
0.14324549
0.16978877
0.20017497
0.23425068
0.27133315
0.30991855
0.34730926
0.37916818
0.39910038
0.39845137
0.36714167
0.29859303
0.19683272
0.10162513
0.065090689
0.046462405
0.010598412
0.012421325
0.014629644
0.017289218
0.020482397
0.024311115
0.028889051
0.034355371
0.040952916
0.048846734
0.058287495
0.069565243
0.083018118
0.099010761
0.11794507
0.14021764
0.16615471
0.19595698
0.22951277
0.26620802
0.30462647
0.34217121
0.37461034
0.39563773
0.39664882
0.36752583
0.30118839
0.20088236
0.10429921
0.066196322
0.046800366
0.011475784
0.013247699
0.015392871
0.017974707
0.021072044
0.024782443
0.029218344
0.034504063
0.040885133
0.04852088
0.057653353
0.068563501
0.081601638
0.097116198
0.11551201
0.13719559
0.16251319
0.19169894
0.22469305
0.26095272
0.29915376
0.33680721
0.3697962
0.39191377
0.39462751
0.36776726
0.30376494
0.20509512
0.10725602
0.06747803
0.047167207
0.012410227
0.014128419
0.016207959
0.018710106
0.021710372
0.025301949
0.029596138
0.034707136
0.040870486
0.048250092
0.057077168
0.067630597
0.080244117
0.095273644
0.11312143
0.13419949
0.15887526
0.18741453
0.21980614
0.25558094
0.29351105
0.33122267
0.3647243
0.38792224
0.39236763
0.36784505
0.30630375
0.20945942
0.11051899
0.068957577
0.04754772
0.013393561
0.015055982
0.017067964
0.019488929
0.02239143
0.025864691
0.030018029
0.03495821
0.040906044
0.048032161
0.056557252
0.066755766
0.078957789
0.093489773
0.11078046
0.13124066
0.15524903
0.1831177
0.21486753
0.25010789
0.28771106
0.32542533
0.35939505
0.38365665
0.38985023
0.36773748
0.30878346
0.21395927
0.11410808
0.070640158
0.047959549
0.014416157
0.016022047
0.017965306
0.020304066
0.023108535
0.026464445
0.030476787
0.035249825
0.040986263
0.047862496
0.056089212
0.065932892
0.077706606
0.091759554
0.10849323
0.12832849
0.15166427
0.17882456
0.20989341
0.2445501
0.28176853
0.31942532
0.3538111
0.37910707
0.38705748
0.36742209
0.31118077
0.21857358
0.11803685
0.072515013
0.048445445
0.015473343
0.017018404
0.018890217
0.021145357
0.023851539
0.027090932
0.030963876
0.035573052
0.041103278
0.047734201
0.055666964
0.06515844
0.076506798
0.090084336
0.10626286
0.12546959
0.14812496
0.17454848
0.20490008
0.23892513
0.27570004
0.31323524
0.34797783
0.37426869
0.38397149
0.36687533
0.31346994
0.22327585
0.12231048
0.074557513
0.049012472
0.016553692
0.018036779
0.019835512
0.022005501
0.024612542
0.027735646
0.031470742
0.035918891
0.041248452
0.047639495
0.05528461
0.064432344
0.075376798
0.088469708
0.10409236
0.12266701
0.14461898
0.17029938
0.1999034
0.2332513
0.26952386
0.30687018
0.34190363
0.36914041
0.38058394
0.36607132
0.3156206
0.22803488
0.1269234
0.076742046
0.049648525
0.017652091
0.019069486
0.02079189
0.022874311
0.025380916
0.028387841
0.031986834
0.036276972
0.041411976
0.047569524
0.05493451
0.063746994
0.074293256
0.086911886
0.10198285
0.11992544
0.14116911
0.16608825
0.19491884
0.22754742
0.26325972
0.30034754
0.3355998
0.36372355
0.37688726
0.36497921
0.31760318
0.23281673
0.1318568
0.079048981
0.050349743
0.018769744
0.020119364
0.021762132
0.023753269
0.026156169
0.029044912
0.032507669
0.036641272
0.041586913
0.047517176
0.054609918
0.063096487
0.073254896
0.085418139
0.099937243
0.11724898
0.13778134
0.16191788
0.18996129
0.22183268
0.25692857
0.29368695
0.32908052
0.3580222
0.37286799
0.36357765
0.3193949
0.23758495
0.13707963
0.08147224
0.051117561
0.019895999
0.02117924
0.022742633
0.024641367
0.026938505
0.029706976
0.033032405
0.037009575
0.041769786
0.047478237
0.054306304
0.062476073
0.072255146
0.08396077
0.097950034
0.1146404
0.13446634
0.1578376
0.18505119
0.21612706
0.25055245
0.28691003
0.32236289
0.35204412
0.3685193
0.36185044
0.32097787
0.24229929
0.14255127
0.084021716
0.051967237
0.021029938
0.0222497
0.023735403
0.025542073
0.027732514
0.030379032
0.033565604
0.037385301
0.041962352
0.047453018
0.054022569
0.061883095
0.071289962
0.082543606
0.096019064
0.11210149
0.1312285
0.15382738
0.18020142
0.21045003
0.24415409
0.28004021
0.31546691
0.34580076
0.36383935
0.35976706
0.32231459
0.24691509
0.14822565
0.086719624
0.052941345
0.022160245
0.023324622
0.024739252
0.026458477
0.028544647
0.031069708
0.034116764
0.037777667
0.042172372
0.047447744
0.053763594
0.061322385
0.07036891
0.081196246
0.09415623
0.10963831
0.12807236
0.14988772
0.17542358
0.20482049
0.23775672
0.27310238
0.30841512