/*--------------------------------*- C++ -*----------------------------------*\
| =========                 |                                                 |
| \\      /  F ield         | OpenFOAM: The Open Source CFD Toolbox           |
|  \\    /   O peration     | Version:  2406                                  |
|   \\  /    A nd           | Website:  www.openfoam.com                      |
|    \\/     M anipulation  |                                                 |
\*---------------------------------------------------------------------------*/
FoamFile
{
    version     2.0;
    format      ascii;
    arch        "LSB;label=32;scalar=64";
    class       surfaceScalarField;
    location    "0.05";
    object      phi;
}
// * * * * * * * * * * * * * * * * * * * * * * * * * * * * * * * * * * * * * //

dimensions      [1 0 -1 0 0 0 0];

oriented        oriented;

internalField   nonuniform List<scalar> 
16284
(
0.010764369
-0.016618097
0.017142847
-0.01128843
0.010236639
-0.019527384
0.020055891
0.0096699096
-0.022849107
0.02341671
0.0090678153
-0.0266528
0.027255878
0.0084416631
-0.030997624
0.03162489
0.0078068401
-0.035931117
0.036567192
0.0071804987
-0.041494541
0.042122277
0.0065736413
-0.047748601
0.048356986
0.0060017666
-0.05476266
0.055336173
0.0054739205
-0.062614847
0.06314445
0.0049922565
-0.071413152
0.071896745
0.0045596252
-0.081291188
0.081725993
0.0041740012
-0.092403687
0.09279178
0.0038310279
-0.10494517
0.10529093
0.0035255575
-0.11913671
0.1194453
0.0032518998
-0.13523326
0.13551042
0.0030046663
-0.15353059
0.15378171
0.0027798803
-0.17436786
0.17459701
0.0025730432
-0.19812929
0.19834089
0.0023784348
-0.2252421
0.22544179
0.0021926059
-0.25619498
0.2563861
0.0020118045
-0.29151503
0.29170069
0.0018319053
-0.33175015
0.33193415
0.0016453553
-0.37739569
0.37758395
0.001437856
-0.4287493
0.42895527
0.0011850595
-0.48575088
0.48599851
0.0008568397
-0.54747273
0.54779026
0.00051120589
-0.61454683
0.61488086
0.00022272314
-0.69197157
0.69225243
9.2250399e-05
-0.77423812
0.77437581
-0.85069872
0.85079526
0.011781941
-0.016159248
-0.012240022
0.011259842
-0.019004422
0.01069342
-0.022281712
0.010088127
-0.02604641
0.0094504166
-0.030358677
0.0087919785
-0.035271294
0.0081300139
-0.04083104
0.0074792626
-0.047096174
0.0068542888
-0.054135876
0.0062688509
-0.062027437
0.0057293689
-0.070871479
0.0052384886
-0.080797831
0.004797316
-0.09195971
0.0044023935
-0.1045471
0.0040491701
-0.11877996
0.0037320536
-0.13491218
0.0034453919
-0.15323953
0.0031846199
-0.17410212
0.0029447048
-0.19788393
0.0027195441
-0.22501112
0.0025050341
-0.25597437
0.0022967289
-0.29130105
0.0020896528
-0.33153824
0.0018750207
-0.37717889
0.0016368615
-0.42851266
0.0013466454
-0.4854664
0.00097082026
-0.54710904
0.00057849208
-0.61416747
0.00025157379
-0.69165314
0.00010174241
-0.77408161
-0.85057841
0.012741249
-0.015764001
-0.013135636
0.01226965
-0.01853186
0.011736024
-0.021747007
0.011149643
-0.025458814
0.010517932
-0.0297256
0.0098515057
-0.03460334
0.0091667012
-0.040144544
0.0084803836
-0.046408001
0.0078086465
-0.053462112
0.0071671481
-0.061383704
0.0065668292
-0.070268664
0.0060145595
-0.080242742
0.005513294
-0.091455265
0.0050603137
-0.10409055
0.0046528379
-0.11836849
0.0042857782
-0.13454062
0.0039534477
-0.15290219
0.0036508613
-0.17379387
0.0033723995
-0.19759923
0.0031115571
-0.22474358
0.002863667
-0.25571943
0.0026233976
-0.29105416
0.0023847709
-0.33129392
0.0021375598
-0.37692897
0.0018638745
-0.42824046
0.0015302412
-0.48513915
0.0010995585
-0.54669203
0.00065437073
-0.61373678
0.00028391834
-0.69129216
0.00011103349
-0.77390277
-0.8504227
0.01365039
-0.015442509
-0.013970919
0.013251331
-0.018131725
0.01277768
-0.021272151
0.012235479
-0.024915261
0.011631777
-0.029120382
0.01097671
-0.033946582
0.010285604
-0.03945156
0.0095761957
-0.04569652
0.008866383
-0.052750014
0.0081742022
-0.060688984
0.0075149423
-0.069606561
0.0068986716
-0.07962327
0.0063323094
-0.090885302
0.0058163346
-0.10357054
0.0053479463
-0.11789557
0.0049240037
-0.13411157
0.0045391871
-0.15251166
0.0041881882
-0.17343641
0.0038648423
-0.19726875
0.0035624572
-0.2244335
0.0032757256
-0.25542458
0.0029982612
-0.29076902
0.0027229367
-0.33101196
0.0024378392
-0.37664058
0.0021228779
-0.42792693
0.0017387639
-0.48476212
0.0012447715
-0.5462131
0.00073985449
-0.6132481
0.00032014501
-0.69088308
0.00011936508
-0.77369733
-0.85022432
0.014510049
-0.015204268
-0.01474722
0.014196479
-0.017816958
0.013802006
-0.020876336
0.013326841
-0.024438592
0.012774685
-0.028566542
0.012153479
-0.033323495
0.011476548
-0.038772536
0.010761196
-0.044978846
0.010026599
-0.052012837
0.0092930417
-0.05995255
0.0085795737
-0.068889871
0.0079006606
-0.078940736
0.0072664936
-0.090247068
0.0066817966
-0.10298128
0.0061465498
-0.11735519
0.0056587546
-0.13361797
0.0052141531
-0.15206056
0.0048073609
-0.17302225
0.0044319237
-0.19688514
0.0040813538
-0.22407409
0.003749416
-0.25508328
0.0034286581
-0.29043934
0.0031106181
-0.33068616
0.0027814049
-0.37630732
0.002418377
-0.42756522
0.0019754182
-0.484327
0.0014082973
-0.54566243
0.00083604471
-0.61269403
0.00036062832
-0.69041967
0.0001278037
-0.77346167
-0.84996437
0.015324578
-0.01505437
-0.015473305
0.015103296
-0.017594361
0.014800149
-0.02057171
0.014409605
-0.024046386
0.013930228
-0.0280853
0.013365705
-0.032756885
0.012725723
-0.038130223
0.012025444
-0.044275969
0.01128393
-0.051268424
0.010522859
-0.059188238
0.0097642957
-0.068127675
0.0090270232
-0.078199384
0.0083254893
-0.089540949
0.0076690587
-0.10231969
0.0070614958
-0.11674182
0.0065030167
-0.1330529
0.0059908952
-0.15154103
0.0055202909
-0.17254323
0.0050849662
-0.19644046
0.0046785882
-0.22365754
0.0042941142
-0.25468801
0.0039229851
-0.29005784
0.0035552073
-0.3303093
0.0031745737
-0.37592175
0.0027554455
-0.42714722
0.0022437141
-0.4838239
0.0015920818
-0.54502873
0.0009441351
-0.61206647
0.00040576293
-0.68989495
0.00013414989
-0.77318986
-0.84986879
0.01610868
-0.014990458
-0.016171329
0.015980178
-0.017464434
0.01577339
-0.020363312
0.015477999
-0.023749178
0.015087143
-0.027692396
0.014599051
-0.032266492
0.014018248
-0.03754684
0.01335585
-0.043610682
0.012628781
-0.050538121
0.01185848
-0.058414312
0.011068715
-0.067333838
0.010281945
-0.077408036
0.0095171751
-0.088771023
0.0087887946
-0.10158549
0.0081052257
-0.11605166
0.007470024
-0.13241023
0.0068828571
-0.15094543
0.0063401785
-0.17199095
0.0058364617
-0.19592603
0.0053657744
-0.22317516
0.0049204357
-0.25423022
0.0044907845
-0.2896161
0.0040651037
-0.32987296
0.0036244882
-0.37547506
0.0031397233
-0.42666325
0.0025474109
-0.48324103
0.001798109
-0.54429891
0.0010654194
-0.61135652
0.0004559442
-0.68930118
0.00013928385
-0.77287651
-0.84948218
0.016884946
-0.015004975
-0.016869073
0.016844981
-0.017422932
0.016733221
-0.020249807
0.016535882
-0.023549863
0.016241792
-0.027396071
0.015843869
-0.031866047
0.015340752
-0.037040884
0.014737964
-0.043004702
0.014048121
-0.04984469
0.013290202
-0.057652357
0.012487696
-0.066526789
0.011665295
-0.076580513
0.010846043
-0.087945983
0.010049356
-0.10078225
0.009288918
-0.11528379
0.0085727169
-0.13168556
0.0079038283
-0.15026693
0.0072809546
-0.17135712
0.0066999778
-0.19533278
0.0061557399
-0.22261746
0.0056402291
-0.25370031
0.0051427649
-0.28910452
0.0046497449
-0.32936739
0.0041391327
-0.37495696
0.0035773826
-0.42610179
0.0028904021
-0.48256428
0.0020283265
-0.54345795
0.0012012859
-0.61055478
0.00051159355
-0.6886298
0.00014226306
-0.77251555
-0.84900812
0.017700973
-0.015082775
-0.017621696
0.017734353
-0.017454614
0.017705271
-0.020218812
0.017598278
-0.02344071
0.017399357
-0.027194708
0.017096807
-0.031560738
0.016683305
-0.036624267
0.016157801
-0.042475683
0.015526723
-0.049209647
0.014804184
-0.056925343
0.014010898
-0.065728449
0.013171565
-0.07573546
0.012311773
-0.087079707
0.011455274
-0.099918375
0.010621115
-0.11444123
0.0098225342
-0.13087738
0.0090670511
-0.14950052
0.0083567291
-0.17063431
0.0076897405
-0.19465173
0.00706227
-0.22197448
0.0064664293
-0.2530878
0.0058907286
-0.28851231
0.0053195626
-0.32878139
0.0047272851
-0.37435542
0.0040750007
-0.42544904
0.0032765201
-0.48177675
0.0022845159
-0.54248878
0.0013532125
-0.60965161
0.00057326102
-0.68787156
0.00014054923
-0.77209805
-0.84843968
0.018574795
-0.015207151
-0.018448822
0.01866379
-0.017541763
0.018702997
-0.020255922
0.018675826
-0.023411176
0.018565592
-0.027081807
0.018357331
-0.031349457
0.01803882
-0.036302339
0.017602688
-0.042035685
0.017048345
-0.048650932
0.016383226
-0.056255275
0.015622815
-0.064962428
0.014789092
-0.074895368
0.013907843
-0.086191209
0.013005552
-0.099007814
0.012105969
-0.11353219
0.011227824
-0.1299884
0.01038391
-0.14864419
0.0095807685
-0.16981693
0.0088199031
-0.19387476
0.0080995931
-0.2212363
0.0074127292
-0.25238163
0.0067473496
-0.28782758
0.0060858165
-0.32810227
0.0053983496
-0.37365646
0.0046392971
-0.42468844
0.0037091614
-0.48085821
0.0025681129
-0.5413724
0.0015227629
-0.60863776
0.00064156358
-0.68701661
0.00013261178
-0.7716128
-0.84777449
0.019511892
-0.015369347
-0.019347987
0.019645849
-0.017673736
0.019738846
-0.020346604
0.019778346
-0.023448049
0.019746757
-0.027047271
0.019626612
-0.031225994
0.019402339
-0.036074317
0.019061398
-0.0416905
0.018596489
-0.048181214
0.018007586
-0.055660912
0.017303096
-0.064251733
0.016499638
-0.074084839
0.015620312
-0.085303808
0.014691883
-0.098070136
0.01374115
-0.11257083
0.012791753
-0.12902677
0.011862048
-0.1477004
0.010963937
-0.16890262
0.010103313
-0.1929957
0.0092814666
-0.22039387
0.0084928904
-0.25157068
0.0077256637
-0.28703765
0.0069601904
-0.32731588
0.0061619877
-0.37284394
0.0052766303
-0.42379999
0.0041906753
-0.47978412
0.0028799448
-0.54008831
0.001711608
-0.60750524
0.00071735418
-0.68605478
0.00011749958
-0.77104691
-0.84702526
0.020517859
-0.015553428
-0.020331931
0.020684675
-0.017838431
0.020819988
-0.020479495
0.020911593
-0.023536882
0.020945849
-0.027078369
0.020904177
-0.031180747
0.020768585
-0.035934669
0.020522833
-0.041440136
0.020154101
-0.047807232
0.019655267
-0.055156097
0.019026885
-0.063616525
0.018278224
-0.073328371
0.017426881
-0.084443511
0.016496901
-0.097129856
0.015515567
-0.11157761
0.014509768
-0.12800721
0.013502871
-0.14667759
0.012512454
-0.1678938
0.011549639
-0.19201183
0.010619664
-0.21944021
0.009719575
-0.25064466
0.0088381524
-0.28612958
0.0079540283
-0.32640682
0.0070274008
-0.37189945
0.0059923094
-0.42275962
0.0047215269
-0.47852497
0.0032199287
-0.53861545
0.0019215747
-0.60624862
0.00080270854
-0.68497671
9.6634836e-05
-0.77038767
-0.84622585
0.02160719
-0.015743443
-0.021415209
0.021789327
-0.018018315
0.021951814
-0.020639406
0.022081416
-0.023663539
0.022165197
-0.027158771
0.022188343
-0.031200041
0.022131005
-0.035872967
0.021974574
-0.041278735
0.02170238
-0.047529358
0.021301396
-0.054748614
0.020764575
-0.063072253
0.020092841
-0.072648075
0.019296084
-0.083636886
0.01839261
-0.096214972
0.01740699
-0.11057875
0.016366703
-0.12695152
0.015298451
-0.14559141
0.014224901
-0.16679941
0.013162676
-0.1909256
0.012121687
-0.21837201
0.01110244
-0.24959538
0.010095168
-0.28509101
0.0090769865
-0.32535885
0.008002035
-0.37080217
0.0067893882
-0.4215386
0.0052993265
-0.47704595
0.0035869542
-0.53693439
0.0021546723
-0.60486622
0.00090039187
-0.68377428
7.3302445e-05
-0.76962477
-0.84541548
0.022755943
-0.015930684
-0.022566613
0.022942133
-0.018202107
0.023117631
-0.02081216
0.023272462
-0.023815227
0.023393064
-0.027275771
0.023465418
-0.031268305
0.023472964
-0.035875886
0.023396085
-0.041196575
0.023215879
-0.047343084
0.022915016
-0.054440763
0.022479923
-0.062629104
0.02190331
-0.072062152
0.021186191
-0.082908977
0.020338761
-0.095354992
0.019379661
-0.109605
0.018333601
-0.12588832
0.017227848
-0.14446557
0.016088391
-0.16563647
0.014936675
-0.18974664
0.013787434
-0.21719162
0.012645245
-0.24841848
0.011502414
-0.28391147
0.010334767
-0.32415558
0.0090892298
-0.36952872
0.0076658894
-0.42010265
0.005916787
-0.47530668
0.003979369
-0.53503099
0.0024131241
-0.60336031
0.0010125018
-0.68243942
5.4340879e-05
-0.76875331
-0.84459439
0.023897597
-0.016111666
-0.023714456
0.024082247
-0.018384282
0.02426255
-0.020989634
0.024430548
-0.023979994
0.024575873
-0.027417397
0.02468624
-0.031374373
0.024748872
-0.035933552
0.024744982
-0.041187035
0.024652949
-0.04724458
0.024452623
-0.054232976
0.024125873
-0.062293717
0.023658593
-0.071584843
0.023043293
-0.082281988
0.022280968
-0.094578986
0.021381831
-0.1086898
0.020364411
-0.12485196
0.019253003
-0.14333183
0.018073944
-0.16443112
0.016851586
-0.18849353
0.01560462
-0.21590917
0.014341579
-0.24711546
0.013057055
-0.28258399
0.011725438
-0.32278138
0.010284435
-0.3680528
0.0086104672
-0.41841029
0.0065585373
-0.47326212
0.004396196
-0.53290511
0.0026992219
-0.60173522
0.0011401013
-0.68096268
2.8766155e-05
-0.76775128
-0.84382826
0.024946305
-0.01629027
-0.024765481
0.025132581
-0.01856801
0.025319891
-0.021174026
0.025502046
-0.02415881
0.025670446
-0.027581975
0.02581336
-0.03151291
0.025918224
-0.036033328
0.02597354
-0.041236396
0.025962043
-0.047226213
0.025859317
-0.054122355
0.025642821
-0.062068074
0.025294113
-0.071225469
0.024798641
-0.081774009
0.02414817
-0.093913781
0.023342974
-0.10786717
0.0223925
-0.12388081
0.021314291
-0.14222905
0.020131177
-0.16321884
0.018867158
-0.18719509
0.017542663
-0.21454454
0.016168857
-0.24569588
0.014741875
-0.281107
0.013233602
-0.32122236
0.011568934
-0.36634456
0.0095966757
-0.41641173
0.0071994133
-0.47086779
0.0048387511
-0.53058233
0.0030147921
-0.59999315
0.0012851336
-0.67933525
-1.6046883e-05
-0.76657256
-0.84317161
0.025761545
-0.016473016
-0.02557655
0.025955708
-0.018759583
0.026155892
-0.021371238
0.026357519
-0.024357022
0.026554058
-0.027774587
0.026736368
-0.031690699
0.02689128
-0.036183026
0.027003627
-0.041342714
0.027060082
-0.047275632
0.027047458
-0.054101539
0.02694326
-0.061954378
0.026722011
-0.070993087
0.026362282
-0.081401129
0.02584818
-0.093384065
0.025170106
-0.10717048
0.024326736
-0.12301517
0.023325717
-0.14120135
0.022182297
-0.16204347
0.020915863
-0.18589057
0.01954483
-0.21312859
0.018079983
-0.24417912
0.016516631
-0.27948589
0.014821132
-0.31946679
0.012899586
-0.36436891
0.010572667
-0.41404797
0.0078064342
-0.46809705
0.0053113922
-0.52812443
0.0033602016
-0.59813062
0.00144848
-0.67755001
-4.2454642e-05
-0.76521872
-0.8428974
0.026192628
-0.01666584
-0.025997603
0.026400334
-0.018964752
0.026618649
-0.021586637
0.026844347
-0.024579368
0.027072624
-0.027999003
0.027296586
-0.031910208
0.027506533
-0.036387827
0.027688917
-0.041519136
0.027826542
-0.047406316
0.027903622
-0.05417042
0.027908536
-0.061949511
0.027822743
-0.070895736
0.027616566
-0.081181319
0.027263067
-0.093014321
0.026743846
-0.10663175
0.026047304
-0.12229511
0.02516967
-0.14029529
0.024115313
-0.16095474
0.02289438
-0.18462821
0.021518096
-0.21170283
0.019991829
-0.24259482
0.01830517
-0.27773343
0.016412249
-0.31750367
0.014192055
-0.36208232
0.011445054
-0.41125051
0.0083509698
-0.46498658
0.0058185283
-0.52562487
0.0037339646
-0.59614044
0.0016343182
-0.67560626
-9.4884193e-05
-0.76365516
-0.84183708
0.026116761
-0.016875101
-0.025905398
0.026344763
-0.019190327
0.026588384
-0.021827462
0.02684567
-0.024833436
0.027113342
-0.028262961
0.02738643
-0.032179003
0.027657816
-0.036654237
0.027917497
-0.041773019
0.028151599
-0.047633631
0.028339889
-0.054350732
0.028458794
-0.062058984
0.028491112
-0.070916726
0.028429151
-0.081105606
0.028250576
-0.092819176
0.027916876
-0.10627813
0.027401577
-0.12175567
0.02669057
-0.13955483
0.025775432
-0.16000356
0.024652455
-0.18346125
0.023319243
-0.21031635
0.021768373
-0.24098047
0.019975379
-0.27586702
0.017867889
-0.31531581
0.015293644
-0.35942833
0.012086771
-0.40797659
0.0088371624
-0.46170252
0.0063586185
-0.52316837
0.004133835
-0.59401603
0.0018437176
-0.67350242
-3.7402734e-05
-0.76199065
-0.84223396
0.025363574
-0.017103648
-0.025133143
0.025614708
-0.019439282
0.02588651
-0.02209675
0.026178228
-0.025122252
0.026488002
-0.028569375
0.026812508
-0.032499613
0.027146599
-0.03698379
0.02748282
-0.042103924
0.027810679
-0.047955219
0.028115902
-0.054648501
0.028379025
-0.062313185
0.028572981
-0.071099938
0.028666307
-0.081185887
0.02864371
-0.092780477
0.028497489
-0.10611218
0.028189051
-0.12142339
0.027680864
-0.13901737
0.026949826
-0.15923617
0.025974785
-0.18244117
0.02473249
-0.20901864
0.023192697
-0.23937345
0.021305271
-0.27390017
0.018951021
-0.31287238
0.015944283
-0.35632904
0.012400874
-0.40434759
0.0093015746
-0.45854357
0.0069096531
-0.52077426
0.0045496908
-0.59174959
0.0020611278
-0.67122224
-0.00035269505
-0.75987712
-0.84075593
0.02375986
-0.017351103
-0.023510916
0.024033214
-0.019710905
0.024331838
-0.022393369
0.024656055
-0.025444143
0.025005271
-0.028915882
0.025377669
-0.032868848
0.025769864
-0.037372273
0.026176455
-0.042506125
0.026589494
-0.048363024
0.026997724
-0.055050437
0.027385397
-0.062693224
0.027731702
-0.071436916
0.028009064
-0.081451788
0.028179534
-0.092936759
0.028219053
-0.10613372
0.028122427
-0.12130429
0.027845096
-0.13871229
0.027332495
-0.15868878
0.026542587
-0.18160761
0.025424329
-0.20784574
0.023911159
-0.23779261
0.021904812
-0.27181182
0.019232263
-0.31010509
0.015842387
-0.35283646
0.012469939
-0.40087143
0.0098090886
-0.45579183
0.007444862
-0.51836345
0.0049686498
-0.58931996
0.0023313841
-0.66878315
-0.00037782943
-0.75757085
-0.8381023
0.021040713
-0.017617259
-0.020773613
0.021335579
-0.020004669
0.021659953
-0.02271646
0.022015216
-0.025797902
0.022402013
-0.029300906
0.022820021
-0.033284759
0.023267658
-0.037817405
0.023741612
-0.04297706
0.02423626
-0.048853992
0.024742974
-0.055552621
0.025249298
-0.06319392
0.025737596
-0.071918176
0.026182846
-0.081888207
0.026550347
-0.093293181
0.026782495
-0.1063519
0.026838664
-0.12134205
0.026734988
-0.13858434
0.026436097
-0.15835933
0.025830136
-0.18096307
0.024819592
-0.20678591
0.023299937
-0.23621033
0.02113216
-0.26956532
0.018292331
-0.3071703
0.015192922
-0.34962834
0.012543318
-0.39810382
0.010240621
-0.45336778
0.0079001875
-0.51591619
0.0053538348
-0.58672049
0.002670597
-0.66618762
0.00034840492
-0.75560696
-0.83917108
0.01667504
-0.017893674
-0.016398339
0.016982649
-0.02031194
0.017323974
-0.023057384
0.017701615
-0.026175054
0.01811766
-0.029716346
0.018573535
-0.033739875
0.019069748
-0.038312651
0.01960545
-0.043511512
0.020177846
-0.049424749
0.020781433
-0.056154039
0.021407059
-0.063816658
0.022040773
-0.072548037
0.022662338
-0.082504637
0.023242818
-0.093866834
0.023741569
-0.10684161
0.024064732
-0.12165332
0.024061547
-0.13856557
0.023686664
-0.15796325
0.023030059
-0.18027744
0.022069114
-0.20578649
0.020667529
-0.23475789
0.018789163
-0.2676188
0.016647177
-0.30494003
0.014634757
-0.34750702
0.012696388
-0.39603831
0.010570718
-0.4510987
0.0082274379
-0.51341161
0.0056306575
-0.5839542
0.0029659372
-0.66342256
0.0005132927
-0.75322781
-0.83942611
0.011151253
-0.018137313
-0.010908224
0.01142458
-0.020585957
0.011731734
-0.023365317
0.012076194
-0.026520382
0.012461214
-0.030102322
0.012889694
-0.034169392
0.01336395
-0.038788014
0.013885325
-0.04403404
0.014453634
-0.049994215
0.015066413
-0.056767916
0.015717936
-0.064469121
0.016399018
-0.073229772
0.017096753
-0.08320255
0.017792298
-0.094561817
0.018459434
-0.10750707
0.019079752
-0.12227031
0.019636465
-0.13911652
0.019965173
-0.1582827
0.019747768
-0.18004578
0.018968943
-0.20498545
0.017902355
-0.23365668
0.016774003
-0.26643797
0.015599327
-0.3036915
0.01430757
-0.34611569
0.012650013
-0.394251
0.010650872
-0.44894142
0.0083619382
-0.51093022
0.0057651034
-0.58111518
0.0030037098
-0.66037839
0.00039827339
-0.75032268
-0.83963331
0.0077130514
-0.018300163
-0.0075521567
0.0078953926
-0.020770533
0.0081019054
-0.023574377
0.0083354565
-0.026756829
0.0085989949
-0.030369145
0.0088954822
-0.034469599
0.0092277898
-0.039124526
0.0095984959
-0.044409481
0.010009568
-0.050410598
0.010461927
-0.057226195
0.010954879
-0.064968616
0.011485501
-0.073767558
0.012047756
-0.083772545
0.012632014
-0.095154289
0.013225475
-0.10810903
0.01380843
-0.12286172
0.014351268
-0.13966726
0.01489248
-0.15883047
0.01555991
-0.18071747
0.016141789
-0.20556765
0.016161375
-0.23366847
0.015615314
-0.26586707
0.01477454
-0.30280222
0.013645762
-0.34491025
0.012217211
-0.39270761
0.01042782
-0.44699506
0.0082756198
-0.5085864
0.0057218611
-0.57833477
0.0027257286
-0.65705847
-0.0010135585
-0.74608073
-0.83793582
0.007502949
-0.018406452
-0.0074013088
0.0076182446
-0.020891104
0.0077491092
-0.023711231
0.0078976928
-0.026912203
0.0080664207
-0.030545563
0.0082580137
-0.034669892
0.0084754767
-0.039351823
0.0087220361
-0.044667147
0.0090010634
-0.050702139
0.0093159305
-0.057555124
0.0096697944
-0.065338226
0.010064069
-0.074179383
0.010496662
-0.084224595
0.010961691
-0.095640753
0.011448065
-0.10861885
0.011938793
-0.12337795
0.012414304
-0.14017036
0.012840061
-0.15928594
0.013121806
-0.18103034
0.013285913
-0.20576147
0.013565993
-0.23397122
0.013752226
-0.26606603
0.013451233
-0.30249468
0.012539011
-0.3439586
0.01134223
-0.3914317
0.0098114142
-0.44533139
0.0078901747
-0.50649321
0.0055311569
-0.57579546
0.0025652301
-0.65380091
-0.0011020591
-0.74171779
-0.83520219
0.0066627785
-0.018493703
-0.0065849306
0.0067514233
-0.020990381
0.0068523895
-0.023824217
0.0069673993
-0.027040784
0.0070983769
-0.030691846
0.0072474385
-0.034836195
0.0074168651
-0.039540643
0.0076090509
-0.044881108
0.007826403
-0.050943889
0.0080711826
-0.057827167
0.0083452651
-0.065642675
0.0086497984
-0.074517609
0.0089848419
-0.084596848
0.0093485367
-0.096045321
0.0097355896
-0.10905055
0.010134533
-0.12382541
0.010522918
-0.14061133
0.010863677
-0.15968332
0.01113782
-0.18136354
0.011363013
-0.20604409
0.01152999
-0.23418995
0.011515926
-0.26609861
0.011253154
-0.30226783
0.010749392
-0.34345489
0.0098787164
-0.39051724
0.0086676899
-0.44401285
0.0070999417
-0.50474986
0.005191333
-0.57366271
0.0030474102
-0.65143748
0.0033880717
-0.74153732
-0.83655807
0.006160337
-0.018567001
-0.0061024029
0.0062259563
-0.021073358
0.0063001942
-0.02391804
0.0063840446
-0.027146708
0.0064785626
-0.030811197
0.0065848172
-0.034970338
0.0067038573
-0.039690947
0.0068366596
-0.045048882
0.0069840611
-0.051130311
0.0071466789
-0.058033198
0.0073248225
-0.06586895
0.0075184265
-0.074764334
0.0077270263
-0.084863682
0.0079496465
-0.096331259
0.0081849564
-0.10935387
0.008431355
-0.12414367
0.0086866581
-0.14094116
0.0089473308
-0.16001917
0.0091953016
-0.18168579
0.009365504
-0.20628878
0.0092971986
-0.23419996
0.0090299411
-0.26590803
0.0086508927
-0.30194377
0.0082140799
-0.34304995
0.0076639569
-0.38994645
0.0068574625
-0.4431073
0.0057906995
-0.50352729
0.0045397118
-0.57219733
0.0028746324
-0.64949211
-0.0010825983
-0.73773936
-0.83013052
0.005430199
-0.018620076
-0.0053953302
0.0054696055
-0.021133319
0.0055140513
-0.023985675
0.0055640214
-0.027222814
0.0056199723
-0.030896582
0.0056823119
-0.03506579
0.0057513526
-0.039797193
0.0058272559
-0.045166539
0.0059099605
-0.051259814
0.0059990947
-0.058174712
0.0060938799
-0.066022273
0.006193004
-0.074928776
0.0062944576
-0.085037959
0.0063956418
-0.096513491
0.0064934956
-0.10954168
0.0065848584
-0.12433412
0.0066667388
-0.14113038
0.0067317509
-0.16019911
0.0067603673
-0.181838
0.0067160935
-0.2063793
0.0065892057
-0.23420897
0.0064094019
-0.26583001
0.0061919396
-0.30176939
0.0058746124
-0.34273771
0.0054505824
-0.38944365
0.0048598114
-0.44234137
0.0042242384
-0.5026396
0.0037491294
-0.57149604
0.0032800793
-0.64885012
0.0053180899
-0.73962177
-0.8322651
0.0043253058
-0.018647862
-0.0043247161
0.0043255241
-0.021164305
0.0043250831
-0.024020018
0.0043235851
-0.027260618
0.0043205146
-0.030937887
0.0043152407
-0.035110583
0.0043070346
-0.039845419
0.0042951005
-0.045218128
0.0042786194
-0.05131472
0.0042567935
-0.058232941
0.0042288599
-0.06608389
0.0041940568
-0.074993873
0.0041516669
-0.085106597
0.004101042
-0.096585605
0.0040418338
-0.10961718
0.0039750885
-0.1244138
0.003905011
-0.14121814
0.0038461159
-0.16030675
0.0038308426
-0.1819914
0.0039100408
-0.20661983
0.0041112647
-0.23455818
0.0043368782
-0.26619895
0.0044789608
-0.30204443
0.0045171118
-0.34281324
0.0043627393
-0.38919437
0.0040235018
-0.44175923
0.0035851732
-0.50178357
0.0029495693
-0.57033932
0.0025043023
-0.64790217
0.001807817
-0.7384281
-0.83330513
0.0037023576
-0.0037096781
0.0036935278
0.003679506
0.0036589852
0.0036306305
0.0035931809
0.0035455581
0.0034870065
0.0034171777
0.0033360819
0.0032439862
0.0031413043
0.0030283311
0.0029048383
0.0027694495
0.0026186162
0.0024449327
0.0022360861
0.0019771797
0.0016571232
0.0012977788
0.00098287791
0.00081367566
0.0007581452
0.0007617127
0.00096403811
0.0011170849
0.00092810364
0.00055215445
-0.0028658624
0.013982359
-0.015383532
0.014724687
-0.013322775
0.014746013
-0.018358552
0.017595733
0.015602292
-0.021817606
0.020962264
0.016508656
-0.025801579
0.024896272
0.017418628
-0.030371563
0.029462787
0.018294908
-0.035570268
0.034695333
0.019091897
-0.041432042
0.040636576
0.019791442
-0.047989546
0.047291747
0.020383365
-0.055337034
0.054747093
0.020849523
-0.063547426
0.06308352
0.021178441
-0.072705754
0.072379376
0.021368526
-0.082926984
0.08273973
0.021424981
-0.094358038
0.094304709
0.021356458
-0.10717745
0.1072494
0.021175846
-0.12160493
0.12178925
0.020894101
-0.13789688
0.13818265
0.020515732
-0.15634595
0.15672856
0.020044346
-0.1772952
0.17777101
0.019479828
-0.20113929
0.2017082
0.018820818
-0.22832981
0.22899299
0.018059376
-0.25934823
0.26011334
0.017178915
-0.29474245
0.29562536
0.016160195
-0.33508413
0.33610337
0.014977202
-0.38092248
0.38210269
0.013598586
-0.43272985
0.43410156
0.011972749
-0.49080017
0.49241413
0.010029957
-0.55477323
0.55669956
0.0077546484
-0.62343915
0.62569228
0.005270562
-0.69921754
0.70167189
0.0026791491
-0.7770871
0.77967089
-0.84997483
0.85248747
0.013105199
-0.016184501
-0.0123035
0.013974308
-0.019226826
0.014872463
-0.022714812
0.015774215
-0.026702253
0.016649333
-0.031245459
0.017468195
-0.036387748
0.018203688
-0.042165963
0.018844606
-0.048628667
0.019376157
-0.055866536
0.019783885
-0.063952821
0.020062384
-0.072981623
0.020213074
-0.083074751
0.020241158
-0.094382903
0.020157436
-0.10709021
0.019974361
-0.12141802
0.019697923
-0.13761628
0.019332234
-0.15597586
0.018880054
-0.17683843
0.018342293
-0.20059697
0.017717595
-0.22770076
0.016996124
-0.25862291
0.016162713
-0.29390643
0.015199283
-0.33412005
0.01408134
-0.37980727
0.012779323
-0.43143477
0.011242827
-0.48927563
0.0094032571
-0.55295019
0.0072506718
-0.62130934
0.0049136361
-0.69690931
0.0024940148
-0.77467166
-0.8476398
0.012103138
-0.01707681
-0.011210084
0.013018849
-0.020141673
0.013935465
-0.023630447
0.014832411
-0.027598094
0.015684599
-0.032096394
0.016466717
-0.037168441
0.017160734
-0.042858362
0.017756634
-0.049222713
0.018238637
-0.056346418
0.018600459
-0.064312231
0.018839806
-0.073218257
0.018958655
-0.083190595
0.018966045
-0.094386993
0.018874856
-0.1069954
0.018692208
-0.12123141
0.018422817
-0.1373426
0.018070773
-0.15561929
0.017640427
-0.17640335
0.017132795
-0.2000846
0.016543816
-0.22710723
0.015864987
-0.25794004
0.015082021
-0.29312069
0.014178007
-0.33321526
0.013130027
-0.37876195
0.011910218
-0.43022191
0.010469445
-0.48784687
0.008740409
-0.55123775
0.0067186144
-0.61931099
0.0045372921
-0.69475537
0.002298963
-0.77243402
-0.84548974
0.011087918
-0.018019877
-0.010144028
0.012031377
-0.02108421
0.012954164
-0.024552219
0.013836048
-0.028478847
0.01465535
-0.032914411
0.015393645
-0.037905268
0.016038746
-0.043501792
0.016581404
-0.04976346
0.017012235
-0.056775059
0.017328879
-0.06462639
0.017528852
-0.073415441
0.017619338
-0.083278009
0.017612755
-0.094377024
0.017515925
-0.10689484
0.017334432
-0.12104585
0.017073049
-0.13707679
0.01673649
-0.15527806
0.016331054
-0.17599303
0.01585574
-0.19960439
0.015304684
-0.22655145
0.014671238
-0.2573024
0.013941974
-0.29238852
0.013101169
-0.33237357
0.012127601
-0.37779102
0.010995066
-0.42909636
0.0096558774
-0.48651974
0.0080441939
-0.54964271
0.0061607705
-0.61745167
0.0041431515
-0.69276327
0.0020949714
-0.77038312
-0.84353326
0.010050255
-0.019010464
-0.0090586654
0.011010345
-0.022043306
0.011923077
-0.02546391
0.012775275
-0.029329889
0.013551682
-0.033689496
0.014240324
-0.038592395
0.014832556
-0.044092303
0.015321095
-0.050250036
0.015702178
-0.057153888
0.015972849
-0.064894514
0.016137196
-0.07357694
0.016207293
-0.083344966
0.016187864
-0.094354118
0.016085755
-0.10678891
0.015906489
-0.1208624
0.015653933
-0.1368197
0.015336449
-0.1549558
0.014959188
-0.17561074
0.014516653
-0.19915679
0.014005615
-0.22603552
0.013420096
-0.25671252
0.012747557
-0.29171292
0.011973481
-0.3315985
0.011078451
-0.37689856
0.010037871
-0.42806278
0.0088056866
-0.48529963
0.0073177026
-0.54817134
0.0055795904
-0.61573781
0.0037328982
-0.69094013
0.0018829875
-0.76852736
-0.84177852
0.0090564916
-0.019996078
-0.0080700442
0.0099875454
-0.022973453
0.010858808
-0.026334154
0.011662031
-0.030131935
0.012383826
-0.034409931
0.013014733
-0.039221742
0.013548696
-0.044624502
0.013982644
-0.050681978
0.014312528
-0.057481466
0.014541076
-0.065120464
0.01467837
-0.073711326
0.014727757
-0.083391139
0.014696236
-0.094319051
0.014590373
-0.10667914
0.014413651
-0.12068139
0.01417342
-0.13657484
0.013878789
-0.1546563
0.013529278
-0.17525606
0.013121193
-0.19874348
0.01265222
-0.2255615
0.012116952
-0.25617274
0.011503929
-0.2910967
0.010799838
-0.33089329
0.009987153
-0.37608839
0.0090428292
-0.42712545
0.0079226303
-0.4841915
0.0065641865
-0.54682939
0.0049776946
-0.61417536
0.0033083343
-0.68929248
0.0016640387
-0.76687442
-0.84023363
0.0080679002
-0.02091837
-0.0071449539
0.0089390655
-0.023843731
0.0097565762
-0.027150632
0.010499841
-0.030874
0.011159181
-0.035067876
0.011723676
-0.039784638
0.012192047
-0.04509108
0.012570712
-0.051058608
0.012855184
-0.057763589
0.013047999
-0.065310633
0.013156417
-0.07381678
0.013186353
-0.083417803
0.013144416
-0.094273505
0.013034948
-0.10656568