/*--------------------------------*- C++ -*----------------------------------*\
| =========                 |                                                 |
| \\      /  F ield         | OpenFOAM: The Open Source CFD Toolbox           |
|  \\    /   O peration     | Version:  2406                                  |
|   \\  /    A nd           | Website:  www.openfoam.com                      |
|    \\/     M anipulation  |                                                 |
\*---------------------------------------------------------------------------*/
FoamFile
{
    version     2.0;
    format      ascii;
    arch        "LSB;label=32;scalar=64";
    class       volScalarField;
    location    "0.05";
    object      rho;
}
// * * * * * * * * * * * * * * * * * * * * * * * * * * * * * * * * * * * * * //

dimensions      [1 -3 0 0 0 0 0];

internalField   nonuniform List<scalar> 
8260
(
1.2147141
1.212876
1.2114877
1.20985
1.2082035
1.2066922
1.2054592
1.2044709
1.2036575
1.2030684
1.2027074
1.2025059
1.2024152
1.2024374
1.2025267
1.2026581
1.2028198
1.2029788
1.2031341
1.2033327
1.20351
1.2036861
1.2038514
1.2040405
1.2042386
1.2044509
1.2045605
1.2043611
1.2042269
1.2039096
1.2021185
1.2167561
1.2151566
1.2134411
1.2115603
1.2097583
1.2081174
1.2067121
1.2055378
1.2045657
1.203822
1.2033117
1.2029866
1.2027915
1.2027331
1.2027609
1.2028458
1.2029737
1.2031103
1.2032503
1.2034348
1.2035998
1.2037631
1.2039142
1.2040852
1.2042627
1.2044601
1.2045619
1.2043642
1.2042368
1.2039361
1.2021255
1.2178207
1.2163897
1.2146438
1.212734
1.2109082
1.209233
1.2077509
1.2064777
1.2054066
1.2045544
1.2039386
1.2035025
1.2032177
1.2030799
1.2030416
1.2030698
1.2031503
1.2032489
1.2033604
1.2035184
1.2036629
1.2038118
1.2039541
1.2041199
1.2042923
1.2044846
1.2045766
1.204373
1.2042515
1.2039658
1.2021351
1.2184908
1.2171898
1.2155504
1.213718
1.2119296
1.2102604
1.2087451
1.2074091
1.2062622
1.2053212
1.2046012
1.2040655
1.2036898
1.2034654
1.2033555
1.2033208
1.2033481
1.2034049
1.2034857
1.2036141
1.2037375
1.2038708
1.2040024
1.2041607
1.2043258
1.2045134
1.2045931
1.2043849
1.2042693
1.2039967
1.2021422
1.2189285
1.2177394
1.2162578
1.214561
1.2128591
1.2112347
1.209722
1.2083518
1.2071466
1.2061277
1.2053103
1.2046764
1.2042065
1.2038947
1.2037033
1.2036013
1.2035712
1.2035835
1.2036293
1.2037251
1.2038253
1.2039407
1.2040597
1.2042083
1.204364
1.2045449
1.2046104
1.2043988
1.2042896
1.2040294
1.2021458
1.2191218
1.2180553
1.2167504
1.2152249
1.2136519
1.2121126
1.2106417
1.2092721
1.2080345
1.2069558
1.2060554
1.2053298
1.2047681
1.2043644
1.204089
1.203915
1.2038226
1.2037855
1.2037909
1.2038508
1.2039247
1.2040198
1.2041244
1.2042623
1.2044078
1.2045806
1.2046295
1.2044148
1.2043128
1.2040642
1.2021514
1.2191142
1.2181685
1.2170418
1.2157035
1.2142872
1.2128658
1.2114721
1.2101385
1.208899
1.2077851
1.2068213
1.206016
1.205368
1.204874
1.2045133
1.2042631
1.204104
1.204012
1.2039727
1.203993
1.2040372
1.2041095
1.204198
1.2043237
1.204458
1.2046211
1.2046508
1.2044335
1.2043393
1.2041004
1.2022154
1.2189411
1.2181155
1.2171631
1.2160142
1.2147677
1.2134853
1.2121957
1.2109282
1.2097167
1.2085947
1.2075907
1.2067224
1.2059979
1.205419
1.204974
1.2046455
1.2044161
1.2042647
1.2041764
1.2041534
1.2041648
1.2042115
1.2042818
1.2043937
1.2045153
1.2046669
1.2046742
1.2044554
1.2043695
1.204137
1.2022724
1.2186916
1.2180424
1.2172113
1.2162081
1.2151157
1.2139747
1.2128029
1.2116233
1.2104656
1.2093622
1.2083433
1.2074325
1.2066458
1.2059916
1.2054666
1.2050602
1.2047586
1.2045445
1.2044033
1.2043334
1.2043088
1.2043272
1.204377
1.2044733
1.204581
1.2047183
1.2046998
1.2044807
1.2044037
1.2041738
1.2023286
1.2183711
1.2179137
1.2171748
1.2162809
1.2153287
1.2143292
1.2132839
1.2122077
1.2111253
1.2100652
1.2090567
1.2081266
1.2072963
1.2065803
1.2059836
1.2055029
1.2051297
1.2048509
1.2046538
1.2045343
1.2044705
1.2044579
1.204485
1.2045638
1.2046562
1.204776
1.2047277
1.20451
1.2044425
1.2042102
1.2023901
1.2178186
1.217565
1.217027
1.2162597
1.2154208
1.2145499
1.2136319
1.2126688
1.2116775
1.2106818
1.2097079
1.2087825
1.20793
1.2071698
1.2065139
1.2059664
1.205525
1.205182
1.2049274
1.2047563
1.2046509
1.2046049
1.2046072
1.2046663
1.2047421
1.2048395
1.2047577
1.2045436
1.2044859
1.2042456
1.2024636
1.217289
1.2170553
1.2166691
1.2161047
1.2153952
1.2146359
1.21384
1.212995
1.2121067
1.2111924
1.2102742
1.2093769
1.208525
1.207741
1.2070424
1.2064398
1.2059375
1.2055335
1.2052222
1.2049991
1.2048505
1.2047693
1.204745
1.2047824
1.2048401
1.2049076
1.2047897
1.2045817
1.2045339
1.2042796
1.2025552
1.2167253
1.2165583
1.216229
1.2157938
1.215257
1.2146098
1.2139189
1.2131855
1.2124036
1.2115814
1.2107354
1.2098866
1.2090579
1.2082723
1.2075506
1.2069086
1.2063566
1.2058987
1.2055343
1.205261
1.2050692
1.2049519
1.2048996
1.2049134
1.2049509
1.2049794
1.2048246
1.2046241
1.2045861
1.204312
1.202672
1.2161486
1.2160369
1.2157761
1.2153958
1.2149799
1.2144864
1.2138855
1.2132438
1.2125621
1.2118362
1.2110737
1.2102902
1.2095053
1.2087405
1.2080173
1.207355
1.2067686
1.206268
1.2058577
1.2055387
1.2053056
1.2051528
1.2050721
1.2050608
1.2050754
1.2050542
1.2048655
1.2046709
1.2046419
1.2043447
1.2028194
1.2155501
1.2154864
1.2152919
1.2149876
1.214625
1.2142076
1.2137111
1.2131531
1.2125661
1.2119402
1.2112713
1.2105678
1.2098452
1.2091223
1.2084201
1.2077589
1.207157
1.2066288
1.2061838
1.205827
1.2055574
1.2053716
1.2052632
1.2052261
1.2052135
1.2051302
1.2049156
1.2047223
1.2047008
1.2043818
1.2029934
1.2148403
1.2148133
1.2146643
1.2144115
1.2141111
1.2138096
1.2134627
1.2130005
1.2124682
1.2119125
1.2113279
1.2107083
1.2100604
1.2093975
1.2087373
1.2080996
1.2075036
1.2069666
1.206502
1.2061189
1.2058207
1.2056069
1.2054734
1.2054105
1.2053635
1.2052057
1.2049759
1.204779
1.2047619
1.2044287
1.2031069
1.2140518
1.2140614
1.2139572
1.2137584
1.2135093
1.2132291
1.2129542
1.2126812
1.2123024
1.2117973
1.2112542
1.2107046
1.2101365
1.2095481
1.20895
1.2083582
1.2077909
1.2072665
1.2068009
1.2064067
1.206091
1.2058568
1.2057029
1.2056141
1.2055207
1.2052835
1.2050444
1.2048425
1.2048247
1.2044799
1.2032186
1.2131848
1.2132279
1.2131639
1.2130159
1.2128301
1.212618
1.2123731
1.2120984
1.2118286
1.2115123
1.211081
1.2105864
1.2100782
1.2095662
1.2090455
1.208521
1.2080055
1.2075162
1.2070703
1.2066825
1.2063632
1.206119
1.2059513
1.2058341
1.205677
1.2053745
1.2051203
1.2049139
1.2048883
1.2045326
1.2033374
1.2122196
1.2122852
1.2122507
1.2121409
1.212
1.2118401
1.2116558
1.2114384
1.2111914
1.2109584
1.2107393
1.2104227
1.2099797
1.2095029
1.2090409
1.2085895
1.2081433
1.2077099
1.2073042
1.2069412
1.2066337
1.2063917
1.206217
1.2060633
1.2058264
1.2054845
1.2052066
1.2049935
1.2049504
1.2045869
1.2033706
1.211265
1.2113462
1.2113363
1.2112611
1.2111617
1.2110488
1.2109189
1.2107673
1.2105888
1.2103775
1.2101387
1.2099235
1.2097294
1.2094261
1.2090074
1.2085937
1.2082154
1.2078524
1.2075046
1.2071832
1.2069025
1.2066758
1.206496
1.2062934
1.2059743
1.2056068
1.2053092
1.205081
1.2050106
1.2046661
1.2036635
1.2103851
1.2104703
1.2104756
1.2104273
1.2103615
1.2102873
1.2102016
1.2101011
1.2099835
1.2098462
1.2096855
1.2094998
1.2093008
1.2091328
1.2089187
1.2085923
1.2082607
1.2079667
1.2076882
1.207422
1.2071802
1.2069767
1.2067836
1.2065078
1.2061195
1.2057424
1.205435
1.2051821
1.2050721
1.2047235
1.2040833
1.2097167
1.2097919
1.2098012
1.2097695
1.209726
1.2096776
1.2096214
1.2095551
1.2094772
1.2093866
1.2092818
1.2091603
1.2090205
1.2088779
1.2087825
1.2086549
1.2084081
1.2081452
1.2079207
1.2077067
1.2074953
1.2072826
1.2070254
1.2066677
1.2062686
1.2059049
1.2055876
1.2053114
1.2051562
1.204754
1.2040725
1.209266
1.2093176
1.2093262
1.2093104
1.2092887
1.2092644
1.2092356
1.2092006
1.2091581
1.209107
1.2090461
1.2089737
1.2088865
1.2087809
1.208669
1.2086178
1.208623
1.2085224
1.2082992
1.2080514
1.2077979
1.2075085
1.2071652
1.206795
1.2064329
1.2060867
1.205768
1.2054837
1.2053002
1.2048742
1.2041071
1.209129
1.2091468
1.2091475
1.2091388
1.2091275
1.2091145
1.2090986
1.2090788
1.209054
1.209023
1.2089844
1.208937
1.2088788
1.2088067
1.2087158
1.2086021
1.208471
1.2083865
1.2083432
1.2082075
1.2079585
1.2076417
1.2072881
1.2069457
1.2066071
1.2062746
1.205966
1.2056959
1.2055156
1.2051001
1.2042936
1.209108
1.2091018
1.2090945
1.2090849
1.2090732
1.2090592
1.2090423
1.2090221
1.2089979
1.2089689
1.2089339
1.2088917
1.2088409
1.2087798
1.2087054
1.2086132
1.2084974
1.2083506
1.2081684
1.2080079
1.2078893
1.207687
1.2073944
1.2070883
1.2067674
1.206454
1.2061631
1.2059194
1.2057669
1.2053915
1.2049469
1.2089141
1.2089083
1.2089005
1.2088912
1.2088803
1.2088676
1.2088524
1.2088345
1.2088134
1.2087884
1.2087587
1.2087234
1.2086811
1.2086306
1.2085702
1.2084978
1.2084107
1.2083062
1.2081858
1.2080451
1.2078551
1.2076365
1.2074296
1.2071824
1.2068985
1.2066091
1.2063361
1.2061109
1.2059791
1.205646
1.2052565
1.2087475
1.2087425
1.2087359
1.2087284
1.2087196
1.2087094
1.2086974
1.2086834
1.2086667
1.2086469
1.2086231
1.2085944
1.2085597
1.2085173
1.2084658
1.208403
1.2083273
1.2082369
1.208128
1.2079938
1.2078289
1.2076684
1.2074921
1.2072571
1.2070024
1.2067367
1.2064794
1.206254
1.206107
1.20582
1.2051384
1.2086693
1.2086642
1.2086579
1.2086505
1.208642
1.2086321
1.2086205
1.2086069
1.2085909
1.2085719
1.2085494
1.2085226
1.2084905
1.2084519
1.2084053
1.208349
1.2082815
1.2082009
1.208106
1.207998
1.2078862
1.2077383
1.207542
1.2073357
1.207104
1.2068589
1.2066163
1.2064005
1.2062442
1.2060882
1.2060001
1.2086062
1.2085997
1.2085918
1.2085827
1.2085723
1.2085603
1.2085466
1.2085308
1.2085125
1.2084915
1.2084673
1.2084393
1.2084072
1.2083703
1.2083283
1.2082807
1.2082264
1.208164
1.2080917
1.2080067
1.2079028
1.2077777
1.2076262
1.2074469
1.2072428
1.2070194
1.2067855
1.2065693
1.2064085
1.2061804
1.2056883
1.2084582
1.2084525
1.2084459
1.2084382
1.2084294
1.2084191
1.2084073
1.2083936
1.2083778
1.2083595
1.2083385
1.2083145
1.2082871
1.2082559
1.2082203
1.2081792
1.2081313
1.2080748
1.2080076
1.207928
1.2078344
1.2077376
1.2076382
1.2075108
1.2073627
1.2071941
1.2070036
1.2068143
1.2066225
1.2064469
1.2059891
1.2081803
1.2081684
1.2081535
1.2081371
1.2081196
1.2081011
1.208082
1.2080623
1.208042
1.2080211
1.2079993
1.2079764
1.2079519
1.2079253
1.2078962
1.2078639
1.2078283
1.2077893
1.2077469
1.2076991
1.2076404
1.2075632
1.2074693
1.2073666
1.2072515
1.207115
1.2069986
1.2068679
1.2067237
1.2065657
1.2064364
1.1890993
1.1890398
1.1889783
1.1890364
1.18921
1.1895363
1.1900548
1.1907423
1.1915381
1.192455
1.1934614
1.1945168
1.1955879
1.1966384
1.1976174
1.1985298
1.1993852
1.2001542
1.2008343
1.2014201
1.2019215
1.2023757
1.202775
1.2031221
1.20344
1.2037655
1.2040102
1.2040562
1.2037521
1.2033157
1.201159
1.1886357
1.188671
1.1886917
1.188848
1.1891416
1.1895827
1.1901894
1.1909482
1.1918049
1.1927566
1.1937692
1.1948135
1.1958624
1.1968704
1.197807
1.1986971
1.1995302
1.2002789
1.2009362
1.2015113
1.2020059
1.2024529
1.202841
1.2031742
1.2034783
1.2037912
1.2040231
1.2040643
1.2037708
1.2033389
1.2012078
1.1876768
1.1877574
1.1878947
1.1882149
1.1886877
1.1892988
1.1900577
1.1909455
1.191896
1.1929178
1.1939753
1.1950447
1.196089
1.1970709
1.1979966
1.1988752
1.1996881
1.2004082
1.201038
1.2016008
1.202079
1.2025138
1.2028908
1.2032158
1.2035151
1.2038224
1.2040447
1.2040756
1.2037897
1.2033602
1.2012547
1.1865316
1.1867635
1.1870981
1.1876223
1.1882863
1.1890701
1.1899708
1.1909552
1.1919871
1.1930757
1.1941756
1.1952559
1.1962873
1.1972639
1.1981862
1.1990513
1.1998393
1.2005262
1.201139
1.201687
1.2021494
1.2025724
1.2029393
1.2032567
1.2035516
1.2038548
1.204069
1.2040885
1.2038114
1.2033816
1.2013008
1.1852174
1.1857054
1.1862989
1.1870569
1.187926
1.1888879
1.1899284
1.1910034
1.1921167
1.1932706
1.1943856
1.1954615
1.1964936
1.1974676
1.1983797
1.199227
1.1999783
1.2006413
1.2012427
1.2017731
1.2022207
1.2026323
1.2029892
1.2032984
1.2035884
1.2038867
1.2040926
1.2041008
1.2038347
1.203403
1.2013467
1.1840084
1.1847562
1.185589
1.1865718
1.1876381
1.1887719
1.1899422
1.1910956
1.1922903
1.1934795
1.1945954
1.1956836
1.1967137
1.1976783
1.198579
1.1993948
1.2001099
1.2007634
1.2013455
1.2018588
1.2022921
1.2026922
1.2030389
1.20334
1.2036253
1.2039184
1.2041159
1.2041126
1.2038572
1.2034245
1.2013923
1.182948
1.1839281
1.1849742
1.1861847
1.1874378
1.1887328
1.1900158
1.1912361
1.1924865
1.1936938
1.1948305
1.19592
1.196942
1.1978984
1.198778
1.1995494
1.2002444
1.2008853
1.2014468
1.201944
1.2023631
1.2027515
1.2030881
1.2033812
1.2036623
1.20395
1.2041393
1.2041242
1.2038782
1.2034461
1.2014369
1.1819699
1.1832324
1.1845619
1.185962
1.187367
1.1887662
1.1901272
1.1914328
1.192718
1.1939385
1.195084
1.1961676
1.1971838
1.1981273
1.1989606
1.1996967
1.2003869
1.2010058
1.2015472
1.2020287
1.2024338
1.2028105
1.2031369
1.2034222
1.2036992
1.2039815
1.2041633
1.2041354
1.2038981
1.2034681
1.2014813
1.1813298
1.1828123
1.1843406
1.185888
1.1874089
1.1888924
1.1903205
1.1916818
1.192986
1.1942116
1.1953556
1.1964337
1.1974427
1.198348
1.1991263
1.1998514
1.2005293
1.2011255
1.201647
1.2021127
1.2025041
1.2028692
1.2031852
1.2034631
1.203736
1.2040126
1.2041884
1.2041471
1.2039168
1.2034906
1.2015331
1.181026
1.1826726
1.1843368
1.1859855
1.1875851
1.1891274
1.1905989
1.1919857
1.1932936
1.1945158
1.1956543
1.1967242
1.1976988
1.19854
1.1992972
1.2000189
1.2006709
1.2012445
1.2017459
1.202196
1.2025742
1.2029275
1.2032329
1.2035036
1.2037725
1.2040435
1.204215
1.2041591
1.2039349
1.2035133
1.2015952
1.1811273
1.1828609
1.1845881
1.1862772
1.1879071
1.1894747
1.1909637
1.1923523
1.1936491
1.1948619
1.1959874
1.1970202
1.1979249
1.1987285
1.1994903
1.200187
1.2008122
1.201363
1.2018441
1.2022786
1.202644
1.2029852
1.2032802
1.2035438
1.2038087
1.2040741
1.2042427
1.2041715
1.2039532
1.2035355
1.2016235
1.1816385
1.1833883
1.1851075
1.186773
1.188379
1.1899357
1.1914168
1.1927915
1.1940695
1.1952477
1.1963216
1.1972933
1.1981394
1.1989337
1.199686
1.2003541
1.2009536
1.2014812
1.2019414
1.2023605
1.2027136
1.2030423
1.203327
1.2035836
1.2038445
1.2041044
1.2042708
1.2041842
1.2039718
1.2035574
1.2016659
1.1823817
1.1841487
1.1858334
1.1874511
1.1890138
1.1905355
1.1919659
1.1932818
1.1945167
1.1956283
1.1966271
1.1975381
1.1983702
1.1991657
1.1998832
1.2005219
1.2010951
1.2015989
1.2020379
1.2024419
1.2027827
1.2030987
1.2033732
1.2036229
1.2038798
1.2041343
1.2042986
1.2041972
1.2039905
1.2035792
1.2017226
1.1830862
1.184877
1.1865545
1.1881488
1.1897132
1.191235
1.1925758
1.1937726
1.1949303
1.1959808
1.1969245
1.19781
1.1986468
1.1994035
1.2000828
1.200691
1.2012369
1.2017162
1.2021335
1.2025226
1.2028513
1.2031545
1.2034188
1.2036617
1.2039144
1.2041636
1.204325
1.2042105
1.2040095
1.2036004
1.2017471
1.1846335
1.1861367
1.1875871
1.1890001
1.19046
1.1919282
1.1931819
1.1942927
1.1953468
1.1963517
1.1973011
1.1981514
1.1989356
1.1996447
1.2002855
1.2008615
1.2013791
1.2018332
1.2022283
1.2026025
1.2029191
1.2032096
1.2034639
1.2036999
1.2039484
1.2041924
1.20435
1.204224
1.2040287
1.2036217
1.2017784
1.1874815
1.1885952
1.1896583
1.1907823
1.1918491
1.1927923
1.1938535
1.1949579
1.1959386
1.1968606
1.1977251
1.1985096
1.1992315
1.1998915
1.2004916
1.2010333
1.2015217
1.20195
1.2023222
1.2026816
1.202986
1.2032639
1.2035082
1.2037377
1.2039817
1.2042204
1.2043736
1.2042376
1.204048
1.2036432
1.2018127
1.1899028
1.190821
1.19161
1.1924211
1.1932321
1.1940236
1.1948757
1.1957653
1.1966075
1.1974123
1.1981738
1.19888
1.1995371
1.2001448
1.200701
1.2012065
1.2016647
1.2020665
1.2024154
1.2027599
1.203052
1.2033175
1.2035517
1.2037749
1.2040142
1.2042477
1.2043959
1.2042513
1.2040675
1.2036654
1.2018492
1.1926597
1.1932713
1.1937306
1.1942269
1.1947746
1.1953541
1.1959807
1.1966496
1.1973237
1.1979948
1.1986473
1.199267
1.1998538
1.2004047
1.200914
1.2013813
1.2018082
1.2021826
1.2025079
1.2028375
1.2031168
1.2033703
1.2035945
1.2038117
1.2040458
1.2042741
1.2044169
1.204265
1.2040871
1.2036896
1.2019008
1.1956929
1.1959592
1.196048
1.1962001
1.1964449
1.1967615
1.1971474
1.1975986
1.1980904
1.1986143
1.199148
1.1996721
1.2001818
1.2006712
1.2011305
1.2015576
1.2019521
1.2022983
1.2025998
1.2029142
1.2031805
1.2034221
1.2036365
1.2038479
1.2040764
1.2042996
1.2044368
1.2042787
1.2041068
1.2037161
1.2019709
1.1989854
1.1988744
1.1985612
1.1983385
1.1982452
1.1982655
1.1983922
1.1986148
1.1989085
1.199272
1.1996765
1.2000957
1.2005212
1.2009444
1.2013506
1.2017354
1.2020963
1.2024136
1.2026913
1.2029904
1.2032429
1.2034731
1.2036777
1.2038837
1.204106
1.204324
1.2044558
1.2042922
1.2041266
1.2037446
1.2020124
1.2024791
1.201967
1.2012326
1.2006187
1.2001635
1.199863
1.1997139
1.1996982
1.1997782
1.1999674
1.2002326
1.2005381
1.200872
1.2012243
1.2015741
1.2019145
1.2022405
1.2025285
1.2027829
1.2030661
1.2033045
1.2035234
1.2037185
1.2039191
1.2041345
1.2043471
1.2044739
1.2043054
1.2041464
1.2037744
1.2020362
1.2061629
1.2052139
1.2040421
1.2030406
1.2022114
1.2015682
1.2011272
1.200867
1.2007143
1.2007092
1.2008213
1.201002
1.2012352
1.2015106
1.2018006
1.2020944
1.2023847
1.2026433
1.2028753
1.2031419
1.2033657
1.2035737
1.2037592
1.2039544
1.2041617
1.2043688
1.204491
1.2043179
1.2041661
1.2038052
1.2020456
1.2101787
1.2087844
1.2072147
1.2058246
1.2045785
1.2035269
1.2027373
1.2021972
1.2017689
1.2015283
1.2014598
1.2014967
1.2016151
1.2018051
1.2020307
1.2022754
1.2025289
1.2027588
1.2029694
1.203218
1.2034272
1.2036243
1.2038002
1.2039894
1.204188
1.2043893
1.2045075
1.2043296
1.2041859
1.2038361
1.2020843
1.2140398
1.2126071
1.2110206
1.2092636
1.2075498
1.205973
1.2047249
1.2037914
1.203009
1.2024702
1.2021761
1.202041
1.2020245
1.2021165
1.2022704
1.2024611
1.202675
1.202876
1.2030653
1.2032932
1.2034882
1.2036742
1.2038407
1.2040236
1.2042134
1.2044119
1.2045266
1.2043423
1.2042067
1.2038709
1.2021079
1.1899112
1.1900333
1.1900743
1.1901144
1.1902115
1.1904301
1.1907988
1.1913193
1.1919541
1.1927259
1.1936052
1.1945575
1.1955498
1.1965504
1.1975096
1.1984154
1.1992737
1.2000563
1.2007588
1.2013671
1.2018838
1.2023499
1.2027554
1.2031019
1.2034135
1.2037248
1.2039705
1.2040283
1.2037292
1.2032879
1.2011169
1.1901365
1.1902667
1.1903449
1.1904437
1.1905552
1.1907631
1.1911029
1.1915525
1.1921341
1.1928555
1.1936886
1.194602
1.1955627
1.1965386
1.1974841
1.1983824
1.1992341
1.2000133
1.2007166
1.2013276
1.2018485
1.2023172
1.2027266
1.203077
1.203393
1.2037028
1.2039591
1.2040211
1.2037183
1.2032646
1.2010651
1.1902327
1.1904057
1.1905317
1.1906605
1.1908175
1.1910413
1.191369
1.1917921
1.1923392
1.1930163
1.1938035
1.1946749
1.1955994
1.1965459
1.1974716
1.1983581
1.1992009
1.1999751
1.2006745
1.2012868
1.2018143
1.2022843
1.2026969
1.203051
1.2033719
1.2036817
1.2039447
1.2040115
1.2037042
1.2032384
1.2010113
1.1903733
1.1906041
1.1907792
1.1909272
1.1911113
1.1913424
1.1916545
1.1920558
1.192568
1.1931986
1.1939363
1.1947608
1.1956448
1.1965584
1.1974616
1.198334
1.199167
1.1999361
1.2006303
1.2012469
1.2017804
1.2022508
1.2026666
1.2030242
1.2033499
1.2036597
1.2039268
1.2039985
1.2036903
1.2032107
1.2009665
1.1905285
1.190797
1.1910148
1.1912002
1.1913998
1.1916352
1.1919364
1.1923183
1.1927987
1.1933866
1.194077
1.194855
1.1956974
1.1965766
1.1974553
1.1983116
1.1991335
1.1998968
1.2005879
1.2012078
1.2017452
1.2022163
1.2026356
1.2029965
1.2033269
1.2036363
1.2039066
1.2039847
1.2036773
1.203182
1.2009441
1.1906708
1.190963
1.1912139
1.1914344
1.1916549
1.1919009
1.1921995
1.192568
1.193023
1.1935746
1.1942227
1.1949568
1.1957584
1.1966024
1.1974549
1.1982932
1.1991022
1.1998585
1.2005467
1.2011667
1.2017085
1.2021823
1.2026036
1.2029679
1.2033032
1.2036113
1.2038847
1.2039708
1.203665
1.2031525
1.2009496
1.1907982
1.1911064
1.1913842
1.1916351
1.1918791
1.1921409
1.1924436
1.1928048
1.1932408
1.1937625
1.1943732
1.1950667
1.1958285
1.1966371
1.1974619
1.1982801
1.1990744
1.1998221
1.2005065
1.2011246
1.2016694
1.2021479
1.2025704
1.202938
1.2032783
1.2035843
1.2038613
1.2039562
1.2036524
1.2031224
1.2009504
1.190917
1.1912398
1.1915368
1.1918114
1.1920808
1.1923611
1.1926721
1.1930311
1.1934534
1.1939507
1.1945286
1.1951847
1.1959082
1.1966812
1.1974771
1.1982732
1.199051
1.1997883
1.2004676
1.2010835
1.2016293
1.2021113
1.2025357
1.2029066
1.2032519
1.2035559
1.2038361
1.2039405
1.2036388
1.2030919
1.2009505
1.1910367
1.1913669
1.1916754
1.191976
1.192269
1.1925676
1.192889
1.1932491
1.193662
1.1941395
1.1946889
1.1953106
1.1959974
1.1967351
1.1975009
1.1982731
1.1990327
1.1997578
1.2004304
1.2010434
1.2015896
1.2020733
1.2024995
1.2028736
1.2032239
1.203528
1.2038093
1.2039232
1.2036239
1.2030612
1.2009452
1.1911559
1.1914923
1.1918222
1.1921411
1.1924518
1.1927666
1.1930988
1.1934618
1.1938682
1.1943297
1.1948542
1.1954445
1.1960964
1.1967993
1.1975341
1.1982808
1.1990203
1.1997314
1.2003956
1.2010044
1.20155
1.2020349
1.202462
1.202839
1.2031939
1.2035017
1.2037807
1.2039044
1.2036074
1.2030307
1.2009357
1.1912918
1.191632
1.1919822
1.192313
1.1926371
1.1929652
1.193307
1.1936731
1.1940748
1.1945227
1.1950252
1.1955867
1.1962055
1.1968742
1.1975774
1.198297
1.1990146
1.1997098
1.2003639
1.200967
1.201509
1.2019956
1.2024256
1.2028033
1.2031624
1.2034767
1.2037506
1.2038841
1.2035893
1.2030002
1.2009229
1.1914556
1.1918138
1.1921623
1.1924986
1.1928325
1.1931706
1.1935194
1.1938876
1.1942848
1.1947206
1.1952032
1.195738
1.1963254
1.1969605
1.1976315
1.1983227
1.1990166
1.1996939
1.2003359
1.2009317
1.2014698
1.2019555
1.2023875
1.2027666
1.2031293
1.20345
1.2037189
1.2038618
1.2035692
1.20297
1.2009076
1.1916808
1.192027
1.1923713
1.1927094
1.1930477
1.1933906
1.1937427
1.1941106
1.1945023
1.1949262
1.19539
1.1958995
1.1964567
1.1970587
1.1976972
1.1983587
1.1990271
1.1996845
1.2003124
1.2008991
1.2014324
1.2019163
1.2023483
1.2027288
1.2030934
1.2034194
1.2036856
1.2038377
1.2035471
1.2029401
1.2008899
1.1919552
1.1922828
1.1926198
1.1929544
1.1932909
1.1936328
1.1939833
1.1943474
1.1947313
1.1951424
1.1955874
1.1960723
1.1966
1.1971696
1.1977751
1.1984057
1.1990471
1.1996825
1.2002943
1.20087
1.2013971
1.2018777
1.2023089
1.2026902
1.2030525
1.2033851
1.2036507
1.2038116
1.2035231
1.2029109
1.2008711
1.1922839
1.1925927
1.1929168
1.193241
1.1935689
1.1939036
1.1942472
1.194603
1.194976
1.1953722
1.1957976
1.1962578
1.1967565
1.1972938
1.197866
1.1984647
1.1990774
1.1996889
1.2002824
1.200845
1.2013642
1.201838
1.202269
1.2026532
1.203008
1.2033485
1.203614
1.2037833
1.2034974
1.2028824
1.2008519
1.1926625
1.1929524
1.1932604
1.1935698
1.1938843
1.1942067
1.1945382
1.1948813
1.1952399
1.1956186
1.1960228
1.1964576
1.1969269
1.1974319
1.1979704
1.1985362
1.1991188
1.1997044
1.2002774
1.200825
1.2013343
1.2018009
1.2022291
1.202614
1.2029668
1.2033105
1.2035756
1.2037529
1.2034702
1.202855
1.2008353
1.1930997
1.193366
1.1936531
1.193943
1.1942393
1.1945444
1.1948591
1.1951851
1.1955253
1.1958837
1.1962647
1.1966729
1.1971121
1.1975845
1.1980889
1.1986209
1.1991719
1.1997298
1.2002804
1.2008106
1.2013081
1.2017668
1.2021907
1.2025721
1.2029295
1.2032718
1.2035347
1.2037204
1.2034421
1.2028286
1.2008297
1.1935861
1.1938264
1.1940895
1.1943569
1.1946315
1.1949156
1.1952096
1.1955147
1.1958333
1.1961685
1.1965241
1.1969044
1.1973129
1.1977521
1.1982219
1.1987192
1.1992373
1.1997659
1.2002919
1.2008028
1.2012864
1.2017357
1.2021537
1.2025308
1.2028911
1.2032302
1.2034914
1.2036858
1.2034136
1.2028034
1.2008392
1.1941135
1.1943264
1.1945634
1.194806
1.1950565
1.1953168
1.1955873
1.1958687
1.196163
1.1964727
1.1968011
1.197152
1.197529
1.1979346
1.1983693
1.1988314
1.1993156
1.1998133
1.2003128
1.2008022
1.2012698
1.2017078
1.2021157
1.2024908
1.2028532
1.2031852
1.2034459
1.2036492
1.2033851
1.2027794
1.2008483
1.1946614
1.1948484
1.19506
1.1952781
1.1955043
1.1957404
1.1959863
1.1962427
1.1965112
1.1967941
1.1970942
1.197415
1.1977598
1.1981314
1.1985309
1.1989573
1.1994068
1.1998723
1.2003436
1.2008095
1.201259
1.2016838
1.2020814
1.2024523
1.2028125
1.2031386
1.2033986
1.2036105
1.203357
1.2027568
1.2007751
1.1952183
1.1953808
1.1955678
1.1957622
1.1959649
1.1961771
1.1963988
1.1966304
1.1968731
1.197129
1.1974006
1.1976912
1.1980038
1.1983415
1.1987058
1.1990964
1.1995108
1.1999431
1.2003847
1.2008255
1.2012548
1.2016644
1.2020511
1.2024157
1.2027702
1.2030916
1.2033492
1.2035699
1.2033296
1.2027351
1.2007593
1.1957693
1.1959099
1.1960741
1.1962466
1.1964274
1.1966172
1.1968161
1.197024
1.1972421
1.1974719
1.197716
1.1979771
1.1982584
1.1985629
1.1988926
1.1992479
1.199627
1.2000256
1.2004364
1.2008504
1.2012577
1.2016502
1.2020244
1.2023806
1.2027288
1.2030452
1.203298
1.203527
1.2033028
1.2027138
1.2007523
1.1962927
1.1964144
1.1965591
1.196713
1.1968753
1.1970464
1.1972257
1.1974132
1.1976094
1.1978158
1.1980345
1.1982682
1.19852
1.1987929
1.1990893
1.1994101
1.1997545
1.2001193
1.2004987
1.2008847
1.2012683
1.2016418
1.2020013
1.202344
1.2026884
1.2030017
1.2032471
1.2034817
1.2032762
1.2026926
1.2007413
1.1967934
1.1968977
1.1970237
1.19716
1.1973052
1.1974591
1.197621
1.1977905
1.1979678
1.1981537
1.1983501
1.1985592
1.1987842
1.1990279
1.1992931
1.1995811
1.1998919
1.2002235
1.2005712
1.2009283
1.201287
1.2016398
1.2019827
1.2023115
1.2026494
1.2029576
1.2031979
1.203434
1.2032493
1.2026709
1.2007191
1.1972371
1.1973281
1.1974401
1.1975634
1.1976962
1.1978379
1.1979875
1.1981439
1.198307
1.1984771
1.1986554
1.1988441
1.1990459
1.1992638
1.1995005
1.1997581
1.2000372
1.2003367
1.2006532
1.2009812
1.2013138
1.2016445
1.2019692
1.2022838
1.2026079
1.2029127
1.2031511
1.2033844
1.2032213
1.2026481
1.2006802
1.1976544
1.1977312
1.1978282
1.1979375
1.1980574
1.1981871
1.1983253
1.1984708
1.1986226
1.1987803
1.1989447
1.1991171
1.1993
1.1994959
1.1997079
1.1999382
1.2001881
1.2004573
1.2007436
1.2010427
1.2013489
1.2016563
1.2019612
1.2022603
1.2025658
1.2028682
1.2031042
1.2033327
1.2031913
1.2026238
1.2006243
1.1980263
1.1980912
1.1981749
1.1982717
1.1983801
1.1984994
1.1986284
1.1987653
1.1989088
1.199058
1.1992124
1.199373
1.1995414
1.1997199
1.1999112
1.200118
1.2003418
1.2005833
1.2008411
1.2011121
1.2013918
1.2016754
1.2019592
1.2022411
1.2025249
1.2028242
1.2030568
1.2032792
1.2031582
1.2025973
1.2005559
1.1983603
1.1984156
1.198487
1.1985716
1.1986688
1.1987779
1.1988979
1.1990273
1.1991643
1.1993072
1.199455
1.1996076
1.1997658
1.1999314
1.2001066
1.200294
1.2004955
1.2007123
1.2009439
1.2011883
1.2014422
1.2017016
1.2019635
1.2022264
1.2024874
1.2027795
1.2030082
1.203224
1.2031211
1.2025683
1.2004797
1.1986599
1.1987085
1.1987692
1.1988421
1.1989278
1.1990265
1.1991374
1.1992592
1.19939
1.199528
1.1996712
1.1998187
1.1999704
1.2001271
1.2002906
1.2004629
1.2006462
1.2008418
1.2010501
1.2012701
1.2014994
1.2017349
1.2019744
1.2022171
1.2024554
1.202736
1.2029587
1.2031659
1.2030791
1.2025371
1.200401
1.1989361
1.1989732
1.1990268
1.1990894
1.1991637
1.1992513
1.1993523
1.1994656
1.1995898
1.1997226
1.199862
1.2000061
1.2001538
1.200305
1.2004605
1.200622
1.200791
1.2009694
1.2011577
1.2013558
1.2015622
1.2017749
1.2019922
1.2022141
1.2024329
1.2026965
1.2029082
1.2031059
1.2030311
1.2025042
1.2003236
1.1991999
1.1992233
1.1992642
1.1993192
1.1993831
1.1994593
1.1995494
1.199653
1.199769
1.1998957
1.2000306
1.2001715
1.2003164
1.2004643
1.2006149
1.200769
1.2009277
1.2010926
1.2012646
1.2014439
1.2016297
1.201821
1.2020168
1.2022181
1.20242
1.2026594
1.202856
1.2030485
1.2029774
1.202471
1.2002503
1.1994426
1.1994619
1.19949
1.1995323
1.1995884
1.1996543
1.1997331
1.199826
1.1999327
1.2000517
1.2001809
1.2003179
1.2004601
1.2006057
1.2007534
1.2009029
1.2010547
1.2012098
1.2013689
1.2015326
1.2017006
1.2018724
1.2020479
1.2022289
1.2024131
1.2026248
1.2028065
1.2029933
1.2029196
1.2024396
1.2001846
1.1996682
1.1996835
1.1997066
1.199737
1.1997809
1.1998388
1.1999073
1.1999892
1.2000854
1.2001952
1.2003172
1.2004489
1.2005876
1.2007309
1.2008766
1.2010235
1.201171
1.2013195
1.2014692
1.2016206
1.2017737
1.2019284
1.2020852
1.2022464
1.2024124
1.2025993
1.2027636
1.2029342
1.2028582
1.2024115
1.2001308
1.1998802
1.1998913
1.1999096
1.1999344
1.1999668
1.200013
1.2000734
1.200145
1.2002303
1.2003301
1.2004433
1.2005682
1.2007022
1.2008424
1.2009862
1.2011314
1.2012765
1.2014208
1.2015641
1.2017064
1.2018477
1.2019879
1.202128
1.2022704
1.2024174
1.2025807
1.202727
1.2028746
1.2027939
1.2023865
1.2000923
1.2000774
1.2000851
1.2000989
1.200119
1.2001456
1.2001807
1.20023
1.2002937
1.200369
1.2004583
1.200562
1.2006789
1.2008068
1.2009429
1.2010843
1.2012279
1.2013716
1.2015136
1.201653
1.2017892
1.2019216
1.2020502
1.2021756
1.2023007
1.2024285
1.2025682
1.2026926
1.2028174
1.2027321
1.2023655
1.2000704
1.200259
1.2002644
1.2002748
1.2002906
1.2003127
1.2003416
1.2003798
1.2004329
1.2005005
1.2005802
1.2006741
1.2007823
1.2009032
1.2010342
1.2011723
1.2013142
1.201457
1.2015981
1.2017356
1.2018682
1.2019946
1.2021142
1.2022276
1.202337
1.2024464
1.2025621
1.202665
1.2027671
1.2026753
1.2023517
1.200063
1.2004219
1.2004261
1.2004343
1.2004472
1.2004656
1.2004908
1.2005236
1.2005665
1.200623
1.2006939
1.2007793
1.2008791
1.2009926
1.2011178
1.201252
1.2013918
1.2015338
1.2016748
1.201812
1.201943
1.202066
1.2021795
1.2022833
1.2023792
1.2024713
1.2025644
1.2026471
1.2027236
1.202627
1.2023469
1.200069
1.2005651
1.2005685
1.2005752
1.2005858
1.200601
1.2006224
1.200651
1.200688
1.2007378
1.2008021
1.200879
1.2009703
1.201076
1.2011948
1.2013244
1.2014616
1.2016028
1.2017442
1.2018822
1.2020135
1.2021354
1.2022455
1.2023423
1.2024271
1.2025034
1.2025752
1.202638
1.2026847
1.2025902
1.2023481
1.200079
1.2006923
1.2006954
1.2007012
1.2007103
1.2007234
1.2007417
1.2007668
1.2008
1.2008423
1.2008981
1.2009691
1.2010533
1.2011518
1.2012645
1.2013895
1.201524
1.2016643
1.2018064
1.2019461
1.2020794
1.2022024
1.202312
1.2024038
1.2024803
1.2025427
1.2025946
1.2026364
1.2026601
1.2025683
1.2023526
1.2000798
1.2008067
1.2008095
1.2008145
1.2008223
1.2008335
1.2008492
1.2008709
1.2009001
1.2009384
1.2009873
1.2010504
1.2011288
1.2012209
1.2013274
1.2014477
1.2015792
1.2017185
1.2018616
1.2020038
1.2021403
1.2022663
1.202377
1.2024682
1.202538
1.2025885
1.2026223
1.2026444
1.202654
1.2025583
1.202358
1.2000736
1.2009086