/*--------------------------------*- C++ -*----------------------------------*\
| =========                 |                                                 |
| \\      /  F ield         | OpenFOAM: The Open Source CFD Toolbox           |
|  \\    /   O peration     | Version:  2406                                  |
|   \\  /    A nd           | Website:  www.openfoam.com                      |
|    \\/     M anipulation  |                                                 |
\*---------------------------------------------------------------------------*/
FoamFile
{
    version     2.0;
    format      ascii;
    arch        "LSB;label=32;scalar=64";
    class       volScalarField;
    location    "0.05";
    object      T;
}
// * * * * * * * * * * * * * * * * * * * * * * * * * * * * * * * * * * * * * //

dimensions      [0 0 0 1 0 0 0];

internalField   nonuniform List<scalar> 
8260
(
292.33782
292.34419
292.35674
292.38015
292.41264
292.45203
292.4958
292.54199
292.58879
292.6341
292.67611
292.71368
292.74601
292.77247
292.79293
292.80744
292.81619
292.81948
292.81764
292.8108
292.79943
292.78427
292.7659
292.74587
292.72586
292.71003
292.71073
292.74524
292.7994
292.91949
293.13077
292.43445
292.43363
292.44006
292.45516
292.4776
292.50645
292.54033
292.57765
292.61666
292.65549
292.69234
292.72586
292.75512
292.77929
292.79806
292.81135
292.81923
292.82188
292.81958
292.81242
292.80082
292.78547
292.76696
292.74684
292.72681
292.71107
292.71204
292.7471
292.80074
292.92077
293.1304
292.5341
292.52815
292.52787
292.53449
292.54725
292.56588
292.58976
292.61775
292.64841
292.68012
292.71112
292.74007
292.76576
292.78726
292.80407
292.81594
292.82281
292.82473
292.8219
292.81437
292.8025
292.78694
292.76825
292.74798
292.72788
292.71223
292.71351
292.74916
292.80217
292.92216
293.13032
292.63269
292.62227
292.61588
292.61484
292.61894
292.62826
292.64265
292.66146
292.68365
292.70788
292.73262
292.75648
292.77816
292.79662
292.81116
292.82137
292.82704
292.82809
292.82463
292.81666
292.80446
292.78864
292.76975
292.74931
292.72913
292.71355
292.71519
292.75149
292.80375
292.92365
293.13062
292.72751
292.71357
292.70221
292.69474
292.69137
292.69244
292.69812
292.70821
292.72208
292.73874
292.75691
292.77527
292.79254
292.80755
292.8195
292.82778
292.83204
292.83206
292.82785
292.81935
292.80675
292.79062
292.77149
292.75085
292.73057
292.71507
292.71716
292.75414
292.80549
292.92521
293.13127
292.81704
292.8006
292.78556
292.77305
292.76352
292.75751
292.75546
292.75751
292.76343
292.77259
292.78403
292.79659
292.80906
292.82027
292.82926
292.83532
292.83794
292.83675
292.83165
292.82252
292.80945
292.79295
292.77352
292.75264
292.73224
292.71683
292.71946
292.75713
292.80742
292.9268
293.13238
292.8995
292.88167
292.86423
292.84812
292.83388
292.82217
292.81358
292.80854
292.80715
292.80914
292.81389
292.82049
292.82788
292.83493
292.84065
292.84418
292.84489
292.84228
292.83615
292.82626
292.81263
292.79569
292.77591
292.75474
292.73419
292.71887
292.72217
292.76051
292.80955
292.92837
293.12961
292.97357
292.95528
292.93657
292.91821
292.90074
292.88481
292.87109
292.86017
292.8524
292.84783
292.8462
292.84689
292.84905
292.85169
292.85382
292.85452
292.85306
292.84882
292.84146
292.83067
292.81638
292.79891
292.77872
292.75721
292.73646
292.72125
292.72539
292.76432
292.81188
292.92986
293.13017
293.03799
293.01981
293.00088
292.9816
292.96238
292.94379
292.92647
292.91107
292.8981
292.88789
292.88046
292.87553
292.87251
292.87061
292.86891
292.86652
292.86262
292.85652
292.84774
292.8359
292.8208
292.8027
292.78202
292.7601
292.73912
292.72407
292.72924
292.7686
292.81443
292.93118
293.13359
293.09244
293.07499
293.05665
293.0375
293.01774
292.99784
292.97835
292.95991
292.94309
292.92836
292.91599
292.90599
292.89806
292.89166
292.88602
292.88032
292.87375
292.86555
292.85514
292.84206
292.82603
292.80718
292.78591
292.76351
292.74224
292.7274
292.73387
292.77341
292.81719
292.93217
293.13895
293.13773
293.12141
293.10395
293.08553
293.06615
293.04604
293.02566
293.00553
292.98619
292.96819
292.95194
292.93766
292.92533
292.91466
292.90512
292.89602
292.88659
292.87607
292.86384
292.84933
292.8322
292.81248
292.7905
292.76753
292.74592
292.73135
292.73949
292.77874
292.82014
292.93268
293.14538
293.17375
293.15912
293.14311
293.12583
293.10742
293.08796
293.06769
293.04701
293.02641
293.00638
292.98738
292.9698
292.95379
292.93933
292.92611
292.91363
292.90125
292.88826
292.874
292.85788
292.83948
292.81874
292.79594
292.7723
292.75028
292.73611
292.74637
292.78459
292.82325
292.93256
293.15282
293.2016
293.18864
293.17435
293.15866
293.14163
293.12339
293.10402
293.08374
293.06294
293.04203
293.02145
293.0016
292.98281
292.96521
292.94872
292.93307
292.91776
292.90221
292.88578
292.86789
292.84805
292.82612
292.80237
292.77796
292.75548
292.74192
292.75476
292.79089
292.82651
292.93188
293.1627
293.2226
293.21125
293.19866
293.18473
293.16938
293.15265
293.13467
293.11551
293.09536
293.07453
293.0534
293.03233
293.0117
292.99175
292.97259
292.95413
292.93609
292.918
292.89933
292.87951
292.85808
292.83483
292.80997
292.7847
292.76172
292.74909
292.76463
292.79753
292.82993
292.93081
293.17522
293.23823
293.22834
293.21731
293.20505
293.19148
293.17655
293.16026
293.14262
293.12367
293.10362
293.08274
293.06136
293.0398
293.01836
292.99725
292.97652
292.95606
292.93559
292.9147
292.8929
292.86976
292.84504
292.81897
292.79273
292.76928
292.7581
292.7761
292.80443
292.8335
292.92949
293.18957
293.25024
293.24167
293.23206
293.22131
293.2093
293.19592
293.18117
293.16514
293.14779
293.12908
293.10913
293.0882
293.06656
293.04446
293.02216
292.9998
292.97741
292.95487
292.9319
292.90815
292.88324
292.85697
292.82958
292.80233
292.77857
292.7696
292.78917
292.81152
292.83725
292.92814
293.19471
293.25929
293.25185
293.24349
293.2341
293.22358
293.21181
293.19866
293.18405
293.16811
293.15096
293.13246
293.1126
293.09155
293.06953
293.04678
293.02348
292.99974
292.97556
292.95081
292.92525
292.89862
292.87079
292.84206
292.81383
292.79018
292.78441
292.80366
292.81883
292.84106
292.92651
293.19863
293.26579
293.25935
293.25208
293.24391
293.23472
293.2244
293.21286
293.2
293.18566
293.16986
293.15276
293.13431
293.11439
293.09308
293.07055
293.04699
293.02254
292.99727
292.97116
292.94409
292.91592
292.88663
292.85664
292.82769
292.80507
292.80349
292.81905
292.82639
292.84472
292.9245
293.21213
293.26984
293.26434
293.25812
293.2511
293.24317
293.23422
293.22414
293.21283
293.20016
293.18594
293.17009
293.15282
293.1343
293.11433
293.09274
293.06962
293.04515
293.01943
292.99252
292.96438
292.93501
292.90453
292.87357
292.84453
292.8247
292.82688
292.83434
292.83416
292.84811
292.9221
293.22217
293.27017
293.26555
293.26031
293.25438
293.24765
293.24003
293.2314
293.22166
293.21068
293.19836
293.18453
293.16896
293.15155
293.13266
293.11243
293.0905
293.06675
293.04128
293.01422
292.98562
292.95559
292.9244
292.89312
292.86546
292.85141
292.85247
292.84885
292.84222
292.85161
292.91983
293.21585
293.26561
293.26188
293.25764
293.2528
293.24728
293.24099
293.23382
293.22564
293.21634
293.20579
293.19385
293.18038
293.16522
293.14808
293.12909
293.10854
293.08614
293.06167
293.03522
293.00692
292.97701
292.94604
292.91613
292.89313
292.88475
292.87694
292.8631
292.85143
292.85581
292.91814
293.24246
293.25373
293.25096
293.24777
293.24411
293.2399
293.23505
293.22946
293.22302
293.2156
293.20704
293.1972
293.1859
293.17295
293.1581
293.14103
293.12183
293.10101
293.07834
293.0535
293.02678
292.99869
292.97023
292.94518
292.92921
292.91614
292.89763
292.87837
292.86337
292.8628
292.91598
293.25831
293.23183
293.23007
293.22803
293.22563
293.22281
293.21949
293.21559
293.21099
293.20559
293.19923
293.19176
293.18301
293.1728
293.16092
293.14706
293.13051
293.11094
293.08961
293.06756
293.04462
293.0212
292.9988
292.97957
292.96205
292.93963
292.91632
292.89555
292.87907
292.87499
292.91801
293.22038
293.19451
293.19387
293.19306
293.19203
293.19072
293.18908
293.18702
293.18445
293.18127
293.17736
293.17258
293.1668
293.1599
293.15176
293.14239
293.13185
293.11978
293.10452
293.08538
293.06483
293.04468
293.02452
293.0044
292.98251
292.9584
292.93497
292.91426
292.89804
292.89247
292.92734
293.18249
293.15752
293.15728
293.15695
293.15651
293.15594
293.15519
293.15421
293.15294
293.15131
293.14921
293.14654
293.14315
293.1389
293.13362
293.1272
293.11964
293.11119
293.10254
293.09365
293.0813
293.06268
293.04101
293.01976
292.99842
292.97654
292.95406
292.93369
292.91821
292.91251
292.93992
293.14094
293.14248
293.14205
293.14156
293.14099
293.14031
293.13949
293.13851
293.13732
293.13585
293.13406
293.13183
293.12909
293.1257
293.12153
293.11641
293.11014
293.10255
293.09353
293.0832
293.07271
293.06297
293.05061
293.03254
293.01248
292.99279
292.97225
292.9529
292.93797
292.93193
292.95599
293.18245
293.12345
293.123
293.12248
293.12186
293.12112
293.12025
293.11921
293.11798
293.11653
293.11481
293.11279
293.11043
293.10769
293.10451
293.10083
293.09653
293.09145
293.08538
293.0781
293.06958
293.06003
293.04934
293.036
293.0212
293.00517
292.98807
292.97136
292.95758
292.94953
292.97155
293.20524
293.09295
293.09272
293.09246
293.09215
293.09178
293.09134
293.0908
293.09016
293.08938
293.08845
293.08735
293.08604
293.0845
293.08268
293.08051
293.07785
293.07447
293.07014
293.06481
293.05856
293.05162
293.04367
293.03483
293.02523
293.01329
293.00002
292.98755
292.97802
292.97038
292.98443
293.19516
293.06622
293.06638
293.06655
293.06674
293.06695
293.06716
293.06738
293.0676
293.0678
293.06798
293.0681
293.06813
293.06801
293.06763
293.0669
293.0657
293.06391
293.06142
293.05828
293.05461
293.05049
293.04552
293.0397
293.03102
293.02106
293.01027
292.99941
292.99039
292.98563
293.00043
293.20595
293.07578
293.07587
293.07596
293.07607
293.07618
293.07632
293.07647
293.07664
293.07682
293.07701
293.07716
293.07725
293.0772
293.07696
293.07646
293.07568
293.07468
293.07353
293.07208
293.06967
293.06554
293.06024
293.05306
293.04446
293.03524
293.02312
293.0095
292.99467
292.98404
292.9662
293.09389
293.10091
293.10071
293.10048
293.10023
293.09994
293.09964
293.09933
293.099
293.09865
293.09826
293.09782
293.09729
293.09661
293.09571
293.09452
293.09295
293.09091
293.08831
293.085
293.08079
293.07551
293.0691
293.06192
293.0533
293.04224
293.03135
293.01624
292.99922
292.9847
292.95408
292.95303
293.71278
293.59799
293.48638
293.37862
293.2768
293.18281
293.0988
293.02738
292.96864
292.92284
292.88898
292.86536
292.84981
292.84009
292.83403
292.8293
292.82421
292.81768
292.80896
292.79741
292.78302
292.76598
292.74668
292.72636
292.70611
292.68832
292.67754
292.69213
292.75977
292.90549
293.27448
293.59426
293.47633
293.37004
293.27128
293.18003
293.09794
293.02685
292.96793
292.92083
292.88543
292.86048
292.84414
292.8343
292.82897
292.82605
292.82345
292.81987
292.81443
292.80648
292.79546
292.7815
292.76481
292.74583
292.72582
292.70588
292.68848
292.67839
292.6942
292.76257
292.90675
293.27445
293.48242
293.37189
293.27239
293.18049
293.09742
293.02511
292.96457
292.91598
292.87905
292.85271
292.83546
292.82542
292.82063
292.81912
292.81883
292.81811
292.81593
292.8115
292.80427
292.79375
292.7802
292.76384
292.74515
292.72541
292.70575
292.68872
292.67928
292.69633
292.76524
292.90793
293.27297
293.35438
293.25476
293.16519
293.08395
293.01264
292.95257
292.90405
292.86688
292.84025
292.82267
292.81272
292.80864
292.80847
292.81026
292.81232
292.81333
292.81244
292.80895
292.80234
292.79228
292.7791
292.76305
292.74463
292.72514
292.70572
292.68904
292.68021
292.69853
292.76771
292.90896
293.26996
293.21562
293.12894
293.05241
292.98511
292.92799
292.8816
292.84585
292.82044
292.80393
292.7948
292.792
292.79352
292.79745
292.80222
292.80646
292.80909
292.80942
292.80673
292.80067
292.79104
292.7782
292.76243
292.74426
292.72499
292.7058
292.68944
292.68122
292.70078
292.76999
292.90985
293.26543
293.06092
292.99323
292.93529
292.88545
292.84455
292.81284
292.79038
292.77682
292.77013
292.76931
292.77324
292.77976
292.78745
292.79499
292.80123
292.80541
292.80683
292.80481
292.79928
292.79005
292.77751
292.762
292.74404
292.72497
292.70598
292.68993
292.68229
292.70307
292.77208
292.91058
293.25949
292.89959
292.85571
292.81877
292.78754
292.76365
292.74716
292.73819
292.7362
292.73909
292.74618
292.75612
292.76728
292.77845
292.78851
292.79666
292.80229
292.80461
292.80321
292.79817
292.78929
292.77703
292.76175
292.74397
292.72508
292.70626
292.69049
292.68342
292.70541
292.77402
292.91117
293.25239
292.7416
292.72066
292.7039
292.6922
292.68605
292.6854
292.68985
292.69862
292.71064
292.72504
292.74059
292.75605
292.77038
292.7828
292.79281
292.79966
292.80273
292.80193
292.79733
292.78877
292.77676
292.76168
292.74406
292.72532
292.70665
292.69114
292.68463
292.70777
292.77583
292.91161
293.24439
292.58419
292.58797
292.59361
292.60196
292.61341
292.6279
292.645
292.66414
292.6847
292.70586
292.7266
292.74597
292.76321
292.77792
292.7896
292.79743
292.80121
292.80097
292.79676
292.78849
292.77669
292.76178
292.74431
292.72568
292.70714
292.69186
292.6859
292.71015
292.77757
292.91191
293.23558
292.43471
292.46293
292.49049
292.51812
292.54627
292.57494
292.60388
292.63277
292.66122
292.68855
292.71402
292.73698
292.75704
292.77391
292.78689
292.79557
292.80005
292.80032
292.79646
292.78845
292.77683
292.76207
292.74471
292.72617
292.70772
292.69266
292.68725
292.71254
292.77926
292.91209
293.2263
292.29709
292.34823
292.39619
292.44173
292.48527
292.52694
292.56668
292.60446
292.64008
292.67301
292.70283
292.72922
292.75195
292.77055
292.78457
292.79411
292.79923
292.79996
292.79641
292.78863
292.77717
292.76254
292.74526
292.72678
292.7084
292.69353
292.68868
292.71494
292.78091
292.91215
293.21941
292.17755
292.24753
292.31283
292.37389
292.43095
292.48412
292.53346
292.57916
292.62121
292.65932
292.69325
292.72276
292.74771
292.76769
292.78272
292.79305
292.79873
292.79988
292.79662
292.78905
292.77771
292.76318
292.74595
292.72752
292.70917
292.69447
292.69019
292.71735
292.78252
292.91215
293.21096
292.08045
292.16413
292.24257
292.31579
292.38384
292.44669
292.50446
292.55731
292.60508
292.64782
292.68536
292.71746
292.74411
292.76528
292.78132
292.79237
292.79855
292.80007
292.79708
292.78968
292.77845
292.76399
292.74679
292.72837
292.71004
292.69548
292.69177
292.71975
292.78409
292.91213
293.20161
292.00331
292.09871
292.18725
292.26952
292.3455
292.41551
292.48027
292.53935
292.59197
292.63842
292.67878
292.71291
292.74097
292.76338
292.78034
292.79204
292.79869
292.80053
292.79777
292.79052
292.77937
292.76496
292.74778
292.72934
292.71099
292.69654
292.6934
292.72213
292.78562
292.91216
293.19433
291.92632
292.03693
292.13782
292.2302
292.31425
292.39063
292.46084
292.52451
292.58109
292.63047
292.6729
292.70885
292.73843
292.76198
292.77976
292.79204
292.79912
292.80125
292.7987
292.79157
292.78048
292.76609
292.7489
292.73042
292.71202
292.69765
292.69506
292.7245
292.78711
292.91229
293.18569
291.86116
291.97872
292.08846
292.18965
292.28317
292.3688
292.44456
292.51149
292.5711
292.62319
292.6679
292.70558
292.73651
292.76105
292.77956
292.79237
292.79983
292.80221
292.79985
292.79282
292.78177
292.76738
292.75015
292.73161
292.71314
292.6988
292.69673
292.72684
292.78856
292.91256
293.1764
291.84652
291.95831
292.06592
292.16792
292.26314
292.35071
292.42996
292.50061
292.56298
292.61736
292.66396
292.70311
292.73518
292.76058
292.77973
292.79301
292.8008
292.80341
292.80121
292.79425
292.78323
292.76882
292.75153
292.7329
292.71433
292.69999
292.69839
292.72914
292.78998
292.91298
293.16697
291.84581
291.95386
292.05822
292.15804
292.25224
292.33991
292.42037
292.4929
292.55712
292.61312
292.66112
292.70142
292.73443
292.76056
292.78026
292.79394
292.80202
292.80482
292.80277
292.79587
292.78485
292.7704
292.75303
292.7343
292.71559
292.7012
292.70004
292.7314
292.79136
292.91358
293.1575
291.86278
291.96417
292.06325
292.15892
292.2502
292.33615
292.41594
292.48866
292.5536
292.61048
292.65936
292.7005
292.73423
292.76095
292.78111
292.79514
292.80347
292.80644
292.8045
292.79766
292.78663
292.77212
292.75465
292.73578
292.71692
292.70244
292.70167
292.7336
292.79269
292.91434
293.14826
291.89748
291.98911
292.08037
292.16982
292.25631
292.3388
292.41632
292.48784
292.55243
292.60942
292.65869
292.70033
292.73456
292.76173
292.78227
292.7966
292.80514
292.80826
292.80641
292.79961
292.78855
292.77397
292.75638
292.73735
292.71832
292.7037
292.70326
292.73574
292.79397
292.91516
293.14299
291.94919
292.02828
292.10923
292.19029
292.27011
292.34748
292.42125
292.49031
292.55355
292.60993
292.65906
292.70086
292.73539
292.76288
292.78372
292.79829
292.807
292.81025
292.80847
292.8017
292.79061
292.77593
292.75821
292.73901
292.71979
292.70499
292.70483
292.73782
292.79519
292.91601
293.13985
292.01584
292.08012
292.14869
292.21933
292.29078
292.36159
292.43034
292.49578
292.55679
292.61192
292.66042
292.70206
292.73668
292.76436
292.78541
292.80018
292.80904
292.8124
292.81068
292.80392
292.79279
292.77801
292.76014
292.74074
292.72132
292.70629
292.70638
292.73983
292.79636
292.91689
293.13791
292.09607
292.14267
292.1961
292.25434
292.31611
292.3795
292.44249
292.50355
292.56171
292.61512
292.66264
292.70383
292.73837
292.76613
292.78732
292.80224
292.81123
292.81468
292.81301
292.80626
292.79508
292.78018
292.76215
292.74254
292.7229
292.7076
292.70791
292.74177
292.79746
292.91792
293.13369
292.1974
292.22361
292.25692
292.29919
292.34847
292.40253
292.45842
292.51415
292.5686
292.61964
292.66573
292.70616
292.74041
292.76812
292.78939
292.80443
292.81353
292.81706
292.81543
292.8087
292.79746
292.78245
292.76424
292.7444
292.72454
292.70891
292.70942
292.74361
292.79849
292.91886
293.13155
293.72603
293.60708
293.49937
293.39811
293.30182
293.21159
293.12919
293.05628
292.99534
292.94639
292.90896
292.88167
292.86272
292.85001
292.84144
292.83479
292.82825
292.82061
292.81105
292.79889
292.78407
292.76669
292.74714
292.7266
292.70617
292.68818
292.67694
292.69059
292.75742
292.90422
293.27133
293.70468
293.58898
293.48724
293.3933
293.30519
293.22165
293.14386
293.07373
293.0134
292.96363
292.92448
292.89494
292.87359
292.85858
292.84795
292.83958
292.83167
292.82298
292.81261
292.79986
292.7846
292.76693
292.74717
292.72649
292.70595
292.68785
292.67635
292.68934
292.75574
292.90394
293.26977
293.68973
293.58086
293.48508
293.39671
293.31351
293.23437
293.15985
293.09164
293.03166
292.9811
292.94032
292.90865
292.88495
292.86765
292.85492
292.84476
292.83542
292.82559
292.81436
292.80096
292.78523
292.76723
292.74723
292.7264
292.70573
292.68751
292.67575
292.68803
292.75391
292.9036
293.26734
293.67761
293.5746
293.48328
293.39986
293.32086
293.24568
293.17448
293.1084
293.04926
292.99836
292.95631
292.92278
292.89688
292.87732
292.86245
292.85043
292.83956
292.82851
292.81634
292.80223
292.78596
292.7676
292.74735
292.72633
292.70553
292.68718
292.67513
292.68669
292.75192
292.90316
293.26384
293.66441
293.56733
293.48046
293.40119
293.32658
293.25551
293.18779
293.12419
293.06629
293.01547
292.97248
292.93733
292.90938
292.88759
292.87056
292.85661
292.84412
292.83176
292.81856
292.80367
292.78683
292.76806
292.74752
292.7263
292.70535
292.68685
292.67451
292.68532
292.74976
292.9026
293.2588
293.65071
293.55978
293.47733
293.402
293.33155
293.26446
293.20021
293.13925
293.0829
293.03247
292.98884
292.9523
292.92244
292.89849
292.87929
292.86334
292.84914
292.83538
292.82106
292.80532
292.78784
292.76862
292.74776
292.72632
292.70519
292.68653
292.67389
292.68391
292.74743
292.90188
293.25134
293.63743
293.55278
293.47479
293.40323
293.33655
293.2731
293.21214
293.15383
293.09918
293.04938
293.00537
292.96765
292.93603
292.91001
292.88863
292.87063
292.85464
292.83939
292.82386
292.80719
292.78901
292.76928
292.74807
292.72638
292.70507
292.68624
292.67327
292.68247
292.74495
292.90099
293.24423
293.62514
293.54647
293.47309
293.40534
293.34204
293.28185
293.22389
293.16812
293.11524
293.06624
293.02207
292.98335
292.95015
292.92213
292.8986
292.87852
292.86066
292.84382
292.827
292.80931
292.79036
292.77007
292.74847
292.7265
292.70497
292.68596
292.67266
292.681
292.74233
292.89992
293.23736
293.61414
293.54146
293.47287
293.40871
293.34845
293.2911
293.23582
293.18239
293.13122
293.08312
293.03895
292.9994
292.96476
292.93485
292.90921
292.88702
292.86722
292.8487
292.83049
292.81171
292.79191
292.77099
292.74896
292.72667
292.70491
292.68569
292.67205
292.6795
292.73958
292.89866
293.23079
293.60579
293.53896
293.47457
293.41366
293.35612
293.30125
293.24828
293.19691
293.14732
293.10012
293.05604
293.01581
292.97986
292.94815
292.92045
292.89614
292.87435
292.85407
292.83437
292.81441
292.79369
292.77207
292.74955
292.7269
292.70489
292.68543
292.67145
292.67797
292.73673
292.89718
293.2245
293.6005
293.53848
293.47807
293.42033
293.36532
293.3126
293.26159
293.21195
293.16375
293.11736
293.07342
293.0326
292.99543
292.96204
292.93233
292.9059
292.88207
292.85995
292.83868
292.81743
292.79572
292.77333
292.75025
292.72722
292.70492
292.68518
292.67088
292.67642
292.73378
292.89547
293.21839
293.59866
293.54096
293.48411
293.42918
293.37637
293.32546
293.27604
293.22779
293.18069
293.13498
293.09115
293.04979
293.01148
292.97649
292.94483
292.9163
292.89039
292.86636
292.84344
292.82082
292.79802
292.77478
292.75109
292.72762
292.70501
292.68497
292.67033
292.67487
292.73075
292.89349
293.2123
293.60043
293.54667
293.49303
293.44054
293.38956
293.34009
293.29187
293.24466
293.19836
293.15312
293.1093
293.06741
293.028
292.99149
292.95794
292.92734
292.89934
292.87334
292.84867
292.8246
292.80062
292.77646
292.7521
292.72813
292.70517
292.68481
292.66982
292.67331
292.72767
292.8912
293.20602
293.60633
293.55595
293.505
293.45452
293.40502
293.35664
293.30926
293.26271
293.2169
293.17189
293.12795
293.08549
293.04502
293.00701
292.97165
292.939
292.9089
292.8809
292.85442
292.8288
292.80355
292.7784
292.75328
292.72877
292.70544
292.68472
292.66937
292.67178
292.72455
292.88855
293.19933
293.61572
293.56828
293.51968
293.47096
293.42267
293.37509
293.32824
293.28202
293.23639
293.19137
293.14713
293.10403
293.06251
293.02304
292.98593
292.95128
292.91909
292.88905
292.86069
292.83345
292.80686
292.78063
292.75469
292.72955
292.70583
292.68471
292.66899
292.67028
292.72141
292.88547
293.1919
293.62879
293.5837
293.53703
293.48974
293.44239
293.39535
293.34874
293.30257
293.25683
293.21156
293.16687
293.12304
293.08045
293.03955
293.00072
292.96414
292.92988
292.89778
292.86751
292.83857
292.81055
292.78317
292.75633
292.7305
292.70633
292.6848
292.6687
292.66885
292.71829
292.88192
293.18325
293.64478
293.60169
293.55663
293.51048
293.46384
293.41712
293.37054
293.3242
293.27813
293.2324
293.1871
293.14245
293.09878
293.05649
293.01599
292.97753
292.94124
292.90711
292.87488
292.8442
292.81467
292.78606
292.75825
292.73167
292.70696
292.685
292.66852
292.66751
292.71521
292.87787
293.17339
293.66272
293.6214
293.57774
293.53258
293.4865
293.43996
293.39328
293.3466
293.30006
293.25373
293.20771
293.16218
293.11741
293.07377
293.03166
292.99139
292.95315
292.91699
292.88282
292.85034
292.81924
292.78932
292.76046
292.73308
292.70776
292.68535
292.66847
292.66629
292.7122
292.87329
293.16213
293.68125
293.64158
293.59928
293.55508
293.50955
293.46319
293.41638
293.36935
293.32227
293.27528
293.22849
293.18206
293.13621
293.09128
293.04764
293.00565
292.96553
292.92741
292.89129
292.857
292.82429
292.79299
292.76303
292.73475
292.70876
292.68588
292.66857
292.66523
292.70931
292.86825
293.14168
293.69919
293.66115
293.62021
293.57703
293.53214
293.48606
293.43921
293.39188
293.34432
293.2967
293.24917
293.20186
293.155
293.10887
293.06382
293.02021
292.97831
292.93831
292.9003
292.86419
292.82983
292.79709
292.76597
292.73671
292.71001
292.68662
292.66885
292.66436
292.70657
292.86288
293.12274
293.71527
293.67894
293.63949
293.59747
293.5534
293.50777
293.46105
293.4136
293.36569
293.31756
293.26939
293.22133
293.17357
293.12636
293.08004
293.03495
292.99141
292.94964
292.90979
292.87189
292.83587
292.80166
292.76929
292.73899
292.71153
292.68758
292.66934
292.66375
292.70404
292.85728
293.10502
293.72806
293.69365
293.65592
293.61534
293.57236
293.52749
293.48119
293.43386
293.38585
293.33743
293.2888
293.24015
293.19165
293.14355
293.09613
293.04974
293.00471
292.9613
292.91972
292.88009
292.84241
292.8067
292.77304
292.74164
292.71334
292.68877
292.67007
292.66344
292.7018
292.85153
293.08782
293.73718
293.70493
293.66918
293.63029
293.58867
293.54481
293.4992
293.45227
293.4044
293.35592
293.30707
293.25804
293.20902
293.16023
293.11192
293.06443
293.0181
292.97321
292.93003
292.88874
292.84945
292.81223
292.77724
292.74472
292.71546
292.6902
292.67106
292.66346
292.6999
292.84574
293.07137
293.74116
293.71146
293.67811
293.64135
293.60155
293.55913
293.51459
293.46841
293.421
293.37274
293.32392
293.27475
293.22544
293.17619
293.12723
293.07887
293.03144
292.98527
292.94064
292.89781
292.85697
292.81826
292.78191
292.74823
292.71794
292.69192
292.67231
292.66386
292.69843
292.84001
293.05599
293.74097
293.71408
293.6834
293.64909
293.61139
293.57071
293.52753
293.48235
293.43564
293.38783
293.33926
293.29017
293.24078
293.19129
293.14191
293.09291
293.04462
292.99737
292.95148
292.90724
292.86493
292.82478
292.78708
292.75219
292.72084
292.69397
292.67384
292.66466
292.69747
292.83447
293.04208
293.73591
293.71209
293.68446
293.653
293.61786
293.57936
293.53793
293.49409
293.44836
293.40122
293.35309
293.30426
293.25498
293.20544
293.15585
293.10645
293.05752
293.0094
292.96244
292.91697
292.87331
292.83179
292.79275
292.75663
292.72421
292.69643
292.67569
292.66589
292.69707
292.82926
293.02998
293.72662
293.70592
293.68149
293.65317
293.62097
293.58506
293.5458
293.50368
293.45924
293.41302
293.36551
293.3171
293.26807
293.21864
293.16901
293.11939
293.07004
293.02128
292.97345
292.92693
292.88207
292.83926
292.79893
292.7616
292.7281
292.69935
292.67791
292.6676
292.69732
292.82453
293.01932
293.71369
293.69604
293.67485
293.64982
293.62081
293.58785
293.55116
293.51116
293.46836
293.42334
293.37667
293.32882
293.28015
293.23094
293.18139
293.13171
293.08213
293.03293
292.98444
292.93704
292.89114
292.84718
292.80564
292.76711
292.73256
292.70282
292.68059
292.66988
292.69828
292.82049
293.01015
293.69761
293.68282
293.66476
293.64304
293.61737
293.58762
293.55388
293.5164
293.47565
293.43219
293.38662
293.33951
293.29133
293.24243
293.19306
293.14343
293.09375
293.04428
292.99533
292.94726
292.9005
292.85551
292.81286
292.77322
292.73764
292.70689
292.68378
292.67283
292.69999
292.8173
293.00236
293.67887
293.6667
293.65155
293.633
293.61067
293.58428
293.55374
293.51917
293.48087
293.43937
293.39525
293.34916
293.30164
293.25316
293.20405
293.15456
293.10491
293.05532
293.00607
292.95752
292.91007
292.86424
292.8206
292.77991
292.74333
292.71158
292.68757
292.67642
292.70247
292.815
292.99543
293.65773
293.64788
293.63538
293.61978
293.60066
293.57764
293.55046
293.51908
293.48363
293.44452
293.40228
293.35755
293.31097
293.26309
293.21436
293.16511
293.11558
293.066
293.01662
292.96776
292.91983
292.87331
292.82883
292.7872
292.74962
292.71693
292.69212
292.68064
292.70563
292.81351
292.98848
293.63456
293.62666
293.6165
293.60359
293.58745
293.56766
293.54386
293.51583
293.48354
293.44722
293.40729
293.36436
293.31907
293.27208
293.22393
293.17505
293.12576
293.0763
293.02694
292.97794
292.9297
292.8827
292.83755
292.79509
292.75657
292.72305
292.69751
292.6855
292.70936
292.81265
292.9805
293.60963
293.60338
293.59521
293.58467
293.57124
293.55447
293.53392
293.50926
293.48029
293.44707
293.40987
293.36918
293.32561
293.27986
293.23257
293.18426
293.13536
293.08617
293.03697
292.98801
292.93966
292.89237
292.84673
292.8036
292.76421
292.72992
292.70368
292.69114
292.71371
292.81226
292.97067
293.58328
293.5784
293.5719
293.56337
293.55234
293.53831
293.52079
293.49938
293.47378
293.44384
293.40967
293.37162
293.33021
293.28612
293.24003
293.19257
293.14428
293.09553
293.04665
292.99792
292.94965
292.90227
292.85636
292.81274
292.77265
292.73763
292.71065
292.69758
292.71872
292.81217
292.95852
293.55623
293.55243
293.54728
293.54041
293.5314
293.51976
293.50497
293.48657
293.46418
293.43753
293.40656
293.37144
293.33256
293.29054
293.24605
293.19978
293.15237
293.10428
293.05592
293.00759
292.95961
292.91236
292.86641
292.82252
292.7819
292.74628
292.71864
292.70483
292.7244
292.81205
292.94421
293.52893
293.52593
293.52183
293.51629
293.50894
293.49933
293.48697
293.47133
293.45195
293.42848
293.40072
293.36866
293.33258
293.29296
293.25043
293.20571
293.15948
293.11232
293.0647
293.01699
292.96951
292.92261
292.87683
292.8329
292.79198
292.7559
292.72766
292.71304
292.73092
292.81178
292.92836
293.5023
293.49991
293.4966
293.49209
293.48603
293.47803
293.46762
293.45429
293.43756
293.41701
293.39233
293.36338
293.33025
293.29329
293.25305
293.21021
293.16549
293.11954
293.07292
293.02606
292.9793
292.93299
292.88761
292.84386
292.80287
292.7665
292.7377
292.7224
292.73855
292.81173
292.91174
293.47601
293.47407
293.47137
293.46767
293.46268
293.45603
293.44729
293.436
293.42164
293.40375
293.38196
293.35601
293.32587
293.29171
293.25399
293.2133
293.17038
293.12592
293.08055
293.03477
292.98897
292.94348
292.89874
292.85541
292.81458
292.7781
292.74892
292.7332
292.74725
292.81263
292.89697
293.44996
293.44838
293.44619
293.44316
293.43905
293.43354
293.42623
293.41669
293.40445
293.38899
293.36988
293.34681
293.31962
293.28834
293.2533
293.215
293.17414
293.13144
293.08757
293.04311
292.9985
292.95409
292.91023
292.86756
292.82712
292.79075
292.76146
292.74532
292.7574
292.81538
292.88692
293.42378
293.4225
293.42071
293.41824
293.41487
293.41032
293.40426
293.39629
293.38594
293.37275
293.35619
293.33589
293.3116
293.28327
293.25104
293.21535
293.17679
293.1361
293.09399
293.05109
293.0079
292.96478
292.92206
292.88028
292.84044
292.80436
292.77506
292.7586
292.76877