/*--------------------------------*- C++ -*----------------------------------*\
| =========                 |                                                 |
| \\      /  F ield         | OpenFOAM: The Open Source CFD Toolbox           |
|  \\    /   O peration     | Version:  2406                                  |
|   \\  /    A nd           | Website:  www.openfoam.com                      |
|    \\/     M anipulation  |                                                 |
\*---------------------------------------------------------------------------*/
FoamFile
{
    version     2.0;
    format      ascii;
    arch        "LSB;label=32;scalar=64";
    class       surfaceScalarField;
    location    "0.03";
    object      phi;
}
// * * * * * * * * * * * * * * * * * * * * * * * * * * * * * * * * * * * * * //

dimensions      [1 0 -1 0 0 0 0];

oriented        oriented;

internalField   nonuniform List<scalar> 
4031
(
0.00020544944
0.69658594
6.8579861e-05
0.7751978
0.84930735
0.00024651425
0.081286933
0.00059703882
0.093106449
0.00090974007
0.10635663
0.0011746451
0.12122136
0.0013867894
0.13793446
0.0015455217
0.15678359
0.0016526219
0.17809345
0.0017123173
0.20225051
0.0017298984
0.22969645
0.0017110089
0.26092597
0.0016608448
0.29647086
0.0015821912
0.3368852
0.0014743768
0.3827792
0.0013349347
0.43465019
0.00115677
0.49259974
0.00090447661
0.55626446
0.00055443517
0.62389883
0.00021439426
0.69695094
6.4632645e-05
0.77538896
0.84944583
-0.0020769742
0.015071748
0.0020502833
-0.0020852103
0.017851522
-0.002070177
0.020997104
-0.0020242294
0.024605732
-0.0019332827
0.028769318
-0.0017859833
0.033578571
-0.0015769836
0.039121552
-0.0013079303
0.045483417
-0.00098607247
0.052751097
-0.00062406005
0.061013597
-0.00023927835
0.070362116
0.00014817816
0.080895854
0.00051860918
0.09273189
0.00085533592
0.10601521
0.0011458941
0.12092548
0.0013830842
0.13769124
0.0015647373
0.15659517
0.001691548
0.17795907
0.0017671066
0.20216661
0.0017971119
0.22965742
0.0017861952
0.26092725
0.0017396838
0.2965075
0.0016622614
0.33695297
0.001552821
0.38288026
0.0014094191
0.43478745
0.001224274
0.49278197
0.00096021819
0.55653093
0.00058976448
0.62427915
0.00022325321
0.69734433
5.8733818e-05
0.7755972
0.84959629
-0.0021693
0.015093016
0.0021471923
-0.0021747671
0.017856023
-0.0021607826
0.020981997
-0.0021163055
0.024559957
-0.0020298469
0.028681361
-0.0018906796
0.033437672
-0.0016919157
0.038920794
-0.0014325385
0.045221749
-0.0011171929
0.052433125
-0.00075629641
0.060649692
-0.00036568811
0.069968066
3.4966757e-05
0.08049127
0.00042514548
0.092337237
0.00078634461
0.10564893
0.001103718
0.12060233
0.0013677208
0.13742071
0.0015743979
0.15638114
0.001723136
0.17780211
0.0018166996
0.20206396
0.0018603548
0.22960392
0.0018589101
0.26091817
0.001818157
0.29653742
0.0017429662
0.33701756
0.0016327991
0.38298117
0.0014860994
0.43492734
0.0012940843
0.4929708
0.0010182873
0.55680942
0.00062681611
0.62468152
0.00023197998
0.69776802
5.0561052e-05
0.77582468
0.84975996
-0.0023119239
0.015111865
0.0022921377
-0.0023127368
0.017855753
-0.0022928672
0.020960854
-0.0022451598
0.024510804
-0.0021588067
0.02859335
-0.0020231077
0.033300066
-0.0018301822
0.03872568
-0.0015770036
0.044966064
-0.0012658843
0.052119138
-0.00090496718
0.060285498
-0.00050829696
0.069567655
-9.4619715e-05
0.08007333
0.00031523396
0.091922532
0.00070130083
0.10525735
0.0010465493
0.12025082
0.0013390682
0.13712111
0.0015728824
0.15613936
0.0017458511
0.17762022
0.0018597113
0.20194024
0.0019191104
0.2295338
0.001928906
0.26089694
0.0018954218
0.29655909
0.0018236463
0.33707774
0.0017137186
0.38308094
0.0015645171
0.43506906
0.0013659767
0.49316587
0.0010785617
0.55709982
0.00066554973
0.62510651
0.00024049603
0.69822393
3.9835885e-05
0.77607361
0.84993881
-0.0025059221
0.015124254
0.0024924345
-0.0025001757
0.017848749
-0.0024732701
0.020932498
-0.0024187743
0.024454673
-0.0023276021
0.028500323
-0.0021899423
0.033160292
-0.0019975863
0.038530912
-0.0017461133
0.04471184
-0.0014358908
0.05180578
-0.0010728997
0.059918934
-0.00066921106
0.069159898
-0.00024223784
0.079641728
0.00018738568
0.091487646
0.00059870005
0.10484006
0.00097278966
0.11986996
0.0012954309
0.13679081
0.0015584712
0.1558677
0.0017580303
0.17741101
0.0018946121
0.201793
0.0019720722
0.22944472
0.0019950659
0.26086154
0.0019704942
0.29657086
0.0019035371
0.33713213
0.00179497
0.38317845
0.001644227
0.43521162
0.0014396525
0.49336669
0.0011408536
0.5574019
0.00070590469
0.62555458
0.00024874385
0.69871397
2.6231182e-05
0.77634654
0.85013704
-0.0027631199
0.015126968
0.0027591075
-0.0027488223
0.017832997
-0.002711404
0.020893451
-0.0026455795
0.024387009
-0.0025440367
0.028396702
-0.0023982351
0.033012139
-0.0022002797
0.03833029
-0.0019450077
0.044453542
-0.0016313076
0.051488645
-0.0012632117
0.059546937
-0.00085074857
0.068743004
-0.0004096801
0.079195628
4.0067656e-05
0.091032186
0.00047703498
0.10439661
0.00088082923
0.11945882
0.0012350775
0.13642827
0.0015293614
0.15556409
0.0017578834
0.17717206
0.0019197042
0.20161963
0.0020177387
0.2293341
0.0020576169
0.26080823
0.002044001
0.29657062
0.0019817062
0.33718081
0.0018757741
0.38327241
0.0017246388
0.43535386
0.0015146922
0.49357258
0.0012048964
0.5577153
0.00074779404
0.62602602
0.00025668189
0.69923999
9.2789077e-06
0.77664644
0.85035825
-0.0031215165
0.01511694
0.0031300453
-0.0030846476
0.017794466
-0.003024442
0.02083141
-0.0029375967
0.024298102
-0.0028172083
0.028273991
-0.0026553444
0.032847659
-0.0024444154
0.03811641
-0.0021788105
0.044184605
-0.0018562679
0.051162335
-0.0014791003
0.059165506
-0.0010553177
0.068314391
-0.00059877286
0.078733607
-0.00012824801
0.090555453
0.00033484447
0.10392648
0.00076909966
0.11901661
0.001156276
0.13603211
0.0014836982
0.15522656
0.0017435154
0.17690094
0.0019331498
0.2014175
0.0020543597
0.22919926
0.0021125466
0.26073549
0.0021117735
0.29655638
0.002057088
0.33722075
0.0019552129
0.38336126
0.001804886
0.4354945
0.0015905474
0.49378254
0.0012703425
0.55803945
0.00079109406
0.62652094
0.00026429953
0.69980372
-1.1836795e-05
0.77697741
0.85061052
-0.0035636004
0.015079854
0.0035989792
-0.0035020794
0.01773106
-0.0034150519
0.020742298
-0.0033002153
0.024180942
-0.0031529213
0.028124099
-0.0029668059
0.032658634
-0.0027350214
0.037881361
-0.002451917
0.04389783
-0.0021144608
0.050820744
-0.001723516
0.058769895
-0.0012851556
0.067870757
-0.00081123014
0.078253714
-0.00031898476
0.090056452
0.00017076639
0.10342908
0.00063612293
0.1185426
0.0010573456
0.13560113
0.0014196187
0.15485332
0.0017129632
0.17659534
0.0019329745
0.20118393
0.002080048
0.22903739
0.0021587869
0.26064096
0.002172965
0.29652591
0.0021283649
0.33724937
0.0020323956
0.38344302
0.0018842105
0.4356321
0.0016665617
0.49399543
0.0013367253
0.55837362
0.00083564464
0.6270391
0.00027165081
0.70040664
-3.4043886e-05
0.77733996
0.850906
-0.0040937663
0.01501653
0.0041551763
-0.0040022427
0.017637434
-0.003882482
0.020620208
-0.0037336545
0.024029523
-0.0035527288
0.027940286
-0.0033349797
0.032437663
-0.0030747934
0.037617572
-0.0027670353
0.043586033
-0.0024083785
0.05045755
-0.0019985864
0.058354995
-0.0015419833
0.067408392
-0.0010484266
0.077753648
-0.00053331109
0.089533976
-1.6353421e-05
0.1029038
0.00048058671
0.11803626
0.00093672305
0.13513439
0.0013353002
0.15444284
0.0016642201
0.17625311
0.0019171075
0.20091633
0.0020927752
0.22884565
0.0021948023
0.2605218
0.0022261822
0.29647684
0.0021941023
0.33726403
0.0021063311
0.38351527
0.0019615869
0.43576536
0.0017418237
0.49420999
0.0014034637
0.55871673
0.000881238
0.62757993
0.00027888319
0.70104989
-5.9705414e-05
0.77773768
0.85125904
-0.004735216
0.014908803
0.0048408531
-0.0045985782
0.017498482
-0.004433546
0.020452605
-0.004240258
0.023833376
-0.004016734
0.02771358
-0.0037593398
0.032176721
-0.0034633974
0.037317666
-0.0031242679
0.043242468
-0.0027384974
0.050066804
-0.0023050014
0.057915906
-0.0018265743
0.066923665
-0.0013111027
0.077231068
-0.00077195104
0.088986797
-0.00022734
0.10235012
0.0003014526
0.11749723
0.00079303425
0.13463128
0.0012290309
0.1539939
0.0015953042
0.17587238
0.0018834072
0.20061224
0.002090385
0.2286212
0.002218595
0.26037495
0.0022723617
0.29640383
0.0022549233
0.33726251
0.0021744633
0.38357882
0.0020355302
0.43589177
0.0018151356
0.49442469
0.0014698339
0.5590672
0.00092761766
0.62814233
0.0002863021
0.70173406
-8.7402939e-05
0.7781732
0.85168526
-0.0054422649
0.014757241
0.0055915618
-0.0052587899
0.017312485
-0.0050453802
0.020236389
-0.0048036555
0.023588526
-0.0045330479
0.02743949
-0.0042312648
0.031871052
-0.0038947409
0.0369768
-0.0035195128
0.042862379
-0.003102246
0.049644087
-0.0026412884
0.057448826
-0.0021381718
0.066413657
-0.0015989493
0.076684077
-0.0010348892
0.08841397
-0.00046245386
0.10176779
9.8073072e-05
0.11692554
0.00062519925
0.13409158
0.0010992853
0.15350571
0.0015043138
0.17545161
0.0018297178
0.20026943
0.0020705999
0.22836131
0.0022278465
0.26019743
0.0023059489
0.29630477
0.0023054306
0.33724237
0.0022354037
0.38363045
0.0021043108
0.43600917
0.0018850942
0.49463764
0.0015349657
0.55942296
0.00097446605
0.62872467
0.00029442178
0.70245896
-0.00011501703
0.77864766
0.85220219
-0.0061725057
0.01456196
0.0063653896
-0.0059440463
0.017081338
-0.0056843326
0.019973664
-0.0053958515
0.023296675
-0.0050792102
0.027119075
-0.0047333373
0.031520953
-0.00435577
0.036594498
-0.0039433298
0.04244463
-0.0034930538
0.049187851
-0.0030030566
0.05695213
-0.0024739319
0.065876992
-0.0019101553
0.076111803
-0.0013210577
0.087815289
-0.00072122969
0.10115715
-0.00012963596
0.11632176
0.00043254374
0.13351569
0.00094481952
0.15297806
0.0013895056
0.17498976
0.001753919
0.19988604
0.0020310761
0.22806344
0.0022200859
0.25998632
0.0023239797
0.29617802
0.002342646
0.33720119
0.0022868672
0.38366613
0.0021658236
0.43611521
0.0019500082
0.49484655
0.0015978272
0.55978123
0.0010214057
0.62932462
0.00030401817
0.70322338
-0.00013838433
0.7791587
0.85283414
-0.0068652579
0.0143329
0.0070917976
-0.0066017402
0.016814972
-0.0063053939
0.019674107
-0.0059790752
0.022966739
-0.0056241717
0.026760101
-0.0052406109
0.031132815
-0.0048269688
0.036175709
-0.0043809171
0.04199279
-0.0039000369
0.04870046
-0.0033825379
0.056427303
-0.0028284476
0.06531465
-0.0022410389
0.075515095
-0.0016280437
0.087191809
-0.0010022297
0.10051951
-0.00038105839
0.11568727
0.0002149314
0.13290472
0.00076478114
0.15241142
0.0012493862
0.17448643
0.0016540098
0.19946072
0.0019694653
0.22772539
0.0021928389
0.25973884
0.0023254802
0.29602043
0.0023656587
0.33713643
0.0023261547
0.38368362
0.0022174337
0.43620745
0.0020078058
0.49504852
0.0016572256
0.56013834
0.0010679708
0.62993911
0.00031644775
0.7040245
-0.0001554952
0.77970338
0.85305192
-0.0074531568
0.014087924
0.0076954469
-0.007172611
0.016531382
-0.0068571418
0.019355191
-0.0065094183
0.02261512
-0.0061311266
0.02637741
-0.0057228388
0.030719562
-0.0052839978
0.035731269
-0.0048131353
0.041515616
-0.0043085125
0.048188725
-0.0037687371
0.055879513
-0.0031937112
0.06473059
-0.0025859718
0.074897173
-0.0019519852
0.086546344
-0.0013029159
0.099857509
-0.00065473046
0.11502452
-2.710302e-05
0.13226072
0.00055882046
0.15180715
0.0010828083
0.17394199
0.001528184
0.19899275
0.0018834862
0.22734542
0.0021435775
0.25945243
0.0023080582
0.29582869
0.0023770611
0.33704056
0.0023561337
0.38368037
0.0022557757
0.43628967
0.0020559651
0.49523987
0.0017118359
0.56048943
0.0011135346
0.63056434
0.00033285609
0.70485797
-0.00016713123
0.78028344
0.85362736
-0.0079151813
0.01384076
0.008159453
-0.0076322584
0.016245175
-0.0073129379
0.019032144
-0.0069593369
0.022257298
-0.0065729864
0.025986283
-0.0061546097
0.030295785
-0.0057040506
0.035274608
-0.0052203571
0.041025033
-0.0047022688
0.047662861
-0.004148772
0.055317245
-0.003559827
0.064131754
-0.0029375714
0.074263765
-0.0022875358
0.085883737
-0.0016195563
0.099175365
-0.00094823504
0.11433725
-0.0002923079
0.13158688
0.00032717941
0.1511676
0.00088907395
0.17335774
0.0013749282
0.1984822
0.001770998
0.2269224
0.002069753
0.25912491
0.002268931
0.29559969
0.0023709356
0.33690913
0.0023703211
0.38365438
0.0022791459
0.43636077
0.0020940663
0.49541561
0.0017602876
0.56083055
0.0011573846
0.63119586
0.00035559226
0.70571699
-0.00017050542
0.7809034
0.85406853
-0.0082314402
0.013604584
0.0084644874
-0.0079600135
0.015970189
-0.0076514743
0.018719561
-0.0073072037
0.021908438
-0.0069282552
0.025602134
-0.0065151008
0.029876742
-0.0060675455
0.034820391
-0.0055847581
0.040534716
-0.005065652
0.04713525
-0.0045093964
0.054751388
-0.0039159923
0.063527518
-0.003287295
0.073622853
-0.0026281454
0.085210819
-0.0019473001
0.098479008
-0.0012581728
0.11363067
-0.00057854913
0.13088765
7.0786459e-05
0.15049632
0.00066801751
0.17273606
0.0011931131
0.1979301
0.0016300772
0.22645598
0.0019688528
0.25875466
0.0022049649
0.29533092
0.0023387315
0.33674307
0.0023638972
0.38359996
0.0022925723
0.43640977
0.0021233525
0.4955743
0.0018011205
0.56116042
0.0011985755
0.63182874
0.00038617548
0.70659258
-0.00015759948
0.78156455
0.85450004
-0.0084155729
0.013388411
0.008628348
-0.0081649457
0.015715693
-0.0078769801
0.018427194
-0.0075525064
0.021578966
-0.0071921696
0.025236126
-0.0067961261
0.029474272
-0.0063639255
0.034380914
-0.005894521
0.040057079
-0.005386612
0.046618037
-0.0048391652
0.054193433
-0.0042519358
0.06292843
-0.0036263481
0.07298389
-0.0029665481
0.084535942
-0.0022804297
0.097775908
-0.0015802905
0.11291143
-0.00088293442
0.13016884
-0.0002087441
0.14979812
0.00042006178
0.17208052
0.00098207127
0.19733856
0.0014591116
0.22594671
0.0018385172
0.25834078
0.0021133653
0.29502025
0.0022816518
0.3365393
0.0023402705
0.38350903
0.0022942969
0.43643084
0.0021401497
0.49571647
0.0018324535
0.56147599
0.0012357635
0.63245759
0.00042247842
0.7074764
-0.00013548348
0.78227449
0.85497849
-0.0084655316
0.013202041
0.0086482111
-0.0082457724
0.01549173
-0.0079886286
0.018165265
-0.0076942948
0.021279192
-0.0073629968
0.02489865
-0.006994616
0.029098883
-0.0065884863
0.033966843
-0.0061433374
0.03960294
-0.0056575692
0.046122101
-0.0051297642
0.053654139
-0.0045592152
0.062344908
-0.0039467507
0.07235679
-0.0032957206
0.083868411
-0.0026130247
0.097074627
-0.001909843
0.11218734
-0.0012019442
0.12943747
-0.00050912116
0.14907903
0.00014627315
0.17139587
0.00074167354
0.19671084
0.0012568936
0.22539619
0.0016766451
0.25788322
0.0019914301
0.2946661
0.0021969511
0.33629467
0.0022940952
0.3833761
0.002278831
0.43641819
0.0021424651
0.49583898
0.0018520606
0.56177439
0.0012670757
0.63307682
0.00046131688
0.70836186
-0.00010596462
0.78303743
0.85552021
-0.0084310796
0.013046593
0.0085825237
-0.0082437724
0.015299862
-0.0080195638
0.017935864
-0.0077581211
0.021011842
-0.007459367
0.024593182
-0.0071230393
0.028754932
-0.0067483691
0.033583525
-0.0063339142
0.039178688
-0.0058777303
0.045654826
-0.0053778558
0.053141721
-0.0048328758
0.061785756
-0.0042427407
0.071750656
-0.0036097385
0.083217365
-0.0029395261
0.096384083
-0.0022419883
0.11146692
-0.0015316608
0.12870146
-0.00082748725
0.14834611
-0.00015167583
0.17068803
0.00047236732
0.19605138
0.0010226866
0.22480716
0.0014814592
0.25738293
0.0018365377
0.29426769
0.0020814053
0.33600659
0.0022203199
0.38319751
0.002240314
0.43636689
0.002126078
0.49593695
0.0018561956
0.56205216
0.0012900405
0.63367976
0.00049991629
0.7092433
-7.4486556e-05
0.78385405
0.85598651
-0.0083509846
0.012920783
0.008472465
-0.0081947046
0.015138651
-0.0080020255
0.017737568
-0.0077722416
0.020775665
-0.0075051503
0.024318818
-0.0072005861
0.028442102
-0.0068579745
0.033231526
-0.0064760023
0.038786065
-0.0060526068
0.045219359
-0.0055853606
0.052660808
-0.0050720448
0.061256982
-0.0045114819
0.071172626
-0.0039045917
0.082590758
-0.0032554791
0.095712742
-0.0025723196
0.11075874
-0.0018681115
0.12796914
-0.0011606458
0.14760717
-0.00047161026
0.16996391
0.00017516191
0.19536577
0.00075627317
0.22418353
0.0012515696
0.25684193
0.0016462054
0.29382523
0.0019313953
0.33567352
0.0021139608
0.3829708
0.0021706033
0.43627495
0.0020822172
0.49600617
0.0018398182
0.56230201
0.0013017016
0.63425794
0.00053606893
0.71011501
-4.5870635e-05
0.78471703
0.85690924
-0.0081931473
0.012828671
0.0082805751
-0.0080726869
0.015012857
-0.0079167948
0.017575604
-0.0077240167
0.020575973
-0.0074936621
0.024080596
-0.0072254156
0.028164906
-0.0069188457
0.032914784
-0.0065729345
0.038428599
-0.0061858486
0.044819161
-0.0057551133
0.052215207
-0.0052780746
0.060763107
-0.004752662
0.070628166
-0.0041784353
0.081995008
-0.0035578254
0.095067843
-0.002897167
0.11007072
-0.0022075845
0.12724879
-0.0015052887
0.14687038
-0.0008109832
0.16923111
-0.00014842923
0.19466055
0.00045797359
0.22353035
0.00098604948
0.25626344
0.0014182249
0.29334013
0.0017426623
0.33529583
0.0019585302
0.3827055
0.0020453099
0.43614794
0.0019977187
0.49603103
0.0017978834
0.56250877
0.0012987213
0.63480144
0.00056824716
0.71096955
-1.4256177e-05
0.78560542
0.85675608
-0.0080089944
0.01276821
0.0080643877
-0.0079229905
0.014921086
-0.0078030465
0.017449094
-0.0076468276
0.02041228
-0.0074529637
0.023878225
-0.0072208095
0.027923071
-0.0069500007
0.032632963
-0.0066399007
0.03810598
-0.0062891528
0.04445419
-0.0058955854
0.051805494
-0.0054564606
0.060305671
-0.0049690836
0.070120045
-0.0044318324
0.081434284
-0.0038454252
0.094454911
-0.0032142165
0.10940958
-0.0025471378
0.12654802
-0.0018583757
0.1461438
-0.0011671527
0.16849762
-0.00049653299
0.193943
0.00012864206
0.22285361
0.00068453507
0.25565181
0.0011510031
0.29281492
0.0015129213
0.33487448
0.0017626309
0.38240005
0.0018766509
0.43598779
0.0018713633
0.49600938
0.00172577
0.56266063
0.001277558
0.63529969
0.00059444541
0.71179717
-2.3427872e-05
0.78651354
0.85749061
-0.0078079728
0.012737642
0.0078330517
-0.0077550031
0.014861872
-0.0076700848
0.017357069
-0.0075500205
0.020284129
-0.0073926365
0.023711638
-0.0071967209
0.027716683
-0.0069617176
0.032386043
-0.0066872088
0.037817914
-0.0063723479
0.044123914
-0.0060155175
0.051431145
-0.0056143065
0.059884568
-0.0051658731
0.069649043
-0.0046678145
0.08091065
-0.0041193841
0.093877536
-0.0035229005
0.10878039
-0.0028849937
0.12587324
-0.0022174805
0.14543482
-0.0015375464
0.16777125
-0.00086696812
0.19322075
-0.00023038936
0.2221601
0.00034727995
0.25501239
0.00084370559
0.2922531
0.0012407423
0.33441087
0.0015257724
0.38205187
0.0016831791
0.4357772
0.0017230826
0.49593782
0.001620128
0.56276904
0.0012346989
0.63574212
0.0006142091
0.71258544
-2.2136517e-05
0.78743675
0.85871749
-0.0075958313
0.012734976
0.0075925322
-0.0075747658
0.014834025
-0.0075243082
0.017298899
-0.007440405
0.020191454
-0.0073199545
0.023581211
-0.0071609362
0.027546314
-0.0069622976
0.032174491
-0.006723569
0.037564495
-0.0064442884
0.043827922
-0.0061234875
0.05109134
-0.0057593932
0.059498873
-0.0053494848
0.0692146
-0.004891095
0.080424417
-0.0043824754
0.093337354
-0.0038241854
0.10818638
-0.0032205843
0.12522927
-0.0025809332
0.14474969
-0.0019199526
0.16705922
-0.0012575323
0.19250139
-0.00061741619
0.22145705
-2.4645862e-05
0.25435121
0.00049621969
0.29165914
0.00092523835
0.33390701
0.001246059
0.3816592
0.0014474418
0.43551409
0.0015303364
0.49581772
0.0014748486
0.56282905
0.0011670025
0.63611432
0.00062741898
0.71331915
-8.1039947e-06
0.78837568
0.86014033
-0.0073867957
0.01275813
0.0073571528
-0.0073953863
0.014835238
-0.0073780399
0.017273167
-0.0073294586
0.020133341
-0.0072455984
0.023486514
-0.0071235002
0.027411894
-0.0069613687
0.031998346
-0.0067583756
0.037345562
-0.0065141931
0.043565608
-0.0062284193
0.050784942
-0.0059000623
0.05914706
-0.0055272867
0.068815158
-0.0051076651
0.079974497
-0.0046390006
0.092834294
-0.0041205991
0.10762898
-0.0035547339
0.12461926
-0.0029480997
0.1440932
-0.0023127424
0.16636777
-0.0016661745
0.19179204
-0.0010305438
0.22075177
-0.00043058663
0.25367504
0.0001090169
0.29103787
0.00056604385
0.33336554
0.00092209741
0.3812211
0.001167929
0.43519625
0.0013005036
0.49564126
0.0012983243
0.56283442
0.0010711219
0.63641379
0.0006314575
0.71398295
2.5972963e-05
0.78932312
0.86100761
-0.0071752902
0.012807032
0.0071193115
-0.007212812
0.014864722
-0.0072273945
0.017278612
-0.0072142022
0.020109767
-0.0071676789
0.023428196
-0.0070837986
0.02731461
-0.0069597664
0.031859079
-0.0067940324
0.037162507
-0.0065860136
0.043337892
-0.0063355871
0.050512113
-0.006042473
0.058828463
-0.0057057173
0.068449417
-0.0053235879
0.079559405
-0.0048940181
0.092367259
-0.0044156803
0.10710809
-0.0038893292
0.12404465
-0.003319343
0.14346858
-0.002715067
0.16570183
-0.0020912956
0.19109903
-0.0014679031
0.22005122
-0.00086830196
0.25299053
-0.00031696149
0.29039493
0.0001632339
0.33278966
0.00055323718
0.38073706
0.00084464919
0.43482026
0.0010145722
0.49541123
0.0010660231
0.56278271
0.00093972704
0.63662829
0.00060292538
0.71457668
0.00013329567
0.79016734
0.86114179
-0.0069743433
0.012879062
0.0068945811
-0.0070395449
0.014921149
-0.0070845607
0.017313666
-0.0071045308
0.020118419
-0.0070945994
0.023405408
-0.0070490116
0.027254421
-0.0069637986
0.03175728
-0.0068363742
0.037016236
-0.0066654953
0.043145591
-0.0064509175
0.050273179
-0.0061927987
0.058542642
-0.0058910422
0.068116145
-0.0055448755
0.079177381
-0.0051528955
0.091934482
-0.0047137471
0.10662254
-0.0042273073
0.12350547
-0.0036961407
0.14287757
-0.0031270272
0.16506497
-0.0025319091
0.19042751
-0.0019279381
0.21936168
-0.0013364524
0.25230427
-0.00078071719
0.28973612
-0.00028282235
0.33218298
0.00013882448
0.38020726
0.00047914095
0.43438128
0.00069953209
0.49512056
0.00080517191
0.56267286
0.0007657347
0.63676327
0.00049997102
0.71512781
-5.3128936e-05
0.79116987
0.86403825
-0.0068051132
0.012969548
0.0067062045
-0.0068937669
0.015000243
-0.0069664557
0.017375507
-0.0070168977
0.020156547
-0.0070398744
0.023414399
-0.0070304583
0.027229121
-0.0069828938
0.031691675
-0.0068933737
0.036906224
-0.0067596519
0.042988584
-0.0065809396
0.050067997
-0.006357437
0.058289036
-0.0060896715
0.067814127
-0.0057778578
0.078826576
-0.0054215771
0.091533801
-0.005019985
0.10617038
-0.004572676
0.12300058
-0.0040810274
0.14232039
-0.0035496886
0.16445917
-0.0029878354
0.18978132
-0.0024096789
0.21868852
-0.0018338806
0.25162249
-0.001281658
0.28906763
-0.00077354989
0.33155095
-0.00032422657
0.37963303
6.8843714e-05
0.43387349
0.00034208688
0.49476503
0.00049427382
0.56251222
0.00054077729
0.63681878
0.00035448338
0.71563276
-0.00013223635
0.79222261
0.86635239
-0.0066886617
0.013073526
0.0065755679
-0.0067949731
0.015096204
-0.0068895386
0.017458319
-0.0069663472
0.020220014
-0.0070185584
0.023451462
-0.0070406911
0.027234046
-0.0070276115
0.031659046
-0.0069739003
0.0368303
-0.0068761291
0.042865568
-0.00673258
0.049895744
-0.0065430153
0.058066818
-0.0063081713
0.067542113
-0.006029052
0.078505115
-0.0057063158
0.091162797
-0.0053400496
0.10574905
-0.0049301674
0.12252786
-0.0044775085
0.141796
-0.0039851912
0.16388502
-0.0034599374
0.18916288
-0.0029130139
0.21803593
-0.0023601369
0.25095078
-0.0018198931
0.2883958
-0.0013105509
0.33089993
-0.00084506819
0.3790228
-0.0004249177
0.43331936
-8.6811644e-05
0.49432954
0.00013622603
0.56227373
0.00024693156
0.6368192
0.00020827004
0.71603535
-0.00019345901
0.79332949
0.86738279
-0.0066385349
0.013186054
0.0065162293
-0.0067571324
0.015203693
-0.0068674777
0.017556044
-0.0069641746
0.02030237
-0.0070409225
0.023511917
-0.0070905199
0.02726513
-0.0071073788
0.031654861
-0.0070861031
0.036785094
-0.0070219595
0.042774203
-0.0069119815
0.049754787
-0.0067551627
0.057874722
-0.0065520668
0.067298817
-0.0063041383
0.078211334
-0.006012959
0.090819262
-0.0056797114
0.10535596
-0.0053051268
0.12208478
-0.0048901
0.1413025
-0.0044368404
0.16334182
-0.0039502316
0.18857323
-0.0034389047
0.21740688
-0.0029156084
0.2502939
-0.002396066
0.28772681
-0.0018962659
0.33023745
-0.0014287103
0.37838711
-0.0010022279
0.43273593
-0.00062809111
0.49383742
-0.00033274194
0.56194397
-0.00013884789
0.63677231
4.8626556e-05
0.71621982
-0.0002952521
0.79450451
0.86936296
-0.0066569922
0.013304208
0.0065284515
-0.0067845221
0.015319416
-0.0069069816
0.017665079
-0.0070193716
0.020399494
-0.0071158305
0.023591011
-0.0071896933
0.027319236
-0.0072337547
0.031676443
-0.0072419726
0.036767726
-0.0072084142
0.042711498
-0.0071294801
0.04964263
-0.007003338
0.057710684
-0.0068300516
0.067082264
-0.0066111952
0.077943024
-0.0063490975
0.09050056
-0.006046061
0.10498802
-0.0057039908
0.12166817
-0.0053243837
0.14083711
-0.0049091592
0.16282771
-0.0044620039
0.18801201
-0.0039894413
0.21680291
-0.0035014415
0.24965535
-0.0030108334
0.28706597
-0.0025310161
0.32957028
-0.0020727052
0.37773314
-0.0016434793
0.43212257
-0.0012370503
0.49329253
-0.00085188844
0.56152348
-0.00051724862
0.63658757
-0.00021099331
0.71634276
-0.00038583273
0.7956248
0.8716928
-0.0067052291
0.013426605
0.0065718915
-0.0068398883
0.015441629
-0.0069722837
0.017783315
-0.0070978637
0.02050896
-0.0072111118
0.023685913
-0.0073056751
0.027392903
-0.0073743596
0.031721309
-0.007410924
0.036777126
-0.0074095764
0.042679158
-0.0073643093
0.049561971
-0.0072719548
0.057577871
-0.0071316057
0.066895608
-0.0069444021
0.077702739
-0.0067129342
0.090208134
-0.0064404409
0.10464537
-0.0061300949
0.12127686
-0.0057846025
0.14039793
-0.0054064636
0.16234085
-0.0049989865
0.18747813
-0.0045673504
0.21622432
-0.0041193097
0.24903722
-0.0036648643
0.28641717
-0.003214271
0.32890366
-0.002774631
0.37706606
-0.0023475299
0.43148031
-0.0019146826
0.49269874
-0.0014577287
0.56102902
-0.0010026129
0.6363081
-0.00054534226
0.71640177
-0.00045943003
0.79661935
0.87388441
-0.0067559138
0.013554286
0.0066167651
-0.0068986715
0.015571335
-0.0070419583
0.017911745
-0.0071817329
0.020631814
-0.0073129509
0.023797851
-0.0074296271
0.027487597
-0.0075250397
0.031791639
-0.0075912266
0.036814667
-0.0076223955
0.04267758
-0.0076128029
0.049514903
-0.0075572339
0.057479357
-0.0074533645
0.066742442
-0.0073013517
0.077494021
-0.0071035029
0.089944893
-0.0068635563
0.10432979
-0.0065857668
0.1209113
-0.0062742135
0.13998412
-0.0059326728
0.16187974
-0.0055649799
0.18697018
-0.0051758076
0.21567051
-0.0047713705
0.24844031
-0.0043590774
0.28578279
-0.0039455881
0.32824126
-0.0035329202
0.37638995
-0.0031143235
0.43081219
-0.0026619955
0.49206083
-0.0021442977
0.56046672
-0.0015734382
0.63593356
-0.00092747904
0.71637522
-0.00055203938
0.79748627
0.87580975
-0.0068012951
0.013688229
0.0066553557
-0.0069530689
0.015709451
-0.0071080819
0.018051204
-0.0072628
0.020768809
-0.0074126547
0.023927496
-0.0075520205
0.027603901
-0.0076743185
0.031887598
-0.0077723079
0.036882539
-0.0078380136
0.04270879
-0.0078660329
0.049503351
-0.0078506155
0.057418485
-0.0077876432
0.066627143
-0.0076757371
0.077321707
-0.007516332
0.089715494
-0.0073130151
0.10404505
-0.0070707029
0.12057386
-0.0067948003
0.13959657
-0.0064906398
0.1614439
-0.0061633049
0.18648696
-0.0058178987
0.21514035
-0.0054598669
0.24786423
-0.0050944976
0.28516373
-0.0047245706
0.32758534
-0.0043458099
0.37570786
-0.003941875
0.43012163
-0.0034767012
0.49138396
-0.0029058707
0.55984576
-0.002190118
0.63545256
-0.0013505861
0.71627548
-0.00070205123
0.79827187
0.87706396
-0.0068516743
0.013828119
0.0066992153
-0.0070120708
0.015855525
-0.0071783024
0.018201106
-0.0073473758
0.020919249
-0.0075152815
0.024074121
-0.0076769167
0.027741207
-0.0078261118
0.032008948
-0.0079558044
0.036980325
-0.008057973
0.042774366
-0.0081249826
0.049528399
-0.008151508
0.057396857
-0.0081318341
0.066552078
-0.0080635618
0.07718939
-0.0079469893
0.089524176
-0.0077849194
0.10379533
-0.0075822786
0.12026799
-0.0073454118
0.1392375
-0.0070810636
0.16103415
-0.0067958024
0.18602798
-0.0064959017
0.21463268
-0.0061868187
0.24730796
-0.0058721817
0.28455973
-0.0055507475
0.32693667
-0.0052110386
0.37502152
-0.0048260706
0.42941095
-0.0043505191
0.49066985
-0.0037324471
0.55917207
-0.0028956096
0.63489837
-0.001854141
0.7161206
-0.00090480814
0.79902203
0.87873556
-0.0069586928
0.013971932
0.0068017793
-0.0071253161
0.016007222
-0.0073000049
0.018358779
-0.0074802847
0.021080118
-0.0076627034
0.024234379
-0.0078427162
0.027895892
-0.0080146463
0.032151892
-0.0081717631
0.037104211
-0.0083065413
0.042870956
-0.0084102855
0.049588056
-0.0084766025
0.057412037
-0.0085006037
0.066516526
-0.008477102
0.07709634
-0.0084047938
0.089370642
-0.0082856841
0.10358081
-0.0081246513
0.11999406
-0.0079287244
0.13890703
-0.0077059862
0.16065004
-0.0074645895
0.18559219
-0.007212075
0.21414592
-0.0069542719
0.2467698
-0.0066933588
0.28396949
-0.0064239187
0.32629485
-0.0061266848
0.37433152
-0.0057629312
0.42868136
-0.0052745429
0.48991697
-0.0045960626
0.55843412
-0.0036640598
0.63428513
-0.0024353881
0.7159292
-0.0010516232
0.79979918
0.88003137
-0.007143599
0.014116597
0.0069851691
-0.0073130816
0.016160997
-0.0074923898
0.01852015
-0.0076795403
0.021246766
-0.0078716375
0.024403016
-0.0080647361
0.028062111
-0.0082537595
0.032310066
-0.0084325176
0.037247496
-0.0085938766
0.042991426
-0.0087301474
0.04967706
-0.0088321269
0.057459176
-0.0088946091
0.066515117
-0.0089132767
0.077040228
-0.0088851481
0.089254521
-0.0088108059
0.10340227
-0.0086943935
0.11975338
-0.0085428393
0.13860624
-0.0083649325
0.16029185
-0.0081702683
0.18517891
-0.0079677718
0.21367857
-0.0077638018
0.24624773
-0.0075592787
0.28339106
-0.0073446067
0.32565861
-0.0070925905
0.37363792
-0.0067524679
0.42793489
-0.0062518661
0.48912892
-0.0055109702
0.55763718
-0.0044565128
0.63359262
-0.0030415984
0.71566853
-0.0013099489
0.80050618
0.8814689
-0.0073850312
0.014261043
0.0072260233
-0.007556182
0.016315507
-0.0077386237
0.018683556
-0.0079308198
0.021417163
-0.0081303953
0.024577592
-0.0083339866
0.028236985
-0.0085371312
0.032480157
-0.0087342376
0.037406463
-0.0089186891
0.043131743
-0.0090831349
0.049790257
-0.0092200945
0.057536399
-0.009320853
0.066546031
-0.0093808444
0.07701831
-0.0093960907
0.089173194
-0.0093667731
0.10325798
-0.0092963481
0.11954477
-0.0091913666
0.1383342
-0.0090610103
0.15995854
-0.0089158111
0.18478656
-0.0087657785
0.21322827
-0.0086177767
0.24573885
-0.0084715698
0.2828214