/*--------------------------------*- C++ -*----------------------------------*\
| =========                 |                                                 |
| \\      /  F ield         | OpenFOAM: The Open Source CFD Toolbox           |
|  \\    /   O peration     | Version:  2406                                  |
|   \\  /    A nd           | Website:  www.openfoam.com                      |
|    \\/     M anipulation  |                                                 |
\*---------------------------------------------------------------------------*/
FoamFile
{
    version     2.0;
    format      ascii;
    arch        "LSB;label=32;scalar=64";
    class       volScalarField;
    location    "0.025";
    object      alphat;
}
// * * * * * * * * * * * * * * * * * * * * * * * * * * * * * * * * * * * * * //

dimensions      [1 -1 -1 0 0 0 0];

internalField   nonuniform List<scalar> 
92813
(
0.039384267
0.042522758
0.045781019
0.049082162
0.052393574
0.05569439
0.058966934
0.062197047
0.06537296
0.068484571
0.071522807
0.07447902
0.077344353
0.080109368
0.082763347
0.085295563
0.087697433
0.089952514
0.092045705
0.093962744
0.095688877
0.09720959
0.098510039
0.099574811
0.10038795
0.10093307
0.10119346
0.10115218
0.10079215
0.10009644
0.099048492
0.097632444
0.095833604
0.093638967
0.09103788
0.088022792
0.084590556
0.080742938
0.076487823
0.071840867
0.06683395
0.06150755
0.055913421
0.050124306
0.044230219
0.038337092
0.032618123
0.027274647
0.022561774
0.018738147
0.015959104
0.014118749
0.012929757
0.012117314
0.011503054
0.010994769
0.010549907
0.010149336
0.0097833778
0.0094467516
0.0091367215
0.0088503155
0.0085853359
0.0083403069
0.0081136762
0.0079030056
0.0077076477
0.0075268197
0.0073579567
0.0072010982
0.0070553989
0.0069187276
0.0067912636
0.0066725697
0.0065606112
0.0064559783
0.0063579954
0.0062654567
0.0061784046
0.0060974701
0.0060221318
0.0059517826
0.005886205
0.0058248828
0.0057683204
0.0057152959
0.005665884
0.0056197712
0.005576
0.005535007
0.0054963668
0.0054598717
0.005425775
0.0053934331
0.0053630979
0.0053347118
0.0053078055
0.0052826732
0.0052590251
0.0052365457
0.0052154247
0.0051954244
0.0051765409
0.00515872
0.0051420614
0.0051265501
0.0051118849
0.0050981107
0.0050849183
0.005072223
0.0050602887
0.0050493339
0.0050392332
0.0050299025
0.0050212849
0.0050132964
0.0050059063
0.0049991349
0.0049930295
0.0049875066
0.004982644
0.0049783971
0.0049748273
0.0049718373
0.0049697746
0.0049678576
0.0049676962
0.044214016
0.04738703
0.050556241
0.053725258
0.056887708
0.060031815
0.063144695
0.066214603
0.069230951
0.072183969
0.075064401
0.077863151
0.080570843
0.083177465
0.085672274
0.088044153
0.090281525
0.092370051
0.094295084
0.09604181
0.097595191
0.09894029
0.10006243
0.10094607
0.10157521
0.10193346
0.10200417
0.10177049
0.10121557
0.10032277
0.099075952
0.09745983
0.095460452
0.093065758
0.09026628
0.087055957
0.083433349
0.079402849
0.074974727
0.070165723
0.065012784
0.059562181
0.053868485
0.048010649
0.04208745
0.036224964
0.030599451
0.025435
0.021003497
0.017552465
0.015149963
0.013601494
0.012595313
0.011882397
0.011321323
0.010843262
0.010417645
0.010031309
0.0096769145
0.0093502109
0.0090491226
0.0087707134
0.0085129401
0.0082745272
0.0080539158
0.0078485555
0.0076580652
0.0074817028
0.0073166889
0.0071633681
0.0070208718
0.0068869489
0.0067622065
0.0066459398
0.0065361321
0.0064335442
0.0063374049
0.0062465583
0.0061611607
0.0060817267
0.006007868
0.0059389143
0.0058745013
0.0058142908
0.0057587603
0.0057066455
0.0056580305
0.0056126018
0.0055694274
0.0055289793
0.0054908189
0.0054548111
0.0054211408
0.0053891657
0.0053592046
0.0053311459
0.0053045366
0.0052796825
0.0052562744
0.005234013
0.0052130893
0.0051932675
0.00517455
0.0051568763
0.0051403546
0.0051249682
0.0051104187
0.0050967664
0.0050836829
0.0050710796
0.0050592195
0.0050483259
0.0050382899
0.0050290125
0.0050204475
0.0050125139
0.0050051709
0.0049984422
0.0049923739
0.004986886
0.0049820514
0.0049778307
0.0049742805
0.0049713076
0.0049692562
0.0049673503
0.0049671942
0.049195144
0.052280783
0.055336912
0.058372951
0.061389591
0.06437962
0.067333572
0.070241988
0.0730956
0.075885277
0.078601938
0.081236394
0.083779101
0.086219874
0.0885478
0.090751152
0.092817345
0.094732514
0.096482155
0.0980514
0.099425206
0.10058858
0.10152633
0.10222286
0.1026622
0.10282803
0.10270377
0.10227277
0.10151842
0.10042443
0.098975171
0.097156001
0.094953813
0.092357619
0.089359299
0.08595448
0.08214374
0.077934147
0.073337822
0.068375927
0.063090509
0.057531505
0.051759519
0.045861505
0.039946465
0.034156731
0.028682925
0.023768733
0.019688507
0.016638894
0.014585057
0.01326689
0.01238509
0.011733963
0.01120488
0.010745646
0.010332944
0.0099567376
0.0096107643
0.0092913055
0.0089966812
0.0087239407
0.0084711778
0.0082372662
0.0080206343
0.0078187022
0.0076312907
0.0074576673
0.007294965
0.0071437429
0.0070031017
0.0068707557
0.0067474151
0.0066324082
0.0065236808
0.0064221009
0.0063269042
0.006236905
0.0061523056
0.0060735692
0.0060004687
0.005932254
0.005868445
0.0058087988
0.0057537946
0.0057021363
0.0056538982
0.0056088046
0.005565915
0.0055257265
0.0054877965
0.0054520291
0.0054185666
0.0053867653
0.00535699
0.0053290922
0.0053026273
0.0052779082
0.0052546183
0.0052324638
0.0052116361
0.0051919023
0.0051732661
0.0051556607
0.0051392001
0.0051238736
0.0051093841
0.0050958027
0.0050827866
0.0050702356
0.005058409
0.0050475387
0.0050375343
0.0050282818
0.0050197437
0.0050118421
0.0050045256
0.0049978211
0.0049917736
0.0049863064
0.0049814871
0.0049772817
0.0049737429
0.0049707797
0.0049687361
0.004966834
0.0049666821
0.054307555
0.057249885
0.060162071
0.063048984
0.065910881
0.068741437
0.071532389
0.074275365
0.076961887
0.079583278
0.082130635
0.084594742
0.086965921
0.089233837
0.091387379
0.093414566
0.095302519
0.097037419
0.098604767
0.099989685
0.10117704
0.10215162
0.10289806
0.10340074
0.10364368
0.10361068
0.1032853
0.10265109
0.10169178
0.10039153
0.098735278
0.096709159
0.094301037
0.091501152
0.088302914
0.084703849
0.080706847
0.076321956
0.0715627
0.06645715
0.06105252
0.055400933
0.049571561
0.043660014
0.037786299
0.032108107
0.026832726
0.022216893
0.018517749
0.015856612
0.014104734
0.012971045
0.012186354
0.011584512
0.011082336
0.010639912
0.010239221
0.0098727183
0.0095349486
0.0092226472
0.0089345415
0.0086675883
0.0084200123
0.0081908511
0.0079784913
0.0077802787
0.0075962737
0.0074257502
0.0072656883
0.0071169171
0.0069784915
0.0068480461
0.0067265194
0.0066131748
0.0065058867
0.006405689
0.0063117856
0.0062229665
0.0061395597
0.0060618584
0.0059897974
0.0059226252
0.0058596748
0.0058008439
0.0057465901
0.0056955823
0.0056479029
0.0056033003
0.0055608361
0.0055210493
0.0054834717
0.0054480601
0.0054149156
0.005383384
0.00535389
0.0053262358
0.0052999906
0.0052754785
0.0052523666
0.0052303743
0.0052096953
0.0051900961
0.0051715843
0.0051540877
0.0051377258
0.0051224928
0.0051080927
0.0050946092
0.0050816855
0.0050692113
0.0050574419
0.0050466146
0.0050366597
0.0050274477
0.0050189497
0.0050110928
0.0050038141
0.0049971442
0.0049911266
0.0049856883
0.0049808911
0.0049767068
0.0049731847
0.0049702351
0.0049682012
0.0049663067
0.0049661598
0.059514279
0.062287164
0.065034258
0.067756571
0.070452675
0.073115673
0.075737259
0.078309233
0.080823317
0.083270958
0.085643262
0.087930921
0.090124099
0.092212298
0.094184245
0.09602783
0.097730081
0.0992772
0.10065473
0.10184782
0.10284127
0.10361974
0.10416777
0.10446966
0.1045095
0.10427114
0.10373834
0.10289494
0.10172505
0.10021336
0.0983455
0.096108482
0.093491292
0.090485564
0.087086426
0.083293508
0.079112281
0.074555963
0.069640571
0.06440099
0.058889507
0.053161667
0.047295904
0.041396821
0.035596358
0.030067852
0.025035041
0.020759593
0.017461471
0.015172211
0.01368592
0.012706205
0.012001447
0.011440962
0.010962413
0.010535654
0.010146676
0.0097899334
0.0094605227
0.0091555632
0.0088741771
0.0086131648
0.0083708946
0.0081465766
0.007938537
0.0077440537
0.0075634491
0.0073959905
0.0072385163
0.0070921458
0.0069558749
0.0068272718
0.0067074768
0.0065957048
0.0064897854
0.0063908987
0.0062982226
0.0062105054
0.0061282321
0.0060514887
0.0059803508
0.0059141371
0.0058519689
0.005793875
0.0057402864
0.0056898414
0.0056426389
0.00559846
0.0055563601
0.0055169289
0.0054796622
0.0054445551
0.0054116881
0.0053803909
0.0053511418
0.0053236974
0.0052976397
0.0052733041
0.0052503434
0.005228489
0.0052079377
0.0051884542
0.0051700477
0.005152643
0.0051363622
0.0051212077
0.0051068851
0.0050934874
0.0050806475
0.0050682429
0.0050565233
0.0050457308
0.0050358183
0.0050266411
0.0050181772
0.0050103599
0.0050031145
0.0049964753
0.0049904838
0.0049850712
0.004980293
0.0049761273
0.0049726204
0.0049696828
0.0049676577
0.004965769
0.0049656267
0.064771059
0.067357098
0.069927963
0.072475532
0.074996935
0.077484644
0.07993005
0.082324774
0.084660417
0.086928315
0.089119442
0.091224327
0.093232956
0.095134668
0.09691806
0.098570936
0.1000803
0.10143238
0.10261281
0.10360678
0.10439908
0.10497434
0.10531702
0.1054114
0.10524159
0.10479158
0.10404537
0.10298711
0.10160139
0.099873512
0.097789894
0.095338571
0.092509791
0.089296757
0.085696518
0.08171103
0.077348632
0.072625866
0.067562355
0.062199687
0.056595004
0.050808838
0.044929334
0.039070612
0.033377871
0.028040954
0.023298223
0.019404296
0.016519408
0.014578172
0.013320672
0.012467188
0.011827381
0.011301361
0.01084346
0.010431203
0.010053464
0.009706289
0.0093851261
0.0090874375
0.0088127485
0.0085576348
0.0083206262
0.008101123
0.0078973717
0.0077065748
0.0075293469
0.0073649395
0.0072100337
0.007066071
0.0069319728
0.0068052301
0.0066872154
0.0065770749
0.0064725741
0.006375058
0.0062836742
0.0061971128
0.0061160733
0.0060403641
0.0059701755
0.0059049787
0.0058436501
0.0057863453
0.0057334609
0.005683607
0.0056369125
0.0055931858
0.0055514767
0.0055124384
0.0054755142
0.0054407325
0.0054081703
0.0053771332
0.0053481515
0.0053209371
0.0052950849
0.0052709425
0.0052481471
0.005226444
0.0052060347
0.0051866791
0.0051683885
0.0051510867
0.0051348962
0.0051198289
0.0051055924
0.005092287
0.0050795388
0.0050672127
0.0050555508
0.0050447989
0.0050349339
0.0050257963
0.0050173705
0.0050095961
0.0050023873
0.0049957821
0.0049898194
0.004984435
0.0049796779
0.0049755322
0.0049720424
0.004969118
0.0049671023
0.0049652204
0.0049650829
0.070038251
0.072422887
0.074812292
0.077179002
0.079519234
0.081825203
0.084088162
0.08629953
0.088450689
0.090532769
0.09253654
0.094452334
0.096269953
0.09797858
0.099566701
0.10102206
0.10233167
0.10348181
0.10445819
0.10524606
0.10583029
0.10619547
0.10632607
0.1062064
0.10582063
0.10515294
0.1041876
0.10290916
0.10130276
0.0993544
0.097051427
0.094383021
0.09134086
0.087919909
0.084119357
0.079943747
0.075404623
0.070521742
0.065319624
0.059846898
0.054165084
0.048341119
0.042473498
0.036686948
0.031141519
0.026044195
0.021642995
0.018167123
0.015694222
0.01406702
0.013000702
0.012248887
0.011661803
0.011164872
0.010725315
0.010326744
0.0099599697
0.0096223055
0.0093093912
0.0090190098
0.0087510967
0.0085019257
0.0082702129
0.0080555647
0.0078561244
0.0076690168
0.0074951796
0.0073338319
0.0071814928
0.0070399541
0.0069080446
0.006783178
0.0066669648
0.0065584754
0.0064554152
0.006359297
0.0062692333
0.0061838407
0.0061040765
0.0060294295
0.0059601588
0.005895972
0.0058354885
0.0057789683
0.0057267725
0.0056774861
0.0056312816
0.0055879932
0.0055466626
0.0055080174
0.005471436
0.0054369668
0.0054047051
0.0053739272
0.005345207
0.0053182175
0.0052925648
0.0052686092
0.0052459738
0.0052244175
0.0052041472
0.0051849173
0.0051667382
0.0051495368
0.0051334327
0.0051184494
0.005104298
0.0050910821
0.0050784253
0.005066179
0.0050545753
0.0050438629
0.0050340444
0.0050249459
0.0050165576
0.0050088251
0.0050016522
0.0049950806
0.0049891464
0.0049837897
0.004979053
0.0049749269
0.0049714543
0.0049685428
0.0049665364
0.0049646609
0.0049645281
0.075270915
0.077453273
0.079656639
0.081837694
0.083991655
0.08611056
0.088185609
0.090208046
0.092169036
0.094059486
0.095869955
0.097590578
0.099210982
0.10072021
0.10210666
0.10335803
0.10446135
0.10540298
0.10616869
0.10674384
0.10711337
0.10726191
0.10717399
0.106834
0.10622627
0.10533519
0.10414536
0.10264184
0.10081038
0.098637823
0.096112539
0.093225019
0.089968556
0.086340089
0.082341197
0.077979329
0.073269661
0.068234505
0.062905417
0.057338591
0.051598558
0.045760794
0.039934937
0.034257887
0.028906172
0.024103081
0.020095769
0.017063137
0.014983915
0.013628824
0.012717765
0.012046819
0.01150272
0.011030698
0.010607647
0.010222131
0.0098661138
0.0095378992
0.0092332036
0.0089501293
0.0086890288
0.0084457938
0.0082193616
0.0080095628
0.0078144135
0.0076309606
0.0074604986
0.0073021966
0.0071524058
0.0070132962
0.0068835853
0.0067606069
0.0066462248
0.0065394184
0.006437829
0.0063431456
0.0062544405
0.0061702423
0.0060918063
0.0060182723
0.0059499112
0.0058867428
0.0058271321
0.005771411
0.0057199086
0.0056711874
0.0056254773
0.0055826322
0.005541686
0.0055034506
0.005467227
0.0054330733
0.0054011223
0.0053706162
0.0053421638
0.0053154062
0.0052899588
0.0052661939
0.0052437231
0.0052223181
0.0052021923
0.0051830932
0.0051650284
0.005147932
0.0051319173
0.0051170202
0.0051029584
0.0050898338
0.0050772719
0.0050651109
0.00505357
0.0050428999
0.0050331296
0.0050240728
0.0050157238
0.0050080342
0.0050008987
0.0049943624
0.0049884577
0.0049831298
0.0049784142
0.0049743085
0.004970854
0.0049679559
0.0049659591
0.0049640903
0.0049639621
0.080428113
0.082414204
0.084427786
0.08641942
0.088383079
0.090310576
0.092193058
0.094021637
0.095787292
0.097480739
0.099092353
0.1006121
0.10202945
0.10333334
0.1045121
0.1055534
0.1064443
0.10717122
0.10772002
0.10807621
0.1082248
0.10815053
0.10783805
0.10727189
0.10643658
0.10531683
0.10389767
0.10216471
0.10010445
0.097704659
0.09495492
0.091847194
0.088376591
0.08454226
0.080348444
0.075805867
0.070933889
0.06575649
0.060314976
0.054673229
0.048897232
0.043074206
0.037325569
0.031802311
0.026698548
0.02224966
0.018683554
0.016101199
0.014380624
0.013252115
0.012464208
0.011857203
0.011348516
0.010898227
0.01049025
0.010117327
0.0097719486
0.0094531449
0.0091566487
0.0088808947
0.0086266519
0.0083893486
0.0081681875
0.0079632405
0.0077723677
0.0075925447
0.007425456
0.007270197
0.0071229504
0.0069862869
0.0068587944
0.0067377272
0.0066252099
0.0065201194
0.0064200342
0.006326824
0.0062395148
0.0061565364
0.0060794657
0.0060070921
0.0059396301
0.0058774711
0.0058187515
0.0057638305
0.0057130151
0.0056648473
0.0056196265
0.0055772215
0.0055366591
0.0054988405
0.0054629831
0.0054291421
0.005397505
0.0053672779
0.005339092
0.0053125676
0.0052873256
0.0052637497
0.0052414437
0.0052201905
0.0052002101
0.0051812436
0.0051632919
0.005146302
0.0051303765
0.0051155648
0.0051015947
0.0050885609
0.0050760954
0.0050640236
0.005052548
0.0050419212
0.0050321994
0.0050231851
0.0050148765
0.0050072296
0.0050001319
0.0049936316
0.0049877569
0.0049824578
0.0049777636
0.0049736781
0.0049702421
0.0049673576
0.0049653704
0.0049635083
0.0049633847
0.085473282
0.087266346
0.089089137
0.090889092
0.092659498
0.094392138
0.096078172
0.097708634
0.099274377
0.10076598
0.10217368
0.10348731
0.10469623
0.1057893
0.10675479
0.10758037
0.10825314
0.10875961
0.10908574
0.10921716
0.10913905
0.10883627
0.10829367
0.10749597
0.10642802
0.10507491
0.10342217
0.1014561
0.099164047
0.096534895
0.093559564
0.090231695
0.086548445
0.082511438
0.078127878
0.073412119
0.068387919
0.063082566
0.057546859
0.051851436
0.046066558
0.04029264
0.034663622
0.029346735
0.024553117
0.020519934
0.017429093
0.015281484
0.013871779
0.012925214
0.012233372
0.011676986
0.011197924
0.010766977
0.010372992
0.010012317
0.0096775233
0.0093680873
0.0090797627
0.0088113372
0.0085639809
0.0083325847
0.0081166679
0.0079165583
0.0077299302
0.0075537012
0.0073899773
0.0072377521
0.0070930447
0.0069588425
0.0068335868
0.006714455
0.006603838
0.0065004971
0.0064019505
0.0063102528
0.0062243758
0.0061426461
0.0060669651
0.0059958016
0.0059292404
0.0058680775
0.0058102695
0.0057561478
0.0057060156
0.0056583942
0.0056136627
0.0055716987
0.0055315251
0.0054941323
0.0054586519
0.0054251265
0.0053938097
0.0053638716
0.0053359533
0.0053096661
0.0052846323
0.005261246
0.0052391082
0.0052180096
0.0051981773
0.0051793476
0.0051615095
0.0051446295
0.0051287952
0.0051140691
0.0051001946
0.0050872523
0.0050748855
0.005062908
0.0050515017
0.0050409204
0.005031248
0.0050222779
0.0050140117
0.0050064077
0.0049993486
0.0049928858
0.0049870417
0.0049817719
0.0049770997
0.004973035
0.004969618
0.0049667474
0.0049647701
0.0049629149
0.0049627957
0.090367882
0.091970548
0.093602421
0.095209243
0.096784243
0.098319345
0.09980577
0.10123453
0.10259642
0.10388193
0.10508122
0.10618404
0.10717969
0.10805695
0.1088041
0.10940883
0.10985828
0.11013905
0.11023723
0.11013863
0.10982859
0.10929218
0.10851447
0.1074805
0.10617548
0.104585
0.10269521
0.10049321
0.097967349
0.095107767
0.091906935
0.088360394
0.084467612
0.080232998
0.075667082
0.070788284
0.06562467
0.060208835
0.05460129
0.048878204
0.043117329
0.037433649
0.031974962
0.026926264
0.022511315
0.018949762
0.016346099
0.014595126
0.013442078
0.012637239
0.012019701
0.011503767
0.011049971
0.010636558
0.010255823
0.0099071347
0.0095829101
0.0092827828
0.009002597
0.0087415098
0.0085010538
0.0082755284
0.0080648214
0.0078695263
0.0076871041
0.0075144367
0.007354074
0.0072048754
0.0070627136
0.0069309947
0.0068079998
0.0066908362
0.0065821585
0.006480603
0.0063836334
0.0062934894
0.0062090806
0.0061286331
0.0060543497
0.0059844436
0.0059187963
0.0058586087
0.0058017279
0.0057483966
0.0056989409
0.0056518582
0.0056076148
0.0055660917
0.0055263124
0.0054893503
0.0054542549
0.0054210495
0.0053900578
0.005360417
0.0053327649
0.005306717
0.0052818928
0.0052586956
0.0052367284
0.0052157866
0.0051961038
0.0051774142
0.0051596892
0.0051429219
0.0051271803
0.0051125388
0.0050987635
0.0050859129
0.0050736462
0.005061768
0.0050504342
0.0050399003
0.0050302778
0.0050213532
0.0050131313
0.0050055701
0.0049985503
0.0049921259
0.004986313
0.0049810726
0.004976423
0.0049723795
0.0049689818
0.0049661252
0.004964158
0.0049623098
0.004962195
0.095071054
0.096485769
0.097926645
0.099339588
0.10071783
0.10205348
0.10333785
0.10456202
0.10571677
0.1067926
0.10777961
0.10866754
0.10944564
0.11010271
0.11062702
0.11100632
0.11122781
0.11127822
0.11114378
0.1108105
0.11026395
0.10948943
0.10847232
0.10719807
0.10565235
0.10382134
0.10169196
0.099252244
0.096491717
0.093401956
0.089977207
0.086215168
0.082117923
0.077693029
0.072954816
0.067926366
0.062639175
0.057134098
0.051482372
0.045763571
0.040066565
0.034522398
0.029294583
0.024585143
0.020619003
0.017568937
0.015435852
0.01402593
0.013075618
0.012378773
0.011818696
0.011335718
0.010903931
0.010506656
0.010138786
0.0098018705
0.0094881832
0.0091972767
0.0089251951
0.0086714594
0.0084378908
0.0082181884
0.0080126469
0.0078221277
0.0076438628
0.0074747285
0.0073177244
0.0071715418
0.0070319407
0.0069027312
0.0067820229
0.0066668664
0.0065601677
0.0064604332
0.0063650812
0.0062765314
0.0061936245
0.0061144963
0.0060416012
0.0059729943
0.0059082875
0.0058490513
0.0057931093
0.0057405531
0.0056917667
0.0056452183
0.005601463
0.0055603825
0.0055210062
0.0054844783
0.0054497757
0.0054168984
0.0053862374
0.0053569017
0.0053295146
0.0053037088
0.0052790964
0.0052560886
0.0052342956
0.0052135136
0.0051939817
0.0051754365
0.0051578245
0.0051411733
0.0051255269
0.0051109693
0.0050972974
0.005084539
0.005072374
0.0050606003
0.005049343
0.0050388589
0.0050292871
0.0050204093
0.0050122338
0.0050047156
0.0049977359
0.0049913511
0.00498557
0.0049803593
0.0049757331
0.0049717111
0.0049683329
0.0049654907
0.0049635338
0.0049616928
0.0049615823
0.099538948
0.10076814
0.10201846
0.10323739
0.10441819
0.10555314
0.10663372
0.10765109
0.10859612
0.10945932
0.11023085
0.11090044
0.11145739
0.11189051
0.11218812
0.11233804
0.11232759
0.11214363
0.11177256
0.11120063
0.1104137
0.10939736
0.1081374
0.10661972
0.1048306
0.10275695
0.10038657
0.097708604
0.094713951
0.091395849
0.087750571
0.083778267
0.079483977
0.074878815
0.069981479
0.064820607
0.059429561
0.053861808
0.048199644
0.042523568
0.036938893
0.031593617
0.026668148
0.022375954
0.018921086
0.016394538
0.01468661
0.013553447
0.012757677
0.012142172
0.011626792
0.011171502
0.010759253
0.010377046
0.010022024
0.0096966775
0.0093933897
0.0091115917
0.0088475947
0.008601238
0.0083745043
0.0081605691
0.0079601451
0.0077743449
0.007600184
0.0074345676
0.0072809228
0.0071377415
0.007000732
0.0068740645
0.0067556709
0.0066425702
0.006537891
0.0064400126
0.0063463225
0.0062594064
0.0061780324
0.0061002641
0.0060287338
0.005961459
0.0058977313
0.0058394223
0.0057844243
0.0057326207
0.0056844946
0.0056384786
0.0055952116
0.0055545764
0.0055156138
0.0054795216
0.005445218
0.0054126794
0.0053823538
0.0053533295
0.0053262056
0.0053006439
0.0052762451
0.0052534268
0.0052318117
0.0052111926
0.0051918128
0.0051734159
0.005155917
0.0051393851
0.0051238366
0.0051093619
0.0050957974
0.0050831318
0.0050710697
0.0050594054
0.0050482285
0.0050377969
0.0050282764
0.0050194466
0.0050113197
0.0050038446
0.0049969057
0.0049905615
0.0049848129
0.0049796319
0.00497503
0.00497103
0.0049676714
0.0049648438
0.0049628973
0.0049610637
0.0049609574
0.1037256
0.10477173
0.10583233
0.1068576
0.10784081
0.10877443
0.1096501
0.11045913
0.1111925
0.11184084
0.11239436
0.11284288
0.11317576
0.11338186
0.11344961
0.11336692
0.11312124
0.11269962
0.11208867
0.11127494
0.1102446
0.10898363
0.10747829
0.10571509
0.103681
0.10136379
0.098752354
0.095837123
0.092610586
0.089067903
0.085207672
0.081032834
0.076551766
0.071779589
0.066739938
0.061467492
0.055999587
0.050402633
0.044768078
0.039181981
0.033769009
0.028693961
0.024152742
0.020355884
0.017453116
0.015426112
0.014076357
0.013156367
0.012475798
0.011921522
0.011441302
0.011010145
0.01061548
0.010247691
0.0099057813
0.0095917308
0.0092984975
0.0090257089
0.008769828
0.0085309146
0.0083108917
0.0081026584
0.007907313
0.007726151
0.0075560365
0.0073939446
0.0072436611
0.0071034593
0.0069690911
0.006845004
0.0067289527
0.0066179661
0.0065153459
0.0064193561
0.0063273757
0.0062421295
0.0061623151
0.0060859481
0.0060157499
0.0059498267
0.0058871246
0.0058297226
0.0057756665
0.0057245879
0.0056771114
0.0056316299
0.0055888519
0.0055486666
0.0055101303
0.0054744747
0.0054405759
0.0054083885
0.005378403
0.0053496945
0.0053228328
0.005297517
0.0052733339
0.0052507059
0.0052292728
0.00520882
0.0051895936
0.0051713493
0.0051539641
0.005137555
0.0051221077
0.0051077149
0.0050942618
0.0050816898
0.0050697316
0.0050581817
0.0050470894
0.0050367134
0.005027245
0.0050184644
0.0050103884
0.0050029567
0.0049960592
0.0049897567
0.0049840413
0.0049788901
0.0049743134
0.004970336
0.0049669968
0.0049641842
0.0049622483
0.0049604224
0.0049603202
0.10758297
0.10844847
0.10932055
0.11015291
0.11093884
0.11167099
0.1123412
0.11294097
0.11346143
0.11389334
0.11422706
0.1144525
0.11455912
0.11453591
0.11437139
0.11405363
0.11357026
0.11290852
0.11205531
0.11099752
0.10972171
0.10821434
0.10646223
0.1044526
0.10217328
0.099613085
0.096762155
0.093612457
0.090158324
0.086397146
0.082330189
0.077963583
0.073309503
0.068387625
0.063227216
0.057869122
0.052357345
0.04677214
0.041212253
0.035774596
0.03060496
0.025884084
0.021815114
0.01857847
0.016231939
0.014645371
0.013577828
0.012815396
0.012220004
0.011712313
0.011260526
0.010850801
0.010472237
0.010118886
0.0097903324
0.0094870849
0.009203368
0.0089395734
0.0086919403
0.0084606022
0.0082470273
0.0080444191
0.0078541557
0.0076775192
0.0075113813
0.0073528561
0.007205939
0.0070686852
0.0069370347
0.0068155691
0.0067018844
0.0065930825
0.006492559
0.0063984862
0.006308268
0.0062247226
0.0061464884
0.0060715638
0.0060026646
0.0059380943
0.0058764656
0.0058199588
0.0057668342
0.0057164509
0.0056696102
0.0056246693
0.0055823812
0.0055426525
0.0055045568
0.0054693385
0.00543585
0.0054040271
0.0053743849
0.0053459948
0.0053193954
0.0052943268
0.0052703616
0.0052479252
0.005226678
0.0052063951
0.0051873235
0.0051692356
0.0051519657
0.0051356828
0.0051203401
0.0051060288
0.0050926904
0.0050802133
0.0050683596
0.0050569287
0.0050459253
0.0050356086
0.0050261931
0.0050174628
0.0050094395
0.0050020519
0.0049951966
0.0049889366
0.0049832549
0.0049781336
0.0049735833
0.0049696288
0.0049663091
0.0049635118
0.0049615866
0.0049597685
0.0049596705
0.11106062
0.11174808
0.11243314
0.11307367
0.11366304
0.11419406
0.11465881
0.11504899
0.11535594
0.11557059
0.11568345
0.11568457
0.11556356
0.11530954
0.1149112
0.11435678
0.11363414
0.11273077
0.1116339
0.11033083
0.10880862
0.10705426
0.1050553
0.10279977
0.10027655
0.097475669
0.094388759
0.091009579
0.087334616
0.083363842
0.079101601
0.074557679
0.0697486
0.064699309
0.059445639
0.0540335
0.048518226
0.042995896
0.037568839
0.032351497
0.027510641
0.023238518
0.019724791
0.017081096
0.015249864
0.014021095
0.013163908
0.012515218
0.011982186
0.011511128
0.011083772
0.010692561
0.010329352
0.0099911517
0.0096758136
0.0093824877
0.0091078867
0.0088531656
0.0086140249
0.0083904541
0.0081828328
0.007985793
0.007800706
0.0076284237
0.0074661566
0.0073113065
0.0071677639
0.0070334106
0.0069045911
0.0067857851
0.0066744826
0.0065679504
0.0064695589
0.0063774233
0.0062890249
0.0062072043
0.0061305627
0.0060571191
0.0059894955
0.0059262557
0.0058657411
0.0058101295
0.0057579176
0.0057082028
0.0056619801
0.0056175906
0.0055757933
0.00553653
0.00549889
0.0054641108
0.0054310387
0.0053995932
0.0053702965
0.0053422257
0.0053158899
0.0052910699
0.005267325
0.0052450818
0.0052240245
0.0052039154
0.0051850006
0.0051670725
0.0051499211
0.0051337672
0.0051185332
0.0051043034
0.0050910819
0.0050787015
0.0050669532
0.005055645
0.0050447353
0.0050344821
0.0050251203
0.0050164416
0.0050084726
0.00500113
0.0049943178
0.0049881007
0.0049824536
0.0049773624
0.0049728393
0.0049689083
0.004965608
0.0049628264
0.0049609119
0.004959102
0.0049590081
0.11410588
0.11461795
0.11511773
0.11556785
0.11596175
0.11629244
0.11655227
0.11673317
0.11682669
0.11682398
0.11671571
0.11649212
0.11614297
0.11565756
0.11502477
0.11423306
0.11327057
0.11212511
0.1107843
0.10923595
0.10746769
0.10546718
0.10322281
0.10072363
0.097959703
0.094922531
0.091605502
0.088004472
0.084118448
0.079950398
0.075508229
0.070805932
0.065865011
0.060716575
0.055404431
0.049976977
0.04450957
0.039113028
0.033889573
0.028980177
0.02456737
0.020840837
0.01794041
0.0158728
0.014476614
0.013517089
0.012811689
0.012244711
0.011755511
0.011315503
0.010910445
0.010535228
0.010187169
0.0098642919
0.0095621355
0.0092776202
0.0090123601
0.0087666226
0.0085362485
0.0083205364
0.0081181426
0.0079267527
0.0077470366
0.0075788268
0.0074202747
0.0072693255
0.0071291546
0.0069976258
0.0068718077
0.006755686
0.0066467648
0.0065426075
0.0064463792
0.0063561883
0.0062696736
0.0061895942
0.0061145466
0.00604262
0.0059762664
0.0059143075
0.0058549339
0.0058002295
0.0057489039
0.0056998405
0.0056542132
0.0056103889
0.0055690834
0.0055302966
0.0054931283
0.0054587914
0.0054261425
0.0053950859
0.0053661356
0.0053383839
0.0053123144
0.0052877436
0.0052642218
0.0052421742
0.0052213105
0.0052013795
0.0051826237
0.0051648581
0.0051478301
0.005131808
0.0051166868
0.0051025392
0.0050894356
0.0050771546
0.0050655122
0.0050543298
0.0050435189
0.0050333339
0.0050240268
0.0050154007
0.0050074874
0.0050001911
0.0049934227
0.0049872487
0.004981637
0.0049765762
0.0049720814
0.0049681743
0.0049648933
0.0049621279
0.0049602241
0.0049584225
0.0049583328
0.11666326
0.11700279
0.11731939
0.11758089
0.11778086
0.11791255
0.1179686
0.11794119
0.11782213
0.11760276
0.11727397
0.11682616
0.11624929
0.11553288
0.11466603
0.1136375
0.11243572
0.11104892
0.10946518
0.10767293
0.1056605
0.10341634
0.10092984
0.098191244
0.095192072
0.091925537
0.088387093
0.084575067
0.080491412
0.076142599
0.071540674
0.066704482
0.061661255
0.05644924
0.05112071
0.045730646
0.040375895
0.035176998
0.030246078
0.025748936
0.021871313
0.018770259
0.016491774
0.014930139
0.013868786
0.01310012
0.012503569
0.011995472
0.01153714
0.011121095
0.010737622
0.0103805
0.010047713
0.009737233
0.0094462302
0.0091733671
0.0089184921
0.0086802785
0.0084586563
0.0082505911
0.0080528493
0.0078674251
0.0076931951
0.0075286457
0.0073736691
0.0072269933
0.0070901267
0.0069613176
0.0068387564
0.0067253127
0.0066187451
0.0065171011
0.0064230566
0.0063347973
0.0062502402
0.0061719108
0.0060984438
0.0060280684
0.0059629995
0.0059022465
0.0058440243
0.0057902447
0.0057397736
0.0056913607
0.0056463021
0.0056030585
0.0055622463
0.0055239483
0.0054872686
0.005453379
0.0054211608
0.0053905025
0.0053618989
0.0053344654
0.0053086658
0.0052843446
0.0052610489
0.0052392002
0.0052185338
0.0051987854
0.0051801914
0.0051625903
0.0051456928
0.0051298046
0.0051148005
0.0051007368
0.0050877499
0.0050755723
0.0050640367
0.005052982
0.0050422756
0.0050321638
0.0050229123
0.0050143401
0.0050064833
0.004999235
0.0049925114
0.0049863803
0.0049808049
0.004975775
0.0049713092
0.0049674265
0.0049641648
0.004961416
0.0049595229
0.0049577298
0.0049576443
0.11867524
0.11884513
0.11898089
0.11905593
0.11906398
0.11899858
0.11885266
0.1186187
0.11828872
0.1178543
0.1173065
0.11663596
0.11583283
0.11488689
0.11378752
0.11252381
0.1110846
0.10945859
0.10763443
0.10560131
0.10334836
0.10086502
0.098141851
0.095170544
0.091944312
0.088458412
0.084710736
0.080702518
0.076439173
0.071931287
0.067195751
0.062257095
0.057149297
0.051919122
0.046626168
0.041339165
0.03617839
0.031266686
0.026735865
0.022766346
0.019521245
0.017078902
0.015367336
0.014205418
0.013381293
0.012749337
0.012222325
0.011750377
0.011324386
0.010932512
0.010568009
0.01022733
0.009908807
0.0096109193
0.0093316765
0.0090697472
0.0088246317
0.0085953876
0.0083806403
0.008178092
0.007987449
0.0078086019
0.0076390548
0.007477832
0.0073264492
0.0071844244
0.0070506498
0.0069244945
0.0068055322
0.0066947042
0.0065904394
0.0064914963
0.0063996288
0.0063132584
0.0062307532
0.0061541733
0.0060822519
0.006013463
0.0059497073
0.0058900736