/*--------------------------------*- C++ -*----------------------------------*\
| =========                 |                                                 |
| \\      /  F ield         | OpenFOAM: The Open Source CFD Toolbox           |
|  \\    /   O peration     | Version:  2406                                  |
|   \\  /    A nd           | Website:  www.openfoam.com                      |
|    \\/     M anipulation  |                                                 |
\*---------------------------------------------------------------------------*/
FoamFile
{
    version     2.0;
    format      ascii;
    arch        "LSB;label=32;scalar=64";
    class       volScalarField;
    location    "0.025";
    object      p;
}
// * * * * * * * * * * * * * * * * * * * * * * * * * * * * * * * * * * * * * //

dimensions      [1 -1 -2 0 0 0 0];

internalField   nonuniform List<scalar> 
92813
(
101063.49
101004.47
100978.77
100949.92
100921.21
100896.7
100876.21
100859.42
100846.12
100836
100828.63
100823.45
100819.85
100817.5
100816.09
100815.89
100817.26
100820.56
100825.81
100832.98
100841.6
100851.44
100862.26
100873.94
100886.36
100899.4
100912.96
100926.96
100941.33
100956
100970.89
100985.96
101001.11
101016.3
101031.45
101046.45
101061.38
101075.66
101089.28
101102.34
101116.12
101130.15
101142.27
101153.54
101164.06
101173.73
101182.48
101190.3
101197.24
101203.48
101209.21
101214.5
101219.43
101224.12
101228.62
101232.98
101237.2
101241.3
101245.26
101249.09
101252.79
101256.37
101259.83
101263.18
101266.42
101269.56
101272.6
101275.56
101278.43
101281.23
101283.96
101286.61
101289.2
101291.72
101294.17
101296.55
101298.86
101301.09
101303.24
101305.31
101307.31
101309.25
101311.12
101312.93
101314.69
101316.4
101318.05
101319.66
101321.2
101322.68
101324.1
101325.45
101326.75
101327.98
101329.15
101330.28
101331.36
101332.4
101333.39
101334.34
101335.24
101336.1
101336.91
101337.68
101338.4
101339.09
101339.74
101340.34
101340.9
101341.4
101341.85
101342.25
101342.61
101342.93
101343.21
101343.47
101343.7
101343.91
101344.1
101344.28
101344.45
101344.6
101344.75
101344.87
101345.02
101345.09
101345.21
101197.41
101157.82
101121.87
101082.74
101047.32
101017.58
100992.7
100971.97
100954.94
100941.16
100930.16
100921.42
100914.35
100908.41
100903.41
100899.46
100896.78
100895.58
100896.32
100899.01
100903.41
100909.38
100916.87
100925.55
100935.15
100945.5
100956.49
100968
100979.94
100992.23
101004.8
101017.58
101030.5
101043.5
101056.5
101069.43
101082.28
101094.84
101106.8
101117.57
101129.95
101142.7
101153.47
101163.58
101173.13
101181.99
101190.11
101197.45
101204.07
101210.11
101215.69
101220.81
101225.56
101230.04
101234.31
101238.44
101242.43
101246.29
101250.03
101253.65
101257.16
101260.55
101263.83
101267
101270.08
101273.05
101275.95
101278.76
101281.49
101284.16
101286.76
101289.29
101291.77
101294.18
101296.53
101298.81
101301.02
101303.16
101305.23
101307.22
101309.14
101311
101312.8
101314.54
101316.24
101317.89
101319.48
101321.03
101322.52
101323.95
101325.32
101326.63
101327.88
101329.07
101330.2
101331.29
101332.34
101333.34
101334.3
101335.22
101336.09
101336.92
101337.7
101338.44
101339.15
101339.81
101340.44
101341.02
101341.56
101342.04
101342.48
101342.86
101343.2
101343.51
101343.78
101344.02
101344.25
101344.44
101344.63
101344.79
101344.96
101345.1
101345.25
101345.36
101345.51
101345.57
101345.69
101266.14
101235.87
101196.4
101153.25
101115.05
101082.76
101055.27
101031.88
101012.15
100995.63
100981.89
100970.49
100960.98
100953
100946.36
100940.95
100936.79
100934.07
100933.1
100933.93
100936.54
100940.96
100946.93
100954.15
100962.39
100971.49
100981.31
100991.73
101002.66
101014
101025.67
101037.59
101049.68
101061.87
101074.09
101086.25
101098.33
101110.31
101121.34
101131.08
101143.17
101155.13
101165.1
101174.53
101183.41
101191.63
101199.14
101205.94
101212.1
101217.75
101222.95
101227.71
101232.11
101236.28
101240.27
101244.12
101247.85
101251.47
101254.98
101258.38
101261.68
101264.87
101267.96
101270.95
101273.85
101276.67
101279.4
101282.07
101284.66
101287.19
101289.66
101292.06
101294.42
101296.72
101298.96
101301.14
101303.25
101305.3
101307.28
101309.18
101311.03
101312.81
101314.54
101316.21
101317.84
101319.42
101320.96
101322.45
101323.88
101325.26
101326.58
101327.84
101329.04
101330.19
101331.28
101332.33
101333.34
101334.31
101335.23
101336.12
101336.96
101337.76
101338.52
101339.23
101339.91
101340.55
101341.15
101341.72
101342.23
101342.7
101343.11
101343.48
101343.81
101344.1
101344.36
101344.59
101344.8
101344.99
101345.16
101345.32
101345.48
101345.61
101345.76
101345.87
101346.01
101346.07
101346.19
101322.62
101296.21
101257.31
101213.26
101173.45
101139.09
101109.25
101083.34
101060.98
101041.83
101025.52
101011.68
100999.98
100990.11
100981.89
100975.2
100970.01
100966.39
100964.48
100964.29
100965.81
100969
100973.66
100979.61
100986.65
100994.63
101003.41
101012.88
101022.92
101033.45
101044.36
101055.58
101067.02
101078.6
101090.24
101101.85
101113.41
101125.03
101135.01
101144.36
101156.46
101167.61
101176.97
101185.85
101194.15
101201.78
101208.69
101214.91
101220.55
101225.71
101230.44
101234.77
101238.81
101242.65
101246.34
101249.91
101253.38
101256.75
101260.02
101263.2
101266.28
101269.27
101272.17
101274.98
101277.7
101280.35
101282.93
101285.44
101287.88
101290.27
101292.61
101294.89
101297.12
101299.31
101301.44
101303.51
101305.53
101307.48
101309.36
101311.19
101312.95
101314.65
101316.3
101317.91
101319.47
101320.98
101322.46
101323.89
101325.26
101326.59
101327.86
101329.07
101330.23
101331.33
101332.38
101333.39
101334.36
101335.29
101336.18
101337.04
101337.85
101338.62
101339.34
101340.03
101340.69
101341.3
101341.88
101342.42
101342.92
101343.36
101343.76
101344.11
101344.42
101344.7
101344.95
101345.17
101345.37
101345.54
101345.71
101345.86
101346
101346.13
101346.27
101346.38
101346.52
101346.58
101346.7
101374.32
101349.76
101312.02
101268.21
101227.85
101192.41
101161.14
101133.54
101109.33
101088.23
101069.95
101054.19
101040.67
101029.15
101019.46
101011.47
101005.15
101000.48
100997.52
100996.24
100996.62
100998.57
101001.98
101006.68
101012.52
101019.36
101027.07
101035.52
101044.62
101054.25
101064.32
101074.74
101085.43
101096.29
101107.24
101118.2
101129.15
101140.16
101149.13
101158.34
101170.08
101180.34
101189.09
101197.4
101205.09
101212.1
101218.4
101224.03
101229.13
101233.79
101238.04
101241.94
101245.61
101249.12
101252.51
101255.8
101259
101262.12
101265.16
101268.1
101270.97
101273.75
101276.45
101279.08
101281.62
101284.1
101286.51
101288.87
101291.16
101293.41
101295.61
101297.76
101299.88
101301.95
101303.96
101305.93
101307.85
101309.7
101311.49
101313.23
101314.91
101316.53
101318.11
101319.64
101321.13
101322.58
101323.99
101325.36
101326.68
101327.95
101329.17
101330.33
101331.44
101332.49
101333.5
101334.47
101335.4
101336.3
101337.15
101337.97
101338.75
101339.49
101340.19
101340.85
101341.48
101342.07
101342.63
101343.14
101343.62
101344.05
101344.43
101344.76
101345.05
101345.31
101345.55
101345.75
101345.94
101346.11
101346.27
101346.41
101346.54
101346.67
101346.8
101346.9
101347.04
101347.09
101347.21
101420.45
101396.16
101359.19
101316.43
101276.48
101240.83
101208.92
101180.36
101154.96
101132.52
101112.8
101095.57
101080.62
101067.75
101056.79
101047.65
101040.24
101034.54
101030.54
101028.2
101027.49
101028.31
101030.57
101034.13
101038.86
101044.63
101051.32
101058.79
101066.96
101075.71
101084.94
101094.56
101104.48
101114.61
101124.85
101135.12
101145.42
101155.67
101163.76
101172.83
101183.98
101193.35
101201.48
101209.16
101216.2
101222.56
101228.22
101233.26
101237.82
101241.96
101245.73
101249.22
101252.52
101255.7
101258.78
101261.79
101264.73
101267.59
101270.38
101273.09
101275.74
101278.31
101280.81
101283.25
101285.62
101287.92
101290.17
101292.36
101294.51
101296.61
101298.67
101300.69
101302.68
101304.63
101306.53
101308.39
101310.21
101311.96
101313.66
101315.31
101316.9
101318.45
101319.95
101321.4
101322.82
101324.2
101325.55
101326.86
101328.11
101329.33
101330.5
101331.61
101332.67
101333.68
101334.65
101335.58
101336.46
101337.32
101338.14
101338.93
101339.67
101340.38
101341.05
101341.68
101342.28
101342.85
101343.38
101343.88
101344.33
101344.74
101345.1
101345.42
101345.7
101345.94
101346.16
101346.35
101346.53
101346.69
101346.83
101346.96
101347.09
101347.21
101347.34
101347.44
101347.57
101347.62
101347.74
101461.84
101436.34
101399.68
101358.51
101319.67
101284.45
101252.48
101223.53
101197.46
101174.14
101153.42
101135.12
101119.06
101105.1
101093.1
101082.95
101074.58
101067.94
101063
101059.71
101058
101057.81
101059.03
101061.55
101065.26
101070.04
101075.76
101082.31
101089.59
101097.48
101105.9
101114.74
101123.9
101133.3
101142.84
101152.42
101162.08
101171.46
101178.72
101187.69
101198.14
101206.61
101214.1
101221.11
101227.47
101233.14
101238.15
101242.6
101246.61
101250.22
101253.52
101256.6
101259.55
101262.39
101265.17
101267.89
101270.55
101273.15
101275.69
101278.17
101280.6
101282.96
101285.25
101287.5
101289.68
101291.8
101293.88
101295.92
101297.91
101299.87
101301.79
101303.68
101305.54
101307.37
101309.15
101310.91
101312.61
101314.27
101315.88
101317.43
101318.94
101320.4
101321.82
101323.2
101324.55
101325.86
101327.14
101328.38
101329.58
101330.74
101331.85
101332.91
101333.93
101334.89
101335.81
101336.7
101337.55
101338.37
101339.15
101339.9
101340.61
101341.29
101341.93
101342.53
101343.11
101343.65
101344.16
101344.63
101345.06
101345.45
101345.79
101346.09
101346.35
101346.58
101346.78
101346.97
101347.13
101347.27
101347.41
101347.53
101347.66
101347.76
101347.89
101347.98
101348.11
101348.16
101348.28
101498.76
101471.54
101435.14
101395.76
101358.37
101323.97
101292.37
101263.43
101237.12
101213.34
101191.99
101172.95
101156.09
101141.29
101128.44
101117.46
101108.26
101100.79
101095
101090.85
101088.25
101087.13
101087.42
101088.99
101091.76
101095.61
101100.42
101106.1
101112.52
101119.59
101127.21
101135.28
101143.69
101152.37
101161.19
101170.11
101179.16
101187.43
101193.94
101202.96
101212.54
101220.11
101226.92
101233.23
101238.87
101243.84
101248.19
101252.03
101255.48
101258.58
101261.41
101264.09
101266.67
101269.19
101271.65
101274.08
101276.46
101278.8
101281.09
101283.33
101285.54
101287.68
101289.77
101291.82
101293.81
101295.76
101297.67
101299.54
101301.37
101303.18
101304.97
101306.72
101308.45
101310.15
101311.82
101313.46
101315.06
101316.61
101318.13
101319.59
101321.01
101322.39
101323.73
101325.03
101326.3
101327.55
101328.76
101329.94
101331.08
101332.18
101333.24
101334.24
101335.21
101336.12
101337
101337.84
101338.65
101339.43
101340.18
101340.89
101341.57
101342.21
101342.82
101343.4
101343.95
101344.46
101344.95
101345.4
101345.8
101346.17
101346.49
101346.77
101347.02
101347.23
101347.42
101347.59
101347.74
101347.87
101348
101348.11
101348.23
101348.33
101348.45
101348.53
101348.66
101348.71
101348.82
101531.54
101502.73
101466.7
101429.12
101393.29
101359.93
101328.97
101300.39
101274.15
101250.24
101228.58
101209.1
101191.7
101176.3
101162.81
101151.16
101141.27
101133.09
101126.57
101121.64
101118.25
101116.31
101115.74
101116.46
101118.36
101121.35
101125.31
101130.15
101135.76
101142.03
101148.87
101156.18
101163.86
101171.8
101179.91
101188.17
101196.61
101203.43
101209.56
101218.67
101227.14
101233.81
101239.92
101245.48
101250.38
101254.63
101258.31
101261.56
101264.44
101267.01
101269.4
101271.68
101273.91
101276.09
101278.23
101280.37
101282.47
101284.55
101286.58
101288.58
101290.56
101292.48
101294.36
101296.21
101298.02
101299.78
101301.52
101303.23
101304.9
101306.56
101308.2
101309.81
101311.41
101312.99
101314.54
101316.07
101317.56
101319.01
101320.42
101321.79
101323.12
101324.41
101325.67
101326.89
101328.09
101329.26
101330.41
101331.53
101332.6
101333.65
101334.64
101335.6
101336.51
101337.38
101338.21
101339.01
101339.78
101340.51
101341.22
101341.9
101342.55
101343.16
101343.74
101344.28
101344.8
101345.29
101345.75
101346.17
101346.56
101346.91
101347.21
101347.47
101347.7
101347.9
101348.07
101348.22
101348.36
101348.49
101348.6
101348.7
101348.81
101348.91
101349.02
101349.1
101349.22
101349.27
101349.38
101560.17
101530.48
101495.22
101459.36
101425.03
101392.8
101362.68
101334.67
101308.77
101284.99
101263.28
101243.61
101225.92
101210.13
101196.18
101184.02
101173.58
101164.82
101157.67
101152.08
101147.99
101145.31
101143.99
101143.93
101145.04
101147.23
101150.4
101154.44
101159.27
101164.78
101170.86
101177.42
101184.36
101191.58
101198.96
101206.53
101214.17
101219.75
101225.84
101234.54
101241.85
101247.69
101253.06
101257.84
101261.97
101265.49
101268.51
101271.14
101273.46
101275.53
101277.48
101279.37
101281.24
101283.08
101284.91
101286.75
101288.57
101290.38
101292.16
101293.91
101295.66
101297.36
101299.03
101300.68
101302.3
101303.87
101305.43
101306.98
101308.48
101309.99
101311.49
101312.95
101314.42
101315.88
101317.3
101318.72
101320.1
101321.44
101322.76
101324.04
101325.27
101326.48
101327.65
101328.79
101329.92
101331.02
101332.09
101333.14
101334.15
101335.14
101336.08
101336.98
101337.84
101338.66
101339.45
101340.2
101340.92
101341.62
101342.29
101342.93
101343.54
101344.12
101344.67
101345.18
101345.67
101346.14
101346.57
101346.97
101347.33
101347.66
101347.94
101348.18
101348.39
101348.57
101348.73
101348.87
101349
101349.11
101349.21
101349.31
101349.41
101349.49
101349.6
101349.67
101349.79
101349.84
101349.95
101584.8
101554.99
101521.14
101486.92
101454.02
101422.98
101393.82
101366.55
101341.18
101317.74
101296.21
101276.56
101258.77
101242.78
101228.55
101216.04
101205.19
101195.96
101188.29
101182.14
101177.45
101174.13
101172.13
101171.37
101171.76
101173.22
101175.65
101178.95
101183.04
101187.8
101193.15
101198.98
101205.19
101211.68
101218.34
101225.21
101231.89
101236.44
101242.53
101250.5
101256.69
101261.73
101266.3
101270.28
101273.62
101276.42
101278.77
101280.78
101282.54
101284.12
101285.64
101287.16
101288.67
101290.17
101291.68
101293.23
101294.76
101296.3
101297.82
101299.32
101300.84
101302.31
101303.77
101305.21
101306.64
101308.02
101309.41
101310.79
101312.13
101313.48
101314.83
101316.15
101317.49
101318.82
101320.12
101321.41
101322.69
101323.92
101325.14
101326.32
101327.46
101328.58
101329.67
101330.73
101331.78
101332.8
101333.8
101334.79
101335.73
101336.66
101337.54
101338.39
101339.2
101339.97
101340.7
101341.41
101342.09
101342.75
101343.38
101343.98
101344.55
101345.1
101345.61
101346.1
101346.56
101347
101347.4
101347.78
101348.12
101348.42
101348.68
101348.91
101349.1
101349.26
101349.41
101349.53
101349.64
101349.75
101349.84
101349.92
101350.01
101350.09
101350.19
101350.26
101350.37
101350.42
101350.53
101605.91
101576.69
101544.44
101511.92
101480.51
101450.74
101422.66
101396.27
101371.6
101348.67
101327.49
101308.05
101290.34
101274.32
101259.96
101247.23
101236.1
101226.52
101218.45
101211.84
101206.63
101202.76
101200.17
101198.78
101198.52
101199.3
101201.04
101203.65
101207.03
101211.08
101215.72
101220.83
101226.32
101232.07
101238.04
101244.23
101249.7
101253.37
101259.56
101266.58
101271.64
101275.87
101279.61
101282.75
101285.3
101287.37
101289.05
101290.45
101291.69
101292.79
101293.89
101295.03
101296.19
101297.36
101298.53
101299.79
101301.04
101302.3
101303.56
101304.8
101306.09
101307.34
101308.58
101309.82
101311.05
101312.24
101313.45
101314.66
101315.83
101317.03
101318.23
101319.41
101320.61
101321.81
101322.98
101324.16
101325.32
101326.44
101327.56
101328.64
101329.68
101330.71
101331.72
101332.7
101333.67
101334.62
101335.55
101336.46
101337.35
101338.21
101339.03
101339.82
101340.58
101341.3
101341.98
101342.65
101343.28
101343.9
101344.49
101345.05
101345.59
101346.1
101346.58
101347.04
101347.47
101347.87
101348.25
101348.61
101348.92
101349.2
101349.44
101349.64
101349.82
101349.97
101350.09
101350.21
101350.31
101350.39
101350.48
101350.55
101350.63
101350.7
101350.79
101350.86
101350.97
101351.01
101351.12
101624.1
101595.91
101565.38
101534.61
101504.77
101476.37
101449.47
101424.07
101400.23
101377.96
101357.28
101338.2
101320.71
101304.8
101290.45
101277.64
101266.34
101256.52
101248.15
101241.17
101235.54
101231.2
101228.09
101226.14
101225.29
101225.46
101226.56
101228.51
101231.22
101234.59
101238.53
101242.94
101247.71
101252.74
101258.01
101263.54
101267.4
101270.62
101276.95
101282.71
101286.68
101290.07
101292.94
101295.22
101296.99
101298.34
101299.35
101300.16
101300.89
101301.53
101302.22
101302.99
101303.79
101304.63
101305.46
101306.43
101307.4
101308.39
101309.38
101310.36
101311.42
101312.44
101313.45
101314.5
101315.53
101316.53
101317.55
101318.59
101319.59
101320.63
101321.68
101322.71
101323.77
101324.84
101325.89
101326.95
101328
101329.01
101330.02
101331
101331.95
101332.89
101333.81
101334.7
101335.59
101336.46
101337.32
101338.17
101338.99
101339.79
101340.55
101341.28
101341.99
101342.65
101343.29
101343.91
101344.49
101345.07
101345.62
101346.14
101346.64
101347.12
101347.57
101347.99
101348.39
101348.77
101349.12
101349.45
101349.74
101349.99
101350.21
101350.4
101350.55
101350.68
101350.8
101350.89
101350.98
101351.05
101351.13
101351.19
101351.26
101351.33
101351.41
101351.47
101351.57
101351.62
101351.72
101639.99
101613.1
101584.33
101555.34
101527.12
101500.15
101474.5
101450.2
101427.28
101405.78
101385.72
101367.12
101349.98
101334.3
101320.08
101307.3
101295.95
101285.99
101277.4
101270.15
101264.18
101259.45
101255.89
101253.46
101252.08
101251.68
101252.2
101253.53
101255.6
101258.31
101261.57
101265.28
101269.32
101273.62
101278.15
101282.79
101285.35
101288.54
101294.36
101298.77
101301.76
101304.27
101306.24
101307.67
101308.66
101309.29
101309.64
101309.89
101310.15
101310.33
101310.62
101311.02
101311.48
101311.99
101312.46
101313.15
101313.85
101314.56
101315.27
101315.99
101316.82
101317.62
101318.4
101319.24
101320.08
101320.87
101321.72
101322.58
101323.41
101324.29
101325.19
101326.07
101326.99
101327.93
101328.85
101329.78
101330.72
101331.62
101332.52
101333.41
101334.26
101335.1
101335.93
101336.74
101337.55
101338.35
101339.13
101339.91
101340.66
101341.39
101342.1
101342.77
101343.42
101344.03
101344.62
101345.19
101345.73
101346.26
101346.77
101347.25
101347.71
101348.15
101348.57
101348.96
101349.33
101349.68
101350.01
101350.31
101350.57
101350.8
101351
101351.16
101351.3
101351.41
101351.51
101351.59
101351.66
101351.73
101351.79
101351.84
101351.9
101351.96
101352.04
101352.1
101352.19
101352.23
101352.34
101654.16
101628.67
101601.65
101574.44
101547.85
101522.36
101498.02
101474.88
101452.97
101432.32
101412.98
101394.95
101378.27
101362.93
101348.94
101336.29
101324.97
101314.96
101306.25
101298.8
101292.57
101287.51
101283.57
101280.71
101278.86
101277.96
101277.92
101278.67
101280.13
101282.21
101284.8
101287.81
101291.14
101294.7
101298.46
101302.06
101303.59
101306.75
101311.67
101314.77
101316.83
101318.42
101319.47
101320.06
101320.29
101320.21
101319.91
101319.64
101319.47
101319.16
101319.09
101319.11
101319.26
101319.43
101319.51
101319.96
101320.39
101320.82
101321.23
101321.68
101322.3
101322.86
101323.41
101324.05
101324.69
101325.28
101325.94
101326.64
101327.28
101328.01
101328.76
101329.48
101330.27
101331.07
101331.85
101332.67
101333.49
101334.27
101335.07
101335.86
101336.6
101337.36
101338.1
101338.82
101339.55
101340.26
101340.97
101341.68
101342.36
101343.03
101343.67
101344.29
101344.88
101345.44
101345.98
101346.5
101346.99
101347.47
101347.94
101348.38
101348.81
101349.21
101349.59
101349.95
101350.29
101350.61
101350.91
101351.18
101351.42
101351.63
101351.8
101351.95
101352.06
101352.16
101352.24
101352.31
101352.36
101352.41
101352.46
101352.51
101352.56
101352.61
101352.68
101352.73
101352.82
101352.86
101352.96
101666.96
101642.96
101617.66
101592.21
101567.27
101543.27
101520.29
101498.35
101477.5
101457.77
101439.21
101421.85
101405.7
101390.78
101377.1
101364.66
101353.45
101343.48
101334.72
101327.14
101320.72
101315.4
101311.15
101307.91
101305.64
101304.27
101303.72
101303.92
101304.79
101306.25
101308.19
101310.51
101313.12
101315.96
101318.96
101321.24
101321.95
101325.14
101328.86
101330.7
101331.82
101332.46
101332.59
101332.36
101331.85
101331.08
101330.12
101329.39
101328.77
101328.07
101327.65
101327.23
101327.14
101326.94
101326.64
101326.84
101326.99
101327.15
101327.25
101327.42
101327.85
101328.17
101328.48
101328.92
101329.38
101329.75
101330.22
101330.75
101331.22
101331.78
101332.38
101332.94
101333.59
101334.26
101334.91
101335.6
101336.31
101336.97
101337.66
101338.34
101338.99
101339.65
101340.3
101340.93
101341.58
101342.21
101342.84
101343.48
101344.09
101344.7
101345.28
101345.83
101346.37
101346.87
101347.36
101347.83
101348.27
101348.71
101349.13
101349.54
101349.92
101350.29
101350.63
101350.96
101351.27
101351.56
101351.83
101352.07
101352.29
101352.47
101352.62
101352.74
101352.84
101352.92
101352.98
101353.03
101353.08
101353.11
101353.15
101353.18
101353.23
101353.27
101353.33
101353.38
101353.47
101353.5
101353.6
101678.74
101656.26
101632.66
101608.96
101585.66
101563.16
101541.54
101520.83
101501.07
101482.31
101464.59
101447.94
101432.39
101417.95
101404.65
101392.49
101381.47
101371.59
101362.85
101355.21
101348.65
101343.13
101338.61
101335.05
101332.4
101330.6
101329.57
101329.25
101329.56
101330.4
101331.69
101333.33
101335.22
101337.34
101339.57
101340.07
101340.52
101343.67
101345.84
101346.5
101346.65
101346.34
101345.56
101344.53
101343.31
101341.82
101340.23
101339.09
101338.18
101337.16
101336.27
101335.52
101334.99
101334.43
101333.96
101333.77
101333.61
101333.52
101333.33
101333.26
101333.47
101333.53
101333.6
101333.86
101334.13
101334.27
101334.56
101334.92
101335.2
101335.6
101336.05
101336.46
101336.96
101337.5
101338.01
101338.58
101339.17
101339.71
101340.29
101340.87
101341.41
101341.98
101342.54
101343.08
101343.64
101344.2
101344.75
101345.31
101345.85
101346.39
101346.91
101347.4
101347.88
101348.33
101348.76
101349.18
101349.58
101349.97
101350.35
101350.71
101351.06
101351.39
101351.7
101351.99
101352.26
101352.52
101352.76
101352.98
101353.17
101353.33
101353.46
101353.56
101353.64
101353.69
101353.74
101353.78
101353.8
101353.83
101353.85
101353.88
101353.91
101353.94
101354
101354.04
101354.12
101354.15
101354.26
101689.7
101668.78
101646.9
101624.93
101603.28
101582.28
101562.03
101542.56
101523.92
101506.14
101489.28
101473.38
101458.47
101444.56
101431.69
101419.86
101409.08
101399.35
101390.68
101383.03
101376.38
101370.71
101365.97
101362.13
101359.14
101356.93
101355.46
101354.63
101354.38
101354.63
101355.27
101356.2
101357.36
101358.71
101359.86
101359.02
101359.53
101361.85
101362.51
101362.1
101361.28
101360.01
101358.32
101356.52
101354.57
101352.28
101350.54
101349.12
101347.61
101346.17
101344.91
101343.81
101342.88
101342.02
101341.28
101340.74
101340.28
101339.89
101339.49
101339.25
101339.12
101338.92
101338.79
101338.88
101338.93
101338.83
101338.95
101339.16
101339.23
101339.47
101339.78
101340.02
101340.38
101340.79
101341.16
101341.6
101342.07
101342.5
101342.97
101343.44
101343.88
101344.35
101344.81
101345.26
101345.74
101346.21
101346.69
101347.18
101347.64
101348.12
101348.57
101349
101349.42
101349.81
101350.19
101350.56
101350.91
101351.25
101351.59
101351.91
101352.21
101352.5
101352.78
101353.04
101353.28
101353.51
101353.71
101353.9
101354.07
101354.2
101354.31
101354.39
101354.44
101354.48
101354.51
101354.53
101354.54
101354.56
101354.57
101354.58
101354.6
101354.63
101354.68
101354.71
101354.79
101354.82
101354.92
101700.44
101680.93
101660.72
101640.48
101620.44
101600.92
101582.02
101563.77
101546.22
101529.44
101513.45
101498.32
101484.06
101470.72
101458.31
101446.85
101436.35
101426.82
101418.25
101410.64
101403.95
101398.16
101393.24
101389.15
101385.84
101383.26
101381.35
101380.03
101379.23
101378.87
101378.85
101379.08
101379.51
101380.06
101379.82
101378.03
101378.57
101379.6
101378.85
101377.42
101375.64
101373.42
101370.78
101368.21
101365.53
101363.07
101361.07
101358.96
101356.99
101355.19
101353.57
101352.12
101350.83
101349.66
101348.63
101347.77
101347.01
101346.35
101345.72
101345.22
101344.81
101344.41
101344.1
101343.93
101343.74
101343.46
101343.42
101343.44
101343.31
101343.4
101343.56
101343.63
101343.85
101344.13
101344.35
101344.67
101345.03
101345.32
101345.68
101346.06
101346.38
101346.75
101347.13
101347.48
101347.88
101348.27
101348.66
101349.08
101349.47
101349.87
101350.26
101350.63
101350.99
101351.32
101351.65
101351.97
101352.26
101352.56
101352.85
101353.12
101353.39
101353.64
101353.88
101354.1
101354.31
101354.51
101354.69
101354.85
101354.98
101355.09
101355.17
101355.23
101355.27
101355.29
101355.3
101355.3
101355.3
101355.3
101355.3
101355.3
101355.31
101355.33
101355.37
101355.4
101355.47
101355.5
101355.6
101711.33
101692.97
101674.38
101655.85
101637.42
101619.35
101601.74
101584.68
101568.2
101552.38
101537.26
101522.89
101509.3
101496.53
101484.6
101473.54
101463.35
101454.04
101445.61
101438.06
101431.36
101425.49
101420.41
101416.09
101412.49
101409.55
101407.2
101405.4
101404.05
101403.07
101402.37
101401.88
101401.58
101401.31
101399.18
101397.09
101397.5
101396.84
101394.8
101392.38
101389.65
101386.42
101382.84
101379.65
101376.81
101374.04
101371.31
101368.75
101366.39
101364.22
101362.24
101360.45
101358.82
101357.34
101356.01
101354.85
101353.8
101352.86
101352
101351.24
101350.58
101349.96
101349.43
101349.01
101348.6
101348.19
101347.94
101347.73
101347.45
101347.39
101347.39
101347.28
101347.37
101347.52
101347.59
101347.78
101348.03
101348.19
101348.44
101348.71
101348.93
101349.2
101349.48
101349.74
101350.05
101350.35
101350.66
101351.01
101351.32
101351.66
101351.98
101352.28
101352.59
101352.86
101353.13
101353.4
101353.64
101353.89
101354.14
101354.37
101354.59
101354.8
101355
101355.19
101355.37
101355.53
101355.68
101355.81
101355.92
101356
101356.06
101356.09
101356.11
101356.11
101356.1
101356.09
101356.07
101356.05
101356.04
101356.03
101356.03
101356.04
101356.07
101356.1
101356.17
101356.19
101356.29
101722.28
101705.78
101688.43
101671.5
101654.58
101637.86
101621.48
101605.51
101590.05
101575.14
101560.85
101547.22
101534.29
101522.09
101510.65
101499.99
101490.12
101481.06
101472.8
101465.33
101458.64
101452.7
101447.48
101442.95
101439.06
101435.75
101432.98
101430.68
101428.76
101427.14
101425.74
101424.48
101423.37
101422
101418.48
101416.31
101415.74
101413.47
101410.27
101406.85
101403.1
101398.73
101394.91
101391.5
101388.02
101384.64
101381.47
101378.52
101375.78
101373.25
101370.93
101368.8
101366.84
101365.05
101363.43
101361.96
101360.63
101359.42
101358.31
101357.3
101356.39
101355.55
101354.8
101354.14
101353.53
101352.95
101352.49
101352.08
101351.67
101351.43
101351.23
101350.99
101350.94
101350.95
101350.86
101350.94
101351.07
101351.1
101351.24
101351.41
101351.51
101351.68
101351.87
101352.03
101352.25
101352.47
101352.7
101352.97
101353.21
101353.48
101353.73
101353.97
101354.21
101354.43
101354.64
101354.85
101355.04
101355.25
101355.45
101355.63
101355.81
101355.99
101356.15
101356.3
101356.44
101356.57
101356.68
101356.79
101356.87
101356.92
101356.96
101356.97
101356.96
101356.94
101356.92
101356.89
101356.85
101356.82
101356.8
101356.78
101356.77
101356.77
101356.79
101356.81
101356.88
101356.9
101356.99
101733.33
101720.95
101704.87
101688.64
101672.61
101656.89
101641.5
101626.49
101611.92
101597.86
101584.34
101571.42
101559.12
101547.48
101536.53
101526.28
101516.74
101507.93
101499.84
101492.47
101485.79
101479.79
101474.43
101469.69
101465.5
101461.84
101458.62
101455.79
101453.27
101450.98
101448.84
101446.8
101444.84
101442.1
101437.56
101435.19
101433.2
101429.45
101425.09
101420.65
101415.87
101411.24
101407.19
101402.97
101398.95
101395.14
101391.58
101388.25
101385.15
101382.28
101379.61
101377.15
101374.88
101372.78
101370.86
101369.11
101367.5
101366.03
101364.66
101363.41
101362.25
101361.19
101360.22
101359.33
101358.51
101357.75
101357.08
101356.48
101355.93
101355.5
101355.13
101354.77
101354.57
101354.4
101354.19
101354.15
101354.15
101354.05
101354.08
101354.14
101354.13
101354.2
101354.29
101354.36
101354.49
101354.63
101354.77
101354.96
101355.13
101355.33
101355.51
101355.68
101355.86
101356.02
101356.17
101356.33
101356.47
101356.62
101356.78
101356.92
101357.05
101357.19
101357.31
101357.42
101357.53
101357.63
101357.71
101357.78
101357.84
101357.87
101357.87
101357.86
101357.83
101357.79
101357.75
101357.7
101357.65
101357.61
101357.57
101357.54
101357.52
101357.51
101357.52
101357.54
101357.6
101357.62
101357.71
101745.72
101736.52
101723.2
101706.97
101691.36
101676.39
101661.84
101647.66
101633.91
101620.62
101607.82
101595.57
101583.88
101572.78
101562.29
101552.44
101543.23
101534.66
101526.74
101519.46
101512.8
101506.74
101501.24
101496.27
101491.78
101487.72
101484.03
101480.65
101477.49
101474.47
101471.53
101468.68
101465.83
101461.29
101456.35
101453.55
101449.68
101444.57
101439.08
101433.82
101428.81
101423.81
101418.91
101414.21
101409.76
101405.57
101401.64
101397.94
101394.49
101391.27
101388.28
101385.5
101382.92
101380.53
101378.32
101376.28
101374.4
101372.66
101371.04
101369.55
101368.16
101366.86
101365.67
101364.56
101363.54
101362.59
101361.73
101360.94
101360.23
101359.62
101359.08
101358.59
101358.22
101357.9
101357.59
101357.41
101357.25
101357.04
101356.97
101356.91
101356.79
101356.75
101356.75
101356.72
101356.77
101356.82
101356.88
101356.99
101357.08
101357.2
101357.33
101357.42
101357.54
101357.64
101357.73
101357.84
101357.93
101358.03
101358.13
101358.23
101358.32
101358.41
101358.5
101358.57
101358.64
101358.71
101358.76
101358.8
101358.82
101358.83
101358.81
101358.77
101358.72
101358.66
101358.6
101358.53
101358.47
101358.41
101358.36
101358.31
101358.28
101358.26
101358.27
101358.28
101358.33
101358.35
101358.44
101759.78
101752.58
101739.56
101724.35
101709.93
101695.98
101682.32
101668.98
101656.01
101643.45
101631.34
101619.72
101608.6
101598.02
101587.98
101578.51
101569.6
101561.27
101553.51
101546.31
101539.65
101533.51
101527.84
101522.62