/*--------------------------------*- C++ -*----------------------------------*\
| =========                 |                                                 |
| \\      /  F ield         | OpenFOAM: The Open Source CFD Toolbox           |
|  \\    /   O peration     | Version:  2406                                  |
|   \\  /    A nd           | Website:  www.openfoam.com                      |
|    \\/     M anipulation  |                                                 |
\*---------------------------------------------------------------------------*/
FoamFile
{
    version     2.0;
    format      ascii;
    arch        "LSB;label=32;scalar=64";
    class       volScalarField;
    location    "0.013";
    object      Ma;
}
// * * * * * * * * * * * * * * * * * * * * * * * * * * * * * * * * * * * * * //

dimensions      [0 0 0 0 0 0 0];

internalField   nonuniform List<scalar> 
8260
(
0.14707368
0.14825032
0.1494668
0.15075817
0.15205272
0.15332414
0.15458209
0.15582441
0.15715133
0.15865203
0.16016484
0.1617202
0.1632613
0.16465097
0.16537315
0.1648984
0.16232492
0.15884863
0.15696821
0.15585922
0.15494751
0.15407476
0.15331998
0.15276611
0.1522963
0.15188704
0.15154372
0.15125385
0.15101648
0.15086991
0.1507756
0.14330222
0.14483859
0.14647793
0.14813635
0.14978202
0.15139937
0.15298723
0.15455405
0.15615513
0.15783227
0.15951179
0.16119144
0.16281101
0.164225
0.16490356
0.16430274
0.16162109
0.15828653
0.1566185
0.15560342
0.15474622
0.15391341
0.15319025
0.15266378
0.15221382
0.15181969
0.15148898
0.15120821
0.15097762
0.15083587
0.15074433
0.13895624
0.14084456
0.14293012
0.14501421
0.14706266
0.14906719
0.15102381
0.15293677
0.15483917
0.15675211
0.15863284
0.16046643
0.16219022
0.163647
0.16430636
0.16360626
0.16082711
0.15771177
0.15625109
0.15532279
0.15452443
0.15373603
0.15304622
0.1525489
0.15212097
0.1517439
0.15142736
0.15115671
0.15093365
0.15079727
0.15070877
0.13479502
0.13697685
0.139397
0.14183599
0.14424384
0.14660611
0.14891268
0.15115826
0.15335765
0.15552116
0.15761325
0.15961106
0.16144705
0.16294499
0.16357859
0.1627567
0.15989501
0.15707112
0.15582717
0.15499661
0.15426531
0.15352822
0.15287868
0.15241591
0.1520136
0.15165633
0.15135635
0.15109752
0.15088329
0.15075315
0.15066827
0.13094309
0.13333645
0.13598712
0.13869472
0.14139873
0.14407206
0.14669459
0.14924972
0.15173419
0.15414533
0.15645016
0.15861603
0.16056693
0.16210006
0.16269082
0.16171684
0.15881225
0.15637855
0.15535006
0.15462584
0.15397052
0.15329206
0.15268886
0.15226501
0.15189173
0.15155687
0.15127573
0.15103031
0.15082609
0.15070295
0.15062219
0.12750281
0.13002616
0.13281194
0.13569481
0.13861345
0.14153002
0.14441397
0.14723721
0.14997959
0.15262309
0.15513195
0.15746152
0.15952325
0.16107913
0.16159872
0.16044552
0.15757733
0.15562927
0.15481002
0.15420326
0.15363328
0.15302151
0.15247212
0.15209273
0.15175277
0.15144332
0.15118365
0.15095364
0.15076097
0.15064571
0.15056977
0.12458137
0.12716622
0.12999909
0.13295886
0.13599545
0.13906738
0.14213663
0.14516516
0.14811818
0.15096191
0.15365158
0.15612788
0.15828475
0.15983849
0.16024413
0.15889286
0.15621665
0.15481718
0.15420203
0.15372361
0.15324893
0.15271358
0.15222572
0.15189663
0.15159507
0.15131444
0.15107891
0.15086645
0.15068709
0.1505806
0.1505102
0.12236052
0.12489187
0.12766863
0.13060193
0.13365187
0.13677833
0.1399399
0.14309167
0.14618741
0.14917866
0.1520072
0.15459552
0.15681345
0.15832101
0.15855383
0.15699932
0.15477497
0.15392976
0.15351891
0.15318072
0.15281078
0.15236343
0.15194569
0.151673
0.1514157
0.15116819
0.15095978
0.15076716
0.15060331
0.15050657
0.15044266
0.12084926
0.12324651
0.12588379
0.12869885
0.1316637
0.13474263
0.13789522
0.14107443
0.14422697
0.14729223
0.15019641
0.15283935
0.15505667
0.1564514
0.1564339
0.15476489
0.1533162
0.1529602
0.15275483
0.15256667
0.1523124
0.15196656
0.15162961
0.15141821
0.15121125
0.15100232
0.15082467
0.15065428
0.15050834
0.15042248
0.15036617
0.12002733
0.12223407
0.12467179
0.12729397
0.13008247
0.13301333
0.13605244
0.13915518
0.14226529
0.14531268
0.14820726
0.15082064
0.15293856
0.1541099
0.15375327
0.15235751
0.15187268
0.15189633
0.15190168
0.15187053
0.15174812
0.15151716
0.15127479
0.15112795
0.15097735
0.15081335
0.15067119
0.15052593
0.15040032
0.15032674
0.15027941
0.11978969
0.12176087
0.12395075
0.12632421
0.12886933
0.1315707
0.1344046
0.13733223
0.14029681
0.14322049
0.1459961
0.14845913
0.15032293
0.15107809
0.15053007
0.15011085
0.15040953
0.15074093
0.1509566
0.15108682
0.15111273
0.15100978
0.15087586
0.15079843
0.15071032
0.15059732
0.15049603
0.15037991
0.15027683
0.15021721
0.1501805
0.12010723
0.12177178
0.12364002
0.12569092
0.12792344
0.13032593
0.13287713
0.13553923
0.13825189
0.14092645
0.14343178
0.14554676
0.14693803
0.14729808
0.14741323
0.14810876
0.14892334
0.14950774
0.14991888
0.15021798
0.1504059
0.15043785
0.15042292
0.15042755
0.15040763
0.15034996
0.15029467
0.15021308
0.15013487
0.15009099
0.1500668
0.12049052
0.1218514
0.12340631
0.12513025
0.1270174
0.12906607
0.13126054
0.1335599
0.13589315
0.13815836
0.14022516
0.14187276
0.14285375
0.14362463
0.14491692
0.14628557
0.14736298
0.14820451
0.14881788
0.14928069
0.14962034
0.1498064
0.14990916
0.15001569
0.15006785
0.15006768
0.15006262
0.15002152
0.14997121
0.14994485
0.14993498
0.12052745
0.12162806
0.12288759
0.12429802
0.12586153
0.12755801
0.12935929
0.13123047
0.13310678
0.13489944
0.13651145
0.1379394
0.13939605
0.1411516
0.14290389
0.1444462
0.14578332
0.14684868
0.14767369
0.14829634
0.14878744
0.14910634
0.14934358
0.14955786
0.14969037
0.14974907
0.1497965
0.14980101
0.14978243
0.14977567
0.14978153
0.12026714
0.12096609
0.12185008
0.12292864
0.1242181
0.12562599
0.12708911
0.12863629
0.13025859
0.131923
0.13361999
0.1354367
0.13742791
0.13932434
0.1410719
0.14273386
0.14419804
0.14545438
0.14648802
0.14729473
0.1479185
0.148372
0.14872972
0.14904995
0.14927463
0.14939577
0.14949445
0.14954888
0.14956534
0.14958122
0.14960346
0.12140638
0.12193315
0.12250785
0.12313746
0.12388368
0.12482789
0.12596351
0.12728031
0.1287332
0.13029581
0.13202128
0.13394496
0.13588349
0.13771107
0.13951521
0.14120603
0.1427271
0.14406742
0.14526324
0.14624938
0.1470419
0.14762274
0.14807221
0.14849057
0.14881723
0.14901003
0.14915791
0.14926203
0.14931887
0.14936044
0.14939899
0.12283333
0.1233691
0.12397315
0.12464226
0.12533999
0.12608558
0.12689281
0.12766423
0.1285479
0.12974381
0.13125219
0.13280055
0.13446668
0.13625155
0.13815098
0.13989578
0.14146027
0.14282016
0.14405808
0.14516745
0.14611824
0.14685239
0.14739567
0.14789104
0.14831001
0.14858795
0.14879091
0.14894177
0.14904258
0.1491139
0.14916763
0.12425928
0.12459829
0.12499404
0.12545849
0.12600827
0.12666889
0.12748296
0.12847727
0.12946101
0.13037243
0.13119091
0.13234479
0.13373178
0.13527648
0.13688755
0.13861131
0.14031356
0.14176133
0.14299448
0.14411148
0.1451415
0.14603909
0.14670766
0.1472614
0.14775645
0.14812517
0.14839515
0.14859262
0.14873765
0.14884272
0.14890989
0.12610811
0.12642105
0.1267791
0.1271828
0.12763288
0.12812391
0.12864375
0.12919364
0.12983823
0.13067142
0.13169838
0.13260637
0.1335731
0.13483939
0.13615719
0.13749559
0.13903139
0.14070258
0.14206748
0.14318967
0.14419524
0.14519879
0.14599273
0.14662005
0.14717706
0.1476199
0.14797089
0.14822008
0.14840685
0.14854759
0.14862625
0.12763371
0.1278396
0.12807773
0.12835372
0.12867757
0.12906303
0.12952953
0.13009048
0.1307301
0.13140542
0.13210921
0.13301707
0.1339852
0.13480791
0.13583473
0.13690728
0.13814786
0.13952101
0.14105298
0.14235484
0.14338397
0.14440055
0.14527111
0.14596966
0.14659407
0.14708263
0.14751527
0.14782774
0.14805259
0.14822834
0.14831771
0.1293843
0.12957184
0.12978685
0.13003123
0.13030798
0.130619
0.13096268
0.13133819
0.13176031
0.13226327
0.1328667
0.1334877
0.13415646
0.13504904
0.1358352
0.13674467
0.13773399
0.13886427
0.14009246
0.14140909
0.14263985
0.1437124
0.14459154
0.14529107
0.14600745
0.14653745
0.14702243
0.14741356
0.14767746
0.14788388
0.14798513
0.13079552
0.13091305
0.13104871
0.13120575
0.1313897
0.1316074
0.13186701
0.13217787
0.13254453
0.13296118
0.13342635
0.13398882
0.134632
0.13521203
0.13602563
0.13689596
0.13762015
0.13852274
0.13955272
0.14061283
0.14183315
0.14305188
0.14395553
0.14458096
0.1453873
0.14600017
0.14649545
0.14696831
0.14728255
0.14751281
0.14762872
0.13241698
0.13252477
0.13264829
0.13278896
0.13294871
0.13312908
0.13333075
0.13355376
0.13380101
0.13408366
0.13441534
0.13478518
0.13521021
0.1357662
0.13627674
0.13693449
0.13774224
0.13843467
0.13923539
0.14016289
0.14119687
0.14231426
0.14331903
0.1439085
0.14469489
0.14546418
0.14596134
0.1464833
0.14686253
0.14711394
0.14724641
0.13366011
0.13372051
0.13379009
0.13387065
0.13396552
0.13407999
0.1342173
0.13438177
0.13457988
0.13481766
0.13510517
0.13545957
0.13587919
0.1363277
0.13685089
0.1372993
0.13785836
0.13851514
0.1391182
0.13990782
0.14081111
0.14168434
0.14269216
0.14338369
0.14401763
0.1448932
0.14545325
0.14597168
0.14640913
0.14668762
0.14683642
0.13505224
0.13511243
0.13518071
0.13525718
0.13534157
0.13543278
0.13553424
0.13565112
0.13578778
0.13594764
0.13612893
0.13633206
0.13657407
0.13688455
0.13725778
0.13771981
0.13811924
0.13854939
0.13919645
0.13984709
0.14054674
0.14128903
0.14218232
0.14303254
0.1435529
0.14429003
0.14496547
0.14546833
0.14593043
0.14623709
0.14640266
0.13595612
0.13598816
0.13602602
0.13607054
0.13612324
0.13618619
0.13626137
0.13635075
0.13645671
0.13658206
0.13672958
0.13689995
0.13709142
0.13732568
0.13761088
0.13796637
0.13841237
0.138852
0.1393549
0.13991166
0.14043627
0.14101456
0.14171778
0.14262321
0.14325573
0.14377078
0.1444706
0.14499207
0.14544692
0.14577071
0.14595337
0.13707922
0.13711092
0.13714614
0.13718591
0.13723143
0.13728406
0.13734524
0.13741657
0.13749981
0.13759691
0.1377099
0.1378401
0.13798421
0.13812763
0.13829823
0.13853746
0.13884405
0.13924513
0.13958114
0.13993372
0.14041997
0.14090402
0.14138954
0.14206073
0.14285811
0.14339547
0.14397998
0.14452519
0.14496628
0.14529393
0.14548918
0.13770417
0.13772532
0.13775075
0.13778126
0.13781772
0.13786104
0.13791219
0.13797216
0.138042
0.13812291
0.13821692
0.13832887
0.13846832
0.13864105
0.1388373
0.13901818
0.13922487
0.1394549
0.13975536
0.14009868
0.14050787
0.14089857
0.14129673
0.14183697
0.14244702
0.14304586
0.14353384
0.14405236
0.14448557
0.14480696
0.14500692
0.138405
0.13842668
0.13845175
0.13848083
0.13851473
0.13855435
0.1386006
0.1386542
0.13871551
0.1387845
0.13886084
0.13894307
0.13902676
0.13910404
0.13917685
0.13928683
0.139452
0.13966846
0.1399543
0.14030971
0.14065938
0.14105548
0.14142813
0.14179212
0.14223321
0.14267884
0.14315779
0.14361496
0.14402888
0.14434364
0.1445425
0.13881668
0.1388351
0.13885685
0.1388826
0.13891312
0.13894917
0.13899146
0.13904045
0.13909629
0.13915877
0.13922763
0.13930326
0.13938762
0.13948628
0.139611
0.13974867
0.13989739
0.14007363
0.14028455
0.14053397
0.1408159
0.14111357
0.14144577
0.14177147
0.14207665
0.14246489
0.14288518
0.14330009
0.14368036
0.14398395
0.14417386
0.13916276
0.13918192
0.13920435
0.13923031
0.13926026
0.13929482
0.13933447
0.13937953
0.13943052
0.13948747
0.1395504
0.13961918
0.13969429
0.1397778
0.13987
0.13997686
0.14010188
0.14025152
0.14042946
0.1406382
0.1408748
0.14112741
0.14139038
0.14167684
0.14199568
0.14235705
0.14274797
0.14313995
0.14350269
0.14379777
0.14398143
0.079410726
0.096498955
0.10785268
0.1162999
0.12329237
0.12965963
0.135532
0.14055383
0.14545273
0.15001307
0.15419087
0.15798673
0.16141518
0.16445934
0.16708536
0.16911353
0.17012086
0.16971604
0.16699637
0.16294958
0.16022507
0.1584185
0.15698491
0.15583599
0.15485399
0.15402144
0.15333606
0.15278762
0.15236474
0.15208408
0.15191589
0.10229165
0.11090519
0.11750779
0.12325487
0.12881489
0.13420938
0.13926621
0.14392264
0.14833222
0.15240027
0.15612941
0.15953705
0.16263402
0.16539164
0.16776241
0.16950723
0.17021205
0.16947658
0.16640924
0.16242761
0.1599193
0.15820363
0.15681514
0.15569876
0.15474144
0.15392965
0.15326062
0.15272467
0.15231043
0.15203566
0.15187422
0.10905395
0.11532141
0.1212878
0.12703807
0.13253242
0.13765577
0.14234528
0.14663244
0.15061861
0.15428843
0.1576644
0.16076634
0.16359865
0.16612365
0.16828301
0.16978413
0.17022849
0.1691899
0.1658311
0.16200179
0.15966902
0.15801132
0.15665662
0.15556811
0.15463351
0.15384106
0.15318715
0.15266278
0.1522565
0.15198727
0.15182918
0.11529456
0.12124006
0.12681883
0.13200275
0.13683374
0.14131245
0.14542989
0.14922642
0.15276184
0.15603558
0.15907045
0.16188227
0.16446555
0.16677197
0.16872666
0.16997223
0.17018639
0.16883739
0.16525586
0.16158796
0.15940873
0.15780914
0.15649129
0.15543264
0.15452186
0.15374967
0.15311168
0.15259953
0.15220171
0.15193837
0.15178364
0.12197801
0.12725628
0.13210904
0.13661373
0.14081796
0.14471321
0.14830385
0.15163057
0.15473651
0.15763534
0.16035014
0.16289131
0.16524211
0.16734268
0.16909249
0.17009987
0.17010387
0.16844176
0.16466983
0.16120043
0.15916155
0.1576122
0.1563286
0.15529856
0.15441109
0.15365875
0.15303632
0.15253612
0.15214661
0.15188913
0.15173753
0.12907634
0.13338805
0.1374046
0.14116718
0.14468715
0.14796035
0.15100555
0.15385523
0.1565428
0.15908556
0.16150113
0.16379122
0.16592629
0.16783406
0.1693816
0.17016999
0.16999293
0.16799494
0.16408896
0.16083597
0.15891788
0.15741474
0.15616502
0.15516344
0.15429926
0.15356685
0.1529601
0.15247197
0.1520909
0.15183943
0.15169108
0.13612098
0.139458
0.14259759
0.1455635
0.14836321
0.1510049
0.15350545
0.15588816
0.15817679
0.1603854
0.16252327
0.16458178
0.16651815
0.16824777
0.16960196
0.17020433
0.16982852
0.16749799
0.16351978
0.16049327
0.15868
0.15721928
0.15600245
0.15502869
0.15418756
0.15347488
0.15288364
0.15240748
0.15203482
0.15178938
0.15164432
0.14318373
0.14543964
0.14761506
0.14973788
0.15180898
0.15382462
0.15579291
0.1577269
0.15963942
0.16153702
0.16341884
0.16526516
0.16702031
0.16858839
0.16976596
0.17020555
0.16960776
0.1669572
0.1629721
0.1601697
0.15844573
0.15702482
0.15584026
0.15489383
0.1540756
0.15338252
0.15280674
0.15234252
0.15197829
0.15173897
0.15159726
0.14989225
0.15106331
0.15229552
0.15360548
0.15497752
0.15639277
0.15785538
0.15936735
0.16093038
0.16254167
0.16418962
0.16584323
0.16743479
0.16885449
0.16986598
0.1701559
0.16932837
0.16637753
0.1624526
0.15986185
0.15821505
0.15683187
0.15567895
0.15475927
0.15396376
0.1532901
0.15272965
0.15227726
0.15192144
0.15168824
0.15154992
0.15598825
0.15617245
0.15656088
0.15711815
0.157833
0.15868829
0.15968257
0.16080553
0.16204881
0.1634001
0.16483688
0.16631731
0.16776239
0.16903997
0.1699004
0.17005767
0.16899423
0.16578607
0.161964
0.15956693
0.15798734
0.15664036
0.15551848
0.15462502
0.15385204
0.15319761
0.15265237
0.15221172
0.15186427
0.15163722
0.15150231
0.16141867
0.1607353
0.16035187
0.16022148
0.1603365
0.16069173
0.16126453
0.1620374
0.16299373
0.16411296
0.16536169
0.16668778
0.16800052
0.16913696
0.16987077
0.16991944
0.16861694
0.1651962
0.16150492
0.15928245
0.15776249
0.15645052
0.15535903
0.15449127
0.15374063
0.1531052
0.15257503
0.15214599
0.15180685
0.15158594
0.15145444
0.16605845
0.16464558
0.16359207
0.16286804
0.16247045
0.16238932
0.16258927
0.16305827
0.16376374
0.16468057
0.16576433
0.16695361
0.16814289
0.16915799
0.1698043
0.16974325
0.16820684
0.1646124
0.16107332
0.1590063
0.15754034
0.15626249
0.1552007
0.15435812
0.15362968
0.15301297
0.15249772
0.15208013
0.15174924
0.15153446
0.15140633
0.16976515
0.1677935
0.16622207
0.16503237
0.1642177
0.16376373
0.16365385
0.16386031
0.16435407
0.16510007
0.16604223
0.16711011
0.16819851
0.1691315
0.16969986
0.1695252
0.16776949
0.16404343
0.16066672
0.15873681
0.15732094
0.15607646
0.15504359
0.1542257
0.15351937
0.15292104
0.15242052
0.15201421
0.15169148
0.15148279
0.151358
0.17246605
0.17012662
0.16820721
0.1666845
0.1655547
0.16481198
0.16444653
0.16443449
0.16474926
0.16535227
0.16618088
0.16716277
0.16819589
0.16905994
0.16954587
0.16926227
0.16731138
0.16349193
0.16028235
0.15847293
0.15710433
0.15589266
0.15488786
0.15409415
0.15340987
0.15282951
0.15234353
0.15194832
0.15163364
0.15143096
0.15130946
0.17425844
0.17166813
0.16951867
0.16777501
0.16642894
0.16547719
0.16491775
0.16474246
0.16492927
0.16543856
0.16621058
0.167149
0.16812961
0.16893184
0.16934296
0.16895617
0.16683614
0.16296078
0.15991819
0.1582139
0.15689067
0.1557113
0.15473365
0.15396379
0.15330119
0.15273849
0.15226684
0.15188251
0.15157576
0.15137902
0.15126072
0.17534426
0.17259119
0.17026645
0.16836072
0.16686854
0.16578237
0.16509715
0.16483972
0.16497397
0.16543014
0.16615547
0.16705384
0.16798738
0.16874685
0.16909836
0.16861726
0.1663502
0.16245193
0.15957221
0.15795938
0.1566801
0.15553259
0.15458111
0.15383478
0.15319345
0.15264807
0.15219053
0.15181685
0.1515179
0.151327
0.15121179
0.17584676
0.17305807
0.17064166
0.16863369
0.16704809
0.16588322
0.16513493
0.16482619
0.16490827
0.16531183
0.16598607
0.16685375
0.16776724
0.16850551
0.16881417
0.16825046
0.16586127
0.16196632
0.15924121
0.15770906
0.15647273
0.15535666
0.15443035
0.15370719
0.15308683
0.15255836
0.15211468
0.15175143
0.15146013
0.15127493
0.1511627
0.17509837
0.17261262
0.1703763
0.16845216
0.16688994
0.165722
0.16496876
0.16462679
0.16465825
0.16503261
0.16568949
0.1665507
0.16746839
0.16820858
0.16849249
0.16786033
0.16537594
0.16150383
0.15892328
0.15746281
0.15626859
0.15518361
0.1542815
0.15358117
0.15298141
0.15246945
0.1520394
0.15168632
0.1514025
0.15122285
0.15111345
0.1731612
0.17106355
0.16916893
0.16751733
0.16614935
0.16510879
0.16443885
0.16414223
0.16419748
0.16459107
0.16526489
0.16614549
0.16709033
0.16785684
0.168136
0.16745439
0.16489963
0.16106448
0.15861667
0.15722045
0.15606777
0.1550136
0.15413478
0.15345693
0.15287738
0.1523815
0.1519648
0.15162164
0.15134511
0.15117081
0.15106408
0.17053109
0.16881327
0.16728244
0.16596357
0.16487686
0.16405889
0.16356206
0.16338332
0.16352573
0.16398743
0.16471278
0.16563857
0.16663291
0.16745083
0.16774764
0.16703865
0.16443623
0.16064753
0.15832006
0.15698238
0.15587082
0.15484721
0.15399076
0.1533349
0.15277506
0.15229475
0.15189106
0.15155749
0.15128803
0.15111884
0.1510146
0.16712917
0.16589391
0.16480767
0.16388916
0.16314983
0.16262965
0.16236764
0.16236142
0.16264917
0.16322338
0.16403441
0.1650313
0.16609653
0.166991
0.16733021
0.16661776
0.16398893
0.16025355
0.15803449
0.15675023
0.15567923
0.15468565
0.15385042
0.15321573
0.15267485
0.15220946
0.15181833
0.15149396
0.1512313
0.15106694
0.15096499
0.16294689
0.16229011
0.16175186
0.16132067
0.16100706
0.16084696
0.16085997
0.16108701
0.16157039
0.16229808
0.16322848
0.16432293
0.16547999
0.16647606
0.16688514
0.16619775
0.16356339
0.15988846
0.1577635
0.15652668
0.15549478
0.15453014
0.15371456
0.15309983
0.15257692
0.15212567
0.15174657
0.15143099
0.15117485
0.15101506
0.15091524
0.15791612
0.15789068
0.15800874
0.15818334
0.1583915
0.158656
0.15901999
0.15953831
0.16026911
0.16119581
0.16228236
0.16350404
0.1647755
0.1658994
0.16640985
0.16578455
0.163169
0.15956045
0.15750961
0.15631131
0.15531637
0.15437946
0.15358205
0.15298622
0.15248043
0.15204276
0.15167538
0.15136832
0.15111849
0.15096312
0.15086528
0.15217983
0.15251378
0.15320816
0.15405249
0.15491435
0.15575368
0.15661509
0.15752404
0.15860029
0.15981291
0.16111777
0.16251381
0.16393449
0.16522283
0.1658815
0.16536951
0.16281728
0.15926249
0.15726233
0.15609512
0.1551366
0.15422805
0.15344898
0.15287235
0.15238375
0.15195982
0.15160429
0.15130578
0.15106221
0.15091127
0.1508152
0.072732265
0.091617761
0.10400308
0.11316601
0.12063537
0.12724638
0.13333861
0.13877092
0.14388969
0.14866968
0.15306889
0.15707244
0.16068774
0.16389902
0.16667415
0.16886759
0.17005146
0.16982805
0.16731046
0.16327392
0.16043738
0.15858247
0.15712086
0.15594828
0.15494624
0.1540966
0.15339786
0.1528392
0.15240924
0.15212351
0.15194684
0.07177667
0.091452408
0.10372504
0.11287384
0.12031471
0.12685095
0.13284366
0.13828629
0.14338914
0.14817946
0.15261974
0.15668255
0.16036302
0.16363987
0.16647234
0.16873203
0.16996785
0.16984785
0.16744911
0.16343275
0.16054372
0.15867274
0.15720252
0.15602
0.1550079
0.1541487
0.15344214
0.15287714
0.15244278
0.15215365
0.15197412
0.071427061
0.091350916
0.10370351
0.11271172
0.12000032
0.12641361
0.13229908
0.13770018
0.14278602
0.14759215
0.15207945
0.15620958
0.15996529
0.16331898
0.16622226
0.16856162
0.16987589
0.16984775
0.16760175
0.16360575
0.16065088
0.15876009
0.15728232
0.15609109
0.15506987
0.15420175
0.15348786
0.15291677
0.15247817
0.15218574
0.15200614
0.070874082
0.091032505
0.10351821
0.11242034
0.11961375
0.12593564
0.1317364
0.1370999
0.14217253
0.14699053
0.15151817
0.15571039
0.15953883
0.16296947
0.16594713
0.16836871
0.1697733
0.16984277
0.16775344
0.16379488
0.16077095
0.15885619
0.15736935
0.15616832
0.15513702
0.15425926
0.15353735
0.15295963
0.15251636
0.15222012
0.15204504
0.070016928
0.090306648
0.10305176
0.11200824
0.11918864
0.12545711
0.13119231
0.136523
0.14157886
0.14639873
0.15095461
0.15519865
0.1590931
0.16259728
0.16564974
0.16815217
0.16965442
0.1698308
0.16789756
0.16399414
0.160902
0.1589611
0.15746426
0.15625254
0.15521009
0.15432152
0.1535908
0.15300582
0.1525574
0.152257
0.1520843
0.069011316
0.089363814
0.10243959
0.1115512
0.11876196
0.12500045
0.13068299
0.13597946
0.14101178
0.14582294
0.15039431
0.1546785
0.15863057
0.16220323
0.16532904
0.16790827
0.16951678
0.16980751
0.16803288
0.16419711
0.16103962
0.15907141
0.15756446
0.15634183
0.15528773
0.15438785
0.15364779
0.15305511
0.15260118
0.15229648
0.15211713
0.068004798
0.088301935
0.10174043
0.11105657
0.11833072
0.12456009
0.13020288
0.13546456
0.14046805
0.14526196
0.14983742
0.15415037
0.15815115
0.1617864
0.16498287
0.16763329
0.16935718
0.16977018
0.16816015
0.16440375
0.16118177
0.15918499
0.15766826
0.15643505
0.15536918
0.15445792
0.15370818
0.15310748
0.1526478
0.15233835
0.15215126
0.066995764
0.08711032
0.10092331
0.11049639
0.11787687
0.12412453
0.12974355
0.13497325
0.13994475
0.14471457
0.14928391
0.1536145
0.1576546
0.16134573
0.16460909
0.16732604
0.16916455
0.16971495
0.16826887
0.16461788
0.16132822
0.1593014
0.15777539
0.15653212
0.15545444
0.15453123
0.15377163
0.15316272
0.1526971
0.15238293
0.15219373
0.065973612
0.08577663
0.099972854
0.10985763
0.11739116
0.12368765
0.12930038
0.13450302
0.13944082
0.14418061
0.14873451
0.15307194
0.15714159
0.16088121
0.16420692
0.16698926
0.16893951
0.16963689
0.16835717
0.16483231
0.16147916
0.15942043
0.15788533
0.15663254
0.15554315
0.1546082
0.15383854
0.1532212
0.15274944
0.15243034
0.1522419
0.064988769
0.084339349
0.098899925
0.10914415
0.1168751
0.12324947
0.12887193
0.13405226
0.13895484
0.14365898
0.14818856
0.15252232
0.15661159
0.16039181
0.16377486
0.16662337
0.16868137
0.16953217
0.16843111
0.16504507
0.16163451
0.15954204
0.15799831
0.15673673
0.15563573
0.15468888
0.15390899
0.15328302
0.15280492
0.15248071
0.15228897
0.064135025
0.082870377
0.097742454
0.10837709
0.1163395
0.12281478
0.12845922
0.13362033
0.13848521
0.14314805
0.14764498
0.15196506
0.15606417
0.15987694
0.16331206
0.16622709
0.16838615
0.16938275
0.16847999
0.16525661
0.16179392
0.15966567
0.15811385
0.15684438
0.15573202
0.1547733
0.15398307
0.15334832
0.15286369
0.1525342
0.15233856
0.0635423
0.081487593
0.096542913
0.10757152
0.1157946
0.1223893
0.12806354
0.13320577
0.13802887
0.14264408
0.14710036
0.15139747
0.15549714
0.15933469
0.16281665
0.16579786
0.16805673
0.16920395
0.16849421
0.16545457
0.16195651
0.15979054
0.15823133
0.1569551
0.15583182
0.15486139
0.15406079
0.15341716
0.15292585
0.15259095
0.15239158
0.063353266
0.08032864
0.095384676
0.10676651
0.11525597
0.12197885
0.1276852
0.13280546
0.13758094
0.14214165
0.1465496
0.15081538
0.15490736
0.15876264
0.16228655
0.16533322
0.16769183
0.16899071
0.16847777
0.16562866
0.16212142
0.15991563
0.1583499
0.15706835
0.15593479
0.154953
0.15414214
0.15348962
0.15299152
0.1526511
0.15244772
0.063516333
0.07949703
0.094376686
0.10601682
0.11474778
0.12159063
0.12732203
0.13241243
0.13713229
0.14163136
0.1459844
0.15021217
0.15428985
0.15815705
0.16171895
0.16483031
0.167288
0.16873088
0.16842479
0.16578712
0.16228751
0.16003985
0.15846883
0.1571835
0.15604046
0.15504799
0.15422706
0.15356575
0.15306081
0.15271478
0.15250712
0.064246628
0.079298779
0.093671695
0.10539946
0.11429975
0.12122786
0.12696443
0.13201193
0.13666722
0.14109842
0.14539212
0.14957788
0.15363729
0.15751271
0.16111006
0.16428571
0.16684161
0.1684225
0.16832375
0.16592387
0.16245475
0.16016185
0.15858663
0.15729969
0.15614851
0.15514596
0.15431541
0.15364557
0.15313376
0.15278208
0.1525701
0.065755837
0.079666167
0.09341547
0.10493556
0.11386645
0.12083753
0.12656765
0.1315679
0.1361567
0.14051945
0.14475445
0.14889862
0.15293954
0.15682264
0.16045488
0.16369536
0.16634975
0.16806253
0.16816717
0.16602861
0.16261794
0.1602804
0.15870319
0.15741628
0.1562578
0.15524677
0.15440708
0.15372905
0.1532105
0.15285314
0.15263663
0.067847754
0.080720581
0.093559564
0.10464553
0.11347307
0.12041468
0.12610198
0.13104175
0.13556356
0.13986288
0.14404615
0.14815562
0.15218336
0.15607763
0.15974698
0.16305393
0.16580695
0.16764889
0.16796101
0.16609049
0.16278141
0.16039329
0.15881503
0.15753151
0.15636861
0.15534962
0.1545017
0.15381616
0.15329096
0.15292801
0.1527066
0.070534133
0.082381586
0.09414103
0.10461003
0.1131233
0.11990522
0.12549828
0.1303686
0.13483322
0.13908596
0.1432351
0.14732575
0.15135249
0.1552665
0.15897836
0.16235393
0.16520152
0.16717765
0.16773181
0.16612047
0.1629307
0.16049905
0.15892445
0.15764543
0.15647801
0.15545435
0.15459912
0.15390677
0.15337528
0.15300683
0.15278063
0.073653713
0.084427757
0.095058871
0.10456474
0.11255252
0.11910271
0.12460679
0.12944137
0.13388953
0.13813474
0.14228342
0.1463827
0.15042902
0.15437696
0.1581402
0.16158752
0.1645259
0.16663084
0.16742141
0.16611363
0.16304663
0.16059577
0.15902402
0.1577545
0.15658817
0.1555599
0.15469864
0.15400071
0.15346325
0.15308953
0.15285877
0.076758499
0.086323164
0.095694128
0.10425234
0.1116335
0.1179189
0.12334587
0.12818615
0.13267153
0.1369623
0.14115652
0.1453012
0.14939543
0.15339741
0.1572247
0.16075027
0.16378454
0.16603395
0.16705846
0.16606569
0.16315115
0.1606796
0.1591181
0.15785888
0.15669321
0.15566548
0.15480007
0.15409778
0.15355505
0.15317624
0.15294077
0.079215536
0.08755532
0.095694452
0.10337943
0.11024075
0.11629665
0.12168037
0.1265737
0.13115174
0.13554376
0.13983366
0.14406543
0.14824016
0.15231972
0.15622699
0.15984071
0.16297956
0.16537301
0.16661303
0.16593675
0.16325726
0.16075566
0.15920064
0.15795788
0.15679697
0.15577097
0.15490257
0.15419747
0.15365022
0.15326674
0.15302625
0.080623014
0.087876558
0.095150374
0.10203447
0.10843404
0.11429074
0.11965683
0.12463768
0.12935012
0.13388822
0.13831723
0.14267449
0.14696132
0.15114245
0.1551465
0.15885957
0.16211146
0.16465206
0.16610337
0.16572413
0.16333825
0.16081634
0.15926892
0.15803978
0.15689365
0.15587306
0.15500531
0.15429968
0.15374884
0.15336107
0.15311565
0.081029598
0.087457649
0.093904916
0.10022718
0.10628227
0.11199715
0.11737396
0.12246232
0.12733076
0.13204067
0.13663699
0.14114736
0.14557045
0.14987311
0.15398866
0.15781121
0.16118316
0.16387573
0.16554661
0.16548239
0.16333549
0.16082925
0.15932058
0.15812207
0.15698153
0.15597458
0.15510854
0.15440333
0.15385036
0.15345899
0.15320904
0.080580946
0.086313335
0.092193409
0.098099596
0.1039086
0.10953659
0.11494772
0.12015085
0.1251803
0.13006974
0.13484482
0.13952179
0.14409462
0.14853059
0.15276682
0.15670494
0.16020011
0.16304375
0.16492546
0.16520777
0.16330196
0.16083832
0.15938058
0.15818339
0.15706733
0.15606921
0.155209
0.15450854
0.15395431
0.1535601
0.15330629
0.079450559
0.08464441
0.090106844
0.095723855
0.10138033
0.10697843
0.11245488
0.11778781
0.1229832
0.12805195
0.13300535
0.13784956
0.14257375
0.14714473
0.15150271
0.15555606
0.15917154
0.16215726
0.16422567
0.16482774
0.16323014
0.16086949
0.15938396
0.15820693
0.15712793
0.15615916
0.15531003
0.15461378
0.15406065
0.15366458
0.15340719
0.077793714
0.082602908
0.087759663
0.093173736
0.098743521
0.10436318
0.10994519
0.11543292
0.1208043
0.12605504
0.13118383
0.13618887
0.14105657
0.14575442
0.15022614
0.15438666
0.15811326
0.1612292
0.16346759
0.16434013
0.16315526
0.16087015
0.1593559
0.15822043
0.15719979
0.15624433
0.15540505
0.15471896
0.1541675
0.15377091
0.15351097
0.075895031
0.080388914
0.085292295
0.090540407
0.096050422
0.10171651
0.10743207
0.11310805
0.11868403
0.12413076
0.12943728
0.13459644
0.13959496
0.14440398
0.14897297
0.15322467
0.15704712
0.16027916
0.16267788
0.16382157
0.16302076
0.16083566
0.15931526
0.15822739
0.15723708
0.15631349
0.15549786
0.15482337
0.15427654
0.15388065
0.15361821
0.074050624
0.078292347
0.082981288
0.088074788
0.093512637
0.099201516
0.10502989
0.1108853
0.11667256
0.12232691
0.12781559
0.13312371
0.13823884
0.14313857
0.14778161
0.15210108
0.15599713
0.15932457
0.16186465
0.16324872
0.16279285
0.16078536
0.15929014
0.15821982
0.15724159
0.1563797
0.155587
0.15492462
0.15438332
0.15399002
0.15372677
0.072732848
0.076750895
0.081229558
0.086147981
0.091468959
0.097116782
0.10298641
0.10895558
0.11490478
0.12073601
0.12638672
0.13182575
0.1370363
0.14200079
0.14668844
0.15104588
0.15498705
0.15838313
0.16103898
0.16262915
0.16249121
0.16072366
0.1592156
0.15817659
0.15726928
0.15643455
0.15566249
0.15502492
0.15449236
0.15410308
0.15383752
0.07225329
0.076083128
0.080369387
0.085107277
0.090273065
0.095807087
0.10161841
0.10758865
0.11359229
0.11951331
0.12526099
0.13078041
0.13604284
0.14103173
0.14572564
0.15008439
0.15403699
0.15747096
0.16021326
0.16197801
0.16219613
0.160601
0.15910266
0.15813623
0.1572736
0.15646339
0.15574405
0.15511975
0.15459607
0.15421278
0.15394774
0.072695454
0.07634593
0.080458704
0.085027122
0.090022247
0.095400056
0.10108179
0.10695854
0.11290733
0.11880346
0.12454583
0.13006025
0.13530458
0.14026053
0.144913
0.1492316
0.15315922
0.15659823
0.15939469
0.1612955
0.16178608
0.16044817
0.15901591
0.15809386
0.15725698
0.15649261
0.15580825
0.15520757
0.15470065
0.15432513
0.15405834