/*--------------------------------*- C++ -*----------------------------------*\
| =========                 |                                                 |
| \\      /  F ield         | OpenFOAM: The Open Source CFD Toolbox           |
|  \\    /   O peration     | Version:  2406                                  |
|   \\  /    A nd           | Website:  www.openfoam.com                      |
|    \\/     M anipulation  |                                                 |
\*---------------------------------------------------------------------------*/
FoamFile
{
    version     2.0;
    format      ascii;
    arch        "LSB;label=32;scalar=64";
    class       volScalarField;
    location    "0.013";
    object      omega;
}
// * * * * * * * * * * * * * * * * * * * * * * * * * * * * * * * * * * * * * //

dimensions      [0 0 -1 0 0 0 0];

internalField   nonuniform List<scalar> 
8260
(
19788.892
16868.442
14121.122
11667.589
9544.5175
7736.4701
6214.4308
4946.8704
3902.7625
3051.7326
2365.6578
1818.8506
1387.8964
1051.7364
789.92752
581.89126
399.14354
263.94376
201.10099
170.39111
148.94937
133.53464
123.57214
116.3962
110.69108
106.7945
103.92793
101.97667
100.63969
99.742002
99.239232
16338.822
14073.417
11991.676
10101.725
8413.5807
6929.3804
5644.106
4547.3925
3625.3188
2860.9021
2235.5091
1730.8032
1328.7628
1012.2772
763.23002
562.24645
382.67264
253.47934
197.10203
168.58006
147.91723
132.884
123.09706
116.09257
110.5046
106.69115
103.8658
101.939
100.61631
99.727567
99.230282
13381.401
11712.572
10142.833
8685.1986
7349.8111
6144.5606
5074.1637
4139.3936
3337.0072
2659.6397
2096.6744
1636.0569
1264.707
969.29778
734.03124
540.65374
365.88626
246.44192
194.96589
167.64264
147.4079
132.54567
122.84323
115.92966
110.40454
106.63596
103.83193
101.91766
100.59995
99.71584
99.220416
10840.584
9650.4209
8492.1202
7386.5048
6346.7193
5384.17
4508.2324
3725.5119
3039.2046
2448.5598
1949.2163
1534.3914
1195.4005
922.43261
701.92878
516.52913
347.72857
238.31758
191.89508
166.11101
146.53302
131.93934
122.38004
115.63112
110.21914
106.53206
103.76803
101.87689
100.57328
99.698813
99.209127
8684.9002
7859.0534
7021.8891
6200.8215
5407.9651
4655.0638
3952.9386
3310.7228
2735.074
2229.4447
1793.9721
1426.0713
1120.8021
871.47045
666.5409
489.14243
327.71008
230.37327
189.03235
164.66127
145.71769
131.38956
121.97349
115.37555
110.06086
106.44323
103.71425
101.84273
100.54882
99.682123
99.196205
6882.7369
6319.0256
5727.0646
5131.1885
4540.7321
3965.6419
3415.9372
2900.9864
2428.71
2004.7967
1632.2893
1311.685
1041.0537
816.27418
627.42817
457.80121
306.12425
222.49526
185.7357
162.84071
144.65168
130.6472
121.42007
115.02361
109.83873
106.31706
103.63755
101.79377
100.51589
99.66078
99.181391
5392.2223
5013.5556
4603.9625
4181.6633
3752.8467
3324.7735
2905.4213
2502.9319
2124.9248
1777.7665
1466.0115
1192.1486
956.48147
756.74833
583.97929
421.92663
283.80679
214.98131
182.35631
160.90968
143.51461
129.87125
120.862
114.67743
109.61986
106.19193
103.56266
101.74612
100.48237
99.638249
99.164433
4172.9417
3923.1086
3645.9622
3353.9315
3050.5726
2740.5386
2429.4338
2123.4852
1829.0582
1552.0766
1297.4663
1068.7124
867.59465
692.77494
535.22134
381.19345
262.1312
207.82193
178.604
158.63689
142.11141
128.90527
120.17262
114.24528
109.3417
106.03153
103.46642
101.68476
100.44055
99.610885
99.145055
3187.2964
3025.8421
2842.684
2645.863
2437.0868
2218.946
1994.9176
1769.2256
1546.5782
1331.7925
1129.3454
942.88715
774.99149
624.0205
479.57694
336.71074
242.94519
200.99037
174.6214
156.15681
140.5146
127.84392
119.44498
113.79197
109.05091
105.86224
103.36652
101.6212
100.39603
99.581085
99.122964
2400.0763
2298.183
2180.2941
2051.3294
1911.8726
1763.1016
1606.8538
1445.6233
1282.4817
1120.894
964.41147
816.21979
679.00033
549.45864
415.14072
292.63051
227.40104
194.19423
170.20001
153.27606
138.56172
126.56776
118.58785
113.24058
108.69864
105.6544
103.24378
101.54335
100.34209
99.545582
99.097774
1779.1496
1716.4884
1643.082
1561.3178
1471.2001
1373.0831
1267.7114
1156.2889
1040.5222
922.58028
804.9103
689.75112
578.99695
465.4958
343.04911
256.88132
215.29406
187.1779
165.39191
150.0095
136.31473
125.15262
117.66193
112.63098
108.3266
105.4284
103.11118
101.46017
100.28279
99.505822
99.068926
1294.4235
1257.1249
1212.9917
1163.0903
1107.0849
1044.7864
976.22073
901.70392
821.93
737.99309
651.2648
562.29358
470.56101
369.46174
279.4956
234.25475
204.20151
179.5392
160.1648
145.94365
133.73065
123.52099
116.55535
111.89809
107.90002
105.15897
102.94971
101.36004
100.21147
99.458133
99.035589
917.91276
896.85259
871.55128
842.3546
808.77976
770.36769
726.75137
677.69956
623.22342
563.58238
499.37501
429.8269
353.90765
284.17451
243.12621
217.15996
192.19791
172.19638
154.09233
141.65949
130.84223
121.65063
115.31384
111.10456
107.45772
104.86364
102.77052
101.24922
100.1317
99.403163
98.992753
621.91389
610.09623
595.57439
578.63958
558.74617
535.14505
507.46405
475.42721
438.83847
397.19533
352.81152
307.55736
268.29748
237.72196
218.91424
199.20529
181.0067
162.86916
147.96771
136.5928
127.61567
119.67644
113.78834
110.22087
106.95892
104.51972
102.55908
101.11481
100.03724
99.337157
98.93727
397.04987
390.06797
382.18102
373.4911
363.07768
350.33027
335.36837
318.66851
299.80314
279.30192
259.42556
239.3115
222.9386
211.26465
196.33866
182.89815
166.85837
154.13089
140.90137
131.53068
124.38037
117.33724
112.29613
109.32181
106.42898
104.13455
102.32731
100.96328
99.932547
99.261498
98.872431
270.07926
266.73668
262.70671
258.46444
253.82671
248.5062
242.1875
235.3606
226.37958
217.68749
209.25007
201.51327
194.93701
185.27376
175.15713
164.8073
154.76933
143.56703
133.91046
126.44403
120.75575
115.11889
110.67423
108.27713
105.82659
103.71928
102.07273
100.78121
99.810502
99.174231
98.800753
202.7753
201.53533
200.09819
198.39668
196.70944
194.64733
191.97034
189.37688
186.5134
184.1966
177.75255
170.65674
165.30276
160.00987
154.84662
150.715
142.38012
135.45539
127.19806
121.51604
117.4982
113.02612
109.04662
107.19963
105.21055
103.27501
101.79624
100.58508
99.67966
99.077775
98.725417
168.11001
167.25119
166.57952
165.89269
165.26537
165.3538
165.22792
163.63027
161.27915
156.79885
154.65098
153.70728
149.60681
142.84879
138.30255
135.35389
134.01213
128.57247
122.54951
117.71229
114.37148
111.02106
107.41093
106.07896
104.50565
102.82126
101.50259
100.35587
99.537587
98.972258
98.645622
149.08831
149.11492
148.95352
148.42287
147.39269
145.44616
143.17038
141.80785
141.07212
140.57328
139.85998
136.22661
134.92841
132.1725
129.01386
125.68405
124.28501
123.3721
119.52442
115.52211
111.94974
108.95539
106.25342
105.06801
103.8269
102.29589
101.18983
100.13808
99.388662
98.861701
98.560309
131.2215
131.05056
130.87459
130.63982
130.43234
130.65598
131.49602
131.51772
130.75703
129.00633
126.5566
126.19553
125.59397
125.03496
123.82698
120.01158
117.44212
116.34142
115.34092
113.35214
110.53507
107.82744
105.16937
103.97322
103.16737
101.81282
100.83663
99.903616
99.234422
98.745995
98.470968
121.81525
121.91685
121.88883
121.71504
121.35943
120.71968
119.49371
118.79988
118.40282
118.11036
118.47002
117.9509
116.29752
115.84675
115.61917
115.61612
113.32851
111.38467
110.10349
110.50374
109.21072
106.7613
104.33294
103.15923
102.64689
101.2862
100.48825
99.698574
99.068436
98.63025
98.383123
112.57811
112.57041
112.5167
112.40285
112.27179
112.16683
112.33869
112.59935
112.4937
112.15282
111.51826
110.94164
111.25499
110.91251
109.75402
109.81195
110.13749
108.59613
107.27072
106.69286
106.93361
105.87825
103.81938
102.19934
101.96216
100.95033
100.08145
99.466853
98.901609
98.513381
98.298459
107.90205
107.98082
107.9757
107.90454
107.77085
107.5669
107.22575
106.76972
106.66988
106.69421
106.75546
107.02203
106.82378
106.57928
106.58546
105.69002
105.31471
105.51751
105.32658
104.63986
104.27115
104.26932
103.26403
101.51184
101.25587
100.55808
99.725907
99.241815
98.732278
98.397615
98.211187
103.45235
103.48774
103.48325
103.45053
103.41082
103.38062
103.38873
103.57466
103.7793
103.93919
104.11677
104.17722
104.33375
104.03303
103.71408
103.5603
102.9194
103.15989
103.88671
103.30934
102.64749
102.24179
102.28574
100.94397
100.18868
100.16839
99.375971
98.956544
98.578462
98.282061
98.13136
101.29543
101.35536
101.37207
101.35662
101.32378
101.2882
101.25204
101.19247
101.2037
101.23838
101.27072
101.29937
101.32916
101.53146
101.54538
101.54922
101.55737
101.60503
101.26104
101.45186
101.15096
100.48539
100.75145
100.45396
99.555755
99.551061
99.143542
98.722505
98.413513
98.180665
98.062086
99.636029
99.67114
99.687549
99.696945
99.71309
99.740649
99.779113
99.826707
99.884435
99.953107
100.01135
100.03423
100.02195
99.997921
100.05406
100.16954
100.16708
100.24683
99.993551
100.10594
99.914978
99.570303
99.667416
99.882791
99.248722
98.965694
98.849577
98.509472
98.278871
98.10799
98.016129
98.899928
98.925612
98.940556
98.953533
98.972327
98.99892
99.0333
99.074419
99.11846
99.156609
99.182669
99.199661
99.208479
99.239636
99.296985
99.428396
99.477073
99.366188
99.372454
99.483464
99.375511
99.093455
99.089665
99.073903
99.024067
98.693882
98.577674
98.392374
98.203824
98.066958
97.992499
98.432146
98.454408
98.474734
98.496764
98.523309
98.554106
98.587201
98.619369
98.647778
98.670461
98.689122
98.712336
98.747311
98.764213
98.75751
98.757147
98.808673
98.894288
99.006054
99.133749
99.002194
98.819852
98.776978
98.668897
98.650439
98.545894
98.428015
98.312171
98.163078
98.049939
97.979018
98.270529
98.286943
98.30323
98.321959
98.34457
98.370093
98.395679
98.417294
98.432061
98.438932
98.439349
98.438586
98.445375
98.456948
98.472759
98.495854
98.542832
98.608239
98.708096
98.699727
98.684098
98.526813
98.502638
98.486604
98.467809
98.43399
98.360412
98.275768
98.150889
98.061374
98.030155
98.206453
98.218847
98.232734
98.249545
98.269699
98.291885
98.312674
98.329469
98.339759
98.343839
98.344786
98.347043
98.356269
98.37449
98.39123
98.408686
98.434949
98.46203
98.492767
98.500536
98.492234
98.44373
98.417384
98.424972
98.407993
98.391006
98.344241
98.272564
98.221919
98.18458
98.136989
98.283996
98.282194
98.281785
98.283354
98.287196
98.29307
98.300813
98.30894
98.315734
98.321346
98.327137
98.334204
98.345288
98.355299
98.365367
98.381588
98.400336
98.414602
98.42701
98.43758
98.437227
98.458672
98.436194
98.42791
98.427639
98.412338
98.390986
98.362635
98.344697
98.312262
98.304281
108011.03
91378.099
72038.65
55479.854
42405.987
32019.974
23883.087
17668.855
12974.388
9436.8511
6795.6545
4849.7227
3433.5317
2413.9518
1686.8071
1171.8933
806.71625
540.82832
350.55454
230.94066
172.99885
147.29156
132.90465
122.18502
114.29858
108.74674
105.17146
102.75576
101.17859
100.13275
99.54344
95375.924
72102.69
55271.081
43225.938
33664.39
25955.235
19834.976
14984.87
11181.29
8240.7575
6006.4188
4335.2864
3102.066
2202.6688
1553.4461
1088.2802
753.72292
506.54897
328.18826
218.52092
167.80209
145.05141
131.68156
121.45686
113.87525
108.51303
105.04581
102.68647
101.14134
100.11247
99.534313
76505.186
60736.036
48650.276
38530.254
30026.56
23094.204
17589.109
13278.775
9931.4476
7356.208
5397.739
3925.5686
2831.2751
2026.5364
1440.4764
1016.5471
707.95993
477.27089
310.61229
211.16324
165.39639
144.01394
131.1039
121.11475
113.67528
108.40185
104.98429
102.65082
101.11892
100.09628
99.52369
67277.96
54208.213
43088.746
33844.269
26348.725
20351.775
15591.747
11837.469
8901.4968
6631.4794
4896.4429
3584.7177
2603.3649
1876.5735
1343.2483
954.20476
667.84667
451.65873
295.06405
203.62937
162.21339
142.47498
130.18548
120.56201
113.34908
108.2214
104.88369
102.59301
101.08637
100.07715
99.512439
59986.716
47829.126
37904.591
29866.649
23369.23
18139.804
13958.962
10644.268
8043.3607
6024.6648
4474.2849
3295.6644
2408.5571
1747.3234
1258.7473
899.55169
632.34142
428.55634
280.94525
197.44925
160.05766
141.46452
129.57401
120.20251
113.13786
108.10462
104.81722
102.55428
101.06236
100.06032
99.500953
53351.813
42577.349
33835.829
26723.47
20957.607
16312.46
12594.236
9642.1448
7320.0885
5511.0075
4115.0624
3048.225
2240.696
1635.1776
1184.8935
851.32358
600.75473
407.34664
268.22048
192.00251
157.82897
140.29163
128.83114
119.75492
112.86988
107.95534
104.73152
102.50438
101.03309
100.04187
99.489303
48190.192
38433.567
30521.968
24114.469
18941.791
14779.534
11446.883
8797.4287
6707.9704
5074.1546
3807.903
2835.4311
2095.4665
1537.5406
1120.1485
808.67248
572.54401
387.92029
256.86048
187.41283
156.09391
139.38859
128.24955
119.41308
112.666
107.84274
104.66524
102.46551
101.0087
100.02473
99.477513
44017.325
34985.816
27750.43
21936.097
17257.279
13494.864
10482.252
8084.3376
6188.8056
4701.7589
3544.6698
2652.062
1969.609
1452.4256
1063.3171
770.88648
547.22591
370.1785
246.82097
183.50747
154.46256
138.4584
127.63123
119.04165
112.44024
107.71711
104.59041
102.42154
100.98177
100.00677
99.465588
40438.685
32085.463
25440.099
20120.381
15847.807
12416.633
9669.9418
7481.5127
5747.9832
4384.0387
3318.9487
2494.0027
1860.5462
1378.257
1013.4967
737.41316
524.53605
354.04667
238.04464
180.23791
153.11796
137.68272
127.10968
118.73291
112.25232
107.61401
104.52725
102.38427
100.95774
99.989597
99.453526
37497.737
29685.142
23517.837
18602.7
14665.962
11510.539
8985.424
6971.7734
5373.7288
4113.0969
3125.5537
2357.9204
1766.1856
1313.7565
970.00115
707.96722
504.20743
339.45063
230.46431
177.50638
151.90978
136.93196
126.59491
118.42163
112.0594
107.50787
104.4612
102.34512
100.93262
99.972047
99.441331
34991.545
27661.645
21902.373
17328.313
13673.99
10749.168
8408.9643
6541.2159
5056.4721
3882.4894
2960.2381
2241.0764
1684.7991
1257.8689
932.17289
682.18007
485.92709
326.32507
223.98583
175.24706
150.89725
136.28282
126.14823
118.15164
111.89076
107.41684
104.40282
102.31034
100.9093
99.955012
99.429006
32876.126
25957.485
20544.802
16258.819
12842.412
10110.396
7924.6019
6178.5406
4788.4067
3686.9347
2819.5034
2141.2011
1614.9418
1209.7605
899.44252
659.7044
469.60687
314.60867
218.512
173.39096
150.01789
135.67835
125.72802
117.89147
111.72522
107.32779
104.34459
102.27538
100.88568
99.937868
99.416552
31070.728
24516.486
19403.022
15362.674
12146.55
9576.2021
7519.318
5874.5693
4563.1718
3522.104
2700.46
2056.4013
1555.4286
1168.5972
871.27938
640.28349
455.08814
304.24706
213.94541
171.88406
149.28904
135.15115
125.36166
117.66178
111.57716
107.24985
104.29204
102.24349
100.86329
99.921102
99.403968
29528.938
23297.654
18443.83
14613.903
11567.202
9132.3039
7182.5672
5621.8298
4375.6016
3384.5223
2600.7786
1985.2098
1505.2363
1133.6484
847.19822
623.63268
442.24853
295.20251
210.18961
170.68011
148.68233
134.67664
125.02887
117.44746
111.43643
107.17628
104.24134
102.21227
100.841
99.904381
99.391255
28214.124
22271.594
17644.174
13994.088
11090.226
8767.9508
6906.5306
5414.7182
4221.7428
3271.6174
2518.7623
1926.3655
1463.5401
1104.4752
826.96975
609.46936
430.97594
287.42579
207.15971
169.74193
148.20085
134.26912
124.74061
117.25834
111.31007
107.11152
104.19534
102.1834
100.81962
99.888016
99.378384
27125.87
21430.275
16994.345
13493.809
10707.006
8476.3126
6686.0909
5249.5707
4098.8533
3181.0648
2452.7991
1878.7715
1429.6911
1080.6826
810.37779
597.62179
421.17415
280.87868
204.76311
169.03951
147.8308
133.91864
124.48603
117.08731
111.19329
107.05211
104.15212
102.1556
100.7986
99.871865
99.365309
26265.516
20770.902
16488.056
13105.918
10410.991
8251.536
6516.3534
5122.1507
4003.8952
3110.6933
2401.3295
1841.5896
1403.1506
1061.9473
797.24037
588.0969
412.84639
275.52377
202.85761
168.54955
147.5714
133.63189
124.26832
116.93849
111.08985
107.00015
104.11311
102.12972
100.77833
99.856039
99.352028
25478.754
20203.237
16073.202
12799.817
10183.723
8082.198
6390.0203
5027.731
3933.8365
3058.9731
2363.4392
1814.1597
1383.5065
1048.0165
787.40361
580.86967
406.04978
271.22743
201.43016
168.25303
147.41602
133.40545
124.08123
116.80822
110.99775
106.95385
104.07736
102.10511
100.75854
99.840468
99.338543
24655.678
19648.054
15694.91
12540.169
10003.767
7955.981
6300.4614
4963.3723
3887.0049
3024.7306
2338.4278
1796.007
1370.457
1038.7055
780.75061
575.86831
400.83441
267.91195
200.42273
168.13828
147.36355
133.24307
123.9254
116.69815
110.91887
106.91425
104.04558
102.08221
100.73945
99.825212
99.324858
23983.426
19198.26
15396.215
12344.085
9876.2262
7873.2074
6246.4597
4927.3855
3862.2752
3007.2329
2325.799
1786.8249
1363.8083
1033.8925
777.21067
573.03496
397.24117
265.50982
199.80637
168.18241
147.41151
133.1451
123.79853
116.60664
110.85248
106.88056
104.01733
102.06072
100.72093
99.810232
99.310976
23387.445
18830.902
15173.003
12212.369
9801.9346
7833.845
6227.4746
4919.1741
3859.1098
3006.1103
2325.317
1786.4627
1363.4505
1033.5254
776.76274
572.37332
395.31165
263.97166
199.55568
168.41924
147.56194
133.11587
123.70251
116.53475
110.79953
106.85336
103.99295
102.04086
100.7031
99.795541
99.296916
22854.974
18530.781
15016.478
12141.346
9780.1545
7837.2744
6241.002
4935.402
3874.374
3019.5254
2336.2989
1794.7764
1369.3658
1037.6072
779.42895
573.96277
395.10915
263.29076
199.61916
168.79289
147.81758
133.15766
123.63824
116.48192
110.7594
106.83213
103.97209
102.02241
100.68581
99.78108
99.282678
22358.009
18280.871
14917.017
12126.416
9805.128
7877.7437
6285.0277
4977.6873
3912.0377
3050.2356
2359.8701
1812.1049
1381.6367
1046.1828
785.26496
577.84527
396.48134
263.42354
199.97677
169.33872
148.17678
133.26784
123.60533
116.44708
110.73114
106.81638
103.9545
102.00526
100.669
99.766809
99.268248
21845.845
18050.735
14855.166
12152.991
9870.0811
7954.3872
6359.0952
5042.1219
3964.7529
3091.4528
2390.8155
1834.5408
1397.433
1057.1147
792.62878
582.76412
399.11863
264.16549
200.57089
169.94141
148.61862
133.40844
123.59777
116.42633
110.71208
106.8048
103.93956
101.98917
100.65257
99.752741
99.253636
105316.56
89157.374
70891.349
55134.459
42629.048
32716.069
24724.104
18428.966
13573.977
9891.9669
7129.0888
5086.2707
3596.5503
2523.4069
1758.5756
1217.9217
835.63665
558.33832
360.74256
235.57998
174.66667
148.02959
133.31122
122.41094
114.42656
108.81239
105.20952
102.78051
101.19515
100.14516
99.546169
99944.099
84710.609
68246.979
53887.599
42095.539
32464.478
24651.605
18460.787
13661.329
9991.9417
7220.6688
5161.1455
3653.5224
2564.5614
1787.0952
1236.9529
848.03192
566.24896
365.97827
238.30916
175.73301
148.5279
133.57548
122.54914
114.49998
108.85995
105.23797
102.79878
101.20735
100.15349
99.548938
94588.128
80580.276
65440.302
52258.349
41219.527
32055.121
24524.35
18480.095
13743.544
10091.153
7313.9368
5238.6472
3713.1476
2607.979
1817.3591
1257.2343
861.2434
574.65353
371.55248
241.28318
176.88184
149.03879
133.84977
122.70184
114.58756
108.8958
105.25901
102.81403
101.21852
100.16299
99.553799
89621.815
76729.628
62725.049
50615.352
40310.666
31614.751
24372.078
18481.413
13818.453
10188.322
7408.1159
5318.3644
3775.2622
2653.6311
1849.3995
1278.8202
875.30756
583.60639
377.4637
244.52179
178.20626
149.65245
134.14704
122.84752
114.65886
108.9571
105.29585
102.83696
101.23341
100.17222
99.560788
84809.187
73170.809
60153.151
48983.195
39373.019
31141.536
24193.062
18470.652
13884.512
10282.122
7502.3783
5399.8583
3839.6809
2701.477
1883.2455
1301.7655
890.25329
593.1809
383.67759
247.99718
179.56255
150.23115
134.46104
123.03312
114.77071
108.99617
105.31879
102.854
101.24603
100.1824
99.567254
80107.839
69799.374
57679.295
47350.366
38400.643
30631.188
23984.275
18440.468
13939.618
10371.068
7595.7355
5482.5591
3906.1318
2751.4266
1918.902
1326.1145
906.16487
603.42107
390.08593
251.81407
181.20189
150.97661
134.80269
123.19634
114.84789
109.0491
105.35027
102.87547
101.26093
100.19315
99.571616
75488.389
66652.976
55361.244
45755.451
37412.204
30089.997
23745.612
18385.132
13981.238
10453.461
7687.1207
5565.9051
3974.3894
2803.4388
1956.41
1351.9329
923.1459
614.39795
396.91483
255.86586
182.9335
151.73408
135.15798
123.37973
114.94494
109.10497
105.38333
102.89806
101.27664
100.2044
99.577162
70946.802
63622.763
53144.094
44177.016
36394.669
29508.394
23470.543
18303.512
14006.563
10527.633
7775.6503
5649.4954
4044.3236
2857.5167
1995.8277
1379.2809
941.2306
626.12818
404.46471
260.22224
184.83647
152.55574
135.53658
123.57239
115.04235
109.16208
105.4173
102.9217
101.29307
100.21617
99.585154
66496.539
60701.578
51042.263
42634.894
35360.49
28891.191
23159.26
18192.764
14008.782
10590.879
7859.5422
5732.1517
4115.2528
2913.3233
2037.0232
1408.1236
960.44566
638.68116
412.58526
264.89891
186.92778
153.44414
135.93229
123.76752
115.14315
109.22288
105.45311
102.94657
101.31036
100.22848
99.594317
62161.55
57863.677
49046.166
41136.496
34316.001
28240.026
22810.5
18051.595
13996.165
10641.701
7937.1393
5812.7823
4186.5681
2970.5775
2079.8992
1438.4546
980.83017
652.17106
421.28362
269.92416
189.21914
154.40337
136.35612
123.97495
115.24271
109.28414
105.4894
102.97275
101.32845
100.24135
99.602769
57951.15
55051.583
47154.634
39689.844
33267.919
27557.196
22423.417
17877.54
13960.286
10677.568
8006.5159
5890.1151
4257.5219
3028.9022
2124.3087
1470.2473
1002.3974
666.56357
430.62817
275.33537
191.73011
155.43962
136.79737
124.17679
115.34363
109.35015
105.52794
103.00031
101.34742
100.25488
99.612557
53919.979
52223.801
45316.396
38290.932
32219.988
26844.351
21996.69
17666.444
13891.823
10692.612
8065.1217
5962.6209
4327.2187
3087.8286
2170.0491
1503.4472
1025.1558
681.8149
440.34781
281.10277
194.46531
156.5447
137.26374
124.3944
115.44433
109.41554
105.56596
103.02951
101.36722
100.26898
99.622985
50158.627
49360.87
43483.409
36921.894
31169.604
26100.838
21528.248
17415.115
13791.729
10686.553
8110.6531
6028.5828
4394.598
3146.7781
2216.8527
1537.9661
1049.1042
697.96613
450.42101
287.27328
197.43246
157.73853
137.75363
124.59651
115.53905
109.48589
105.60675
103.06017
101.38795
100.28379
99.63365
46719.177
46500.966
41627.872
35567.956
30116.072
25327.108
21016.409
17120.754
13657.806
10661.287
8141.3408
6086.1612
4458.4433
3205.0627
2264.3809
1573.6789
1074.2272
715.0397
461.11461
293.85906
200.63044
159.00145
138.24741
124.81175
115.64247
109.5557
105.64564
103.0931
101.40966
100.29908
99.644537
43640.981
43644.949
39624.137
34142.998
29019.11
24506.694
20453.575
16778.219
13484.216
10603.176
8149.5749
6132.648
4517.2813
3261.8745
2312.2409
1610.4217
1100.4867
733.04219
472.45441
300.90979
204.05811
160.323
138.77449
125.01311
115.72505
109.62699
105.68799
103.12724
101.43233
100.3152
99.655562
40916.278
40856.423
37508.667
32607.806
27850.549
23626.401
19832.836
16382.434
13266.19
10511.062
8140.1278
6166.5648
4569.6543
3316.2944
2359.948
1647.9894
1127.823
751.9547
484.56287
308.26358
207.74286
161.79604
139.28724
125.20418
115.83288
109.70232
105.72757
103.16482
101.45645
100.33179
99.666585
38471.061
38144.45
35270.685
30946.564
26597.156
22676.797
19148.073
15929.022
13000.456
10384.376
8109.6427
6185.6572
4613.9959
3367.3344
2406.9541
1686.141
1156.1783
771.77976
497.52187
316.44338
211.58626
163.12197
139.78699
125.41235
115.90457
109.76743
105.77124
103.20241
101.48141
100.34951
99.677672
36136.622
35433.517
32830.426
29063.23
25182.659
21618.701
18382.825
15411.023
12682.95
10217.945
8045.9576
6184.4233
4648.3898
3413.9486
2452.677
1724.6059
1185.491
792.61154
511.48467
325.13392
215.71328
164.84116
140.35558
125.559
116.00904
109.85049
105.81415
103.24525
101.50895
100.36771
99.688944
33747.632
32661.16
30231.832
26990.552
23616.141
20452.688
17536.627
14828.241
12313.204
10011.231
7954.8653
6170.7928
4672.5935
3455.2889
2496.5328
1763.0721
1215.6063
814.46953
526.42459
333.69
219.97637
166.13782
140.74028
125.77311
116.08195
109.90248
105.86064
103.28555
101.53654
100.38691
99.700399
31078.672
29731.653
27525.902
24791.448
21936.373
19199.957
16622.203
14188.678
11895.824
9766.352
7835.7258
6136.2452
4684.9102
3490.5333
2537.9713
1801.2083
1246.3322
837.16586
542.09162
342.76133
224.14177
167.66916
141.30813
125.88087
116.16356
109.99415
105.91421
103.3336
101.5685
100.40623
99.712044
28164.2
26771.048
24855.077
22597.866
20237.07
17913.795
15669.827
13510.239
11441.315
9488.7646
7689.9194
6079.9056
4683.5253
3518.8855
2576.5039
1838.7144
1277.5053
860.64409
558.49716
352.54439
229.1002
169.40499
141.76169
126.06493
116.25992
110.04208
105.96683
103.37649
101.59783
100.42572
99.724032
25251.171
23983.814
22378.84
20542.433
18605.993
16651.928
14718.167
12818.316
10965.712
9187.9729
7522.9573
6007.9324
4674.5148
3540.9535
2611.9107
1875.334
1308.9718
884.81026
575.47908
362.4853
233.78568
170.34919
141.98645
126.15574
116.30922
110.1407
106.04042
103.42979
101.63367
100.44592
99.736441
22602.57
21520.111
20201.463
18710.68
17115.541
15470.798
13806.924
12140.371
10487.659
8876.0497
7342.0267
5923.1037
4653.7001
3556.7429
2644.162
1910.9294
1340.6193
909.60621
593.00422
372.36776
237.84424
171.74724
142.58693
126.29935
116.43298
110.21163
106.10444
103.47898
101.66279
100.46537
99.748996
20335.479
19439.636
18363.795
17139.213
15808.59
14409.759
12968.726
11502.412
10026.665
8566.6378
7155.7889
5830.1879
4624.8931
3567.1751
2673.5168
1945.4998
1372.3963
935.02083
611.20354
382.86462
242.5337
173.78234
143.01468
126.45332
116.5175
110.30643
106.20262
103.53926
101.70024
100.48715
99.76108
18488.415
17757.365
16870.866
15846.023
14712.151
13499.63
12232.834
10928.372
9601.2541
8273.3973
6973.6499
5735.146
4592.0812
3573.851
2700.5605
1979.1985
1404.3067
961.03831
630.08434
394.21775
247.48633
175.08002
143.13488
126.57178
116.62816
110.45639
106.2944
103.60069
101.72992
100.50656
99.771772
17064.759
16459.323
15713.679
14835.665
13844.416
12765.61
11624.332
10440.578
9230.006
8010.3294
6805.4659
5644.438
4559.0073
3578.7778
2726.1684
2012.333
1436.4247
987.66776
649.60998
406.1252
252.20117
175.92042
143.50512
126.97412
116.86681
110.55096
106.4131
103.67194
101.76736
100.52977
99.780041
16006.973
15499.105
14861.391
14094.627
13208.828
12224.614
11167.991
10063.813
8932.6614
7792.1657
6661.552
5564.8109
4529.7086
3584.1727
2751.389
2045.3244
1468.8972
1014.9902
669.91503
418.80751
257.49307
177.64129
144.24648
127.20061
116.99732
110.7558
106.55962
103.74723
101.80322
100.5508
99.78482
15228.517
14803.366
14254.746
13578.582
12777.22
11865.082
10866.799
9811.3834
8726.1562
7633.585
6552.6952
5503.3013
4508.2774
3592.2887
2777.2913
2078.6099
1501.8977
1043.1149
691.15995
432.56315
263.63305
179.83937
145.01939
127.50835
117.33609
110.98968
106.69643
103.83542
101.84311
100.57262
99.785115
14607.375
14264.145
13801.97
13211.828
12489.403
11642.618
10692.552
9670.0966
8609.1129
7539.8626
6485.7832
5465.9087
4499.3803
3605.3574
2804.8184
2112.4873
1535.4634
1072.0837
713.46992
447.54479
270.60567
182.25801
145.85365
128.28051
117.78797
111.16339
106.90159
103.92556
101.88338
100.59338
99.780304
14002.997
13747.09
13378.973
12883.61
12249.751
11477.843
10583.471
9596.7232
8556.0023
7499.0662
6456.4132
5450.8504
4500.5012
3622.7854
2833.7062
2146.7093
1569.4317
1101.8471
736.94735
464.05212
279.15523
185.44025
147.11737
128.91072
118.05585
111.57843
107.0875
104.01837
101.92866
100.60522
99.769662
13305.777
13136.413
12865.976
12474.102
11943.156
11265.43
10448.395
9516.7597
8509.0796
7470.4053
6438.8066
5442.8247
4504.0293
3640.8179
2861.8211
2180.1586
1603.2302
1132.1038
761.47177
482.05438
289.44043
189.43111
148.8804
129.69603
118.74152
111.94663
107.31022
104.12917
101.96973
100.61991
99.752533
12482.262
12380.182
12193.44
11899.201
11475.745
10908.117
10194.149
9349.012
8405.1014
7406.3786
6400.2509
5423.0547
4499.7202
3649.4723
2884.5896
2210.3032
1635.3344
1161.9597
786.56551
501.21242
301.04257
193.90413
150.56094
130.6791
119.3919
112.23442
107.57177
104.20374
102.01177
100.62942
99.727618
11563.449
11501.533
11370.813
11149.159
10814.975
10350.576
9747.5652
9012.2803
8168.3827
7252.1566
6306.1709
5371.0532
4476.9951
3645.0143
2894.8961
2233.3794
1663.8628
1190.4613
811.60666
521.02607
313.57832
198.38229
151.99216
131.44293
119.96045
112.80336
107.77076
104.29604
102.06191
100.62954
99.693722
10578.633
10531.652
10431.62
10258.871
9993.7201
9618.3409
9121.0616
8501.2741
7772.836
6963.4369
6109.4548
5248.6804
4412.5034
3621.1655
2891.9313
2246.8396
1686.6837
1216.327
835.83191
540.95034
326.7355
202.95903
153.09238
132.02056
120.68391
113.21329
107.99263
104.40147
102.09339
100.62605
99.648949
9600.4568
9550.7306
9461.0518
9315.7048
9098.7182
8794.3396
8390.0904
7880.7099
7271.7381
6580.6675
5834.0635
5062.7346
4296.9496
3561.4452
2874.2357
2247.6207
1702.5935
1238.5881
858.54142
560.46732
340.23198
207.46307
153.77196
132.52691
121.19272
113.5
108.16526
104.45275
102.09694
100.61506
99.592416
8708.3912
8648.8787
8558.7398
8426.3566
8239.7552
7986.3796
7654.9975
7238.4182
6736.1737
6156.1302
5515.2503
4837.9246
4149.9103
3474.9209
2833.3199
2241.3264
1712.1654
1256.945
879.38496
579.34796
353.9317
212.35297
154.37979
132.82391
121.36748
113.62533
108.16491
104.45755
102.09256
100.5871
99.522692
7983.3598
7913.6309
7818.6065
7690.287
7519.914
7297.9829
7015.2833
6664.3822
6241.7119
5750.2679
5200.3394
4608.0336
3993.4541
3378.0789
2782.1324
2223.5183
1715.8603
1272.2216
898.88578
598.03339
368.38788
218.62113
155.53545
132.88951
121.37313
113.6178
108.13234
104.45795
102.06593
100.54866
99.438079
7462.5869
7386.737
7288.0323
7161.088
6999.1862
6795.0859
6541.4211
6231.7692
5861.9901
5432.0011
4947.0368
4418.1533
3861.1544
3294.5847
2737.492
2207.5515
1719.756
1287.0544
918.13999
617.1209
384.07915
226.73777
157.23476
132.86507
121.28609
113.5244
108.07927
104.41817
102.00268
100.52308
99.339392
7099.0607
7026.9629
6933.569
6814.5278
6663.9037
6475.2247
6242.1024
5958.9102
5621.6148
5229.0895
4784.4799
4295.9891
3776.6152
3242.8619
2712.6786
2203.635
1727.9796
1303.3472
937.99141
636.69865
400.52928
235.94447
158.91444
132.71285
120.84853
113.16157
107.89339
104.31741
101.95056
100.49884
99.231387
6765.5131
6705.6625
6627.1859
6525.9609
6396.3637
6231.981
6025.9738
5771.955
5465.2583
5104.0247
4690.0546
4229.9407
3735.3466
3221.9557
2707.5676
2207.8797
1742.3973
1323.1536
959.35806
656.61562
416.72343
244.84789
160.2158
132.12291
119.89821
112.55212
107.51636
104.17435