/*--------------------------------*- C++ -*----------------------------------*\
| =========                 |                                                 |
| \\      /  F ield         | OpenFOAM: The Open Source CFD Toolbox           |
|  \\    /   O peration     | Version:  2406                                  |
|   \\  /    A nd           | Website:  www.openfoam.com                      |
|    \\/     M anipulation  |                                                 |
\*---------------------------------------------------------------------------*/
FoamFile
{
    version     2.0;
    format      ascii;
    arch        "LSB;label=32;scalar=64";
    class       volScalarField;
    location    "0.01";
    object      p;
}
// * * * * * * * * * * * * * * * * * * * * * * * * * * * * * * * * * * * * * //

dimensions      [1 -1 -2 0 0 0 0];

internalField   nonuniform List<scalar> 
2065
(
100705.11
100653.54
100682.77
100718.63
100757.47
100797.46
100840.33
100892.63
100950.18
101008.45
101067.14
101124.65
101175.63
101220.11
101263.07
101301.21
101332.92
101361.31
101386.38
101407.92
101425.41
101440.27
101452.47
101464.19
101478.95
101492.72
101506.34
101521.36
101536.38
101550.67
101538.31
100912.55
100827.45
100822.81
100841.62
100863.23
100884.81
100916.15
100955.62
100999.14
101050.22
101104.04
101157.27
101205.49
101246.18
101285.79
101321.81
101350.56
101377.14
101400.98
101421.32
101437.29
101451.13
101462.68
101472.43
101485.08
101496.96
101509.55
101523.53
101539.21
101550.79
101536.94
101097.58
101007.61
100975.29
100975.78
100978.27
100983.35
101000.7
101020.99
101049.13
101092.53
101139.37
101187.73
101231.05
101267.05
101302.05
101335.66
101362.33
101387.22
101410.05
101429.43
101444.5
101457.72
101468.61
101477.73
101488.68
101499.81
101511.82
101525.06
101540.9
101550.93
101535.97
101272.83
101184.63
101132.8
101105.59
101090.93
101090.41
101089.93
101091.56
101107.64
101139.3
101172.5
101215.27
101251.98
101283.72
101314.76
101344.96
101370.67
101394.02
101415.62
101434.51
101449.12
101461.87
101471.61
101481.34
101490.7
101501.53
101513.17
101526.05
101541.73
101551.07
101535.2
101418.46
101335.53
101278.51
101241.89
101219.38
101197.45
101174.5
101167.94
101175.75
101191.2
101206.26
101238.47
101269.25
101297.32
101324.4
101352.47
101377.99
101399.07
101419.03
101437.36
101451.94
101464.31
101473.35
101483.39
101491.67
101502.49
101514
101526.68
101541.97
101551.25
101535.08
101539.44
101469.4
101418.94
101373.7
101334.39
101295.27
101266.52
101249.37
101244.12
101239.67
101243.35
101261.96
101284.84
101309.34
101334.58
101361.33
101384.96
101403.7
101421.52
101439.06
101453.54
101465.64
101474.73
101484.23
101492
101502.93
101514.74
101527.19
101541.96
101551.43
101531.81
101634.65
101571.56
101519.18
101474.66
101433.19
101393.93
101357.07
101326.13
101305.96
101286.45
101284.37
101295.21
101307.12
101325.68
101347.68
101372.36
101391.94
101409.02
101424.63
101440.89
101454.72
101466.4
101475.88
101484.79
101492.34
101503.04
101515.39
101527.58
101541.9
101551.64
101528.68
101723.55
101661.14
101610.92
101564.42
101521.4
101481.13
101439.86
101394.64
101361.3
101341.08
101336.02
101335.92
101341.44
101353.55
101367.13
101382.59
101398.45
101414.61
101429.37
101443.59
101455.91
101466.88
101476.93
101485.28
101492.72
101503.07
101516.08
101528.03
101541.97
101551.83
101526.07
101786.06
101733.3
101679.56
101631.53
101590.8
101552.21
101509.23
101465.89
101431.44
101405.19
101393.14
101382.37
101381.52
101381.83
101387.14
101395.45
101407.31
101419.75
101433.72
101447.02
101457.57
101467.42
101477.54
101485.41
101492.61
101503.09
101516.91
101528.73
101542.21
101552
101525.06
101839.2
101802.74
101756.72
101707.65
101657.95
101611.89
101571.28
101535.23
101498.36
101470.66
101445.77
101428.35
101415.95
101404.52
101403.42
101407.57
101414.43
101425.79
101438.5
101450.52
101459.7
101468.21
101477.73
101485.27
101492.46
101503.1
101517.69
101529.45
101542.62
101552.13
101525.38
101843.14
101823.25
101788.24
101744.04
101697.45
101655.27
101623.45
101595.23
101559.96
101521.73
101483.54
101460.5
101438.87
101423.72
101424.93
101427.57
101426.31
101432.86
101442.78
101453.7
101462.19
101469.6
101478.18
101485.32
101492.73
101503.46
101518.34
101530.13
101543.42
101552.26
101529.61
101838.57
101813.08
101798.82
101783.08
101753.42
101716.12
101673.87
101631.81
101595.72
101553.28
101513.75
101490.74
101474.43
101460.88
101447.78
101443.63
101445.95
101448.07
101450.3
101456.52
101464.65
101471.85
101479.25
101485.89
101493.6
101504.52
101519.51
101531.01
101544.65
101552.37
101531.96
101829.07
101812.55
101792.81
101767.48
101744.75
101720.19
101684.99
101649.38
101617.9
101587.36
101558.28
101537.44
101519.19
101497.8
101483.5
101470.51
101463.23
101462.42
101461.7
101462.39
101468.11
101475.17
101481.38
101487.34
101495.44
101506.05
101522
101532.77
101546.01
101552.57
101553.39
101815.44
101803.88
101788.61
101777.57
101763.64
101740.51
101713.82
101684.06
101651.68
101622.63
101597.62
101571.79
101548.42
101530.03
101509.5
101495.25
101482.01
101473.91
101472.42
101472.09
101474.11
101479.43
101484.68
101489.88
101498.34
101507.39
101525.1
101535.49
101547.45
101552.8
101558.47
101793.83
101784.64
101771.83
101756.8
101744.32
101734.36
101718.86
101697.14
101669.74
101642.12
101619.47
101592.81
101568.47
101550.17
101525.53
101505.9
101494.61
101487.07
101480.76
101480.61
101481.49
101483.9
101488.14
101493.24
101501.84
101508.81
101527.34
101537.95
101548.95
101553.2
101558.32
101767.78
101762.6
101755.22
101746.23
101736.19
101722.87
101708.66
101696.17
101682.14
101665.07
101642.01
101608.58
101583.21
101561.37
101543.71
101529.73
101511.15
101498.23
101490.33
101487.47
101487.63
101487.79
101491.11
101496.95
101505.17
101510.99
101528.26
101540.61
101550.54
101553.74
101556.81
101741.12
101735.81
101730.17
101723.45
101716.58
101708.32
101697.41
101682.97
101659.47
101636.66
101620.61
101610.93
101600.64
101579.98
101560.16
101543.13
101526.2
101515.83
101507.25
101498.31
101494.22
101493.03
101496.21
101501.67
101508.24
101514.3
101528.35
101542.9
101552.01
101554.58
101554.92
101720.1
101715.85
101710.79
101705.42
101698.43
101691.99
101684.86
101676.52
101671.87
101665.88
101647.03
101625.5
101601.58
101579.85
101565.69
101553.09
101540.21
101528.65
101517.48
101505.53
101499.5
101500.18
101502.67
101507.65
101511.91
101518.17
101528.24
101542.61
101553.08
101555.45
101555.34
101693.75
101691.25
101687.71
101683.56
101679.31
101673.9
101667.57
101660.68
101653.37
101646.1
101638.26
101623.46
101604.13
101593.97
101584.24
101567.45
101548.84
101533.42
101522.13
101514.91
101510.18
101509.66
101511.04
101514.3
101516.84
101521.23
101528.69
101541.33
101554.25
101557.07
101556.36
101669.66
101667.37
101664.82
101661.79
101658.35
101654.47
101649.94
101644.78
101638.61
101630
101619.12
101612.43
101608.09
101599.37
101585.96
101572.98
101562.38
101549.61
101539.32
101530.84
101522.37
101517.71
101518.6
101521.11
101521.77
101523.8
101530.06
101541.83
101555.64
101559.5
101554.73
101649.23
101647.42
101645.26
101643.07
101640.26
101637.21
101633.87
101629.41
101624.82
101620.15
101614.99
101608.92
101602.19
101594.78
101583
101572.57
101568.89
101561.03
101552.23
101542.08
101532.8
101526.82
101525.22
101527.28
101528.48
101528.35
101532.92
101546.18
101556.49
101562.38
101540.4
101634.49
101633.39
101631.85
101630.15
101628.31
101625.9
101623.25
101620.53
101617.49
101613.51
101609.01
101604.46
101599.83
101593.45
101587.66
101582.17
101571.95
101561.61
101553.01
101547.21
101542.07
101538.66
101535.93
101534.2
101536.01
101538.95
101543.8
101554.26
101557.99
101564.1
101547.66
101624.15
101623.21
101622.18
101620.92
101619.68
101618.2
101616.34
101614.31
101611.81
101609.32
101605.94
101602.18
101598.14
101593.47
101586.85
101580.43
101574.83
101569.16
101562.08
101555.08
101550.41
101546.36
101543.29
101542.49
101544.3
101550.92
101556.46
101560.33
101563.67
101567.77
101543.87
101614.71
101614.03
101613.25
101612.34
101611.39
101610.05
101608.64
101607.07
101604.87
101602.82
101599.96
101597.02
101593.68
101590.24
101586.64
101583.06
101576.25
101569.22
101564.69
101561.89
101555.96
101550.07
101548.33
101548.51
101551.52
101556.75
101562.01
101563.26
101566.32
101570.33
101548.9
101604.91
101604.36
101603.7
101603.06
101602.25
101601.4
101600.29
101598.78
101597.22
101595.17
101593.34
101591.28
101588.69
101586.18
101584.88
101582.77
101579.27
101571.59
101565.35
101562.28
101560.08
101557.77
101556.06
101556.14
101557.07
101558.89
101561.58
101562.06
101565.12
101567.48
101560.45
101599.1
101598.74
101598.29
101597.76
101597.16
101596.39
101595.65
101594.91
101594.09
101593.25
101591.83
101590.11
101588.35
101586.18
101583.57
101580.36
101577.81
101578.3
101575.88
101571.39
101568.78
101564.87
101562.8
101562.44
101561.86
101560.54
101560.16
101560.01
101564.48
101566.24
101569.7
101597.02
101596.74
101596.4
101596.03
101595.58
101595.18
101594.64
101594.1
101593.49
101592.63
101591.87
101590.89
101589.72
101588.22
101586.57
101585.26
101583.7
101581.38
101579.37
101576.43
101573.41
101571.42
101568.08
101565.64
101563.99
101562.8
101563.49
101564.09
101567.26
101568.14
101557.52
101600.43
101600.14
101599.81
101599.43
101599.01
101598.51
101597.97
101597.36
101596.65
101595.88
101594.92
101593.86
101592.76
101591.61
101590.37
101589.07
101587.61
101586.49
101585.02
101582.73
101579.5
101575.47
101571.57
101567.63
101565.03
101563.54
101564.49
101566.18
101567.66
101565.88
101574.61
101607.89
101607.67
101607.42
101607.12
101606.79
101606.41
101605.98
101605.5
101604.95
101604.4
101603.79
101603.2
101602.57
101601.88
101601.09
101599.99
101598.98
101597.31
101594.37
101591.76
101589.23
101586.95
101585.29
101583.1
101579.22
101574.62
101571.13
101569.66
101566.62
101562.97
101590.71
101616.5
101616.29
101616.04
101615.8
101615.5
101615.22
101614.88
101614.53
101614.15
101613.66
101613.26
101612.61
101612.03
101611.15
101609.99
101608.56
101606.66
101605.02
101603.98
101602.81
101600.82
101598.3
101597.05
101593.89
101588.54
101582.58
101577.98
101574.6
101570.35
101568.26
101604.72
101615.02
101614.91
101614.78
101614.62
101614.44
101614.2
101613.96
101613.66
101613.35
101613.1
101612.71
101612.45
101611.91
101611.5
101610.95
101610.15
101608.71
101606.56
101603.31
101597.26
101597.63
101600.23
101598.4
101584.41
101580.55
101580.92
101579.23
101576.5
101573.46
101572.07
101581.34
100791.79
100730.18
100715.75
100756.29
100776.61
100776.09
100776.64
100781.51
100798.6
100827.89
100870.53
100922.15
100978.26
101037.36
101094.4
101149.74
101201.95
101248.54
101289.86
101326.02
101357.13
101383.32
101405.33
101425.52
101445.9
101466.86
101484.45
101500.87
101525.7
101544.75
101525.23
100820.57
100820.29
100783.83
100756.38
100751.25
100751.2
100751.4
100758.88
100784.96
100821.52
100869.88
100924.04
100982.38
101041.98
101099.41
101154.48
101206.29
101252.57
101293.27
101328.67
101359.32
101385.06
101406.56
101426.41
101446.57
101468.07
101485.13
101501.64
101526.08
101545.09
101529.04
100818.03
100809.85
100774.22
100730.96
100713.17
100712.76
100719.73
100740.23
100771.3
100816.39
100869.31
100925.89
100986.67
101047.02
101105.31
101159.27
101210.46
101256.53
101296.51
101331.21
101361.37
101386.69
101407.76
101427.26
101447.38
101469.08
101485.91
101502.42
101526.36
101545.39
101532.22
100777.02
100750.32
100714.6
100681.3
100668.25
100675
100687.19
100717.02
100759.51
100810.65
100867.91
100929.04
100991.06
101052.2
101110.72
101164.09
101214.52
101260.18
101299.66
101333.71
101363.31
101388.21
101408.95
101428.09
101448.5
101469.88
101486.68
101503.19
101526.63
101545.62
101533.77
100697.81
100670.12
100637.18
100615.06
100615.56
100630.91
100654.66
100692.82
100751.33
100807.26
100866.84
100931.39
100994.51
101057.2
101115.72
101169.25
101218.69
101263.73
101302.91
101336.2
101365.25
101389.67
101410.05
101428.94
101449.82
101470.61
101487.4
101503.95
101526.92
101545.8
101533.44
100586.86
100568.3
100546.44
100540.2
100549.24
100577.65
100625.31
100674.76
100737.18
100801.18
100866.35
100933.44
100997.94
101061.62
101120.95
101174.46
101222.9
101267.26
101305.91
101338.61
101367.1
101391.09
101411.16
101429.83
101451.23
101471.34
101488.07
101504.7
101527.27
101545.95
101533.43
100445.51
100436.43
100438.7
100464.27
100494.22
100529.19
100593.37
100662.53
100724.19
100794.72
100867.14
100934.91
101001.03
101065.66
101125.84
101179.31
101226.96
101270.65
101308.87
101341.1
101368.97
101392.52
101412.24
101430.82
101452.62
101472
101488.78
101505.42
101527.66
101546.08
101534.62
100275.24
100291.41
100317.52
100366.57
100431.98
100489.64
100560.32
100645.39
100720.05
100790.95
100866.03
100937.48
101004.8
101069.82
101130.29
101183.87
101231.15
101274
101311.74
101343.5
101370.76
101393.88
101413.33
101431.93
101453.82
101472.6
101489.56
101506.06
101528.02
101546.21
101535.04
100105.5
100164.38
100214.91
100266.2
100349.53
100450.56
100543.21
100622.13
100707.07
100789.13
100866.01
100941.31
101009.99
101074.55
101134.4
101187.86
101235.14
101277.28
101314.39
101345.77
101372.49
101395.18
101414.39
101433.09
101454.83
101473.18
101490.34
101506.64
101528.3
101546.35
101534.89
99917.962
100026.62
100135.69
100218.29
100295.7
100404.85
100512.68
100602.71
100700.52
100786.44
100868.29
100946.16
101015.89
101079.66
101138.49
101191.57
101238.6
101280.34
101316.81
101347.85
101374.12
101396.39
101415.42
101434.24
101455.69
101473.83
101491.1
101507.09
101528.52
101546.49
101534.92
99759.214
99866.353
100015.35
100160.52
100276.7
100382.66
100490.21
100591.35
100690.98
100784.96
100871.42
100951.22
101021.23
101084.61
101142.63
101195.22
101241.76
101283.3
101319.13
101349.76
101375.69
101397.55
101416.38
101435.31
101456.4
101474.55
101491.82
101507.36
101528.67
101546.65
101539.03
99662.503
99791.134
99904.843
100061.62
100235.49
100359.14
100468.92
100594.24
100692.28
100784.41
100874.67
100955.7
101026.72
101090.01
101147.12
101199.26
101244.83
101286.13
101321.56
101351.65
101377.17
101398.75
101417.35
101436.3
101457.05
101475.3
101492.48
101507.51
101528.75
101546.84
101539.15
99523.377
99733.984
99889.063
100021.96
100184.7
100329.59
100461.41
100578.81
100689.52
100786.21
100876.82
100960.87
101033.4
101096.4
101152.23
101203.57
101248.19
101289.04
101324.19
101353.61
101378.71
101400.03
101418.38
101437.26
101457.74
101475.96
101493.05
101507.66
101528.9
101547.06
101541.58
99407.928
99614.852
99849.537
100032.57
100179.58
100317.72
100444.1
100569.99
100684.74
100788.28
100879.37
100966.84
101040.13
101103.68
101158.43
101208.21
101252.16
101292.18
101326.82
101355.66
101380.34
101401.36
101419.54
101438.2
101458.37
101476.53
101493.53
101507.83
101529.11
101547.32
101542.43
99415.571
99578.039
99799.055
99978.555
100139.96
100305.68
100447.35
100562.32
100679.48
100789.08
100883.86
100972.95
101045.81
101109.98
101164.56
101213.21
101256.6
101295.54
101329.21
101357.71
101382.04
101402.71
101420.74
101439.15
101458.95
101477.1
101493.95
101508.03
101529.19
101547.62
101540.6
99412.77
99607.34
99789.536
99963.241
100114.65
100276.07
100435.16
100565.32
100684.78
100789.56
100887.67
100975.24
101049.2
101113.72
101170.23
101218.17
101260.68
101298.63
101331.57
101359.7
101383.71
101404.06
101421.9
101440.08
101459.56
101477.64
101494.34
101508.39
101529.18
101547.95
101541.21
99405.703
99604.595
99805.779
99982.574
100138.21
100289.09
100432.5
100564.3
100685.69
100790.68
100887.32
100973.68
101051.33
101114.18
101173.82
101222.62
101264.13
101301.2
101334.05
101361.6
101385.37
101405.44
101423.02
101441
101460.23
101478.05
101494.79
101509.1
101529.16
101548.31
101542.18
99523.006
99680.526
99847.032
100008.56
100159.89
100308.02
100446.28
100570.61
100687.79
100793.13
100887.76
100971.57
101048.72
101112.72
101173.68
101224.47
101266.52
101303.54
101336.47
101363.38
101386.96
101406.76
101424.11
101441.85
101460.96
101478.54
101495.32
101510.05
101529.19
101548.68
101541.03
99628.648
99774.714
99920.936
100062.93
100200.01
100336.22
100465.17
100585.74
100698.26
100800.03
100891.76
100971.82
101047.05
101112.6
101171.65
101223.6
101268.24
101305.61
101338.3
101364.97
101388.32
101407.94
101425.07
101442.55
101461.71
101478.98
101495.97
101510.84
101529.33
101549.02
101541.55
99757.671
99882.902
100011.96
100137.39
100259.38
100380
100497.54
100612.36
100718.27
100815.68
100902.71
100980.71
101052.21
101115.59
101171.67
101222.57
101268.44
101305.3
101337.75
101365.26
101388.44
101407.99
101425.06
101442.45
101461.93
101479.24
101496.39
101511.34
101529.52
101549.33
101542.18
99899.378
100007.81
100120
100229.11
100334.64
100441.43
100546.57
100652.36
100749.24
100840.15
100922.82
100996.66
101063.66
101124.11
101176.93
101225.11
101267.68
101303.29
101335.48
101363.5
101386.71
101406.35
101423.58
101441.1
101461.28
101479.36
101496.19
101512
101529.32
101549.6
101542.61
100052.83
100146.45
100242.29
100335.61
100427.17
100519.55
100610.14
100702.76
100789.14
100874.23
100952.03
101020.94
101083.14
101138.98
101188.32
101234.2
101274.06
101308
101339.02
101364.23
101386.98
101406.2
101422.98
101440.49
101460.95
101480.2
101496.43
101513.84
101528.97
101549.88
101542.51
100223.64
100300.2
100379.86
100457.15
100532.84
100610.08
100683.96
100760.95
100838.86
100915.58
100987.39
101052.38
101109.44
101161.24
101208.14
101251.13
101288.7
101321.01
101350.11
101374.21
101395.55
101413.41
101428.48
101444.89
101464.09
101482.7
101498.72
101516.21
101529.99
101550.18
101541.71
100429.83
100471.88
100528.55
100588.35
100646.88
100705.4
100762.84
100827.37
100895.82
100962.61
101027.76
101088.81
101142.14
101190.18
101235.31
101275.57
101310.33
101340.73
101367.58
101390.45
101409.79
101426.11
101439.46
101453.73
101470.89
101487.35
101502.4
101518.74
101532.75
101550.47
101540.06
100963.42
100954.2
100894.53
100855.15
100825.84
100806.51
100797.6
100799.25
100810.91
100836.14
100872.4
100921.81
100975.05
101033.54
101090.13
101145.59
101198.04
101245.03
101286.87
101323.51
101355.03
101381.62
101404.04
101424.42
101445.02
101465.39
101483.69
101499.89
101524.99
101544.35
101523.27
101016.5
101026.19
100983
100921.94
100868.16
100835.09
100818.02
100815.04
100825.61
100846.01
100880.41
100927
100978.01
101034.87
101090.41
101145.37
101197.35
101244.19
101286.04
101322.57
101354.16
101380.51
101402.96
101423.28
101443.98
101463.64
101482.86
101498.75
101524.02
101544.05
101522.17
101038.05
101027.46
100990.82
100939.78
100891.07
100858.09
100837.5
100832.26
100839.51
100857.77
100891.53
100935.83
100985.65
101040.37
101094.32
101147.98
101198.91
101245.06
101286.45
101322.6
101353.97
101380.15
101402.02
101422.07
101442.65
101461.49
101481.82
101497.28
101522.6
101543.83
101519.97
101054.97
101031.03
100985.39
100942.24
100903.79
100875.18
100854.58
100846.96
100852.54
100870.54
100902.81
100945.07
100993.45
101045.96
101098.7
101150.83
101200.69
101246.1
101286.99
101322.74
101353.81
101379.98
101401.41
101421.03
101441.23
101459.45
101480.79
101495.81
101521.11
101543.64
101518.72
101069.89
101031.37
100983.45
100944.09
100910.11
100885.02
100866.69
100860.89
100866.37
100882.88
100913.91
100954.06
101000.77
101051.52
101102.88
101153.64
101202.46
101247.11
101287.54
101322.87
101353.64
101379.69
101401.05
101420.23
101439.93
101457.99
101479.84
101494.62
101087.38
101030.83
100983.12
100942.77
100910.1
100888.11
100877.6
100873.04
100878.25
100895.35
100925.86
100945.09
100979.51
101011.86
101039.01
101063.12
100876.1
100905.95
100556.85
100694.31
100831.09
100836.93
100842.61
100814.76
100821.3
100832.57
100843.19
100849.55
100827.54
100785.76
100816.94
100824.04
100830.58
100830.07
100822.9
100726.64
100799.88
100811.62
100808.71
100798.31
100789.2
100763.75
100762.78
100761.88
100748.88
100731.15
100717.22
100712.11
100716.06
100644.64
100616.71
100607.37
100599.06
100388.77
100522.98
100427.67
100417.26
100430.1
100443.27
100016.59
100220.44
100146.11
100175.38
100219.79
100255.92
99590.724
99819.089
99791.535
99890.297
99974.783
100044.02
99057.543
99436.312
99428.442
99588.781
99719.087
99823.849
98508.431
99091.61
99056.53
99275.086
99475.106
99645.167
97881.36
98789.296
98785.58
99010.119
99227.62
99470.978
97390.19
98487.179
98673.865
98887.074
99084.181
99314.288
97346.123
98244.147
98503.377
98829.39
99066.859
99261.378
97476.462
98214.269
98399.558
98735.642
98958.573
99228.054
97559.302
98308.071
98425.486
98713.542
98864.393
99182.33
97717.197
98231.323
98383.19
98824.026
99014.129
99217.965
97793.266
98316.633
98499.646
98823.96
99080.165
99340.185
97945.476
98456.005
98648.156
98956.51
99207.348
99445.391
98142.131
98621.287
98827.493
99114.58
99372.341
99598.985
98433.792
98846.051
99051.514
99309.797
99546.447
99757.534
98720.319
99113.553
99318.373
99553.817
99761.702
99936.938
99418.929
99615.88
99823.855
100000.02
100137.77
99929.895
100121.27
100277.32
100383.88
100904.42
101089.94
101255.69
101409.01
101535.87
101638.47
101723.06
101799.35
101844.08
101871.99
101863.59
101862.32
101856.41
101843.07
101832.06
101824.04
101805.62
101799.84
101776.29
101772.5
101746.57
101745.19
101722.58
101721.19
101696.5
101695.42
101671.35
101670.9
101651.31
101650.41
101636.07
101635.28
101625.4
101624.88
101615.55
101615.14
101605.73
101605.35
101599.88
101599.45
101597.75
101597.36
101601.27
101600.81
101608.54
101608.19
101616.92
101616.71
101615.27
101615.13
)
;

boundaryField
{
    Side1
    {
        type            empty;
    }
    Inlet
    {
        type            totalPressure;
        rho             rho;
        psi             none;
        gamma           1;
        p0              uniform 102920.87;
        value           nonuniform List<scalar> 
92
(
101314.77
101314.83
102920.87
101322.53
101289.68
101315.36
101315.55
101315.77
101316.06
102920.87
101291.39
101324.76
101292.98
101293.77
101294.63
101295.52
101296.35
101297.42
101298.68
101300.28
101326.98
101328.75
102920.87
101331.82
101333.32
101334.56
101310.3
101311.37
101337.66
101338.31
101328.54
101328.54
101328.54
101328.54
101328.54
101328.54
101328.54
101328.54
101328.54
101328.54
101328.54
101328.54
101328.54
101328.54
101328.54
101328.54
101328.54
101328.54
101328.54
101328.54
101328.54
101328.54
101328.54
101328.54
101328.54
101328.54
101328.54
101328.54
101328.54
101328.54
101338.87
101328.54
101310.94
101285.75
101286.04
101286.28
102920.87
101286.63
101286.76
101286.94
101320.12
101312.64
101287.31
101312.95
101287.62
101287.79
102920.87
101288.05
101288.32
101313.98
102920.87
101321.75
101288.89
101289
101289.11
102920.87
102920.87
101285.01
101284.76
102920.87
101328.54
101328.54
)
;
    }
    Side2
    {
        type            empty;
    }
    Outlet
    {
        type            freestreamPressure;
        freestreamValue nonuniform List<scalar> 0();
        value           nonuniform List<scalar> 0();
    }
    Botwall
    {
        type            zeroGradient;
    }
    Cyli
    {
        type            zeroGradient;
    }
    procBoundary2to0
    {
        type            processor;
        value           nonuniform List<scalar> 
55
(
100947.61
100983.23
101011.21
101033.95
101047.95
100875.83
100911.43
100834.67
100850.81
100850.81
100256.57
100416.88
100416.88
100840.57
100962.84
100826.92
100826.92
100811.04
100811.04
99067.219
99067.219
99743.829
99743.829
101133.87
101290.1
101433.33
101560.6
101663.07
101749.01
101818.19
101875.79
101893.3
101902.8
101892.63
101878.57
101878.57
101868.56
101841.13
101812.06
101777.45
101749.56
101725.44
101696.94
101672.47
101652.12
101636.76
101626.09
101616.01
101606.06
101600.45
101598.05
101601.73
101608.88
101617.12
101615.46
)
;
    }
    procBoundary2to3
    {
        type            processor;
        value           nonuniform List<scalar> 
35
(
101519.86
101543.47
101518.7
100964.21
101009.18
101057.82
101107.73
101156.9
101204.49
101248.31
101288.16
101323.07
101353.51
101379.31
101400.61
101419.54
101438.92
101457.46
101479.01
101519.86
101493.86
101048.43
101072.56
101009.41
100970
100933.06
100904.13
100885.11
100878.8
100881.58
100889.04
100907.6
100964.21
100937.99
101072.56
)
;
    }
}


// ************************************************************************* //
