/*--------------------------------*- C++ -*----------------------------------*\
| =========                 |                                                 |
| \\      /  F ield         | OpenFOAM: The Open Source CFD Toolbox           |
|  \\    /   O peration     | Version:  2406                                  |
|   \\  /    A nd           | Website:  www.openfoam.com                      |
|    \\/     M anipulation  |                                                 |
\*---------------------------------------------------------------------------*/
FoamFile
{
    version     2.0;
    format      ascii;
    arch        "LSB;label=32;scalar=64";
    class       volScalarField;
    location    "0.004";
    object      k;
}
// * * * * * * * * * * * * * * * * * * * * * * * * * * * * * * * * * * * * * //

dimensions      [0 2 -2 0 0 0 0];

internalField   nonuniform List<scalar> 
8951
(
0.39528382
0.55204744
0.46458085
0.444026
0.45100577
0.39529197
257.2902
239.04525
216.15026
188.43048
156.61145
122.26097
87.566575
55.063662
27.712947
9.4841127
2.4139074
1.07545
0.78668055
0.62892756
0.55289467
0.46330279
0.44361933
0.45184403
0.39530671
347.92476
346.9762
345.11681
342.11846
337.77006
331.93269
324.60208
315.94725
306.26936
295.83298
284.60199
272.03215
257.1152
238.64764
215.72713
188.12375
156.49199
122.33386
87.789472
55.368255
28.004891
9.6385592
2.4504263
1.0826994
0.78898413
0.62998184
0.55362259
0.46204179
0.44324987
0.45271011
0.39532582
349.80513
349.12774
347.53699
344.78196
340.62328
334.88224
327.50607
318.61951
308.50746
297.47146
285.57103
272.38783
257.01451
238.30036
215.33281
187.82907
156.37356
122.40211
88.006306
55.667732
28.293891
9.7942367
2.4876479
1.0899336
0.79119025
0.63110545
0.55421918
0.46085963
0.44292641
0.45361363
0.39534655
351.29288
350.90133
349.60457
347.1312
343.21188
337.62685
330.27313
321.22676
310.74765
299.16311
286.62023
272.82657
256.98913
238.00161
214.9662
187.54582
156.25582
122.46561
88.217141
55.962388
28.580577
9.9507652
2.525617
1.0968857
0.79341472
0.63229196
0.55468213
0.45979987
0.4426566
0.45455769
0.3953657
352.33934
352.25435
351.27869
349.12372
345.49156
340.12169
332.85977
323.72912
312.95626
300.88248
287.73253
273.33693
257.01598
237.74763
214.62558
187.27302
156.13829
122.52418
88.421975
56.252328
28.865294
10.108087
2.5644079
1.1039326
0.79567914
0.63351648
0.555015
0.4588818
0.44244692
0.45552387
0.39537976
352.91517
353.14422
352.51617
350.7151
347.41601
342.31919
335.21882
326.08223
315.09465
302.59927
288.88689
273.90621
257.09542
237.5344
214.30867
187.0094
156.02028
122.57753
88.620751
56.537583
29.147913
10.266813
2.60403
1.1111533
0.79789655
0.63475654
0.55523664
0.45810678
0.44230102
0.45649465
0.39538509
352.9845
353.53113
353.27673
351.86227
348.93976
344.17201
337.30235
328.23976
317.12109
304.27943
290.05883
274.52015
257.23136
237.35754
214.0126
186.75328
155.90088
122.62525
88.81336
56.818164
29.428595
10.427436
2.6444638
1.1184843
0.8002135
0.63599034
0.55537177
0.45746904
0.44221672
0.45748095
0.39537907
352.56086
353.40882
353.521
352.52531
350.01989
345.63466
339.06328
330.1549
318.99197
305.88601
291.22057
275.16012
257.40308
237.21059
213.73378
186.50264
155.779
122.66683
88.999639
57.094071
29.70739
10.590438
2.6857049
1.1258354
0.80245256
0.63719736
0.55544791
0.45696288
0.44218403
0.45847988
0.39536003
351.5529
352.83262
353.29267
352.67663
350.62211
346.66673
340.45727
331.78177
320.66301
307.38002
292.34153
275.80486
257.5975
237.08589
213.46791
186.25502
155.65328
122.70159
89.179372
57.365324
29.984272
10.756001
2.7278025
1.1332027
0.80474823
0.63835057
0.55544871
0.45658521
0.44220092
0.45950688
0.3953281
349.93946
351.61169
352.51449
352.3548
350.71633
347.23409
341.44368
333.07637
322.0902
308.72128
293.38894
276.43073
257.79951
236.97449
213.2099
186.00756
155.52217
122.72873
89.352288
57.631994
30.259241
10.924919
2.7709064
1.1406112
0.80690665
0.63941164
0.55542591
0.45632781
0.44226529
0.46051854
0.39528411
347.73771
349.79566
351.14213
351.48882
350.36322
347.30147
341.9854
333.99733
323.23078
309.8693
294.32847
277.012
257.99207
236.86611
212.95393
185.757
155.38384
122.7472
89.518062
57.894227
30.532388
11.096883
2.8152465
1.1480779
0.80915192
0.64037566
0.55536137
0.45616653
0.44237917
0.46149957
0.39522971
344.94661
347.38548
349.18178
349.98001
349.41575
346.94055
342.04907
334.50888
324.04458
310.78417
295.12486
277.52125
258.15627
236.74935
212.69339
185.49958
155.23626
122.7557
89.676309
58.152228
30.80397
11.271947
2.8609201
1.1556134
0.8111776
0.64140715
0.55524838
0.45615605
0.44254767
0.46251669
0.39516759
341.58134
344.39269
346.63816
347.90819
347.88119
345.99748
341.71706
334.57682
324.49551
311.42741
295.74262
277.92978
258.27132
236.6118
212.42094
185.23112
155.0772
122.75428
89.826596
58.406109
31.074746
11.450176
2.9080067
1.1632242
0.81311348
0.64231074
0.55512362
0.45624947
0.44277597
0.46364323
0.39510213
337.67633
340.84141
343.51007
345.28387
345.77933
344.48584
340.82957
334.28929
324.55249
311.76318
296.14662
278.20821
258.31346
236.44058
212.12864
184.94704
154.90419
122.74356
89.968322
58.655697
31.3456
11.631608
2.9565708
1.1709128
0.81523247
0.64287789
0.55495123
0.45642747
0.44306802
0.46471644
0.39503652
333.27501
336.77086
339.8382
342.10613
343.1181
342.42357
339.39286
333.48907
324.30282
311.77507
296.30057
278.32497
258.28585
236.22318
211.80795
184.64238
154.71435
122.71791
90.100605
58.900584
31.616755
11.816231
3.0066618
1.178656
0.81672354
0.6433789
0.55476324
0.45671072
0.44342545
0.46573261
0.39497382
328.42589
332.22852
335.66767
338.40138
339.92384
339.81823
337.4248
332.1614
323.59033
311.53348
296.2432
278.294
258.16298
235.94392
211.44967
184.31186
154.50468
122.67618
90.222506
59.140227
31.888326
12.003955
3.0583191
1.1864284
0.81828021
0.64388597
0.55469336
0.4571086
0.44385133
0.46674705
0.39491553
323.1836
327.26551
331.04949
334.20353
336.24108
336.69777
334.93511
330.33068
322.38312
310.87053
295.94331
278.09995
257.89144
235.58627
211.04431
183.94993
154.27206
122.61769
90.333043
59.373995
32.160183
12.194155
3.1115763
1.1941853
0.81976795
0.64437658
0.55471051
0.45761135
0.44435117
0.46802219
0.39486523
317.60775
321.93671
326.03333
329.57473
332.10017
333.09033
331.96104
328.00903
320.71526
309.76732
295.25565
277.63218
257.46785
235.13593
210.58231
183.55089
154.01327
122.54059
90.431207
59.601246
32.432007
12.386827
3.1664639
1.2018911
0.82107588
0.64497527
0.55480084
0.45819473
0.44493425
0.46935823
0.39482365
311.76298
316.30277
320.67458
324.56691
327.54485
329.03907
328.52046
325.23794
318.59506
308.26569
294.22853
276.90217
256.87579
234.57907
210.05423
183.10901
153.72502
122.44302
90.51597
59.821358
32.703467
12.581928
3.2230043
1.2095233
0.82220891
0.64549961
0.55510054
0.45883847
0.44561379
0.47075432
0.39478966
305.71788
310.42909
315.0342
319.23473
322.61959
324.59428
324.6483
322.02346
316.06331
306.35922
292.87243
275.91679
256.10069
233.90284
209.45096
182.61865
153.40404
122.32308
90.586264
60.033701
32.974353
12.779452
3.2812061
1.2170595
0.8229704
0.64600126
0.55580225
0.45954102
0.44639129
0.47228779
0.39476435
299.54335
304.38443
309.17783
313.63967
317.37313
319.80819
320.38646
318.39112
313.12172
304.07903
291.16942
274.66854
255.13113
233.0959
208.76402
182.07441
153.04714
122.17894
90.640948
60.237472
33.244338
12.979619
3.3410691
1.2244727
0.82348875
0.64664747
0.55644633
0.46030088
0.44727535
0.47394407
0.3947493
293.31053
298.23868
303.17305
307.84531
311.87443
314.72083
315.78179
314.38393
309.78327
301.43731
289.13543
273.14367
253.95883
232.14892
207.98599
181.47126
152.65128
122.00878
90.678764
60.431846
33.512151
13.183167
3.4025716
1.2317268
0.82406232
0.647304
0.55718676
0.46109724
0.44827586
0.47572382
0.39474525
287.08888
292.06122
297.08839
301.91836
306.1876
309.38726
310.88372
310.04308
306.0865
298.43032
286.79458
271.33854
252.58025
231.05551
207.11062
180.80469
152.21371
121.81094
90.698277
60.616177
33.776258
13.389353
3.4656737
1.2387803
0.82476953
0.64781823
0.5580104
0.46193217
0.44940084
0.47758566
0.39475157
280.94418
285.91875
290.99083
295.92514
300.37693
303.86754
305.74644
305.41407
302.06889
295.08822
284.13488
269.27554
250.98949
229.81109
206.13278
180.07094
151.73199
121.58399
90.698432
60.790048
34.036468
13.596487
3.5303854
1.2456009
0.82542667
0.64828491
0.55887432
0.46282136
0.45065894
0.47931756
0.39476813
274.93683
279.87353
284.94403
289.92995
294.50619
298.2205
300.43037
300.54645
297.77091
291.44443
281.173
266.95619
249.18116
228.41183
205.04898
179.2672
151.20412
121.32685
90.685417
60.953143
34.292447
13.804575
3.5967244
1.2521818
0.8258254
0.648804
0.55966409
0.46377514
0.4520581
0.48095126
0.39479411
269.12052
273.98185
279.00662
283.99315
288.63654
292.50714
294.99486
295.49298
293.23811
287.53498
277.93839
264.37962
247.17272
226.85913
203.85814
178.39156
150.62853
121.03834
90.651043
61.104877
34.54385
14.013374
3.6646983
1.2585459
0.82593882
0.6492566
0.56031959
0.46480003
0.4535995
0.48256127
0.39482889
263.54144
268.29316
273.23119
278.17014
282.82535
286.79072
289.49171
290.30969
288.51961
283.40038
274.46269
261.57059
244.97242
225.15507
202.56026
177.44311
150.00433
120.71764
90.593563
61.244737
34.79031
14.222611
3.7343038
1.2647372
0.82592568
0.64947582
0.56093372
0.46589789
0.4552793
0.48402597
0.3948728
258.23792
262.84951
267.66368
272.51061
277.12568
281.12704
283.9756
285.05095
283.66568
279.08352
270.77871
258.55213
242.58272
223.30378
201.15654
176.422
149.33128
120.36436
90.515234
61.37233
35.031429
14.432005
3.8055274
1.2708056
0.82584089
0.64949342
0.5615686
0.46706732
0.45709641
0.48549315
0.39492735
253.24038
257.6854
262.34292
267.05781
271.58497
275.56698
278.49956
279.7698
278.72708
274.62967
266.92342
255.35186
240.02361
221.3153
199.65142
175.32962
148.60973
119.97843
90.415784
61.487319
35.266769
14.641262
3.8783603
1.2767974
0.82567154
0.64942764
0.56194796
0.4683056
0.45904593
0.48702589
0.39499491
248.57162
252.82783
257.30058
261.84832
266.24467
270.15644
273.11321
274.51724
273.75415
270.0854
262.93655
252.00046
237.31673
219.2014
198.05122
174.16853
147.84075
119.56023
90.295168
61.589447
35.495863
14.849717
3.95289
1.2827481
0.82539603
0.64917693
0.56206861
0.46960676
0.46110989
0.48846699
0.39507867
244.24737
248.29676
252.56133
256.912
261.14008
264.93596
267.86196
269.34144
268.7959
265.49748
258.85921
248.53051
234.485
216.97437
196.35798
172.94232
147.02626
119.11068
90.153604
61.678574
35.718318
15.056268
4.0297658
1.2886801
0.82489609
0.64844901
0.56209102
0.47095236
0.46327517
0.48976988
0.39518225
240.27746
244.10609
248.14381
252.27276
256.30076
259.9409
262.78672
264.28719
263.89917
260.91192
254.73327
244.97661
231.55412
214.65183
194.58629
171.65656
146.1691
118.63113
89.991577
61.754725
35.933822
15.261141
4.1083122
1.2945971
0.82381384
0.64747024
0.56203525
0.4723229
0.46554099
0.49091889
0.3953092
236.66686
240.26474
244.06156
247.9494
251.7513
255.20178
257.92386
259.39556
259.10813
256.37338
250.60062
241.37471
228.55189
212.25299
192.74795
170.31814
145.27288
118.12339
89.809829
61.818087
36.14224
15.463965
4.1881691
1.3004832
0.82229824
0.64647522
0.5619146
0.47370033
0.4678188
0.49208013
0.39546319
233.41586
236.77684
240.32321
243.95573
247.51119
250.74413
253.30497
254.70346
254.46362
251.92435
246.50242
237.76139
225.50763
209.7986
190.85638
168.93511
144.34209
117.5897
89.609304
61.868989
36.343646
15.664619
4.2690982
1.3063928
0.8206539
0.64540082
0.56185922
0.47507077
0.46994413
0.49298945
0.39564835
230.5206
233.64208
236.93269
240.30053
243.59472
246.58819
248.95648
250.24322
250.00268
247.60461
242.47842
234.17334
222.45228
207.31228
188.92694
167.51676
143.3819
117.03275
89.391259
61.907861
36.538119
15.863193
4.3511952
1.3124493
0.81900302
0.64427818
0.56185921
0.47642137
0.471784
0.49372532
0.39586862
227.97423
230.8568
233.89008
236.98833
240.01153
242.7494
244.90003
246.04261
245.75824
243.45044
238.56574
230.6458
219.41686
204.82252
186.97618
166.07322
142.39802
116.4557
89.157268
61.935235
36.725711
16.059694
4.4348653
1.3188217
0.81734786
0.64317566
0.56191854
0.47773894
0.4732605
0.49443057
0.39612908
225.76813
228.41515
231.19285
234.02059
236.76782
239.2394
241.15316
242.12524
241.75914
239.49426
234.7977
227.20983
216.4272
202.34904
185.01894
164.6145
141.39667
115.8621
88.909087
61.9517
36.906487
16.254486
4.5199589
1.3257302
0.81577199
0.64218177
0.56211091
0.4790109
0.47431839
0.49513168
0.39643646
223.8926
226.30984
228.83672
231.39665
233.86727
236.0669
237.73011
238.51115
238.03076
235.76549
231.20527
223.89453
213.50769
199.90102
183.06944
163.15074
140.38455
115.25582
88.648687
61.957374
37.080562
16.447438
4.6069306
1.3332697
0.81431785
0.64135035
0.56228443
0.48022565
0.4750376
0.49594273
0.39679334
222.33655
224.53211
226.81568
229.11386
231.31118
233.23773
234.64184
235.21677
234.595
232.29092
227.81861
220.73073
210.68659
197.50532
181.14615
161.69385
139.36902
114.64109
88.378314
61.954778
37.247829
16.639004
4.6957919
1.3414373
0.81301304
0.64069911
0.56237235
0.48137203
0.47545837
0.49643682
0.39719604
221.08717
223.07115
225.1214
227.16681
229.09769
230.75418
231.89538
232.25424
231.46943
229.09351
224.66551
217.74956
207.99456
195.19627
179.26859
160.25675
138.35788
114.02242
88.100435
61.945841
37.408592
16.829355
4.7866078
1.3502432
0.81188321
0.64023114
0.56238967
0.48243979
0.47563244
0.49676332
0.39764579
220.12999
221.91424
223.74316
225.54728
227.22152
228.61471
229.49385
229.63091
228.66597
226.18998
221.76728
214.97585
205.46611
192.99378
177.45338
158.85141
137.35888
113.40455
87.817566
61.928487
37.563207
17.018443
4.8792669
1.3597048
0.81094859
0.63992177
0.56237377
0.48342026
0.47559837
0.49738989
0.3981461
219.44893
221.04679
222.66821
224.24466
225.67448
226.81119
227.4403
227.34842
226.19073
223.58978
219.13511
212.42083
203.10523
190.90842
175.71315
157.48846
136.37966
112.79229
87.532424
61.905677
37.712174
17.206235
4.9739511
1.3698351
0.81020372
0.63970073
0.56228518
0.48430576
0.47539807
0.49802615
0.3987017
219.0258
220.45192
221.88121
223.24563
224.44608
225.33594
225.72938
225.40617
224.04798
221.30132
216.77979
210.09454
200.91355
188.95379
174.06019
156.17828
135.42777
112.19049
87.247858
61.878869
37.856105
17.392773
5.0705869
1.3806725
0.80961483
0.63946944
0.56199823
0.48509107
0.47508507
0.49882494
0.39931488
218.8409
220.11047
221.36409
222.53355
223.52149
224.17935
224.34991
223.80073
222.23967
219.33391
214.71911
208.0283
198.92781
187.15088
172.50956
154.93169
134.51077
111.60409
86.966797
61.849585
37.995736
17.578166
5.1690994
1.3922415
0.80913921
0.63914034
0.56126508
0.48577649
0.4747109
0.4997691
0.39997839
218.86407
219.99965
221.09483
222.08747
222.87993
223.32767
223.28668
222.52042
220.75788
217.6842
212.95492
206.22796
197.16279
185.51298
171.0744
153.75898
133.63609
111.03799
86.692226
61.819445
38.131973
17.762557
5.2692126
1.4045563
0.80873611
0.63866492
0.56030727
0.48640321
0.47431934
0.50049792
0.40067656
219.06236
220.07878
221.04785
221.8846
222.49793
222.76184
222.52062
221.54966
219.58972
216.34144
211.47818
204.67667
195.61621
184.0471
169.76471
152.66936
132.81078
110.49704
86.427141
61.790137
38.265783
17.946761
5.3706049
1.4176334
0.80830568
0.63803936
0.55928895
0.4869949
0.47395428
0.50073454
0.40138663
219.42932
220.33062
221.17228
221.89043
222.35201
222.45409
222.03202
220.87245
218.72483
215.30226
210.29431
203.38997
194.29755
182.76261
168.58969
151.67122
132.0415
109.98591
86.1745
61.763349
38.39799
18.131455
5.4732135
1.4314958
0.8077964
0.63729689
0.55829663
0.48753862
0.47366421
0.50073042
0.40208146
219.92352
220.73617
221.47011
222.05549
222.3981
222.37465
221.79263
220.46361
218.14274
214.55225
209.39763
202.37197
193.20978
181.66639
167.55702
150.77196
131.33438
109.50908
85.937179
61.740729
38.529392
18.317048
5.5770447
1.4461782
0.80734759
0.63649616
0.55739813
0.48796995
0.47347798
0.50119928
0.40275958
220.508
221.24938
221.90057
222.38513
222.60461
222.45618
221.76406
220.29179
217.81344
214.06445
208.75809
201.60339
192.34676
180.75999
166.67191
149.97771
130.69493
109.07071
85.717935
61.72388
38.660684
18.504108
5.6822088
1.4617102
0.80709186
0.63570398
0.5566268
0.48812581
0.47338209
0.50226075
0.40343023
221.14461
221.83255
222.4206
222.82859
222.96391
222.70004
221.87713
220.3053
217.70958
213.81591
208.36163
201.07396
191.70325
180.04293
165.93755
149.29329
130.12793
108.67462
85.519373
61.714434
38.792656
18.693183
5.7887895
1.4781232
0.80706324
0.63499433
0.55600218
0.48814676
0.4733628
0.50353032
0.40409043
221.79126
222.4437
222.98874
223.34341
223.41894
223.08161
222.16184
220.46074
217.76175
213.77663
208.19494
200.76951
191.27149
179.51214
165.35485
148.72198
129.63725
108.32421
85.343899
61.713302
38.92607
18.884764
5.8971051
1.4954497
0.80713906
0.63443587
0.55553733
0.48812497
0.47339835
0.50500935
0.404735
222.40243
223.03691
223.55868
223.88263
223.92174
223.53705
222.55888
220.78209
217.96578
213.86463
208.19999
200.66678
191.03645
179.16003
164.92185
148.26526
129.22578
108.02236
85.193774
61.719515
39.061788
19.079057
6.0073383
1.5137288
0.80735286
0.634076
0.55524595
0.48807484
0.47345532
0.50673796
0.40535696
222.93133
223.5649
224.08265
224.39803
224.42374
224.01774
223.00875
221.189
218.31533
214.11663
208.32447
200.69906
190.9768
178.97484
164.63355
147.92259
128.89518
107.77132
85.071107
61.739322
39.200737
19.276053
6.1205278
1.5330137
0.80776964
0.63391518
0.55511644
0.48799659
0.47350121
0.50885866
0.40594549
223.33136
223.98056
224.51294
224.84129
224.87612
224.47448
223.46235
221.62884
218.72774
214.48437
208.61402
200.85827
191.02623
178.93886
164.48185
147.69118
128.64577
107.57262
84.977535
61.773439
39.343543
19.475188
6.2365064
1.553364
0.8084425
0.63388943
0.55509405
0.48796535
0.47352716
0.51131547
0.40648858
223.55797
224.23772
224.8017
225.16295
225.22903
224.85824
223.87222
222.05603
219.15674
214.89817
208.99369
201.16813
191.20541
178.99252
164.45361
147.56577
128.47631
107.42693
84.914379
61.820579
39.490686
19.675982
6.3551005
1.574839
0.80941038
0.63392234
0.55511319
0.48799643
0.47355239
0.51426413
0.40697517
223.57732
224.29215
224.89968
225.31097
225.43184
225.11811
224.18782
222.42191
219.56313
215.32659
209.41423
201.55034
191.51267
179.16679
164.49883
147.53837
128.38387
107.33398
84.882926
61.881649
39.642612
19.878298
6.4765344
1.5974891
0.81069377
0.63408043
0.55520681
0.48808918
0.47360104
0.51804347
0.40739259
223.39819
224.16187
224.81621
225.27777
225.44836
225.20341
224.35495
222.67077
219.88563
215.70593
209.82515
201.95858
191.87735
179.44711
164.6444
147.56952
128.36301
107.29247
84.880663
61.956677
39.799658
20.082279
6.6008645
1.6213556
0.81228818
0.63452922
0.55548258
0.48827535
0.47369708
0.52167034
0.40773013
222.89586
223.74365
224.48795
225.04213
225.29589
225.11756
224.35006
222.75888
220.07783
215.98868
210.17993
202.3501
192.26212
179.77676
164.87968
147.67564
128.38459
107.29251
84.896159
62.045443
39.961987
20.287975
6.7280647
1.6464742
0.81415873
0.63518739
0.55622097
0.48860026
0.47386595
0.52495273
0.40798299
222.02982
222.96131
223.80458
224.48126
224.8684
224.8423
224.18558
222.6941
220.10758
216.1411
210.44279
202.68849
192.63176
180.12492
165.15801
147.85702
128.46004
107.32015
84.941893
62.148068
40.129553
20.495342
6.8580638
1.6728764
0.8162477
0.63599696
0.55750899
0.48911062
0.47413346
0.52804596
0.40814711
220.81746
221.8374
222.78062
223.56853
224.08446
224.20131
223.72468
222.41554
219.98546
216.13378
210.56315
202.92906
192.94612
180.45754
165.45287
148.07475
128.59406
107.39438
85.017747
62.26372
40.302023
20.704197
6.9907281
1.7005846
0.81848908
0.63700143
0.55907128
0.48985085
0.47451795
0.53077905
0.40822696
219.24648
220.35973
221.40923
222.31745
222.97203
223.23325
222.927
221.81149
219.60598
215.96122
210.52968
203.02753
193.16543
180.74005
165.73608
148.3078
128.75647
107.50311
85.114073
62.390722
40.478748
20.914191
7.1258392
1.7296109
0.82082663
0.63826081
0.56085539
0.49086091
0.47501388
0.53298896
0.40821171
217.3162
218.52562
219.68569
220.72051
221.52292
221.94181
221.8179
220.90277
218.91176
215.51402
210.32768
202.99021
193.2542
180.93959
165.97871
148.53375
128.93166
107.63057
85.226242
62.526851
40.65875
21.124793
7.2630821
1.759958
0.82323009
0.63984087
0.56284591
0.49218091
0.47560159
0.534728
0.40811269
215.0359
216.34139
217.61296
218.77679
219.72954
220.31753
220.38264
219.68096
217.92232
214.76994
209.85356
202.78409
193.21765
181.02062
166.15148
148.72913
129.10294
107.76662
85.348604
62.669275
40.840715
21.335291
7.4020405
1.791612
0.82570229
0.64178097
0.56504497
0.49388088
0.47627508
0.53610881
0.40794041
212.42577
213.824
215.20441
216.49561
217.5967
218.36083
218.6161
218.13648
216.62349
213.73584
209.09469
202.30801
193.0306
180.9912
166.22477
148.87014
129.25256
107.89978
85.474573
62.814593
41.022996
21.54479
7.542193
1.8245402
0.82827347
0.64406783
0.5674397
0.49611027
0.47704023
0.53719454
0.40770613
209.51717
211.00159
212.48454
213.89744
215.14232
216.08003
216.52541
216.27117
215.01206
212.4033
208.05816
201.57557
192.59048
180.83058
166.20342
148.93194
129.36224
108.01761
85.596776
62.958902
41.203632
21.752227
7.6829198
1.8586879
0.83098588
0.64663399
0.56998318
0.49926162
0.47789411
0.53767816
0.40742527
206.35177
207.91259
209.48811
211.01292
212.39244
213.49538
214.12634
214.09464
213.0909
210.76833
206.7335
200.57472
191.90182
180.44962
166.07424
148.91776
129.41278
108.10717
85.707211
63.097813
41.38037
21.956388
7.8235179
1.8939757
0.83387716
0.6493798
0.57261653
0.50230515
0.47881584
0.53755601
0.40711448
202.98017
204.60455
206.25922
207.88219
209.38282
210.63407
211.4487
211.62498
210.87269
208.83777
205.12187
199.30256
190.97744
179.83984
165.75611
148.81905
129.40455
108.15484
85.797494
63.226554
41.550706
22.15593
7.9632079
1.9302998
0.83696968
0.65219923
0.57528278
0.50490989
0.47976468
0.53679202
0.40679091
199.45989
201.13229
202.84948
204.5532
206.15704
207.53871
208.52124
208.89067
208.37856
206.62524
203.22921
197.75877
189.79807
179.00657
165.24042
148.56778
129.33396
108.15496
85.859218
63.340087
41.711936
22.34939
8.1011689
1.9675337
0.84026766
0.65499744
0.57789164
0.50709331
0.4807056
0.53515053
0.40647287
195.85274
197.55545
199.31597
201.0799
202.76546
204.25562
205.38384
205.92716
205.63769
204.15317
201.07108
195.95271
188.36771
177.9575
164.53766
148.15039
129.14774
108.11372
85.881422
63.433385
41.86121
22.535241
8.236101
2.0055303
0.84375899
0.65769311
0.58033241
0.50883302
0.48163132
0.53277643
0.40617788
192.22179
193.93558
195.71833
197.51959
199.26242
200.83549
202.08267
202.77559
202.68534
201.44991
198.66811
193.89661
186.69231
176.67903
163.63015
147.57416
128.82728
107.99214
85.870915
63.501383
41.995551
22.711976
8.3674298
2.0441309
0.84741903
0.66020554
0.58253466
0.51012063
0.4825334
0.52984009
0.4059177
188.62832
190.33324
192.11606
193.93028
195.70394
197.33179
198.66564
199.48425
199.56162
198.54973
196.04773
191.61016
184.78385
175.17374
162.52336
146.83341
128.38283
107.76823
85.819021
63.535783
42.112054
22.878119
8.4944895
2.0831584
0.85121417
0.66244237
0.58448522
0.51101412
0.48340935
0.52646395
0.40569387
185.12908
186.80524
188.56576
190.36802
192.14506
193.79784
195.18565
196.09981
196.31084
195.4919
193.24332
189.12051
182.66325
173.45919
161.22847
145.92699
127.80854
107.45197
85.693786
63.535972
42.208565
23.032255
8.616626
2.1223691
0.8551037
0.66430629
0.58619113
0.5117377
0.48427255
0.5228762
0.40550362
181.77393
183.40228
185.11886
186.88469
188.63773
190.28522
191.69421
192.66861
192.9787
192.31767
190.29052
186.45626
180.35073
171.54713
159.74203
144.85196
127.09883
107.03687
85.497681
63.511427
42.2823
23.172895
8.7332714
2.161576
0.85904361
0.66572267
0.58763295
0.51257127
0.48561846
0.51916526
0.40534441
178.60417
180.16721
181.81969
183.52601
185.22879
186.84149
188.23901
189.23735
189.61046
189.0695
187.22752
183.64986
177.87165
169.45503
158.07395
143.61025
126.25095
106.51865
85.232285
63.439398
42.328015
23.298555
8.8438057
2.2006568
0.86303098
0.66669233
0.58877225
0.51372142
0.48742516
0.51529047
0.40521241
175.65138
177.13377
178.70418
180.33004
181.95836
183.50854
184.86329
185.84998
186.24982
185.7898
184.09417
180.73727
175.25688
167.2077
156.24361
142.21497
125.26985
105.89608
84.893256
63.308333
42.340999
23.408394
8.947801
2.2395325
0.86704579
0.66731481
0.58962345
0.51528469
0.48848407
0.51164459
0.40511008
172.93711
174.326
175.79907
177.32633
178.85877
180.32139
181.60443
182.54582
182.93712
182.51901
180.92969
177.75502
172.53872
164.83188
154.27159
140.67985
124.16178
105.17
84.47882
63.12894
42.333693
23.502301
9.044981
2.2781179
0.87108231
0.66774033
0.59029713
0.51723101
0.48888361
0.50805829
0.40503669
170.47302
171.75835
173.12179
174.53552
175.95401
177.30739
178.49304
179.35839
179.7081
179.29419
177.77117
174.73857
169.7492
162.35433
152.17821
139.01611
122.93521
104.34289
83.988536
62.899507
42.302862
23.579391
9.1351211
2.3163366
0.87514184
0.66810505
0.59096424
0.51933519
0.48892886
0.504672
0.404995
168.2617
169.43626
170.68093
171.96962
173.25975
174.48604
175.55249
176.31484
176.59308
176.14815
174.65274
171.72186
166.92021
159.803
149.9858
137.24031
121.5971
103.41926
83.423612
62.618554
42.230856
23.638602
9.2181314
2.3542096
0.87922055
0.66846689
0.59171526
0.52143017
0.48879746
0.501194
0.40497201
166.29784
167.35715
168.47702
169.63261
170.7838
171.86926
172.79894
173.43564
173.61654
173.10889
171.60495
168.73659
164.08289
157.20649
147.71858
135.37112
120.15979
102.40619
82.786899
62.286501
42.123099
23.679254
9.2938262
2.3917336
0.88330679
0.66879119
0.59244549
0.52344079
0.48850697
0.49761613
0.40495907
164.5695
165.51165
166.5036
167.52136
168.52673
169.46176
170.2417
170.73482
170.79708
170.19921
168.65415
165.81155
161.2668
154.59319
145.40176
133.42896
118.63941
101.31264
82.082665
61.904711
41.983242
23.697901
9.3617553
2.4289081
0.88738472
0.66899579
0.59294753
0.52542042
0.48792103
0.49355622
0.40491153
163.05953
163.88492
164.74851
165.62675
166.48287
167.26162
167.88186
168.22252
168.14666
167.43611
165.82194
162.97195
158.49928
151.99063
143.0608
131.43523
117.0521
100.14917
81.316582
61.475457
41.81188
23.6977
9.4221871
2.465723
0.89142348
0.66909449
0.59312927
0.52713396
0.48698235
0.48924754
0.40482926
161.74683
162.45783
163.19494
163.93476
164.6415
165.26209
165.71637
165.8994
165.67159
164.83112
163.12482
160.23869
155.80462
149.42476
140.72109
129.41165
115.41555
98.927948
80.495608
61.00197
41.61032
23.68771
9.4756251
2.5021478
0.8954028
0.66911182
0.59312997
0.52824887
0.48570653
0.48484597
0.40473607
160.60735
161.20793
161.82236
162.42713
162.98708
163.45087
163.73829
163.76043
163.37273
162.3899
160.57346
157.62728
153.20249
146.91835
138.40686
127.38412
113.74817
97.662001
79.627545
60.488182
41.379917
23.659942
9.5217323
2.5381507
0.8992945
0.66908254
0.59303956
0.52869823
0.48408935
0.48034077
0.40467035
159.61542
160.11089
160.60807
161.08309
161.50105
161.80947
161.9387
161.79587
161.24538
160.11262
158.17289
155.14723
150.70616
144.48736
136.13525
125.37031
112.06523
96.363331
78.720407
59.938566
41.122435
23.610138
9.5602851
2.5737549
0.9030703
0.66893585
0.59272011
0.5287337
0.48214424
0.47589436
0.40463102
158.74411
159.14074
159.52727
159.87937
160.16194
160.32238
160.29876
159.99378
159.28127
157.99548
155.92408
152.80413
148.32489
142.14323
133.91831
123.37633
110.37932
95.043011
77.782501
59.358091
40.840121
23.543972
9.5914177
2.6092687
0.90671182
0.66849103
0.5918451
0.52853689
0.47990773
0.47169245
0.40460572
157.96638
158.27119
158.5547
158.79204
158.94551
158.97073
158.79893
158.33857
157.46866
156.03123
153.82505
150.60174
146.06819
139.90028
131.77247
121.42222
108.70735
93.713977
76.822938
58.752218
40.53556
23.46229
9.6148287
2.6444823
0.91021191
0.66742801
0.58963165
0.52762984
0.47723029
0.46773968
0.40458076
157.25553
157.47592
157.66447
157.79429
157.83202
157.72907
157.41848
156.81168
155.79192
154.20803
151.86867
148.53878
143.94155
137.77096
129.72054
119.53091
107.06588
92.389521
75.851045
58.126724
40.211694
23.366135
9.6318406
2.6795982
0.91357648
0.66540368
0.586767
0.52483052
0.4740043
0.46375749
0.40454513
156.58585
156.7294
156.83054
156.86425
156.79511
156.57388
156.13516
155.39235
154.23223
152.50946
150.0414
146.60503
141.93875
135.75344
127.76197
117.70728
105.46432
91.079972
74.875427
57.487425
39.871669
23.256586
9.6406504
2.7138219
0.91684222
0.66305189
0.5839895
0.52089479
0.47030037
0.46084773
0.40449117
155.93357
156.00721
156.03065
155.97736
155.81077
155.4822
154.92685
154.05963
152.77024
150.91818
148.32824
144.788
140.04976
133.84058
125.88735
115.95326
103.90909
89.793845
73.903979
56.840032
39.518732
23.134774
9.6405518
2.7475288
0.92007415
0.66062169
0.58159316
0.51693502
0.46702535
0.45987218
0.40441408
155.27607
155.28801
155.24182
155.11011
154.85631
154.43165
153.77179
152.79287
151.38699
149.41771
146.71605
143.07869
138.27024
132.03181
124.1084
114.27702
102.40881
88.539508
72.944055
56.190044
39.156183
23.002205
9.6375274
2.779882
0.92335992
0.65829429
0.57965468
0.51302782
0.46488705
0.45952876
0.40431104
154.59258
154.54956
154.44134
154.24021
153.90929
153.39976
152.64769
151.57032
150.06187
147.98941
145.18934
141.46596
136.59438
130.33014
122.42889
112.68276
100.96978
87.323632
72.002
55.542552
38.787301
22.860429
9.6296963
2.8097609
0.92679704
0.65617124
0.5779568
0.50919479
0.46345716
0.45939489
0.40418078
153.86397
153.77221
153.60923
153.34696
152.94828
152.36437
151.53172
150.36856
148.77103
146.6093
143.72449
139.9275
135.00221
128.71755
120.83468
111.16496
99.59199
86.149785
71.08269
54.902035
38.415246
22.711072
9.6157512
2.8369967
0.93047413
0.65423762
0.57609938
0.50552426
0.46221176
0.4592453
0.40402316
153.07399
152.93937
152.72838
152.41266
151.95492
151.30642
150.40406
149.16698
147.49302
145.25506
142.29837
138.43979
133.47093
127.16857
119.31088
109.71453
98.272394
85.019291
70.189548
54.27222
38.042941
22.55591
9.5976169
2.8616242
0.93445203
0.65243451
0.57385035
0.50215353
0.46112727