/*--------------------------------*- C++ -*----------------------------------*\
| =========                 |                                                 |
| \\      /  F ield         | OpenFOAM: The Open Source CFD Toolbox           |
|  \\    /   O peration     | Version:  2406                                  |
|   \\  /    A nd           | Website:  www.openfoam.com                      |
|    \\/     M anipulation  |                                                 |
\*---------------------------------------------------------------------------*/
FoamFile
{
    version     2.0;
    format      ascii;
    arch        "LSB;label=32;scalar=64";
    class       volScalarField;
    location    "0.004";
    object      nut;
}
// * * * * * * * * * * * * * * * * * * * * * * * * * * * * * * * * * * * * * //

dimensions      [0 2 -1 0 0 0 0];

internalField   nonuniform List<scalar> 
8951
(
0.0040527003
0.004752675
0.0043745725
0.0042798117
0.004314975
0.0040528281
0.039231894
0.044386714
0.05029385
0.056697138
0.063044204
0.06827661
0.070533606
0.066819154
0.053200605
0.029531932
0.011491177
0.0066798711
0.0056467408
0.0050642762
0.0047564143
0.0043697989
0.004278323
0.0043191158
0.0040529806
0.022260751
0.022461168
0.022708408
0.023019448
0.023423477
0.023964678
0.024707424
0.025740348
0.027176134
0.029143424
0.031770089
0.035162483
0.039390867
0.044456988
0.05027494
0.056593592
0.062871024
0.068068348
0.070356285
0.066779334
0.053409627
0.029855477
0.01161597
0.0067044656
0.005655284
0.0050688014
0.0047597119
0.0043649321
0.0042770349
0.0043233916
0.0040531565
0.022705392
0.022922759
0.02318665
0.023512419
0.023927245
0.024472405
0.025208665
0.026220953
0.027619288
0.029532029
0.032089702
0.035403423
0.039546548
0.044524954
0.050254966
0.056490118
0.062698582
0.067860552
0.070177755
0.066734846
0.05361038
0.030177966
0.011742262
0.0067291152
0.0056634918
0.0050735903
0.00476253
0.0043602382
0.004275982
0.0043278479
0.004053355
0.023115888
0.023350588
0.02363194
0.02397378
0.024401339
0.02495312
0.025686322
0.026682007
0.028047112
0.02990913
0.032400826
0.035637975
0.039698443
0.044589621
0.05023306
0.056386008
0.062526349
0.067652893
0.069997903
0.066685859
0.053803466
0.030498737
0.011870073
0.0067533026
0.0056717658
0.0050786199
0.0047648171
0.0043559446
0.0042751974
0.0043325026
0.0040535768
0.02348919
0.023741768
0.024041371
0.024400514
0.024842627
0.025403579
0.026137095
0.027120285
0.028456637
0.03027219
0.032701385
0.035864313
0.039842508
0.044649761
0.050208302
0.056280524
0.062353775
0.067445024
0.069816589
0.06663243
0.053989185
0.030817653
0.01199983
0.0067779139
0.0056801892
0.0050837966
0.0047665967
0.0043521903
0.0042747128
0.0043372769
0.0040538225
0.023823468
0.024093505
0.024412048
0.024789624
0.025247963
0.025820488
0.026557586
0.027532399
0.028844674
0.030618412
0.032989083
0.036080667
0.039978473
0.044704213
0.050179728
0.056172897
0.062180284
0.067236571
0.069633649
0.066574576
0.054167262
0.031136113
0.012131976
0.0068032862
0.0056884637
0.0050890393
0.0047680415
0.0043490321
0.0042745467
0.0043420977
0.0040540926
0.024116727
0.024403493
0.024741605
0.025138517
0.025614544
0.026200828
0.026944591
0.027915056
0.029208014
0.030944895
0.033261501
0.036285316
0.040106852
0.044751879
0.050146337
0.056062331
0.062005277
0.067027141
0.069448905
0.066512304
0.054337958
0.031454819
0.012266731
0.0068287551
0.0056970775
0.0050942684
0.0047691907
0.0043464832
0.0042746794
0.0043470208
0.0040543898
0.024370802
0.024672176
0.025028128
0.025445187
0.025940082
0.026542034
0.027295285
0.028265235
0.029543599
0.031248763
0.033516159
0.036476241
0.040224577
0.044791485
0.050107077
0.055948008
0.06182814
0.06681632
0.069262159
0.066445619
0.054501443
0.031774436
0.012404201
0.0068542455
0.0057054291
0.0050994033
0.0047699887
0.0043445404
0.0042749267
0.0043520375
0.0040547169
0.02458025
0.024904457
0.025275745
0.025708684
0.02622315
0.026842191
0.027607358
0.028580318
0.029848642
0.031527282
0.03375061
0.036651404
0.040330048
0.044821746
0.050060828
0.05582911
0.061648254
0.066603675
0.069073208
0.066374542
0.054657828
0.032095194
0.012544477
0.0068799277
0.0057139686
0.0051043502
0.0047704243
0.0043431949
0.0042757162
0.0043572219
0.0040550788
0.024744619
0.025088046
0.025480322
0.025933276
0.026462938
0.027100161
0.027879095
0.028858162
0.030120725
0.031777959
0.033962522
0.036808815
0.040421673
0.044841402
0.05000623
0.055704841
0.061465007
0.066388757
0.06888184
0.066299123
0.054807246
0.032418042
0.012688012
0.0069059449
0.0057220295
0.0051089606
0.0047710137
0.0043424205
0.004276549
0.0043623807
0.0040554771
0.024866316
0.025227655
0.02563988
0.026115312
0.02666577
0.027314954
0.028109314
0.02909713
0.030357859
0.031998616
0.03414976
0.036946579
0.040497903
0.044849345
0.049944156
0.055574619
0.061277808
0.06617108
0.068687846
0.066219457
0.054949903
0.032742057
0.012835592
0.0069322065
0.0057303957
0.0051132143
0.0047714591
0.0043420676
0.0042776667
0.004367451
0.0040559117
0.024946409
0.025324639
0.025756266
0.026248747
0.026822185
0.027494198
0.028297324
0.029296278
0.030558556
0.032187452
0.034310441
0.03706295
0.040557228
0.044844303
0.049873649
0.055437652
0.061086085
0.065950086
0.068491025
0.066135672
0.055086144
0.033067267
0.012987621
0.0069588661
0.0057379955
0.0051177779
0.0047716236
0.0043427592
0.0042791077
0.0043727411
0.0040563828
0.024986993
0.025381148
0.025831413
0.026341291
0.026934223
0.027627712
0.028452273
0.029455007
0.030721939
0.032343088
0.034442982
0.037156379
0.040598197
0.044824751
0.04979067
0.055293085
0.060889333
0.065726048
0.068291203
0.066047855
0.055216733
0.033393716
0.013144412
0.0069860532
0.0057453132
0.0051218221
0.0047717327
0.0043437036
0.0042808947
0.0043785821
0.004056895
0.024991053
0.025399882
0.025866545
0.026395512
0.027005547
0.027718301
0.028563178
0.029583776
0.030847806
0.032464641
0.034546135
0.037225585
0.040619403
0.044791108
0.049696582
0.055140344
0.060687079
0.065499654
0.068088174
0.06595596
0.055342528
0.0337214
0.013306154
0.007013598
0.0057532438
0.005124625
0.0047716805
0.0043450478
0.0042830338
0.0043842349
0.0040574443
0.024962051
0.025384115
0.025865562
0.026412601
0.027038573
0.027769899
0.028632501
0.029671302
0.030947531
0.032553479
0.034618731
0.037269275
0.040623856
0.044743445
0.049590815
0.054978921
0.060478831
0.065268335
0.06788164
0.065859848
0.05546382
0.034050239
0.01347291
0.0070412959
0.0057591109
0.005127207
0.0047717035
0.0043469053
0.0042855173
0.0043896883
0.0040580255
0.024903836
0.025337651
0.025832193
0.026395475
0.027036477
0.027784915
0.028664587
0.029718402
0.031009092
0.03262034
0.034668643
0.037292377
0.040610112
0.044678474
0.049472704
0.054808394
0.0602642
0.065032058
0.067671349
0.065759344
0.055580818
0.034380037
0.013644726
0.0070695257
0.0057651996
0.0051298016
0.0047722754
0.0043493201
0.0042883496
0.0043951939
0.0040586269
0.024820643
0.025264623
0.025770596
0.026347069
0.027003819
0.027766551
0.028662037
0.029730433
0.031031753
0.032650659
0.034695684
0.037296235
0.040572893
0.044597077
0.049341949
0.054628464
0.060042904
0.064791127
0.067457093
0.065654268
0.055693545
0.034709868
0.013821767
0.0070987113
0.0057710254
0.0051323863
0.0047728104
0.0043522454
0.0042915517
0.004401927
0.0040592504
0.024716951
0.025169365
0.025684947
0.02627257
0.026943476
0.027718415
0.028628818
0.029710358
0.031022224
0.032645104
0.034686018
0.037269574
0.040515051
0.04449942
0.049198462
0.054438973
0.059814756
0.06454533
0.067238709
0.065544473
0.055801886
0.035039678
0.014004332
0.0071286016
0.0057764255
0.0051354112
0.0047735864
0.00435557
0.0042951664
0.0044089723
0.0040598866
0.02459749
0.025056514
0.025579757
0.026176515
0.026859422
0.027644713
0.028568137
0.02966242
0.030983482
0.032611517
0.034648448
0.037217304
0.040437342
0.044386061
0.049042351
0.054239922
0.059579678
0.064294539
0.06701608
0.065429853
0.055905734
0.035369356
0.014192721
0.0071584547
0.0057812608
0.0051381242
0.0047757685
0.0043592034
0.0042992572
0.0044163217
0.004060522
0.024467348
0.024931017
0.025459812
0.026063498
0.026755789
0.027550204
0.028483976
0.029589504
0.030919949
0.032551974
0.03458725
0.03714358
0.040340638
0.044257483
0.048873981
0.054031493
0.059337718
0.064038713
0.066789124
0.065310334
0.05600509
0.035698843
0.014387117
0.0071878476
0.0057848064
0.0051407807
0.0047802018
0.0043631418
0.0043038329
0.0044243196
0.0040611585
0.024331475
0.02479785
0.025330082
0.025938441
0.02663682
0.027439913
0.028380615
0.029495272
0.030834352
0.032470717
0.034503853
0.03705029
0.040226168
0.044111241
0.048694007
0.053814066
0.059089063
0.063777901
0.066557776
0.065185799
0.056099891
0.036028378
0.014587573
0.0072170738
0.0057874833
0.0051440208
0.00478361
0.004367382
0.0043089346
0.0044328864
0.0040618047
0.024195038
0.02466212
0.025195604
0.025806266
0.026508177
0.027317535
0.028262812
0.029384321
0.030729913
0.032370957
0.034401791
0.036939149
0.04009601
0.043951893
0.048504202
0.053588215
0.058834043
0.063512248
0.066321943
0.065056166
0.056189335
0.036358833
0.014793968
0.0072467463
0.005790376
0.0051472446
0.0047874144
0.0043718345
0.0043146086
0.0044420103
0.0040624694
0.024063049
0.024528869
0.02506144
0.025672034
0.026374947
0.027187748
0.02813527
0.02926115
0.03061111
0.032255097
0.034284936
0.036812479
0.039952656
0.043782961
0.048302805
0.053354612
0.05857315
0.06324202
0.066081438
0.064921486
0.056272463
0.036689064
0.015006571
0.0072771971
0.0057940274
0.005149834
0.0047916438
0.0043765145
0.0043208936
0.0044514944
0.0040631578
0.023940338
0.024402997
0.024932547
0.025540746
0.026242133
0.027055467
0.02800282
0.029130391
0.03048238
0.032127347
0.0341553
0.036674311
0.039797877
0.043603647
0.048090021
0.053114524
0.058307056
0.062967654
0.065836382
0.064781989
0.05634944
0.037016789
0.015225489
0.0073082681
0.005797894
0.0051522702
0.0047961257
0.0043814988
0.0043278322
0.0044603811
0.0040638786
0.023831488
0.024289195
0.024813718
0.025417277
0.02611467
0.026925388
0.027870662
0.028996731
0.030348214
0.031992043
0.034016376
0.036527194
0.039633754
0.043416501
0.047873449
0.052870512
0.058036566
0.062689782
0.065592163
0.064638025
0.056420355
0.037342038
0.015450971
0.0073395408
0.0058006364
0.0051551445
0.004800261
0.0043868372
0.0043354638
0.0044688128
0.0040646369
0.023740767
0.024191867
0.024709489
0.025306286
0.025997319
0.026802359
0.027743777
0.028864923
0.030213256
0.031853589
0.033872446
0.036373759
0.039464229
0.043223986
0.047652969
0.052618301
0.057762418
0.062408956
0.065343754
0.064489743
0.056485431
0.037664378
0.015683238
0.0073706784
0.0058016686
0.0051579695
0.0048036854
0.0043925588
0.004343794
0.0044771294
0.0040654355
0.023672096
0.024115098
0.024624111
0.025212183
0.025894626
0.026691487
0.027626386
0.028739885
0.030082234
0.0317165
0.033727781
0.036218014
0.039292176
0.043028439
0.047429258
0.052361276
0.057486144
0.062125914
0.065090806
0.064337377
0.056544785
0.037983484
0.015922437
0.0074016837
0.0058024339
0.0051595988
0.0048070346
0.0043986681
0.0043528033
0.0044847932
0.0040662776
0.023629022
0.024062629
0.024561523
0.025139107
0.02581093
0.026597318
0.027522991
0.028626294
0.029959816
0.03158529
0.033586591
0.036063812
0.039120157
0.042832551
0.047205013
0.052108029
0.057210128
0.061841579
0.064835824
0.064181288
0.056598539
0.038299056
0.016168698
0.0074329368
0.0058036531
0.0051599234
0.004810961
0.0044051509
0.0043624892
0.0044924654
0.0040671683
0.023614712
0.024037837
0.024525321
0.025090882
0.025750277
0.026524101
0.027438003
0.028528672
0.029850576
0.031464468
0.03345319
0.035915194
0.038951956
0.042639438
0.046982705
0.051855866
0.056934325
0.061556737
0.064579438
0.064021888
0.056646805
0.038610804
0.016422245
0.007465007
0.0058042565
0.0051601316
0.0048137887
0.0044119836
0.004372831
0.0045004179
0.0040681156
0.023631958
0.024043736
0.024518758
0.025071005
0.025716412
0.026475816
0.02737563
0.028451363
0.029758964
0.031358477
0.03333189
0.0357762
0.038791254
0.042452159
0.046764888
0.051606336
0.056654491
0.061272351
0.06432239
0.063859652
0.056689704
0.038918004
0.016683778
0.0074983095
0.0058045383
0.0051600521
0.0048148918
0.0044191249
0.0043837466
0.0045079468
0.0040691316
0.023683198
0.024082993
0.024544742
0.025082641
0.025712765
0.026456153
0.027339833
0.028398504
0.029689257
0.031271635
0.03322692
0.035650821
0.038641671
0.042273705
0.046553588
0.051361946
0.056380671
0.06099016
0.064065563
0.063695128
0.056727432
0.039219472
0.016956323
0.0075327142
0.0058045534
0.005158532
0.0048154655
0.0044264758
0.0043952712
0.0045148508
0.0040702264
0.023770564
0.02415796
0.024605864
0.025128645
0.025742465
0.02646852
0.027334298
0.028373995
0.029645524
0.031208095
0.033142392
0.035542991
0.038506847
0.042107383
0.046352106
0.051125145
0.056115132
0.060711977
0.063809934
0.063528944
0.056760255
0.039515678
0.017237045
0.0075675566
0.0058026134
0.0051555375
0.0048163573
0.0044339317
0.0044075933
0.0045210749
0.0040714098
0.023895898
0.024270696
0.024704429
0.025211581
0.025808354
0.026516039
0.027362433
0.028381478
0.029631604
0.031171806
0.033082263
0.03545655
0.038390377
0.041956439
0.046163249
0.050898235
0.055856729
0.060440411
0.063556512
0.063361799
0.05678857
0.039806335
0.017524688
0.0076032571
0.0057989378
0.0051526076
0.0048169924
0.0044413942
0.0044200553
0.0045273569
0.004072694
0.024060732
0.02442295
0.024842419
0.025333695
0.025912955
0.02660152
0.02742733
0.02842431
0.029651063
0.03116648
0.033050296
0.035395193
0.03829576
0.041824033
0.045989792
0.050683529
0.055607143
0.060171903
0.063306015
0.063194427
0.056812908
0.040091487
0.017818885
0.0076415665
0.0057948743
0.0051494089
0.0048177871
0.004448785
0.0044314579
0.0045325212
0.0040740904
0.024266267
0.024616125
0.025021472
0.025496878
0.026058434
0.026727414
0.027531727
0.028505517
0.029707165
0.031195555
0.033050019
0.035362445
0.038226419
0.041713373
0.045834508
0.050483361
0.055368281
0.059907012
0.063059521
0.063027599
0.056833782
0.040371416
0.0181195
0.0076843744
0.0057908624
0.0051460447
0.0048186525
0.0044560324
0.0044411715
0.0045369135
0.0040756155
0.024513376
0.02485129
0.025242873
0.025702657
0.026246584
0.026895803
0.027677994
0.028627772
0.029802832
0.031262138
0.033084642
0.035361535
0.038185542
0.041627856
0.045700035
0.050300012
0.055142358
0.059655544
0.062818516
0.062862115
0.056851665
0.040646339
0.018427307
0.007729774
0.0057868956
0.0051428236
0.0048197517
0.0044630652
0.0044491273
0.0045411707
0.0040772992
0.024802604
0.025129169
0.025507553
0.025952198
0.02647883
0.027108393
0.027868126
0.028793382
0.029940623
0.031368975
0.033156984
0.035395217
0.03817564
0.041569713
0.045588535
0.050135556
0.054931222
0.059415476
0.062584175
0.062698725
0.056867024
0.04091747
0.018740184
0.0077765181
0.0057833451
0.0051401314
0.0048218406
0.0044698171
0.0044547344
0.0045454163
0.0040791779
0.025134136
0.025450118
0.025816071
0.026246288
0.026756216
0.02736651
0.028103734
0.029004272
0.03012274
0.031518485
0.033269585
0.035465993
0.038199029
0.041540187
0.04550218
0.049991961
0.054736621
0.059187516
0.06235767
0.06253758
0.056880287
0.041184717
0.019058462
0.0078249222
0.0057803708
0.0051380726
0.0048236805
0.0044762286
0.0044587017
0.0045501502
0.004081268
0.025507704
0.025814043
0.026168533
0.026585261
0.027079335
0.027671028
0.028385986
0.029261933
0.030350975
0.031712751
0.033424775
0.035576375
0.038258345
0.041542261
0.045443453
0.049871233
0.054560258
0.058973121
0.062140376
0.06238113
0.056891417
0.041449239
0.019381689
0.007875923
0.0057780859
0.0051365811
0.0048247369
0.0044822454
0.0044612217
0.0045534847
0.0040835563
0.025922489
0.02622029
0.026564482
0.02696889
0.027448215
0.028022264
0.028715507
0.029567318
0.030626609
0.031953388
0.033624514
0.035728673
0.038356081
0.041579101
0.045414437
0.04977527
0.054403739
0.058773699
0.061934545
0.062231097
0.056900909
0.04171137
0.019709602
0.0079298957
0.0057766001
0.0051356831
0.0048252311
0.0044878212
0.0044625399
0.0045560842
0.0040860572
0.026377039
0.026667576
0.027002818
0.027396286
0.027862218
0.028419881
0.02909233
0.029920751
0.030950262
0.032241335
0.033870056
0.035924428
0.038494721
0.041652111
0.045416701
0.049705632
0.054268482
0.058590377
0.061738321
0.062084815
0.056909245
0.04197101
0.020041604
0.0079870678
0.0057759975
0.0051354013
0.0048257071
0.0044929215
0.0044629026
0.0045600062
0.0040887996
0.026869141
0.027153861
0.027481729
0.027865876
0.028320004
0.028862449
0.029516307
0.030321725
0.031321816
0.032576753
0.034161676
0.036163797
0.038673712
0.041761595
0.04545124
0.04966353
0.054155719
0.058424219
0.061550641
0.061944638
0.056916985
0.04222805
0.020377637
0.0080474094
0.0057762427
0.0051355362
0.0048262357
0.004497521
0.0044625178
0.0045639405
0.0040918207
0.027395959
0.027676443
0.027998678
0.028375347
0.028819574
0.029348223
0.029985943
0.030769168
0.031740673
0.032959459
0.034499527
0.036447103
0.038892872
0.041908587
0.045518987
0.049649998
0.054066529
0.058276434
0.061378623
0.061811508
0.056924699
0.042482448
0.020717072
0.0081112188
0.0057772043
0.0051356927
0.0048265865
0.0045015986
0.0044616662
0.0045685204
0.004095146
0.027953953
0.028231847
0.028550328
0.028921536
0.029357971
0.029874864
0.030498641
0.031261349
0.03220559
0.033388901
0.034883914
0.036776086
0.039154754
0.042094401
0.045620979
0.049665971
0.054001838
0.05814795
0.061220995
0.061686138
0.05693297
0.042734198
0.021059234
0.008178911
0.005778778
0.0051354878
0.004824352
0.0045049828
0.0044605929
0.0045736395
0.0040987526
0.028537753
0.02881563
0.029132334
0.029500244
0.029931039
0.030439162
0.031050997
0.031795313
0.032714059
0.033863049
0.035313278
0.037149468
0.039459032
0.042319109
0.045757793
0.049712132
0.053962387
0.058039524
0.061077851
0.061569174
0.056942424
0.042983302
0.021403044
0.0082499378
0.0057808933
0.005134706
0.0048210416
0.0045079289
0.0044594708
0.0045776977
0.0041025719
0.029140818
0.029420351
0.029739328
0.030106527
0.030533758
0.031036784
0.031638668
0.032367239
0.033262712
0.034378944
0.035785004
0.037564276
0.03980426
0.042582184
0.045929492
0.049788859
0.053948708
0.05795176
0.060949843
0.061461211
0.056953652
0.04323049
0.021747458
0.0083237698
0.0057829983
0.005133323
0.0048176168
0.0045106606
0.004458444
0.004579484
0.0041064931
0.029759818
0.030041223
0.030362055
0.030733412
0.031160682
0.03166173
0.03225672
0.032972643
0.03384775
0.034933695
0.03629739
0.03802004
0.040189642
0.042883117
0.046135883
0.04989626
0.053961123
0.057885105
0.060837478
0.061362771
0.056967082
0.043476277
0.022092042
0.0084017533
0.0057847751
0.0051314657
0.0048143587
0.0045136996
0.004457676
0.0045801025
0.0041103762
0.030386643
0.030673114
0.030998157
0.031371452
0.031803185
0.032307469
0.032898857
0.033605652
0.034463891
0.035522734
0.036846806
0.03851431
0.040613161
0.043220808
0.046376386
0.050034151
0.053999728
0.057839839
0.060741145
0.061274284
0.056983076
0.043720851
0.022436526
0.0084842523
0.0057871419
0.0051293649
0.0048114951
0.0045171442
0.0044572621
0.0045826758
0.0041141965
0.031013443
0.031306955
0.031639315
0.032018672
0.032454049
0.032961638
0.033557069
0.034259417
0.035104568
0.03614
0.037427298
0.039042472
0.04107176
0.043593349
0.046649921
0.050202015
0.054064382
0.057816066
0.060661101
0.061196105
0.057001888
0.043964582
0.022780863
0.0085715317
0.0057908557
0.005127281
0.0048091389
0.0045186636
0.004457134
0.0045877363
0.0041179705
0.031632117
0.031934672
0.032276673
0.032665124
0.033109439
0.033621524
0.034218002
0.034923222
0.035762939
0.036779405
0.038033934
0.039600313
0.041562091
0.043998324
0.046954942
0.050398983
0.05415469
0.057813712
0.060597471
0.061128576
0.05702381
0.04420783
0.023125024
0.0086637579
0.0057958944
0.0051255402
0.0048074244
0.0045192553
0.0044572409
0.0045936355
0.004121649
0.032234126
0.032547682
0.032901652
0.033302018
0.033758392
0.034280897
0.034883474
0.035587192
0.03642464
0.037432906
0.038661081
0.040182524
0.042080055
0.044432681
0.047289381
0.050623796
0.054269979
0.057832508
0.060550232
0.061071284
0.057049083
0.044450913
0.023469367
0.0087611633
0.005801071
0.0051244448
0.0048064451
0.0045198684
0.0044574994
0.0046004104
0.00412517
0.032810721
0.033137107
0.033505227
0.033920149
0.034391456
0.034927853
0.03554223
0.036253087
0.037086636
0.038083828
0.039296249
0.040782616
0.042620428
0.044892529
0.047650557
0.050874753
0.054409275
0.057871992
0.060519297
0.061021946
0.057078047
0.044693891
0.023814314
0.0088638695
0.0058063255
0.0051241729
0.0048062542
0.0045206315
0.0044577693
0.0046082105
0.0041284639
0.033353325
0.033694207
0.034078466
0.03451039
0.034999303
0.035552908
0.036182953
0.036906122
0.03774622
0.038737009
0.039927686
0.041385206
0.043176792
0.045373178
0.04803514
0.051149676
0.05457127
0.057931482
0.060504547
0.06098544
0.057111123
0.044936628
0.024160873
0.0089719961
0.0058118901
0.0051246002
0.0048066294
0.0045213663
0.0044579093
0.0046175601
0.0041314476
0.033853897
0.034210736
0.034612876
0.035063984
0.035572901
0.036146768
0.036796164
0.037536077
0.038387961
0.039382428
0.04056246
0.041986589
0.043732252
0.045868526
0.048439148
0.051445866
0.054754296
0.058010064
0.060505611
0.060961258
0.057148443
0.045177176
0.024510829
0.0090856397
0.0058180769
0.0051252232
0.0048070895
0.0045217856
0.0044578797
0.0046281732
0.0041340403
0.034305371
0.034679253
0.035100571
0.035572572
0.036103549
0.036700529
0.037372816
0.038133767
0.039002333
0.040006256
0.041184753
0.042590394
0.044289836
0.046361642
0.048857326
0.051760075
0.054956298
0.058106573
0.060522049
0.060947033
0.05719006
0.045415044
0.02486369
0.0092048311
0.0058254078
0.0051256718
0.0048073414
0.0045220901
0.0044577655
0.0046407476
0.0041361782
0.034703174
0.035093428
0.035534254
0.036028205
0.036583271
0.037205869
0.037904258
0.038690316
0.03958091
0.04060053
0.041783948
0.043179473
0.044848565
0.046859397
0.049273523
0.052088373
0.055174816
0.05821958
0.060553596
0.060942739
0.057236053
0.045650184
0.025219656
0.0093296085
0.0058345674
0.0051268749
0.0048080113
0.0045226205
0.0044576727
0.0046567029
0.0041378015
0.035050401
0.035457727
0.0359169
0.036431009
0.037007375
0.037655485
0.038382346
0.039197044
0.040114046
0.041154838
0.042350349
0.043744013
0.045391964
0.047357905
0.049695043
0.05241584
0.055406639
0.058347401
0.060597528
0.060947722
0.057286459
0.045882922
0.025578616
0.0094599947
0.0058454285
0.0051300725
0.0048097657
0.0045235686
0.0044577088
0.0046717645
0.0041388662
0.035329793
0.035758172
0.036240742
0.036779842
0.037380807
0.038051775
0.038804618
0.039647616
0.040594441
0.041661191
0.042875484
0.044275319
0.04591149
0.047842475
0.050118852
0.052747861
0.055638455
0.05848403
0.060645068
0.060961258
0.057341245
0.046113528
0.025940317
0.0095960454
0.0058569671
0.0051340538
0.0048143023
0.0045251139
0.0044579936
0.0046851204
0.0041393663
0.035537375
0.035985017
0.0364904
0.037057112
0.037688503
0.038394089
0.039175305
0.040045048
0.041017277
0.042113342
0.043352325
0.044765791
0.046399235
0.048305443
0.050531363
0.053084954
0.055875094
0.058621532
0.060704714
0.060983095
0.057400276
0.046342212
0.02630444
0.0097378879
0.0058696292
0.0051379813
0.0048207298
0.0045274356
0.0044586483
0.0046974153
0.0041393088
0.03567922
0.036145132
0.03667139
0.037261491
0.037919871
0.038655557
0.039473947
0.040381847
0.041387627
0.042508428
0.043772976
0.045207581
0.046847211
0.048739058
0.050925544
0.053414085
0.056119223
0.058770376
0.060776204
0.06101238
0.057463243
0.046569064
0.026670596
0.0098856924
0.0058835919
0.0051426966
0.0048276123
0.0045307123
0.0044597605
0.0047079328
0.0041387803
0.035757175
0.036240407
0.03678648
0.037399097
0.038083462
0.038846507
0.039697129
0.04064169
0.041690002
0.042849893
0.044139185
0.045593905
0.047248299
0.049136011
0.051294399
0.053729013
0.056358717
0.058924641
0.060852922
0.061047775
0.057529632
0.046794012
0.027038271
0.010039637
0.0058984897
0.0051484514
0.0048353377
0.0045351183
0.0044613123
0.0047160346
0.0041376927
0.035775031
0.036274349
0.036838874
0.037472682
0.038181888
0.038971509
0.039853075
0.040831797
0.041916751
0.043119329
0.044450578
0.045928849
0.047596234
0.04948977
0.05163121
0.054023525
0.056588246
0.059076833
0.060933345
0.061087706
0.057598697
0.047016796
0.027406779
0.010199852
0.005914107
0.0051554636
0.0048438231
0.0045408347
0.0044632239
0.0047219953
0.0041361604
0.035738178
0.036251971
0.036833141
0.03748626
0.038218105
0.039033255
0.039943513
0.040954952
0.042075727
0.043316144
0.044689498
0.046210436
0.047896319
0.049793907
0.051929724
0.05429155
0.056802497
0.059222818
0.061015511
0.061130179
0.057669448
0.047236944
0.027775202
0.010366315
0.005930578
0.0051638106
0.0048530601
0.0045481786
0.0044654762
0.0047263381
0.0041342697
0.03565358
0.036179871
0.03677546
0.037445518
0.038197206
0.039036273
0.039972123
0.041014122
0.042169064
0.043446603
0.044858539
0.046419482
0.048146683
0.050054495
0.052183928
0.054527354
0.056996186
0.059358142
0.061091648
0.061172923
0.05774065
0.047453756
0.028142359
0.010538721
0.0059480052
0.005173351
0.0048629774
0.0045578133
0.0044681035
0.0047293649
0.0041321106
0.035529614
0.036066101
0.036673514
0.037357709
0.03812626
0.038986199
0.039944535
0.041014104
0.042200624
0.043513384
0.044963072
0.046562466
0.048327256
0.05027064
0.05239959
0.054725255
0.057164225
0.059478513
0.061160866
0.061213675
0.057810832
0.047666296
0.028506807
0.010716434
0.0059661705
0.0051837476
0.004873364
0.0045712981
0.0044711014
0.0047298156
0.0041297757
0.03537582
0.035919915
0.036536239
0.037231392
0.03801338
0.038890492
0.039867763
0.040961122
0.042175652
0.043520609
0.04500595
0.04664292
0.048443264
0.050421886
0.052577225
0.054890501
0.057301455
0.059579683
0.061220191
0.061249935
0.057878288
0.047873396
0.028866872
0.010898582
0.0059846401
0.0051945653
0.0048839625
0.0045837056
0.0044743867
0.0047277184
0.0041273619
0.035202609
0.035751496
0.036373565
0.037076194
0.037867836
0.038757315
0.039750952
0.040862561
0.042100891
0.043474138
0.04499195
0.046664368
0.048501242
0.050511298
0.05269583
0.055024821
0.057412038
0.059657284
0.061266082
0.061279057
0.057941106
0.048073659
0.029220693
0.011084198
0.0060030454
0.0052053743
0.0048944927
0.0045940246
0.004477787
0.0047229454
0.0041249631
0.035020936
0.035571638
0.0361961
0.036902486
0.037699688
0.038597057
0.039602497
0.040727323
0.041984397
0.043381069
0.044927013
0.046631541
0.048502979
0.050545388
0.052757236
0.055107577
0.057498904
0.059711885
0.061295528
0.061298385
0.057997218
0.048265467
0.02956632
0.011272456
0.0060213167
0.0052158352
0.0049045397
0.0046023433
0.0044811537
0.0047145132
0.0041226765
0.034841965
0.035391418
0.036014824
0.036721113
0.037519604
0.038420181
0.039432255
0.040565052
0.041835236
0.043249726
0.04481856
0.046550799
0.048453529
0.050528684
0.052768803
0.055137745
0.057542721
0.059751134
0.06130537
0.061305426
0.058044431
0.048447056
0.029900988
0.011462659
0.0060397428
0.0052256885
0.0049136705
0.0046086438
0.0044844592
0.0047030291
0.0041205921
0.0346767
0.035221841
0.03584073
0.03654303
0.037338457
0.03823741
0.039250695
0.040385931
0.041663151
0.043089203
0.044674793
0.04642914
0.048358591
0.050463553
0.052731208
0.055123051
0.057539468
0.05975715
0.061300211
0.061297294
0.05808043
0.048616613
0.030223277
0.011654322
0.0060588129
0.0052346469
0.0049216644
0.0046130066
0.004487667
0.0046891963
0.0041187687
0.03453566
0.035073511
0.035684507
0.036378991
0.037167037
0.038059535
0.039068105
0.040200996
0.041478275
0.042909233
0.044504823
0.046274794
0.048225314
0.050355581
0.05264972
0.055065671
0.057497681
0.059721213
0.061274933
0.061268484
0.058103059
0.048772334
0.030531655
0.011846876
0.0060789615
0.0052423578
0.0049285357
0.0046157685
0.004490768
0.0046735136
0.0041172147
0.034428582
0.034956332
0.035556232
0.036239231
0.037015714
0.037897012
0.038895344
0.0400205
0.041291063
0.042720001
0.044318389
0.046096866
0.048061943
0.050212162
0.052530154
0.054968623
0.057418571
0.059652865
0.061214747
0.06122185
0.058111175
0.048912498
0.030824669
0.012039698
0.0061003136
0.0052484895
0.004934319
0.0046179834
0.004493813
0.0046569322
0.0041159269
0.034364185
0.034879274
0.035465135
0.036133245
0.036894239
0.037759832
0.038742794
0.03985432
0.041111895
0.042531716
0.044125353
0.045904592
0.047876708
0.050040177
0.052376639
0.054835288
0.057303931
0.059552679
0.061127536
0.061170928
0.058102962
0.049035249
0.031101051
0.012232235
0.0061226652
0.0052528256
0.004938921
0.0046208658
0.0044997486
0.004639819
0.0041148974
0.034349989
0.034850175
0.035419391
0.036069559
0.036811494
0.037657226
0.038620006
0.039712205
0.040950763
0.042354443
0.043935668
0.04570757
0.047678549
0.049847588
0.052195847
0.054670448
0.057156655
0.059421874
0.061014166
0.061097386
0.058073089
0.049138693
0.031359486
0.012423902
0.0061458389
0.005255485
0.0049422229
0.004625283
0.0045053719
0.0046220016
0.0041141045
0.034392191
0.034875605
0.035425971
0.036055566
0.036775315
0.037597478
0.038535703
0.039603285
0.040817144
0.042197926
0.043759199
0.0455156
0.047476969
0.049643312
0.051995955
0.054481029
0.056981505
0.059262731
0.060873672
0.060980624
0.058016386
0.049222042
0.031599101
0.012613908
0.0061693597
0.0052569658
0.0049444288
0.0046315655
0.0045079012
0.0046051772
0.0041135487
0.034495613
0.034960795
0.035490546
0.03609742
0.036792365
0.037587783
0.038497621
0.039535826
0.04071979
0.04207133
0.043605402
0.045338247
0.047281391
0.049436299
0.05178508
0.054273884
0.056783573
0.059078461
0.06070802
0.060839238
0.057952257
0.049285964
0.031819386
0.012801357
0.0061928103
0.0052578286
0.0049460971
0.0046394851
0.00450813
0.0045886323
0.0041132049
0.03466369
0.035109608
0.035617453
0.03619997
0.036868053
0.037634145
0.038512382
0.03951708
0.04066655
0.041983054
0.043483116
0.045184612
0.04710092
0.049235315
0.051571267
0.054055542
0.056568665
0.058873009
0.060520205
0.060685045
0.057881111
0.049329974
0.032020089
0.012986098
0.0062159106
0.0052584935
0.0049479061
0.0046479467
0.0045077902
0.0045729787
0.0041130686
0.034898525
0.035324577
0.035809701
0.03636676
0.037006508
0.037741329
0.038585429
0.039553193
0.040664274
0.041940619
0.043400452
0.045063253
0.046944338
0.049049061
0.051362757
0.05383348