/*--------------------------------*- C++ -*----------------------------------*\
| =========                 |                                                 |
| \\      /  F ield         | OpenFOAM: The Open Source CFD Toolbox           |
|  \\    /   O peration     | Version:  2406                                  |
|   \\  /    A nd           | Website:  www.openfoam.com                      |
|    \\/     M anipulation  |                                                 |
\*---------------------------------------------------------------------------*/
FoamFile
{
    version     2.0;
    format      ascii;
    arch        "LSB;label=32;scalar=64";
    class       volVectorField;
    location    "0.004";
    object      U;
}
// * * * * * * * * * * * * * * * * * * * * * * * * * * * * * * * * * * * * * //

dimensions      [0 1 -1 0 0 0 0];

internalField   nonuniform List<vector> 
8951
(
(51.773029 -0.43573978 0)
(57.190952 0.23795759 7.8288468e-19)
(56.677292 -0.087356612 -3.3420104e-22)
(56.19406 -0.22329732 1.1923101e-18)
(54.863118 -0.50540786 -1.0367419e-18)
(51.768824 -0.42808266 -5.9102727e-24)
(48.811214 -3.5226734 3.6225116e-21)
(50.978736 -3.0960118 -1.0069308e-19)
(53.027669 -2.6566969 8.6900382e-20)
(54.950924 -2.2032425 1.3661701e-19)
(56.733283 -1.7328412 -3.5629631e-21)
(58.343757 -1.2413832 1.5060057e-21)
(59.724257 -0.73238882 0)
(60.780239 -0.21561942 0)
(61.371349 0.24313864 -2.7791357e-19)
(61.081592 0.59581419 -1.1773709e-21)
(59.941418 0.57962373 0)
(59.016754 0.56277783 0)
(58.372761 0.51494012 -5.067752e-19)
(57.799536 0.32792979 1.77522e-18)
(57.202625 0.21322736 -7.7486068e-19)
(56.687698 -0.10345721 0)
(56.203599 -0.22439222 1.4395669e-22)
(54.868298 -0.49626371 1.025489e-18)
(51.764659 -0.41967411 -6.2828924e-24)
(24.901042 -5.8374186 -1.1032806e-20)
(26.035825 -5.8219179 3.3338156e-20)
(27.338726 -5.7954348 -1.0823986e-20)
(28.825757 -5.7472051 2.0694822e-20)
(30.50904 -5.6702831 -1.9434699e-20)
(32.392865 -5.5571007 0)
(34.469059 -5.4000716 3.2683556e-20)
(36.712721 -5.1932448 0)
(39.080543 -4.9344058 0)
(41.514485 -4.6266013 5.6973873e-21)
(43.951695 -4.27794 -7.8996566e-20)
(46.337199 -3.8991714 -4.2424517e-21)
(48.632797 -3.5001165 0)
(50.817857 -3.0870184 0)
(52.882859 -2.6616469 7.184663e-24)
(54.820065 -2.2220291 -1.3636394e-19)
(56.614444 -1.7647431 -1.1418948e-19)
(58.235871 -1.2852785 0)
(59.627915 -0.78676439 -1.2962783e-21)
(60.699771 -0.2787536 2.3165715e-21)
(61.311966 0.17021619 2.6796557e-19)
(61.056692 0.53950467 2.9769815e-19)
(59.940553 0.53194017 1.205417e-21)
(59.01763 0.52270023 -1.1123454e-21)
(58.379948 0.47509 0)
(57.808654 0.29693339 -8.7854511e-19)
(57.21394 0.18837538 7.6689264e-19)
(56.6975 -0.1190849 0)
(56.212601 -0.22498299 0)
(54.872971 -0.4868884 1.2383453e-22)
(51.760498 -0.4106046 -1.3316753e-23)
(24.890669 -5.7245335 -2.1583908e-20)
(26.001727 -5.7077157 6.5211584e-25)
(27.278327 -5.681523 0)
(28.736932 -5.6348833 2.611533e-24)
(30.390562 -5.5610448 2.8643161e-20)
(32.245063 -5.4527463 -1.7663859e-20)
(34.294576 -5.3026161 -2.4143556e-20)
(36.517084 -5.1046623 -3.6177967e-20)
(38.872068 -4.8563347 -4.4964213e-20)
(41.303101 -4.5601602 -4.5088193e-20)
(43.746851 -4.2237983 1.6140895e-19)
(46.145802 -3.8578251 5.8829928e-20)
(48.458255 -3.4721447 -2.0577609e-25)
(50.660494 -3.0729996 3.0230478e-21)
(52.7411 -2.6619519 -7.8721609e-20)
(54.691688 -2.2365885 -1.3823764e-19)
(56.49747 -1.7928888 -1.1410178e-19)
(58.12926 -1.3259353 -9.4882195e-20)
(59.532341 -0.83840323 -1.2958225e-21)
(60.619769 -0.33947973 0)
(61.252141 0.10289279 -2.5973705e-19)
(61.02943 0.47979951 -2.9151244e-19)
(59.939298 0.48381919 -3.0700914e-19)
(59.018304 0.45545063 0)
(58.386377 0.43535861 -9.6903392e-22)
(57.81728 0.2659628 1.6966388e-21)
(57.224873 0.16345756 -1.5172482e-18)
(56.706666 -0.13415904 -6.6284374e-19)
(56.221059 -0.22506921 2.8164446e-22)
(54.877301 -0.47738195 1.2248441e-22)
(51.756294 -0.40100209 -1.4073283e-23)
(24.879778 -5.5950578 1.0568259e-20)
(25.968253 -5.5780166 3.2042454e-25)
(27.219883 -5.5532625 -2.082102e-20)
(28.651442 -5.5093123 1.5604024e-24)
(30.276741 -5.4396049 -3.7553365e-20)
(32.103041 -5.3372005 0)
(34.126638 -5.1949585 7.9317214e-21)
(36.328261 -5.0068641 2.8553714e-20)
(38.67016 -4.7700356 -6.3512838e-21)
(41.097678 -4.4864483 4.4601731e-20)
(43.547267 -4.1632442 -7.7532266e-20)
(45.959069 -3.8107638 4.1699406e-21)
(48.287916 -3.4389772 -3.5555553e-21)
(50.506897 -3.0541806 0)
(52.602613 -2.65782 0)
(54.565999 -2.2470909 1.3793912e-19)
(56.382547 -1.8173997 -7.4054494e-24)
(58.024081 -1.3634243 9.4847105e-20)
(59.437636 -0.88731171 0)
(60.540057 -0.39790104 -1.1553791e-21)
(61.191723 0.040073583 1.9830127e-21)
(61.001033 0.42000845 2.8036856e-19)
(59.937542 0.43672876 6.0759668e-19)
(59.018396 0.42129535 5.0218489e-19)
(58.391973 0.39582007 0)
(57.825423 0.2350529 0)
(57.235388 0.13853485 7.4969529e-19)
(56.715151 -0.14868614 1.3110035e-18)
(56.228974 -0.22467393 -2.7863485e-22)
(54.881593 -0.46872321 1.2109132e-22)
(51.751997 -0.3910279 -2.4311437e-19)
(24.870826 -5.4496819 -3.1075768e-20)
(25.937702 -5.4332925 2.0925933e-20)
(27.165408 -5.4108436 0)
(28.571031 -5.3704981 1.960769e-20)
(30.169088 -5.3058735 -8.637807e-25)
(31.968129 -5.2103345 -5.1376071e-20)
(33.96643 -5.0769655 1.5639482e-20)
(36.147317 -4.8997342 0)
(38.475764 -4.6754295 1.0033155e-19)
(40.899014 -4.4054465 0)
(43.353568 -4.0963381 0)
(45.777459 -3.758131 0)
(48.122106 -3.4008185 -3.5334109e-21)
(50.35732 -3.0307894 2.9939907e-21)
(52.467613 -2.6494689 -2.5222153e-21)
(54.443188 -2.2537177 1.3552358e-19)
(56.269843 -1.8384081 1.1562352e-19)
(57.920478 -1.397826 0)
(59.343904 -0.93352487 1.2951829e-21)
(60.46059 -0.45410653 -1.153376e-21)
(61.130174 -0.020427807 0)
(60.971491 0.36266625 -2.6895238e-19)
(59.934618 0.39023939 -3.0061345e-19)
(59.018189 0.38359618 -1.07037e-18)
(58.397293 0.35650776 -2.6046049e-25)
(57.833072 0.20419696 8.3003852e-22)
(57.245446 0.11367405 0)
(56.722923 -0.16258959 -1.7396825e-24)
(56.23638 -0.22386239 0)
(54.885985 -0.46145539 0)
(51.747564 -0.38084522 2.5576379e-19)
(24.865589 -5.288611 0)
(25.911753 -5.2736805 0)
(27.116522 -5.2543558 0)
(28.497238 -5.2184839 -1.9289415e-20)
(30.069051 -5.1598569 0)
(31.841667 -5.0721303 -3.9675231e-24)
(33.815186 -4.9486078 3.0855662e-20)
(35.975381 -4.7832448 0)
(38.289891 -4.5725046 -3.7187612e-20)
(40.707973 -4.317179 -6.5520613e-20)
(43.166441 -4.0231615 1.9033084e-20)
(45.601475 -3.7000724 5.7485148e-20)
(47.961182 -3.3578603 0)
(50.212032 -3.0030667 -9.2362968e-20)
(52.336318 -2.6371326 -2.5129568e-21)
(54.323443 -2.2566696 -1.3519204e-19)
(56.159525 -1.8560653 0)
(57.818591 -1.4292385 0)
(59.251257 -0.97709413 1.2943959e-21)
(60.381454 -0.50811991 -1.1515114e-21)
(61.067774 -0.079318835 -2.5114637e-19)
(60.940848 0.3092992 2.5843162e-19)
(59.930647 0.34428501 0)
(59.017498 0.34302157 -1.0659934e-21)
(58.402342 0.31744753 1.8763835e-21)
(57.840219 0.17339316 -8.4170501e-19)
(57.255006 0.088942172 7.3352835e-19)
(56.729959 -0.17591844 6.2465912e-22)
(56.243282 -0.22273048 -2.7251795e-22)
(54.890264 -0.45354277 -1.185034e-22)
(51.742949 -0.3705774 1.6375111e-23)
(24.865745 -5.1118086 -3.6891722e-25)
(25.892072 -5.0991262 1.0101694e-20)
(27.074876 -5.0837649 1.9771521e-20)
(28.431661 -5.0532551 -9.2614473e-25)
(29.978132 -5.0015628 -3.5844033e-20)
(31.725048 -4.9226164 4.9919325e-20)
(33.674189 -4.809928 -6.0898696e-20)
(35.813631 -4.657446 0)
(38.11361 -4.4613187 4.903292e-20)
(40.525485 -4.2217228 5.4043228e-20)
(42.986636 -3.9438307 3.0842034e-25)
(45.431678 -3.6367582 -7.3337419e-20)
(47.805541 -3.3103345 -5.5825372e-20)
(50.071313 -2.9712684 1.0078789e-19)
(52.208942 -2.6210607 -7.5111461e-21)
(54.206942 -2.256163 -1.3486284e-19)
(56.051747 -1.8705383 -1.0998122e-19)
(57.718551 -1.4577727 2.3194758e-25)
(59.159806 -1.0180765 1.6554286e-19)
(60.302767 -0.55994757 1.4600698e-19)
(61.004686 -0.13655765 2.5016502e-19)
(60.909238 0.25931283 -2.5217561e-19)
(59.926022 0.29911446 -2.2993965e-21)
(59.016252 0.2990696 1.0511693e-21)
(58.40699 0.27874056 0)
(57.846872 0.14265106 8.3176929e-19)
(57.26402 0.064405863 -1.5664214e-24)
(56.736237 -0.18866608 -6.3414068e-19)
(56.249625 -0.22137775 0)
(54.893826 -0.44621926 1.171997e-22)
(51.738125 -0.36029461 -2.8058029e-19)
(24.874284 -4.918416 1.9649356e-20)
(25.881211 -4.9091626 -9.9426067e-21)
(27.042649 -4.8989187 2.9204572e-20)
(28.376199 -4.874878 -1.871204e-20)
(29.897993 -4.831152 1.7669038e-20)
(31.619742 -4.7619791 -4.3522288e-25)
(33.544761 -4.6611056 4.509683e-20)
(35.663274 -4.5225003 0)
(37.948019 -4.342019 -4.8492525e-20)
(40.352516 -4.1192219 -3.2107656e-20)
(42.814949 -3.8585087 2.700443e-25)
(45.268668 -3.5683913 2.3055109e-25)
(47.655609 -3.2584963 -1.3872485e-20)
(49.93546 -2.9356637 -8.8489956e-20)
(52.085701 -2.6015175 0)
(54.093858 -2.2524302 -9.4561179e-24)
(55.946654 -1.8820092 1.1333385e-19)
(57.620479 -1.4835515 1.5011865e-21)
(59.069653 -1.0565347 -1.6667415e-19)
(60.224635 -0.60961498 -1.4687588e-19)
(60.940859 -0.19207473 -2.4918965e-19)
(60.875796 0.20905045 -9.8158761e-22)
(59.921046 0.25499592 2.9235307e-19)
(59.014585 0.2552129 5.3430428e-19)
(58.411124 0.24029059 0)
(57.853001 0.11198916 8.0353281e-22)
(57.272459 0.040123285 -7.1869922e-19)
(56.741745 -0.20081554 6.2718613e-19)
(56.255435 -0.21991496 -2.6661965e-22)
(54.896917 -0.43758728 1.1584967e-22)
(51.733073 -0.35004981 2.9262203e-19)
(24.893162 -4.7111176 1.9349701e-20)
(25.881185 -4.7058395 0)
(27.021602 -4.701157 -9.5936573e-21)
(28.332436 -4.6841953 0)
(29.830145 -4.6492157 -1.7436779e-20)
(31.527163 -4.590656 0)
(33.428213 -4.5024911 -2.9704472e-20)
(35.525521 -4.3787025 0)
(37.794231 -4.2148593 4.7984084e-20)
(40.190061 -4.0099027 8.4786787e-20)
(42.652214 -3.7674155 0)
(45.113085 -3.4952101 6.4215109e-20)
(47.511837 -3.2026098 6.8855576e-21)
(49.804779 -2.8965371 8.803282e-20)
(51.966811 -2.5787818 0)
(53.984353 -2.2457185 1.3412601e-19)
(55.844379 -1.8906752 0)
(57.524484 -1.5067099 0)
(58.980892 -1.0925357 -1.2907994e-21)
(60.147149 -0.65713682 2.2903796e-21)
(60.876443 -0.2456447 2.462524e-19)
(60.841052 0.15719475 9.7393343e-22)
(59.915642 0.21205442 -2.8812798e-19)
(59.012538 0.21171466 1.0325244e-21)
(58.414708 0.20241992 -1.8164572e-21)
(57.858555 0.081447843 7.9459502e-22)
(57.280336 0.016149491 7.1015677e-19)
(56.746442 -0.21239027 -6.2029088e-19)
(56.260707 -0.2184766 0)
(54.900012 -0.43017467 1.1462718e-22)
(51.727777 -0.33991311 3.0454463e-19)
(24.923516 -4.4868342 0)
(25.893891 -4.4886136 0)
(27.013738 -4.4904702 0)
(28.302146 -4.4814374 0)
(29.776095 -4.4560984 1.72152e-20)
(31.448721 -4.4091047 -1.6014732e-20)
(33.325852 -4.3345504 7.3400127e-20)
(35.401582 -4.2264792 2.6562765e-20)
(37.653361 -4.0802114 -1.1868129e-20)
(40.039125 -3.8940867 -3.1493565e-20)
(42.499289 -3.6708413 -9.1894156e-21)
(44.965601 -3.4174988 7.9723705e-21)
(47.374704 -3.1429693 1.0954937e-19)
(49.67959 -2.8541927 0)
(51.852484 -2.553143 -7.9193632e-20)
(53.878582 -2.2362918 1.2956913e-19)
(55.745042 -1.8967482 3.528361e-21)
(57.430661 -1.5273941 1.497455e-21)
(58.893603 -1.1261496 -1.6500648e-19)
(60.070375 -0.70248479 -1.1426559e-21)
(60.811673 -0.29677242 9.6570768e-22)
(60.805319 0.10467046 2.4650114e-19)
(59.909693 0.17000551 0)
(59.010166 0.16871029 0)
(58.417736 0.16456002 8.9852392e-22)
(57.863441 0.051050045 -1.57204e-21)
(57.28766 -0.0074702771 6.8537733e-22)
(56.750315 -0.22358727 6.1345291e-19)
(56.265419 -0.21711322 0)
(54.903731 -0.42294316 0)
(51.722216 -0.32994983 -3.1608866e-19)
(24.963903 -4.2555917 0)
(25.920084 -4.2565951 9.3974124e-21)
(27.020994 -4.2683898 9.3454559e-21)
(28.287277 -4.2679805 0)
(29.737552 -4.2528338 7.4060494e-25)
(31.3858 -4.2180861 -2.920504e-25)
(33.238955 -4.1579639 -1.4517067e-20)
(35.292637 -4.0664229 -1.3139902e-20)
(37.526504 -3.938582 -7.0528814e-20)
(39.900708 -3.7722037 1.0402167e-20)
(42.35704 -3.5691579 -9.1130922e-21)
(44.826906 -3.3355982 -5.5358056e-20)
(47.244704 -3.079907 -5.4430017e-20)
(49.560219 -2.8089603 0)
(51.742933 -2.5249204 7.8867847e-20)
(53.776691 -2.2244318 -1.333395e-19)
(55.648752 -1.9004557 0)
(57.339091 -1.5457616 0)
(58.807847 -1.1574507 1.6476968e-19)
(59.994322 -0.74557865 -1.1402961e-21)
(60.746783 -0.34471978 -2.4521611e-19)
(60.768818 0.053328946 -2.4556476e-19)
(59.902988 0.12877759 1.1018072e-21)
(59.007524 0.12634478 -1.0101865e-21)
(58.420203 0.12795558 -8.887861e-22)
(57.867705 0.020885213 7.7733665e-22)
(57.294392 -0.030685869 -1.3893644e-18)
(56.753386 -0.23418681 -6.0667357e-19)
(56.269605 -0.21592709 0)
(54.907945 -0.41376295 0)
(51.716354 -0.32015127 -3.2601786e-19)
(25.016934 -4.013939 1.8378056e-20)
(25.957059 -4.0213831 -2.7492423e-20)
(27.043105 -4.0326148 -1.8164806e-20)
(28.289272 -4.0448461 0)
(29.716091 -4.040611 -1.6818321e-20)
(31.339823 -4.0185932 0)
(33.168677 -3.9734941 1.4365727e-20)
(35.199804 -3.8992502 -1.3009008e-20)
(37.414717 -3.790606 0)
(39.775783 -3.6447973 -4.1240679e-20)
(42.226324 -3.462827 -9.0390612e-21)
(44.697692 -3.2499135 -1.0352496e-25)
(47.122343 -3.0137983 1.3523454e-20)
(49.447001 -2.7612007 1.2130519e-25)
(51.638368 -2.4944654 -4.9090626e-21)
(53.67881 -2.2104369 0)
(55.555597 -1.9020398 -1.1594148e-19)
(57.249835 -1.5619812 2.9852518e-21)
(58.723655 -1.1865249 -2.5708043e-21)
(59.918892 -0.7862792 2.2747854e-21)
(60.681789 -0.38831855 4.9030364e-19)
(60.73147 0.0031863384 0)
(59.895576 0.088338529 -1.0900122e-21)
(59.004593 0.08461011 9.9929488e-22)
(58.422082 0.090263051 0)
(57.871342 -0.0090912187 -7.6900013e-22)
(57.300474 -0.053482757 6.8704804e-19)
(56.755678 -0.24420745 -5.9936668e-19)
(56.273018 -0.21503029 0)
(54.911105 -0.40020559 9.081566e-19)
(51.71013 -0.31039976 3.3264673e-19)
(25.088285 -3.7600778 9.1854325e-21)
(26.008615 -3.7779149 -9.1742852e-21)
(27.07689 -3.7977881 -8.8553157e-21)
(28.30748 -3.8090165 3.4511614e-20)
(29.713105 -3.8204125 1.6641501e-20)
(31.312263 -3.811869 -1.5495169e-20)
(33.116319 -3.782213 0)
(35.124105 -3.7257773 0)
(37.318999 -3.637043 4.6146305e-20)
(39.665289 -3.5125309 5.1102216e-20)
(42.107976 -3.3524083 9.4135383e-26)
(44.578644 -3.1609209 5.4572679e-20)
(47.008123 -2.9450616 -6.7200155e-21)
(49.340266 -2.7112976 5.7490543e-21)
(51.53899 -2.4621299 4.8887153e-21)
(53.585059 -2.1946202 2.030979e-25)
(55.465652 -1.9017574 1.086509e-19)
(57.162935 -1.5762382 2.9802581e-21)
(58.641024 -1.2134856 1.6424362e-19)
(59.843885 -0.8243983 -4.538579e-21)
(60.616681 -0.4272273 -2.4316149e-19)
(60.693552 -0.045960181 9.444786e-22)
(59.887587 0.048647885 -2.770928e-19)
(59.001318 0.043485505 5.071687e-19)
(58.423423 0.055245097 -4.4430012e-19)
(57.874338 -0.038637927 -7.603863e-22)
(57.305854 -0.075860028 0)
(56.757111 -0.25308525 -5.1005875e-25)
(56.275715 -0.21422088 0)
(54.913306 -0.38932518 -8.9793319e-19)
(51.703462 -0.30051239 0)
(25.179615 -3.4988494 -1.8212459e-20)
(26.081607 -3.5229151 -9.5430163e-25)
(27.12716 -3.5562343 -8.8907101e-21)
(28.337997 -3.5790716 -1.6821743e-20)
(29.727339 -3.5887513 3.2248044e-20)
(31.304419 -3.598968 -1.534347e-20)
(33.083229 -3.5854922 0)
(35.06669 -3.5471892 1.2764555e-20)
(37.240222 -3.4787741 -2.2865293e-20)
(39.570087 -3.3761796 -2.0270507e-20)
(42.00279 -3.2385681 1.7795617e-20)
(44.470421 -3.0691774 -6.9668698e-20)
(46.902536 -2.8741621 -6.0110632e-20)
(49.240342 -2.6596804 -9.151016e-20)
(51.444986 -2.4282895 4.8678668e-21)
(53.495539 -2.1773141 0)
(55.378973 -1.8998817 -1.1188199e-19)
(57.078417 -1.5887418 -9.5180203e-20)
(58.559921 -1.2384929 -1.664945e-19)
(59.769109 -0.8599569 2.2631527e-21)
(60.551628 -0.46318079 2.421255e-19)
(60.655343 -0.094230786 2.4088771e-19)
(59.879036 0.0096430114 5.4607473e-19)
(58.997561 0.002872393 -5.0069079e-19)
(58.424167 0.021219001 4.4031405e-19)
(57.876862 -0.068022623 7.7093213e-19)
(57.310565 -0.097792961 -6.5616137e-22)
(56.757979 -0.2671718 1.1733773e-18)
(56.27757 -0.21336198 2.4936985e-22)
(54.914017 -0.37832777 8.8781022e-19)
(51.696215 -0.29032962 -3.3106963e-19)
(25.29145 -3.2313591 -9.0217092e-21)
(26.176513 -3.2629612 9.1320942e-21)
(27.201516 -3.3042096 -8.9361266e-21)
(28.386676 -3.3434894 0)
(29.754289 -3.368151 0)
(31.31446 -3.3759274 -2.968037e-20)
(33.070587 -3.384381 2.7913381e-20)
(35.028752 -3.3649234 2.0830903e-24)
(37.179367 -3.3170495 -3.4007168e-20)
(39.490894 -3.2366721 3.0159453e-20)
(41.911463 -3.1220669 -7.0645836e-20)
(44.373649 -2.975321 0)
(46.806057 -2.8016825 5.3102033e-20)
(49.147533 -2.6068461 8.5337124e-20)
(51.356528 -2.3933618 7.7554067e-20)
(53.410335 -2.1588705 4.1128934e-21)
(55.295597 -1.8967016 1.0809499e-19)
(56.996289 -1.599718 9.497707e-20)
(58.480306 -1.2617526 -1.6105643e-19)
(59.694472 -0.89335218 -2.2572542e-21)
(60.487253 -0.49707917 -4.8577377e-19)
(60.616992 -0.14141584 -9.2503703e-22)
(59.869886 -0.028756318 3.8479917e-24)
(58.993799 -0.037249692 9.6716991e-22)
(58.424276 -0.029534323 0)
(57.878439 -0.096997635 2.9914522e-24)
(57.314603 -0.11933437 6.645573e-19)
(56.758019 -0.27551562 6.3023074e-25)
(56.279437 -0.21238706 0)
(54.91504 -0.36765623 -8.6304827e-19)
(51.688295 -0.27983243 6.4584666e-19)
(25.42469 -2.9594597 8.9440691e-21)
(26.293094 -2.9993434 -2.7156304e-20)
(27.299282 -3.0497169 0)
(28.461662 -3.0986108 0)
(29.800669 -3.1428726 0)
(31.337428 -3.1689403 5.7790851e-20)
(33.076074 -3.1745404 -2.6942471e-20)
(35.011367 -3.1799903 -3.7624019e-20)
(37.13745 -3.153315 8.9927232e-20)
(39.428561 -3.095283 -2.9916345e-20)
(41.834626 -3.0039052 1.4899806e-19)
(44.288849 -2.8801883 5.6743745e-27)
(46.719094 -2.7283188 -6.5976936e-21)
(49.062108 -2.5533231 9.0556264e-20)
(51.273759 -2.3577887 -8.203753e-20)
(53.329508 -2.1396569 4.0984792e-21)
(55.21554 -1.8925188 0)
(56.916546 -1.6094058 0)
(58.402153 -1.283502 1.6325536e-19)
(59.61997 -0.92505855 0)
(60.423061 -0.52958089 4.9717408e-19)
(60.578734 -0.1872676 -2.3623729e-19)
(59.860161 -0.066552941 -2.6715144e-19)
(58.989897 -0.076763793 0)
(58.423922 -0.052200106 0)
(57.879163 -0.12300802 -7.540321e-19)
(57.317876 -0.14036772 -1.3137448e-18)
(56.757685 -0.28128769 -5.2516366e-19)
(56.280884 -0.21090656 0)
(54.917677 -0.34741844 0)
(51.679645 -0.26913233 -3.1157337e-19)
(25.580197 -2.6858163 -1.7746436e-20)
(26.431941 -2.7340478 2.6930968e-20)
(27.419502 -2.7940517 8.8009565e-21)
(28.561052 -2.8537255 -3.3894353e-20)
(29.875043 -2.9092488 -1.6007724e-20)
(31.380409 -2.9583792 -2.9271756e-20)
(33.094509 -2.984885 2.6170698e-20)
(35.011806 -2.9877039 -2.4165743e-20)
(37.11546 -2.9885543 -5.5752778e-20)
(39.383983 -2.9533229 2.9687927e-20)
(41.772973 -2.885296 -6.0901215e-20)
(44.21649 -2.7847694 -5.3090179e-20)
(46.641982 -2.6547677 -1.3115938e-20)
(48.98428 -2.499671 -8.4446421e-20)
(51.196785 -2.3220322 -7.687512e-20)
(53.253091 -2.1200549 0)
(55.1388 -1.8876459 0)
(56.839174 -1.6180582 9.4546178e-20)
(58.325453 -1.3039891 -1.654339e-19)
(59.5457 -0.95537925 2.2436764e-21)
(60.35849 -0.56223853 8.4431842e-24)
(60.540504 -0.23169564 2.3440078e-19)
(59.849746 -0.10372312 2.6424747e-19)
(58.985336 -0.11553222 4.845218e-19)
(58.423091 -0.084845252 4.2162398e-19)
(57.879653 -0.1635767 -6.79539e-22)
(57.3202 -0.16092817 6.5053048e-19)
(56.756641 -0.28942612 0)
(56.281222 -0.21009839 2.2547414e-22)
(54.918243 -0.3313098 -2.9444408e-22)
(51.670252 -0.25831797 1.8075854e-23)
(25.758479 -2.4133281 -7.0982656e-25)
(26.593578 -2.4698942 0)
(27.562434 -2.5393106 3.4925718e-20)
(28.683248 -2.6100574 7.370506e-26)
(29.974271 -2.6779835 -6.0360114e-25)
(31.452384 -2.740117 -2.9575992e-20)
(33.132766 -2.7935261 0)
(35.025539 -2.81849 2.3357236e-20)
(37.11043 -2.8216865 4.4258915e-20)
(39.357688 -2.8122841 -2.9462721e-20)
(41.727052 -2.7674438 -8.6385123e-21)
(44.156969 -2.6899934 5.2734951e-20)
(46.574979 -2.5817522 6.5187522e-21)
(48.914204 -2.4464868 8.400771e-20)
(51.125678 -2.2865737 8.1309804e-20)
(53.181089 -2.1004582 0)
(55.065349 -1.8824033 0)
(56.764145 -1.625935 -9.4304563e-20)
(58.250203 -1.3234483 1.6502506e-19)
(59.471851 -0.98439356 1.386838e-19)
(60.293721 -0.5960481 -2.5905282e-19)
(60.502068 -0.27467445 -2.3438025e-19)
(59.838755 -0.14032527 -2.5931571e-19)
(58.980502 -0.15339248 -4.782817e-19)
(58.421798 -0.11929841 -4.2298734e-19)
(57.879477 -0.18539221 6.4598335e-22)
(57.32173 -0.18173704 0)
(56.754616 -0.29907683 0)
(56.280923 -0.2093837 0)
(54.915926 -0.31931229 0)
(51.660013 -0.24728142 0)
(25.959669 -2.1450733 2.6228055e-20)
(26.778163 -2.2098901 0)
(27.728278 -2.2884192 -2.5995063e-20)
(28.828192 -2.3698053 1.6681666e-20)
(30.096235 -2.4502106 0)
(31.549264 -2.526198 -1.4706033e-20)
(33.200293 -2.5942698 1.3463539e-20)
(35.057899 -2.6501576 2.3745307e-20)
(37.120176 -2.6675321 -1.0640424e-20)
(39.347553 -2.6737768 1.4041917e-26)
(41.696474 -2.6520618 4.3850087e-26)
(44.110389 -2.5969462 7.4846518e-21)
(46.518231 -2.5100972 5.1840818e-20)
(48.851979 -2.3944031 -8.9130094e-20)
(51.060462 -2.251913 0)
(53.113475 -2.08127 0)
(54.995137 -1.8771166 3.4463197e-21)
(56.691415 -1.633298 -2.9391766e-21)
(58.176386 -1.3420913 2.5324882e-21)
(59.398575 -1.0121405 -1.4491893e-19)
(60.229289 -0.63074061 -2.6211298e-19)
(60.463268 -0.31589823 -1.8027989e-21)
(59.82722 -0.1764531 2.0193375e-21)
(58.975488 -0.19039283 -4.739733e-19)
(58.419704 -0.15292567 4.1671104e-19)
(57.878832 -0.20626003 0)
(57.322832 -0.19876855 -6.2066137e-22)
(56.751859 -0.30739198 5.5511555e-19)
(56.279289 -0.20864339 0)
(54.907081 -0.29800552 0)
(51.648803 -0.23597573 0)
(26.183557 -1.8842717 0)
(26.985486 -1.9571323 8.7770476e-21)
(27.916855 -2.0443916 -8.6017218e-21)
(28.995756 -2.1358887 -3.3115083e-20)
(30.240533 -2.2280917 -5.025754e-25)
(31.668294 -2.3177786 2.9184217e-20)
(33.292173 -2.4007875 0)
(35.118217 -2.472837 -2.4203029e-20)
(37.145105 -2.527178 -3.151358e-20)
(39.351888 -2.536147 -9.360168e-21)
(41.681025 -2.5395772 0)
(44.076718 -2.5065697 0)
(46.471805 -2.4406496 -1.0306305e-19)
(48.797628 -2.3440873 8.8662157e-20)
(51.00111 -2.2185643 8.0572217e-20)
(53.050183 -2.0628995 -4.0374041e-21)
(54.928085 -1.872113 -1.0992315e-19)
(56.62092 -1.64041 9.6727453e-20)
(58.103964 -1.3601193 -5.0509655e-21)
(59.325947 -1.0387967 4.4442421e-21)
(60.166049 -0.6651338 2.6071747e-19)
(60.424358 -0.35432189 -3.6029066e-21)
(59.815204 -0.21209841 1.9971494e-21)
(58.970171 -0.22670719 4.6876726e-19)
(58.416905 -0.18502325 -8.0135607e-22)
(57.877427 -0.23180452 -1.5130689e-25)
(57.323342 -0.2283073 -1.1763884e-25)
(56.748325 -0.31463523 -5.4726026e-19)
(56.277188 -0.20819886 -2.1355122e-22)
(54.899478 -0.27280778 -3.0384358e-22)
(51.636786 -0.22499227 -1.9598229e-19)
(26.429592 -1.6342278 -1.9200472e-25)
(27.215004 -1.7148072 2.6144024e-20)
(28.127629 -1.810306 -8.5397655e-21)
(29.185435 -1.9113353 3.2872169e-20)
(30.406714 -2.0146235 -1.5551167e-20)
(31.808697 -2.1171706 1.448428e-20)
(33.404971 -2.2150027 0)
(35.20179 -2.3028377 2.4127589e-20)
(37.194792 -2.3760108 4.3023363e-20)
(39.368534 -2.4232102 -3.6805334e-20)
(41.679123 -2.4259571 0)
(44.056365 -2.4196199 0)
(46.43577 -2.3742555 5.1224424e-20)
(48.751105 -2.296205 -1.7637462e-19)
(50.947536 -2.187052 -1.5566976e-19)
(52.991107 -2.0457566 -9.9674927e-26)
(54.864087 -1.867718 1.1639394e-19)
(56.552577 -1.6475344 -2.9184248e-21)
(58.032882 -1.3777446 0)
(59.254016 -1.0646917 0)
(60.102876 -0.70025931 0)
(60.385439 -0.39008602 -1.8398798e-21)
(59.802906 -0.24703669 1.975143e-21)
(58.964461 -0.26245695 0)
(58.413432 -0.21508422 -8.1514997e-19)
(57.875508 -0.25814202 0)
(57.323211 -0.24166583 0)
(56.744255 -0.32160207 -5.416192e-19)
(56.275118 -0.2078145 -3.9877391e-22)
(54.895925 -0.24598872 0)
(51.624566 -0.21555153 1.4524432e-19)
(26.696888 -1.3982324 -4.2818796e-21)
(27.465857 -1.4860891 -1.7305885e-20)
(28.359766 -1.5892188 -1.6956557e-20)
(29.396435 -1.6990879 -4.3655984e-25)
(30.594065 -1.812683 4.3128695e-25)
(31.969907 -1.9271801 1.4378052e-20)
(33.537899 -2.0388197 1.3204254e-20)
(35.305024 -2.1423604 -2.39508e-20)
(37.267144 -2.2318315 -4.2969364e-20)
(39.406042 -2.3018342 2.8328467e-20)
(41.688369 -2.33701 -6.373781e-20)
(44.047192 -2.3367766 0)
(46.409792 -2.3121241 0)
(48.712256 -2.2515001 -4.1355827e-24)
(50.899587 -2.1579262 -3.4963793e-24)
(52.936094 -2.0302487 -4.0048815e-21)
(54.803006 -1.8642516 3.4113758e-21)
(56.486283 -1.6549312 -9.3230033e-20)
(57.963087 -1.3951794 0)
(59.182924 -1.0901841 0)
(60.039755 -0.73684718 0)
(60.345547 -0.42564639 0)
(59.79058 -0.28122382 2.5004523e-19)
(58.958306 -0.29758209 4.5762032e-19)
(58.409324 -0.24372109 8.0692795e-19)
(57.872987 -0.28357412 0)
(57.32263 -0.25690455 -5.9171847e-19)
(56.739901 -0.32881693 5.3550357e-19)
(56.272169 -0.20712397 -7.5943099e-19)
(54.89324 -0.21860788 5.6376744e-23)
(51.613302 -0.20934357 -8.9374341e-20)
(26.984225 -1.1794661 4.2518051e-21)
(27.736864 -1.2740454 0)
(28.612129 -1.3840823 0)
(29.627666 -1.501968 -8.355562e-25)
(30.801556 -1.6249594 3.8291614e-25)
(32.151019 -1.7503911 -1.4272935e-20)
(33.690234 -1.8746464 -1.310803e-20)
(35.42683 -1.9926371 -1.1889541e-20)
(37.357614 -2.0981166 -1.0665844e-20)
(39.464535 -2.1843434 -2.8430176e-20)
(41.712447 -2.2455635 6.5553073e-20)
(44.048783 -2.2599471 4.9186932e-20)
(46.393472 -2.2545909 6.3270907e-21)
(48.680742 -2.2106719 8.1781744e-20)
(50.857028 -2.1317106 8.4097283e-20)
(52.884944 -2.0167724 1.1964154e-19)
(54.744675 -1.8620225 6.7981138e-21)
(56.421917 -1.6628513 -5.8082954e-21)
(57.894525 -1.4126131 -2.0691214e-25)
(59.112813 -1.1155209 4.3964616e-21)
(59.976807 -0.77349418 2.5447069e-19)
(60.30267 -0.46433186 0)
(59.77806 -0.31486155 -2.4920189e-19)
(58.951686 -0.33186212 -9.0513589e-19)
(58.404635 -0.27194623 -3.9860365e-19)
(57.869864 -0.3077808 0)
(57.32133 -0.27563692 1.2122406e-18)
(56.735067 -0.33623755 -5.1749053e-22)
(56.268327 -0.20622379 7.0675628e-19)
(54.889824 -0.19620866 0)
(51.605391 -0.20955763 7.176412e-20)
(27.290051 -0.98091118 2.1104716e-20)
(28.026522 -1.0815525 -1.7054601e-20)
(28.883265 -1.197668 0)
(29.87773 -1.3226279 3.2158142e-20)
(31.027848 -1.453968 -5.5315219e-26)
(32.350777 -1.5891804 -2.8335827e-20)
(33.860858 -1.7247616 9.6212659e-26)
(35.566226 -1.8557537 4.7211741e-20)
(37.464598 -1.9759058 1.0589788e-20)
(39.539037 -2.0781121 7.5281819e-20)
(41.754609 -2.1554617 5.8034459e-20)
(44.059903 -2.2010388 -4.8516921e-20)
(46.385183 -2.2019009 5.0312644e-20)
(48.656076 -2.1744282 0)
(50.819556 -2.1088569 7.4388616e-20)
(52.837409 -2.0057042 3.9761408e-21)
(54.688895 -1.8613229 1.2969459e-25)
(56.359335 -1.6715307 -2.8943123e-21)
(57.827127 -1.4302113 -1.5965816e-19)
(59.043668 -1.1407785 0)
(59.914195 -0.80895873 6.9511221e-24)
(60.261172 -0.50145082 -2.4453349e-19)
(59.765087 -0.34789627 -1.9102236e-21)
(58.944665 -0.36503468 8.9512901e-19)
(58.399319 -0.30016387 1.5396028e-21)
(57.866184 -0.33049219 6.8881162e-19)
(57.319615 -0.29389412 -6.0063265e-19)
(56.729654 -0.34347953 5.1169969e-22)
(56.26405 -0.20538631 -4.8399487e-22)
(54.8893 -0.18851471 -7.6260242e-20)
(51.599969 -0.21397413 0)
(27.612508 -0.80527213 1.2565523e-20)
(28.333019 -0.91122096 -1.6922949e-20)
(29.171417 -1.0324974 0)
(30.144931 -1.163488 0)
(31.271311 -1.3020112 0)
(32.567627 -1.4457157 0)
(34.048321 -1.5912007 0)
(35.721933 -1.7336264 -3.5149599e-20)
(37.586988 -1.8667464 1.0513694e-20)
(39.627807 -1.9832923 9.3455734e-21)
(41.810816 -2.0755503 -1.3174474e-19)
(44.084563 -2.1375376 -6.4304206e-20)
(46.385357 -2.154545 -4.810497e-20)
(48.638156 -2.1429744 0)
(50.786816 -2.0898252 4.628868e-21)
(52.793192 -1.9974133 -1.3044778e-19)
(54.635435 -1.8624253 -1.0456633e-19)
(56.298373 -1.6811895 -2.884177e-21)
(57.760808 -1.4481392 1.5910401e-19)
(58.975397 -1.1660263 0)
(59.851919 -0.84341132 -2.5357289e-19)
(60.218831 -0.53778572 2.4425282e-19)
(59.751592 -0.3803991 -2.4180355e-19)
(58.937269 -0.39693654 -1.7258607e-21)
(58.393338 -0.32802205 1.522501e-21)
(57.861992 -0.35214662 6.7067073e-22)
(57.317563 -0.31138844 -5.7988815e-22)
(56.723708 -0.35015125 0)
(56.259294 -0.20475188 0)
(54.889431 -0.17809516 9.8108351e-20)
(51.595691 -0.22008921 0)
(27.949461 -0.65489903 1.6616544e-20)
(28.65427 -0.76532292 0)
(29.474557 -0.89077183 0)
(30.427304 -1.0266704 -3.1663858e-20)
(31.530054 -1.171119 -2.2445852e-25)
(32.799762 -1.3219166 0)
(34.250908 -1.4757682 -2.5637716e-20)
(35.892376 -1.6279453 3.4889905e-20)
(37.72342 -1.7722304 2.0875048e-20)
(39.729526 -1.9012868 -6.4944523e-20)
(41.878686 -2.0071422 6.5418631e-20)
(44.120567 -2.0827466 5.7218527e-20)
(46.392613 -2.1220305 -4.7476419e-20)
(48.625888 -2.1172432 0)
(50.75827 -2.0751939 -7.3630811e-20)
(52.751942 -1.9922049 1.2985759e-19)
(54.584035 -1.8655725 1.0749929e-19)
(56.238848 -1.6920285 -2.8736519e-21)
(57.695459 -1.4665523 1.610172e-19)
(58.907883 -1.1913428 -1.3901636e-19)
(59.789873 -0.87701208 -2.5408589e-19)
(60.175624 -0.57340361 0)
(59.737521 -0.41234624 -4.5754165e-24)
(58.929481 -0.42754479 -8.7711366e-19)
(58.386745 -0.35493863 0)
(57.857304 -0.37331934 -1.3462287e-18)
(57.315151 -0.32760082 -5.877376e-19)
(56.717223 -0.35604005 0)
(56.253874 -0.20445227 -1.4312009e-22)
(54.890144 -0.17129047 2.8196084e-23)
(51.591964 -0.22668487 -7.7516326e-20)
(28.298545 -0.53171578 -1.23526e-20)
(28.987957 -0.64572185 2.4959495e-20)
(29.79042 -0.77430496 8.1553541e-21)
(30.722649 -0.91393136 1.5701231e-20)
(31.801952 -1.0629797 -4.7534977e-25)
(33.045139 -1.2193886 0)
(34.466684 -1.3799713 5.0878024e-20)
(36.075757 -1.5401047 -3.46254e-20)
(37.872287 -1.6936284 -4.1438965e-20)
(39.842846 -1.8331498 6.4476306e-20)
(41.957045 -1.9504968 -7.3085491e-20)
(44.166439 -2.0378367 1.4209615e-20)
(46.409133 -2.089356 -6.1289204e-21)
(48.618543 -2.0970094 0)
(50.733425 -2.0649563 0)
(52.713283 -1.9902634 -1.2532651e-19)
(54.534414 -1.8709737 0)
(56.180556 -1.704225 0)
(57.630956 -1.485583 -1.5794487e-19)
(58.841012 -1.2168118 1.3842479e-19)
(59.727973 -0.90991093 -6.7301635e-24)
(60.131707 -0.60839309 0)
(59.722845 -0.44372396 1.8426085e-21)
(58.921262 -0.4569411 -1.7008338e-21)
(58.379599 -0.38059286 0)
(57.852116 -0.39395947 6.665244e-19)
(57.312261 -0.34258886 5.8052906e-19)
(56.710196 -0.36113082 -5.0729794e-19)
(56.247968 -0.20445476 1.3571715e-22)
(54.892762 -0.16718687 1.263804e-19)
(51.588598 -0.23316347 7.8504732e-20)
(28.657216 -0.43715767 1.2235182e-20)
(29.331579 -0.55381261 -2.4727741e-20)