/*--------------------------------*- C++ -*----------------------------------*\
| =========                 |                                                 |
| \\      /  F ield         | OpenFOAM: The Open Source CFD Toolbox           |
|  \\    /   O peration     | Version:  2406                                  |
|   \\  /    A nd           | Website:  www.openfoam.com                      |
|    \\/     M anipulation  |                                                 |
\*---------------------------------------------------------------------------*/
FoamFile
{
    version     2.0;
    format      ascii;
    arch        "LSB;label=32;scalar=64";
    class       surfaceScalarField;
    location    "0.012";
    object      phi;
}
// * * * * * * * * * * * * * * * * * * * * * * * * * * * * * * * * * * * * * //

dimensions      [1 0 -1 0 0 0 0];

oriented        oriented;

internalField   nonuniform List<scalar> 
172833
(
0.0070735488
-0.0094166085
0.0096113534
-0.0072677801
0.0069021415
-0.0098149072
0.0099867785
0.0067370339
-0.01020271
0.01036822
0.0065750683
-0.010589055
0.010751367
0.0064155024
-0.010975497
0.011135364
0.0062597536
-0.011362324
0.011518327
0.0061088
-0.011749528
0.011900683
0.0059633634
-0.01213768
0.012283275
0.0058240422
-0.012527703
0.012667139
0.0056911713
-0.012920618
0.013053571
0.0055648332
-0.013317569
0.013443972
0.0054449003
-0.013719763
0.013839756
0.0053309954
-0.014128416
0.014242379
0.0052226231
-0.014544722
0.014653153
0.0051191607
-0.014969262
0.015072784
0.0050201628
-0.015402277
0.015501337
0.0049252943
-0.015843671
0.015938607
0.0048343548
-0.016292913
0.016383925
0.0047472569
-0.016749457
0.016836632
0.0046639084
-0.01721315
0.017296582
0.0045841559
-0.017684008
0.01776385
0.0045077961
-0.018162447
0.018238902
0.0044345762
-0.01864903
0.018722351
0.0043642229
-0.019144151
0.01921461
0.0042964638
-0.01964808
0.019715947
0.0042310224
-0.020161006
0.020226556
0.0041676291
-0.020683041
0.020746541
0.0041060176
-0.021214166
0.021275883
0.0040459215
-0.021754281
0.02181448
0.0039870721
-0.022303219
0.022362168
0.0039291939
-0.022860733
0.022918706
0.0038720063
-0.023426477
0.023483752
0.0038152193
-0.023999998
0.024056864
0.0037585291
-0.02458072
0.02463748
0.0037016123
-0.025167928
0.025224903
0.0036441239
-0.025760751
0.025818287
0.0035857166
-0.026358121
0.026416564
0.0035259374
-0.026958975
0.027018779
0.0034642147
-0.027562264
0.027624002
0.003400484
-0.028163832
0.028227569
0.0033340616
-0.0287631
0.028829521
0.0032643303
-0.029360535
0.029430261
0.0031904423
-0.02995065
0.030024532
0.003111964
-0.030530814
0.030609286
0.0030283725
-0.031098573
0.031182162
0.0029393549
-0.031651452
0.031740472
0.0028450716
-0.032188159
0.032282453
0.0027465834
-0.03270994
0.032808448
0.0026464414
-0.033222881
0.033323053
0.002548904
-0.033739999
0.033837578
0.0024586567
-0.034279452
0.034369753
0.0023782859
-0.034856297
0.034936733
0.0023072136
-0.035474583
0.035545731
0.0022430956
-0.036128673
0.036192878
0.0021835827
-0.036810244
0.036869852
0.002127087
-0.03751298
0.037569579
0.0020727167
-0.038233237
0.038287718
0.0020200152
-0.038969345
0.039022162
0.0019687737
-0.039720901
0.039772261
0.0019188828
-0.04048785
0.040537861
0.0018702496
-0.041270132
0.041318886
0.001822817
-0.042068101
0.042115655
0.0017765379
-0.042882064
0.042928462
0.00173134
-0.043712109
0.043757423
0.0016871915
-0.044558674
0.044602935
0.0016440772
-0.045422166
0.045465388
0.0016019546
-0.046302846
0.046345071
0.0015607698
-0.047200842
0.047242121
0.001520494
-0.048116748
0.048157108
0.0014811083
-0.049050911
0.049090371
0.0014425701
-0.050003296
0.050041896
0.0014048712
-0.050974675
0.051012422
0.0013679843
-0.051965207
0.052002127
0.0013318757
-0.052975129
0.053011254
0.0012965279
-0.054005002
0.05404035
0.001261907
-0.055054998
0.055089603
0.0012279958
-0.056125904
0.056159784
0.0011947582
-0.057217926
0.057251118
0.0011621736
-0.058331906
0.058364432
0.0011302199
-0.05946835
0.059500232
0.001098857
-0.060627396
0.060658675
0.0010680898
-0.061809709
0.061840381
0.0010379032
-0.06301591
0.06304599
0.0010082752
-0.064246224
0.064275733
0.00097917697
-0.065500757
0.065529725
0.00095059297
-0.066780481
0.066808922
0.00092253247
-0.068085575
0.068113481
0.00089495296
-0.069416586
0.069443998
0.00086784428
-0.070773883
0.070800811
0.00084118012
-0.07215803
0.072184499
0.00081495431
-0.073570017
0.07359603
0.00078914128
-0.075009942
0.07503552
0.00076370973
-0.076478986
0.076504155
0.00073865342
-0.077977383
0.078002142
0.00071393136
-0.079505768
0.07953015
0.00068953264
-0.081065199
0.081089209
0.00066543753
-0.082655672
0.082679327
0.0006416265
-0.084278277
0.084301594
0.00061809057
-0.08593377
0.08595676
0.00059481588
-0.087622575
0.087645257
0.00057178291
-0.089345395
0.089367793
0.00054898969
-0.091103063
0.091125184
0.00052643785
-0.092896152
0.092917999
0.0005040875
-0.094725376
0.09474699
0.00048193922
-0.096591603
0.096612983
0.00045995782
-0.098495315
0.098516494
0.00043813155
-0.10043759
0.10045857
0.00041644887
-0.10241902
0.10243981
0.00039487848
-0.10444041
0.10446105
0.00037339983
-0.10650271
0.1065232
0.00035199227
-0.10860681
0.10862716
0.0003306382
-0.11075355
0.11077379
0.00030930567
-0.11294393
0.1129641
0.0002879868
-0.1151789
0.11519899
0.00026665234
-0.11745925
0.1174793
0.00024528335
-0.1197861
0.11980613
0.00022385593
-0.12216029
0.12218031
0.00020234181
-0.12458285
0.12460291
0.0001807094
-0.12705475
0.12707486
0.00015893107
-0.12957725
0.12959745
0.0001369876
-0.13215129
0.13217159
0.00011484639
-0.13477845
0.1347989
9.2467359e-05
-0.13745929
0.13747993
6.9863178e-05
-0.14019613
0.14021696
4.6938923e-05
-0.14298881
0.14300993
2.36844e-05
-0.14584126
0.14586268
-0.14875209
0.14877391
0.0071259825
-0.00925372
-0.0072888501
0.0069629253
-0.0096517693
0.0068040451
-0.010043717
0.0066482977
-0.010433159
0.0064957998
-0.010822858
0.0063469995
-0.011213401
0.0062025779
-0.01160501
0.006063181
-0.011998209
0.0059292461
-0.01239371
0.0058010344
-0.012792356
0.0056786132
-0.013195098
0.0055618683
-0.013602967
0.0054505037
-0.014016996
0.0053440146
-0.014438174
0.005241886
-0.014867073
0.0051436882
-0.015304015
0.0050490654
-0.01574898
0.0049578278
-0.016201601
0.0048699688
-0.016661517
0.004785508
-0.017128601
0.0047044256
-0.017602832
0.00462661
-0.018084532
0.0045518353
-0.018574151
0.0044798423
-0.019072049
0.0044103635
-0.019578489
0.0043431338
-0.020093664
0.0042778873
-0.020617684
0.0042143598
-0.02115053
0.0041522877
-0.021692102
0.0040914009
-0.022242229
0.0040314251
-0.022800659
0.0039720754
-0.023367037
0.0039130541
-0.023940895
0.0038540512
-0.024521645
0.003794732
-0.025108548
0.0037347439
-0.025700714
0.0036737141
-0.026297054
0.0036111863
-0.02689642
0.0035464195
-0.027497481
0.003479416
-0.02809682
0.0034098042
-0.028693487
0.0033365495
-0.029287284
0.0032588454
-0.029872951
0.0031762923
-0.030448265
0.0030883851
-0.031010667
0.0029949097
-0.031557972
0.0028962194
-0.032089457
0.0027937674
-0.032607467
0.0026906994
-0.03311978
0.0025917837
-0.033641038
0.0025015758
-0.034189187
0.0024218168
-0.034776469
0.002351119
-0.035403805
0.0022868488
-0.036064312
0.0022267506
-0.036750045
0.0021694211
-0.037455542
0.0021141048
-0.038177806
0.0020604175
-0.038915538
0.002008188
-0.039668548
0.0019573257
-0.040436862
0.0019077401
-0.04122042
0.0018593747
-0.04201961
0.0018121852
-0.042834751
0.0017660919
-0.043665895
0.0017210692
-0.044513535
0.0016771042
-0.045378089
0.0016341509
-0.046259788
0.0015921517
-0.047158746
0.0015510794
-0.048075587
0.00151091
-0.049010664
0.0014716071
-0.049963928
0.0014331592
-0.050936178
0.0013955401
-0.051927554
0.0013587145
-0.052938286
0.0013226653
-0.053968952
0.0012873595
-0.055019708
0.0012527771
-0.056091352
0.0012188828
-0.057184077
0.0011856554
-0.058298738
0.001153066
-0.059435832
0.0011210764
-0.060595491
0.0010896972
-0.061778426
0.0010589093
-0.06298523
0.0010286903
-0.064216125
0.00099901077
-0.065471209
0.00096985284
-0.066751467
0.00094122759
-0.068057107
0.00091309543
-0.069388623
0.00088543931
-0.07074641
0.00085824055
-0.072131029
0.00083148677
-0.073543479
0.00080515677
-0.074983851
0.00077921333
-0.076453311
0.00075365349
-0.077952128
0.00072843279
-0.079480895
0.00070354149
-0.081040705
0.0006789594
-0.082631541
0.00065466788
-0.084254491
0.00063065562
-0.085910316
0.00060691059
-0.087599436
0.00058341008
-0.089322544
0.00056015352
-0.091080493
0.00053714548
-0.092873863
0.00051433903
-0.094703321
0.00049174011
-0.096569787
0.00046931176
-0.098473706
0.00044703914
-0.10041618
0.00042491441
-0.1023978
0.0004029037
-0.10441936
0.00038098491
-0.1064818
0.00035913961
-0.10858604
0.00033734917
-0.1107329
0.00031558089
-0.11292336
0.00029382769
-0.1151584
0.00027205909
-0.1174388
0.00025025335
-0.11976567
0.00022839005
-0.12213985
0.00020643863
-0.12456239
0.00018436767
-0.12703423
0.00016215238
-0.12955665
0.00013975602
-0.13213056
0.00011716446
-0.13475759
9.4339593e-05
-0.13743824
7.1265078e-05
-0.14017486
4.7879488e-05
-0.14296726
2.4157297e-05
-0.1458194
-0.14872983
0.0071510121
-0.0091106148
-0.0072943702
0.0070027606
-0.0095036564
0.0068547356
-0.0098957284
0.006708662
-0.010287064
0.0065651448
-0.010679297
0.006424714
-0.011072928
0.0062879516
-0.011468209
0.0061553685
-0.011865592
0.0060273587
-0.012265667
0.0059041806
-0.012669142
0.005785941
-0.013076817
0.0056725855
-0.013489563
0.0055639007
-0.013908257
0.0054594945
-0.014333708
0.0053589618
-0.014766476
0.0052619058
-0.015206891
0.0051680064
-0.015655007
0.0050771209
-0.016110635
0.0049892445
-0.016573554
0.0049043956
-0.01704366
0.0048226151
-0.017520952
0.0047438448
-0.018005657
0.0046679165
-0.018498114
0.0045946131
-0.018998633
0.0045236958
-0.019507456
0.0044549166
-0.020024769
0.004388021
-0.020550675
0.0043227563
-0.021085154
0.0042588587
-0.021628096
0.0041960641
-0.022179329
0.0041340951
-0.02273859
0.0040726664
-0.023305515
0.0040114753
-0.02387962
0.0039502001
-0.024460296
0.0038885009
-0.025046786
0.0038260062
-0.025638168
0.0037623236
-0.026233332
0.0036969792
-0.026831048
0.003629181
-0.027429665
0.0035588915
-0.028026521
0.0034858834
-0.028620476
0.0034089338
-0.029210336
0.0033272776
-0.029791297
0.0032404963
-0.030361486
0.0031481504
-0.03091832
0.003050154
-0.031459969
0.0029471476
-0.031986435
0.0028410743
-0.032501368
0.002735724
-0.033014393
0.0026362152
-0.033541481
0.0025466091
-0.034099521
0.0024676297
-0.034697417
0.002397222
-0.035333313
0.0023326752
-0.03599967
0.0022719092
-0.036689174
0.0022137119
-0.037397231
0.0021574398
-0.038121413
0.0021027704
-0.038860743
0.002049562
-0.039615211
0.0019977315
-0.040384901
0.0019471905
-0.041169748
0.0018978888
-0.041970178
0.0018497784
-0.042786512
0.0018027761
-0.043618767
0.001756862
-0.044467499
0.0017120241
-0.045333135
0.0016682127
-0.046215867
0.0016253722
-0.047115804
0.0015834699
-0.048033593
0.0015424868
-0.048969601
0.0015023833
-0.049923758
0.0014631514
-0.050896893
0.001424762
-0.051889129
0.0013871799
-0.052900685
0.0013503876
-0.053932158
0.0013143526
-0.054983688
0.0012790554
-0.056056086
0.0012444616
-0.057149529
0.0012105428
-0.058264878
0.0011772749
-0.059402637
0.001144614
-0.060562915
0.0011125776
-0.061746487
0.0010811446
-0.062953906
0.0010502893
-0.064185391
0.0010199866
-0.065441039
0.0009902111
-0.066721837
0.0009609811
-0.068028035
0.00093225417
-0.069360068
0.000904013
-0.070718355
0.00087623889
-0.072103457
0.00084891788
-0.073516379
0.00082203443
-0.074957212
0.00079554421
-0.076427094
0.00076944249
-0.077926336
0.00074369084
-0.079455498
0.00071827274
-0.081015692
0.00069317175
-0.0826069
0.00066836731
-0.084230202
0.00064384894
-0.085886367
0.00061960361
-0.08757581
0.00059560645
-0.089299209
0.00057185784
-0.091057445
0.00054836466
-0.092851105
0.00052507732
-0.094680801
0.00050200103
-0.096547512
0.00047909948
-0.098451642
0.0004563559
-0.10039431
0.00043376398
-0.10237613
0.00041128862
-0.10439786
0.00038890892
-0.10646046
0.00036660312
-0.10856483
0.000344356
-0.11071181
0.00032213158
-0.11290236
0.00029992089
-0.11513748
0.00027769807
-0.11741792
0.00025543772
-0.11974481
0.00023311793
-0.12211899
0.00021071028
-0.1245415
0.00018818017
-0.12701328
0.00016550258
-0.12953562
0.00014264179
-0.13210941
0.00011958238
-0.13473629
9.628156e-05
-0.13741675
7.2738231e-05
-0.14015317
4.8867904e-05
-0.14294527
2.4654372e-05
-0.1457971
-0.14870712
0.0071608931
-0.0089834138
-0.0072883848
0.0070281915
-0.0093711285
0.0068936483
-0.0097612712
0.006759312
-0.010152756
0.0066262398
-0.010546224
0.0064951726
-0.010941846
0.0063667548
-0.011339772
0.0062415169
-0.011740332
0.0061198769
-0.012144002
0.0060021302
-0.012551364
0.005888437
-0.012963085
0.0057788134
-0.013379891
0.0056731307
-0.013802517
0.0055711249
-0.014231639
0.0054724869
-0.014667769
0.0053769025
-0.015111232
0.0052841191
-0.015562144
0.0051940123
-0.016020443
0.0051065638
-0.016486014
0.0050217956
-0.016958794
0.0049397493
-0.017438803
0.0048603998
-0.017926199
0.0047836355
-0.018421236
0.0047092861
-0.018924167
0.0046371489
-0.0194352
0.0045670008
-0.019954502
0.0044986061
-0.020482164
0.004431719
-0.021018152
0.0043660893
-0.021562354
0.0043014546
-0.022114586
0.0042375408
-0.022674574
0.0041740561
-0.023241935
0.0041106968
-0.023816174
0.0040471341
-0.024396657
0.0039830129
-0.0249826
0.0039179518
-0.025573054
0.0038515353
-0.026166874
0.0037832817
-0.026762764
0.003712365
-0.027358728
0.0036386945
-0.027952839
0.0035621123
-0.02854389
0.0034812702
-0.029129494
0.0033954783
-0.029705506
0.0033042988
-0.030270306
0.0032073771
-0.030821395
0.0031048196
-0.031357402
0.002997623
-0.031879221
0.0028883172
-0.032392034
0.0027813149
-0.032907352
0.0026818282
-0.033441943
0.0025931235
-0.034010751
0.0025148938
-0.03461911
0.0024446233
-0.035262953
0.0023796599
-0.035934606
0.0023181391
-0.036627543
0.0022590161
-0.037337989
0.0022017543
-0.038064026
0.0021460752
-0.038804932
0.002091862
-0.039560863
0.002039038
-0.04033194
0.0019875203
-0.041118093
0.0019372545
-0.041919776
0.001888199
-0.042737322
0.0018402613
-0.043570698
0.0017934292
-0.044420541
0.0017476923
-0.045287278
0.0017029986
-0.046171059
0.0016592906
-0.04707199
0.0016165343
-0.047990742
0.0015747113
-0.048927695
0.0015337853
-0.049882762
0.001493745
-0.050856799
0.0014545633
-0.051849909
0.0014162025
-0.052862304
0.001378648
-0.053894601
0.0013418648
-0.054946919
0.001305834
-0.056020086
0.0012705205
-0.057114261
0.0012358975
-0.058230315
0.0012019326
-0.059368745
0.0011685857
-0.060529654
0.0011358778
-0.061713877
0.0011037855
-0.062921924
0.0010722799
-0.064154007
0.0010413423
-0.065410236
0.0010109351
-0.066691578
0.00098108819
-0.067998349
0.00095175435
-0.069330909
0.00092291688
-0.070689707
0.00089455504
-0.0720753
0.0008666591
-0.073488707
0.0008392096
-0.074930011
0.00081216284
-0.076400327
0.00078551402
-0.077900005
0.00075921947
-0.079429566
0.00073326644
-0.080990154
0.00070763488
-0.082581739
0.00068230981
-0.084205404
0.00065727579
-0.085861915
0.00063252099
-0.087551687
0.00060801949
-0.089275384
0.00058377153
-0.091033912
0.0005597842
-0.092827867
0.00053600664
-0.094657806
0.00051244532
-0.096524768
0.00048906384
-0.098429115
0.00046583989
-0.10037199
0.00044277325
-0.10235401
0.00041982589
-0.10437592
0.00039697474
-0.10643867
0.00037420039
-0.10854317
0.00035148733
-0.11069028
0.00032879822
-0.11288092
0.00030612452
-0.11511611
0.00028343832
-0.11739661
0.0002607148
-0.11972352
0.0002379318
-0.1220977
0.00021505873
-0.12452018
0.00019206151
-0.1269919
0.00016891173
-0.12951415
0.0001455791
-0.13208783
0.00012205057
-0.13471457
9.8266285e-05
-0.13739482
7.4234011e-05
-0.14013103
4.9871275e-05
-0.14292283
2.5158679e-05
-0.14577433
-0.14868394
0.0071617619
-0.008870656
-0.0072747273
0.0070438776
-0.0092533585
0.0069232457
-0.0096406969
0.0068014678
-0.010031002
0.0066796611
-0.010424415
0.0065586674
-0.010820837
0.0064391936
-0.011220276
0.0063218261
-0.011622939
0.0062070341
-0.01202918
0.0060951669
-0.01243946
0.0059864478
-0.012854321
0.0058809678
-0.013274358
0.0057786884
-0.013700177
0.0056794586
-0.014132341
0.0055830684
-0.014571304
0.0054892956
-0.015017379
0.0053979577
-0.01547072
0.0053089562
-0.01593135
0.0052222715
-0.016399232
0.0051379259
-0.016874346
0.005055953
-0.017356722
0.0049763471
-0.017846481
0.0048990362
-0.018343809
0.0048238923
-0.018848902
0.0047507475
-0.019361933
0.0046794088
-0.019883041
0.0046096579
-0.020412293
0.0045412654
-0.020949641
0.00447399
-0.021494963
0.0044075762
-0.022048061
0.0043417523
-0.022608644
0.00427623
-0.023176314
0.0042106938
-0.023750549
0.0041448106
-0.024330695
0.0040782158
-0.024915938
0.0040105077
-0.02550529
0.0039412579
-0.026097581
0.0038699765
-0.02669145
0.0037958247
-0.027284554
0.0037186423
-0.027875643
0.0036383086
-0.02846355
0.0035533518
-0.029044535
0.0034632064
-0.02961536
0.0033674341
-0.030174532
0.0032658011
-0.030719756
0.0031586546
-0.031250243
0.0030474492
-0.031767995
0.0029353685
-0.032279923
0.0028273614
-0.032799301
0.002728428
-0.033342953
0.0026408086
-0.033923063
0.0025632553
-0.034541475
0.0024929821
-0.035192586
0.0024274952
-0.035869014
0.0023651503
-0.036565082
0.0023050686
-0.037277783
0.0022467943
-0.03800562
0.0021900899
-0.038748091
0.0021348584
-0.039505491
0.002081032
-0.040277971
0.0020285248
-0.041065443
0.0019772848
-0.041868394
0.0019272712
-0.042687169
0.001878388
-0.043521679
0.001830628
-0.04437265
0.0017839827
-0.045240507
0.0017383945
-0.046125352
0.001693809
-0.047027296
0.0016501878
-0.047947022
0.0016075136
-0.048884934
0.0015657547
-0.049840931
0.001524897
-0.050815884
0.0014849098
-0.051809882
0.0014457608
-0.052823134
0.0014074334
-0.05385627
0.0013698914
-0.054909391
0.0013331152
-0.05598334
0.0012970737
-0.057078265
0.0012617332
-0.058195034
0.0012270622
-0.059334148
0.0011930205
-0.060495699
0.0011596301
-0.061680586
0.0011268675
-0.062889272
0.0010947018
-0.064121965
0.0010631171
-0.065378787
0.0010320707
-0.06666068
0.0010015919
-0.067968033
0.00097164388
-0.069301137
0.00094219785
-0.070660453
0.00091324066
-0.072046551
0.0008847559
-0.073460451
0.00085673261
-0.074902241
0.00082911797
-0.076372996
0.00080190873
-0.077873119
0.00077506362
-0.079403091
0.00074856351
-0.080964077
0.0007223944
-0.08255605
0.00069653603
-0.084180084
0.00067097738
-0.08583695
0.00064570326
-0.087527058
0.00062068777
-0.089251059
0.00059592858
-0.091009883
0.00057143782
-0.092804142
0.00054716177
-0.09463433
0.00052310373
-0.096501544
0.00049923159
-0.098406117
0.0004755201
-0.10034919
0.00045196721
-0.10233143
0.00042853904
-0.10435351
0.0004052088
-0.10641642
0.00038195697
-0.10852107
0.00035876784
-0.1106683
0.00033560344
-0.11285903
0.00031245599
-0.11509431
0.00028929836
-0.11737485
0.00026609986
-0.11970178
0.00024284489
-0.12207597
0.00021949588
-0.12449842
0.00019602225
-0.12697008
0.00017239592
-0.12949224
0.00014858272
-0.1320658
0.00012455757
-0.13469239
0.00010028723
-0.13737244
7.5757064e-05
-0.14010842
5.0893037e-05
-0.14289992
2.5672324e-05
-0.1457511
-0.14866029
0.0071560446
-0.0087717127
-0.0072550572
0.007052368
-0.009149707
0.0069453876
-0.0095337161
0.0068362813
-0.0099218822
0.0067260332
-0.010314139
0.0066154733
-0.010710241
0.0065053307
-0.011110094
0.0063962307
-0.011513798
0.0062886893
-0.011921596
0.0061831092
-0.012333833
0.0060797751
-0.012750935
0.0059788517
-0.013173375
0.0058803868
-0.013601645
0.0057843301
-0.01403621
0.0056905683
-0.014477462
0.0055989662
-0.014925691
0.0055094075
-0.01538107
0.0054218274
-0.015843673
0.005336216
-0.016313519
0.0052525962
-0.01679062
0.0051710008
-0.017275015
0.0050914334
-0.017766797
0.0050138514
-0.018266106
0.0049381594
-0.018773086
0.0048642236
-0.019287871
0.0047918762
-0.019810568
0.0047209206
-0.020341213
0.0046511455
-0.020879745
0.0045823221
-0.02142602
0.0045142008
-0.021979825
0.0044465145
-0.022540849
0.0043789697
-0.023108668
0.0043112556
-0.023682743
0.0042430242
-0.024262383
0.0041739013
-0.024846745
0.0041034696
-0.025434801
0.0040312751
-0.026025341
0.0039568149
-0.026616956
0.0038793229
-0.027207038
0.0037985223
-0.027794828
0.0037142291
-0.028379249
0.003624915
-0.028955217
0.0035301902
-0.029520632
0.003429634
-0.030073972
0.0033231664
-0.03061328
0.0032114602
-0.031138522
0.0030965189
-0.03165303
0.0029822217
-0.032165591
0.0028738862
-0.032690919
0.0027759626
-0.03324497
0.0026895305
-0.033836558
0.0026125503
-0.034464408
0.0025421493
-0.035122085
0.0024760548
-0.035802808
0.0024128432
-0.036501749
0.0023517803
-0.037216589
0.0022924841
-0.037946186
0.0022347485
-0.038690212
0.002178494
-0.039449089
0.0021236614
-0.04022299
0.0020701612
-0.041011795
0.0020179442
-0.041816029
0.0019669683
-0.042636049
0.0019171335
-0.043471703
0.0018684402
-0.04432382
0.0018208798
-0.045192816
0.0017743894
-0.046078739
0.0017289177
-0.04698171
0.0016844228
-0.047902424
0.0016408899
-0.048841312
0.0015982884
-0.049798254
0.0015566031
-0.05077414
0.0015158045
-0.051769042
0.0014758574
-0.052783164
0.0014367467
-0.053817156
0.0013984348
-0.054871093
0.0013609045
-0.05594584
0.0013241243
-0.05704153
0.0012880552
-0.058159025
0.0012526679
-0.059298834
0.00121792
-0.060461038
0.0011838372
-0.061646602
0.0011503922
-0.062855939
0.0011175561
-0.064089253
0.0010853137
-0.065346682
0.0010536168
-0.066629134
0.0010224977
-0.067937079
0.00099192174
-0.06927074
0.00096185913
-0.070630585
0.00093229315
-0.072017197
0.0009032105
-0.0734316
0.0008746011
-0.074873889
0.00084641024
-0.076345096
0.00081863154
-0.077845671
0.00079122492
-0.079376063
0.00076416738
-0.080937452
0.0007374487
-0.082529823
0.00071104932
-0.084154235
0.00068495444
-0.085811462
0.00065915104
-0.087501914
0.00063361194
-0.089226225
0.00060833091
-0.090985347
0.000583328
-0.092779921
0.00055854399
-0.094610362
0.00053398007
-0.096477832
0.00050960775
-0.098382636
0.00048539538
-0.10032592
0.00046134963
-0.10230837
0.0004374281
-0.10433064
0.000413608
-0.10639371
0.00038986789
-0.1084985
0.00036619443
-0.11064587
0.00034254668
-0.11283669
0.00031891538
-0.11507204
0.00029527511
-0.11735264
0.00027159606
-0.1196796
0.00024785599
-0.12205379
0.00022402424
-0.12447621
0.00020006303
-0.12694781
0.00017594892
-0.12946989
0.00015164018
-0.13204331
0.00012712206
-0.13466975
0.00010235061
-0.1373496
7.7313574e-05
-0.14008536
5.1939359e-05
-0.14287655
2.6201472e-05
-0.14572739
-0.14863615
0.0071456206
-0.0086862492
-0.0072310554
0.0070555494
-0.0090595889
0.0069617373
-0.0094398497
0.0068650489
-0.0098251386
0.0067662955
-0.010215325
0.0066662396
-0.010610123
0.0065655941
-0.011009389
0.0064649959
-0.011413143
0.0063649899
-0.011821534
0.0062660199
-0.012234806
0.0061684233
-0.012653277
0.006072429
-0.013077314
0.0059781629
-0.013507306
0.0058856609
-0.013943629
0.0057948975
-0.014386614
0.0057058163
-0.01483652
0.0056183632
-0.015293522
0.0055325106
-0.01575772
0.0054482648
-0.016229168
0.0053656549
-0.016707899
0.0052847145
-0.01719396
0.0052054585
-0.017687421
0.0051278618
-0.018188385
0.0050518579
-0.018696955
0.0049773394
-0.019213223
0.004904164
-0.019737263
0.0048321585
-0.02026908
0.0047611263
-0.020808587
0.0046908519
-0.021355624
0.0046210943
-0.021909949
0.0045515897
-0.022471232
0.0044820487
-0.023039023
0.0044121489
-0.023612748
0.0043415421
-0.024191692
0.0042698366
-0.024774968
0.0041965997
-0.025361505
0.0041213481
-0.025950042
0.0040434519
-0.026539024
0.0039625738
-0.027126134
0.0038781801
-0.027710418
0.0037895533
-0.028290613
0.0036956379
-0.028861295
0.0035961192
-0.029421109
0.0034906005
-0.029968447
0.0033792213
-0.030501891
0.0032630673
-0.031022351
0.0031447908
-0.031534726
0.0030289574
-0.032049719
0.0029209842
-0.032582895
0.0028244478
-0.033148369
0.0027392247
-0.033751257
0.0026626955
-0.034387788
0.0025920526
-0.035051338
0.0025252827
-0.035735922
0.0024611695
-0.036437508
0.0023991125
-0.037154396
0.0023387901
-0.037885719
0.0022800218
-0.038631294
0.0022227481
-0.039391663
0.0021669078
-0.040166995
0.0021124167
-0.040957149
0.0020592182
-0.041762677
0.0020072788
-0.042583959
0.0019564901
-0.043420768
0.0019068608
-0.044274049
0.001858379
-0.045144199
0.0018109792
-0.046031211
0.0017646154
-0.046935229
0.0017192386
-0.047856941
0.0016748382
-0.048796818
0.0016313886
-0.049754727
0.0015888686
-0.050731558
0.0015472477
-0.051727378
0.0015064924
-0.052742385
0.0014665906
-0.053777249
0.001427501
-0.054832017
0.0013892059
-0.055907575
0.0013516739
-0.057004044
0.0013148674
-0.058122279
0.0012787513
-0.059262792
0.0012432882
-0.060425662
0.0012085034
-0.061611917
0.0011743674
-0.062821915
0.0011408463
-0.064055857
0.0011079389
-0.065313913
0.0010755781
-0.066596926
0.0010438073
-0.067905475
0.0010125945
-0.069239709
0.00098190419
-0.070600092
0.00095171851
-0.071987226
0.00092202696
-0.073402145
0.00089282291
-0.074844948
0.00086404432
-0.076316613
0.00083568517
-0.077817649
0.0008077054
-0.079348469
0.0007800832
-0.080910272
0.00075280479
-0.082503046
0.00072585284
-0.084127845
0.00069921063
-0.08578544
0.00067286847
-0.087476244
0.00064679485
-0.089200871
0.00062098439
-0.090960298
0.0005954573
-0.092755191
0.00057015268
-0.09458589
0.00054507483
-0.096453624
0.00052019268
-0.098358664
0.00049547284
-0.10030215
0.00047092
-0.10228483
0.00044649986
-0.10430728
0.00042218029
-0.10637052
0.00039794218
-0.10847546
0.00037377221
-0.11062296
0.00034963039
-0.11281388
0.00032550622
-0.11504932
0.00030137383
-0.11732997
0.00027720227
-0.11965695
0.00025296876
-0.12203114
0.00022864231
-0.12445354
0.00020418591
-0.12692507
0.00017956577
-0.12944706
0.00015475881
-0.13202036
0.00012973251
-0.13464664
0.00010445717
-0.13732629
7.8904099e-05
-0.14006181
5.3004395e-05
-0.14285269
2.6740103e-05
-0.1457032
-0.14861152
0.0071320414
-0.0086138241
-0.0072043962
0.0070549571
-0.0089824189
0.0069737207
-0.0093585244
0.0068889918
-0.0097403223
0.0068014354
-0.010127681
0.0067117352
-0.01052034
0.006620565
-0.010918143
0.0065285497
-0.011321058
0.0064362422
-0.01172916
0.0063441104
-0.012142609
0.0062525296
-0.012561629
0.00616178
-0.012986494
0.0060720506
-0.0134175
0.0059834503
-0.013854947
0.0058960278
-0.014299104
0.0058097959
-0.014750195
0.0057247566
-0.015208384
0.0056409203
-0.01567378
0.005558314
-0.016146452
0.0054769772
-0.016626448
0.0053969493
-0.017113813
0.0053182535
-0.017608601
0.0052408806
-0.018110884
0.0051647843
-0.018620726
0.0050898821
-0.019138187
0.0050160531
-0.019663301
0.0049431453
-0.020196041
0.0048709797
-0.020736292
0.0047993511
-0.021283869
0.0047280295
-0.021838506
0.0046567506
-0.022399838
0.0045852284
-0.022967394
0.0045131377
-0.023540561
0.0044401185
-0.024118587
0.0043657709
-0.024700547
0.0042896482
-0.025285321
0.0042112543
-0.025871599
0.0041299009
-0.026457633
0.0040452986
-0.027041505
0.0039569612
-0.027622063
0.003863852
-0.028197492
0.0037651721
-0.028762608
0.0036606577
-0.029316588
0.003550026
-0.029857807
0.0034337207
-0.030385572
0.0033133477
-0.030901957
0.0031923006
-0.031413649
0.0030757244
-0.031933101
0.0029687876
-0.032475903
0.0028739044
-0.033053417
0.0027898428
-0.033667112
0.002713625
-0.034311473
0.0026426327
-0.034980235
0.0025751331
-0.035668299
0.0025100959
-0.036372337
0.0024470383
-0.037091195
0.0023856911
-0.037824222
0.0023258935
-0.038571341
0.0022676011
-0.039333211
0.0022107581
-0.040109991
0.0021552781
-0.040901508
0.0021011008
-0.041708341
0.0020481942
-0.042530896
0.0019964486
-0.04336887
0.0019458815
-0.044223334
0.0018964763
-0.045094653
0.001848163
-0.045982765
0.0018008985
-0.046887842
0.0017546347
-0.047810568
0.0017093611
-0.048751448
0.0016650563
-0.049710341
0.0016216939
-0.050688132
0.0015792422
-0.051684882
0.0015376717
-0.052700788
0.0014969677
-0.053736539
0.0014570902
-0.054792152
0.0014180182
-0.055868533
0.0013797281
-0.056965799
0.0013421729
-0.058084784
0.0013053182
-0.059226012
0.0012691321
-0.060389563
0.0012336341
-0.06157652
0.0011987954
-0.06278719
0.0011645804
-0.064021768
0.0011309937
-0.065280466
0.0010979642
-0.06656405
0.001065529
-0.067873208
0.0010336672
-0.069208031
0.0010023376
-0.070568963
0.00097152326
-0.071956631
0.00094121118
-0.073372074
0.00091140074
-0.074815405
0.00088202477
-0.076287539
0.00085307473
-0.077789044
0.00082451385
-0.079320303
0.00079631346
-0.080882523
0.0007684652
-0.08247571
0.00074095095
-0.084100905
0.00071375141
-0.085758873
0.0006868596
-0.087450039
0.00066024237
-0.089174988
0.0006338905
-0.090934722
0.00060782956
-0.092729944
0.00058199787
-0.094560909
0.00055639235
-0.096428907
0.0005309918
-0.098334194
0.00050575224
-0.10027789
0.00048068479
-0.10226079
0.00045575255
-0.10428344
0.00043092252
-0.10634684
0.0004061778
-0.10845194
0.00038150336
-0.11059958
0.00035685792
-0.1127906
0.00033222862
-0.11502612
0.00030759631
-0.11730683
0.00028292079
-0.11963383
0.00025818535
-0.12200803
0.00023335456
-0.1244304
0.00020839212
-0.12690187
0.00018326625
-0.12942377
0.00015794575
-0.13199694
0.00013240214
-0.13462306
0.00010660128
-0.1373025
8.0516644e-05
-0.14003778
5.4094694e-05
-0.14282836
2.7282166e-05
-0.1456785
-0.14858638
0.0071166413
-0.0085538689
-0.0071765235
0.0070518412
-0.008917522
0.006982507
-0.0092890849
0.006909155
-0.009666865
0.006832348
-0.010050772
0.0067527014
-0.0104406
0.0066708405
-0.010836198
0.0065873607
-0.011237502
0.0065028041
-0.011644534
0.0064176444
-0.012057381
0.0063322784
-0.012476193
0.006247022
-0.012901164
0.006162112
-0.013332511
0.0060777139
-0.013770464
0.0059939376
-0.014215237
0.0059108533
-0.014667014
0.0058285121
-0.01512594
0.0057469606
-0.015592121
0.005666249
-0.016065628
0.0055864297
-0.01654651
0.0055075502
-0.017034809
0.0054296432
-0.017530566
0.0053527127
-0.01803382
0.0052767304
-0.018544607
0.005201631
-0.019062949
0.0051273142
-0.019588847
0.0050536475
-0.020122239
0.0049804659
-0.020662977
0.0049075761
-0.021210849
0.004834754
-0.021765559
0.0047617439
-0.02232671
0.0046882534
-0.022893794
0.0046139562
-0.023466164
0.0045384838
-0.024043027
0.004461422
-0.024623409
0.0043823176
-0.025206153
0.0043006731
-0.025789904
0.0042157217
-0.026372642
0.0041271524
-0.026952907
0.0040346017
-0.027529493
0.0039368123
-0.02809969
0.0038331729
-0.028658958
0.0037234498
-0.029206856
0.0036075959
-0.029741942
0.0034864423
-0.030264403
0.0033622412
-0.030777732
0.0032391647
-0.031290538