/*--------------------------------*- C++ -*----------------------------------*\
| =========                 |                                                 |
| \\      /  F ield         | OpenFOAM: The Open Source CFD Toolbox           |
|  \\    /   O peration     | Version:  2406                                  |
|   \\  /    A nd           | Website:  www.openfoam.com                      |
|    \\/     M anipulation  |                                                 |
\*---------------------------------------------------------------------------*/
FoamFile
{
    version     2.0;
    format      ascii;
    arch        "LSB;label=32;scalar=64";
    class       volScalarField;
    location    "0.004";
    object      omega;
}
// * * * * * * * * * * * * * * * * * * * * * * * * * * * * * * * * * * * * * //

dimensions      [0 0 -1 0 0 0 0];

internalField   nonuniform List<scalar> 
35803
(
21941.066
19477.645
17042.831
14723.051
12561.758
10584.061
8804.3982
7228.675
5856.1448
4681.8729
3695.0153
2880.0412
2218.6303
1690.9476
1276.7697
956.36309
708.9065
505.04004
333.72866
223.60864
175.88762
150.6661
134.0246
122.96179
116.01249
110.19307
107.92492
103.5077
101.86181
99.686604
97.898686
19171.417
17131.09
15134.713
13211.452
11388.726
9690.2044
8134.6533
6734.9657
5498.6977
4427.6187
3517.209
2757.4856
2135.3386
1635.1001
1239.7865
932.14331
692.81351
493.80204
324.64256
219.11541
173.87591
149.48994
133.41892
122.6168
115.78987
110.07552
107.84182
103.4579
101.83133
99.661469
97.895422
16538.994
14915.565
13305.553
11731.813
10215.902
8778.8473
7439.9997
6215.5538
5117.7455
4153.4332
3323.3702
2622.7561
2043.16
1572.9616
1198.4619
904.96902
674.68874
481.12928
315.09074
215.90769
172.69303
148.74231
133.07632
122.41976
115.65016
109.99415
107.7902
103.42687
101.80716
99.642051
97.891954
14065.765
12812.435
11546.183
10285.751
9049.6146
7856.6523
6725.4682
5673.247
4714.5289
3859.6038
3113.341
2475.4148
1941.5812
1504.0538
1152.3957
874.50754
654.22256
466.4889
304.68665
212.06577
170.9343
147.59784
132.50205
122.07952
115.33948
109.86086
107.70027
103.37249
101.76889
99.618534
97.888024
11788.598
10845.639
9874.6196
8889.2357
7904.2133
6935.5467
5999.95
5113.9289
4292.563
3547.961
2887.8988
2315.5962
1830.4167
1428.0738
1101.2729
840.44867
631.04636
449.2025
293.1421
208.04354
169.17546
146.45718
131.96018
121.75864
114.93047
109.72302
107.61465
103.32072
101.7286
99.589328
97.883469
9731.4025
9040.0953
8313.7706
7562.6643
6797.2865
6029.9766
5274.5319
4545.4733
3856.9885
3221.5668
2648.6361
2143.9545
1709.783
1344.8744
1044.8467
802.4911
604.71465
428.5534
280.46374
203.7507
167.11173
145.06861
131.27683
121.33243
114.52396
109.5432
107.5003
103.25096
101.67582
99.55295
97.878249
7907.1347
7414.1286
6884.2103
6326.5079
5747.5886
5155.9885
4562.0555
3977.4728
3414.4658
2884.6993
2398.0462
1961.7522
1580.1677
1254.5068
982.95932
760.34374
574.67638
404.44164
266.83139
199.27297
164.8936
143.5696
130.56023
120.87131
114.27055
109.3664
107.377
103.17567
101.61649
99.51813
97.872324
6320.0238
5977.1101
5600.9303
5198.3665
4772.9746
4330.0113
3876.4848
3420.9682
2973.1247
2542.9232
2139.6414
1770.9858
1442.5355
1157.2941
915.58439
713.73279
540.22559
376.66476
252.61566
194.60252
162.39836
141.84099
129.71755
120.30874
113.94485
109.18222
107.22283
103.08141
101.54394
99.490771
97.865669
4965.8732
4733.6162
4474.1605
4192.1152
3888.9685
3567.478
3231.8501
2887.7713
2542.2136
2202.9717
1877.9615
1574.4528
1298.4074
1053.8929
842.85454
662.38455
500.40751
345.22741
238.45157
189.75787
159.67702
139.96024
128.80391
119.68372
113.57035
108.96168
107.04664
102.97452
101.45932
99.456395
97.858296
3834.271
3681.3614
3507.6986
3316.1161
3106.8594
2881.0174
2640.7297
2389.332
2131.3549
1872.3304
1618.3884
1375.7006
1149.8698
945.31582
765.0345
605.93443
454.02011
310.91062
225.04296
184.67981
156.63427
137.87049
127.75069
118.94412
113.15005
108.69611
106.83021
102.84325
101.35692
99.415551
97.850283
2907.8454
2810.2843
2697.7004
2571.7496
2432.0663
2278.78
2112.6811
1935.403
1749.5199
1558.5349
1366.7217
1178.799
999.46187
832.86406
682.46748
543.42467
399.29054
276.29565
212.86041
179.29669
153.25981
135.64044
126.59018
118.11777
112.69127
108.41332
106.57819
102.69075
101.24132
99.381735
97.841809
2164.623
2104.5878
2034.1601
1954.2529
1864.2979
1763.9799
1653.346
1532.9414
1403.9423
1268.2486
1128.4846
987.85589
849.83192
717.83928
595.0772
472.1011
337.0985
246.24526
201.88821
173.51005
149.4559
133.22309
125.26356
117.167
112.16103
108.07351
106.27417
102.50612
101.10911
99.352279
97.833193
1579.8138
1544.0661
1501.6731
1452.9888
1397.3925
1334.3634
1263.5824
1184.9878
1098.8839
1006.0588
907.85463
806.11234
702.93625
600.74376
500.65262
387.04524
277.77057
224.01205
191.56584
167.11868
145.19277
130.67802
123.78792
116.12281
111.6097
107.71655
105.92868
102.29609
100.95629
99.32379
97.824952
1125.4975
1105.0421
1080.5662
1052.1563
1019.3115
981.51415
938.26376
889.14626
833.9391
772.71592
705.9055
634.10785
557.91554
478.82362
394.33472
295.6078
236.90215
207.33682
180.62255
159.9763
140.74779
127.95379
122.08169
114.96018
110.9952
107.32504
105.53489
102.06198
100.78059
99.301915
97.817839
773.06743
761.88484
748.41618
732.61909
714.05807
692.25798
666.73228
636.94885
602.40332
562.74958
517.94466
467.78423
411.36287
351.66843
289.70804
240.51321
211.99133
190.46058
170.09033
153.42174
135.76821
125.00564
120.22131
113.70906
110.33693
106.84622
105.10208
101.80917
100.60091
99.278583
97.812781
499.11091
492.8647
485.56437
477.2093
467.29207
455.14072
440.15408
421.86488
400.06581
374.57138
346.49473
317.48047
286.44123
257.10852
230.71988
209.86197
190.92679
176.45726
159.13614
144.96143
130.81915
122.41372
117.96709
112.37068
109.60008
106.29631
104.61992
101.53198
100.42467
99.241031
97.810322
318.76536
315.49547
311.55835
306.98621
301.6582
295.43399
288.01231
279.41927
268.89122
256.75243
245.00703
232.42757
218.34108
206.51564
198.22864
188.12445
172.59276
159.41913
149.15074
138.16217
125.79738
119.32546
115.88707
110.98434
108.77689
105.72137
104.13265
101.22256
100.24288
99.198887
97.809675
220.84289
219.70641
218.36606
216.62097
214.40299
211.51053
207.90347
204.43605
200.24404
195.17443
191.4837
185.95672
180.49363
174.741
167.13491
163.58006
155.59554
148.34831
138.94312
130.01034
121.42397
116.61684
113.67523
109.59349
107.73498
105.04467
103.62514
100.85083
100.04579
99.150639
97.806128
173.07697
172.47062
171.78953
171.03946
170.24046
169.43204
168.56871
166.63387
164.69907
162.38085
160.85491
159.32316
157.25007
151.37283
146.23388
144.31112
142.49264
134.44559
130.52003
125.32941
116.83266
113.76095
111.69994
108.31825
106.47528
104.2835
103.06372
100.48775
99.840427
99.124206
97.796017
149.33845
148.77034
148.0361
147.05984
145.85926
144.70223
143.8517
143.20734
143.03976
144.10943
143.7958
142.74381
138.97193
137.90934
135.70197
130.97782
129.08086
126.53315
123.86059
118.33792
113.2837
111.95272
109.11115
106.90291
105.19927
103.39846
102.38848
100.13611
99.605624
99.110887
97.783472
130.16909
130.16869
130.30292
130.53719
130.76917
131.00591
131.09457
130.89772
130.15804
128.42393
126.33322
125.40523
125.26753
124.61142
124.72068
123.46927
122.00125
118.06668
116.26902
114.44019
110.86641
108.84731
106.87168
105.54752
103.59646
102.51179
101.6273
99.789192
99.379835
99.108374
97.773567
119.19164
118.90119
118.51168
118.06825
117.7312
117.45171
117.19706
116.96333
116.76315
116.65771
117.27294
117.38222
116.6235
114.91144
114.06719
113.53712
113.23815
113.18264
112.148
108.88192
106.64326
105.71938
104.5997
103.69696
102.30721
101.5065
100.89514
99.452983
99.255134
99.132507
97.79405
110.77663
110.85871
110.98091
111.08705
111.17194
111.22911
111.23713
111.17595
110.98839
110.55631
109.57664
109.05357
108.7564
109.06758
108.5834
108.11237
107.04133
106.80823
106.73987
105.78498
104.19392
102.97841
102.37711
101.51925
101.26897
100.51361
100.26447
99.148507
99.128731
99.142321
97.839275
105.5843
105.47242
105.32614
105.17121
105.0196
104.87574
104.74524
104.63753
104.56541
104.53709
104.54371
104.72078
104.65642
104.25972
103.78164
103.4404
103.16164
103.37818
103.08851
101.9373
101.17943
100.95657
100.95904
100.34509
100.36228
99.640821
99.693621
98.921646
99.036731
98.849558
97.909289
102.10489
102.08798
102.07036
102.06152
102.0692
102.09014
102.12538
102.16348
102.17613
102.12013
101.9332
101.65269
101.5043
101.30707
101.12028
100.96315
100.85501
100.88695
100.70798
100.06485
99.788153
99.922835
100.08912
99.557601
99.636956
99.180908
99.371319
98.775304
98.920243
98.682774
98.055667
100.24642
100.22979
100.20059
100.15875
100.11623
100.08682
100.06724
100.05063
100.02915
100.00224
99.975847
99.946072
99.946004
99.955642
99.832538
99.794053
99.770852
99.706067
99.732935
99.34473
99.133082
99.260141
99.604695
99.151719
99.02984
98.889168
99.099141
98.669549
98.769274
98.577036
98.100482
99.041887
99.039621
99.031778
99.019559
99.009215
99.003608
99.003702
99.010079
99.023134
99.031502
99.020085
98.983282
98.945172
98.914252
98.900308
98.854186
98.862577
99.077102
99.065872
98.954875
98.754038
98.855406
98.94483
98.786619
98.689876
98.644315
98.760274
98.544681
98.685561
98.494576
98.16014
98.523059
98.522981
98.5183
98.510201
98.502663
98.497183
98.492636
98.488959
98.487378
98.489337
98.48941
98.484978
98.481163
98.480064
98.460622
98.436023
98.418499
98.475629
98.527271
98.452866
98.38395
98.485074
98.541921
98.455709
98.415365
98.39138
98.422236
98.372446
98.41556
98.31994
98.174709
98.281571
98.281122
98.279455
98.278095
98.278372
98.280494
98.284082
98.28897
98.296341
98.305041
98.311451
98.314867
98.311788
98.299997
98.283691
98.260371
98.245268
98.274328
98.32377
98.292246
98.256838
98.29207
98.358556
98.301766
98.276706
98.268153
98.26971
98.243793
98.268946
98.227506
98.188633
98.210243
98.208548
98.207224
98.20709
98.208537
98.21148
98.215547
98.220269
98.225131
98.228462
98.229396
98.229497
98.229041
98.225902
98.216998
98.203467
98.193215
98.214657
98.266472
98.253924
98.21849
98.231863
98.298508
98.248909
98.225111
98.221402
98.214896
98.198505
98.214254
98.201851
98.198421
98.335287
98.335089
98.334659
98.333923
98.332878
98.331552
98.329966
98.328155
98.326261
98.324684
98.323717
98.322994
98.322443
98.322581
98.324528
98.328616
98.327101
98.305882
98.289953
98.297758
98.304368
98.29516
98.298689
98.277282
98.277281
98.27288
98.268897
98.269485
98.264569
98.258457
98.317703
60950.379
87463.347
104885.77
100817.99
84143.904
59654.031
42687.386
31308.755
23166.088
17077.896
12474.099
9002.0201
6413.1103
4513.684
3142.0621
2166.3322
1481.1608
1001.5926
668.31055
437.47387
280.44888
195.56504
155.36738
135.44596
123.71558
114.87792
110.79652
105.41969
103.86144
100.84649
98.039423
81117.267
108914.96
110406.87
98835.491
70745.209
50430.042
37447.055
28254.414
21258.096
15838.057
11657.189
8464.2463
6063.4951
4289.8424
3001.0064
2078.8499
1427.6383
969.01801
648.66662
425.24635
273.32205
192.22725
153.92037
134.78107
123.35071
114.66853
110.68828
105.3338
103.80143
100.81309
98.041881
106262.21
119200.91
111771.32
87014.793
61700.023
45370.521
34307.286
26112.611
19761.289
14800.498
10946.854
7985.7808
5747.6047
4085.2448
2870.8966
1997.5466
1377.5819
938.36191
630.11133
413.67536
266.92797
189.71014
152.93742
134.33576
123.10242
114.51979
110.60927
105.26176
103.74201
100.77845
98.044981
126815.56
122676.3
105175.39
74794.602
54508.408
41233.821
31657.784
24277.17
18462.927
13887.682
10313.1
7554.1219
5459.8864
3897.3246
2750.5157
1921.838
1330.7059
909.48102
612.56961
402.69905
260.97633
187.27098
151.87461
133.82495
122.81592
114.35096
110.51786
105.18545
103.67958
100.74385
98.04822
135243.16
122218.1
89461.232
64836.382
48992.823
37863.225
29375.844
22658.335
17307.464
13068.947
9740.339
7161.4052
5196.3525
3724.0652
2638.8441
1851.2095
1286.747
882.23405
595.96606
392.2404
255.3294
184.97118
150.89099
133.35647
122.5553
114.1981
110.43345
105.11343
103.61621
100.70953
98.051657
137918.99
105740.72
76589.407
57658.789
44713.192
35021.617
27367.382
21211.065
16267.383
12327.427
9219.0068
6802.2364
4954.0359
3563.8767
2535.0444
1785.2253
1245.4771
856.50509
580.24084
382.24398
249.95275
182.8054
149.93857
132.89046
122.29426
114.04533
110.34704
105.04172
103.55099
100.67488
98.055301
123478.24
89602.902
67168.259
52168.919
41173.343
32550.241
25578.828
19909.108
15325.609
11652.267
8742.4768
6472.5984
4730.6089
3415.4603
2438.4104
1723.5089
1206.6961
832.18845
565.32385
372.67296
244.8362
180.76803
149.0293
132.44138
122.0431
113.89958
110.26275
104.97235
103.48488
100.64003
98.059095
102954.53
77313.362
60185.79
47798.944
38168.262
30375.206
23977.667
18733.684
14469.656
11035.55
8305.7042
6169.316
4524.1741
3277.7276
2348.3363
1665.7313
1170.2267
809.19162
551.15704
363.50297
239.97304
178.85309
148.15659
132.003
121.7969
113.75749
110.1786
104.90445
103.41778
100.60468
98.062948
88537.28
68886.587
54895.253
44186.942
35561.018
28442.624
22538.334
17669.252
13689.504
10471.068
7904.6017
5889.7738
4333.1407
3149.7489
2264.296
1611.6024
1135.911
787.42377
537.69212
354.71599
235.35694
177.0542
147.32006
131.57721
121.55716
113.62029
110.09549
104.83862
103.3503
100.56891
98.066743
77828.522
62278.517
50526.594
41089.089
33266.346
26714.992
21240.331
16702.763
12977.054
9953.6718
7535.7202
5631.754
4156.1465
3030.7174
2185.8266
1560.8643
1103.6076
766.79935
524.87539
346.29863
230.98208
175.36506
146.51753
131.16273
121.32269
113.48707
110.01296
104.7747
103.28272
100.53274
98.070347
69942.075
57172.066
46930.571
38415.207
31232.968
25164.129
20066.611
15823.228
12325.51
9478.8932
7196.0748
5393.3392
3992.006
2919.9242
2112.5176
1513.2858
1073.1894
747.26071
512.65643
338.23915
226.84325
173.77946
145.74766
130.75962
121.09353
113.35788
109.93121
104.7129
103.21548
100.49639
98.07361
64061.384
53040.658
43853.249
36059.527
29415.393
23766.833
19002.717
15021.276
11728.987
9042.7951
6883.0475
5172.8483
3839.6747
2816.7401
2044.0013
1468.6588
1044.5416
728.75943
500.99441
330.52324
222.93549
172.29101
145.00909
130.36745
120.86929
113.2323
109.85013
104.65318
103.14892
100.46008
98.07637
59364.463
49545.533
41165.825
33966.877
27784.396
22504.952
18036.235
14288.935
11182.366
8641.8879
6594.3227
4968.7934
3698.2243
2720.6026
1979.9471
1426.7953
1017.5663
711.23886
489.85743
323.13469
219.25303
170.89321
144.30071
129.98603
120.64987
113.11014
109.76978
104.59553
103.08335
100.4241
98.078464
55469.798
46531.191
38796.885
32098.54
26316.6
21362.761
17156.506
13619.482
10681.088
8273.0578
6327.8395
4779.8482
3566.8237
2631.0052
1920.0558
1387.5238
992.17349
694.65873
479.20824
316.05984
215.78917
169.57996
143.62153
129.61514
120.43514
112.99108
109.69014
104.53983
103.01899
100.38873
98.079734
52140.344
43891.582
36692.886
30423.584
24992.414
20326.752
16354.504
13007.013
10221.058
7933.5215
6081.7564
4604.8245
3444.7255
2547.4905
1864.0553
1350.6877
968.2672
678.98048
469.0384
309.28909
212.53629
168.3455
142.97071
129.25459
120.22504
112.87491
109.61125
104.48601
102.956
100.35417
98.080046
49246.74
41561.298
34815.559
28917.551
23795.326
19385.33
15622.48
12446.26
9798.6112
7620.79
5854.4232
4442.6534
3331.2545
2469.6433
1811.6979
1316.1437
945.77096
664.16495
459.33148
302.81519
209.4863
167.18431
142.34753
128.90424
120.01954
112.76135
109.53316
104.43394
102.8945
100.32054
98.079306
46708.619
39492.836
33134.333
27560.254
22711.014
18528.443
14953.758
11932.515
9410.4723
7332.6351
5644.3573
4292.3711
3225.7993
2397.0861
1762.7571
1283.7603
924.62632
650.17735
450.07106
296.63335
206.63066
166.09114
141.75135
128.56396
119.81864
112.65018
109.45594
104.3834
102.83454
100.28787
98.077479
44468.57
37648.889
31624.14
26334.444
21727.102
17747.516
14342.453
11461.592
9053.717
7067.059
5450.2238
4153.106
3127.8049
2329.4747
1717.0256
1253.4218
904.76958
636.9852
441.24095
290.74019
203.96057
165.06108
141.18164
128.23365
119.6223
112.54114
109.37969
104.33412
102.7761
100.2561
98.074599
42481.603
35998.942
30264.077
25225.323
20832.906
17035.171
13783.35
11029.759
8725.7297
6822.268
5270.8192
4024.0691
3036.7667
2266.4949
1674.3128
1225.015
886.14314
624.55974
432.82474
285.13403
201.46706
164.08952
140.6379
127.91324
119.43045
112.434
109.30452
104.28583
102.71909
100.22517
98.070767
40710.652
34517.626
29036.611
24220.06
20019.191
16385.021
13271.797
10633.684
8424.1678
6596.6489
5105.0568
3904.5452
2952.2254
2207.8592
1634.4432
1198.429
868.69196
612.87495
424.80597
279.81391
199.14142
163.17215
140.11967
127.60271
119.24301
112.32851
109.23056
104.23835
102.66343
100.1951
98.066141
39125.77
33183.894
27926.679
23307.59
19278.043
15791.397
12803.646
10270.387
8146.9306
6388.7498
4951.9545
3793.8853
2873.7627
2153.3053
1597.2566
1173.5691
852.35408
601.90519
417.16839
274.77832
196.97508
162.30497
139.62654
127.30203
119.05984
112.22441
109.15794
104.19182
102.60907
100.16598
98.060905
37701.944
31980.012
26921.262
22478.314
18602.597
15249.257
12375.202
9937.2053
7892.1327
6197.2625
4810.624
3691.5002
2800.9974
2102.5926
1562.6157
1150.3481
837.06404
591.62519
409.89679
270.02415
194.95965
161.48433
139.15807
127.01123
118.88081
112.12148
109.08679
104.14755
102.55606
100.13783
98.055238
36418.38
30890.926
26009.061
21723.878
17986.83
14754.105
11983.164
9631.7529
7658.0802
6021.0076
4680.2618
3596.855
2733.582
2055.5001
1530.381
1128.688
822.76852
582.01073
402.97754
265.54771
193.08702
160.70687
138.71384
126.73034
118.70578
112.01953
109.01723
104.10706
102.50512
100.11063
98.049286
35257.265
29903.505
25180.339
21037.025
17425.373
14301.942
11624.585
9351.8917
7443.2504
5858.9213
4560.1403
3509.4643
2671.1996
2011.8387
1500.4151
1108.5137
809.41974
573.03736
396.39772
261.34461
191.34933
159.96957
138.29341
126.45941
118.53466
111.91845
108.94939
104.06915
102.45728
100.08436
98.043146
34203.289
29006.429
24426.551
20411.371
16913.432
13889.2
11296.828
9095.7035
7246.2737
5710.0436
4449.6016
3428.8873
2613.5652
1971.4222
1472.6108
1089.7556
796.9678
564.682
390.14401
257.40896
189.73906
159.26971
137.89631
126.19852
118.36743
111.81821
108.88334
104.03297
102.41189
100.05891
98.036876
33244.091
28189.856
23739.932
19841.324
16446.761
13512.678
10997.516
8861.4701
7065.9186
5573.509
4348.0504
3354.7245
2560.4326
1934.0679
1446.864
1072.3505
785.38597
556.92902
384.20386
253.73422
188.24904
158.60491
137.52207
125.94771
118.20418
111.71892
108.8191
103.99917
102.3684
100.03438
98.030499
32368.29
27445.078
23114.099
19321.973
16021.601
13169.495
10724.525
8647.6485
6901.0788
5448.5374
4254.9462
3286.6395
2511.5544
1899.6319
1423.0791
1056.2406
774.64814
549.75259
378.56761
250.31394
186.87248
157.97306
137.17017
125.70705
118.04507
111.62081
108.75667
103.96781
102.32719
100.01109
98.023985
31566.283
26764.684
22543.31
18848.873
15634.538
12857.114
10475.97
8452.8506
6750.7598
5334.4245
4169.8204
3224.2926
2466.6992
1867.9749
1401.1689
1041.373
764.72737
543.12172
373.23104
247.1418
185.60304
157.37238
136.84014
125.47658
117.89036
111.52426
108.69603
103.93908
102.28829
99.989149
98.017361
30829.854
26142.204
22022.499
18418.079
15282.556
12573.262
10250.226
8275.821
6614.0648
5230.562
4092.2725
3167.3577
2425.6761
1838.969
1381.0538
1027.6993
755.59585
537.01378
368.19495
244.21151
184.43477
156.80134
136.53146
125.25633
117.74056
111.42962
108.63771
103.91253
102.2518
99.96851
98.010669
30151.931
25571.961
21547.208
18026.095
14962.969
12315.907
10045.68
8115.4191
6490.219
5136.4499
4021.8823
3115.5907
2388.3077
1812.4989
1362.662
1015.1753
747.2261
531.40546
363.46113
241.51651
183.3621
156.25877
136.24356
125.04633
117.59655
111.33696
108.58133
103.8883
102.21775
99.949158
98.003959
29526.51
25049.063
21113.535
17669.832
14673.377
12083.236
9861.0825
7970.8569
6378.6277
5051.5387
3958.2628
3068.7485
2354.4334
1788.4609
1345.9283
1003.7606
739.59198
526.2756
359.0306
239.05362
182.37585
155.74394
135.97568
124.84657
117.4584
111.24711
108.52719
103.86549
102.18608
99.930996
97.997283
28948.596
24569.424
20718.26
17346.826
14411.938
11873.862
9695.4248
7841.4469
6278.6211
4975.3246
3901.1109
3026.6093
2323.9093
1766.7619
1330.7941
993.41895
732.66931
521.60546
354.91734
236.80519
181.46506
155.25545
135.72787
124.65708
117.32644
111.16049
108.47538
103.84314
102.15665
99.913904
97.990684
28417.972
24132.246
20360.29
17056.043
14177.751
11686.943
9547.8996
7726.1544
6189.5232
4907.4228
3850.138
2988.9777
2296.6067
1747.3182
1317.2071
984.11771
726.43612
517.37899
351.13343
234.75474
180.62843
154.79239
135.49992
124.47788
117.20072
111.07765
108.42609
103.82057
102.12941
99.897771
97.984198
27939.798
23740.113
20040.452
16797.109
13969.915
11521.658
9417.4373
7624.1951
6110.8432
4847.4557
3805.091
2955.6819
2272.4114
1730.0557
1305.1205
975.82802
720.87305
513.58318
347.68335
232.8935
179.86281
154.35378
135.2918
124.30899
117.08123
110.9989
108.37937
103.79812
102.10429
99.882363
97.977853
27510.753
23390.948
19757.091
16568.32
13786.695
11376.281
9302.8974
7534.9745
6042.092
4795.0967
3765.7453
2926.5711
2251.2232
1714.9088
1294.4931
968.52459
715.96361
510.20762
344.56832
231.21354
179.16596
153.93875
135.10348
124.15047
116.9678
110.92447
108.33526
103.77612
102.08121
99.867404
97.971676
27110.005
23070.876
19501.415
16364.644
13625.073
11248.82
9203.3664
7457.8313
5982.8454
4750.0578
3731.9078
2901.5137
2232.9547
1701.8204
1285.289
962.18565
711.69417
507.2443
341.78743
229.70823
178.53575
153.54714
134.93436
124.00239
116.86026
110.85442
108.29374
103.75468
102.06004
99.852803
97.965689
26719.564
22766.499
19264.382
16180.352
13482.009
11138.028
9117.9036
7392.1937
5932.7347
4712.0913
3703.4124
2880.3985
2217.5311
1690.7413
1277.477
956.79285
708.05395
504.68759
339.33827
228.37159
177.97044
153.17991
134.78282
123.86481
116.75838
110.78867
108.25473
103.73388
102.04058
99.838664
97.959913
26350.49
22482.488
19047.156
16014.975
13356.48
11042.864
9045.7877
7337.5802
5891.4432
4680.9855
3680.1188
2863.1334
2204.8907
1681.6302
1271.0307
952.33107
705.03502
502.53426
337.21787
227.1982
177.46855
152.83795
134.64736
123.73779
116.66203
110.72704
108.21817
103.71368
102.02263
99.824884
97.954365
26005.239
22220.518
18850.299
15868.302
13247.867
10962.643
8986.473
7293.5962
5858.7052
4656.5638
3661.912
2849.6426
2194.9844
1674.4537
1265.9284
948.78812
702.6321
500.78341
335.42334
226.18316
177.02886
152.52181
134.52695
123.62135
116.57117
110.66925
108.18394
103.69407
102.00594
99.811116
97.949058
25682.559
21980.34
18673.733
15740.131
13155.807
10896.93
8939.5536
7259.9288
5834.3055
4638.6839
3648.7014
2839.8676
2187.7737
1669.1865
1262.1531
946.15456
700.84248
499.43651
333.95188
225.32215
176.65037
152.23176
134.42095
123.51542
116.48593
110.615
108.15193
103.67502
101.99032
99.797322
97.943998
25380.485
21760.934
18516.924
15630.123
13079.993
10845.412
8904.7345
7236.34
5818.0773
4627.2366
3640.4206
2833.7673
2183.2322
1665.8105
1259.6919
944.42335
699.66576
498.4975
332.80087
224.61141
176.33233
151.96795
134.32891
123.41991
116.40661
110.56393
108.12203
103.65651
101.97562
99.783825
97.939167
25097.712
21561.355
18379.236
15537.867
13020.131
10807.851
8881.8059
7222.6583
5809.899
4622.1454
3637.0267
2831.3176
2181.3454
1664.3155
1258.5368
943.59005
699.10362
497.97294
331.968
224.04774
176.07426
151.73056
134.25048
123.33467
116.33367
110.51571
108.0941
103.63851
101.9617
99.77069
97.934454
24833.629
21380.866
18260.067
15462.923
12975.917
10784.051
8870.6273
7218.7698
5809.6973
4623.254
3638.3613
2832.4003
2182.0401
1664.6635
1258.6696
943.64605
699.15283
497.87203
331.45137
223.62838
175.87589
151.51973
134.18529
123.25946
116.26767
110.47
108.06802
103.62097
101.94839
99.758188
97.929624
24587.318
21218.492
18158.704
15404.788
12947.021
10773.851
8871.1062
7224.0275
5816.6366
4630.3991
3644.6208
2837.2587
2185.475
1666.9357
1260.1215
944.60518
699.83407
498.20689
331.24931
223.35065
175.73695
151.33553
134.13298
123.19398
116.20926
110.4265
108.04366
103.60387
101.93559
99.746272
97.924808
24356.59
21072.534
18074.095
15362.81
12933.07
10776.839
8882.1184
7238.5647
5832.1286
4644.2708
3655.8712
2845.7909
2191.5911
1671.1074
1262.8834
946.46147
701.14471
498.99353
331.33429
223.21142
175.65718
151.17805
134.09333
123.13797
116.15908
110.38501
108.02096
103.58717
101.92321
99.734219
97.920362
24137.206
20940.298
18004.765
15336.131
12933.776
10792.124
8904.5438
7263.8078
5855.7374
4664.5065
3672.0755
2858.0479
2200.4226
1677.2021
1266.9673
949.21892
703.09202
500.25099
331.774
223.2094
175.63711
151.04804
134.06663
123.09158
116.11769
110.34544
107.99991
103.57089
101.91116
99.722525
97.915957
23922.127
20817.988
17948.937
15323.887
12947.604
10819.743
8939.5111
7298.8824
5887.4036
4691.2073
3693.3068
2874.0902
2212.0154
1685.2513
1272.3909
952.88326
705.68341
502.00253
332.51655
223.31179
175.66515
150.94769
134.05401
123.05547
116.08535
110.30781
107.98047
103.55498
101.89929
99.712368
97.911297
23699.827
20700.095
17904.203
15325.407
12974.664
10860.742
8985.6928
7343.7692
5927.2172
4724.4711
3719.6536
2893.9894
2226.4237
1695.2926
1279.1762
957.46132
708.92551
504.27919
333.5845
223.5816
175.76714
150.87943
134.05527
123.02972
116.06139
110.27184
107.96229
103.5392
101.88718
99.703587
97.906848
23449.646
20576.772
17865.077
15336.736
13013.012
10910.86
9037.8057
7392.9536
5970.537
4760.7238
3748.4738
2915.8432
2242.3054
1706.3885
1286.6616
962.45577
712.39631
506.66434
334.65685
223.91746
175.89647
150.84053
134.06428
123.01133
116.04337
110.23631
107.94453
103.52311
101.87416
99.694186
97.902862
53227.001
77672.204
100459.48
98533.139
83823.525
60737.819
43744.991
32063.299
23726.615
17505.296
12798.529
9241.5885
6583.6668
4631.012
3220.2871
2217.0004
1513.1223
1021.4454
680.32692
444.90387
284.36295
197.06513
155.98248
135.73812
123.88986
114.99149
110.85388
105.47848
103.91078
100.87835
98.035337
51403.57
72974.568
95192.288
96314.597
82601.205
60514.46
43758.835
32161.022
23837.765
17615.035
12898.562
9326.2105
6650.1156
4680.2553
3255.1234
2240.6759
1528.6232
1031.4181
686.56823
449.07786
286.84058
198.09006
156.42078
135.94962
124.02197
115.08151
110.89641
105.52785
103.95103
100.90209
98.031796
49828.778
69213.292
90380.615
93722.991
81056.009
60113.686
43748.846
32246.145
23942.556
17720.972
12996.202
9409.4844
6716.0417
4729.4086
3290.0522
2264.4953
1544.2616
1041.4897
692.89077
453.27623
289.37186
199.1479
156.86746
136.16291
124.1586
115.17482
110.9396
105.5781
103.99017
100.92612
98.028358
48354.558
66012.018
85950.711
90906.37
79532.918
59680.15
43718.078
32318.219
24040.432
17822.739
13091.227
9491.2877
6781.351
4778.4151
3325.0438
2288.4447
1560.0315
1051.6595
699.29223
457.48224
291.93982
200.23622
157.32465
136.38035
124.30151
115.27212
110.98404
105.62868
104.02779
100.95021
98.025039
47001.827
63214.844
81868.797
88082.04
78019.054
59217.056
43656.664
32376.37
24130.859
17920.042
13183.471
9571.5104
6845.9639
4827.2259
3360.0719
2312.5111
1575.9273
1061.9257
705.77128
461.68018
294.53791
201.34921
157.78935
136.60015
124.44967
115.37252
111.02933
105.6798
104.06365
100.97448
98.021827
45766.111
60724.185
78123.684
85256.93
76497.539
58725.904
43570.793
32420.398
24213.48
18012.645
13272.808
9650.0644
6909.813
4875.7979
3395.1123
2336.6826
1591.9436
1072.2869
712.32689
465.85938
297.16512
202.48445
158.25954
136.82099
124.60223
115.47527
111.07514
105.73162
104.09777
100.99901
98.018699
44636.582
58477.282
74685.231
82458.083
74970.107
58204.708
43461.179
32450.175
24288.051
18100.391
13359.126
9726.8684
6972.8354
4924.0901
3430.1419
2360.9475
1608.0751
1082.7414
718.95815
470.01715
299.82195
203.64203
158.73498
137.04274
124.75905
115.58004
111.12145
105.78407
104.13034
101.02382
98.015633
43607.305
56438.896
71530.463
79705.812
73410.105
57670.315
43329.707
32465.106
24354.336
18183.162
13442.311
9801.8385
7034.9666
4972.0601
3465.1365
2385.2935
1624.3163
1093.2875
725.66431
474.15011
302.50836
204.82243
159.216
137.2658
124.9202
115.68667
111.16836
105.83692
104.1615
101.0489
98.012606
42672.797
54584.087
68635.34
77018.653
71824.717
57120.732
43177.608
32463.742
24411.979
18260.738
13522.24
9874.8868
7096.1402
5019.6645
3500.0709
2409.7076
1640.6612
1103.9233
732.44494
478.25891
305.22367
206.02581
159.70288
137.49059
125.08567
115.79496
111.21599
105.88976
104.19114
101.07426
98.0096
41826.273
52893.693
65975.849
74408.421
70210.67
56557.432
43006.661
32453.285
24461.036
18332.889
13598.78
9945.9217
7156.2882
5066.8576
3534.9192
2434.1765
1657.1034
1114.6464
739.29994
482.34893
307.96698
207.25212
160.19573
137.71742
125.25527
115.90463
111.26441
105.94197
104.21915
101.09989
98.006605
41060.195
51351.163
63529.68
71882.861
68551.838
55998.912
42819.42
32428.869
24501.338
18399.443
13671.795
10014.848
7215.3415
5113.5927
3569.6536
2458.6856
1673.6362
1125.4545
746.2292
486.42454
310.73735
208.50127
160.69464
137.94655
125.42869
116.01535
111.31369
105.99312
104.24559
101.12577
98.003616
40366.221
49940.787
61275.67
69450.976
66887.081
55422.179
42616.276
32389.484
24532.661
18460.23
13741.147
10081.566
7273.2293
5159.8222
3604.2459
2483.2202
1690.2525
1136.3448
753.23445
490.49023
313.53335
209.7732
161.19973
138.17828
125.60555
116.12677
111.3639
106.04327
104.27063
101.15193
98.000638
39735.804
48647.704
59192.038
67101.995
65122.475
54780.924
42394.355
32336.903
24554.878
18515.083
13806.697
10145.974
7329.8787
5205.4971
3638.6668
2507.7646
1706.9446
1147.3139
760.30195
494.55235
316.35319
211.06785
161.71114
138.41286
125.7854
116.23856
111.41508
106.09249
104.29435
101.17842
97.997684
39160.912
47459.337
57263.995
64861.057
63490.855
54093.474
42152.424
32271.096
24567.727
18563.829
13868.308
10207.966
7385.2137
5250.5669
3672.8859
2532.3025
1723.7047
1158.3593
767.42423
498.64417
319.19528
212.38515
162.22903
138.65055
125.96775
116.35036
111.46727
106.14063
104.31685
101.20541
97.994776
38634.762
46365.592
55482.007
62750.349
62018.522
53378.175
41890.654
32191.949
24569.91
18606.298
13925.844
10267.436
7439.1561
5294.9798
3706.8719
2556.8169
1740.5243
1169.4776
774.61103
502.80046
322.05763
213.72498
162.75359
138.89154
126.15208
116.46185