/*--------------------------------*- C++ -*----------------------------------*\
| =========                 |                                                 |
| \\      /  F ield         | OpenFOAM: The Open Source CFD Toolbox           |
|  \\    /   O peration     | Version:  2406                                  |
|   \\  /    A nd           | Website:  www.openfoam.com                      |
|    \\/     M anipulation  |                                                 |
\*---------------------------------------------------------------------------*/
FoamFile
{
    version     2.0;
    format      ascii;
    arch        "LSB;label=32;scalar=64";
    class       volScalarField;
    location    "0.004";
    object      rho;
}
// * * * * * * * * * * * * * * * * * * * * * * * * * * * * * * * * * * * * * //

dimensions      [1 -3 0 0 0 0 0];

internalField   nonuniform List<scalar> 
35803
(
1.2018705
1.2008382
1.2002437
1.1994769
1.1986951
1.1980089
1.1974649
1.1970879
1.196886
1.1968291
1.1969199
1.1972376
1.1977192
1.1983775
1.1991388
1.2000541
1.2009523
1.2019372
1.2021118
1.2021142
1.2022332
1.2023534
1.2024676
1.2025625
1.202711
1.2027986
1.2028896
1.2029369
1.2029634
1.2031439
1.2024382
1.2037915
1.202857
1.2019481
1.2009573
1.2000206
1.1992008
1.1985338
1.1980478
1.1977654
1.197601
1.197588
1.1978089
1.1982106
1.1987915
1.19948
1.200319
1.2011165
1.2020364
1.2021476
1.2021575
1.2022703
1.2023831
1.2024907
1.2025797
1.2027221
1.2028086
1.2028975
1.2029413
1.2029691
1.2031518
1.2024604
1.2046334
1.2038926
1.2029675
1.2019354
1.2009536
1.2000794
1.1993471
1.1988035
1.1984373
1.1982028
1.1980867
1.1982301
1.1985661
1.1990882
1.1997349
1.200543
1.2012927
1.2021454
1.2022019
1.2022131
1.2023161
1.2024194
1.202519
1.202601
1.202741
1.2028211
1.2029073
1.2029471
1.2029765
1.2031619
1.2024868
1.2052967
1.2046617
1.2037943
1.2027766
1.2017825
1.2008785
1.2000973
1.1994796
1.1990284
1.1987259
1.1985606
1.1986357
1.1989097
1.1993767
1.1999879
1.2007725
1.2014888
1.2022617
1.202272
1.2022773
1.202369
1.2024612
1.2025513
1.2026256
1.2027718
1.2028362
1.2029184
1.2029538
1.2029853
1.2031738
1.2025119
1.205968
1.2053886
1.2045772
1.2035917
1.2026051
1.201689
1.2008748
1.2001965
1.1996726
1.1993043
1.199092
1.1990992
1.1993091
1.1997166
1.2002877
1.2010381
1.2017132
1.2023794
1.2023559
1.2023514
1.20243
1.2025094
1.2025886
1.2026545
1.2028102
1.2028545
1.2029314
1.202962
1.2029957
1.203188
1.2025374
1.2065669
1.2060284
1.2052753
1.2043406
1.2033856
1.2024812
1.2016568
1.2009433
1.2003668
1.1999414
1.1996783
1.1996198
1.1997651
1.2001108
1.200639
1.2013441
1.2019669
1.2024967
1.2024542
1.2024368
1.2025002
1.2025651
1.2026314
1.2026884
1.2028474
1.2028757
1.2029465
1.2029718
1.2030079
1.2032031
1.2025638
1.2070178
1.2065071
1.2058221
1.2049666
1.2040756
1.2032132
1.2024073
1.201687
1.201082
1.2006155
1.200307
1.2001897
1.2002735
1.2005581
1.2010437
1.2016924
1.2022477
1.2026192
1.2025681
1.2025361
1.2025808
1.2026293
1.2026807
1.2027278
1.2028797
1.2028992
1.2029641
1.2029835
1.203022
1.2032174
1.2025913
1.2072987
1.2067914
1.2061701
1.2054289
1.2046422
1.203857
1.2031017
1.2024054
1.2017995
1.2013131
1.2009721
1.2008071
1.2008354
1.2010627
1.201508
1.2020847
1.202552
1.2027613
1.2026984
1.2026517
1.2026733
1.2027031
1.2027373
1.2027735
1.2029099
1.2029267
1.2029844
1.2029976
1.2030383
1.2032313
1.2026201
1.2074192
1.2069622
1.2064255
1.2057906
1.205108
1.2044141
1.2037318
1.2030863
1.2025069
1.2020244
1.2016686
1.2014702
1.2014525
1.201629
1.2020368
1.2025198
1.2028744
1.2029345
1.202846
1.2027856
1.2027793
1.2027875
1.2028025
1.202826
1.2029437
1.2029589
1.2030079
1.2030146
1.203057
1.203245
1.2026503
1.207458
1.2070398
1.2065805
1.2060494
1.205478
1.2048894
1.204299
1.2037268
1.2031984
1.2027434
1.2023924
1.2021771
1.2021256
1.2022603
1.2026273
1.2030034
1.2032058
1.2031385
1.2030137
1.2029397
1.202901
1.2028834
1.2028774
1.2028863
1.2029837
1.2029967
1.203035
1.2030349
1.2030782
1.2032559
1.202682
1.2074357
1.2070843
1.2066896
1.2062432
1.2057799
1.2053068
1.2048221
1.204339
1.2038798
1.2034715
1.2031435
1.2029279
1.2028564
1.2029605
1.2032824
1.2035298
1.2035403
1.203363
1.2032077
1.2031156
1.2030404
1.202992
1.202963
1.2029554
1.2030322
1.2030401
1.203066
1.2030591
1.2031021
1.2032607
1.2027152
1.2072896
1.207185
1.2069211
1.2065396
1.2061435
1.2057573
1.2053621
1.2049625
1.2045754
1.2042226
1.2039298
1.2037275
1.2036506
1.2037363
1.203996
1.2040728
1.2038688
1.2036081
1.2034349
1.2033123
1.2031976
1.2031153
1.2030606
1.2030346
1.2030902
1.2030904
1.2031018
1.2030874
1.2031294
1.2032616
1.2027499
1.2073309
1.2072583
1.2071108
1.2069069
1.2066318
1.2063073
1.2059715
1.2056376
1.2053151
1.2050186
1.2047689
1.2045936
1.2045269
1.2045935
1.2047288
1.2045702
1.2041802
1.2038898
1.2036918
1.2035246
1.2033723
1.2032554
1.2031725
1.2031253
1.2031582
1.203148
1.2031432
1.2031204
1.2031602
1.2032633
1.202786
1.2076441
1.207598
1.2074335
1.2072157
1.20701
1.2067967
1.2065718
1.2063373
1.2061011
1.205878
1.2056905
1.205562
1.2055061
1.2054872
1.2053572
1.2049414
1.2045055
1.2042013
1.20396
1.2037526
1.2035642
1.2034125
1.2033018
1.2032288
1.2032384
1.203215
1.2031918
1.2031586
1.2031935
1.2032705
1.202823
1.2080828
1.2081423
1.2080799
1.2078906
1.2076534
1.207466
1.2073245
1.2071804
1.2070201
1.2068529
1.206695
1.206551
1.2064016
1.2061607
1.2057395
1.2052512
1.2048522
1.2045208
1.2042378
1.2039939
1.2037676
1.2035869
1.2034487
1.2033471
1.2033327
1.2032925
1.2032497
1.2032033
1.203229
1.203286
1.2028613
1.2089004
1.2089476
1.2090098
1.2090249
1.2089329
1.208713
1.2084503
1.2081995
1.2079653
1.2077387
1.2074989
1.2072079
1.2068579
1.2064471
1.2059967
1.205575
1.2051814
1.2048291
1.2045147
1.2042353
1.2039813
1.203775
1.2036089
1.2034831
1.2034431
1.2033823
1.2033189
1.2032565
1.2032698
1.2033074
1.2029049
1.2089063
1.2088802
1.2088027
1.208692
1.2086277
1.2086262
1.2086372
1.2086389
1.208519
1.2082449
1.2079205
1.2075489
1.2071264
1.2066959
1.2062832
1.2058682
1.205472
1.2051111
1.2047781
1.2044758
1.2041986
1.2039716
1.2037828
1.203635
1.2035702
1.2034846
1.2034009
1.2033205
1.2033209
1.2033376
1.2029512
1.2089596
1.2089079
1.2088355
1.2087383
1.2086231
1.2084817
1.2083044
1.2080938
1.2079267
1.2078334
1.2077543
1.2076179
1.2073469
1.2069646
1.2065397
1.2061408
1.2057353
1.2053682
1.2050295
1.2047076
1.2044158
1.2041745
1.2039636
1.2038013
1.2037137
1.2036001
1.2034959
1.2033962
1.2033855
1.2033821
1.2030166
1.208609
1.2085706
1.2085216
1.2084635
1.2083962
1.2083176
1.208224
1.2081116
1.2079834
1.207831
1.2076041
1.2073647
1.2072315
1.2070427
1.2067453
1.2064033
1.2059968
1.2056086
1.2052701
1.2049364
1.2046318
1.2043805
1.2041488
1.2039794
1.2038729
1.203727
1.2036026
1.2034832
1.2034601
1.2034392
1.20307
1.2083068
1.2082706
1.2082252
1.2081715
1.2081087
1.208035
1.2079493
1.2078509
1.207738
1.2076096
1.2074767
1.2073231
1.2070871
1.2068286
1.2066834
1.2065157
1.2061946
1.2058261
1.2054973
1.20516
1.2048493
1.2045861
1.20434
1.2041702
1.2040415
1.2038629
1.2037188
1.2035796
1.2035463
1.2034946
1.2031938
1.2079307
1.2079042
1.2078714
1.2078335
1.2077901
1.2077401
1.207682
1.2076136
1.2075322
1.2074341
1.207312
1.2071649
1.2070121
1.2068673
1.206639
1.2063498
1.2061607
1.205936
1.2056626
1.2053538
1.2050504
1.2047811
1.2045392
1.2043707
1.2042125
1.2040043
1.203841
1.203684
1.2036381
1.2035458
1.2032355
1.2076337
1.20761
1.2075803
1.2075458
1.2075055
1.2074583
1.207403
1.2073387
1.2072648
1.2071813
1.2070889
1.2069874
1.2068679
1.2067222
1.2065768
1.2064164
1.2061789
1.2059319
1.2056957
1.2054536
1.2052067
1.2049568
1.2047376
1.2045663
1.2043769
1.2041445
1.2039651
1.2037933
1.2037328
1.2036019
1.2033026
1.2072079
1.2071904
1.2071689
1.2071444
1.2071169
1.2070858
1.2070504
1.2070096
1.2069622
1.2069063
1.2068392
1.206758
1.2066642
1.2065565
1.2064233
1.2062888
1.2061878
1.2060156
1.2057467
1.2055198
1.2053049
1.2050966
1.204917
1.2047374
1.2045153
1.2042775
1.2040875
1.2038974
1.2038201
1.2036807
1.2033354
1.2068502
1.2068373
1.2068216
1.2068037
1.2067828
1.2067582
1.206729
1.2066949
1.2066552
1.2066091
1.2065561
1.2064963
1.2064267
1.2063454
1.2062566
1.2061434
1.206006
1.2059332
1.2058501
1.2056591
1.2054378
1.2052196
1.2050402
1.2048423
1.204608
1.2043807
1.2041949
1.2039975
1.2038931
1.2037351
1.2033895
1.2065292
1.2065195
1.2065077
1.2064944
1.2064793
1.206462
1.2064423
1.2064196
1.2063938
1.2063646
1.2063307
1.2062903
1.2062421
1.2061857
1.2061168
1.2060456
1.2059712
1.2058365
1.2057361
1.2057008
1.205557
1.2053061
1.2050701
1.2048468
1.2046256
1.2044179
1.2042375
1.2040545
1.2039284
1.2037506
1.2035825
1.2063104
1.2063035
1.2062951
1.2062855
1.2062747
1.2062621
1.2062473
1.2062295
1.2062077
1.2061804
1.2061468
1.2061069
1.2060619
1.2060112
1.205954
1.2058833
1.2058
1.2057293
1.2055979
1.2054459
1.205352
1.2051793
1.2049547
1.2047445
1.2045428
1.2043456
1.2041722
1.2040103
1.2039018
1.2037403
1.2036537
1.2059026
1.2058959
1.2058878
1.2058789
1.2058687
1.2058571
1.2058439
1.2058291
1.2058127
1.2057945
1.2057738
1.2057488
1.2057164
1.2056742
1.2056213
1.2055599
1.2054861
1.2053882
1.2052962
1.2051599
1.2049478
1.204806
1.2046908
1.2045228
1.2043384
1.2041581
1.2040108
1.2038578
1.2037816
1.2036681
1.2037986
1.205352
1.2053462
1.2053393
1.2053314
1.2053222
1.2053114
1.2052985
1.2052831
1.2052647
1.2052427
1.2052168
1.2051871
1.2051534
1.2051145
1.2050693
1.2050153
1.2049539
1.2048886
1.2048057
1.2046959
1.2045976
1.2045206
1.2043934
1.2042362
1.2040768
1.2039275
1.2037802
1.2036221
1.2035899
1.2035313
1.2037883
1.204757
1.2047523
1.2047467
1.2047404
1.2047331
1.2047247
1.204715
1.2047038
1.2046908
1.2046759
1.2046588
1.2046391
1.2046165
1.2045911
1.2045628
1.2045324
1.204499
1.2044612
1.2044232
1.2043899
1.20433
1.2042167
1.2041033
1.2039761
1.2038358
1.2037007
1.2035592
1.2034472
1.2034281
1.2033815
1.2034975
1.2045043
1.2045004
1.2044959
1.2044908
1.204485
1.2044783
1.2044706
1.2044618
1.2044518
1.2044402
1.2044266
1.2044102
1.2043903
1.2043668
1.2043396
1.2043074
1.2042692
1.2042236
1.2041658
1.2041125
1.2040693
1.204014
1.2039608
1.2038954
1.2037913
1.203673
1.2035542
1.2034502
1.2033649
1.2033128
1.2034039
1.2044543
1.2044479
1.2044413
1.2044348
1.2044284
1.2044218
1.2044149
1.2044076
1.2043993
1.2043897
1.2043781
1.2043639
1.2043463
1.2043244
1.2042969
1.2042627
1.2042208
1.2041745
1.2041298
1.2040722
1.2039904
1.2038955
1.2038574
1.2038375
1.2037774
1.2037322
1.2036527
1.2035555
1.2034391
1.2033447
1.2032724
1.1843351
1.1845395
1.1849015
1.1854483
1.186169
1.1869127
1.1876385
1.1882896
1.1889217
1.1895949
1.1903491
1.1912037
1.1921634
1.1932218
1.1943887
1.1956193
1.196942
1.1983201
1.1996312
1.2007161
1.2010503
1.2013083
1.201598
1.2018907
1.2021901
1.2023907
1.202559
1.2026504
1.2026495
1.2028737
1.2020915
1.1845656
1.1849684
1.1855836
1.1862656
1.1869179
1.1875148
1.1880657
1.1886051
1.1891909
1.1898519
1.1906102
1.1914698
1.1924325
1.1934885
1.1946458
1.1958526
1.19715
1.1984465
1.1997483
1.2007316
1.2010562
1.2013214
1.2016133
1.2019042
1.202201
1.2023984
1.2025648
1.2026581
1.2026543
1.2028792
1.2021008
1.184854
1.1853595
1.1859152
1.1864729
1.187052
1.1876314
1.1881734
1.1887166
1.1893119
1.1899842
1.1907551
1.191623
1.1925903
1.1936462
1.1947995
1.195995
1.1972911
1.198547
1.1998552
1.2007611
1.2010728
1.2013392
1.201631
1.201919
1.2022127
1.2024067
1.2025709
1.2026661
1.2026594
1.2028844
1.2021099
1.185111
1.1856655
1.1861611
1.1866728
1.18722
1.1877511
1.1882607
1.1887958
1.1893941
1.1900758
1.1908574
1.1917334
1.1927067
1.1937652
1.1949184
1.196109
1.1974119
1.1986481
1.1999569
1.2007921
1.201092
1.2013574
1.2016487
1.2019337
1.2022243
1.2024149
1.202577
1.2026741
1.2026647
1.2028899
1.2021189
1.1853287
1.1858907
1.1863502
1.1868348
1.1873454
1.1878369
1.1883298
1.1888659
1.1894718
1.1901668
1.19096
1.1918456
1.1928259
1.1938881
1.1950416
1.1962278
1.1975359
1.1987676
1.2000517
1.2008191
1.2011115
1.2013758
1.2016665
1.2019483
1.2022359
1.2024231
1.2025833
1.2026822
1.2026703
1.2028955
1.2021283
1.1855464
1.186055
1.1864975
1.1869678
1.1874401
1.1879028
1.1883891
1.1889314
1.1895493
1.1902598
1.1910654
1.1919615
1.1929489
1.1940144
1.1951674
1.1963492
1.1976602
1.1988922
1.2001345
1.2008427
1.2011311
1.2013945
1.2016845
1.201963
1.2022474
1.2024313
1.2025895
1.2026904
1.202676
1.2029013
1.2021379
1.1857617
1.1861982
1.1866224
1.1870652
1.1875022
1.1879486
1.188437
1.1889903
1.1896241
1.1903513
1.1911701
1.192077
1.1930711
1.1941396
1.1952917
1.1964694
1.1977817
1.1990118
1.2002072
1.2008642
1.2011512
1.2014136
1.2017025
1.2019776
1.202259
1.2024396
1.2025959
1.2026987
1.2026821
1.2029074
1.2021477
1.185945
1.1863263
1.1867139
1.1871216
1.1875355
1.1879779
1.1884754
1.1890435
1.1896963
1.1904406
1.1912733
1.1921912
1.193192
1.1942632
1.1954142
1.1965882
1.197899
1.1991272
1.2002806
1.2008841
1.2011719
1.2014329
1.2017207
1.2019922
1.2022704
1.2024478
1.2026023
1.2027069
1.2026884
1.2029138
1.2021576
1.1860664
1.1864052
1.1867586
1.1871409
1.1875457
1.1879939
1.1885058
1.1890927
1.1897664
1.1905283
1.1913756
1.1923045
1.1933118
1.1943857
1.1955352
1.1967054
1.1980108
1.1992408
1.2003627
1.2009021
1.2011931
1.2014526
1.2017389
1.2020067
1.2022819
1.202456
1.2026088
1.2027151
1.202695
1.2029204
1.2021674
1.1861298
1.1864312
1.1867601
1.1871303
1.1875375
1.187999
1.1885298
1.189139
1.1898346
1.1906149
1.1914773
1.1924172
1.1934307
1.1945072
1.1956548
1.1968209
1.1981204
1.1993517
1.2004472
1.2009193
1.2012149
1.2014726
1.2017572
1.2020212
1.2022933
1.2024642
1.2026154
1.2027235
1.2027018
1.2029273
1.2021772
1.1861307
1.1864066
1.1867247
1.1870954
1.1875141
1.1879949
1.1885486
1.189183
1.1899013
1.1907008
1.1915787
1.1925294
1.1935488
1.1946275
1.195773
1.1969349
1.1982309
1.199455
1.2005242
1.2009388
1.2012373
1.2014929
1.2017755
1.2020357
1.2023046
1.2024724
1.202622
1.2027319
1.202709
1.2029345
1.2021866
1.1860718
1.1863381
1.1866581
1.1870396
1.1874777
1.187983
1.1885636
1.1892252
1.1899671
1.1907865
1.1916798
1.192641
1.193666
1.1947468
1.1958896
1.1970479
1.198342
1.1995498
1.2005922
1.2009624
1.20126
1.2015135
1.2017938
1.2020501
1.2023159
1.2024807
1.2026288
1.2027404
1.2027165
1.2029419
1.2021957
1.1859609
1.1862311
1.1865642
1.1869658
1.1874302
1.1879649
1.1885761
1.1892661
1.1900326
1.1908723
1.1917808
1.1927522
1.1937825
1.1948649
1.1960047
1.1971609
1.1984497
1.1996388
1.2006535
1.2009889
1.2012829
1.2015344
1.2018122
1.2020645
1.2023271
1.2024889
1.2026356
1.202749
1.2027244
1.2029495
1.2022041
1.1858044
1.1860904
1.1864467
1.1868769
1.1873737
1.1879422
1.1885868
1.1893064
1.1900982
1.1909585
1.1918819
1.1928631
1.1938982
1.1949819
1.1961182
1.1972715
1.1985493
1.1997279
1.2007098
1.2010165
1.201306
1.2015556
1.2018305
1.2020788
1.2023383
1.2024971
1.2026425
1.2027578
1.2027326
1.2029572
1.2022119
1.1856079
1.1859202
1.1863091
1.1867753
1.1873102
1.1879164
1.1885964
1.1893469
1.1901647
1.1910453
1.1919833
1.1929738
1.1940131
1.1950978
1.1962302
1.19738
1.1986468
1.1998185
1.2007623
1.2010442
1.2013292
1.201577
1.2018489
1.2020931
1.2023495
1.2025053
1.2026495
1.2027667
1.2027413
1.2029651
1.2022188
1.185376
1.1857246
1.1861547
1.1866639
1.1872417
1.1878893
1.1886062
1.1893886
1.1902326
1.191133
1.1920851
1.1930842
1.1941274
1.1952126
1.1963409
1.1974912
1.1987415
1.1999061
1.2008111
1.2010723
1.2013527
1.2015987
1.2018672
1.2021073
1.2023606
1.2025136
1.2026566
1.2027759
1.2027504
1.2029729
1.2022248
1.185113
1.1855076
1.1859873
1.1865457
1.1871709
1.1878624
1.1886175
1.1894323
1.1903023
1.1912221
1.1921875
1.1931946
1.194241
1.1953262
1.1964509
1.1976039
1.1988267
1.1999909
1.2008567
1.2011007
1.2013764
1.2016205
1.2018855
1.2021215
1.2023717
1.2025218
1.2026637
1.2027852
1.2027599
1.2029806
1.2022299
1.184824
1.1852744
1.1858112
1.1864242
1.1871003
1.1878376
1.1886318
1.189479
1.1903743
1.1913128
1.1922907
1.193305
1.194354
1.1954386
1.1965611
1.1977134
1.1989066
1.2000735
1.2009002
1.2011291
1.2014004
1.2016426
1.2019038
1.2021356
1.2023827
1.20253
1.2026708
1.2027947
1.2027698
1.2029882
1.2022339
1.184516
1.1850312
1.1856316
1.1863033
1.1870329
1.1878167
1.1886503
1.1895296
1.1904494
1.1914053
1.1923948
1.1934155
1.1944663
1.1955499
1.1966686
1.1978196
1.1989909
1.200154
1.2009421
1.2011573
1.2014247
1.2016648
1.2019221
1.2021497
1.2023937
1.2025383
1.202678
1.2028045
1.20278
1.2029954
1.2022371
1.1841985
1.184786
1.1854547
1.1861874
1.1869716
1.1878023
1.1886747
1.1895848
1.1905278
1.1915001
1.1925
1.1935261
1.194578
1.1956606
1.1967767
1.1979241
1.199078
1.200233
1.2009829
1.2011854
1.2014493
1.2016872
1.2019404
1.2021638
1.2024047
1.2025465
1.2026853
1.2028145
1.2027905
1.203002
1.2022394
1.183883
1.184548
1.1852872
1.1860813
1.1869196
1.1877965
1.1887063
1.1896457
1.1906104
1.1915975
1.1926065
1.1936369
1.194689
1.1957723
1.1968862
1.1980214
1.1991664
1.2003117
1.2010228
1.2012134
1.2014741
1.2017096
1.2019586
1.2021778
1.2024157
1.2025548
1.2026926
1.2028242
1.2028012
1.2030084
1.2022411
1.1835826
1.1843274
1.1851368
1.1859896
1.1868804
1.1878018
1.1887466
1.1897132
1.1906975
1.1916976
1.1927144
1.1937478
1.1948
1.1958871
1.1969877
1.1981115
1.1992602
1.2003874
1.2010617
1.2012416
1.2014993
1.2017322
1.2019769
1.2021918
1.2024267
1.2025631
1.2026998
1.2028331
1.2028118
1.2030146
1.2022423
1.1833098
1.1841346
1.1850114
1.1859166
1.1868572
1.1878208
1.1887972
1.1897881
1.1907897
1.1918009
1.1928237
1.1938592
1.1949134
1.1959997
1.1970824
1.1982024
1.1993551
1.2004564
1.2010997
1.20127
1.2015246
1.2017549
1.2019951
1.2022058
1.2024376
1.2025714
1.2027071
1.2028413
1.2028219
1.2030205
1.2022431
1.1830773
1.1839796
1.1849162
1.1858669
1.1868541
1.187856
1.1888594
1.1898713
1.1908876
1.1919074
1.1929346
1.1939729
1.1950334
1.1961029
1.1971772
1.1982908
1.199442
1.2005203
1.2011371
1.2012988
1.2015502
1.2017776
1.2020132
1.2022197
1.2024486
1.2025797
1.2027143
1.2028488
1.2028315
1.2030263
1.2022438
1.1829019
1.1838642
1.1848493
1.1858504
1.1868759
1.1879082
1.1889346
1.1899642
1.1909915
1.1920173
1.1930483
1.1940936
1.1951493
1.1961969
1.1972761
1.1983769
1.1995184
1.2005836
1.2011743
1.2013281
1.201576
1.2018003
1.2020314
1.2022336
1.2024596
1.2025881
1.2027215
1.2028555
1.2028405
1.203032
1.2022445
1.1827864
1.183802
1.1848287
1.1858684
1.1869225
1.1879767
1.1890245
1.190068
1.1911021
1.1921315
1.1931694
1.1942226
1.1952509
1.1962933
1.1973734
1.1984612
1.1995898
1.2006495
1.2012114
1.2013578
1.2016019
1.201823
1.2020495
1.2022475
1.2024706
1.2025965
1.2027287
1.2028616
1.202849
1.2030375
1.2022453
1.1827407
1.1838004
1.1848568
1.1859223
1.1869968
1.1880682
1.1891291
1.1901808
1.1912216
1.1922545
1.1933044
1.1943329
1.1953419
1.1963966
1.1974686
1.1985439
1.1996606
1.2007206
1.2012485
1.201388
1.201628
1.2018457
1.2020675
1.2022613
1.2024816
1.202605
1.2027358
1.202867
1.2028569
1.2030429
1.2022465
1.182772
1.1838642
1.1849368
1.186016
1.1871021
1.1881824
1.1892494
1.1903059
1.1913539
1.1923958
1.1934328
1.194429
1.1954503
1.1964991
1.1975623
1.198625
1.1997314
1.2007934
1.2012858
1.2014186
1.2016543
1.2018684
1.2020855
1.2022751
1.2024927
1.2026135
1.2027428
1.2028716
1.2028644
1.2030481
1.2022482
1.1828862
1.1839976
1.1850718
1.186152
1.1872401
1.1883216
1.1893893
1.1904508
1.191508
1.1925475
1.1935377
1.194532
1.1955595
1.1966
1.1976546
1.1987043
1.1998013
1.2008633
1.2013233
1.2014498
1.2016807
1.201891
1.2021035
1.2022888
1.2025037
1.202622
1.2027498
1.2028755
1.2028713
1.2030532
1.2022505
1.1830892
1.1842047
1.1852649
1.1863331
1.1874147
1.188494
1.1895627
1.1906297
1.1916737
1.1926638
1.1936344
1.1946496
1.1956672
1.1966999
1.1977456
1.1987818
1.1998701
1.2009301
1.2013613
1.2014814
1.2017072
1.2019136
1.2021214
1.2023026
1.2025147
1.2026306
1.2027567
1.2028788
1.2028777
1.203058
1.2022538
1.1833882
1.1844936
1.1855245
1.1865698
1.1876383
1.1887153
1.1897881
1.1908202
1.1917863
1.1927664
1.1937621
1.1947686
1.1957745
1.1967991
1.1978355
1.1988575
1.1999375
1.2009944
1.2013997
1.2015135
1.2017337
1.2019361
1.2021392
1.2023162
1.2025256
1.2026392
1.2027635
1.2028815
1.2028837
1.2030626
1.202258
1.1837905
1.1848785
1.1858695
1.1868841
1.187926
1.188974
1.190003
1.1909508
1.1919017
1.1929102
1.1938951
1.1948874
1.1958818
1.1968977
1.1979241
1.1989313
1.2000036
1.2010569
1.2014383
1.2015459
1.2017602
1.2019586
1.202157
1.2023298
1.2025365
1.2026478
1.2027703
1.2028839
1.2028892
1.203067
1.2022632
1.1842615
1.1853132
1.1862563
1.1872314
1.1882266
1.1892141
1.1901479
1.1910817
1.1920705
1.1930644
1.1940293
1.1950073
1.1959891
1.1969956
1.1980114
1.1990033
1.2000684
1.2011178
1.2014768
1.2015784
1.2017866
1.2019809
1.2021746
1.2023433
1.2025474
1.2026565
1.202777
1.2028862
1.2028944
1.2030711
1.2022693
1.1847138
1.1857333
1.1866205
1.1875378
1.188483
1.189392
1.19031
1.1912816
1.1922524
1.1932233
1.1941667
1.1951286
1.1960965
1.1970928
1.198097
1.1990737
1.2001317
1.2011768
1.2015153
1.2016109
1.201813
1.2020032
1.2021922
1.2023567
1.2025581
1.2026651
1.2027837
1.2028885
1.2028992
1.2030751
1.2022762
1.1851614
1.1861413
1.1869668
1.1878252
1.1887114
1.1896218
1.1905707
1.1915039
1.1924418
1.1933889
1.1943084
1.1952516
1.1962039
1.1971893
1.1981809
1.1991429
1.2001934
1.201234
1.2015537
1.2016433
1.2018393
1.2020253
1.2022096
1.20237
1.2025688
1.2026737
1.2027904
1.2028908
1.2029038
1.2030788
1.2022837
1.1858475
1.1867605
1.1875028
1.1882831
1.1891121
1.1899825
1.1908672
1.1917413
1.1926419
1.1935625
1.1944545
1.1953761
1.1963113
1.1972851
1.1982628
1.199211
1.2002533
1.2012893
1.2015919
1.2016755
1.2018655
1.2020474
1.202227
1.2023833
1.2025794
1.2026822
1.202797
1.2028931
1.2029081
1.2030823
1.2022919
1.1866764
1.1875132
1.1881628
1.188853
1.1895985
1.1903828
1.191187
1.191996
1.1928542
1.193744
1.1946054
1.1955024
1.1964189
1.1973799
1.1983429
1.1992784
1.2003113
1.2013427
1.2016301
1.2017076
1.2018917
1.2020694
1.2022442
1.2023964
1.2025899
1.2026908
1.2028035
1.2028955
1.2029121
1.2030856
1.2023006
1.1875301
1.1883164
1.1888779
1.1894732
1.1901221
1.1908117
1.191532
1.1922687
1.1930792
1.1939334
1.1947612
1.1956306
1.1965266
1.1974737
1.1984213
1.1993451
1.2003674
1.2013941
1.201668
1.2017396
1.2019179
1.2020914
1.2022614
1.2024094
1.2026002
1.2026993
1.2028101
1.202898
1.202916
1.2030889
1.2023097
1.1884876
1.1892068
1.1896632
1.1901474
1.1906866
1.1912738
1.1919021
1.192559
1.193317
1.1941306
1.1949222
1.1957609
1.1966344
1.1975664
1.198498
1.1994112
1.2004217
1.2014436
1.2017058
1.2017713
1.2019441
1.2021132
1.2022784
1.2024224
1.2026104
1.2027077
1.2028167
1.2029006
1.2029198
1.2030921
1.2023191
1.1895897
1.1902062
1.190528
1.1908787
1.1912932
1.1917681
1.1922958
1.192866
1.1935682
1.1943354
1.1950888
1.1958934
1.1967425
1.1976579
1.1985727
1.1994771
1.2004741
1.2014911
1.2017434
1.2018027
1.2019702
1.202135
1.2022954
1.2024352
1.2026205
1.2027161
1.2028232
1.2029033
1.2029234
1.2030955
1.2023284
1.1908282
1.1913041
1.1914604
1.1916574
1.1919354
1.1922909
1.1927109
1.1931893
1.1938334
1.1945477
1.1952612
1.1960284
1.1968508
1.197748
1.1986454
1.1995429
1.2005248
1.2015366
1.2017807
1.2018339
1.2019962
1.2021567
1.2023123
1.2024478
1.2026304
1.2027245
1.2028298
1.2029061
1.2029271
1.2030989
1.2023372
1.1921401
1.1924572
1.1924317
1.1924658
1.1926036
1.1928376
1.193145
1.1935295
1.1941133
1.1947673
1.1954396
1.1961662
1.1969596
1.1978366
1.1987159
1.1996087
1.2005739
1.2015799
1.2018176
1.2018648
1.202022
1.2021784
1.2023291
1.2024604
1.2026401
1.2027328
1.2028363
1.202909
1.2029307
1.2031022
1.2023436
1.1934321
1.1936041
1.1934056
1.1932847
1.1932889
1.1934033
1.1935965
1.1938908
1.1944066
1.1949936
1.1956238
1.1963069
1.1970688
1.1979236
1.1987847
1.1996739
1.2006215
1.2016209
1.2018541
1.2018952
1.2020478
1.2021999
1.2023459
1.2024729
1.2026496
1.2027411
1.2028429
1.2029121
1.2029343
1.2031057
1.2023504
1.1946252
1.1946928
1.1943551
1.1941023
1.1939868
1.1939843
1.1940692
1.1942812
1.1947059
1.1952256
1.1958137
1.1964507
1.1971783
1.1980087
1.198852
1.1997378
1.2006676
1.2016597
1.2018903
1.2019254
1.2020734
1.2022214
1.2023627
1.2024852
1.2026588
1.2027493
1.2028494
1.2029152
1.202938
1.2031098
1.2023602
1.1957033
1.1957094
1.1952781
1.1949211
1.1946989
1.1945836
1.1945761
1.1946961
1.1950051
1.1954644
1.1960094
1.196598
1.1972888
1.1980925
1.1989182
1.1997995
1.2007124
1.2016959
1.2019261
1.2019553
1.2020989
1.2022427
1.2023795
1.2024975
1.2026678
1.2027574
1.2028559
1.2029184
1.2029418
1.2031145
1.2023677
1.1967427
1.1966961
1.1962069
1.1957647
1.1954345
1.1952282
1.1951302
1.19513
1.1953169
1.1957121
1.1962145
1.196753
1.1974037
1.198178
1.1989853
1.1998598
1.200756
1.201728
1.201961
1.2019846
1.2021241
1.2022638
1.2023961
1.2025096
1.2026765
1.2027654
1.2028624
1.2029217
1.2029456
1.203119
1.202376
1.1979195
1.1977699
1.1972315
1.196698
1.1962698
1.195966
1.1957442
1.1956161
1.1956879
1.1959937
1.1964448
1.1969293
1.197535
1.1982749
1.1990599
1.1999233
1.200799
1.2017531
1.201993
1.2020121
1.2021483
1.2022842
1.2024123
1.2025214
1.2026848
1.2027732
1.2028688
1.2029252
1.2029496
1.2031233
1.2023916
1.1994395
1.1991394
1.1985488
1.197893
1.1973225
1.196867
1.1965051
1.1962428
1.1962125
1.1963754
1.1967315
1.197151
1.1977025
1.1983997
1.1991543
1.1999996
1.2008443
1.2017721
1.2020191
1.2020373
1.2021716
1.2023041
1.2024284
1.2025332
1.2026929
1.2027811
1.2028754
1.2029289
1.2029539
1.2031285
1.2024088
1.2011405
1.2007651
1.2002296
1.1994381
1.1986555
1.1979839
1.1974416
1.1970531
1.1968896
1.1969063
1.197082
1.1974189
1.1979054
1.1985518
1.1992699
1.2000933
1.2008988
1.2018089
1.2020441
1.2020656
1.2021972
1.2023255
1.2024458
1.2025463
1.2027014
1.2027894
1.2028824
1.2029329
1.2029587
1.2031356
1.2024209
1.1847425
1.1850844
1.1854948
1.185971
1.1865737
1.1872417
1.187914
1.1885429
1.1891676
1.1898349
1.1905765
1.1914115
1.1923486
1.1933819
1.1945178
1.1957167
1.1969826
1.1983339
1.1995129
1.2006313
1.2010023
1.2012807
1.2015776
1.2018745
1.2021773
1.2023815
1.202552
1.2026413
1.2026432
1.2028667
1.2020877
1.1846857
1.1850073
1.1854598
1.1860121
1.1866174
1.1872623
1.1879104
1.1885309
1.1891516
1.1898128
1.1905457
1.1913716
1.1923008
1.1933284
1.1944597
1.1956606
1.1969252
1.1983012
1.1994585
1.2006201
1.2009965
1.2012691
1.2015655
1.2018644
1.2021689
1.2023754
1.2025474
1.2026326
1.2026373
1.2028591
1.2020797
1.184686
1.184977
1.1854041
1.1859486
1.1865516
1.1872122
1.1878784
1.1885144
1.1891439
1.1898062
1.1905344
1.1913522
1.1922722
1.1932919
1.1944162
1.1956161
1.1968784
1.1982644
1.1994247
1.2006061
1.2009917
1.201261
1.2015563
1.2018565
1.2021621
1.2023702
1.2025434
1.2026244
1.2026317
1.2028513
1.20207
1.1847471
1.1850322
1.1854377
1.1859423
1.1865275
1.1871982
1.1878802
1.1885296
1.1891669
1.1898299
1.1905528
1.1913609
1.1922696
1.1932786
1.1943925
1.1955873
1.1968431
1.1982295
1.1993912
1.2005838
1.2009819
1.2012509
1.2015461
1.2018479
1.2021548
1.2023647
1.2025391
1.2026167
1.2026269
1.2028442
1.2020603
1.1848126
1.1850969
1.1854886
1.1859678
1.1865367
1.1872072
1.1878955
1.1885538
1.1891971
1.189861
1.1905792
1.1913783
1.192276
1.1932742
1.194377
1.1955654
1.196813
1.1981964
1.1993558
1.2005574
1.2009702
1.2012396
1.2015351
1.2018387
1.2021469
1.2023588
1.2025345
1.2026095
1.2026227
1.2028376
1.2020507
1.184869
1.1851495
1.1855288
1.1859941
1.1865512
1.1872176
1.1879089
1.1885746
1.189224
1.1898893
1.1906039
1.1913955
1.1922833
1.1932714
1.1943637
1.1955455
1.1967847
1.1981641
1.1993199
1.2005293
1.2009586
1.2012281
1.2015239
1.2018293
1.202139
1.2023528
1.2025298
1.2026029
1.2026191
1.2028313
1.2020411
1.1849204
1.1851954
1.1855626
1.1860154
1.186563
1.1872243
1.1879181
1.1885913
1.1892469
1.1899145
1.1906265
1.1914114
1.1922903
1.1932689
1.1943511
1.1955263
1.1967575
1.1981324
1.1992844
1.2005003
1.2009473
1.2012169
1.2015128
1.20182
1.2021311
1.2023468
1.2025251
1.2025966
1.2026159
1.2028252
1.2020315
1.1849694
1.1852391
1.1855951
1.1860357
1.1865743
1.1872296
1.1879252
1.1886056
1.1892675
1.1899377
1.1906477
1.191427
1.1922975
1.1932671
1.1943395
1.195508
1.1967313
1.1981012
1.1992499
1.2004706
1.2009359
1.2012059
1.2015019
1.2018108
1.2021232
1.2023408
1.2025204
1.2025908
1.202613
1.2028194
1.2020219
1.1850168
1.185282
1.1856281
1.1860576
1.1865874
1.1872356
1.1879315
1.1886185
1.1892864
1.1899596
1.1906683
1.1914425
1.1923053
1.1932661
1.1943291
1.1954906
1.1967063
1.1980705
1.1992171
1.20044
1.2009245
1.201195
1.2014911
1.2018017
1.2021154
1.2023349
1.2025157
1.2025854
1.2026106
1.2028136
1.2020122
1.1850635
1.1853244
1.1856612
1.1860808
1.1866023
1.1872426
1.1879376
1.1886304
1.1893039
1.1899802
1.1906882
1.191458
1.1923136
1.1932662
1.1943199
1.1954744
1.1966825
1.1980404
1.1991869
1.2004089
1.2009131
1.2011844
1.2014804
1.2017926
1.2021076
1.202329
1.2025109
1.2025805
1.2026084
1.202808
1.2020023
1.1851102
1.1853664
1.1856947
1.1861051
1.1866188
1.1872508
1.1879435
1.1886413
1.1893204
1.1899998
1.1907075
1.1914735
1.1923225
1.1932672
1.1943119
1.1954593
1.1966599
1.1980108
1.1991573
1.2003775
1.2009017
1.2011739
1.2014698
1.2017835
1.2020999
1.202323
1.202506
1.2025761
1.2026066
1.2028025
1.2019923
1.1851575
1.1854089
1.1857292
1.1861308
1.1866365
1.18726
1.1879498
1.1886516
1.1893358
1.1900185
1.1907263
1.191489
1.192332
1.1932691
1.1943051
1.1954452
1.1966386
1.1979823
1.1991244
1.200345
1.2008902
1.2011636
1.2014594
1.2017745
1.2020922
1.2023171
1.2025011
1.2025724
1.2026051
1.2027972
1.2019821
1.1852059
1.1854525
1.1857653
1.1861587
1.1866555
1.1872695
1.1879564
1.1886613
1.1893504
1.1900365
1.1907446
1.1915046
1.192342
1.193272
1.1942995
1.1954323
1.1966185
1.1979568
1.1990925
1.2003107
1.2008782
1.2011535
1.2014491
1.2017656
1.2020846
1.2023112
1.2024962
1.2025694
1.2026039
1.2027919
1.2019716
1.1852559
1.1854976
1.1858036
1.1861893
1.186676
1.1872794
1.1879633
1.1886707
1.1893643
1.1900538
1.1907627
1.1915203
1.1923526
1.1932758
1.1942952
1.1954205
1.1965996
1.1979306
1.1990658
1.200279
1.2008655
1.2011437
1.201439
1.2017567
1.2020771
1.2023053
1.2024913
1.2025668
1.2026029
1.2027869
1.2019608
1.1853076
1.1855446
1.1858442
1.1862223
1.1866983
1.1872906
1.1879709
1.18868
1.1893777
1.1900705
1.1907805
1.1915362
1.1923638
1.1932805
1.194292
1.1954099
1.1965821
1.1979045
1.1990424
1.2002523
1.2008525
1.2011342
1.201429
1.2017479
1.2020696
1.2022995
1.2024863
1.2025646