/*--------------------------------*- C++ -*----------------------------------*\
| =========                 |                                                 |
| \\      /  F ield         | OpenFOAM: The Open Source CFD Toolbox           |
|  \\    /   O peration     | Version:  2406                                  |
|   \\  /    A nd           | Website:  www.openfoam.com                      |
|    \\/     M anipulation  |                                                 |
\*---------------------------------------------------------------------------*/
FoamFile
{
    version     2.0;
    format      ascii;
    arch        "LSB;label=32;scalar=64";
    class       volScalarField;
    location    "0.03";
    object      Ma;
}
// * * * * * * * * * * * * * * * * * * * * * * * * * * * * * * * * * * * * * //

dimensions      [0 0 0 0 0 0 0];

internalField   nonuniform List<scalar> 
8260
(
0.15905039
0.16033527
0.16164927
0.16303608
0.16441162
0.16573947
0.16703691
0.16830005
0.16961807
0.17109578
0.17258571
0.17412338
0.17565747
0.17709512
0.17793819
0.17770308
0.17530062
0.17104621
0.16826206
0.16668628
0.16541946
0.16428897
0.16323535
0.16216598
0.16112254
0.16028173
0.15934023
0.15864959
0.15805307
0.15725774
0.15117788
0.15488237
0.15656206
0.15833854
0.16012307
0.1618793
0.16358769
0.16524694
0.16686298
0.16848705
0.17017073
0.1718507
0.17353213
0.17516159
0.17664183
0.17746377
0.17712734
0.17455942
0.17037582
0.16784368
0.16639533
0.16519247
0.16410895
0.16309009
0.16204849
0.16102776
0.16020507
0.15927471
0.15859576
0.15800476
0.15721911
0.15115654
0.15009673
0.15215489
0.15441569
0.15666382
0.15885999
0.16099286
0.16305714
0.16505405
0.16701412
0.1689653
0.17087301
0.17273075
0.17448401
0.17602745
0.17685566
0.17643454
0.17371673
0.1696853
0.16742208
0.16608648
0.16494787
0.16391418
0.16293295
0.16192089
0.16092241
0.16011697
0.15919762
0.15853069
0.15794535
0.15717331
0.15112976
0.14551456
0.14788641
0.15050807
0.15314167
0.1557303
0.1582555
0.16070463
0.1630691
0.16536112
0.16759525
0.16974277
0.17178921
0.17367673
0.17528468
0.17611596
0.17558651
0.17271702
0.16890712
0.166935
0.1657238
0.1646598
0.16368409
0.16274683
0.1617696
0.1607991
0.16001446
0.15910894
0.15845674
0.15787645
0.15712216
0.15109859
0.14126761
0.14386452
0.14673367
0.14965811
0.15256961
0.15543581
0.15823274
0.16094
0.16355137
0.16606602
0.16845627
0.17069736
0.17272436
0.17439491
0.17521648
0.17454521
0.17153679
0.16805634
0.16639493
0.16531346
0.16433371
0.16342356
0.16253634
0.16159871
0.1606599
0.15989742
0.15900805
0.15837162
0.15779567
0.15706503
0.15106758
0.13746806
0.14020334
0.14321637
0.14632929
0.14947383
0.15260633
0.15569139
0.1586964
0.16159761
0.16437685
0.16700184
0.16943504
0.17160002
0.17332607
0.17411435
0.1732639
0.17014408
0.16713907
0.16578817
0.16484527
0.16396075
0.16312479
0.16229439
0.16140237
0.16050112
0.15976305
0.15889407
0.15827456
0.15770255
0.15700118
0.15103242
0.1342453
0.13703956
0.14009853
0.14329169
0.14656302
0.14986536
0.15315531
0.15638962
0.15952921
0.16253856
0.16537466
0.16798434
0.17027456
0.17203766
0.17275291
0.17168463
0.16853982
0.166165
0.16510988
0.16431336
0.16353659
0.16278487
0.16201866
0.16117907
0.16032147
0.15960926
0.15876574
0.15816336
0.15759604
0.15692982
0.15099397
0.13178758
0.13451797
0.13751141
0.14067243
0.1439567
0.14731897
0.15071245
0.15408676
0.15739086
0.16057354
0.16357705
0.16632956
0.16871546
0.17047734
0.17105764
0.169737
0.1667761
0.16512869
0.16435163
0.16370956
0.16305376
0.16239762
0.16170349
0.16092404
0.16011751
0.159433
0.15862086
0.15803623
0.15747652
0.15684988
0.15095169
0.13010748
0.13268815
0.13552686
0.13855679
0.14174746
0.14505892
0.14844585
0.15185598
0.15523133
0.15850818
0.16161268
0.16445163
0.16687987
0.16857181
0.16892651
0.16732023
0.16494982
0.1640151
0.16350659
0.16302706
0.16250595
0.16195745
0.16134446
0.1606335
0.15988578
0.15923135
0.15845651
0.15789069
0.15734383
0.15676132
0.15090021
0.12918455
0.1315565
0.13417687
0.13699737
0.13999727
0.14314992
0.14641732
0.14975068
0.15308996
0.15636235
0.15947776
0.1623187
0.16470153
0.16621309
0.16622006
0.16451998
0.16316028
0.16281735
0.16256659
0.16225986
0.16188645
0.16145635
0.16093568
0.16030211
0.15962104
0.15900073
0.15826928
0.15772434
0.15719564
0.15666182
0.15085048
0.12891363
0.13103697
0.13339227
0.13594455
0.13868052
0.1415849
0.14463219
0.14778152
0.15097432
0.15413066
0.15714338
0.15986517
0.16205884
0.16322266
0.16280822
0.16165742
0.16143506
0.16152735
0.16152688
0.16140256
0.16118858
0.16088586
0.16047196
0.15992519
0.15931795
0.15873768
0.1580556
0.1575348
0.1570268
0.15655508
0.15078738
0.12926469
0.13105996
0.13307337
0.1352818
0.13768443
0.14026973
0.14301729
0.14589052
0.14883092
0.1517495
0.15451686
0.15694317
0.15870366
0.15934218
0.15899933
0.15916986
0.15970579
0.16014572
0.16039411
0.16044868
0.16040541
0.16023971
0.15994863
0.15949834
0.15897116
0.15843897
0.15781149
0.15731988
0.15683253
0.15641919
0.15069328
0.12978641
0.13125284
0.13292414
0.13477795
0.13681146
0.13902382
0.14139938
0.14390179
0.14646776
0.14899151
0.15131974
0.15325551
0.15449067
0.15497721
0.15583581
0.15704681
0.15800372
0.15868133
0.15915913
0.15941171
0.15953183
0.15951663
0.15936279
0.15901967
0.15857608
0.15810259
0.15753427
0.15707735
0.15661203
0.15626558
0.15060883
0.13006251
0.13124551
0.13260194
0.13411098
0.13577656
0.13758608
0.13952841
0.14157228
0.14365135
0.14565148
0.14745121
0.14895283
0.15021558
0.1517353
0.15357046
0.15507661
0.15625877
0.15717807
0.15786282
0.15828733
0.15856923
0.15872741
0.15871192
0.15848965
0.15812822
0.15772619
0.15722112
0.15680406
0.15636276
0.15608354
0.15051263
0.12976988
0.13054376
0.13151984
0.13272753
0.13410871
0.13556038
0.13709988
0.13875544
0.14050266
0.14225184
0.14398213
0.1457251
0.14765422
0.14978086
0.15160621
0.15321982
0.15460625
0.15569372
0.15653251
0.15710948
0.1575367
0.1578579
0.15801021
0.15790382
0.15762653
0.1573054
0.15687047
0.15649632
0.15607836
0.15588712
0.15036123
0.13079611
0.1313391
0.13193926
0.13262752
0.13349011
0.13453755
0.13576274
0.13716395
0.13869834
0.14039937
0.14221135
0.14403692
0.14602381
0.14792367
0.14969273
0.15136525
0.15294253
0.15424207
0.15520391
0.15590055
0.15644094
0.15693099
0.15724046
0.1572632
0.157075
0.15683405
0.1564797
0.15615057
0.15576128
0.15566418
0.15023463
0.13251695
0.13305867
0.13365204
0.13428444
0.13497047
0.13573245
0.13652373
0.13734232
0.13839788
0.13979687
0.14145392
0.14313629
0.14482214
0.14644565
0.14803487
0.14961439
0.1512443
0.15274111
0.15385835
0.1546655
0.15531575
0.15595013
0.15640395
0.1565682
0.15647684
0.15631055
0.15603952
0.15576363
0.15542195
0.15540928
0.15013385
0.13378248
0.13413796
0.13456019
0.13506347
0.13566172
0.13638728
0.13730551
0.13837974
0.13931603
0.14022513
0.14125568
0.14259659
0.14412342
0.14561982
0.14710897
0.14852185
0.14983307
0.15120188
0.15247072
0.15341801
0.15418337
0.15495306
0.15551513
0.15580827
0.15584124
0.15573974
0.155545
0.15533192
0.15503071
0.15512184
0.14996604
0.13600813
0.13631754
0.13666072
0.13703859
0.13746588
0.13794524
0.13844034
0.13896926
0.13961775
0.1404113
0.14134093
0.14235751
0.14349505
0.14487171
0.14648139
0.14790842
0.14906862
0.15010229
0.15119439
0.15220372
0.15311577
0.1539872
0.15461742
0.15500257
0.15515804
0.1551271
0.15500478
0.1548536
0.15460845
0.15481969
0.14980971
0.13738395
0.13758791
0.13782837
0.13811059
0.1384426
0.13883458
0.13931162
0.13988091
0.14051595
0.14118674
0.14186005
0.14253436
0.14330741
0.14438251
0.14558353
0.14704445
0.14840927
0.14946814
0.15036085
0.15118913
0.1521466
0.15311533
0.15377165
0.15417042
0.15441817
0.15448579
0.15443022
0.15433158
0.15414615
0.15446695
0.14965693
0.13946522
0.13964395
0.13984563
0.14007069
0.14032022
0.14059632
0.14088979
0.1412022
0.14155927
0.14200491
0.14257291
0.14322522
0.14386974
0.14444739
0.14527372
0.14625999
0.14736321
0.14856081
0.14972229
0.15047942
0.15132605
0.15228343
0.15297715
0.15335583
0.15365381
0.15381555
0.1538277
0.15378191
0.15364981
0.1540776
0.14948377
0.14078455
0.14089421
0.14102523
0.14118047
0.14136321
0.14157906
0.14183745
0.1421476
0.14251433
0.142921
0.14335732
0.14387146
0.14453442
0.14519495
0.1456155
0.14615621
0.14697963
0.14779674
0.14869014
0.14974693
0.15064543
0.1514517
0.15214456
0.15257598
0.15290008
0.1531275
0.15320609
0.15321857
0.15313218
0.15373233
0.14938726
0.1426934
0.14278718
0.14288914
0.14300109
0.14312794
0.1432743
0.14344385
0.14363696
0.14384748
0.14408425
0.14436385
0.1446825
0.14502343
0.14550616
0.14617155
0.14668997
0.14713516
0.14762449
0.14820166
0.1489782
0.14991871
0.15065265
0.15131499
0.15183285
0.15215107
0.15243608
0.15258165
0.15264755
0.15259321
0.15312222
0.14927194
0.14380684
0.14386093
0.14392605
0.14400381
0.1440963
0.14420572
0.14433479
0.14448785
0.14467111
0.14488769
0.14513452
0.14542512
0.14577956
0.14611194
0.14646355
0.14694264
0.147443
0.14783363
0.14812976
0.14868657
0.14928656
0.14996159
0.1505994
0.15114653
0.15145767
0.1517534
0.15195137
0.15206794
0.15202046
0.1524632
0.14912889
0.14540212
0.14543994
0.14548305
0.14553253
0.14558978
0.14565629
0.14573361
0.14582345
0.14592795
0.14604957
0.14618933
0.14633075
0.14647539
0.1466973
0.14694658
0.14720443
0.14752086
0.14794776
0.14830361
0.14860193
0.14895606
0.14952157
0.15008282
0.15054233
0.15084547
0.15110158
0.15132032
0.15147782
0.15143063
0.15198505
0.14903858
0.1462716
0.14629244
0.14631734
0.14634665
0.14638123
0.146422
0.14646994
0.14652627
0.1465929
0.14667313
0.14677224
0.14690224
0.14706606
0.14723802
0.14744944
0.14765127
0.14781903
0.14803757
0.1483349
0.14852571
0.14874477
0.14927128
0.14969754
0.15001171
0.15026288
0.1504881
0.15070176
0.15087375
0.15084501
0.15145004
0.14883338
0.14750153
0.14750792
0.14751542
0.14752452
0.14753642
0.14755254
0.14757424
0.14760241
0.14763749
0.14768051
0.14773304
0.14779137
0.14784762
0.14790726
0.14797555
0.1480976
0.1482326
0.14832929
0.14836262
0.14841568
0.14857607
0.14897549
0.14930101
0.1495231
0.14968466
0.14989654
0.15008068
0.15025591
0.15026108
0.15095505
0.14853613
0.14821677
0.14821075
0.14820494
0.14820011
0.14819743
0.14819827
0.14820349
0.14821372
0.14822841
0.1482483
0.14827438
0.14830594
0.14834158
0.14837701
0.14840868
0.14843642
0.14847685
0.14850944
0.14849129
0.14842793
0.14849787
0.14871425
0.14892855
0.14904542
0.14913915
0.14930157
0.14945808
0.14963278
0.14965374
0.15030488
0.14829181
0.14892012
0.14892039
0.14891979
0.14891831
0.14891599
0.14891271
0.14890805
0.14890144
0.14889237
0.14888114
0.14886676
0.14884872
0.14882824
0.1488043
0.14877832
0.14875269
0.14872597
0.14868358
0.14859071
0.14842275
0.14835331
0.14844943
0.14855105
0.14861002
0.14865986
0.14872307
0.14882935
0.14892394
0.14888628
0.14955815
0.14817773
0.14920449
0.14920124
0.14919642
0.14919006
0.14918217
0.14917255
0.14916066
0.14914551
0.14912613
0.14910242
0.14907347
0.14903896
0.14899971
0.14895725
0.14891663
0.14887369
0.14881442
0.14873957
0.14858917
0.14829871
0.14810026
0.14818241
0.14833732
0.14840926
0.14838622
0.14837992
0.14844423
0.14853061
0.14845203
0.14860495
0.14813026
0.14941291
0.14939972
0.14938343
0.14936498
0.14934514
0.14932422
0.14930221
0.14927892
0.14925416
0.14922791
0.14920034
0.14917146
0.14914057
0.14910651
0.14907394
0.14901861
0.14889918
0.14873403
0.14853227
0.14829333
0.14811929
0.14831686
0.1485296
0.14855327
0.14849829
0.14848751
0.14853116
0.14857877
0.14837647
0.14847042
0.1479209
0.089939967
0.10710636
0.11867083
0.12742107
0.13470749
0.14135112
0.1474459
0.15258756
0.15759235
0.16223028
0.1664592
0.17028907
0.17374451
0.1768198
0.17947862
0.18156315
0.18264229
0.18234151
0.17955739
0.174833
0.1713349
0.16904499
0.16716879
0.16546701
0.16394084
0.16268187
0.16145067
0.16051157
0.1596542
0.15845426
0.15201464
0.11294557
0.12179947
0.1286645
0.1346662
0.14047578
0.14610413
0.15133062
0.15609935
0.16059717
0.16472207
0.16848322
0.1719089
0.17502006
0.17779807
0.18019302
0.18198879
0.18276364
0.18212658
0.17893724
0.17420559
0.17095362
0.16878482
0.16696382
0.16529815
0.16380314
0.16256942
0.16135564
0.16043074
0.15958326
0.15840094
0.15197698
0.11980843
0.12638891
0.13266331
0.13869119
0.1444235
0.14973718
0.15456322
0.15894331
0.16299477
0.16670055
0.17009139
0.17319755
0.17603307
0.17856928
0.18074595
0.18229475
0.1828073
0.18186131
0.17832184
0.17368066
0.17064823
0.16855915
0.16677926
0.16514364
0.16367373
0.16246097
0.16126168
0.16034912
0.15951339
0.15834797
0.15193399
0.12645901
0.13272033
0.13855932
0.14395911
0.14897013
0.15359032
0.15780885
0.16167117
0.16524552
0.16853325
0.17156565
0.17436813
0.17694427
0.17925371
0.18122239
0.1825175
0.18279258
0.18153157
0.17767792
0.17317073
0.17033326
0.16832105
0.1665852
0.16498188
0.16353958
0.16234978
0.16116659
0.16026752
0.15944338
0.15829543
0.15188976
0.13366101
0.13916029
0.14419747
0.14886015
0.15319419
0.15718704
0.16084262
0.16420434
0.16732166
0.1702125
0.17290792
0.17542685
0.17776102
0.17985756
0.18162122
0.18267371
0.18273233
0.18114036
0.17702947
0.17269091
0.1700368
0.16809194
0.16639692
0.16482439
0.16340784
0.16223969
0.16107168
0.16018547
0.15937359
0.15824179
0.1518476
0.14126801
0.14571498
0.14984969
0.1537105
0.1573045
0.16062784
0.16369826
0.16655001
0.16922128
0.1717347
0.17411479
0.1763706
0.17848046
0.18037806
0.18194038
0.18276844
0.18263819
0.18070449
0.17637229
0.17223806
0.16974781
0.16786369
0.16620851
0.16466656
0.16327567
0.16212929
0.16097662
0.16010337
0.15930382
0.15818727
0.15180844
0.14882905
0.15221609
0.15540136
0.15839779
0.16121259
0.1638566
0.16634221
0.1686939
0.1709394
0.1730985
0.17518585
0.17719908
0.17910248
0.18081597
0.18218543
0.18281638
0.18250113
0.18021527
0.17572161
0.17181371
0.16946849
0.16763981
0.16602307
0.16451101
0.16314478
0.16201955
0.16088178
0.16002118
0.15923429
0.15813266
0.1517701
0.15638128
0.15860933
0.16076223
0.1628462
0.16487498
0.16684718
0.16876131
0.17063225
0.17247636
0.17430582
0.1761234
0.17791451
0.17962961
0.18117494
0.18236464
0.18282969
0.18230974
0.17967473
0.17508505
0.1714152
0.16919614
0.16741887
0.1658395
0.16435682
0.16301465
0.16191025
0.16078718
0.15993907
0.15916498
0.15807841
0.1517316
0.16354184
0.16460976
0.16575926
0.16696335
0.16824035
0.16956983
0.17094089
0.17235997
0.17383142
0.17535783
0.17692926
0.17851896
0.1800643
0.18145628
0.18247915
0.18280078
0.18206578
0.17909302
0.17447189
0.17104046
0.16893045
0.1672015
0.16565859
0.16420471
0.1628858
0.16180173
0.16069303
0.15985712
0.15909596
0.15802483
0.15169364
0.17007167
0.17007415
0.17028631
0.17069608
0.17127149
0.17199951
0.17286873
0.1738724
0.17500354
0.17625523
0.17760483
0.17901399
0.18040775
0.18165549
0.18252906
0.18272783
0.18176768
0.17848195
0.17388832
0.17068622
0.16867047
0.16698754
0.16548026
0.16405461
0.16275825
0.16169406
0.16059943
0.15977545
0.15902719
0.15797219
0.15165605
0.17585183
0.1749167
0.17430595
0.17399163
0.17392888
0.17411001
0.17453405
0.17516499
0.17599189
0.1769987
0.17815124
0.1794002
0.18065901
0.18177171
0.18252065
0.18260914
0.18142047
0.17786178
0.17333715
0.17034961
0.16841594
0.16677718
0.16530481
0.16390683
0.16263224
0.16158744
0.16050651
0.15969417
0.15895881
0.15792074
0.1516184
0.18072792
0.17904567
0.17774317
0.17679642
0.17618074
0.17589411
0.17592589
0.17623161
0.1767952
0.17758811
0.17856818
0.17967568
0.18080953
0.18180727
0.18246643
0.18244711
0.1810338
0.17724244
0.17281826
0.17002784
0.16816656
0.16657051
0.16513238
0.16376148
0.16250793
0.161482
0.16041439
0.15961337
0.15889101
0.15787007
0.1515833
0.18462403
0.18236828
0.18052202
0.17907304
0.17801452
0.17733803
0.17703354
0.17706836
0.17740743
0.17801928
0.17885083
0.17983266
0.18086742
0.18178719
0.1823662
0.18224334
0.18061663
0.17663027
0.17233089
0.16971887
0.16792231
0.16636769
0.16496317
0.16361878
0.16238552
0.1613779
0.16032321
0.15953317
0.15882386
0.15782023
0.15155002
0.18750891
0.18483794
0.18260644
0.1807989
0.17940816
0.17842806
0.17785166
0.17765259
0.17780645
0.17826941
0.17898367
0.17988176
0.18086538
0.18171654
0.18221906
0.18199567
0.1801761
0.17603249
0.17187349
0.16942079
0.16768318
0.1661689
0.16479739
0.1634789
0.16226521
0.1612753
0.1602331
0.15945368
0.15875702
0.15777154
0.15151702
0.18945173
0.1864504
0.18395235
0.18191027
0.18029743
0.17910184
0.17832056
0.17795104
0.17797785
0.17835005
0.17900915
0.17986436
0.1807967
0.18158581
0.18201792
0.1817081
0.17971875
0.17545373
0.1714442
0.16913242
0.16744933
0.16597435
0.16463522
0.16334202
0.1621472
0.16117433
0.1601442
0.15937499
0.15869006
0.15772446
0.15148353
0.19055475
0.18739229
0.18471789
0.18250525
0.18073896
0.17940485
0.17849472
0.17804305
0.17801598
0.17833719
0.17894884
0.17976176
0.18064649
0.18139528
0.18177192
0.18138591
0.1792508
0.17489717
0.17104204
0.16885298
0.16722087
0.1657842
0.16447677
0.16320825
0.16203162
0.1610751
0.16005659
0.15929718
0.15862301
0.1576807
0.15145122
0.19091484
0.18780816
0.18508029
0.18277525
0.18091526
0.17950167
0.17852952
0.17802527
0.17794258
0.17820762
0.17876624
0.17954785
0.1804136
0.18114576
0.18148594
0.18103319
0.17877628
0.17436552
0.17066379
0.16858165
0.16699787
0.16559852
0.16432211
0.16307769
0.16191855
0.16097769
0.15997031
0.15922028
0.15855651
0.15763416
0.15141957
0.18985449
0.18715677
0.1846847
0.18251396
0.18070662
0.17930511
0.17833558
0.17780404
0.17767405
0.1779062
0.17844869
0.17922534
0.1800976
0.18083775
0.18116217
0.18065864
0.17830177
0.17386025
0.17030691
0.16831818
0.16678027
0.16541731
0.16417124
0.16295041
0.16180811
0.16088221
0.15988543
0.15914436
0.15849097
0.15758014
0.15138855
0.18774426
0.18541866
0.18330818
0.18144465
0.17986559
0.17861625
0.17774419
0.17727615
0.17718025
0.17743278
0.17799621
0.17879563
0.17969808
0.18047147
0.18080196
0.18026477
0.17783422
0.17338262
0.16996952
0.16806217
0.16656813
0.16524077
0.1640244
0.16282668
0.16170058
0.16078893
0.15980217
0.1590696
0.15842648
0.15751446
0.15135665
0.18480587
0.1829073
0.18120083
0.17971038
0.17845152
0.17745623
0.17678033
0.17645708
0.17645861
0.17678851
0.17740992
0.17825952
0.17921493
0.18004702
0.18040741
0.17985759
0.17737845
0.17293279
0.16964955
0.16781417
0.16636223
0.16506966
0.16388231
0.16270719
0.16159658
0.16069836
0.15972098
0.15899633
0.15836317
0.15745211
0.15132371
0.18104261
0.17967743
0.17846268
0.17741697
0.17654824
0.17588367
0.17548192
0.17535803
0.17551599
0.17597424
0.17669102
0.17761848
0.17864863
0.17956433
0.17998036
0.17943922
0.17693802
0.17251162
0.16934779
0.16757631
0.16616444
0.16490555
0.16374623
0.16259297
0.16149693
0.16061111
0.15964229
0.15892476
0.158301
0.15740643
0.15129156
0.17643223
0.17570798
0.17509954
0.17459176
0.17418943
0.17393118
0.17385567
0.17398287
0.17435728
0.17498813
0.17583751
0.17687147
0.17799787
0.17902166
0.17952096
0.1790142
0.176519
0.17212509
0.16906887
0.16735181
0.16597685
0.16474975
0.16361691
0.16248445
0.16140178
0.16052722
0.15956589
0.15885455
0.158239
0.15736742
0.15126099
0.17090784
0.17087839
0.17099355
0.17115659
0.17132928
0.17154695
0.17186359
0.17231203
0.17296327
0.17381478
0.17483662
0.17600916
0.17725525
0.17841258
0.17902368
0.17860806
0.17613728
0.17178524
0.16881647
0.16714029
0.16579805
0.16460046
0.16349244
0.16237975
0.1613093
0.1604451
0.15949009
0.15878433
0.15817528
0.15732973
0.15123254
0.16463944
0.16500757
0.16575309
0.16666318
0.16756493
0.16840674
0.16926629
0.17015606
0.17118606
0.17234999
0.17361009
0.17497119
0.17637286
0.17769907
0.17846414
0.17818656
0.17580514
0.1714943
0.16857761
0.16693031
0.16561843
0.16445003
0.16336661
0.16227387
0.16121534
0.16036161
0.15941228
0.15871264
0.15810914
0.15729319
0.15120361
0.083618854
0.1024205
0.11477693
0.12421779
0.13198112
0.13883528
0.14513538
0.15070842
0.15593674
0.16080026
0.16525956
0.16930737
0.17296012
0.17621271
0.17903016
0.18128738
0.18254948
0.18243859
0.17989307
0.17521611
0.17159174
0.16923793
0.16732712
0.16559992
0.16405351
0.16277728
0.16153446
0.1605851
0.15971672
0.15850484
0.15204502
0.08278572
0.10221032
0.11470202
0.12402304
0.13169233
0.13843169
0.14459897
0.15016626
0.15536565
0.16023412
0.16473649
0.16885075
0.17257872
0.17590766
0.17879371
0.18112607
0.18244935
0.18244356
0.18003211
0.17540594
0.17172475
0.16934627
0.16742187
0.16568335
0.16412753
0.16284104
0.16159162
0.16063634
0.15976087
0.15854092
0.15206952
0.082670421
0.10241328
0.11486618
0.12398324
0.13143449
0.1380007
0.14402192
0.14952267
0.15468839
0.15956527
0.16411548
0.16830393
0.17211756
0.17553487
0.17850382
0.18092464
0.18233861
0.18242892
0.1801849
0.17561502
0.17186062
0.1694508
0.16751301
0.16576424
0.16420022
0.16290416
0.16164894
0.1606884
0.15980595
0.15857508
0.15209767
0.082443418
0.10235254
0.1148351
0.12384942
0.13113121
0.13754693
0.14343564
0.14886659
0.1539983
0.15887672
0.16346641
0.16772331
0.17162052
0.17512719
0.17818356
0.18069492
0.18221271
0.18240937
0.18033744
0.17584102
0.17201255
0.16956561
0.1676123
0.16585214
0.16427908
0.16297288
0.16171158
0.16074557
0.15985519
0.15860836
0.15212906
0.081980931
0.1020836
0.11467659
0.12361585
0.13081025
0.13710623
0.14287385
0.14823307
0.15332292
0.1581902
0.16280594
0.16712085
0.17109566
0.17468951
0.17783484
0.18043499
0.18206829
0.18238164
0.18048475
0.1760765
0.17217813
0.16969139
0.16772117
0.16594868
0.16436557
0.16304846
0.16178045
0.16080852
0.15990889
0.15864276
0.15216103
0.081567135
0.10164697
0.11442583
0.12338841
0.1305133
0.13669857
0.14234908
0.14762864
0.15266588
0.15750939
0.16213778
0.16649945
0.17054468
0.17422223
0.17745643
0.1801419
0.18189938
0.18234078
0.18062113
0.17631841
0.17235255
0.16982451
0.16783709
0.16605206
0.16445838
0.16312981
0.16185451
0.1608763
0.15996674
0.15866716
0.15219393
0.081248742
0.10123507
0.11417932
0.12317162
0.13023287
0.13631183
0.14184862
0.14704219
0.15201863
0.15682906
0.16145924
0.16585768
0.16996629
0.17372372
0.17704604
0.17981531
0.18169586
0.18228141
0.1807401
0.17656659
0.17253374
0.16996239
0.16795782
0.16616053
0.16455622
0.16321601
0.16193312
0.16094847
0.1600281
0.15869894
0.15222851
0.081222348
0.10085263
0.11388912
0.12292361
0.12993697
0.13592115
0.14135222
0.14645896
0.15137086
0.15614255
0.16076668
0.16519357
0.16935901
0.17319243
0.17660177
0.17945688
0.18146257
0.18219828
0.18083924
0.17681805
0.17272174
0.17010427
0.1680826
0.16627345
0.16465857
0.16330663
0.16201595
0.16102482
0.16009285
0.15874515
0.15226637
0.081299464
0.10040928
0.11350823
0.12260314
0.12959124
0.13549883
0.14083729
0.1458622
0.15071083
0.15544225
0.1600557
0.16450479
0.16872137
0.17262702
0.1761221
0.17906637
0.18119466
0.18208921
0.18092259
0.17706873
0.1729172
0.17025025
0.16821151
0.16639095
0.16476562
0.1634019
0.16210324
0.16110567
0.16016168
0.15879623
0.15230726
0.081524566
0.10001125
0.11306995
0.12219691
0.12916764
0.1350157
0.14027795
0.14523173
0.1500236
0.15471803
0.15932022
0.16378801
0.16805153
0.17202614
0.17560566
0.17864205
0.18088933
0.18193787
0.18098272
0.17731992
0.17312013
0.17040011
0.16834452
0.1665131
0.1648776
0.16350219
0.16219544
0.16119149
0.1602348
0.15884664
0.15235423
0.081999035
0.099649878
0.1125402
0.12166503
0.12862547
0.13443434
0.13964225
0.14454261
0.14929085
0.15395716
0.15855229
0.16303875
0.16734702
0.17138825
0.1750511
0.17818204
0.18054906
0.18175711
0.18101204
0.17755859
0.17333006
0.17055345
0.16848141
0.16663989
0.16499463
0.16360769
0.16229268
0.16128244
0.16031253
0.15890258
0.15240438
0.082590879
0.099243239
0.11184814
0.12094346
0.127908
0.13370694
0.1388915
0.14376532
0.14849122
0.15314487
0.15774227
0.16225139
0.16660475
0.1707116
0.17445719
0.17768482
0.18017341
0.18154207
0.18100838
0.17777748
0.17354594
0.1707095
0.16862172
0.16677103
0.16511659
0.16371844
0.16239505
0.16137866
0.1603954
0.15896372
0.15245482
0.083263867
0.09880554
0.11096397
0.11997454
0.1269565
0.132782
0.13798398
0.14286798
0.14760139
0.152265
0.15687971
0.16141966
0.16582135
0.16999442
0.17382279
0.17714914
0.17976074
0.18128263
0.18096942
0.17798325
0.17376707
0.17086724
0.16876468
0.1669061
0.16524341
0.16383449
0.16250263
0.16148023
0.16048378
0.15902531
0.15250455
0.083619088
0.097998248
0.10968526
0.11863505
0.12568628
0.13159987
0.13687684
0.14181961
0.14659931
0.15130187
0.15595431
0.16053743
0.16499351
0.16923501
0.17314695
0.17657396
0.17931055
0.18097568
0.18088296
0.17816885
0.17399179
0.17102576
0.1689095
0.16704449
0.16537457
0.16395567
0.16261534
0.16158719
0.16057804
0.15909358
0.15255229
0.08352686
0.096780261
0.10798116
0.11689145
0.12406521
0.13013038
0.13554416
0.14059937
0.14546904
0.15024399
0.15495812
0.15959991
0.16411864
0.16843209
0.17242894
0.17595827
0.17882245
0.18062758
0.18074225
0.17832362
0.17421919
0.17118369
0.16905513
0.16718544
0.16550998
0.16408193
0.16273316
0.16169944
0.16067863
0.15916733
0.15260005
0.082962188
0.095213336
0.10593374
0.11479312
0.12211538
0.12838179
0.13398651
0.13920422
0.14420646
0.14908773
0.15388837
0.15860511
0.16319584
0.16758535
0.17166825
0.17530022
0.17829072
0.18023726
0.1805502
0.17843842
0.17444412
0.17133969
0.16920032
0.1673284
0.16564878
0.16421305
0.16285596
0.16181698
0.16078639
0.15924857
0.15264874
0.081593341
0.093043858
0.10342557
0.11231974
0.11985409
0.1263775
0.13222481
0.13765007
0.1428224
0.14783978
0.15274929
0.15755583
0.16222686
0.16669591
0.17086476
0.17459652
0.17770316
0.17980602
0.18033443
0.17851578
0.17467019
0.17149173
0.1693442
0.16747167
0.16579065
0.16434862
0.16298379
0.16193936
0.16090146
0.1593236
0.15269495
0.079612336
0.090398517
0.10053873
0.1095391
0.11734584
0.12417677
0.13030882
0.13597599
0.14134573
0.14652038
0.15155403
0.15646065
0.16121726
0.16576695
0.17001952
0.17384492
0.1770537
0.17929727
0.18006745
0.17855947
0.17488144
0.17163857
0.16948399
0.16761581
0.165935
0.16448867
0.16311625
0.16206667
0.16102325
0.15940277
0.15273932
0.077191594
0.087439336
0.097412558
0.1065655
0.11468756
0.12186588
0.12831293
0.13424231
0.1398226
0.14516312
0.15032598
0.15533503
0.16017709
0.16480469
0.16913606
0.17304794
0.17635354
0.17874439
0.1797624
0.17855476
0.1750567
0.17177739
0.16962048
0.16775625
0.16607943
0.16463136
0.1632535
0.16219827
0.16114993
0.15949535
0.15278204
0.074580705
0.084382046
0.094214633
0.10353
0.11198757
0.119538
0.12631825
0.13251817
0.13830908
0.1438109
0.14909655
0.15420071
0.15912062
0.16381836
0.16822052
0.17221141
0.17561236
0.17814798
0.17939516
0.178505
0.17522342
0.1719092
0.16974666
0.16789661
0.16622619
0.16477778
0.16339462
0.16233468
0.16128158
0.15958709
0.15282372
0.072172877
0.081533886
0.091181771
0.10059954
0.10936489
0.11728646
0.12440352
0.13087151
0.1368623
0.14250944
0.14790026
0.15308274
0.15806512
0.16281942
0.16728064
0.17134129
0.17483316
0.17750384
0.17895697
0.17837479
0.17538081
0.1720308
0.16986729
0.16802859
0.1663677
0.1649237
0.16354011
0.16247477
0.16141798
0.1596668
0.15286363
0.070371463
0.079267922
0.088635249
0.09802409
0.10698393
0.11521418
0.12264113
0.12935952
0.13552993
0.14129793
0.14676799
0.15200421
0.15702739
0.16181975
0.16632488
0.17044329
0.17401804
0.17681477
0.17846249
0.17816848
0.17549533
0.17214539
0.16997145
0.1681557
0.16650994
0.16507107
0.16368778
0.16261876
0.16156036
0.15975839
0.15289435
0.069502942
0.077930018
0.086917242
0.096107239
0.10507796
0.11347168
0.12111552
0.12803004
0.13434318
0.14020025
0.14571946
0.150981
0.15601964
0.16082865
0.16536024
0.16952266
0.17316977
0.17608372
0.17792074
0.177925
0.17554972
0.17224522
0.17006253
0.16827693
0.16664571
0.16521648
0.16383874
0.16276529
0.16170773
0.15986886
0.15290377
0.069695664
0.077670219
0.08620502
0.095034446
0.10381305
0.1121785
0.11989902
0.12691869
0.13331646
0.13922183
0.14475776
0.15001666
0.15504619
0.15985041
0.16439056
0.16858277
0.17229058
0.17531126
0.17732453
0.17764863
0.17554672
0.17231387
0.1701381
0.16837562
0.16676869
0.1653568
0.16398859
0.1629128
0.16185785
0.15997868
0.15294543
0.071084759
0.078426571
0.086439451
0.094829277
0.10323326
0.11137726
0.11901372
0.12602308
0.13243173
0.13833974
0.14386218
0.14909567
0.15409752
0.1588806
0.16341458
0.16762361
0.17138045
0.1744931
0.17665581
0.17730535
0.17552032
0.17235223
0.17018551
0.16847268
0.16689782
0.16549932
0.16413926
0.16306117
0.16201156
0.1600633
0.153038
0.073771349
0.080407592
0.087646022
0.095348647
0.10327084
0.11102646
0.11841925
0.12529694
0.13163794
0.1375043
0.1429902
0.14818577
0.1531512
0.15790513
0.16242459
0.16664141
0.17043657
0.17362646
0.17591861
0.17681584
0.17544714
0.17237435
0.17022152
0.16855352
0.16699854
0.16562754
0.16428582
0.1632051
0.16216269
0.16017553
0.15312849
0.077141295
0.083107749
0.089633426
0.096592032
0.10379133
0.11103491
0.1180412
0.12467334
0.13087121
0.13665533
0.14208876
0.14724402
0.15217529
0.15690321
0.16140872
0.1656304
0.16945756
0.17271702
0.17513809
0.1762732
0.17529473
0.17242866
0.17022974
0.16859435
0.16708476
0.16575415
0.16442837
0.16334844
0.16231538
0.16029745
0.15326135
0.080707059
0.085988617
0.091785126
0.098011682
0.10452761
0.11114944
0.1177038
0.12402843
0.13004029
0.13572187
0.14110108
0.14622557
0.1511364
0.15585103
0.16035213
0.16458355
0.16844296
0.17176914
0.17431307
0.17567089
0.1750658
0.17245006
0.17021268
0.16860597
0.16719421
0.1658733
0.16456856
0.16348426
0.16246042
0.16039363
0.15337888
0.083988304
0.088624013
0.093731102
0.099259436
0.10511433
0.11115685
0.11725841
0.12326381
0.12907889
0.1346556
0.13998924
0.14509995
0.15001112
0.15473189
0.15924408
0.16349558
0.16739232
0.17078557
0.17344847
0.17501633
0.1747289
0.17242229
0.17016235
0.16860434
0.1672394
0.16596412
0.16469506
0.16361738
0.16260587
0.16049637
0.15352911
0.086600975
0.090674754
0.095182694
0.10010005
0.10536902
0.110919
0.11659811
0.12230717
0.12794194
0.13343009
0.13873707
0.14385611
0.14879114
0.15354027
0.15808244
0.16236732
0.16630819
0.16976978
0.17254744
0.17431402
0.17440519
0.1723447
0.17011835
0.16858761
0.16726258
0.16605427
0.164818
0.1637448
0.16273914
0.16056495
0.15357869
0.088357067
0.09197003
0.095992071
0.10041662
0.10522247
0.11033516
0.11567117
0.12113139
0.12661464
0.13204
0.13734762
0.14250238
0.14748694
0.1522868
0.15687623
0.16120661
0.16519762
0.16872637
0.17160851
0.17354977
0.17401233
0.17221468
0.17000465
0.16852931
0.16727099
0.16612612
0.16491885
0.16385864
0.16287745
0.16065239