/*--------------------------------*- C++ -*----------------------------------*\
| =========                 |                                                 |
| \\      /  F ield         | OpenFOAM: The Open Source CFD Toolbox           |
|  \\    /   O peration     | Version:  2406                                  |
|   \\  /    A nd           | Website:  www.openfoam.com                      |
|    \\/     M anipulation  |                                                 |
\*---------------------------------------------------------------------------*/
FoamFile
{
    version     2.0;
    format      ascii;
    arch        "LSB;label=32;scalar=64";
    class       volScalarField;
    location    "0.03";
    object      nut;
}
// * * * * * * * * * * * * * * * * * * * * * * * * * * * * * * * * * * * * * //

dimensions      [0 2 -1 0 0 0 0];

internalField   nonuniform List<scalar> 
8260
(
0.036934307
0.04193253
0.047802395
0.054461007
0.061761569
0.069548905
0.07763145
0.085751158
0.093560916
0.10056762
0.10607342
0.10911021
0.10834655
0.1020584
0.088243513
0.065459313
0.036840099
0.016130541
0.0087968087
0.006966459
0.006081955
0.0054851473
0.0050346477
0.0047418532
0.0045447275
0.0044170931
0.0043387319
0.0042535548
0.0042428517
0.0041088183
0.0040446147
0.04366471
0.048804387
0.05446321
0.060719203
0.067536841
0.074802202
0.082335892
0.089880568
0.097082793
0.1034416
0.10823292
0.11046599
0.10878896
0.10148095
0.086561527
0.062913904
0.034180358
0.014899139
0.0085261899
0.006858689
0.0060295459
0.0054567089
0.0050161848
0.0047302796
0.0045369984
0.0044125344
0.0043355243
0.0042518975
0.0042420544
0.004108286
0.004044226
0.051405262
0.056357895
0.061750067
0.06762396
0.073960226
0.080671112
0.087595147
0.094483574
0.10097989
0.10657241
0.11052173
0.11181286
0.10907277
0.10058763
0.084422462
0.059795071
0.031197315
0.013690083
0.0082191828
0.0068017116
0.0060016203
0.0054418417
0.0050066101
0.0047241978
0.0045327
0.0044097971
0.0043337127
0.0042500864
0.0042411558
0.0041080495
0.0040438745
0.060262226
0.064826054
0.069824026
0.075239787
0.08103929
0.087136168
0.093375728
0.099514359
0.10519287
0.1098891
0.11285075
0.11304065
0.10906573
0.099226185
0.081663146
0.055982294
0.027902323
0.012581951
0.0079802915
0.0067127833
0.0059531032
0.005415332
0.0049891288
0.0047125849
0.0045244756
0.0044046451
0.0043300422
0.0042479394
0.0042400764
0.0041076374
0.0040435301
0.070246146
0.074272896
0.078762793
0.083615561
0.088784457
0.094175876
0.099632188
0.10490779
0.10963757
0.11328841
0.11509464
0.11399924
0.10859206
0.097198748
0.07807705
0.051329943
0.024334936
0.011514362
0.0077505074
0.0066310222
0.0059104099
0.0053928261
0.0049744218
0.0047028036
0.0045179053
0.0044004621
0.0043270641
0.0042454803
0.0042388557
0.0041072506
0.0040431581
0.081193345
0.084622147
0.088500828
0.092683711
0.097113825
0.10168858
0.10624255
0.11052244
0.11415297
0.1165881
0.11704801
0.1144578
0.10739545
0.094231186
0.0733955
0.045689597
0.02068026
0.010502164
0.007538579
0.0065295675
0.0058540521
0.0053621593
0.0049538048
0.0046887843
0.0045083987
0.004394418
0.00432263
0.0042426377
0.0042374707
0.0041066818
0.0040427575
0.092801051
0.095597026
0.098786441
0.10220651
0.10579224
0.10943258
0.11295272
0.11608859
0.11845171
0.11948095
0.11838167
0.1140638
0.1051022
0.089943223
0.067272781
0.038961625
0.017570621
0.0095848987
0.0073200843
0.0064252539
0.0057981877
0.0053325401
0.0049339055
0.0046751042
0.0044997141
0.0043888039
0.0043184247
0.0042393618
0.0042359245
0.0041061197
0.0040423274
0.10456313
0.10670035
0.10913929
0.11171778
0.11436234
0.11695281
0.11930386
0.12113887
0.1220542
0.12147235
0.11858432
0.11228972
0.1011753
0.083815406
0.059284964
0.031230696
0.014670699
0.0087598113
0.007109619
0.006303887
0.0057307433
0.005295553
0.0049084287
0.0046573989
0.0044884656
0.0043815272
0.0043128313
0.0042355714
0.0042342014
0.0041053708
0.0040418819
0.11566117
0.11711911
0.11875776
0.12042783
0.12204554
0.12347948
0.12453176
0.12491083
0.12419598
0.12179313
0.1168821
0.10836173
0.094857487
0.075157872
0.048980979
0.023031243
0.012055912
0.0080611162
0.0068937517
0.0061756758
0.0056617734
0.0052575937
0.0048824451
0.0046390313
0.0044775792
0.004374382
0.0043070776
0.0042311973
0.0042322632
0.0041046692
0.0040413658
0.12479738
0.12557227
0.12637115
0.12707978
0.12760153
0.12779072
0.1274328
0.1262171
0.12370339
0.11928283
0.11213305
0.10117095
0.08511127
0.063105108
0.036134685
0.017365356
0.010055869
0.0076058537
0.0066791118
0.0060324947
0.0055824177
0.005211022
0.0048505429
0.0046162868
0.0044641626
0.0043656015
0.0042997818
0.0042261862
0.0042299543
0.0041038541
0.004040715
0.13001375
0.13010176
0.13005092
0.12977476
0.12916136
0.1280488
0.12620177
0.12328553
0.11883873
0.1122453
0.10270266
0.089183203
0.070583142
0.046732268
0.022928083
0.01273587
0.0085618999
0.0072281382
0.0064467189
0.0058845261
0.0055015873
0.0051605076
0.0048175451
0.0045921666
0.0044507379
0.0043567129
0.0042918907
0.0042205613
0.0042269227
0.004103055
0.0040399733
0.12841275
0.12780359
0.12691925
0.12568017
0.12395191
0.12154727
0.11820193
0.11354693
0.10710385
0.098277008
0.086344956
0.070414185
0.049644605
0.027975934
0.015263039
0.0097914075
0.0077628746
0.0069003528
0.0062166757
0.0057287839
0.005410744
0.0050983692
0.0047786435
0.0045632229
0.0044346403
0.0043460282
0.004282134
0.0042144749
0.0042226092
0.004102154
0.004039379
0.1158106
0.1145769
0.11294558
0.11083486
0.10808966
0.10450036
0.099760258
0.093402542
0.084984527
0.074042964
0.060168306
0.043498659
0.028226146
0.016641917
0.010527974
0.008166817
0.0073948724
0.0065436807
0.0059780897
0.0055717574
0.0053213035
0.0050309508
0.0047393255
0.0045330335
0.0044181967
0.0043348204
0.004271763
0.0042082276
0.0042164175
0.0041014895
0.0040386133
0.086498033
0.084723911
0.082456411
0.079647395
0.076129459
0.071734089
0.066351324
0.059979932
0.052378718
0.043608643
0.033959738
0.024081799
0.015845352
0.010551608
0.0082715574
0.007641102
0.0067866066
0.0062395251
0.0057561718
0.0054273532
0.0052078237
0.0049546337
0.004695317
0.0044988296
0.0043983363
0.0043210923
0.004260027
0.004200895
0.0042080198
0.0041009191
0.0040381344
0.051229871
0.049955425
0.048367476
0.046392013
0.043872756
0.040701933
0.036795755
0.032238047
0.027544968
0.02269263
0.017837677
0.013258811
0.0098961112
0.0080899218
0.0073836248
0.006878222
0.0065187793
0.005945628
0.0055490139
0.0052806089
0.005111826
0.0048744215
0.0046495422
0.0044662999
0.0043769434
0.0043054894
0.0042481475
0.0041925723
0.0041979096
0.0040997965
0.0040375601
0.025294017
0.024791309
0.024048931
0.023055301
0.021765233
0.02016549
0.018261102
0.016115973
0.01398633
0.011912008
0.010097024
0.0085490249
0.0075844536
0.0070682745
0.0067374549
0.0064437179
0.005989869
0.0057032018
0.0053732973
0.0051539102
0.0049819798
0.004789937
0.0045959719
0.004430663
0.004351424
0.0042855233
0.0042355052
0.0041832954
0.0041883411
0.0040991794
0.0040371054
0.012365991
0.012237334
0.01196952
0.011579524
0.011073254
0.01046171
0.0097534622
0.0089756347
0.0082201436
0.0075288116
0.0071169834
0.0068133465
0.0067539942
0.0065408576
0.0062307454
0.0057608084
0.0057831946
0.0054605336
0.0051996733
0.0050005191
0.0048787954
0.0046983059
0.0045381073
0.0043955355
0.0043252094
0.0042629788
0.0042228009
0.0041735271
0.004182588
0.0040985796
0.0040369831
0.0073897052
0.007357045
0.0072761652
0.0071575791
0.0069950834
0.0067748969
0.0065397687
0.0063643443
0.0062737718
0.0062356574
0.0062475043
0.0061996455
0.0061011019
0.0060050129
0.0058497661
0.0056022759
0.0052658002
0.0051476481
0.0049912405
0.0048514775
0.0047191692
0.0046040018
0.0044666318
0.0043536418
0.0042950602
0.0042386197
0.0042072273
0.004163278
0.0041796459
0.0040944829
0.0040368613
0.0057415674
0.0057166682
0.0056959109
0.0056797327
0.005676593
0.0056984505
0.005677574
0.0056382504
0.0056027411
0.005560513
0.0054774109
0.0053958478
0.0053257645
0.0052869136
0.0053001067
0.0052284182
0.0050117211
0.0048296478
0.0047078274
0.0046229605
0.0045833601
0.0045082583
0.0043973216
0.004310419
0.0042635225
0.0042163018
0.0041897665
0.0041530209
0.0041616964
0.0040917947
0.0040364012
0.0052634619
0.0052568112
0.0052514326
0.0052549678
0.0052645917
0.005242954
0.0052205751
0.0051992561
0.0051447772
0.0050636748
0.0050048066
0.0049691993
0.0049113781
0.0048735978
0.0048232381
0.0047877279
0.004758507
0.0046419634
0.0045251194
0.0044848676
0.0044174469
0.0044047514
0.0043336926
0.0042645695
0.0042249713
0.0041940974
0.0041703543
0.0041394777
0.0041481116
0.004089606
0.0040363037
0.0048925857
0.0048839564
0.0048650801
0.0048334472
0.0047909167
0.0047846934
0.0047833502
0.0047717688
0.0047613311
0.0047528904
0.0047566418
0.0047112826
0.0047037032
0.004661354
0.0045901341
0.0045325768
0.0044835027
0.004421513
0.0043945601
0.0043621539
0.004333013
0.0043327921
0.0042785888
0.0042253524
0.0041888439
0.0041709962
0.0041516265
0.004124782
0.0041341232
0.0040862509
0.0040362443
0.0045607521
0.0045605863
0.0045578585
0.0045537206
0.0045612921
0.0045684338
0.0045666401
0.0045655749
0.0045584617
0.0045387978
0.0045130237
0.0045245018
0.0044955161
0.004482678
0.0044664707
0.0044051574
0.0043530898
0.0043014658
0.0043077553
0.0042981846
0.0042657886
0.0042575507
0.0042404239
0.0041791498
0.004155692
0.0041461679
0.0041325009
0.0041071636
0.0041200282
0.0040852562
0.0040353388
0.0043816998
0.0043817046
0.0043782817
0.0043713689
0.0043618525
0.004350227
0.0043469897
0.0043423655
0.004337275
0.004333312
0.0043310804
0.0043279114
0.0043453116
0.0043334887
0.0043100394
0.0043019006
0.0042774466
0.0042330275
0.0042115493
0.0042027602
0.0042284438
0.0042121104
0.0041785654
0.0041451444
0.004135889
0.0041212186
0.004113867
0.004094597
0.0041095668
0.004087195
0.0040341095
0.0042236987
0.0042255762
0.0042255907
0.0042245531
0.0042236935
0.0042258104
0.0042270753
0.0042274432
0.0042277853
0.0042269145
0.0042238235
0.0042164398
0.0042008201
0.0041923732
0.0041866589
0.0041806187
0.0041748095
0.0041836539
0.0041675087
0.0041514469
0.0041816265
0.0041718949
0.0041338865
0.0041158714
0.0041051111
0.0041013003
0.004097382
0.0040839647
0.0041006621
0.0040846046
0.0040354099
0.0041457303
0.0041469373
0.0041463268
0.0041444547
0.0041417752
0.0041381456
0.0041360017
0.0041341992
0.0041325448
0.0041306476
0.0041283762
0.0041263172
0.0041253868
0.0041240175
0.0041245574
0.0041218647
0.0041114631
0.0041055458
0.004104487
0.0040956536
0.00412128
0.0041215515
0.004106033
0.0040956807
0.004084713
0.0040847145
0.0040835905
0.0040752751
0.0040912223
0.0040760373
0.0040369056
0.0040911863
0.0040916188
0.0040912071
0.0040903727
0.0040896661
0.0040891682
0.0040888742
0.0040887539
0.00408876
0.0040887376
0.0040885956
0.0040885784
0.0040864959
0.0040835431
0.0040811495
0.0040772576
0.0040745622
0.0040707036
0.0040658165
0.0040682304
0.0040797116
0.0040906792
0.0040796211
0.0040701814
0.0040718955
0.0040711934
0.0040688715
0.0040659853
0.0040778522
0.0040679016
0.0040400113
0.0040655083
0.0040656824
0.0040653231
0.0040648281
0.0040645705
0.0040645432
0.0040646975
0.0040649341
0.0040653158
0.004065492
0.0040649332
0.0040636421
0.0040620152
0.0040612985
0.0040607976
0.0040602898
0.004058119
0.0040548644
0.0040532066
0.0040546109
0.0040615796
0.0040738327
0.0040617344
0.004056589
0.0040564801
0.0040567356
0.0040580048
0.004055717
0.0040612631
0.0040645757
0.0040387195
0.0040508226
0.0040507703
0.0040505127
0.0040503038
0.0040502535
0.0040502753
0.0040503281
0.0040506095
0.0040510803
0.0040514982
0.0040514899
0.0040513926
0.0040512099
0.0040507172
0.0040503333
0.0040503249
0.0040494975
0.0040490511
0.0040491544
0.0040495599
0.0040533007
0.004057018
0.0040517499
0.0040488391
0.0040488517
0.0040501921
0.0040499091
0.004049813
0.0040523389
0.004057432
0.0040408019
0.0040459161
0.0040457341
0.0040454958
0.0040453289
0.004045254
0.0040451284
0.0040449672
0.0040448625
0.0040448409
0.0040448749
0.0040451069
0.0040455917
0.004046217
0.0040464715
0.0040466768
0.0040468295
0.0040462703
0.0040464073
0.0040470837
0.0040470229
0.0040490145
0.0040499947
0.0040478379
0.0040460511
0.0040460911
0.0040460296
0.0040452723
0.0040450277
0.0040454411
0.0040535539
0.004039234
0.0040415602
0.004041317
0.0040410661
0.0040408824
0.0040407861
0.0040407537
0.0040407745
0.0040408559
0.0040410061
0.0040412003
0.0040413604
0.0040415886
0.0040419164
0.0040422619
0.0040430182
0.0040447267
0.0040449743
0.0040447798
0.0040458287
0.0040464776
0.0040459684
0.0040465198
0.0040455618
0.0040426612
0.0040419721
0.0040421514
0.0040419434
0.0040424273
0.0040423929
0.0040456693
0.0040409675
0.0040416962
0.0040416776
0.0040416409
0.0040415914
0.004041542
0.0040415035
0.0040414824
0.0040414841
0.0040415121
0.0040415702
0.0040416636
0.004041799
0.0040419841
0.0040422332
0.0040425126
0.0040428316
0.0040430815
0.0040435192
0.0040449099
0.0040448696
0.0040430498
0.0040415211
0.0040411823
0.004040837
0.0040408368
0.004040571
0.0040406312
0.0040410568
0.0040402853
0.0040421488
0.0040416067
0.00088829526
0.0018888779
0.0037289187
0.006413985
0.0099448124
0.014422974
0.019937774
0.026538298
0.034285057
0.042755279
0.052082159
0.061871095
0.071447409
0.079741365
0.085121499
0.085230865
0.076926947
0.058403768
0.034385702
0.016228869
0.0084868238
0.0062607988
0.005456635
0.0050016083
0.0047303273
0.0045288902
0.0044111388
0.0043150575
0.0042745478
0.0041354377
0.0040658533
0.0021628604
0.0042544153
0.0069015783
0.010097811
0.014016272
0.018752164
0.024382571
0.031225217
0.038787573
0.047209372
0.056364569
0.065809854
0.074823131
0.082277078
0.086483216
0.08504759
0.0748854
0.054823883
0.030632457
0.014159943
0.0079609663
0.0060919131
0.0053943455
0.0049684866
0.0047120587
0.0045184832
0.0044051174
0.0043113934
0.004272547
0.0041332454
0.0040646431
0.0038692403
0.0060510685
0.0087655595
0.012182636
0.01641562
0.021548645
0.027684803
0.034705227
0.042487985
0.051041545
0.060136402
0.069307312
0.07779874
0.084437542
0.087489949
0.084544619
0.072614497
0.051274271
0.027490908
0.012835747
0.0074575658
0.0060166014
0.0053655075
0.0049523264
0.0047028167
0.0045129322
0.0044013716
0.0043087871
0.0042711786
0.0041314859
0.0040635351
0.0055037763
0.0079357711
0.01100803
0.014791452
0.019327734
0.024748128
0.031112734
0.038198298
0.046100443
0.054688748
0.06366827
0.072534205
0.080485238
0.086298807
0.088198938
0.083771379
0.070158291
0.04780291
0.024693608
0.011486683
0.0071815214
0.0059298744
0.0053218882
0.0049265362
0.004687784
0.0045042308
0.0043961068
0.0043054344
0.004269353
0.0041294604
0.0040623899
0.0071530778
0.0099174881
0.013301449
0.017359184
0.022181621
0.02788718
0.034346811
0.041604528
0.049613603
0.058194388
0.067018923
0.075546585
0.082931411
0.087903733
0.088650494
0.082767525
0.067557492
0.044436887
0.022191961
0.010636275
0.0069366629
0.0058707268
0.0052935856
0.0049098581
0.0046778947
0.0044983835
0.0043922456
0.0043027411
0.0042678877
0.0041274601
0.0040612031
0.0088734628
0.011917433
0.015563764
0.019884108
0.025028163
0.030926305
0.037561871
0.04496828
0.053042225
0.061575559
0.070210373
0.078369628
0.08516446
0.089281622
0.088876723
0.081564181
0.064854538
0.041179
0.019973909
0.0097523646
0.0067680216
0.0058100257
0.0052590797
0.0048887928
0.0046651554
0.0044909702
0.0043875976
0.0042996324
0.0042661075
0.0041253759
0.0040596993
0.010552161
0.013868976
0.017796234
0.022430883
0.02781466
0.033901998
0.040731961
0.048263976
0.056374002
0.064831418
0.073249522
0.081016212
0.087202576
0.090455792
0.088905678
0.080193557
0.062089222
0.038042741
0.018019658
0.0091633546
0.0066231493
0.0057622429
0.005232964
0.0048729674
0.0046553577
0.0044852344
0.0043837889
0.0042969161
0.0042644798
0.0041233525
0.0040587676
0.012180229
0.01579305
0.020012687
0.024964622
0.030547749
0.036844874
0.043843523
0.051476513
0.059599659
0.067958733
0.076138956
0.083494947
0.08906065
0.09144742
0.088764415
0.078694907
0.059296004
0.035075662
0.016336932
0.0086075994
0.0065159617
0.0057163837
0.0052048365
0.0048554622
0.004644289
0.0044788081
0.0043795985
0.0042939933
0.004262646
0.0041212486
0.0040578576
0.013805653
0.017696116
0.022214669
0.02741058
0.033224826
0.039724921
0.046876693
0.054593268
0.062711258
0.07095405
0.078880409
0.085813573
0.090753097
0.092277844
0.088482091
0.077101344
0.056513613
0.032318796
0.014923156
0.0082235486
0.0064250651
0.0056775773
0.0051817073
0.004841174
0.004634981
0.0044734118
0.0043758988
0.0042913071
0.0042609073
0.0041193269
0.0040571776
0.015378339
0.019550984
0.024367455
0.029782364
0.035834931
0.042529926
0.049820709
0.057605044
0.065702257
0.073814705
0.081476245
0.08798048
0.092295213
0.092969726
0.088094973
0.075449087
0.053785024
0.029804659
0.013799925
0.0078905349
0.0063535317
0.0056415925
0.0051585447
0.0048265769
0.0046252398
0.0044677923
0.0043720219
0.0042885342
0.0042592202
0.0041175504
0.0040565012
0.016932114
0.021379684
0.026454088
0.032097202
0.038377643
0.045251695
0.05266593
0.06050348
0.06856706
0.076539067
0.083929934
0.090005227
0.093703544
0.093546897
0.08762939
0.073780029
0.051142402
0.027554324
0.012855303
0.0076561229
0.0062923596
0.0056103837
0.0051387096
0.0048141506
0.0046166349
0.0044628479
0.0043684354
0.0042859097
0.0042576595
0.0041160224
0.0040554844
0.018442457
0.023163415
0.028467187
0.034348744
0.040841579
0.047878912
0.055402416
0.063280867
0.071300918
0.079126501
0.086246055
0.091898487
0.094995848
0.094040179
0.087118883
0.07212943
0.048611589
0.025580032
0.012121279
0.0074728048
0.0062422553
0.0055821868
0.0051197525
0.0048021185
0.0046080383
0.0044579197
0.0043647997
0.0042832596
0.0042561961
0.0041146904
0.0040540678
0.019923168
0.024894312
0.030423252
0.0365289
0.043206023
0.050399895
0.058021263
0.065929987
0.073899816
0.081577129
0.088430009
0.093671935
0.096192164
0.094471394
0.086599093
0.070533369
0.046229626
0.023885577
0.011528787
0.007350056
0.006199155
0.0055577644
0.0051032713
0.0047917346
0.004600253
0.0044534649
0.0043613883
0.0042807049
0.0042548143
0.0041136537
0.0040535681
0.021370764
0.026568073
0.032317974
0.03862908
0.045464184
0.052808009
0.060512966
0.068443933
0.076361206
0.083893606
0.09048981
0.095342667
0.09731059
0.094859511
0.086089564
0.069022361
0.044023822
0.022464982
0.011086833
0.0072531449
0.006163253
0.0055363244
0.0050880705
0.004782124
0.004592711
0.0044491355
0.0043580617
0.0042781571
0.0042535065
0.0041126944
0.0040524473
0.022794351
0.028191329
0.034144682
0.040642572
0.047642005
0.055073301
0.062872351
0.070821255
0.078685848
0.086083731
0.092437399
0.096921199
0.098369297
0.095235716
0.085627314
0.067624728
0.042018129
0.021303407
0.01076784
0.0071861678
0.0061331172
0.0055181498
0.0050748999
0.0047739084
0.0045858215
0.0044451542
0.0043550463
0.0042756411
0.0042522742
0.0041119113
0.0040514747
0.024166926
0.029756548
0.035894913
0.042558803
0.049700265
0.057242812
0.065073101
0.073050616
0.080872093
0.088140219
0.094271823
0.098414151
0.099388219
0.095627361
0.085246427
0.066364181
0.040229736
0.020403075
0.010551404
0.007126292
0.006108522
0.0055028588
0.0050631983
0.004766637
0.0045793074
0.0044413362
0.0043523035
0.0042731114
0.0042511044
0.0041112531
0.0040504234
0.025424846
0.031206209
0.037523892
0.044345389
0.051616144
0.059256097
0.067139807
0.075099389
0.082874485
0.090051195
0.095989844
0.099833984
0.10038483
0.096059894
0.08497958
0.065278081
0.038725684
0.019663267
0.010323301
0.0070715546
0.0060891278
0.0054905431
0.0050533477
0.0047605506
0.0045733764
0.0044377866
0.0043499329
0.0042706014
0.004249992
0.0041108181
0.0040495684
0.026580262
0.032500202
0.03896336
0.045922969
0.053319401
0.061061691
0.069017446
0.077000039
0.08473336
0.091796996
0.097579938
0.10118862
0.10137514
0.096556468
0.084856905
0.064413069
0.037517587
0.01905337
0.010123944
0.0070263671
0.0060747579
0.005481013
0.0050451303
0.0047553576
0.0045679036
0.0044344134
0.0043478674
0.0042682399
0.0042489399
0.0041104901
0.0040489845
0.02777849
0.033765265
0.040306196
0.047355088
0.054839558
0.062660891
0.070679937
0.078699559
0.086427109
0.093433524
0.099086567
0.10247218
0.1023609
0.097136637
0.084904354
0.063811435
0.036602355
0.018550952
0.0099280419
0.0069909747
0.006064713
0.0054742902
0.0050387518
0.0047511269
0.0045630058
0.0044312778
0.0043460433
0.0042660407
0.0042479157
0.0041101197
0.004048323
0.02897308
0.03499616
0.041573414
0.048665281
0.056199295
0.064072797
0.072139812
0.080195634
0.087933274
0.094912068
0.10048414
0.10372532
0.10337905
0.097802389
0.085142516
0.063506497
0.035978249
0.018136443
0.0097374562
0.0069687575
0.0060590744
0.0054702967
0.0050341602
0.004747725
0.0045586521
0.004428359
0.004344423
0.00426392
0.0042469204
0.0041095662
0.0040476615
0.030128785
0.0361574
0.042737755
0.049838486
0.057390106
0.065291767
0.073392645
0.081483944
0.089245855
0.096228368
0.10176872
0.10492522
0.10442216
0.098602827
0.085589938
0.06352489
0.035652041
0.017786696
0.0095447345
0.0069584576
0.0060577729
0.0054691123
0.0050314838
0.004745234
0.0045549247
0.0044257111
0.0043430314
0.0042618463
0.0042459981
0.0041090389
0.0040470126
0.031239349
0.037235287
0.043781599
0.050857634
0.058395969
0.066312517
0.074460568
0.082613968
0.090433478
0.097426563
0.10294987
0.10606633
0.1054865
0.099520777
0.086258775
0.063886813
0.035648138
0.017472429
0.0093541936
0.0069545428
0.0060595919
0.0054708025
0.0050306759
0.004743624
0.0045518013
0.0044233218
0.0043418208
0.004259801
0.0042451496
0.0041087999
0.0040463896
0.032310295
0.038208724
0.044666827
0.05168157
0.059216453
0.067160742
0.075350293
0.083535293
0.091383314
0.098424196
0.10399192
0.10714339
0.10657005
0.10055859
0.087152931
0.064608913
0.036014179
0.01715584
0.0091610172
0.0069560317
0.0060667157
0.0054750592
0.0050311939
0.0047428205
0.0045492174
0.0044211507
0.0043407375
0.0042577557
0.0042443414
0.0041087267
0.0040458473
0.033345266
0.039048007
0.045318494
0.052186178
0.059634495
0.067546574
0.075747519
0.083988367
0.091924466
0.099069944
0.10474656
0.10799776
0.10750279
0.10153236
0.08807582
0.065455057
0.036604098
0.01675462
0.0089650628
0.0069641314
0.0060749832
0.0054804491
0.0050327598
0.004742527
0.0045469699
0.0044190734
0.0043396945
0.004255682
0.0042435363
0.0041086056
0.0040452734
0.00091235044
0.0018337595
0.0035670826
0.0061129903
0.0094746431
0.013685558
0.018892508
0.025204413
0.032702025
0.040989985
0.050190094
0.059953504
0.069629531
0.078204634
0.084098054
0.084989987
0.077731128
0.060102496
0.036133758
0.016862793
0.0086489139
0.0063081614
0.005477144
0.0050142035
0.0047379621
0.0045335367
0.0044143925
0.0043173451
0.0042758424
0.004137003
0.0040666228
0.00096914922
0.0018904742
0.0035935386
0.0060702773
0.0093400745
0.013481614
0.018608128
0.024818908
0.032190133
0.040389189
0.04944403
0.059084712
0.06872209
0.077351159
0.083420333
0.084643251
0.077913538
0.060854714
0.037056171
0.017321198
0.0087790928
0.0063378644
0.0054911924
0.0050231624
0.0047433063
0.0045368258
0.00441666
0.0043189339
0.00427673
0.0041380278
0.0040673332
0.0010375379
0.0019483336
0.0036298826
0.0060640136
0.0092720017
0.013331049
0.018350152
0.024430301
0.031638324
0.039711914
0.048645474
0.058188972
0.067782467
0.076458258
0.082699683
0.084257772
0.078068732
0.061614947
0.038024524
0.017836883
0.0089023567
0.0063692087
0.0055054276
0.005032164
0.0047487914
0.0045401755
0.0044190423
0.0043205914
0.0042776044
0.0041395392
0.0040681775
0.0011161949
0.0020123682
0.0036683326
0.0060577715
0.0092026782
0.013178304
0.018089245
0.024032159
0.031082912
0.039023931
0.047830176
0.057267769
0.066809744
0.075524283
0.081933467
0.083829994
0.078191418
0.062381744
0.03902863
0.018406984
0.0090654725
0.0064047126
0.0055219511
0.0050425536
0.0047547283
0.004543913
0.0044215622
0.0043223842
0.0042786668
0.0041406386
0.0040691661
0.0012024953
0.002079828
0.0037070414
0.0060517719
0.0091336681
0.013025477
0.017827778
0.023634447
0.030525342
0.038327982
0.046999589
0.056321566
0.065802841
0.074547407
0.081118838
0.083355897
0.078278293
0.063149785
0.040070942
0.019031389
0.0092134242
0.0064418652
0.0055382729
0.0050526276
0.0047610185
0.0045478667
0.0044243511
0.0043243111
0.0042797114
0.004142567
0.0040704565
0.0013046276
0.0021616739
0.0037542727
0.0060522078
0.0090702519
0.012877203
0.017569797
0.023241251
0.029967994
0.037625684
0.046154556
0.055354341
0.064766849
0.07353284
0.080259814
0.08283673
0.078328938
0.063913056
0.041166855
0.019721021
0.0094238169
0.0064849593
0.0055577615
0.0050648006
0.0047678514
0.0045522391
0.0044272578
0.0043264029
0.0042809604
0.0041443079
0.0040715356
0.0014202845
0.0022501395
0.003807253
0.0060576014
0.0090110817
0.012732256
0.017314291
0.022849563
0.029412275
0.036919056
0.04529969
0.05437948
0.063713638
0.072491628
0.079365155
0.082277335
0.078343912
0.064666544
0.042328464
0.02047142
0.0096053502
0.0065309728
0.0055780662
0.0050770501
0.004775033
0.0045569009
0.0044303291
0.0043285731
0.0042823309
0.0041463762
0.0040726919
0.0015604979
0.0023668348
0.0038768638
0.006076477
0.0089647492
0.012600103
0.017071871
0.022471834
0.02887705
0.036222476
0.04444815
0.053392427
0.062635207
0.071416566
0.078426496
0.081668224
0.078313179
0.065405318
0.043551593
0.021292767
0.0098645811
0.0065816775
0.0055997989
0.0050900834
0.0047825227
0.0045618954
0.0044335074
0.0043308074
0.0042838011
0.0041486888
0.0040739937
0.0017300933
0.0025015385
0.0039672366
0.0061138735
0.008935615
0.012484248
0.016844841
0.022107459
0.028340848
0.035531693
0.043596948
0.052397647
0.061544996
0.070310831
0.07744486
0.081008039
0.078232989
0.066127219
0.044815924
0.022190925
0.010113855
0.0066373466
0.00562346
0.005103796
0.0047905483
0.0045672176
0.0044368236
0.0043331215
0.004285394
0.0041511827
0.0040754157
0.0019319828
0.0026623426
0.0040830845
0.0061755386
0.0089296484
0.012390524
0.01663875
0.021761851
0.027824254
0.03485199
0.042750807
0.051399708
0.060442556
0.069177607
0.0764218
0.080295968
0.078098889
0.06681852
0.046111851
0.023171434
0.010426286
0.0066990496
0.0056484162
0.0051182063
0.0047987783
0.0045729119
0.0044402565
0.0043354507
0.0042870818
0.0041539925
0.0040770042
0.0021762758
0.0028674102
0.0042378892
0.0062717238
0.0089551351
0.012326164
0.016459591
0.021441934
0.027338585
0.034191098
0.041915189
0.050403118
0.059324159
0.068019934
0.075359407
0.079531715
0.077907038
0.067466523
0.047412503
0.024233091
0.010756986
0.0067674373
0.0056760227
0.0051335815
0.0048078276
0.0045789934
0.0044438558
0.0043378256
0.0042889174
0.0041570755
0.004078504
0.0024542134
0.0031127159
0.0044317871
0.0064083372
0.0090194915
0.01229842
0.016315839
0.021152744
0.026885173
0.033563115
0.041097743
0.049413567
0.058200714
0.066841986
0.074260373
0.078715575
0.077654229
0.068064671
0.048707929
0.025380298
0.011143313
0.0068433626
0.0057042782
0.0051492161
0.0048168582
0.0045854291
0.0044476306
0.0043401461
0.0042907983
0.004159952
0.0040802619
0.0027810646
0.0034205375
0.0046987537
0.0066011202
0.0091330666
0.012315589
0.016214347
0.020901566
0.026465336
0.032943475
0.040299478
0.048436087
0.057077365
0.065648037
0.073127934
0.077848527
0.077337875
0.06860563
0.050007802
0.026615149
0.011571223
0.0069289235
0.0057362459
0.0051665588
0.0048271496
0.0045923361
0.0044516063
0.0043424878
0.0042928134
0.0041630986
0.0040818925
0.0031694807
0.0037989984
0.0050207834
0.0068609996
0.009306972
0.012386272
0.016160918
0.02069468
0.026083134
0.032362324
0.03952727
0.04747601
0.055959194
0.064440047
0.071965731
0.076932296
0.076955901
0.069079908
0.051301441
0.027935354
0.012057755
0.007027702
0.0057676881
0.0051832061
0.0048371331
0.0045994353
0.0044558761
0.0043447167
0.0042948281
0.0041662958
0.0040833196
0.0036227473
0.0042430548
0.0054141319
0.0071817288
0.0095401316
0.012512558
0.016158515
0.020536265
0.025744057
0.031828566
0.038788284
0.046538586
0.054851704
0.06322747
0.070778469
0.075969541
0.076507741
0.069477615
0.052584899
0.029340732
0.012602903
0.0071434123
0.0058039291
0.0052025946
0.0048486887
0.0046071162
0.0044602305
0.0043469358
0.0042970623
0.0041699119
0.0040848985
0.0041723201
0.0047765887
0.0058975945
0.0075880091
0.0098392223
0.012695791
0.016207663
0.020427647
0.025450587
0.031338789
0.038098385
0.045632071
0.053762062
0.062028794
0.069572863
0.074964004
0.07599494
0.069793866
0.053847216
0.030817357
0.013215424
0.0072710126
0.0058390553
0.0052206741
0.0048600686
0.0046146058
0.00446496
0.0043490888
0.004299329
0.0041735204
0.004086571
0.0048452796
0.0054139253
0.00646243
0.008051756
0.01019781
0.012932393
0.016305288
0.02036642
0.025201546
0.030888787
0.03742322
0.044753506
0.052692784
0.060827148
0.068352609
0.073919724
0.075420071
0.070032909
0.055082831
0.032405121
0.013904135
0.0074205272
0.0058783547
0.0052410619
0.0048723413
0.0046227238
0.0044693574
0.0043512308
0.0043019878
0.0041761769
0.0040882963
0.0056286806
0.0061428919
0.0070975763
0.0085686929
0.010601216
0.013210532
0.016442355
0.020345265
0.024992391
0.030477106
0.036790201
0.043906182
0.051646704
0.059633417
0.067122282
0.07284047
0.074782497
0.070195946
0.056283635
0.034056307
0.014667489
0.0075854417
0.0059191101
0.0052628204
0.0048857039
0.0046299687
0.0044742861
0.0043536476
0.0043045274
0.0041779987
0.0040900015
0.0065239799
0.0069656833
0.0078100177
0.0091536006
0.011051583
0.013519839
0.016606615
0.020352925
0.024815458
0.03010019
0.036199306
0.043091003
0.050625808
0.058453521
0.065886487
0.071729861
0.074081491
0.070270894
0.057412152
0.035714836
0.015524778
0.0077753477
0.0059588851
0.005281353
0.0048972973
0.0046375747
0.0044786402
0.0043560859
0.0043070619
0.0041812251
0.0040919147
0.0075006615
0.0078708891
0.0085883301
0.0097818116
0.011523945
0.013845225
0.016783832
0.02037594
0.02466054
0.029750664
0.035640497
0.042319275
0.049634425
0.057289382
0.06463685
0.070589871
0.073318913
0.070253367
0.058457182
0.037415442
0.016464825
0.007995393
0.0060076704
0.005309154
0.0049133877
0.0046439088
0.0044843418
0.0043590068
0.0043092614
0.0041838644
0.0040938561
0.0084998849
0.0087994768
0.0094082948
0.010440723
0.012006735
0.014173654
0.016961082
0.020401671
0.024517176
0.029420332
0.035106518
0.041566281
0.048670889
0.056146372
0.063404744
0.069428547
0.072498875
0.070143006
0.059405631
0.03913412
0.017553192
0.0082354129
0.006047734