/*--------------------------------*- C++ -*----------------------------------*\
| =========                 |                                                 |
| \\      /  F ield         | OpenFOAM: The Open Source CFD Toolbox           |
|  \\    /   O peration     | Version:  2406                                  |
|   \\  /    A nd           | Website:  www.openfoam.com                      |
|    \\/     M anipulation  |                                                 |
\*---------------------------------------------------------------------------*/
FoamFile
{
    version     2.0;
    format      ascii;
    arch        "LSB;label=32;scalar=64";
    class       volVectorField;
    location    "0.1";
    object      U;
}
// * * * * * * * * * * * * * * * * * * * * * * * * * * * * * * * * * * * * * //

dimensions      [0 1 -1 0 0 0 0];

internalField   nonuniform List<vector> 
2065
(
(54.807736 0.93876262 -3.9371165e-19)
(53.724946 0.32626372 -2.8621411e-23)
(51.999304 0.27133025 -2.7230925e-25)
(55.684737 0.29430923 5.2414598e-20)
(56.13575 0.97948929 1.2675357e-21)
(56.435528 1.6048488 -1.9532023e-21)
(56.611307 2.1469607 -4.7316469e-20)
(56.696592 2.5937152 -3.69422e-20)
(56.724494 2.9402032 2.7982579e-20)
(56.720146 3.1895986 -4.354504e-20)
(56.706211 3.3476585 -2.6643494e-22)
(56.699131 3.4255921 2.0874219e-22)
(56.708452 3.4319981 -1.6336348e-22)
(56.733219 3.3825423 -3.4257431e-20)
(56.764945 3.2800252 0)
(56.792494 3.1287023 0)
(56.784538 2.9168804 0)
(56.674226 2.6465858 8.9001047e-20)
(56.362872 2.2799662 -4.9145776e-23)
(55.692356 1.693684 1.3819554e-19)
(54.834869 0.93552409 -9.8969129e-23)
(53.734203 0.31726302 5.8498407e-23)
(52.00267 0.2492112 6.2848964e-20)
(41.527416 -3.3884098 6.9437603e-20)
(43.402297 -3.4388787 -5.6825501e-20)
(45.016314 -3.4499065 2.3524447e-20)
(46.506236 -3.4153978 -9.7223973e-21)
(47.929072 -3.3076479 -2.4020979e-20)
(49.300874 -3.1065936 -6.5591032e-20)
(50.611605 -2.7979806 5.3371932e-21)
(51.837202 -2.3787432 4.3082443e-21)
(52.95206 -1.8570673 -3.4503329e-20)
(53.932093 -1.2508523 4.6627206e-20)
(54.757266 -0.58795923 -3.463041e-20)
(55.416795 0.096951058 0)
(55.912604 0.76736229 -1.3218735e-21)
(56.258936 1.390989 3.4839438e-20)
(56.478643 1.9419038 4.9893637e-20)
(56.602345 2.4040598 0)
(56.661904 2.7701214 -3.2126122e-25)
(56.68246 3.0406724 4.7102685e-20)
(56.68717 3.2197864 -2.8397065e-22)
(56.693539 3.3170729 2.2299663e-22)
(56.711951 3.3436301 -1.7397744e-22)
(56.742739 3.3063804 0)
(56.77859 3.2168906 1.1911941e-22)
(56.809272 3.0766334 5.2356197e-20)
(56.803475 2.8760086 9.1173133e-23)
(56.696142 2.6162951 -4.8168124e-23)
(56.390433 2.2591618 -5.1596435e-23)
(55.725754 1.6863715 -2.8636178e-19)
(54.864059 0.93190966 4.159066e-19)
(53.744329 0.30714577 8.9341441e-23)
(52.007073 0.23375087 -2.117767e-24)
(41.625042 -3.305905 -1.6114087e-20)
(43.441539 -3.3510867 -2.6595654e-20)
(45.001519 -3.3626431 2.2220773e-20)
(46.429697 -3.3303654 -9.2705638e-21)
(47.785052 -3.2354162 2.312416e-20)
(49.09043 -3.0591307 3.1894107e-20)
(50.344476 -2.7867398 -5.2454357e-21)
(51.529955 -2.4119265 -7.1218996e-25)
(52.624191 -1.9381646 3.4604999e-21)
(53.603683 -1.3782787 -2.7783356e-21)
(54.446792 -0.75501037 2.2114883e-21)
(55.138949 -0.099087847 0)
(55.676754 0.55499598 0)
(56.068735 1.1746699 2.5927192e-24)
(56.333065 1.7322098 0)
(56.496887 2.2083277 0)
(56.590188 2.593115 -3.248935e-20)
(56.637796 2.8845344 3.8775875e-22)
(56.663131 3.0848577 3.9008596e-20)
(56.684474 3.2020069 -4.7516622e-22)
(56.713509 3.246534 1.8866532e-22)
(56.751269 3.2249075 0)
(56.791867 3.149241 -6.482825e-20)
(56.826173 3.0206947 -2.199719e-22)
(56.822851 2.8324033 9.6689478e-23)
(56.718933 2.5836244 -9.9397803e-20)
(56.419286 2.2364239 -5.403711e-23)
(55.761099 1.677986 1.6258018e-24)
(54.895344 0.92789545 -4.2499469e-19)
(53.755377 0.29578485 0)
(52.01201 0.21284635 0)
(41.714584 -3.296031 0)
(43.474037 -3.3369123 -2.3790519e-24)
(44.984475 -3.3427598 0)
(46.353988 -3.3074924 -1.7628712e-20)
(47.645685 -3.2166693 -2.3414973e-24)
(48.888312 -3.0541379 -3.7074207e-20)
(50.087183 -2.8060372 0)
(51.231179 -2.4644424 -3.3803807e-20)
(52.301171 -2.0293259 0)
(53.27518 -1.5091461 0)
(54.131028 -0.92185227 4.496893e-21)
(54.851433 -0.29395856 -6.0919789e-20)
(55.428271 0.34284559 -4.5355649e-20)
(55.864703 0.95662731 -3.6757397e-20)
(56.174048 1.5186417 8.7069592e-22)
(56.379481 2.0070884 0)
(56.508549 2.4095238 -3.4319872e-20)
(56.585391 2.7213127 8.2215039e-22)
(56.633419 2.9428269 -4.1437296e-20)
(56.671499 3.0802272 -2.5284335e-22)
(56.712589 3.1431324 -5.1294787e-20)
(56.758459 3.1378291 0)
(56.804593 3.0767969 6.9114237e-20)
(56.843067 2.9606348 -5.9221898e-20)
(56.842708 2.7854804 6.6496488e-26)
(56.742554 2.5483395 -1.0238133e-22)
(56.449434 2.2115661 5.6545992e-23)
(55.798434 1.6683934 1.5252149e-19)
(54.928963 0.92346268 -4.3263127e-19)
(53.767607 0.28318692 1.8270029e-22)
(52.01773 0.18582422 3.9417913e-20)
(41.793221 -3.3848485 2.7640498e-20)
(43.489783 -3.4323319 2.1509287e-20)
(44.949677 -3.4044189 0)
(46.265216 -3.3548323 -1.6712418e-20)
(47.499542 -3.2558483 4.2433343e-20)
(48.684948 -3.0948245 1.1917457e-20)
(49.832089 -2.8589634 1.9975866e-20)
(50.935399 -2.5392976 2.4910135e-20)
(51.979586 -2.1331609 0)
(52.944809 -1.6453868 0)
(53.809321 -1.0895698 -3.6352638e-20)
(54.554025 -0.48787039 5.8443586e-20)
(55.167023 0.13135146 9.0311332e-20)
(55.646528 0.73763729 2.3059441e-21)
(56.001018 1.3020494 0)
(56.249355 1.8010308 4.5520675e-20)
(56.416148 2.2198077 1.1118842e-21)
(56.524436 2.5512416 5.4735719e-20)
(56.59732 2.7937422 -4.3568096e-20)
(56.654056 2.9516553 3.4616558e-20)
(56.708803 3.0334997 5.4516693e-20)
(56.763996 3.044908 4.3651258e-20)
(56.816491 2.9993665 7.3281264e-20)
(56.85979 2.8963017 -6.2941416e-20)
(56.862828 2.7350285 0)
(56.766975 2.510249 -1.1040301e-19)
(56.480865 2.1843982 0)
(55.837822 1.6574301 1.5696324e-19)
(54.965054 0.91860311 4.3863544e-19)
(53.781216 0.26943834 0)
(52.024415 0.15251216 -4.069498e-20)
(41.849928 -3.544389 -5.1032953e-20)
(43.475646 -3.5734136 -1.9007235e-20)
(44.881278 -3.5340554 -1.4152927e-24)
(46.148021 -3.4643677 4.7392254e-20)
(47.333067 -3.3496713 0)
(48.468825 -3.1807517 1.1454795e-20)
(49.569901 -2.9465328 -9.6793642e-21)
(50.635678 -2.6381526 -8.1219076e-21)
(51.654744 -2.2514454 6.7590256e-21)
(52.609824 -1.7884717 0)
(53.480294 -1.2589915 3.652242e-20)
(54.246222 -0.68094612 0)
(54.892801 -0.079008152 -9.231786e-20)
(55.413952 0.51854665 -4.0395701e-20)
(55.813497 1.0833886 0)
(56.105825 1.5909808 -4.7503748e-20)
(56.312195 2.0245651 3.8486183e-20)
(56.454136 2.3746735 -5.9485543e-20)
(56.554106 2.6377388 4.5320695e-20)
(56.631536 2.8162677 -3.5811521e-20)
(56.701549 2.917528 0)
(56.767385 2.9503459 3.5708666e-22)
(56.827432 2.9167082 -1.5605157e-19)
(56.876125 2.8274934 6.6793444e-20)
(56.883087 2.6805974 -1.1660819e-22)
(56.792124 2.469093 1.1600339e-19)
(56.513549 2.154704 1.2287462e-22)
(55.879286 1.644933 -1.6104357e-19)
(55.003796 0.91331996 -4.4299049e-19)
(53.796567 0.254756 1.2225155e-22)
(52.03252 0.11310959 0)
(41.846477 -3.8273863 2.2037891e-20)
(43.416688 -3.7888095 -3.7266631e-20)
(44.767586 -3.7378577 1.7262376e-20)
(45.990089 -3.6362095 -5.9549183e-20)
(47.13317 -3.4961285 0)
(48.227662 -3.3100469 2.1931016e-20)
(49.290237 -3.067769 0)
(50.323964 -2.7609386 -7.9048646e-21)
(51.320941 -2.3846813 6.6355818e-21)
(52.266609 -1.9390252 0)
(53.141988 -1.4305057 4.5627116e-21)
(53.927089 -0.87308581 -3.7318847e-21)
(54.605189 -0.28763475 5.1457964e-20)
(55.16666 0.30030185 3.6517221e-20)
(55.611032 0.8637307 -1.9441557e-21)
(55.94824 1.3779038 -9.5530656e-25)
(56.195913 1.8245414 1.2179347e-21)
(56.373673 2.1920942 9.6080424e-22)
(56.503003 2.4750601 4.7740315e-20)
(56.60326 2.6740883 6.0056404e-22)
(56.690177 2.7950469 3.1315846e-25)
(56.768428 2.8466351 -4.9573723e-20)
(56.837213 2.8285153 1.6453534e-19)
(56.891954 2.7541907 -2.7532517e-22)
(56.903405 2.6218118 -6.3028355e-20)
(56.8179 2.424531 1.1873219e-22)
(56.547442 2.1222505 -1.2761211e-22)
(55.92284 1.6307251 1.6048054e-22)
(55.045359 0.9076298 4.4530626e-19)
(53.814016 0.23952502 0)
(52.042502 0.068289122 0)
(41.774987 -4.1135894 -1.9961771e-20)
(43.276497 -4.0871377 7.5677375e-25)
(44.585384 -3.9942859 -2.667524e-24)
(45.773591 -3.8569561 2.7972107e-20)
(46.88462 -3.686553 2.4240167e-20)
(47.94823 -3.4766004 -1.0454113e-20)
(48.981981 -3.2185364 -8.9772753e-21)
(49.991453 -2.9051787 -2.2976245e-20)
(50.971702 -2.5316038 1.9451607e-20)
(51.91082 -2.0964957 5.4448324e-21)
(52.791833 -1.6037305 -4.5321699e-21)
(53.595322 -1.0637362 0)
(54.303598 -0.49369786 0)
(54.904311 0.083994347 2.4811477e-21)
(55.393233 0.64428281 -1.9947649e-21)
(55.776028 1.1629182 -1.5946274e-21)
(56.066575 1.6206392 1.2666742e-21)
(56.282251 2.0041354 6.4260419e-20)
(56.443223 2.3060718 -1.0101928e-19)
(56.568516 2.5252439 4.0881243e-25)
(56.674224 2.6659999 -5.0604298e-22)
(56.766543 2.73587 0)
(56.845379 2.7344114 -8.7056374e-20)
(56.907114 2.6763671 0)
(56.923547 2.5587821 6.615281e-20)
(56.844216 2.3761026 1.241142e-22)
(56.58247 2.0868063 1.320978e-22)
(55.968476 1.6146166 0)
(55.089912 0.9015688 -4.4585178e-19)
(53.833879 0.22435974 0)
(52.054409 0.019309291 0)
(41.593608 -4.4932574 -1.9375814e-20)
(43.036564 -4.4314749 -1.7042319e-20)
(44.315626 -4.290791 2.9924231e-20)
(45.480885 -4.1147787 -2.6205547e-20)
(46.572219 -3.9096046 -2.2865835e-20)
(47.617545 -3.670659 -1.0957099e-24)
(48.634193 -3.3913127 1.7195666e-20)
(49.629316 -3.0655628 2.9543812e-20)
(50.60034 -2.6887323 -2.5205908e-20)
(51.537787 -2.2586887 -3.2016219e-20)
(52.426853 -1.7772039 2.6881427e-20)
(53.24934 -1.2517526 -7.4562123e-21)
(53.987302 -0.69602289 4.9186509e-20)
(54.626551 -0.12908129 5.0245388e-21)
(55.159771 0.42641029 2.0375818e-21)
(55.588712 0.94730879 -1.6388296e-21)
(55.923537 1.4139289 0)
(56.179111 1.8115879 -6.6878838e-20)
(56.373983 2.1312778 5.4058773e-20)
(56.526572 2.3699803 -6.6309485e-22)
(56.653122 2.5304453 -5.3263317e-22)
(56.76132 2.6189118 4.3243268e-22)
(56.851494 2.6340597 8.9360311e-20)
(56.920762 2.5943274 -2.0088749e-25)
(56.943344 2.4912607 5.4428447e-22)
(56.870954 2.3233587 1.7169237e-25)
(56.618524 2.0481547 -4.0939299e-22)
(56.016154 1.5964041 1.6586648e-22)
(55.137605 0.89519085 4.1661561e-24)
(53.856527 0.21014836 0)
(52.068478 -0.032013425 0)
(41.277962 -4.8850633 -1.7974134e-20)
(42.681445 -4.7750498 -3.9327501e-24)
(43.940635 -4.5976579 -2.7729653e-20)
(45.096629 -4.3850075 2.4456643e-20)
(46.183071 -4.1452292 2.1511428e-20)
(47.22458 -3.8765484 3.7650083e-20)
(48.237463 -3.5742375 -8.1974128e-20)
(49.229764 -3.2334554 -2.8389137e-20)
(50.200748 -2.8500471 -1.2199596e-20)
(51.143087 -2.4215462 5.202284e-20)
(52.044187 -1.9482448 8.4189813e-24)
(52.887515 -1.4352135 0)
(53.655553 -0.89297714 -9.8268934e-20)
(54.333072 -0.33734736 0)
(54.910414 0.21167315 7.0309761e-20)
(55.385944 0.7325327 -3.3519589e-21)
(55.766261 1.2056562 2.7011899e-21)
(56.063567 1.6154118 6.4945178e-20)
(56.294527 1.9513336 1.7310525e-21)
(56.476685 2.2086712 0)
(56.626211 2.3885495 5.5832111e-22)
(56.752034 2.4958153 -4.5405892e-22)
(56.854936 2.5333914 -1.8618619e-19)
(56.933044 2.5054012 -3.2041925e-22)
(56.962594 2.4188228 -7.2894048e-20)
(56.897947 2.2659012 -2.6982254e-22)
(56.655455 2.0060859 2.8098344e-22)
(56.065801 1.5758723 0)
(55.188552 0.88853608 8.8251745e-19)
(53.882653 0.19805438 -4.7915486e-19)
(52.085176 -0.083127383 3.0672042e-20)
(40.837054 -5.2368859 -3.2632395e-20)
(42.206472 -5.0904156 -3.4084998e-24)
(43.456246 -4.8820974 7.6824079e-20)
(44.616019 -4.638147 -2.2778103e-20)
(45.711669 -4.3688315 -3.3697723e-25)
(46.76354 -4.0744572 -1.7771647e-20)
(47.786127 -3.7518207 -9.9126242e-24)
(48.787608 -3.3971819 2.7159093e-20)
(49.768516 -3.0071068 0)
(50.723311 -2.5791991 0)
(51.641551 -2.1128418 8.7619496e-24)
(52.50855 -1.6112905 -5.8237994e-20)
(53.307758 -1.0823633 4.2697627e-20)
(54.023701 -0.538882 -1.9845659e-24)
(54.645102 0.001861174 -6.259747e-20)
(55.167539 0.52023474 -5.455004e-20)
(55.594358 0.99724678 2.7659686e-21)
(55.935037 1.4167437 -7.3616758e-20)
(56.204157 1.7670574 -1.7947314e-21)
(56.418125 2.0418265 4.6180235e-20)
(56.592798 2.2405322 7.6933156e-20)
(56.737891 2.3665279 -9.5023004e-22)
(56.855558 2.424044 3.7790089e-24)
(56.943898 2.410576 0)
(56.981017 2.3410495 7.6049119e-20)
(56.924992 2.2032747 2.798953e-22)
(56.693069 1.9604135 1.8693373e-25)
(56.117305 1.5527962 -3.3816398e-22)
(55.242806 0.88159581 -2.1792809e-22)
(53.912748 0.18957889 4.6978975e-19)
(52.10486 -0.13064723 -2.4350003e-20)
(40.267989 -5.5077107 1.4756531e-20)
(41.616885 -5.3347447 2.6168173e-20)
(42.869413 -5.1059988 -2.3574157e-20)
(44.044739 -4.8418214 2.1143472e-20)
(45.161619 -4.5533688 1.8850628e-20)
(46.23606 -4.2421885 -1.6731828e-20)
(47.280247 -3.9062941 2.951941e-20)
(48.301854 -3.54297 -2.5904924e-20)
(49.302163 -3.1496285 -1.1283494e-20)
(50.276974 -2.7242317 9.7588848e-21)
(51.217773 -2.2657821 -3.3512115e-20)
(52.111796 -1.7762505 6.4216873e-20)
(52.943741 -1.2613447 -6.0250859e-21)
(53.698549 -0.7313752 4.0361306e-20)
(54.364012 -0.20098281 -6.6993348e-20)
(54.933539 0.31225357 5.5135487e-20)
(55.407628 0.79030385 2.8161905e-21)
(55.793079 1.2169001 -2.2858831e-21)
(56.102256 1.5794387 0)
(56.3502 1.8701072 -4.9337463e-20)
(56.552201 2.0867397 -1.5393437e-19)
(56.71846 2.2311281 -6.341093e-20)
(56.852738 2.3062439 3.8863815e-24)
(56.952804 2.3096885 -8.8820739e-20)
(56.998331 2.2575111 -3.0860407e-22)
(56.951802 2.1349449 -1.4841484e-19)
(56.731107 1.911 0)
(56.17051 1.5269449 -3.3981237e-22)
(55.300343 0.87432859 -4.2941572e-19)
(53.946852 0.18661761 0)
(52.12764 -0.17046554 -1.6639903e-20)
(39.604736 -5.6595153 2.6631907e-20)
(40.941702 -5.472801 0)
(42.203987 -5.238158 -1.0825277e-20)
(43.401799 -4.9686138 -5.8711784e-20)
(44.54744 -4.6748664 1.7580204e-20)
(45.652612 -4.3591505 1.5699535e-20)
(46.726877 -4.0204217 0)
(47.776856 -3.6568646 1.2299555e-20)
(48.804106 -3.2666953 -1.0788679e-20)
(49.805311 -2.8483808 0)
(50.773482 -2.4009655 3.2475219e-20)
(51.697653 -1.9256104 0)
(52.564009 -1.4265963 -5.9216204e-21)
(53.358202 -0.91217452 -7.9897496e-20)
(54.067679 -0.39459287 7.0980445e-20)
(54.684291 0.11060566 0)
(55.206114 0.58660731 0)
(55.637436 1.0173738 7.4572464e-20)
(55.988337 1.3896421 0)
(56.272283 1.6943371 1.541525e-21)
(56.503764 1.9276864 -1.2528818e-21)
(56.693271 2.0899132 6.5821843e-20)
(56.846096 2.1827149 2.1965758e-19)
(56.9593 2.2024486 8.9982784e-20)
(57.014255 2.1677317 0)
(56.97819 2.0602293 1.5147637e-19)
(56.769217 1.8578067 0)
(56.225218 1.4980868 -3.400534e-22)
(55.361039 0.86665746 6.1763432e-22)
(53.984909 0.19153041 -1.7173495e-22)
(52.153913 -0.19809192 9.4351958e-21)
(38.896769 -5.6761439 -2.3979788e-20)
(40.224389 -5.4893617 1.081388e-20)
(41.496957 -5.2628709 -2.9766853e-20)
(42.717775 -5.0025637 3.6147054e-20)
(43.893586 -4.7176726 -1.6360568e-20)
(45.032034 -4.4105635 0)
(46.139943 -4.0807789 2.6272954e-20)
(47.222486 -3.7271334 -3.1860283e-24)
(48.281029 -3.3484481 0)
(49.312702 -2.9436946 0)
(50.311564 -2.5121696 9.4478489e-24)
(51.268126 -2.0546741 0)
(52.170063 -1.5745471 0)
(53.003905 -1.07842 4.4239924e-20)
(53.757109 -0.57654411 -4.1401195e-21)
(54.420494 -0.082548462 0)
(54.990158 0.38808991 0)
(55.468085 0.81982076 -7.3192805e-20)
(55.862072 1.1990036 -1.9336213e-21)
(56.183846 1.5155091 -5.0565908e-20)
(56.446865 1.764046 1.6539574e-19)
(56.661698 1.9433327 6.8010052e-20)
(56.834801 2.053792 -4.2262579e-24)
(56.962796 2.0971042 0)
(57.028635 2.0711585 -8.5271905e-20)
(57.003774 1.9802254 1.5249183e-19)
(56.807016 1.8009322 0)
(56.281189 1.4659983 3.3907464e-22)
(55.424631 0.85844792 -4.0235954e-22)
(54.024393 0.21036861 0)
(52.18529 -0.21269068 0)
(38.186533 -5.5713043 -7.5496874e-20)
(39.503696 -5.3945711 1.9606516e-20)
(40.783344 -5.185772 4.5564767e-24)
(42.023602 -4.945026 3.3342942e-20)
(43.226599 -4.6796665 1.5185635e-20)
(44.396345 -4.3918006 -2.7481299e-20)
(45.537073 -4.0811828 7.4081545e-20)
(46.652353 -3.7469078 -2.2042228e-20)
(47.743038 -3.3880954 -1.9548405e-20)
(48.806405 -3.0039996 5.1641095e-20)
(49.837157 -2.5941349 -4.5149926e-20)
(50.826942 -2.1591339 -1.3070001e-20)
(51.76465 -1.7017031 1.1260306e-20)
(52.637726 -1.2272304 4.8149938e-20)
(53.433894 -0.74434109 5.7176455e-20)
(54.143297 -0.26496456 6.872756e-21)
(54.760464 0.19678337 -5.7359502e-21)
(55.285289 0.62603185 0)
(55.723346 1.0090172 -5.8824499e-20)
(56.084496 1.3347819 9.8286959e-20)
(56.380949 1.5966434 -8.340721e-20)
(56.623084 1.7918705 -6.9932278e-20)
(56.817838 1.9196236 -1.1667318e-19)
(56.96335 1.9851161 0)
(57.041903 1.9682168 8.4863997e-20)
(57.02753 1.8980708 -1.5221326e-19)
(56.844242 1.7405561 1.5834356e-19)
(56.338153 1.4304502 0)
(55.490729 0.84946114 3.9203185e-22)
(54.070303 0.23007168 -6.929673e-23)
(52.225815 -0.20101241 0)
(37.509758 -5.3615707 0)
(38.81291 -5.2025696 1.7767715e-20)
(40.094142 -5.0178633 -1.6597046e-20)
(41.347713 -4.8036837 -1.5351361e-20)
(42.571981 -4.5654386 -1.4087268e-20)
(43.767811 -4.3047438 -2.5635889e-20)
(44.937103 -4.0212926 2.317105e-20)
(46.08188 -3.7141957 4.1574776e-20)
(47.202359 -3.3825884 -2.8628733e-24)
(48.295808 -3.0257643 1.1330987e-23)
(49.357299 -2.6433021 2.8834237e-20)
(50.379302 -2.2356767 -1.2585813e-20)
(51.351687 -1.8050834 5.4544646e-20)
(52.26264 -1.3559248 8.4899908e-24)
(53.100294 -0.89557161 -6.4086253e-20)
(53.854375 -0.43441242 0)
(54.518138 0.014763383 -4.5644777e-20)
(55.089646 0.4378869 -7.6202446e-20)
(55.572299 0.82130913 6.3233915e-20)
(55.974019 1.1534698 1.2524831e-24)
(56.305566 1.4264562 -8.6337342e-20)
(56.576851 1.636121 -6.9298388e-20)
(56.794821 1.7804476 -1.2149861e-19)
(56.959929 1.8626494 1.0175602e-19)
(57.052809 1.8692284 0)
(57.049591 1.8131538 -1.5422459e-19)
(56.88073 1.6766366 -1.5898168e-19)
(56.395811 1.3911805 -6.6665293e-22)
(55.558874 0.83931468 3.8043874e-22)
(54.121228 0.25441477 -8.3507958e-23)
(52.260768 -0.19848071 5.6431824e-20)
(36.888081 -5.0819799 0)
(38.171927 -4.9442194 2.4149979e-20)
(39.448345 -4.7857233 -2.2745051e-20)
(40.708534 -4.6003262 -4.2394637e-20)
(41.947554 -4.3918733 6.5221575e-20)
(43.163373 -4.1615954 -3.5819416e-20)
(44.355697 -3.9091345 -2.1690633e-20)
(45.525065 -3.6335402 4.4128518e-24)
(46.67106 -3.3337886 -3.5034639e-20)
(47.790932 -3.0089764 -3.115028e-20)
(48.880037 -2.6584935 8.7691086e-24)
(49.931491 -2.282498 4.8309721e-20)
(50.935998 -1.8825872 -8.4185133e-20)
(51.882431 -1.4623799 -2.7308977e-20)
(52.759253 -1.0281259 -7.8190149e-21)
(53.555959 -0.58880821 5.3335455e-20)
(54.264768 -0.15595495 -5.827714e-24)
(54.882129 0.25728641 7.5842855e-20)
(55.409367 0.63759835 3.9602795e-21)
(55.852415 0.97302387 3.2181685e-24)
(56.220411 1.2546172 8.4742335e-20)
(56.522518 1.4768896 1.4328516e-19)
(56.765487 1.6367751 3.8172521e-21)
(56.951305 1.7352844 -2.0944734e-19)
(57.060467 1.7692596 8.8305141e-20)
(57.070191 1.7249283 1.5587772e-19)
(56.916264 1.6091183 6.2564942e-22)
(56.453835 1.3478841 0)
(55.628584 0.82753114 -3.6796833e-22)
(54.176121 0.27988133 -7.1242328e-20)
(52.297009 -0.2177113 -1.0130321e-21)
(36.346712 -4.7438499 0)
(37.603099 -4.6308014 0)
(38.865774 -4.5005461 6.9268772e-21)
(40.123751 -4.3458876 1.2994921e-20)
(41.369298 -4.1693349 -1.2075372e-20)
(42.597647 -3.9717271 1.1114328e-20)
(43.806276 -3.7526594 -2.0289925e-20)
(44.994155 -3.5111501 1.8377443e-20)
(46.160129 -3.2460401 1.6526692e-20)
(47.30139 -2.95621 0)
(48.413559 -2.6407849 -3.9301428e-20)
(49.490333 -2.2995287 -6.9294855e-20)
(50.523126 -1.9334486 9.102392e-20)
(51.501528 -1.5453851 -2.6392251e-20)
(52.414314 -1.1404723 -6.0782458e-20)
(53.250809 -0.7264327 -5.211446e-20)
(54.002417 -0.31353621 3.3281362e-20)
(54.664115 0.086096166 7.9757248e-20)
(55.235317 0.45964592 3.9441315e-21)
(55.719943 0.79500028 -5.6082726e-20)
(56.125359 1.0824 -2.7542512e-21)
(56.45971 1.3151375 -7.1332917e-20)
(56.72934 1.4891687 1.2384306e-19)
(56.936839 1.6032171 1.0556415e-19)
(57.064105 1.6558433 -8.8154225e-20)
(57.088755 1.633036 1.5809815e-19)
(56.950583 1.5376637 -1.6019696e-19)
(56.511866 1.3002087 0)
(55.699432 0.81360034 3.6286948e-19)
(54.23501 0.305305 5.6976705e-20)
(52.341959 -0.2014055 7.4154796e-22)
(35.893091 -4.3967072 5.6680142e-20)
(37.113996 -4.3058929 -5.2947596e-20)
(38.354037 -4.2004642 9.4912369e-20)
(39.600929 -4.0729598 1.1727447e-25)
(40.844749 -3.9249425 -3.3504939e-20)
(42.078228 -3.7570581 4.1328158e-20)
(43.296576 -3.5690106 -5.685527e-20)
(44.497009 -3.3599262 3.4484883e-20)
(45.677414 -3.1286073 -3.1144245e-20)
(46.834782 -2.8737325 2.7932256e-20)
(47.964961 -2.5940768 -2.4884726e-20)
(49.062222 -2.2888904 -6.1856024e-24)
(50.118717 -1.958485 -3.8746236e-20)
(51.12472 -1.6047868 3.3858954e-20)
(52.06944 -1.2318332 5.8786927e-20)
(52.942127 -0.84605221 0)
(53.73354 -0.45642854 5.4277648e-21)
(54.437375 -0.073967491 -8.3108463e-20)
(55.05127 0.28918831 7.8094937e-21)
(55.577151 0.62101617 -6.5721049e-21)
(56.020501 0.9111933 8.8240056e-20)
(56.388191 1.1519639 2.314115e-21)
(56.685912 1.338374 -1.9533356e-21)
(56.915978 1.4671101 1.6663916e-21)
(57.06291 1.5456099 0)
(57.104795 1.535323 1.2727213e-21)
(56.983392 1.4610743 -1.2387623e-21)
(56.569465 1.2478019 0)
(55.771007 0.79694754 -3.499016e-19)
(54.297414 0.32962752 6.681996e-23)
(52.386143 -0.22420954 -4.0445284e-21)
(35.525636 -4.0362949 -3.1993811e-21)
(36.703504 -3.967247 0)
(37.912741 -3.8856186 5.7838664e-21)
(39.14048 -3.7840891 -4.3967346e-20)
(40.375147 -3.6634243 9.5367446e-26)
(41.607225 -3.524023 6.310612e-26)
(42.829602 -3.3656537 5.3060536e-20)
(44.037507 -3.1875962 3.2316617e-20)
(45.227557 -2.9887533 -2.9297231e-20)
(46.396297 -2.7677806 2.6372353e-20)
(47.539698 -2.523261 -2.3581845e-20)
(48.652593 -2.2540458 2.0951364e-20)
(49.727926 -1.9598049 0)
(50.756724 -1.6416021 -1.6239617e-20)
(51.728741 -1.3022936 -4.2493089e-20)
(52.633389 -0.94704316 6.1368742e-20)
(53.460948 -0.58349606 -2.1134174e-20)
(54.20404 -0.22143184 9.0400473e-21)
(54.858699 0.12785396 0)
(55.424896 0.45269063 0)
(55.906175 0.7424654 -9.0597666e-20)
(56.307916 0.9885776 2.3145449e-21)
(56.634891 1.1851288 0)
(56.888393 1.3270095 0)
(57.057085 1.422024 0)
(57.117834 1.4272803 -1.6713004e-19)
(57.013982 1.3780384 1.5696017e-19)
(56.62602 1.19044 6.18539e-22)
(55.842838 0.77704025 6.538055e-22)
(54.363556 0.35155848 1.7622643e-23)
(52.431501 -0.2226317 1.403746e-20)
(35.247981 -3.6933319 -4.3388838e-20)
(36.376169 -3.6430492 4.9139e-20)
(37.546515 -3.5816224 -4.7588845e-20)
(38.746493 -3.5022255 1.0894694e-25)
(39.963755 -3.4050067 3.8184727e-20)
(41.187125 -3.2901614 0)
(42.407384 -3.1575689 -1.6499066e-20)
(43.617651 -3.0067595 3.0254926e-20)
(44.812918 -2.8368862 -2.752503e-20)
(45.98887 -2.6467507 -2.9039818e-24)
(47.141294 -2.4348929 -4.4610216e-20)
(48.265399 -2.1998796 -7.3402981e-25)
(49.354883 -1.9408112 1.7624311e-20)
(50.401687 -1.6578605 1.5527598e-20)
(51.396193 -1.352767 4.0787191e-20)
(52.328151 -1.0294492 -4.7340849e-20)
(53.18768 -0.69409718 0)
(53.966547 -0.35517336 8.8090131e-21)
(54.659396 -0.022935021 -6.7791829e-20)
(55.264346 0.29157652 -5.1279161e-20)
(55.782989 0.57772349 -5.4366365e-21)
(56.219063 0.82630672 8.2883192e-20)
(56.576222 1.0304695 -1.9542155e-21)
(56.854697 1.1835777 1.0555222e-19)
(57.046537 1.2887138 0)
(57.126399 1.3105672 1.6724119e-19)
(57.041227 1.2881519 -1.5501625e-19)
(56.680782 1.1281322 -6.0228282e-22)
(55.914346 0.75331271 -6.2541597e-22)
(54.432787 0.36742113 1.2136728e-22)
(52.489158 -0.24756658 -5.8600656e-21)
(35.052754 -3.3611881 8.3815479e-20)
(36.125488 -3.3276111 -4.9650975e-21)
(37.249994 -3.2844937 -9.8431298e-26)
(38.414741 -3.2253524 -3.7188486e-20)
(39.607307 -3.14971 0)
(40.815435 -3.0574673 8.2795892e-21)
(42.028108 -2.9484889 1.5374587e-20)
(43.236334 -2.8224726 2.8301191e-20)
(44.433199 -2.6788378 -5.1664381e-20)
(45.613107 -2.516655 7.0209675e-20)
(46.771273 -2.3346239 -4.212473e-20)
(47.902998 -2.1312682 1.8836831e-20)
(49.0026 -1.9053436 -1.6747988e-20)
(50.062916 -1.6563254 2.9609605e-20)
(51.075221 -1.3850197 -6.5069189e-20)
(52.029791 -1.0940496 4.5497446e-20)
(52.916824 -0.78819577 0)
(53.727543 -0.47451823 6.8332832e-20)
(54.455428 -0.16202599 1.174536e-19)
(55.096958 0.1390906 5.6509213e-20)
(55.651823 0.41846254 -5.3500729e-21)
(56.122037 0.66658209 -7.2855077e-20)
(56.509992 0.87576234 6.5993215e-20)
(56.815085 1.0382411 -1.1330547e-19)
(57.031625 1.1534534 2.9011808e-21)
(57.130416 1.1870625 -7.3270001e-24)
(57.064076 1.1914848 1.5370608e-19)
(56.732849 1.0611945 1.171106e-21)
(55.984809 0.72533542 -1.1939505e-21)
(54.502578 0.37382948 0)
(52.5496 -0.25406393 1.2550498e-20)
(34.941221 -3.052773 -3.5624907e-20)
(35.954497 -3.0338694 7.2324216e-20)
(37.027069 -3.0063399 -7.0829228e-20)
(38.14914 -2.9646475 3.4207649e-20)
(39.309083 -2.9078257 0)
(40.494402 -2.8353867 2.3050726e-20)
(41.692911 -2.7470809 -5.7299887e-20)
(42.89381 -2.6427112 8.1098678e-26)
(44.088197 -2.5219579 4.8441948e-20)
(45.268838 -2.3842268 -2.2007546e-20)
(46.429906 -2.2285177 0)
(47.566348 -2.053506 1.7811383e-20)
(48.672793 -1.8578251 -1.5880549e-20)
(49.742829 -1.6404926 0)
(50.768659 -1.4014979 4.9666514e-20)
(51.74131 -1.1423119 -4.356593e-20)
(52.651321 -0.86636349 0)
(53.489695 -0.57925375 -1.2371228e-19)
(54.249035 -0.28860532 -6.4086556e-20)
(54.924426 -0.0035564032 0)
(55.513808 0.26610051 -5.2411315e-21)
(56.017447 0.51087241 4.4775383e-21)
(56.436363 0.72250351 -6.5137912e-20)
(56.769179 0.89266433 6.5931704e-21)
(57.011391 1.017586 -2.8704861e-21)
(57.129538 1.0754488 -1.557626e-19)
(57.082877 1.0878716 1.1622048e-21)
(56.780834 0.99036275 1.1337356e-21)
(56.053406 0.69250553 2.9072286e-19)
(54.574844 0.3754095 2.2807683e-19)
(52.613723 -0.16135421 0)
(34.905977 -2.7665063 -6.8313863e-20)
(35.857003 -2.7619722 0)
(36.872852 -2.7478741 0)
(37.946029 -2.7212 5.5070943e-20)
(39.066367 -2.6808581 -6.0278818e-20)
(40.221866 -2.6259896 0)
(41.399848 -2.556087 0)
(42.588164 -2.4709125 -1.2357424e-20)
(43.776058 -2.3703042 0)
(44.954453 -2.2539707 0)
(46.11608 -2.1212757 1.8705031e-20)
(47.255051 -1.9712012 5.0448331e-20)
(48.36589 -1.8024875 -3.0062209e-20)
(49.442678 -1.6139555 2.6728137e-20)
(50.478458 -1.4050045 -1.1818437e-20)
(51.465128 -1.1761918 -2.0801636e-20)
(52.393799 -0.92968184 -1.1447686e-24)
(53.255566 -0.66964807 7.1396852e-20)
(54.042516 -0.40226495 5.5030091e-20)
(54.748623 -0.13543237 -4.7498511e-20)
(55.370292 0.12190212 8.6804463e-20)
(55.906096 0.36059962 -4.3810082e-21)
(56.355607 0.5721792 3.7628943e-21)
(56.716582 0.74823883 -3.2433171e-21)
(56.984388 0.88217099 0)
(57.123535 0.96225731 1.4957597e-19)
(57.097908 0.98308271 2.204879e-21)
(56.824797 0.91656113 -1.0945158e-21)
(56.119134 0.65415277 -2.7596611e-19)
(54.645675 0.35445535 -3.4201244e-19)
(52.694992 -0.26440687 1.8222748e-24)
(34.940355 -2.5102937 3.0492258e-25)
(35.829286 -2.5111145 -3.7177355e-21)
(36.785595 -2.5106452 0)
(37.804977 -2.4969503 -5.0669141e-20)
(38.879431 -2.4708802 5.5691103e-20)
(39.998231 -2.4315145 0)
(41.148986 -2.3780105 -4.9656186e-20)
(42.318865 -2.3099163 5.7676611e-20)
(43.495646 -2.2270899 0)
(44.668443 -2.1294589 0)
(45.828268 -2.0167431 -1.7592641e-20)
(46.967942 -1.8883142 -3.1708066e-20)
(48.081384 -1.7431928 0)
(49.162761 -1.5802398 0)
(50.205691 -1.3985683 -4.4900509e-20)
(51.202944 -1.1980145 0)
(52.146394 -0.97969057 -5.2198537e-20)
(53.027476 -0.74644854 1.5208512e-20)
(53.838106 -0.50301362 -1.0588787e-19)
(54.571503 -0.25594816 4.5877763e-20)
(55.222779 -0.013101979 -1.634193e-19)
(55.788963 0.21705224 4.265543e-21)
(56.268142 0.42619259 5.8802187e-20)
(56.657091 0.60625522 1.0165321e-19)
(56.950146 0.74830785 8.5865772e-20)
(57.111917 0.84908479 -1.4646242e-19)
(57.108393 0.88051114 0)
(56.864058 0.84078991 0)
(56.182956 0.61121851 2.6206953e-19)
(54.723613 0.35493832 3.1038999e-20)
(52.805102 -0.28670292 8.0632097e-20)
(35.040102 -2.2762779 -5.8594727e-20)
(35.865582 -2.2877014 1.1159481e-19)
(36.762045 -2.2917603 -1.0771464e-19)
(37.724414 -2.2914101 4.6621704e-20)
(38.747859 -2.2778638 -5.14434e-20)
(39.823689 -2.2520989 -2.6637133e-26)
(40.940596 -2.2132475 -1.1548163e-20)
(42.085825 -2.1605534 3.2286028e-20)
(43.246284 -2.0936972 9.936397e-21)
(44.409562 -2.012668 -1.8193823e-20)
(45.564892 -1.9174546 -1.6535023e-20)
(46.703457 -1.8078164 4.4787879e-20)
(47.818068 -1.6831574 5.3726524e-25)
(48.90248 -1.5425787 -2.393991e-20)
(49.950588 -1.3851462 6.3825863e-20)
(50.955776 -1.2102554 -3.7642627e-20)
(51.910692 -1.0182516 8.287495e-20)
(52.807385 -0.81080975 0)
(53.637886 -0.59131129 -4.6587049e-24)
(54.395002 -0.36490961 -3.310675e-20)
(55.072872 -0.13819005 6.6949415e-20)
(55.66718 0.081296843 0)
(56.174543 0.28576642 -5.3597635e-20)
(56.590635 0.4678197 -6.1934277e-21)
(56.9082 0.61696414 -1.7290229e-19)
(57.094086 0.73809719 4.534664e-21)
(57.11495 0.77473974 -4.1006562e-21)
(56.897364 0.76415042 1.3151545e-19)
(56.243665 0.56428316 -2.5050106e-19)
(54.803261 0.35823842 9.1485665e-21)
(52.913814 -0.29623737 -3.561714e-20)
(35.20061 -2.0665158 -5.0437953e-20)
(35.962199 -2.084667 5.3030464e-20)
(36.79681 -2.0989221 0)
(37.70166 -2.102683 6.0600576e-21)
(38.670782 -2.1019466 0)
(39.698519 -2.0881226 0)
(40.775464 -2.0621606 1.0734467e-20)
(41.88975 -2.023271 -3.0102615e-20)
(43.028163 -1.9708522 6.501059e-20)
(44.177298 -1.9047468 -1.4243395e-25)
(45.324805 -1.8250517 1.5521086e-20)
(46.460095 -1.7318304 2.8086582e-20)
(47.574471 -1.6248871 -5.0524889e-20)
(48.660765 -1.5036827 -1.6048344e-24)
(49.712656 -1.3674347 0)
(50.723853 -1.2154238 0)
(51.687642 -1.0474397 -4.7256315e-20)
(52.596767 -0.86424269 1.3847967e-20)
(53.443641 -0.66800889 6.0632967e-20)
(54.22095 -0.46250169 3.1738461e-20)
(54.922201 -0.25299189 0)
(55.541985 -0.045903277 -6.3846294e-20)
(56.07557 0.15181804 6.9189296e-21)
(56.517319 0.33360809 -9.6105992e-20)
(56.858028 0.48842411 7.6080112e-20)
(57.070899 0.62924821 -1.4294254e-19)
(57.116784 0.66906586 1.9829621e-21)
(56.925061 0.68613459 -1.2212264e-19)
(56.30114 0.51364461 -1.8458678e-21)
(54.885221 0.35954657 0)
(53.038566 -0.2776551 0)
(35.409753 -1.8817155 -2.9704558e-21)
(36.112455 -1.903466 -5.7276948e-21)
(36.885763 -1.9232028 4.2789002e-20)