/*--------------------------------*- C++ -*----------------------------------*\
| =========                 |                                                 |
| \\      /  F ield         | OpenFOAM: The Open Source CFD Toolbox           |
|  \\    /   O peration     | Version:  2406                                  |
|   \\  /    A nd           | Website:  www.openfoam.com                      |
|    \\/     M anipulation  |                                                 |
\*---------------------------------------------------------------------------*/
FoamFile
{
    version     2.0;
    format      ascii;
    arch        "LSB;label=32;scalar=64";
    class       volScalarField;
    location    "0.007";
    object      k;
}
// * * * * * * * * * * * * * * * * * * * * * * * * * * * * * * * * * * * * * //

dimensions      [0 2 -2 0 0 0 0];

internalField   nonuniform List<scalar> 
35803
(
826.67087
807.21878
781.43182
749.04862
709.88884
663.96589
611.74484
554.20502
492.79137
429.31134
365.44576
302.85451
243.04917
187.27605
136.44507
91.27838
52.461058
21.97268
6.3593614
2.142855
1.277971
0.92598696
0.69998566
0.60787902
0.55202522
0.51759832
0.47231728
0.43993135
0.43440076
0.39749463
0.39105149
813.63792
792.14827
764.7924
731.581
692.29299
646.87371
595.6667
539.50902
479.76658
418.07543
356.01204
295.06204
236.70512
182.17774
132.40084
88.119187
50.107135
20.563623
5.7704705
2.0470258
1.2477964
0.91309018
0.69343264
0.60404397
0.54988187
0.51612985
0.47152249
0.43961902
0.43408745
0.39745893
0.3910545
794.55886
771.77133
743.63245
710.15022
671.1607
626.61799
576.79801
522.42012
464.69552
405.09844
345.08543
286.03857
229.37002
176.29416
127.74342
84.488549
47.399995
18.940194
5.2374133
1.9563578
1.2304802
0.90569241
0.68945893
0.60126889
0.54821212
0.51499602
0.47110251
0.43925824
0.43372955
0.39742246
0.39105713
767.79739
744.36642
716.23519
683.26817
645.28155
602.23133
554.35249
502.26694
447.02215
389.93198
332.33118
275.5206
220.83739
169.46591
122.35194
80.295975
44.28198
17.090998
4.7194169
1.8652478
1.2049161
0.89378248
0.68309246
0.59716687
0.54577828
0.51333775
0.47046248
0.43882877
0.43331711
0.39738496
0.39105916
732.71203
709.43659
682.04099
650.31398
614.03673
573.14111
527.8142
478.58151
426.33394
372.22175
317.4611
263.27159
210.91525
161.54057
116.10841
75.450846
40.694286
15.031016
4.2039483
1.772347
1.1798633
0.88218931
0.67701314
0.59303785
0.5433116
0.51166651
0.46982727
0.43831518
0.43285135
0.39734668
0.39106235
688.85395
666.54989
640.62575
610.84014
576.95676
538.87809
496.73342
450.94448
402.2478
351.62878
300.18214
249.0433
199.39689
152.35043
108.88208
69.854656
36.580171
12.806664
3.6950629
1.6786023
1.1508216
0.86791739
0.66948658
0.58795963
0.54029841
0.50961427
0.46892094
0.43770806
0.43233862
0.39730832
0.39106909
636.14604
615.57306
591.80808
564.6187
533.76549
499.12663
460.76975
419.00746
374.42241
327.83406
280.20643
232.58215
186.06387
141.71324
100.52964
63.403457
31.895603
10.49266
3.2053688
1.5883019
1.1202355
0.8526004
0.66160349
0.5824582
0.53705892
0.50741271
0.46801373
0.43700699
0.43178622
0.39727101
0.39108257
575.0405
556.86954
535.82906
511.78658
484.50572
453.8424
419.80177
382.58791
342.63418
300.59469
257.29086
213.65672
170.70468
129.44463
90.903286
55.998486
26.632864
8.1991969
2.7517671
1.502772
1.0862819
0.83476703
0.65246677
0.57601129
0.53326928
0.50482843
0.46694186
0.43621772
0.43120264
0.3972362
0.39110797
506.85065
491.45826
473.53967
453.02886
429.69889
403.38745
374.04315
341.77062
306.86382
269.81477
231.29063
192.09704
153.14305
115.37927
79.865142
47.566949
20.876398
6.2916139
2.35531
1.4163449
1.0498794
0.81522586
0.64269807
0.56890787
0.52905311
0.50196972
0.46583163
0.43535211
0.4305937
0.39720533
0.39114344
433.66361
421.16394
406.50502
389.66003
370.41552
348.59897
324.11479
296.98295
267.37132
235.61559
202.22031
167.84407
133.2773
99.403936
67.323589
38.089991
14.88759
4.6584047
2.0173615
1.332188
1.0099335
0.79303253
0.63168184
0.56078519
0.52415334
0.49867856
0.46455875
0.43439671
0.42995257
0.39717968
0.39114102
357.85785
348.1577
336.66876
323.3901
308.1307
290.72004
271.03316
249.02239
224.74648
198.39713
170.31743
141.0086
111.13265
81.507151
53.27909
27.68594
9.3465905
3.3500155
1.7442851
1.2481697
0.96667374
0.76880559
0.61986405
0.55184212
0.51882515
0.49506521
0.46331597
0.43335331
0.42927114
0.39716143
0.39111827
281.94219
274.80011
266.23109
256.2441
244.67713
231.37551
216.20383
199.06671
179.93589
158.88098
136.09805
111.93322
86.928793
61.861391
37.90915
16.853565
5.7516204
2.4647163
1.5602417
1.1649032
0.91905127
0.74198576
0.60677051
0.54182344
0.51275182
0.49102452
0.46196112
0.43225196
0.42851277
0.39715734
0.39114536
208.48841
203.47041
197.41537
190.31866
182.02997
172.40051
161.29233
148.58434
134.19298
118.10124
100.38633
81.249642
61.173509
40.984418
21.796911
8.340221
3.3997055
1.8875028
1.3889629
1.0792454
0.86759768
0.71342086
0.59277249
0.53100494
0.50592008
0.48670233
0.4602795
0.43111339
0.4275999
0.39719503
0.3911729
139.58227
136.27332
132.26955
127.55467
122.0146
115.51963
107.92973
99.106882
88.936782
77.355013
64.350554
49.945484
34.837296
20.181894
9.6187133
4.0825698
2.2116564
1.5886205
1.2487205
0.99944224
0.81090046
0.68376248
0.57758773
0.51927417
0.49829923
0.48179783
0.45806865
0.42985162
0.42653388
0.39730441
0.39122303
77.380108
75.423342
73.050115
70.237466
66.893074
62.914572
58.196948
52.625348
46.110713
38.639511
30.449716
22.249889
14.54231
8.1220485
4.0686294
2.2987988
1.6850982
1.3680604
1.114208
0.91238951
0.75699548
0.65208541
0.56114436
0.50699239
0.49007961
0.47609292
0.45558192
0.42831255
0.42533652
0.39747469
0.39129609
31.852335
30.947038
29.887335
28.662841
27.20405
25.433942
23.304086
20.778019
17.855602
14.596456
11.202535
8.0160133
5.3909905
3.3452864
2.1453647
1.6500964
1.4167182
1.162734
0.98298624
0.83361443
0.7035017
0.62303521
0.54350897
0.49369975
0.48116901
0.47020877
0.45254743
0.42651729
0.42398261
0.39773949
0.39140445
10.487433
10.235507
9.9178426
9.5332228
9.0667238
8.4998569
7.8311913
7.0407337
6.1133959
5.0964566
4.0600381
3.1052446
2.3299641
1.7580669
1.4861298
1.336751
1.1264485
0.98158605
0.87793559
0.75375645
0.65993607
0.58915546
0.52586466
0.47979989
0.47164413
0.46469291
0.44936996
0.42455404
0.42249236
0.39812939
0.39155168
3.4851902
3.4457365
3.379705
3.283924
3.1585372
2.9998593
2.8075592
2.5902395
2.3380625
2.0650574
1.7922646
1.5405411
1.335958
1.2095264
1.1730283
1.024892
0.95708567
0.86223748
0.76282148
0.68648532
0.61033506
0.56070168
0.50691093
0.46569817
0.46210906
0.45755382
0.44595221
0.42247235
0.4203609
0.3987048
0.39173527
1.4833782
1.4750084
1.4598748
1.4373495
1.4077514
1.3702097
1.3228496
1.2633037
1.1986095
1.1297501
1.0654273
1.0159966
0.97462904
0.93104328
0.87581106
0.82971147
0.75935611
0.71391099
0.68769709
0.62495363
0.57386397
0.52857607
0.4856107
0.45373069
0.45293871
0.45022599
0.44199918
0.41973413
0.41504891
0.39951354
0.39195821
0.91000714
0.90501816
0.89942218
0.89251299
0.88387428
0.8733045
0.86086269
0.84606384
0.83460721
0.82362927
0.81424836
0.78714474
0.76700419
0.74784543
0.71862954
0.67361698
0.64740595
0.63404144
0.5916475
0.56415557
0.53835294
0.50317925
0.4644367
0.4428053
0.44359911
0.4420632
0.43718522
0.41692398
0.41223219
0.40066069
0.39246936
0.71137045
0.70892516
0.70741452
0.70629089
0.70518107
0.70410366
0.70335004
0.70145023
0.69506011
0.68023893
0.65318412
0.63961301
0.62400125
0.61018079
0.59538471
0.58845922
0.54824283
0.53979689
0.53865832
0.52186239
0.51017979
0.47618026
0.44975184
0.43329064
0.43325862
0.43402838
0.43222323
0.41449049
0.41062696
0.40134952
0.392692
0.59240632
0.59021695
0.58712727
0.5827677
0.57828699
0.57448456
0.57093023
0.5674823
0.56408841
0.56043451
0.56080723
0.55860544
0.55074615
0.52824115
0.52560752
0.50775105
0.49662008
0.49350227
0.48458471
0.48361261
0.47509553
0.45249517
0.43824875
0.42429135
0.42237796
0.42596378
0.42767782
0.41219622
0.40933559
0.40143958
0.39305887
0.50762069
0.50737626
0.50759778
0.50823638
0.50885679
0.50934338
0.50956636
0.50926867
0.50771407
0.50335134
0.49299383
0.4834176
0.47683226
0.47287441
0.46984576
0.46553533
0.45384846
0.46383885
0.45210542
0.45133095
0.44719782
0.43950669
0.42838157
0.41578981
0.41504582
0.42102983
0.42288019
0.40940236
0.40709288
0.39944876
0.39372426
0.4603366
0.45967762
0.45861445
0.4571947
0.45593233
0.45482757
0.45385972
0.45291027
0.45174299
0.45013984
0.4478588
0.44572145
0.44410937
0.44400703
0.44116909
0.44230647
0.43601016
0.43766975
0.43420897
0.43522165
0.43132224
0.42607982
0.41824078
0.41124897
0.40849233
0.41313359
0.4165079
0.40646857
0.40364826
0.39876535
0.39387724
0.42820308
0.42816146
0.4280773
0.42800412
0.42815448
0.42858555
0.42917453
0.42965389
0.42953277
0.42837198
0.42559767
0.42194242
0.4201771
0.41908689
0.41955
0.41982689
0.42170449
0.41973419
0.41709792
0.42586263
0.42096731
0.41858784
0.41247807
0.40503984
0.40335712
0.40780467
0.40956625
0.40390706
0.40099882
0.39865216
0.39361385
0.41179938
0.41172875
0.41159758
0.41139941
0.41116658
0.41090278
0.41059142
0.41024021
0.40988264
0.40957289
0.40898927
0.40858938
0.40833873
0.40908603
0.40898383
0.41004245
0.40838858
0.40986876
0.40814073
0.41167177
0.40986989
0.40876842
0.40614165
0.4016221
0.4001495
0.40293897
0.40541935
0.40244992
0.39962179
0.39763311
0.39427987
0.40294183
0.40293461
0.40290168
0.40284446
0.40279933
0.40278805
0.40282062
0.40290769
0.40308555
0.40318093
0.40301208
0.40246623
0.40203816
0.40167152
0.40177833
0.40221417
0.40275407
0.40311124
0.402694
0.40377151
0.4026446
0.40222319
0.40365546
0.40004745
0.39883997
0.39981934
0.40274088
0.40097816
0.39857064
0.39752108
0.39500214
0.39899823
0.39898859
0.3989514
0.39889682
0.39884377
0.39879903
0.39877746
0.39878971
0.39882192
0.39885532
0.39883525
0.39876419
0.39874772
0.39891076
0.39913967
0.39958082
0.39956856
0.40006865
0.40006828
0.40058409
0.39942393
0.39974663
0.40281271
0.39944432
0.39837562
0.3982741
0.4006349
0.39920157
0.39778915
0.39697749
0.39537033
0.3974014
0.39738128
0.39736469
0.39735237
0.39734636
0.39735124
0.39737413
0.39742141
0.39749175
0.39757032
0.39759821
0.39760844
0.39762378
0.39767353
0.39778456
0.39793898
0.39829058
0.3987065
0.39881511
0.3990675
0.39829423
0.39841739
0.40158675
0.39918148
0.39853817
0.39774928
0.39931197
0.39840918
0.39743645
0.39675405
0.39623016
0.39727706
0.39726308
0.39724856
0.39723345
0.39721927
0.39720819
0.3972026
0.3972042
0.39721259
0.39722463
0.39723641
0.39724805
0.39726724
0.39731112
0.39741031
0.39761584
0.39791749
0.39830287
0.39834558
0.39818519
0.39806727
0.39780796
0.40004964
0.39821353
0.39931231
0.39794064
0.39865843
0.39811496
0.39745278
0.39705577
0.39698018
0.39792078
0.39791452
0.39790394
0.39788878
0.3978698
0.39784852
0.39782694
0.39780688
0.39778975
0.39777658
0.3977681
0.397766
0.39777498
0.39780061
0.3978554
0.39795088
0.39808367
0.39815714
0.39806573
0.39793133
0.39848447
0.39762518
0.39796439
0.39790761
0.39955576
0.39786338
0.39772731
0.39799125
0.39772378
0.39751761
0.39740411
129.56219
169.06004
211.55684
248.55691
300.95958
367.40205
426.80113
465.42163
479.34843
474.18166
449.99501
405.72716
352.52513
294.48344
235.38291
178.53505
126.34971
80.142097
42.107947
16.632618
4.9513716
1.697816
0.96348156
0.74409854
0.63973973
0.56150563
0.49793774
0.45691229
0.44729558
0.40388372
0.39091186
153.1559
198.81045
237.18468
277.47547
338.67329
401.65998
450.74419
478.66951
484.76558
475.16453
445.26842
399.16496
345.4165
287.6143
229.25155
173.36679
122.1876
76.93258
39.903558
15.448717
4.5473351
1.6139011
0.94206159
0.7371733
0.63637691
0.55958127
0.49665211
0.45635777
0.44700188
0.40356476
0.39090849
181.84657
221.65583
251.51514
302.1177
366.9329
425.98687
467.74645
487.97958
488.63188
474.55051
439.98538
392.61156
338.4974
280.98994
223.35633
168.40149
118.19009
73.850962
37.80441
14.352127
4.203203
1.5414595
0.92805159
0.73256954
0.63400615
0.55824416
0.49567447
0.45581754
0.4467021
0.40329947
0.39090455
208.7573
236.62932
274.44972
334.34952
397.15781
448.82454
482.25687
495.22081
491.39968
472.50216
434.46736
386.12185
331.76469
274.59585
217.68377
163.62837
114.34826
70.889996
35.807379
13.334452
3.8983221
1.4774523
0.91371272
0.72736624
0.63129189
0.55670625
0.49458002
0.45528784
0.44640467
0.40301077
0.39090108
226.30066
252.01004
303.53062
366.41737
424.54656
468.60662
494.27429
501.00178
493.54242
469.15138
428.85886
379.72092
325.21568
268.42192
212.22381
159.03907
110.65506
68.044181
33.908765
12.388024
3.6247917
1.4203911
0.90088085
0.72263004
0.62877364
0.55530759
0.49357346
0.4547699
0.44610747
0.40274423
0.3908983
236.82529
276.55169
336.7477
397.91519
449.4551
485.70859
504.17092
505.71678
494.23379
465.16461
423.23391
373.42706
318.85196
262.46254
206.9693
154.62692
107.10448
65.308819
32.10356
11.507308
3.377558
1.3693689
0.88887614
0.71795802
0.62623252
0.55390338
0.49257286
0.45426462
0.44581051
0.40247576
0.39089624
255.33533
310.14545
371.24031
427.24933
471.45316
500.24285
512.18501
509.38109
493.64732
460.8995
417.63093
367.25552
312.6769
256.71415
201.91451
150.38608
103.6911
62.679939
30.38689
10.688243
3.1537906
1.3237239
0.87776912
0.71348326
0.62375242
0.55255731
0.49162321
0.45377297
0.44551403
0.40222092
0.3908949
286.65457
345.83547
403.98295
453.66288
490.59487
512.47949
518.74655
512.58227
491.74797
456.49169
412.0731
361.22051
306.69461
251.17434
197.05459
146.31138
100.41004
60.152671
28.754704
9.9276555
2.9514656
1.2829134
0.86738024
0.709139
0.62129313
0.55124193
0.49070491
0.45329498
0.44521843
0.40197434
0.39089424
322.95022
381.45696
434.35365
477.13723
507.10798
522.71372
524.24802
514.23428
489.10136
452.00958
406.58194
355.33583
300.90942
245.84135
192.3854
142.39816
97.256874
57.723416
27.202094
9.2227836
2.7688763
1.2465238
0.8576539
0.70493807
0.61886651
0.5499704
0.48982278
0.45283023
0.44492401
0.40173503
0.39089424
360.68236
415.06074
461.64924
497.68436
521.24489
531.21123
528.96876
514.70998
486.19753
447.50376
401.17865
349.61457
295.32548
240.71377
187.9032
138.64221
94.227644
55.390992
25.725617
8.5708593
2.6044738
1.214353
0.84850926
0.70086356
0.61646283
0.54873745
0.48896681
0.45237783
0.44463094
0.40150307
0.39089493
396.84906
445.59802
485.83819
515.57991
533.31797
538.37433
532.79941
514.22371
483.1248
442.99899
395.88375
344.06879
289.94649
235.79029
183.60461
135.03966
91.318752
53.152366
24.321729
7.9712404
2.4567841
1.1863309
0.83988334
0.69691216
0.61408238
0.54754575
0.48813394
0.45193673
0.44433919
0.4012786
0.39089635
430.02498
472.94529
507.17052
531.13464
543.61277
544.52185
535.45172
512.98097
479.92205
438.5244
390.71767
338.7093
284.77559
231.0696
179.48644
131.58697
88.527977
51.006716
22.9864
7.4209764
2.3242548
1.1609314
0.83171685
0.69307642
0.61172202
0.54639367
0.48731971
0.45150589
0.44404855
0.40106175
0.39089854
460.01504
497.28873
525.93539
544.64175
552.36597
549.94511
536.80701
511.44919
476.65758
434.11102
385.69954
333.54559
279.8153
226.55029
175.54567
128.28088
85.85372
48.95225
21.71794
6.9147384
2.2054938
1.1381595
0.82397912
0.68935175
0.60938141
0.54528086
0.48652194
0.45108433
0.44375867
0.40085263
0.39090154
486.85512
518.87701
542.43503
556.39297
559.95909
554.45578
537.41454
509.75607
473.37015
429.78679
380.84659
328.58579
275.06755
222.23087
171.7794
125.11823
83.291597
46.987306
20.516573
6.4494479
2.0992439
1.1176111
0.81662911
0.68573308
0.60706055
0.54420569
0.48573759
0.45067117
0.44346904
0.40065133
0.39090539
510.81025
538.02778
556.97134
566.64491
566.67318
557.99663
537.62487
507.93972
470.09467
425.57792
376.17417
323.83678
270.53371
218.10973
168.1848
122.09603
80.839452
45.110098
19.381621
6.0228208
2.0043496
1.0990473
0.8096394
0.68221625
0.60476124
0.54316643
0.48496398
0.45026566
0.44317907
0.40045794
0.39091009
532.18913
555.05106
569.81898
575.59724
572.79036
560.50535
537.59686
506.04286
466.86681
421.50856
371.69575
319.3043
266.21465
214.18515
164.75917
119.21148
78.497244
43.319146
18.311985
5.6327645
1.9197339
1.0822235
0.80298366
0.67879711
0.60248665
0.54216078
0.48419919
0.4498672
0.44288809
0.40027254
0.39091561
551.31572
570.24244
581.24212
583.60711
578.03889
562.42104
537.34823
504.10816
463.72075
417.60043
367.42299
314.99307
262.11083
210.45537
161.49983
116.46179
76.26263
41.613157
17.306117
5.2772585
1.8443935
1.0669337
0.79664075
0.67547177
0.60024155
0.54118615
0.48344278
0.44947532
0.44259542
0.40009524
0.39092189
568.49467
583.86602
591.45023
590.89686
582.44368
563.97778
536.96551
502.18418
460.68815
413.8727
363.36589
310.90693
258.22236
206.91853
158.40421
113.84573
74.133444
39.990938
16.362137
4.9542991
1.7773998
1.0530204
0.79059221
0.67223636
0.59803199
0.54023969
0.48269559
0.4490897
0.44230033
0.39992614
0.39092882
584.00096
596.15869
600.63761
597.61563
586.08715
565.34083
536.51731
500.31397
457.79706
410.34211
359.533
307.04896
254.54902
203.57275
155.46965
111.36024
72.107521
38.451086
15.477953
4.6618619
1.7178955
1.0403062
0.78482168
0.66908711
0.59586493
0.53931846
0.48196014
0.44871012
0.44200211
0.39976535
0.39093628
598.08107
607.33749
609.06068
603.63867
589.31606
566.55438
536.05482
498.53505
455.07212
407.02317
355.93155
303.42159
251.09041
200.41615
152.69358
109.00095
70.180356
36.992145
14.651358
4.3978935
1.6650952
1.0286282
0.77931621
0.66602038
0.59374755
0.53841949
0.48124022
0.44833644
0.44170004
0.39961296
0.39094414
610.95301
617.57145
616.90866
609.01402
592.29779
567.68179
535.6256
496.8806
452.53484
403.92841
352.56768
300.02675
247.84595
197.44693
150.07377
106.76615
68.347944
35.611952
13.880058
4.1603531
1.618288
1.0178767
0.77406441
0.66303276
0.59168634
0.53753993
0.48053999
0.44796858
0.44139343
0.39946902
0.3909522
622.81523
627.02229
624.28882
613.8661
595.13376
568.77963
535.27156
495.37958
450.2039
401.06867
349.44657
296.86591
244.81495
194.66334
147.61029
104.65419
66.608683
34.308408
13.161653
3.9472523
1.5768376
1.0079499
0.76905618
0.66012131
0.58968625
0.53667702
0.47986366
0.44760651
0.44108162
0.39933352
0.39096019
633.84835
635.87051
631.16014
618.43413
597.86905
569.89443
535.0293
494.05706
448.09554
398.45322
346.57262
293.94023
241.99667
192.06343
145.30042
102.6638
64.960737
33.077795
12.493889
3.7566829
1.5401902
0.99876303
0.76428259
0.65728372
0.58774978
0.53582819
0.47921503
0.44725028
0.44076407
0.39920639
0.39096781
644.1961
644.25269
637.59441
622.82849
600.55992
571.06872
534.93116
492.93456
446.22377
396.09007
343.94954
291.25067
239.39032
189.64821
143.13988
100.79335
63.40392
31.917155
11.874803
3.5870021
1.5078988
0.99024375
0.75973554
0.65451848
0.58587648
0.53499108
0.47859632
0.44690003
0.44044042
0.39908749
0.39097507
653.96996
652.32744
643.63926
627.12649
603.25462
572.33907
534.99205
492.03034
444.60072
393.98606
341.58053
288.79797
236.99573
187.41561
141.1284
99.041326
61.937622
30.824132
11.302601
3.4368017
1.479693
0.98233124
0.75540762
0.65182494
0.58406281
0.53416367
0.47800783
0.44655597
0.44011069
0.39897656
0.39098203
663.29028
660.03701
649.48459
631.36341
605.99379
573.73593
535.21681
491.36125
443.23696
392.14709
339.46831
286.58288
234.81535
185.3615
139.26482
97.406406
60.560793
29.796514
10.775537
3.3036943
1.4551653
0.97497453
0.75129187
0.64920331
0.58230252
0.53334448
0.47744846
0.44621838
0.43977569
0.39887317
0.3909886
672.23614
667.45083
655.20526
635.58505
608.81265
575.28968
535.66256
490.94494
442.14177
390.57826
337.61465
284.61036
232.84671
183.48652
137.54798
95.887433
59.272109
28.83184
10.291781
3.1860344
1.4334145
0.96813266
0.74738173
0.64665444
0.58058765
0.53253285
0.47691592
0.44588748
0.43943795
0.39877604
0.39099456
680.87865
674.62135
660.85133
639.82614
611.73742
577.0257
536.37477
490.79354
441.32306
389.28364
336.024
282.87849
231.08636
181.78992
135.9769
94.483418
58.070165
27.927731
9.8494377
3.0825144
1.4142978
0.96177452
0.74367086
0.6441795
0.57890992
0.53172918
0.47640721
0.44556302
0.43910203
0.39868268
0.39099991
689.28326
681.59246
666.4538
644.1124
614.78911
578.95644
537.32837
490.89604
440.78682
388.27107
334.70398
281.38285
229.53534
180.27088
134.55084
93.193546
56.953602
27.081955
9.4466219
2.9920427
1.397528
0.95587413
0.74015324
0.64177936
0.57726237
0.53093561
0.47592836
0.44524303
0.43877079
0.39859248
0.39100465
697.48281
688.42307
672.02671
648.46316
617.98521
581.09625
538.53143
491.26837
440.54477
387.55381
333.65152
280.12752
228.19363
178.9289
133.26927
92.017195
55.92118
26.292443
9.0815079
2.9138215
1.3829057
0.95041641
0.73681906
0.63945454
0.57564032
0.53015549
0.47547432
0.44492764
0.43844679
0.39850533
0.39100881
705.47321
695.15806
677.59492
652.89592
621.33889
583.45683
540.00642
491.98302
440.60903
387.12771
332.86355
279.11319
227.06136
177.76376
132.13189
90.953947
54.971831
25.557295
8.7523253
2.8471433
1.3698367
0.94537639
0.73363092
0.63720521
0.57404181
0.52939292
0.47504746
0.44461794
0.43813255
0.39842127
0.39101239
713.28633
701.82751
683.18928
657.44397
624.88314
586.06729
541.77819
493.0222
440.97323
386.98791
332.34469
278.34018
226.13883
176.77546
131.13861
90.003534
54.104672
24.875102
8.4602269
2.7869884
1.3573867
0.94073768
0.73059858
0.63503107
0.57246791
0.52865231
0.47464904
0.4443154
0.43783051
0.39834042
0.39101547
721.14121
708.59433
688.93248
662.20486
628.69943
588.98245
543.87332
494.36374
441.66282
387.12343
332.09565
277.80926
225.42652
175.96419
130.28953
89.166632
53.319366
24.24827
8.1995485
2.731108
1.3458313
0.93650223
0.72771275
0.63293157
0.57092201
0.52793717
0.47428313
0.44402172
0.43754281
0.39826287
0.39101816
729.28411
715.65745
694.9681
667.25737
632.84069
592.22635
546.27204
496.00071
442.65655
387.57493
332.11644
277.52149
224.92512
175.33034
129.58488
88.443325
52.616463
23.677846
7.9665934
2.6791852
1.3351078
0.93266817
0.72497303
0.63090607
0.5694088
0.52724907
0.47395263
0.44373853
0.437271
0.39818871
0.39102061
737.53814
722.92495
701.24605
672.55959
637.20581
595.72626
548.94675
497.94418
443.95498
388.32287
332.40644
277.47815
224.63551
174.87455
129.02515
87.833393
51.996755
23.16407
7.758832
2.6308524
1.3252419
0.92923675
0.72237634
0.6289542
0.56793318
0.52658696
0.47366007
0.44346689
0.43701596
0.39811801
0.39102295
745.08177
729.78172
707.3451
677.86554
641.67898
599.41968
551.89631
500.18853
445.55961
389.36763
332.98217
277.67186
224.5586
174.59765
128.61115
87.337734
51.461183
22.706753
7.5739671
2.5857769
1.3162319
0.92621015
0.71992172
0.62707593
0.56649946
0.52594718
0.47340765
0.44320692
0.43677787
0.3980508
0.39102531
751.88208
736.07231
713.09607
683.04381
646.23737
603.30617
555.10547
502.73028
447.47172
390.71117
333.83531
278.12511
224.68745
174.5005
128.34383
86.957237
51.010978
22.305506
7.4099982
2.5436475
1.3080835
0.92359196
0.71760827
0.62527155
0.56511105
0.52532431
0.47319733
0.4429579
0.43655639
0.39798705
0.39102775
758.65157
742.26729
718.77008
688.21587
650.88481
607.37945
558.56882
505.56734
449.69244
392.35578
334.96803
278.82833
225.04322
174.57636
128.22412
86.692994
50.64761
21.959945
7.2651893
2.5041724
1.3008025
0.92138696
0.71543583
0.62354142
0.56377068
0.5247129
0.47302858
0.44271807
0.43635073
0.39792672
0.39103026
765.50317
748.5127
724.48687
693.4586
655.65746
611.64763
562.28636
508.6991
452.22301
394.30379
336.38331
279.78381
225.61704
174.84532
128.25065
86.54622
50.372759
21.669858
7.138017
2.4670733
1.2943992
0.9196011
0.71340454
0.62188572
0.56248083
0.52410953
0.47289508
0.44248485
0.43615959
0.39786976
0.39103265
772.40119
754.82598
730.28856
698.8141
660.5846
616.12276
566.26095
512.12603
455.065
396.55762
338.0844
280.99466
226.4111
175.29874
128.4317
86.518448
50.188294
21.43534
7.0271163
2.4320782
1.2888896
0.91824151
0.71151502
0.62030411
0.56124424
0.52350955
0.47278481
0.44225511
0.43598118
0.39781613
0.39103465
779.27
761.16975
736.16989
704.29463
665.68213
620.81493
570.49651
515.84936
458.22024
399.11995
340.07488
282.46443
227.42836
175.93879
128.7652
86.611301
50.096255
21.256914
6.9312277
2.3989168
1.2842978
0.91731647
0.70976823
0.61879561
0.56006427
0.52290948
0.47267784
0.44202614
0.43581317
0.39776586
0.39103617
786.03114
767.4922
742.10591
709.89549
670.95601
625.73134
574.99768
519.87075
461.69057
401.9938
342.35868
284.19708
228.67219
176.76805
129.25312
86.826599
50.098476
21.135633
6.849142
2.3673145
1.2806579
0.91683513
0.7081655
0.61735847
0.55894465
0.52230682
0.47255534
0.44179477
0.43565278
0.39771899
0.39103733
792.61987
773.74748
748.07009
715.60643
676.4072
630.87748
579.77053
524.19131
465.47764
405.18284
344.94025
286.19717
230.14651
177.78956
129.8977
87.166142
50.197874
21.073222
6.7796334
2.3369867
1.2780164
0.91680679
0.70670815
0.61599018
0.55788881
0.52170056
0.47241275
0.44155726
0.43549708
0.3976759
0.39103823
798.99306
779.90395
754.04289
721.41821
682.03498
636.2586
584.82289
528.81542
469.58187
408.6914
347.82437
288.46956
231.85563
179.00664
130.70135
87.631833
50.396154
21.072239
6.721369
2.3076254
1.2764543
0.9172086
0.70539721
0.61468779
0.55689902
0.52109177
0.47227488
0.44131043
0.43534329
0.39763773
0.39103905
805.13387
785.94556
760.01326
727.32544
687.83867
641.88147
590.16119
533.75091
474.00551
412.52287
351.01591
291.01952
233.80433
180.42307
131.66674
88.225633
50.695632
21.136279
6.6727838
2.2790355
1.2758966
0.91801055
0.7042344
0.61344915
0.55597603
0.52048435
0.47219706
0.44105429
0.4351893
0.39760249
0.39104003
811.04371
791.86644
765.97504
733.3256
693.82205
647.75142
595.79395
539.00131
478.75482
416.68172
354.52032
293.8529
235.99804
182.04324
132.79695
88.949546
51.098487
21.27024
6.6319275
2.2514626
1.275908
0.919229
0.70322636
0.61227518
0.55511978
0.51988575
0.47219547
0.4407994
0.43503399
0.39757106
0.39104138
816.70679
797.64946
771.91656
739.40617
699.98647
653.87401
601.72018
544.5714
483.83652
421.17317
358.34291
296.97551
238.44237
183.87183
134.09521
89.805524
51.606393
21.480849
6.5963648
2.2248237
1.276389
0.92087901
0.70238831
0.61117114
0.55432931
0.51930443
0.47222851
0.44056229
0.43487707
0.39754301
0.39104331
822.02051
803.22165
777.79351
745.53228
706.29401
660.22565
607.93117
550.46009
489.24846
425.99864
362.48704
300.39201
241.14237
185.91343
135.56471
90.795345
52.220314
21.777215
6.5632446
2.1991954
1.2775525
0.92298262
0.70173326
0.6101399
0.55359665
0.51874503
0.47227567
0.44033944
0.43471825
0.39751858
0.39104601
826.29607
807.72427
782.66411
750.75869
711.83219
665.95766
613.67303
556.00944
494.4153
430.68097
366.56752
303.79757
243.86201
187.98802
137.0685
91.814422
52.857163
22.103734
6.5283931
2.1744888
1.2794276
0.92483447
0.70123503
0.60916728
0.55289526
0.51820434
0.47231694
0.44012415
0.43455738
0.39749827
0.39104941
126.25027
164.82978
211.39657
248.38669
294.25281
357.32119
416.52425
457.26228
474.24178
470.83063
449.54927
407.13631
354.80533
297.13282
238.11449
181.08164
128.55606
81.954746
43.420408
17.347254
5.1421566
1.7259844
0.97133717
0.74723816
0.64140581
0.56242031
0.49864047
0.45730891
0.44758911
0.40407133
0.39090749
130.83702
167.05347
212.15482
248.43296
290.36395
351.01493
409.49646
450.77002
469.13966
467.30497
447.18415
406.07178
354.49626
297.3763
238.72577
181.87205
129.38396
82.749268
44.082579
17.756243
5.2693538
1.7510255
0.97684333
0.74956333
0.64266299
0.56308266
0.49915892
0.45763356
0.44781632
0.40420194
0.39090258
136.0832
170.77674
213.57534
248.5386
286.96586
344.9875
402.61506
444.34682
464.02991
463.61838
444.44472
404.7165
354.078
297.58075
239.31068
182.64617
130.20354
83.539071
44.746978
18.170631
5.4013206
1.7756083
0.98248684
0.75192256
0.64393418
0.56376157
0.49967484
0.45795323
0.44804387
0.40433573
0.39089723
140.67481
174.29575
215.37035
248.84798
284.06568
339.27425
395.89599
437.99118
458.88633
459.56882
441.6464
403.28603
353.60151
297.74317
239.86727
183.4028
131.01411
84.324557
45.413046
18.589146
5.537577
1.8007151
0.98829112
0.75433482
0.64523391
0.56446083
0.50019251
0.45827104
0.44826983
0.40447248
0.39089148
144.9647
177.59824
217.12096
249.34017
281.60569
333.89046
389.3496
431.70286
453.7052
455.49087
438.78861
401.78075
353.06499
297.86179
240.39429
184.1411
131.81507
85.105288
46.080488
19.010703
5.6779461
1.8266343
0.99422365
0.7567832
0.6465543
0.56517198
0.50070871
0.45858761
0.44849
0.40461213
0.39088529
149.06156
180.68532
218.65953
249.80691
279.51053
328.83869
382.9884
425.48703
448.4811
451.38399
435.87132
400.20383
352.46821
297.93566
240.891
184.8605
132.60596
85.880835
46.749275
19.433664
5.8224428
1.8534582
1.0002636
0.75925494
0.64788952
0.56588855
0.50122257
0.45890413
0.4487036
0.40475445
0.39087862
153.01298
183.59582
220.06188
250.2436
277.72883
324.12016
376.82571
419.34844
443.14792
447.24662
432.89255
398.56094
351.81158
297.96409
241.35692
185.56053
133.38636
86.651068
47.418858
19.857126
5.9711396
1.8812423
1.0064101
0.76174868
0.6492404
0.56660818
0.50173667
0.45922292
0.44891286
0.40489911
0.39087143
156.87561
186.39665
221.41802
250.69159
276.2314
319.72744
370.87314
413.30012
437.83457
443.08621
429.8572
396.85309
351.09564
297.94998
241.79164
186.24074
134.15587
87.415819
48.088944
20.280652
6.1240905
1.9100288
1.0126689
0.76426766
0.65061046
0.56733027
0.5022545
0.45954713
0.44912028
0.40504584
0.39086365
160.70665
189.1457
222.75379
251.1469
274.9873
315.65217
365.14045
407.37085
432.8474
438.91724
426.77019
395.08146
350.32093
297.89432
242.19468
186.90071
134.91411
88.174801
48.759279
20.703823
6.2813284
1.9398573
1.0190453
0.7668152
0.65200306
0.56805447
0.50277847
0.4598804
0.44932661
0.40519447
0.39085522
164.53924
191.87896
224.08338
251.56594
273.95782
311.88118
359.63504
401.56118
427.76504
434.73402
423.6354
393.2477
349.48796
297.78835
242.56553
187.53999
135.66071
88.9278
49.429677
21.126291
6.4428783
1.9707639
1.0255429
0.76939387
0.6534208
0.56878047
0.50330939
0.46022624
0.44953154
0.40534484
0.39084609
168.3919
194.62122
225.4192
251.93349
273.12581
308.40025
354.36204
395.87232
422.59936
430.53458
420.45575
391.35414
348.59747
297.63668
242.90377
188.15816
136.39529
89.6746
50.100062
21.547874
6.6087609
2.0027855
1.0321651
0.77200598
0.65486583
0.56950818
0.50384667
0.46058726
0.44973606
0.40549679
0.39083626
172.2723
197.37971