/*--------------------------------*- C++ -*----------------------------------*\
| =========                 |                                                 |
| \\      /  F ield         | OpenFOAM: The Open Source CFD Toolbox           |
|  \\    /   O peration     | Version:  2406                                  |
|   \\  /    A nd           | Website:  www.openfoam.com                      |
|    \\/     M anipulation  |                                                 |
\*---------------------------------------------------------------------------*/
FoamFile
{
    version     2.0;
    format      ascii;
    arch        "LSB;label=32;scalar=64";
    class       volScalarField;
    location    "0.007";
    object      p;
}
// * * * * * * * * * * * * * * * * * * * * * * * * * * * * * * * * * * * * * //

dimensions      [1 -1 -2 0 0 0 0];

internalField   nonuniform List<scalar> 
23203
(
100917.19
100830.55
100788.31
100741.8
100694.49
100651.71
100614.61
100583.05
100556.61
100534.9
100517.59
100504.35
100494.86
100488.45
100484.74
100483.5
100485.32
100490.75
100500.26
101076.03
101016.4
100960.6
100900.54
100844.86
100795.96
100753.41
100716.89
100685.89
100660.09
100639.08
100622.5
100609.87
100600.49
100593.5
100588.47
100585.73
100586.09
100589.97
101154.05
101105.12
101044.94
100979.64
100920.32
100868.5
100823.15
100783.75
100750.07
100721.65
100698.04
100678.83
100663.58
100651.77
100642.84
100636.37
100632.36
100631.26
100633.51
101219.93
101173.82
101112.74
101047.14
100986.9
100933.49
100886.16
100844.45
100808.16
100776.96
100750.52
100728.5
100710.52
100696.21
100685.22
100677.28
100672.34
100670.55
100672.15
101281.44
101233.83
101172.91
101108.65
101048.87
100995.02
100946.67
100903.54
100865.5
100832.35
100803.83
100779.7
100759.66
100743.43
100730.76
100721.45
100715.45
100712.78
100713.52
101335.29
101285.61
101224.64
101162.24
101103.72
101050.25
101001.69
100957.93
100918.92
100884.55
100854.66
100829.06
100807.56
100789.93
100775.99
100765.6
100758.67
100755.17
100755.12
101381.36
101329.71
101269.51
101209.09
101152.09
101099.5
101051.33
101007.55
100968.2
100933.21
100902.52
100876.01
100853.53
100834.93
100820.09
100808.9
100801.26
100797.1
100796.41
101419.56
101366.73
101308.26
101250.03
101194.76
101143.43
101096.12
101052.86
101013.7
100978.64
100947.68
100920.73
100897.74
100878.59
100863.2
100851.48
100843.36
100838.74
100837.58
101450.24
101397.29
101341.03
101285.32
101232.14
101182.46
101136.45
101094.15
101055.66
101021.01
100990.24
100963.32
100940.23
100920.91
100905.31
100893.36
100885
100880.14
100878.69
101474.26
101422.07
101368.43
101315.52
101264.75
101217.08
101172.73
101131.79
101094.37
101060.54
101030.37
101003.88
100981.07
100961.93
100946.44
100934.55
100926.21
100921.31
100919.78
101492.83
101442.08
101391.28
101341.39
101293.26
101247.87
101205.47
101166.2
101130.18
101097.53
101068.31
101042.6
101020.42
101001.79
100986.7
100975.14
100967.05
100962.33
100960.91
101507.2
101458.3
101410.48
101363.68
101318.35
101275.41
101235.19
101197.85
101163.51
101132.32
101104.36
101079.73
101058.48
101040.64
101026.24
101015.25
101007.64
101003.31
101002.18
101518.37
101471.81
101426.97
101383.23
101340.72
101300.35
101262.47
101227.23
101194.8
101165.3
101138.87
101115.58
101095.52
101078.73
101065.24
101055.05
101048.13
101044.38
101043.71
101527.72
101484
101441.87
101400.9
101361.12
101323.33
101287.85
101254.86
101224.5
101196.9
101172.19
101150.47
101131.82
101116.3
101103.94
101094.76
101088.71
101085.7
101085.65
101535.94
101495.43
101455.71
101417.24
101380.07
101344.87
101311.88
101281.24
101253.09
101227.55
101204.75
101184.78
101167.74
101153.67
101142.62
101134.61
101129.59
101127.47
101128.15
101542.56
101505.46
101468.26
101432.4
101397.95
101365.42
101335.02
101306.85
101281.04
101257.71
101236.97
101218.91
101203.62
101191.16
101181.57
101174.87
101171.01
101169.88
101171.38
101547.57
101514.22
101479.82
101446.77
101415.19
101385.48
101357.79
101332.21
101308.86
101287.86
101269.29
101253.27
101239.86
101229.13
101221.12
101215.82
101213.2
101213.13
101215.5
101552.29
101522.51
101490.99
101460.91
101432.36
101405.61
101380.75
101357.87
101337.09
101318.5
101302.21
101288.3
101276.87
101267.95
101261.58
101257.75
101256.42
101257.43
101260.64
101557.53
101530.9
101502.32
101475.37
101450.04
101426.42
101404.52
101384.44
101366.28
101350.17
101336.21
101324.48
101315.06
101307.99
101303.29
101300.94
101300.88
101302.93
101306.92
101562.81
101541.11
101515.47
101491.36
101469.18
101448.74
101429.86
101412.58
101397.06
101383.43
101371.8
101362.24
101354.83
101349.6
101346.55
101345.64
101346.77
101349.75
101354.37
101567.94
101553.92
101533.73
101512.11
101491.73
101473.83
101457.68
101443.06
101430.07
101418.83
101409.46
101402.03
101396.57
101393.11
101391.61
101392.02
101394.2
101397.91
101402.9
101580.26
101568.24
101552.15
101535.93
101518.59
101502.44
101488.61
101476.43
101465.8
101456.84
101449.62
101444.19
101440.57
101438.74
101438.65
101440.17
101443.15
101447.29
101452.26
101595.28
101589.92
101577.28
101563.21
101548.81
101534.73
101523.06
101513.08
101504.64
101497.79
101492.58
101489
101487.04
101486.63
101487.67
101490.02
101493.42
101497.54
101501.98
101614.34
101615.81
101607.38
101593.67
101581.4
101571.24
101561.5
101553.33
101546.84
101541.91
101538.5
101536.55
101535.98
101536.69
101538.51
101541.23
101544.54
101548.02
101551.22
101637.99
101644.09
101639.72
101628.96
101618.6
101609.8
101602.54
101596.71
101592.26
101589.17
101587.36
101586.74
101587.21
101588.59
101590.66
101593.14
101595.65
101597.69
101598.76
101667.27
101676.64
101675.43
101667.56
101659.13
101652.19
101647.25
101643.61
101641.04
101639.49
101638.92
101639.19
101640.15
101641.58
101643.19
101644.61
101645.4
101645.01
101642.93
101703.29
101714.81
101715.92
101710.29
101703.32
101698.63
101696.14
101694.29
101693.07
101692.53
101692.58
101693.06
101693.75
101694.37
101694.56
101693.88
101691.83
101687.9
101681.68
101746.64
101759.27
101761.18
101755.43
101751.98
101751.26
101749.65
101748.34
101747.57
101747.2
101747.01
101746.77
101746.18
101744.89
101742.45
101738.41
101732.31
101723.84
101712.96
101796.49
101808.2
101809.18
101807.62
101807.54
101806.15
101804.71
101803.55
101802.52
101801.38
101799.91
101797.78
101794.63
101790.04
101783.58
101774.93
101763.96
101750.85
101736.05
101846.64
101858.43
101864.36
101865.39
101863.51
101861.5
101859.63
101857.61
101855.13
101851.95
101847.78
101842.23
101834.93
101825.6
101814.12
101800.66
101785.58
101769.41
101752.66
101906.06
101920.89
101925.23
101922.18
101918.31
101914.77
101911
101906.5
101900.88
101893.83
101885.17
101874.68
101862.3
101848.21
101832.78
101816.44
101799.59
101782.53
101765.44
101969.31
101976.76
101976.56
101971.56
101965.58
101959.11
101951.67
101942.92
101932.45
101920.2
101906.62
101891.94
101876.3
101860.01
101843.35
101826.51
101809.62
101792.75
101775.95
102016.56
102017.75
102013.26
102004.73
101994.71
101983.76
101971.9
101959.09
101945.15
101930.23
101914.82
101899.04
101882.95
101866.69
101850.33
101833.92
101817.51
101801.13
101784.82
102045.96
102038.89
102029.03
102017.37
102004.74
101990.91
101976.15
101961.39
101947.04
101932.7
101917.84
101902.44
101886.86
101871.19
101855.45
101839.65
101823.85
101808.06
101792.32
102043.83
102036.73
102027.37
102016.45
102005.32
101994.37
101981.07
101964.65
101948.15
101932.98
101918.6
101903.99
101889.18
101874.24
101859.21
101844.1
101828.94
101813.78
101798.63
102043.89
102033.95
102022.82
102010.75
101998.03
101984.78
101972.48
101961.86
101949.24
101934.33
101919.41
101904.85
101890.54
101876.27
101861.94
101847.49
101832.98
101818.43
101803.87
102036.2
102026.31
102015.59
102004.31
101992.62
101980.58
101968.62
101956.33
101944.7
101932.92
101919.43
101905.9
101891.95
101877.75
101863.87
101850
101836.07
101822.11
102028.16
102018.76
102008.58
101997.95
101987.08
101976.06
101964.94
101953.74
101942.52
101930.26
101916.33
101902.54
101890.06
101877.64
101864.64
101851.44
101838.17
101824.84
102019.43
102010.5
102000.82
101990.73
101980.39
101969.81
101958.95
101947.77
101936.39
101926.06
101915.86
101903.24
101889.8
101876.89
101864.38
101851.97
101839.41
101826.73
102010.58
102002.13
101992.98
101983.45
101973.69
101963.68
101953.41
101942.82
101931.85
101920.64
101910.58
101901.82
101890.89
101877.19
101863.9
101851.76
101839.81
101827.82
102001.57
101993.56
101984.9
101975.9
101966.68
101957.24
101947.57
101937.68
101927.57
101917.3
101906.85
101896.14
101886.4
101876.8
101864.79
101851.86
101839.65
101828.18
101992.49
101984.9
101976.7
101968.2
101959.49
101950.56
101941.41
101932.04
101922.46
101912.69
101902.7
101892.44
101881.95
101872.17
101863.61
101852.84
101840.2
101828.5
101983.38
101976.18
101968.42
101960.39
101952.16
101943.73
101935.09
101926.25
101917.21
101907.98
101898.56
101888.93
101879.17
101869.7
101859.93
101849.33
101838.99
101828.63
101974.25
101967.42
101960.07
101952.47
101944.69
101936.71
101928.54
101920.17
101911.61
101902.86
101893.95
101884.89
101875.72
101866.46
101857.09
101848.12
101838.1
101827.08
101965.12
101958.65
101951.68
101944.5
101937.14
101929.6
101921.86
101913.94
101905.84
101897.55
101889.09
101880.46
101871.63
101862.55
101853.36
101845.33
101837.38
101827.25
101956.02
101949.88
101943.28
101936.48
101929.52
101922.39
101915.07
101907.58
101899.9
101892.05
101884.03
101875.84
101867.47
101858.91
101850.15
101841.26
101833.21
101826.11
101946.98
101941.16
101934.91
101928.48
101921.9
101915.15
101908.24
101901.16
101893.9
101886.48
101878.9
101871.16
101863.27
101855.23
101847.06
101838.8
101830.41
101821.7
101938.03
101932.51
101926.59
101920.5
101914.28
101907.9
101901.36
101894.66
101887.79
101880.77
101873.58
101866.24
101858.73
101851.08
101843.27
101835.3
101827.18
101818.96
101929.19
101923.96
101918.35
101912.59
101906.7
101900.66
101894.47
101888.13
101881.63
101874.98
101868.18
101861.23
101854.12
101846.87
101839.47
101831.92
101824.23
101816.37
101920.48
101915.52
101910.21
101904.75
101899.18
101893.46
101887.59
101881.58
101875.42
101869.11
101862.65
101856.04
101849.29
101842.4
101835.36
101828.17
101820.85
101813.41
101911.89
101907.19
101902.15
101896.98
101891.7
101886.28
101880.72
101875.01
101869.15
101863.16
101857.02
101850.75
101844.33
101837.77
101831.06
101824.22
101817.24
101810.11
101903.4
101898.95
101894.16
101889.26
101884.25
101879.1
101873.82
101868.39
101862.83
101857.13
101851.28
101845.3
101839.18
101832.93
101826.53
101820
101813.33
101806.51
101895.01
101890.77
101886.22
101881.56
101876.8
101871.91
101866.89
101861.73
101856.44
101851.01
101845.44
101839.75
101833.91
101827.95
101821.85
101815.62
101809.26
101802.78
101886.68
101882.64
101878.3
101873.87
101869.34
101864.69
101859.91
101855
101849.97
101844.8
101839.51
101834.08
101828.52
101822.83
101817.01
101811.07
101805
101798.8
101878.4
101874.55
101870.42
101866.19
101861.88
101857.45
101852.9
101848.23
101843.44
101838.52
101833.48
101828.31
101823.02
101817.6
101812.06
101806.39
101800.61
101794.7
101870.17
101866.5
101862.56
101858.53
101854.42
101850.2
101845.87
101841.42
101836.86
101832.18
101827.38
101822.46
101817.43
101812.27
101806.99
101801.59
101796.08
101790.45
101861.99
101858.49
101854.74
101850.9
101846.98
101842.96
101838.84
101834.6
101830.25
101825.8
101821.23
101816.54
101811.75
101806.84
101801.81
101796.67
101791.41
101786.05
101853.88
101850.54
101846.96
101843.3
101839.57
101835.74
101831.81
101827.77
101823.63
101819.39
101815.03
101810.57
101806
101801.32
101796.53
101791.63
101786.62
101781.5
101845.82
101842.63
101839.22
101835.74
101832.19
101828.54
101824.8
101820.95
101817
101812.96
101808.81
101804.55
101800.2
101795.73
101791.16
101786.49
101781.71
101776.82
101837.82
101834.78
101831.53
101828.22
101824.83
101821.36
101817.79
101814.12
101810.36
101806.5
101802.55
101798.49
101794.33
101790.07
101785.71
101781.24
101776.67
101772
101829.87
101826.98
101823.88
101820.72
101817.49
101814.18
101810.78
101807.29
101803.7
101800.02
101796.25
101792.38
101788.41
101784.34
101780.17
101775.91
101771.54
101767.07
101821.97
101819.21
101816.25
101813.24
101810.17
101807.01
101803.77
101800.44
101797.02
101793.51
101789.91
101786.22
101782.43
101778.55
101774.57
101770.49
101766.32
101762.05
101814.11
101811.48
101808.66
101805.79
101802.85
101799.84
101796.75
101793.58
101790.32
101786.97
101783.54
101780.02
101776.41
101772.7
101768.91
101765.02
101761.04
101756.96
101806.3
101803.79
101801.1
101798.36
101795.56
101792.69
101789.74
101786.72
101783.61
101780.42
101777.15
101773.79
101770.35
101766.82
101763.2
101759.5
101755.7
101751.81
101798.54
101796.14
101793.58
101790.97
101788.3
101785.57
101782.76
101779.87
101776.91
101773.87
101770.75
101767.55
101764.27
101760.91
101757.46
101753.93
101750.32
101746.62
101790.84
101788.56
101786.11
101783.62
101781.09
101778.48
101775.8
101773.06
101770.23
101767.34
101764.37
101761.32
101758.2
101755
101751.72
101748.35
101744.91
101741.38
101783.22
101781.05
101778.72
101776.35
101773.93
101771.45
101768.9
101766.28
101763.59
101760.84
101758.01
101755.11
101752.13
101749.09
101745.96
101742.76
101739.48
101736.13
101775.69
101773.61
101771.39
101769.13
101766.83
101764.47
101762.04
101759.55
101757
101754.37
101751.68
101748.92
101746.09
101743.18
101740.21
101737.16
101734.04
101730.85
101768.24
101766.26
101764.15
101762
101759.81
101757.56
101755.25
101752.88
101750.45
101747.95
101745.39
101742.76
101740.06
101737.3
101734.47
101731.57
101728.6
101725.55
101760.88
101759
101756.98
101754.94
101752.85
101750.72
101748.52
101746.26
101743.95
101741.57
101739.13
101736.63
101734.07
101731.44
101728.74
101725.98
101723.15
101720.25
101753.6
101751.81
101749.89
101747.95
101745.97
101743.93
101741.85
101739.7
101737.5
101735.24
101732.92
101730.54
101728.1
101725.6
101723.03
101720.4
101717.7
101714.94
101746.41
101744.71
101742.88
101741.03
101739.15
101737.21
101735.23
101733.19
101731.09
101728.94
101726.73
101724.47
101722.15
101719.77
101717.32
101714.82
101712.25
101709.62
101739.29
101737.67
101735.93
101734.17
101732.38
101730.54
101728.65
101726.71
101724.72
101722.67
101720.57
101718.42
101716.21
101713.94
101711.62
101709.23
101706.79
101704.28
101732.23
101730.69
101729.04
101727.37
101725.67
101723.92
101722.12
101720.27
101718.38
101716.43
101714.43
101712.38
101710.28
101708.12
101705.9
101703.63
101701.3
101698.92
101725.23
101723.77
101722.2
101720.61
101718.99
101717.33
101715.62
101713.86
101712.06
101710.21
101708.31
101706.35
101704.35
101702.3
101700.19
101698.02
101695.8
101693.53
101718.29
101716.9
101715.4
101713.89
101712.35
101710.77
101709.15
101707.48
101705.77
101704
101702.2
101700.34
101698.43
101696.48
101694.47
101692.41
101690.29
101711.4
101710.08
101708.66
101707.22
101705.76
101704.26
101702.72
101701.13
101699.5
101697.83
101696.11
101694.34
101692.53
101690.67
101688.76
101686.8
101684.79
101704.57
101703.32
101701.97
101700.61
101699.22
101697.8
101696.33
101694.82
101693.28
101691.69
101690.05
101688.38
101686.65
101684.88
101683.07
101681.21
101679.29
101697.84
101696.64
101695.36
101694.07
101692.75
101691.4
101690
101688.57
101687.1
101685.59
101684.04
101682.45
101680.81
101679.14
101677.41
101675.64
101673.82
101691.19
101690.06
101688.84
101687.61
101686.36
101685.07
101683.75
101682.39
101681
101679.56
101678.09
101676.58
101675.03
101673.43
101671.79
101670.11
101668.39
101684.64
101683.57
101682.41
101681.24
101680.06
101678.83
101677.58
101676.29
101674.96
101673.6
101672.2
101670.77
101669.29
101667.78
101666.22
101664.63
101662.99
101678.19
101677.17
101676.08
101674.97
101673.84
101672.68
101671.49
101670.27
101669.01
101667.72
101666.39
101665.02
101663.62
101662.18
101660.71
101659.19
101657.63
101671.84
101670.87
101669.83
101668.78
101667.71
101666.61
101665.48
101664.32
101663.13
101661.9
101660.64
101659.34
101658.01
101656.65
101655.24
101653.8
101652.32
101665.58
101664.66
101663.68
101662.68
101661.67
101660.62
101659.55
101658.45
101657.32
101656.15
101654.96
101653.73
101652.47
101651.17
101649.83
101648.46
101647.06
101659.41
101658.54
101657.61
101656.66
101655.7
101654.71
101653.7
101652.65
101651.58
101650.48
101649.34
101648.18
101646.98
101645.75
101644.48
101643.18
101641.85
101653.33
101652.51
101651.62
101650.73
101649.82
101648.88
101647.92
101646.93
101645.91
101644.87
101643.79
101642.69
101641.55
101640.38
101639.18
101637.95
101636.68
101647.35
101646.57
101645.73
101644.88
101644.02
101643.14
101642.22
101641.29
101640.32
101639.33
101638.31
101637.26
101636.19
101635.08
101633.94
101632.77
101631.57
101641.47
101640.73
101639.94
101639.13
101638.32
101637.48
101636.61
101635.72
101634.81
101633.87
101632.9
101631.91
101630.89
101629.84
101628.76
101627.66
101626.52
101635.69
101634.99
101634.24
101633.48
101632.71
101631.91
101631.09
101630.25
101629.38
101628.49
101627.58
101626.64
101625.67
101624.68
101623.66
101622.61
101621.53
101630.03
101629.36
101628.65
101627.93
101627.2
101626.44
101625.67
101624.87
101624.05
101623.21
101622.34
101621.45
101620.53
101619.59
101618.62
101617.63
101616.6
101624.47
101623.84
101623.16
101622.48
101621.79
101621.08
101620.34
101619.59
101618.81
101618.01
101617.19
101616.34
101615.47
101614.58
101613.66
101612.72
101611.75
101619.02
101618.43
101617.79
101617.14
101616.49
101615.81
101615.11
101614.4
101613.66
101612.91
101612.13
101611.33
101610.5
101609.66
101608.79
101607.89
101606.97
101613.68
101613.12
101612.52
101611.91
101611.29
101610.65
101609.99
101609.31
101608.61
101607.9
101607.16
101606.4
101605.62
101604.82
101604
101603.15
101602.28
101608.46
101607.93
101607.36
101606.78
101606.19
101605.59
101604.96
101604.32
101603.66
101602.99
101602.29
101601.57
101600.83
101600.08
101599.3
101598.49
101597.67
101603.35
101602.84
101602.3
101601.76
101601.2
101600.63
101600.04
101599.44
101598.81
101598.17
101597.51
101596.84
101596.14
101595.42
101594.68
101593.92
101593.14
101598.35
101597.87
101597.36
101596.85
101596.32
101595.78
101595.22
101594.65
101594.06
101593.46
101592.83
101592.19
101591.53
101590.85
101590.16
101589.44
101588.7
101593.46
101593.01
101592.53
101592.04
101591.55
101591.04
101590.51
101589.97
101589.41
101588.84
101588.25
101587.64
101587.02
101586.38
101585.72
101585.04
101584.35
101588.69
101588.27
101587.81
101587.35
101586.88
101586.4
101585.9
101585.39
101584.87
101584.33
101583.77
101583.2
101582.61
101582
101581.38
101580.74
101580.08
101584.04
101583.64
101583.21
101582.78
101582.33
101581.88
101581.41
101580.93
101580.43
101579.92
101579.39
101578.85
101578.29
101577.72
101577.13
101576.53
101579.51
101579.13
101578.72
101578.31
101577.9
101577.47
101577.03
101576.57
101576.1
101575.62
101575.12
101574.61
101574.09
101573.55
101572.99
101572.42
101575.09
101574.74
101574.36
101573.97
101573.58
101573.17
101572.76
101572.33
101571.89
101571.43
101570.96
101570.48
101569.99
101569.48
101568.95
101568.41
101570.81
101570.47
101570.11
101569.75
101569.38
101569
101568.61
101568.2
101567.79
101567.36
101566.92
101566.46
101565.99
101565.51
101565.02
101564.51
101566.64
101566.32
101565.99
101565.65
101565.3
101564.94
101564.57
101564.19
101563.8
101563.39
101562.98
101562.55
101562.11
101561.66
101561.19
101560.71
101562.61
101562.31
101561.99
101561.67
101561.34
101561
101560.66
101560.3
101559.93
101559.55
101559.16
101558.76
101558.34
101557.92
101557.48
101557.03
101558.7
101558.42
101558.12
101557.82
101557.51
101557.19
101556.87
101556.53
101556.18
101555.83
101555.46
101555.08
101554.69
101554.29
101553.87
101553.45
101554.94
101554.67
101554.39
101554.11
101553.82
101553.52
101553.21
101552.89
101552.56
101552.23
101551.88
101551.52
101551.15
101550.78
101550.39
101549.99
101551.31
101551.06
101550.79
101550.52
101550.25
101549.97
101549.68
101549.38
101549.07
101548.75
101548.42
101548.09
101547.74
101547.38
101547.02
101546.64
101547.81
101547.57
101547.32
101547.07
101546.81
101546.55
101546.27
101545.99
101545.7
101545.4
101545.09
101544.77
101544.44
101544.11
101543.76
101543.4
101544.44
101544.22
101543.98
101543.74
101543.5
101543.25
101542.99
101542.72
101542.45
101542.17
101541.88
101541.58
101541.27
101540.95
101540.62
101540.28
101541.19
101540.98
101540.76
101540.54
101540.31
101540.07
101539.83
101539.58
101539.32
101539.05
101538.78
101538.5
101538.2
101537.9
101537.6
101537.28
101538.07
101537.87
101537.66
101537.45
101537.24
101537.01
101536.79
101536.55
101536.31
101536.06
101535.8
101535.53
101535.26
101534.98
101534.68
101534.39
101535.07
101534.88
101534.69
101534.49
101534.29
101534.08
101533.86
101533.64
101533.41
101533.18
101532.93
101532.68
101532.43
101532.16
101531.89
101531.61
101532.19
101532.02
101531.84
101531.65
101531.46
101531.26
101531.06
101530.85
101530.64
101530.41
101530.19
101529.95
101529.71
101529.46
101529.2
101528.94
101529.44
101529.27
101529.1
101528.93
101528.75
101528.56
101528.37
101528.17
101527.97
101527.76
101527.55
101527.33
101527.1
101526.86
101526.62
101526.37
101526.79
101526.64
101526.47
101526.31
101526.14
101525.96
101525.78
101525.6
101525.41
101525.21
101525.01
101524.8
101524.58
101524.36
101524.13
101524.24
101524.09
101523.94
101523.78
101523.62
101523.46
101523.29
101523.12
101522.93
101522.75
101522.56
101522.36
101522.16
101521.95
101521.73
101521.77
101521.64
101521.49
101521.35
101521.19
101521.04
101520.88
101520.71
101520.54
101520.37
101520.19
101520
101519.81
101519.61
101519.4
101519.39
101519.26
101519.13
101518.99
101518.84
101518.7
101518.55
101518.39
101518.23
101518.06
101517.89
101517.71
101517.53
101517.34
101517.15
101517.09
101516.97
101516.84
101516.71
101516.58
101516.44
101516.29
101516.15
101515.99
101515.84
101515.67
101515.51
101515.33
101515.16
101514.97
101514.88
101514.77
101514.65
101514.52
101514.39
101514.26
101514.13
101513.99
101513.84
101513.69
101513.54
101513.38
101513.22
101513.05
101512.87
101512.77
101512.66
101512.54
101512.42
101512.3
101512.18
101512.05
101511.92
101511.78
101511.64
101511.49
101511.34
101511.19
101511.03
101510.86
101510.75
101510.65
101510.54
101510.42
101510.31
101510.19
101510.07
101509.94
101509.81
101509.67
101509.54
101509.39
101509.25
101509.09
101508.94
101508.84
101508.74
101508.64
101508.53
101508.42
101508.31
101508.19
101508.07
101507.94
101507.81
101507.68
101507.54
101507.4
101507.26
101507.11
101507.02
101506.93
101506.83
101506.72
101506.62
101506.51
101506.39
101506.28
101506.16
101506.03
101505.91
101505.77
101505.64
101505.5
101505.36
101505.37
101505.27
101505.17
101505.07
101504.97
101504.87
101504.76
101504.64
101504.53
101504.41
101504.29
101504.16
101504.03
101503.89
101503.76
101503.74
101503.65
101503.56
101503.46
101503.36
101503.26
101503.15
101503.04
101502.93
101502.81
101502.69
101502.57
101502.44
101502.31
101501.95
101501.86
101501.77
101501.67
101501.57
101501.47
101501.37
101501.26
101501.16
101501.04
101500.93
101500.81
101500.68
101500.56
99751.937
99750.738
99746.332
99740.726
99741.078
99749.594
99760.304
99771.44
99785.787
99801.797
99817.972
99832.567
99846.059
99859.747
99873.941
99889.062
99905.472
99923.355
99942.798
99760.345
99762.311
99766.121
99772.371
99781.594
99796.808
99812.486
99824.63
99834.065
99843.117
99852.485
99862.221
99872.806
99884.623
99897.862
99912.756
99929.356
99947.596
99769.575
99772.711
99778.764
99785.621
99794.513
99805.209
99815.527
99826.261
99836.291
99845.699
99855.068
99864.996
99876.452
99889.537
99904.13
99920.262
99937.926
99957.089
99780.762
99783.539
99788.402
99796.566
99806.439
99816.62
99826.536
99835.896
99844.262
99852.34
99861.07
99871.111
99882.834
99896.221
99911.209
99927.804
99945.977
99790.504
99795.666
99798.344
99806.199
99815.214
99823.556
99831.3
99838.839
99846.516
99854.874
99864.379
99875.328
99887.861
99901.998
99917.741
99935.081
99953.977
99796.397
99801.897
99806.146
99813.18
99820.728
99827.712
99834.487
99841.548
99849.247
99857.95
99867.977
99879.548
99892.768
99907.65
99924.173
99942.286
99800.434
99805.481
99810.8
99817.298
99823.669
99829.677
99835.86
99842.727
99850.624
99859.838
99870.588
99882.997
99897.104
99912.884
99930.28
99949.229
99804.429
99808.788
99813.734
99819.178
99824.379
99829.641
99835.583
99842.63
99851.044
99861.015
99872.663
99886.035
99901.114
99917.847
99936.157
99807.205
99810.218
99813.911
99818.124
99822.54
99827.58
99833.752
99841.361
99850.583
99861.522
99874.222
99888.667
99904.802
99922.546
99941.814
99806.743
99808.236
99810.841
99814.345
99818.558
99823.85
99830.625
99839.099
99849.368
99861.456
99875.339
99890.951
99908.208
99927.013
99803.294
99803.355
99804.931
99808.175
99812.642
99818.582
99826.306
99835.937
99847.478
99860.879
99876.06
99892.922
99911.361
99931.273
99796.179
99795.361
99796.427
99799.766
99804.893
99811.891
99820.919
99831.98
99844.993
99859.849
99876.429
99894.615
99914.291
99935.35
99784.878
99783.628
99784.901
99789.022
99795.387
99803.902
99814.577
99827.316
99841.978
99858.415
99876.488
99896.066
99917.031
99769.122
99768.257
99770.572
99776.188
99784.337
99794.774
99807.391
99822.025
99838.495
99856.631
99876.283
99897.318
99919.62
99748.75
99749.324
99753.59
99761.419
99771.881
99784.62
99799.456
99816.187
99834.613
99854.558
99875.872
99898.424
99922.103
99723.973
99727.129
99734.248
99744.952
99758.199
99773.58
99790.885
99809.897
99830.417
99852.272
99875.32
99899.44
99695.289
99702.103
99712.881
99727.038
99743.486
99761.814
99781.812
99803.273
99826.007
99849.86
99874.702
99900.427
99663.326
99674.739
99689.865
99707.965
99727.973
99749.514
99772.402
99796.454
99821.506
99847.426
99874.108
99901.472
99628.777
99645.579
99665.62
99688.07
99711.939
99736.913
99762.85
99789.607
99817.054
99845.093
99873.646
99902.658
99592.377
99615.22
99640.628
99667.746
99695.706
99724.28
99753.382
99782.919
99812.809
99842.991
99873.425
99554.923
99584.328
99615.437
99647.441
99679.645
99711.919
99744.248
99776.597
99808.94
99841.263
99873.562
99517.327
99553.664
99590.666
99627.661
99664.166
99700.166
99735.72
99770.864
99805.632
99840.055
99874.174
99480.624
99524.072
99566.995
99608.953
99649.711
99689.379
99728.09
99765.955
99803.066
99839.494
99875.318
99445.959
99496.444
99545.137
99591.893
99636.746
99679.933
99721.66
99762.099
99801.391
99839.626
99877.013
99414.528
99471.636
99525.799
99577.075
99625.749
99672.215
99716.722
99759.484
99800.715
99840.603
99879.806
99387.35
99450.473
99509.735
99565.129
99617.194
99666.581
99713.508
99758.279
99801.474
99843.632
99886.273
99365.31
99434.528
99497.949
99556.65
99611.47
99663.33
99712.352
99759.23
99805.54
99851.547
99895.892
99349.683
99423.838
99490.402
99551.62
99608.872
99663.061
99714.712
99765.452
99814.919
99860.531
99898.988
99340.969
99418.873
99487.742
99551.004
99610.481
99668.037
99724.115
99778.297
99823.847
99860.953
99899.862
99339.796
99420.783
99491.691
99558.077
99621.562
99681.675
99735.386
99781.898
99824.794
99867.39
99909.496
99348.215
99434.033
99507.787
99575.582
99638.868
99695.732
99742.506
99783.797
99828.208
99875.342
99919.409
99961.205
99370.796
99458.457
99530.489
99592.983
99649.104
99698.062
99744.967
99794.094
99841.397
99887.197
99930.873
99972.622
99399.613
99481.97
99548.46
99605.028
99654.221
99705.136
99759.068
99809.393
99856.401
99901.212
99944.251
99985.618
99426.029
99503.303
99559.335
99615.336
99673.517
99727.877
99779.433
99827.91
99873.635
99917.413
99959.656
100000.31
99444.424
99523.37
99589.362
99647.816
99702.948
99754.737
99803.557
99849.852
99893.783
99936.037
99977.127
100016.81
100055.1
99503.656
99579.195
99635.94
99687.979
99738.097
99786.027
99831.75
99875.46
99917.088
99957.175
99996.71
100035.23
100072.23
99568.198
99637.449
99687.816
99733.62
99778.547
99822.168
99864.217
99904.751
99943.529
99981.02
100018.62
100055.57
100090.99
99639.434
99702.265
99745.504
99784.943
99824.327
99863.11
99900.92
99937.728
99973.132
100007.63
100042.95
100077.91
100111.45
100144.68
99716.651
99773.506
99809.325
99841.944
99875.311
99908.75
99941.809
99974.374
100005.88
100037.07
100069.81
100102.31
100133.66
100164.99
99801.135
99851.423
99879.28
99904.56
99931.425
99959.046
99986.867
100014.64
100041.72
100069.45
100099.38
100128.77
100157.63
100186.82
99892.818
99936.022
99955.347
99972.76
99992.646
100014
100036.1
100058.49
100080.62
100105.1
100131.65
100157.23
100183.37
100210.19
100237.6
99991.544
100027.21
100037.47
100046.51
100058.96
100073.61
100089.55
100106.01
100123.01
100143.69
100166.13
100188.01
100211.02
100235.17
100260.25
100097.05
100124.8
100125.58
100125.76
100130.34
100137.86
100147.11
100157.07
100169.13
100185.51
100203.02
100220.94
100240.53
100261.74
100284.31
100307.99
100208.87
100228.44
100219.52
100210.45
100206.71
100206.64
100208.52
100211.99
100219.88
100230.5
100242.12
100255.82
100271.74
100289.79
100309.68
100331.03
100326.25
100337.21
100318.8
100300.18
100287.6
100279.51
100274.13
100272.14
100274.19
100277.69
100283.8
100292.64
100304.34
100318.91
100336.01
100355.03
100375.45
100448.8
100449.61
100422.23
100394.01
100371.68
100356.29
100345.26
100336.28
100330.54
100327.87
100328.09
100331.39
100338.18
100348.78
100362.9
100379.65
100398.09
100579.29
100566.81
100530.35
100492.84
100462.59
100439.17
100420.12
100404.55
100392.22
100383.2
100377.31
100374.78
100376.19
100382.21
100392.74
100406.81
100423.08
100440.74
100727.15
100699.52
100655.04
100609.17
100570.03
100537.76
100510.77
100488
100468.93
100453.43
100441.46
100433.53
100430
100431.33
100437.05
100446.35
100458.34
100472.79
100871.06
100840.53
100807.55
100762.75
100717
100675.52
100638.99
100607.11
100579.89
100556.86
100537.82
100523.38
100514.2
100510.31
100510.62
100513.45
100518.05
100525.37
100535.62
99772.479
99777.985
99781.235
99786.274
99795.373
99801.827
99806.971
99812.316
99818.805
99827.461
99838.546
99850.521
99861.956
99875.714
99890.508
99906.223
99923.01
99940.973
99960.175
99759.565
99763.141
99765.494
99768.389
99776.069
99785.925
99794.927
99803.542
99812.112
99821.424
99831.693
99842.429
99855.612
99870.652
99885.958
99901.979
99918.987
99937.115
99956.442