/*--------------------------------*- C++ -*----------------------------------*\
| =========                 |                                                 |
| \\      /  F ield         | OpenFOAM: The Open Source CFD Toolbox           |
|  \\    /   O peration     | Version:  2406                                  |
|   \\  /    A nd           | Website:  www.openfoam.com                      |
|    \\/     M anipulation  |                                                 |
\*---------------------------------------------------------------------------*/
FoamFile
{
    version     2.0;
    format      ascii;
    arch        "LSB;label=32;scalar=64";
    class       surfaceScalarField;
    location    "0.04";
    object      phi;
}
// * * * * * * * * * * * * * * * * * * * * * * * * * * * * * * * * * * * * * //

dimensions      [1 0 -1 0 0 0 0];

oriented        oriented;

internalField   nonuniform List<scalar> 
3991
(
0.013340545
0.0012192353
-0.0017455562
-0.012814124
0.013795265
0.0013351373
-0.0017897314
0.014168275
0.001406154
-0.001779003
0.014489873
0.001457578
-0.001778964
0.0015292593
-0.0018021169
0.010097439
0.00051918662
-0.0093972573
0.01083865
0.00059409884
0.011529549
0.00071547705
0.012147149
0.00084025874
0.0058472457
-6.1676113e-05
-0.0052662088
0.0064884812
-4.6914759e-05
0.0072159101
-1.1676992e-05
0.0027683144
-0.00048943418
-0.0023403413
0.0032168086
-0.00049515508
-0.00047054301
0.0014720873
-0.00078910456
-0.0011721796
0.0017506175
-0.00077340843
0.00074167387
-0.00093379056
-0.0005967156
-0.00094196401
-3.6247083e-05
-0.00084849126
0.00051918306
0.0010502245
0.00099263029
0.0012729195
0.0011276572
0.00078844068
0.0012001284
0.00025915569
0.00026794044
0.0011939367
-0.00026171627
0.0012099499
0.00083494144
0.0010985048
-0.00073947008
0.0011323471
0.001326013
0.0009189176
-0.001146412
0.0014769003
0.00098148313
0.0010313362
0.0018280007
0.00066405554
-0.001573108
0.00207272
0.00073678506
0.0023142619
0.00078981571
0.00083988758
0.0029225602
-0.0027433734
0.0031765762
0.0034745683
0.0037871885
-0.0018006442
0.016120285
-0.016065115
-0.0018853622
0.021871396
-0.021786564
-0.0018985925
0.02783835
-0.027824973
-0.001820676
0.032933926
-0.033011659
-0.0016490693
0.035863082
-0.036034476
-0.0014318135
0.03585363
-0.036070663
-0.0012066452
0.033028655
-0.03325361
-0.0010004042
0.028292629
-0.028498683
0.022806895
-0.00082782272
-0.022979323
-0.0018587736
0.016189433
-0.0019172837
0.021930049
-0.0019180115
0.02783926
-0.0018287136
0.032844849
-0.0016633833
0.035698
-0.0014502884
0.035640792
-0.0012257675
0.032804376
-0.0010179631
0.028085035
0.022631866
-0.00084276343
-0.0018490954
0.016259657
-0.0019120296
0.021993161
-0.0019169496
0.027844404
-0.0018346354
0.032762803
-0.0016741504
0.035537809
-0.001464097
0.035431034
-0.0012403594
0.032580912
-0.0010318506
0.027876762
0.022455404
-0.00085519829
-0.0018534669
0.016334332
-0.0019130041
0.022052921
-0.0019177208
0.027849399
-0.0018390227
0.03268443
-0.0016818365
0.035380971
-0.0014738213
0.03522336
-0.0012506968
0.032358098
-0.0010417905
-0.00086422125
-0.0018755697
0.016408005
-0.0019274924
-0.0019254826
-0.0018446288
-0.0016882232
-0.0014808323
-0.00067619056
0.020081595
-0.020233091
-0.00052819706
0.018974432
-0.019122296
-0.00038417172
0.017915978
-0.018059883
-0.00024479675
0.016911031
-0.017050293
-0.00011298588
0.015959056
-0.01609076
0.01499587
-0.015108755
-0.00068970379
0.019928687
-0.00053975904
0.01882463
-0.00039403528
0.017770389
-0.00025371297
0.016770835
-0.00012264085
0.015828102
0.01487334
-0.00070125385
0.01977491
-0.00055037152
0.018673905
-0.00040378008
0.017623945
-0.00026252683
0.01662972
-0.00012728146
0.015692986
0.014746181
-0.00070945643
-0.00055761536
-0.0004098586
-0.00026696171
-0.00012916189
-0.0016392664
0.015889271
0.0020179047
-0.016267925
-0.0012839599
0.014934802
-0.015290129
-0.00095251024
0.014036475
-0.014367948
-0.0006432716
0.013202975
-0.01351224
-0.00034719272
0.012460053
-0.012756157
0.011907982
-0.012255203
-0.0013681874
0.015573062
0.0016843659
-0.0010707295
0.014637308
-0.00079282525
0.013758533
-0.00053232214
0.012942438
-0.00028084588
0.012208544
0.0116271
-0.0011241229
0.015312696
0.001384452
-0.00087907915
0.014392223
-0.00064970314
0.013529115
-0.00043415161
0.012726843
-0.00022571015
0.012000064
0.011401354
-0.00090271764
0.015101254
0.0011141168
-0.00070240908
0.014191869
-0.00051311978
0.013339784
-0.00033321899
0.012546909
-0.00015840177
0.011825217
0.011242908
-0.00070409074
0.014933397
0.00087192178
-0.00054356652
0.014031316
-0.00039039839
0.013186583
-0.00024450477
0.012400981
-0.00010721742
0.011687899
0.011135665
-0.00054147677
0.014810542
0.00066432251
-0.00042532291
0.013915153
-0.00031689977
0.013078159
-0.0002171845
0.012301271
-0.00012743308
0.01159815
0.011008222
-0.00039266668
0.014728257
0.00047498243
-0.00031536404
0.013837882
-0.00024380868
0.013006627
-0.00017757169
0.012235053
-0.00011128051
0.011531881
0.010896976
-0.0002446397
0.014681819
0.00029113746
-0.00020082042
0.013794126
-0.00015999581
0.012965873
-0.00012124503
0.012196372
-7.8575638e-05
0.011489275
0.010818454
-9.6786913e-05
0.014669434
0.00010925107
-8.4860616e-05
0.013782289
-7.3541652e-05
0.012954639
-6.1958026e-05
0.012184868
-4.558377e-05
0.011472976
0.010772954
5.3451547e-05
0.014690597
-7.4534749e-05
3.334413e-05
0.013802494
1.4355621e-05
0.012973729
-2.8737568e-06
0.012202197
-1.5143717e-05
0.011485341
0.010757905
0.00020420685
0.014745006
-0.0002585396
0.00015178936
0.013855006
0.00010196624
0.013023654
5.5888478e-05
0.012248373
1.661365e-05
0.011524708
0.010774618
0.00036063765
0.014830021
-0.00044556381
0.00027610081
0.013939641
0.00019326286
0.013106588
0.00011442908
0.012327298
4.5543343e-05
0.011593681
0.010820256
0.00051828389
0.014939257
-0.0006274159
0.00040932627
0.014048699
0.00030109543
0.013214923
0.00019367305
0.012434817
8.8301562e-05
0.011699145
0.010908644
0.0006523183
0.015102445
-0.00081539549
0.00049888611
0.014202235
0.00035542684
0.013358478
0.00022314138
0.012567195
0.00010367352
0.011818699
0.011012403
0.00095753821
0.015326465
-0.001181436
0.00074335613
0.014416524
0.00053931866
0.013562617
0.00034598807
0.012760619
0.00016322745
0.012001548
0.011175708
0.0012184004
0.015606305
-0.0014981158
0.0009482449
0.014686789
0.00068907227
0.013821889
0.00044244782
0.013007336
0.00021252411
0.012231558
0.011388309
0.0014745859
0.01594019
-0.0018083436
0.0011526579
0.01500883
0.00084396434
0.014130685
0.00054803392
0.01330336
0.00026457861
0.012515101
0.011652968
0.0017461952
0.016335413
-0.002141291
0.0013650202
0.01539012
0.0009994386
0.014496373
0.00065021248
0.013652684
0.00031688457
0.01284852
0.011969938
0.0020360809
0.016796772
-0.0024973093
0.0015918512
0.015834469
0.001166097
0.014922237
0.00075943239
0.014059452
0.00037139091
0.013236657
0.012341419
0.0023440768
0.017329011
-0.0028761796
0.0018324919
0.016346181
0.0013425393
0.015412308
0.00087449668
0.014527605
0.00042799858
0.013683259
0.012769514
0.0026678868
0.017935785
-0.0032745157
0.0020863123
0.016927892
0.0015304887
0.015968259
0.00099965401
0.01505856
0.00049046685
0.014192558
0.013260087
0.0030004653
0.018622648
-0.0036871707
0.0023426291
0.017585877
0.0017144844
0.016596544
0.0011162234
0.015656952
0.00054775031
0.014761155
0.013807954
0.0033546241
0.019385509
-0.004117312
0.0026254236
0.018315241
0.0019290923
0.01729303
0.0012629773
0.016323212
0.00061889635
0.015405372
0.014426979
0.0036673465
-0.0045147373
0.0028604722
0.0020937902
0.0013668707
0.00068163398
-0.0038406673
0.01607826
0.0035386837
-0.015776185
-0.0040386828
0.020801288
-0.020603165
-0.0040751123
0.025520687
-0.025484141
-0.0039175197
0.029246277
-0.029403758
-0.0035861733
0.031011632
-0.031342887
-0.0031556864
0.030327073
-0.0307575
-0.0027147005
0.027440601
-0.027881559
-0.0023261679
0.023170191
-0.023558719
0.018469085
-0.018777356
-0.0032046445
0.0163547
0.0029282906
-0.0034164191
0.021013162
-0.0034669354
0.025571309
-0.0033300597
0.0291095
-0.0030365842
0.030718233
-0.0026591331
0.029949666
-0.0022774424
0.027058921
-0.0019454806
0.022838216
0.018207945
-0.0026284124
0.016617194
0.0023659994
-0.0028198707
0.021204713
-0.002871991
0.025623525
-0.0027600079
0.028997605
-0.00251161
0.0304699
-0.0021926544
0.029630741
-0.0018727978
0.026739062
-0.0015978843
0.022563279
0.017994479
-0.0020956222
0.016850719
0.0018621788
-0.0022620611
0.021371243
-0.0023127574
0.025674315
-0.0022241464
0.028909077
-0.0020211318
0.030266945
-0.0017611656
0.029370802
-0.0015026737
0.026480566
-0.0012829585
0.022343534
0.017825597
-0.0016057514
0.017052924
0.0014036315
-0.0017505978
0.021516187
-0.0017947483
0.025718561
-0.0017264471
0.028840858
-0.0015686942
0.030109254
-0.0013667467
0.029168889
-0.0011675909
0.026281416
-0.0009998994
0.022175829
0.017697596
-0.0011525134
0.017219658
0.00098588467
-0.0012722587
0.021636043
-0.0013146054
0.025761004
-0.0012686551
0.028794986
-0.0011536929
0.029994353
-0.0010083056
0.029023547
-0.00086701476
0.02614015
-0.00075063339
0.022059454
0.01761128
-0.00072854703
0.017350952
0.00059736212
-0.00082451545
0.021732112
-0.00086477268
0.025801328
-0.00084201264
0.028772267
-0.00077069642
0.029923076
-0.00067895179
0.028931846
-0.00059186639
0.02605311
-0.00052307096
0.0219907
0.017563227
-0.00032777319
0.017446344
0.00023256026
-0.00040085317
0.021805293
-0.00043950526
0.025839973
-0.00043923446
0.028771942
-0.00040962199
0.029893429
-0.00036834601
0.028890579
-0.00033116447
0.026015971
-0.00030539145
0.021964985
0.017549034
6.0653531e-05
0.017509042
-0.00012330731
5.109088e-06
0.0218607
-3.3789771e-05
0.025878562
-5.4516871e-05
0.028792374
-6.3160881e-05
0.029901878
-6.8598655e-05
0.028895931
-7.7727617e-05
0.026025103
-9.19884e-05
0.0219793
0.017566374
0.00044232161
0.017567047
-0.00049972875
0.00038989108
0.021912793
0.0003473022
0.025920463
0.00030922066
0.028829867
0.0002690033
0.029941683
0.00022364385
0.028941069
0.00017306052
0.026075616
0.00012168753
0.022030694
0.017613592
0.00054476455
0.017501945
-0.00047908648
0.00060059325
0.021850772
0.00062460694
0.025892234
0.00061134163
0.028841194
0.00056596651
0.029986109
0.00049862611
0.029007981
0.00041693005
0.026157158
0.00033352727
0.022114083
0.017688631
0.00063605102
0.017439874
-0.00057345413
0.0007075039
0.021784977
0.00077447137
0.025828328
0.00082197772
0.028794561
0.00081927337
0.029989026
0.00075104273
0.029076261
0.00064973708
0.026258507
0.00054255023
0.022221337
0.0177857
0.0013154909
0.01736814
-0.0012442416
0.0013553756
0.021746486
0.0013413841
0.025843807
0.0012558084
0.028881053
0.0011256646
0.030119633
0.00099047347
0.029211723
0.00086164787
0.026387511
0.00073984438
0.022343276
0.017898242
0.0019586482
0.017260568
-0.0018512319
0.0020146184
0.021690947
0.0019935147
0.025865662
0.0018849991
0.028990309
0.0016986431
0.030306562
0.0014631878
0.029447548
0.0012139675
0.026636978
0.00099151497
0.022565904
0.018074493
0.0024807135
0.01709203
-0.0023124373
0.0025875265
0.021584188
0.0025919176
0.025861627
0.0024797123
0.029103002
0.0022619832
0.030524758
0.0019788931
0.029731005
0.0016826315
0.026933515
0.001410047
0.022838698
0.018303257
0.0030413239
0.016889399
-0.002838865
0.0031684475
0.021457036
0.0031771681
0.025853086
0.0030444195
0.02923608
0.0027884939
0.030781053
0.0024567825
0.030063052
0.0021041628
0.027286412
0.0017759021
0.023167173
0.018581202
0.0037124902
0.016661214
-0.0034843906
0.0038483026
0.021321218
0.003840795
0.025860726
0.0036679631
0.029409171
0.00335147
0.031097864
0.0029479493
0.030466882
0.0025249145
0.027709713
0.0021355665
0.023556733
0.018908584
0.0045049619
0.016425129
-0.0042688955
0.0046315322
0.021194682
0.0045908582
0.025901523
0.0043609537
0.029639294
0.0039701497
0.03148894
0.0034854428
0.030951865
0.0029837885
0.028211615
0.0025251586
0.024015567
0.019292609
0.0054410732
0.016210015
-0.0052259458
0.0055297605
0.021106048
0.0054319139
0.025999485
0.0051258055
0.029945589
0.0046452642
0.031969719
0.0040672162
0.031530165
0.0034775638
0.028801502
0.0029426826
0.024550648
0.01973814
0.0065206884
0.016047474
-0.006358119
0.0065414841
0.021085315
0.0063605123
0.026180569
0.0059579811
0.03034829
0.0053724042
0.032555514
0.004689548
0.032213259
0.0040038063
0.029487473
0.00338704
0.025167614
0.020249162
0.007697988
0.015958512
-0.0076089883
0.0076324052
0.021150966
0.0073523257
0.026460761
0.006840455
0.030860327
0.006139877
0.033256304
0.0053441752
0.033009196
0.004556433
0.030275447
0.0038536202
0.025870633
0.020828436
0.0089363578
0.015958797
-0.0089365947
0.0087704205
0.021316981
0.0083805046
0.026850797
0.0077523037
0.031488701
0.0069322741
0.034076552
0.0060203995
0.033921316
0.0051281128
0.031167977
0.0043370713
0.026661894
0.021478519
0.010114564
0.015978749
-0.010134447
0.0098940051
0.021537637
0.0094111192
0.027333823
0.0086708596
0.032229151
0.0077319339
0.035015716
0.0067052316
0.034948282
0.0057099787
0.032163493
0.0048335052
0.027538606
0.02219491
0.011011234
-0.011097512
0.010762431
0.010271449
0.0094891592
0.0084706641
0.0073485755
0.006258748
0.005298932
-0.0004645525
0.012849284
-0.012384661
-0.0010215218
0.012941211
-0.012384166
-0.00161028
0.013177635
-0.012588794
-0.002222029
0.013565134
-0.012953299
-0.0028629852
0.014044438
-0.013403392
0.014600918
-0.013925126
-0.00035544933
0.0132048
-0.00080272344
0.013388558
-0.0012904096
0.013665398
-0.0018062592
0.014081065
-0.0023513027
0.014589566
0.015177993
-0.00024824765
0.013453113
-0.00060107406
0.013741454
-0.00099264811
0.014057049
-0.0014153082
0.014503804
-0.001872085
0.015046425
0.01567199
-0.00016848322
0.013621661
-0.00042930985
0.014002356
-0.00073380106
0.01436162
-0.0010723723
0.014842461
-0.0014475104
0.015421648
0.016086743
-9.4080409e-05
0.013715812
-0.00027828908
0.014186643
-0.00050539947
0.014588819
-0.00076689469
0.015104051
-0.0010652997
0.015720147
0.016425167
-2.7002628e-05
0.013742893
-0.00014766954
0.014307402
-0.00030231818
0.014743581
-0.00049275801
0.015294613
-0.00071976894
0.015947282
0.016691404
3.3629053e-05
0.01370935
-2.1368231e-05
0.014362517
-0.00011323791
0.014835605
-0.0002384619
0.015420003
-0.00039897644
0.016107951
0.016889926
9.5954e-05
0.013613437
9.9881195e-05
0.014358661
6.4543584e-05
0.014871076
-1.4021926e-06
0.015486147
-9.8935069e-05
0.016205727
0.017023796
0.00013534016
0.01347805
0.00018050838
0.01431359
0.00021599566
0.014835969
0.00022222387
0.015480429
0.00019295881
0.016235458
0.017093724
0.00022271521
0.013254828
0.00039433968
0.014140825
0.00047220869
0.014757488
0.00052064249
0.015432452
0.00053345244
0.016223761
0.017128658
0.000175536
0.013071902
0.00029278317
0.014021045
0.0003657496
0.014691626
0.00038238305
0.015421168
0.00040615811
0.016203884
0.01706087
3.1425746e-05
0.013045571
3.4030246e-05
0.014017863
0.00013125949
0.014589587
0.00029665622
0.015252373
0.00046113037
0.016036998
0.016945351
0.00024724
0.012798507
0.00047763911
0.013788297
0.00071916997
0.014349233
0.00092482749
0.015047622
0.0010954554
0.015866476
0.01679546
0.00057561438
0.012225264
0.00092063923
0.013443783
0.0011621246
0.014106982
0.0013942498
0.014814088
0.0016265024
0.015632851
0.01656986
0.00055485796
0.011670788
0.00093170864
0.013067034
0.0013031258
0.013735075
0.0016561102
0.014460372
0.0019910194
0.01529721
0.016247853
0.00062664622
0.011044041
0.001115425
0.012578176
0.001572022
0.013278292
0.0020089699
0.014023161
0.0024307992
0.014875076
0.015839492
0.00073892145
0.010305047
0.0013597142
0.01195734
0.0019255901
0.012712364
0.0024646972
0.013483958
0.0029834529
0.014356187
0.015338423
0.00087630494
0.0094287218
0.001686414
0.011147205
0.0023995835
0.011999178
0.0030551066
0.012828397
0.0036763189
0.013734925
0.014745807
0.0011072868
0.0083214058
0.0021378275
0.010116634
0.0030165064
0.011120484
0.003809532
0.012035355
0.004539131
0.013005311
0.014058995
0.0015128509
0.0068085313
0.0027990933
0.0088303726
0.0038672566
0.010052314
0.0047850003
0.011117606
0.0056037214
0.012186595
0.013304616
0.0021178808
0.0046906517
0.0037315439
0.0072167197
0.0049219023
0.0088619553
0.005926377
0.010113136
0.0068080498
0.011304933
0.012503702
0.0027274363
0.0019632058
0.0049733819
0.0049708034
0.0063047978
0.0075305608
0.0072722111
0.0091457408
0.0081360988
0.010441069
0.011703244
0.0023956596
-0.00043249112
0.0045466018
0.0028199483
0.0068287051
0.0052484764
0.0083657751
0.0076086923
0.0093351351
0.0094717508
0.010903989
0.0011586393
-0.0015910927
0.0030540924
0.00092454696
0.0055695517
0.0027330077
0.0081044353
0.0050738476
0.009964289
0.007611956
0.0097708364
0.00015071876
-0.0017416549
0.0015824247
-0.00050714818
0.0036040475
0.0007114291
0.00646638
0.0022115938
0.0098928121
0.0041856216
0.0068496241
-0.00029503813
-0.0014465235
0.00036760417
-0.0011697098
0.0016911248
-0.00061200285
0.0035879195
0.00031490012
0.0061790566
0.0015945964
0.0036315577
-9.8485412e-05
-0.0013479438
-1.4139204e-05
-0.0012539571
0.00042243858
-0.0010484699
0.001391549
-0.00065408834
0.002927839
5.8443454e-05
0.0012933508
-3.2514956e-05
-0.0013153212
-3.910927e-05
-0.0012472468
3.3223312e-05
-0.0011206686
0.00031732097
-0.00093804197
0.00098777308
-0.00061185184
-5.9017483e-05
4.5309622e-05
-0.0013605009
7.6865829e-05
-0.0012786607
0.00013265934
-0.0011763144
0.00025889399
-0.0010641106
0.0005570024
-0.00090977338
-0.0006739794
2.8178345e-05
-0.0013885374
4.9555407e-05
-0.0012998813
8.9139373e-05
-0.0012157283
0.00016609537
-0.0011408778
0.00031528506
-0.0010587497
-0.00095516531
-1.6654942e-05
-0.0013717337
-4.9224884e-05
-0.0012671473
-7.2314968e-05
-0.0011924549
-7.5797323e-05
-0.0011371909
-4.5987685e-05
-0.0010883279
-0.0010371329
-0.00011258037
-0.0012590045
-0.00021999763
-0.0011595659
-0.00032001214
-0.001092257
-0.00040624458
-0.0010507528
-0.00047502202
-0.0010193183
-0.00099270548
-0.00020464596
-0.0010542166
-0.00039566755
-0.0009683842
-0.00057499684
-0.00091274816
-0.00074390319
-0.00088164417
-0.00090339753
-0.000859595
-0.00084561961
-0.00028048191
-0.00077359949
-0.00054032963
-0.00070838564
-0.00078650809
-0.00066639928
-0.0010261772
-0.00064178128
-0.0012621792
-0.00062337379
-0.00061331704
-0.00031949536
-0.00045398086
-0.00062912053
-0.00039862851
-0.00093012232
-0.00036524767
-0.001225906
-0.00034582521
-0.0015189539
-0.00033012748
-0.00031604864
-0.0003583116
-9.5554696e-05
-0.0007013721
-5.5456071e-05
-0.0010266112
-3.9879971e-05
-0.0013480174
-2.4269309e-05
-0.0016721338
-5.8387032e-06
1.5965148e-05
-0.00041147462
0.00031600522
-0.00073611678
0.00026930175
-0.0010541711
0.00027830072
-0.001375586
0.00029728473
-0.0017025059
0.00032123516
0.00035159531
-0.00031700425
0.00063308023
-0.00065358478
0.00060596589
-0.00097536713
0.00060017602
-0.0012881611
0.00061018328
-0.0015999023
0.00063309277
0.00066758874
-0.0002920584
0.00092519611
-0.00057721703
0.00089118835
-0.00085307181
0.00087610237
-0.0011237599
0.00088095292
-0.0013909912
0.00090041732
0.00093269788
-0.00024268949
0.0011679331
-0.00046961795
0.0011181702
-0.0006816905
0.0010882353
-0.00088478132
0.0010841128
-0.0010819418
0.0010976557
0.0011237652
-0.00016917317
0.001337145
-0.00031554886
0.0012645868
-0.00045099444
0.0012237272
-0.00057643803
0.0012096081
-0.00068908292
0.0012103585
0.0012231865
-5.5303497e-05
0.0013924765
-0.00012062841
0.0013299437
-0.00017913228
0.0012822661
-0.00022397651
0.0012544922
-0.00025369146
0.0012401164
0.001228696
2.1026509e-05
0.0013714723
2.9926288e-05
0.0013210672
5.3082134e-05
0.0012591373
9.1315966e-05
0.0012162877
0.0001563149
0.00117515
0.0011233276
6.8039195e-05
0.0013034549
0.00014638868
0.0012427357
0.00023399189
0.0011715557
0.00035092547
0.0010993807
0.00051362513
0.0010124803
0.00089751792
0.00010512952
0.0011983373
0.00020385736
0.0011440271
0.00032897908
0.0010464573
0.0005030713
0.00092531393
0.00076928075
0.00074629949
0.00052041619
0.00011367173
0.0010846688
0.00016702084
0.0010907026
0.00025161138
0.00096189373
0.00044931304
0.00072764112
0.00087778993
0.00031785456
-0.00017486312
1.6372483e-05
0.0010683036
9.3396464e-05
0.0010137053
0.00018100806
0.00087430457
0.00057999103
0.00032868219
0.0014396603
0.00016197941
0.00090632919
0.00023292587
0.00094279152
0.00079838019
-0.00068349237
-0.014729471
0.015412918
-0.0014286334
-0.015021878
0.015766974
-0.0022041356
-0.01539109
-0.015942295
-0.00077774499
-0.013951755
-0.0016123394
-0.014187312
-0.0024738974
-0.014529561
-0.0033678789
-0.015048343
-0.0043022797
-0.015684964
-0.016416206
-0.0052837708
-0.00085468537
-0.013097079
-0.0017650029
-0.013276999
-0.0027044173
-0.013590149
-0.0036774647
-0.014075294
-0.0046894722
-0.014672949
-0.015360447
-0.0057452119
-0.00092598055
-0.012171085
-0.0019071849
-0.012295776
-0.0029177496
-0.01257956
-0.0039628392
-0.013030172
-0.0050476793
-0.013588066
-0.014229501
-0.0061785665
-0.00098752655
-0.011183525
-0.0020358002
-0.01124746
-0.0031142489
-0.011501061
-0.0042275922
-0.011916769
-0.0053801862
-0.012435399
-0.013029589
-0.0065800081
-0.0010422317
-0.010141242
-0.0021578605
-0.01013177
-0.0032986458
-0.010360206
-0.004471989
-0.010743344
-0.0056831081
-0.011224186
-0.011769506
-0.00694308
-0.0011230683
-0.0090181085
-0.0022997129
-0.008955051
-0.0034849744
-0.0091748597
-0.00469791
-0.0095303132
-0.0059551915
-0.0099667961
-0.010460594
-0.0072639814
-0.0012883796
-0.0077296554
-0.002467838
-0.0077755116
-0.0036641935
-0.0079784137
-0.0048986505
-0.008295755
-0.0061870226
-0.0086783119
-0.009110739
-0.0075367538
-0.0012714899
-0.0064580901
-0.0025058993
-0.0065410179
-0.0037444586
-0.0067397609
-0.0050260131
-0.007014098
-0.006366994
-0.0073372191
-0.0077108435
-0.0077667688
-0.0012784776
-0.0051795368
-0.0025283749
-0.005291035
-0.0038092202
-0.0054588218
-0.0051397662
-0.0056834508
-0.0065182126
-0.0059586646
-0.0062746783
-0.007954264
-0.0012776219
-0.0039018403
-0.0025563254
-0.0040122484
-0.0038747844
-0.0041402722
-0.0052310509
-0.0043270877
-0.0066368832
-0.0045527306
-0.0048103574
-0.008101099
-0.0012414608
-0.0026603091
-0.0025605042
-0.0026931267
-0.0039090666
-0.0027916252
-0.0052912575
-0.0029448076
-0.0067196708
-0.0031242247
-0.0033244393
-0.0082054947
-0.00124592
-0.0014143191
-0.0026101391
-0.0013288304
-0.0039641975
-0.0014374849
-0.0053482288
-0.0015606917
-0.0067818836
-0.0016904841
-0.00183004
-0.0082761974
-0.0015748391
0.00016059738
-0.0028042369
-9.9349153e-05
-0.0040719066
-0.00016972772
-0.0054166213
-0.00021588943
-0.006834738
-0.00027228118
-0.00034012276
-0.0083245716
-0.0012369862
0.0013976629
-0.0025968392
0.0012605618
-0.0039608523
0.0011943475
-0.0053534534
0.0011767808
-0.0067958547
0.0011701926
0.0011639211
-0.0082998262
-0.0012372099
0.0026349407
-0.002544459
0.0025678756
-0.0038989712
0.0025489261
-0.0052945337
0.0025724123
-0.0067394727
0.0026152017
0.0026682555
-0.0082437386
-0.001244842
0.0038798456
-0.0025399149
0.0038630169
-0.0038787162
0.0038877989
-0.0052579971
0.0039517658
-0.0066896959
0.0040469727
0.0041607678
-0.0081821383
-0.0012805386
0.0051604468
-0.002544159
0.0051267055
-0.0038482492
0.0051919608
-0.0052103782
0.0053139676
-0.0066253871
0.0054620539
0.0056371581
-0.008101707
-0.0012787685
0.0064392801
-0.0025399773
0.0063879843
-0.0038223136
0.0064743707
-0.005155958
0.0066476877
-0.0065504742
0.0068566469
0.0070912809
-0.0080045211
-0.0012875611
0.0077269079
-0.0025490304
0.0076495267
-0.003819414
0.0077448312
-0.0051225994
0.0079509524
-0.0064829122
0.0082170415
0.008514207
-0.0079057562
-0.0013144408
0.0090414164
-0.0025313034
0.0088664644
-0.0037716346
0.0089852424
-0.0050523155
0.009231717
-0.0063839641
0.0095487772
0.0099065114
-0.0077761792
-0.0011838846
0.010225372
-0.0024013033
0.01008396
-0.0036396674
0.010223689
-0.0049175988
0.010509736
-0.0062408539
0.010872125
0.0112779
-0.0076121445
-0.001105105
0.011330551
-0.0022924303
0.011271364
-0.0035064627
0.011437807
-0.004759785
0.011763149
-0.0060590024
0.01217144
0.012621961
-0.0074029588
-0.0010540353
-0.0021667564
-0.0033176577
-0.0045077155
-0.0057395699
-0.0070426298
-4.4982205e-05
0.00095136101
-0.016016738
-0.00060387972
-0.0068625418
-0.0073863474
0.0072063437
-0.0063781429
-0.0078872725
-0.0057654078
-0.0082247991
-0.0050315745
-0.0085099387
-0.0041922994
-0.0087449636
-0.0032522664
-0.0089444905
-0.0022252477
-0.0091286648
-0.0011278295
-0.009279495
2.3519435e-05
-0.0093950252
0.0012014877
-0.0094777262
0.0023824832
-0.0095054891
0.0035677106
-0.0094613425
0.0047348904
-0.009372582
0.0058625831
-0.0092286874
0.0069340035
-0.0090255697
0.0079302317
-0.0087628736
0.0088419024
-0.0084482951
0.0096611149
-0.008083064
0.010370394
-0.0076522369
0.010955541
-0.0071650486
0.01140669
-0.0066296362
0.011716164
-0.0060546408
-0.0054499453
-0.0069719754
-0.0078773095
0.0074630277
-0.0063628138
-0.008496348
-0.0056484769
-0.0089390573
-0.0048339361
-0.0093244091
-0.0039334079
-0.0096454296
-0.002937541
-0.0099403
-0.0018646658
-0.010201484
-0.0007321501
-0.010411954
0.00044351246
-0.010570629
0.0016393445
-0.010673493
0.0028381958
-0.010704267
0.0040366429
-0.01065971
0.0052160036
-0.010551852
0.0063597116
-0.010372293
0.0074541745
-0.010119918
0.0084863567
-0.0097949288
0.0094333372
-0.0093951383
0.010292884
-0.008942467
0.011065377
-0.0084245856
0.011727785
-0.0078273209
0.012268843
-0.0071705788
0.012678922
-0.0064646343
-0.0057260734
-0.0068856207
-0.008500274
0.0075086723
-0.0061731341
-0.0092087527
-0.0053751511
-0.0097369679
-0.0045043742
-0.010195124
-0.0035439406
-0.010605808
-0.0024953648
-0.010988826
-0.0013861785
-0.011310621
-0.00022955295
-0.01156853
0.0009602009
-0.011760331
0.0021647089
-0.011877942
0.0033714698
-0.011910962
0.0045741193
-0.011862288
0.0057574365
-0.011735086
0.0069085649
-0.011523325
0.0080157405
-0.011226983
0.0090676033
-0.010846667
0.010055147
-0.010382544
0.010954517
-0.0098416854
0.011771306
-0.0092412162
0.012500418
-0.0085562724
0.013124346
-0.0077943548
0.013632274
-0.0069724317
-0.0061106207
-0.0066041996
-0.0092342623
0.0073382668
-0.0058062438
-0.010006636
-0.0049499372
-0.010593213
-0.0040165123
-0.011128497
-0.0029924876
-0.011629788
-0.0019092304
-0.012072042
-0.00077706942
-0.012442743
0.00039244485
-0.012738004
0.0015854371
-0.012953279
0.0027883321
-0.013080787
0.0039927175
-0.013115293
0.0051903598
-0.013059869
0.0063692138
-0.012913868
0.0075193881
-0.012673415
0.0086313065
-0.012338804
0.0096956139
-0.011910862
0.010703737
-0.011390537
0.011643818
-0.010781619
0.012501764
-0.010098999
0.013288309
-0.009342643
0.01398915
-0.0084950183
0.014590725
-0.0075738378
-0.0066019472
-0.0061090219
-0.010058221
0.0069330451
-0.0052539079
-0.010861692
-0.0043367779
-0.011510296
-0.0033367204
-0.012128517
-0.0022774009
-0.012689075
-0.0011713383
-0.013178075
-2.7588688e-05
-0.013586463
0.0011433076
-0.013908871
0.0023298382
-0.014139777
0.0035218353
-0.014272746
0.0047131922
-0.01430661
0.0058965646
-0.014243196
0.0070624309
-0.014079679
0.0082032851
-0.013814204
0.0093118328
-0.013447274
0.010381061
-0.012979997
0.011404609
-0.012413973
0.01237501
-0.011751888
0.013273036
-0.010996873
0.014099833
-0.010169268
0.014864191
-0.0092591895
0.015550246
-0.0082597004
-0.0071946332
-0.0053896341
-0.010938401
0.0062698617
-0.0044832969
-0.011767991
-0.003506164
-0.012487398
-0.0024707802
-0.013163876
-0.0013892448
-0.013770589
-0.00027220168
-0.014295098
0.00087115724
-0.014729803
0.0020323345
-0.015070028
0.0032022151
-0.015309635
0.0043739669
-0.015444475
0.0055433055
-0.015475924
0.0067036336
-0.015403496
0.0078482359
-0.015224247
0.0089715995
-0.014937526
0.010068268
-0.014543891
0.011132906
-0.014044569
0.01216039
-0.013441374
0.013145432
-0.012736825
0.014082516
-0.011933828
0.014952213
-0.011038813
0.015760851
-0.010067654
0.016515163
-0.0090138222
-0.0078779886
-0.0044542358
-0.011839874
0.0053557427
-0.0034973375
-0.012724865
-0.0024756194
-0.0135091
-0.0014128869
-0.014226593
-0.00031981142
-0.014863651
0.00079556788
-0.015410465
0.0019263954
-0.015860619
0.0030659301
-0.01620955
0.0042085082
-0.016452201
0.0053512022
-0.016587159
0.0064901677
-0.016614881
0.0076200564
-0.016533374
0.008736489
-0.016340668
0.0098355584
-0.01603658
0.010913366
-0.015621677
0.011966005
-0.015097174
0.012989608
-0.014464925
0.013980334
-0.01372748
0.014934588
-0.012887988
0.015846467
-0.011950578
0.016700619
-0.010921669
0.017503411
-0.0098164587
-0.0086336217
-0.0032688252
-0.01279525
0.0042242291
-0.002260767
-0.013732906
-0.0012162471
-0.014553607
-0.00014804802
-0.015294781
0.00093671062
-0.0159484
0.0020329873
-0.016506734
0.0031367629
-0.016964388
0.0042433985
-0.017316181
0.0053500351
-0.017558836
0.0064555228
-0.01769265
0.0075567641
-0.017716128
0.0086501548
-0.017626772
0.0097329862
-0.017423509
0.010802616
-0.017106218
0.01185636
-0.016675425
0.012891474
-0.01613228
0.013905167
-0.015478596
0.014894618
-0.014716893
0.015857075
-0.013850387
0.016789591
-0.012883023
0.01768771
-0.011819704
0.018539179
-0.01066783
-0.0094433041
-0.0017888631
-0.013792469
0.0027861039
-0.00077377889
-0.014747979
0.00026029097
-0.015587668
0.0013073809
-0.016341862
0.0023630047
-0.017004016
0.0034240945
-0.017567817
0.0044871926
-0.018027482
0.0055501819
-0.018379171
0.006613457
-0.018622118
0.0076756845
-0.018754888
0.0087342901
-0.018774749
0.0097874236
-0.018679927
0.010833501
-0.01846961
0.011870866
-0.018143606
0.012897761
-0.017702338
0.013912333
-0.017146861
0.014912637
-0.016478896
0.015896631
-0.01570087
0.016862211
-0.014815943
0.017807235
-0.013828022
0.01872947
-0.01274192
0.019625623
-0.011563963
-0.010303698
-0.00010707812
-0.014781644
0.0010962823
0.00088745358
-0.015742511
0.0018907279
-0.016590937
0.0028997669
-0.017350892
0.0039117703
-0.018016012
0.0049243895
-0.018580432
0.0059368317
-0.019039925
0.0069504497
-0.019392796
0.0079652704
-0.019636951
0.0089798822
-0.019769517
0.0099933249
-0.019788215
0.011004884
-0.019691514
0.012013698
-0.019478455
0.013018775
-0.01914871
0.014019007
-0.018702591
0.015013201
-0.018141064
0.016000069
-0.017465761
0.016978205
-0.016679001
0.017946059
-0.015783801
0.018901935
-0.01478393
0.019844053
-0.013684106
0.020770412
-0.012490416
-0.011210784
0.0017001664
-0.015736149
-0.00074564739
0.0026483023
-0.016690635
0.003599463
-0.017542087
0.004550947
-0.018302368
0.0055020474