/*--------------------------------*- C++ -*----------------------------------*\
| =========                 |                                                 |
| \\      /  F ield         | OpenFOAM: The Open Source CFD Toolbox           |
|  \\    /   O peration     | Version:  2406                                  |
|   \\  /    A nd           | Website:  www.openfoam.com                      |
|    \\/     M anipulation  |                                                 |
\*---------------------------------------------------------------------------*/
FoamFile
{
    version     2.0;
    format      ascii;
    arch        "LSB;label=32;scalar=64";
    class       volScalarField;
    location    "0.008";
    object      nut;
}
// * * * * * * * * * * * * * * * * * * * * * * * * * * * * * * * * * * * * * //

dimensions      [0 2 -1 0 0 0 0];

internalField   nonuniform List<scalar> 
8951
(
0.037845843
0.041623778
0.04604174
0.051073829
0.056712287
0.062929371
0.069667578
0.076834902
0.084292438
0.091812113
0.098997341
0.10525248
0.1096881
0.11099367
0.107303
0.09621522
0.075205432
0.044754153
0.019907334
0.0096774146
0.0071641004
0.0060956011
0.0054920388
0.0049952238
0.0046991658
0.0045315125
0.0044483854
0.0043137034
0.0042530049
0.00407401
0.0040340824
0.042619016
0.046427558
0.050729603
0.055578341
0.060991891
0.066953787
0.073411407
0.080270302
0.087388599
0.094532897
0.10130576
0.10708844
0.11097705
0.11164373
0.10720985
0.095287625
0.073505587
0.042919852
0.018565912
0.0094219278
0.0070721613
0.0060548076
0.005470294
0.0049812561
0.0046907516
0.004528004
0.0044428904
0.0043105683
0.0042509344
0.004073427
0.0040341372
0.048239614
0.051945929
0.056098282
0.060744553
0.065907763
0.071578832
0.077710666
0.084210572
0.090931138
0.09763154
0.10390868
0.10912938
0.11237053
0.11228442
0.10697991
0.094089191
0.07141148
0.040660791
0.017344972
0.0091312344
0.0070219305
0.0060314937
0.0054580989
0.0049734176
0.0046853114
0.0045246095
0.0044383339
0.0043078232
0.0042494594
0.0040728919
0.004034184
0.054812693
0.058323881
0.06225894
0.066652938
0.071521771
0.07685521
0.082607478
0.088686405
0.094938673
0.10111452
0.1068019
0.11135525
0.11383067
0.11285831
0.10653511
0.092521832
0.06882075
0.037940177
0.016143329
0.0088590482
0.0069477628
0.0059937582
0.0054375799
0.0049600224
0.0046768278
0.0045195596
0.0044335974
0.0043049873
0.0042473249
0.00407234
0.0040342471
0.062408365
0.065662154
0.069314489
0.073393408
0.077907472
0.082841543
0.088147138
0.093729287
0.099427727
0.10498202
0.10996905
0.11372984
0.11529883
0.11328222
0.10576686
0.090453524
0.065601568
0.034744428
0.014923989
0.008578545
0.0068757007
0.0059571609
0.0054179125
0.0049474389
0.0046687942
0.0045143181
0.0044296134
0.004302294
0.0042453879
0.0040717477
0.0040343395
0.071062082
0.074000066
0.077313449
0.081014298
0.085105642
0.089567225
0.094345915
0.099341301
0.10438434
0.10920197
0.11335778
0.11617783
0.11667377
0.1134267
0.10451756
0.087703943
0.061588825
0.03108657
0.013684219
0.0083006363
0.0067918554
0.0059116541
0.0053928294
0.0049312116
0.0046586507
0.0045075962
0.0044249821
0.0042992003
0.0042429327
0.0040711018
0.0040344527
0.080742779
0.083304953
0.086230023
0.089492351
0.093090354
0.096999005
0.10115968
0.1054647
0.10973439
0.11368124
0.11685307
0.11855887
0.11778623
0.11309115
0.10255734
0.084025894
0.056582674
0.027026864
0.012447441
0.0080488967
0.0067036435
0.0058629066
0.005365924
0.0049141137
0.0046477711
0.004499346
0.0044178195
0.0042963245
0.0042403498
0.0040704019
0.0040345851
0.091285085
0.093448152
0.095931416
0.09869308
0.10172511
0.104996
0.10843974
0.11193934
0.11530265
0.11822597
0.12023887
0.12063046
0.11836323
0.11196993
0.099553
0.079084354
0.050362187
0.022708057
0.011251912
0.0078127217
0.0066043049
0.0058056694
0.0053336891
0.0048936023
0.0046344771
0.0044892127
0.0044101973
0.0042928249
0.0042373036
0.0040696464
0.0040347339
0.10236867
0.1041044
0.10609913
0.10830201
0.11069699
0.11324398
0.11586723
0.11843809
0.12074992
0.12248084
0.12313947
0.1219919
0.11797501
0.10960343
0.095024885
0.072435883
0.042749318
0.01900589
0.010163734
0.007576333
0.006496649
0.0057429535
0.0052979553
0.004871281
0.0046197265
0.0044794389
0.004406174
0.0042885296
0.0042339608
0.0040688311
0.0040349034
0.11340613
0.11468517
0.11614608
0.11773344
0.11942099
0.12115751
0.12285474
0.12436967
0.12547829
0.1258377
0.12493222
0.12200159
0.115958
0.10531022
0.088297979
0.063513084
0.033765029
0.015616546
0.0091908278
0.0073528946
0.0063763946
0.0056711872
0.0052561669
0.004845278
0.0046023928
0.004470795
0.0044019193
0.0042833018
0.0042298237
0.0040679511
0.0040350974
0.12336556
0.12416188
0.12504793
0.12596737
0.12688196
0.12772701
0.12839874
0.12873617
0.12849402
0.12730436
0.12462322
0.11966035
0.11130821
0.098098319
0.078444735
0.051677345
0.024306004
0.01258944
0.0083669116
0.0071231125
0.0062437061
0.005593026
0.0052096852
0.0048167226
0.0045831166
0.0044591129
0.0043931978
0.004277063
0.0042249072
0.0040670074
0.0040353144
0.13054202
0.13084054
0.13112425
0.1313375
0.13142843
0.13131732
0.13088246
0.12994081
0.12822115
0.12532628
0.12067957
0.11345512
0.10254271
0.086569494
0.064256736
0.036554755
0.017830462
0.010304047
0.0078194334
0.0068977595
0.0060962501
0.0055064054
0.0051561522
0.0047836853
0.0045604935
0.0044444197
0.0043827168
0.0042688505
0.004218234
0.0040660102
0.0040355545
0.13225514
0.13204394
0.1317115
0.13120913
0.13046417
0.12937485
0.1277967
0.12552094
0.12224787
0.1175501
0.11081505
0.10116015
0.087539015
0.068884321
0.044409132
0.022423
0.012709914
0.00864649
0.0074033442
0.0066401608
0.0059332163
0.0054157648
0.0050960755
0.0047466382
0.0045346668
0.0044285573
0.0043725806
0.0042586692
0.0042099977
0.004064987
0.0040358104
0.12430327
0.12359875
0.12267848
0.1214942
0.11995779
0.11794483
0.11528097
0.1117255
0.10694947
0.1005038
0.091741897
0.079569445
0.063375613
0.043147763
0.025406789
0.014386828
0.0095408772
0.0079137274
0.0069751159
0.0063924811
0.0057562073
0.0053214386
0.0050251945
0.0047038905
0.0045048507
0.0044083195
0.004354993
0.0042461404
0.0042000426
0.0040639868
0.0040360709
0.10043162
0.099351296
0.097980595
0.096267519
0.094101418
0.091334678
0.08777405
0.083156699
0.077158973
0.069411645
0.059715086
0.048673466
0.036370039
0.024007974
0.014589034
0.00978438
0.0079986236
0.0072585106
0.0066246715
0.0061203372
0.0055785274
0.0052160127
0.0049429665
0.0046572221
0.0044723681
0.0043857974
0.0043350742
0.0042305593
0.0041886066
0.0040630443
0.0040363072
0.064091703
0.063083527
0.061863694
0.060397857
0.058577825
0.056271924
0.053362375
0.049693078
0.045119538
0.039543938
0.032972436
0.025879804
0.019223796
0.013302537
0.0094879391
0.0079946964
0.0073957373
0.006784935
0.006220726
0.0058727628
0.0053918307
0.0051112949
0.0048513049
0.004605999
0.0044350182
0.0043592599
0.0043130756
0.0042130477
0.0041752426
0.0040619817
0.0040364763
0.032738188
0.032283321
0.031675396
0.030894872
0.029894506
0.028618651
0.027029644
0.025033636
0.022588983
0.019741904
0.016583623
0.013478816
0.010710899
0.0085384959
0.0074852875
0.0072800826
0.0066663216
0.0061835133
0.0059711657
0.0056111783
0.0052248581
0.0049878545
0.004759222
0.0045529016
0.0043913046
0.0043275155
0.0042891348
0.0041944495
0.0041602257
0.0040612689
0.0040365359
0.015520656
0.015421556
0.015214954
0.014893656
0.014457453
0.013907038
0.01324302
0.012433058
0.01146375
0.010379553
0.009190606
0.0081716895
0.0072940619
0.0068476442
0.00679168
0.0064765389
0.0062467531
0.0058879249
0.0055539655
0.0053476221
0.0050379839
0.0048750191
0.0046788162
0.0044962445
0.0043406302
0.0042920367
0.0042644297
0.0041733639
0.0041438589
0.0040606693
0.0040364563
0.0083684217
0.0083535135
0.0083031679
0.0082116704
0.0080787183
0.0078880998
0.0076546977
0.0074013969
0.0071259264
0.0068223373
0.006559003
0.0063393491
0.0060977794
0.0061217262
0.0058649868
0.0057556695
0.0056116369
0.005538182
0.0053539
0.0051496234
0.004918913
0.0047390223
0.0045902935
0.0044389211
0.0042886832
0.0042526645
0.0042367431
0.0041494123
0.0041270258
0.0040602136
0.0040362723
0.0059141001
0.0059064115
0.0058993556
0.0058965805
0.0058975718
0.005894689
0.0058634007
0.0058053739
0.0057664965
0.0056956305
0.0056447788
0.0056119448
0.0056420051
0.0055035082
0.0053800045
0.0052500179
0.0052152547
0.0050407771
0.0049349876
0.0048856731
0.0047026749
0.0046130512
0.0045258458
0.0043709304
0.0042287861
0.0042125957
0.0042034748
0.0041261101
0.0041112347
0.0040600469
0.004036271
0.0053049204
0.0052979344
0.0052941257
0.0052857572
0.0052681592
0.0052564042
0.0052518234
0.0052506685
0.0052357936
0.0051979736
0.0051147029
0.0050620617
0.0050384217
0.0049863795
0.0050180583
0.0049357977
0.0048208139
0.0047440876
0.0047568623
0.0046600712
0.0045842002
0.0044657081
0.0044284512
0.0043118314
0.0041818155
0.0041734401
0.0041713513
0.0041069538
0.0040979955
0.0040608067
0.0040352909
0.0048412162
0.0048309104
0.0048187632
0.0048091999
0.004810554
0.004805157
0.0047955324
0.0047840678
0.0047720932
0.0047588907
0.0047367075
0.0047285424
0.0046886118
0.0046531906
0.0046129424
0.004574138
0.0045996967
0.0045328039
0.0044835968
0.0044684172
0.0044554091
0.004345878
0.0043500034
0.0042510612
0.0041513066
0.0041368756
0.0041469308
0.0040918981
0.0040888287
0.0040638515
0.004035291
0.0045408561
0.0045433842
0.0045472184
0.004548633
0.0045473093
0.0045464164
0.004545398
0.0045428645
0.0045350065
0.0045170582
0.0044921543
0.0044597583
0.0044420305
0.0044308276
0.0044161634
0.004399588
0.0043766238
0.0043594178
0.0043282705
0.0042974305
0.0042608723
0.0042255562
0.0042747635
0.0042177111
0.0041282013
0.0041060362
0.0041217005
0.0040797054
0.0040826957
0.0040661786
0.0040354452
0.0043344193
0.0043310119
0.004327089
0.0043240787
0.004321226
0.0043171972
0.0043123908
0.0043073948
0.0043026697
0.0042986041
0.0042950529
0.0042908805
0.0042916768
0.0042834785
0.0042658489
0.0042681938
0.0042546919
0.0042629864
0.0042079482
0.0042017051
0.0041829074
0.0041638474
0.0042022661
0.0041798613
0.0041073141
0.0040874658
0.0041013936
0.004070339
0.004076798
0.0040646577
0.0040358023
0.0042038787
0.0042036156
0.0042032563
0.0042031169
0.0042033802
0.0042043018
0.004206009
0.0042082722
0.0042096532
0.0042077808
0.0042006175
0.0041884441
0.0041784584
0.0041709163
0.0041682917
0.0041652945
0.0041625604
0.0041556388
0.0041186993
0.0041244362
0.004111489
0.0041108188
0.0041560544
0.0041496512
0.0040907512
0.0040743555
0.0040821684
0.0040623678
0.0040701017
0.0040563588
0.0040363223
0.0041280173
0.0041277763
0.0041271409
0.0041260853
0.0041248852
0.0041238055
0.0041231004
0.004122716
0.0041225458
0.0041220545
0.0041213345
0.0041204263
0.004120397
0.0041219026
0.0041173949
0.00411766
0.0041119268
0.0041066807
0.0040888079
0.0040855743
0.0040734504
0.0040855107
0.0041274095
0.0041314968
0.0040765034
0.0040598373
0.0040649547
0.0040536168
0.004060128
0.0040524481
0.0040363572
0.0040776852
0.0040776957
0.0040775969
0.0040773788
0.004077213
0.0040772051
0.0040774664
0.0040782879
0.0040797139
0.0040816598
0.0040816164
0.0040787317
0.0040752344
0.004073668
0.0040750355
0.0040765902
0.0040825809
0.004079191
0.0040757699
0.0040647336
0.0040550076
0.0040665089
0.0040881868
0.004101128
0.0040641029
0.0040508401
0.0040551082
0.0040487872
0.0040519477
0.0040486194
0.0040361903
0.0040554597
0.0040554101
0.0040552798
0.0040550975
0.0040549472
0.0040548739
0.0040548745
0.0040547843
0.0040547911
0.004054947
0.0040549191
0.0040544917
0.0040539507
0.004054134
0.0040551625
0.0040567801
0.0040573449
0.0040583282
0.004054043
0.0040492507
0.0040477468
0.004051151
0.004064252
0.004078699
0.0040552726
0.0040451136
0.0040492058
0.0040456455
0.0040465477
0.004044138
0.004036003
0.0040457496
0.0040456377
0.0040455743
0.0040455839
0.0040456546
0.0040457355
0.0040457676
0.0040457772
0.0040458055
0.0040460055
0.0040463943
0.0040467034
0.0040468498
0.0040471427
0.0040478915
0.0040483529
0.0040485673
0.0040476129
0.0040464183
0.0040446693
0.0040459966
0.0040466112
0.0040513507
0.0040670755
0.0040498847
0.0040429581
0.0040444473
0.0040426653
0.0040425969
0.0040425012
0.004038238
0.0040422496
0.0040422142
0.0040421983
0.0040422024
0.0040422312
0.0040422903
0.0040423795
0.0040424872
0.0040426014
0.0040427334
0.0040428891
0.0040430445
0.0040432352
0.0040435674
0.0040440675
0.0040447723
0.0040443158
0.0040437839
0.004043364
0.0040434918
0.0040478273
0.0040479211
0.0040469652
0.0040589686
0.004046438
0.0040394568
0.0040419371
0.004040169
0.004040668
0.0040402027
0.004038744
0.0040421647
0.0040421297
0.0040420639
0.0040419667
0.0040418451
0.0040417123
0.0040415858
0.0040414804
0.0040414029
0.0040413507
0.0040413183
0.0040412994
0.0040412743
0.004041222
0.0040411157
0.0040407192
0.0040409392
0.0040412933
0.0040409423
0.0040409342
0.0040460982
0.0040485698
0.0040452759
0.0040437341
0.0040435034
0.0040399589
0.0040397343
0.0040393848
0.0040394071
0.0040393663
0.0040390479
0.0021180969
0.001918186
0.0020143346
0.0024655839
0.0036194612
0.0062544028
0.010144845
0.015065807
0.02095746
0.02811225
0.036512664
0.04560687
0.055611434
0.06600662
0.07583904
0.083571306
0.086767862
0.081754343
0.06506162
0.039673378
0.018434043
0.0090639654
0.0063620159
0.005410789
0.0049426298
0.0046964654
0.0045692518
0.0043944936
0.0043337452
0.0041385996
0.0040351438
0.001875001
0.0018202007
0.0021474305
0.0028267087
0.0048733138
0.0080909415
0.012200567
0.017154379
0.023081628
0.030359109
0.03864366
0.047701352
0.057613678
0.06781678
0.077330201
0.084574552
0.08707539
0.081148783
0.063566306
0.03792161
0.017361312
0.008752286
0.006269696
0.0053815522
0.0049296126
0.0046898506
0.0045651169
0.004391522
0.0043314199
0.0041361774
0.0040350099
0.0016982883
0.0018571178
0.0022529131
0.0035276299
0.0060420224
0.009517914
0.01380335
0.018909348
0.025014377
0.032429118
0.040645222
0.049709893
0.05954389
0.069558701
0.078750734
0.085502767
0.087305581
0.080470642
0.062034067
0.036219846
0.016413723
0.0084624844
0.0062154109
0.0053637845
0.0049209141
0.0046849791
0.004561884
0.004389093
0.0043292288
0.004133863
0.00403487
0.0016447618
0.0019262391
0.0026442632
0.0045410942
0.0073893539
0.011021316
0.015411421
0.020629613
0.026911698
0.034395666
0.04258425
0.0516626
0.061416685
0.071239965
0.080105197
0.086359346
0.087461604
0.079723488
0.060472704
0.034568663
0.015554163
0.0082111428
0.0061572791
0.0053429129
0.0049108385
0.0046795189
0.0045583455
0.0043864366
0.0043269892
0.004131522
0.0040347315
0.0016744242
0.0020744403
0.0034473673
0.0057355037
0.0087771578
0.012520316
0.017012069
0.022350377
0.028819945
0.036275881
0.04448874
0.053573353
0.063239955
0.072865367
0.081397026
0.087147351
0.087546658
0.078911202
0.058889842
0.032967895
0.014765639
0.0079866365
0.0061069364
0.0053245783
0.0049017788
0.0046744968
0.0045550448
0.0043839164
0.0043247757
0.0041292848
0.004034597
0.0017208128
0.0026528266
0.0044637015
0.0069923985
0.01016944
0.014019799
0.018616422
0.024088883
0.030691794
0.038115852
0.046370508
0.055448652
0.065018206
0.07443813
0.082628925
0.087869514
0.087563809
0.078037693
0.057291178
0.031418581
0.014036988
0.0077857916
0.0060600695
0.0053064964
0.0048927138
0.0046694503
0.0045517273
0.0043813604
0.0043225667
0.004127075
0.0040344673
0.0020981659
0.0035173689
0.0056037599
0.0082873636
0.011574623
0.015526909
0.02022568
0.025839643
0.032525962
0.039939351
0.04823322
0.057291266
0.066753989
0.075960431
0.08380303
0.088528271
0.087515989
0.077107003
0.055681821
0.029922747
0.013363169
0.0076062899
0.0060173797
0.005289482
0.0048840595
0.0046645729
0.0045485052
0.004378856
0.0043203775
0.0041249418
0.0040343431
0.0028264422
0.0045340675
0.0067925083
0.0095941415
0.012984731
0.017037899
0.021843936
0.027622176
0.034304168
0.041752657
0.050076632
0.059102119
0.06844871
0.077433772
0.084921107
0.089125875
0.087406059
0.076122452
0.054066997
0.02848302
0.012741409
0.0074471766
0.0059780011
0.0052731237
0.0048756101
0.0046597614
0.0045453205
0.0043763662
0.0043182037
0.0041228663
0.0040342248
0.0037000516
0.0056079297
0.00800138
0.01090928
0.014399285
0.018551651
0.02347663
0.029369091
0.036050884
0.04355601
0.051899261
0.060881266
0.070103112
0.078859241
0.0859847
0.089664492
0.087236902
0.075087919
0.052450665
0.0271022
0.012169667
0.0073091966
0.0059416404
0.0052575177
0.0048674332
0.0046550489
0.0045421973
0.0043739169
0.004316051
0.0041208608
0.0040341127
0.0046953886
0.0067410463
0.0092314521
0.012230113
0.015815214
0.020065331
0.025126779
0.031085238
0.037791264
0.045347874
0.053699251
0.062628344
0.071717562
0.080237689
0.08699524
0.090146273
0.087011455
0.074008644
0.050837593
0.025782715
0.011645677
0.007186334
0.0059078517
0.0052425612
0.0048594757
0.0046504057
0.0045391223
0.0043715044
0.0043139189
0.0041189137
0.0040340069
0.0057406803
0.0078764132
0.01045406
0.013546734
0.017229456
0.021582368
0.026779641
0.032771269
0.039524445
0.047124474
0.055474742
0.064342815
0.07329222
0.081569846
0.087954123
0.090573403
0.086732785
0.072888876
0.049232041
0.024532799
0.011167189
0.0070769461
0.0058764167
0.0052282432
0.004851741
0.0046458332
0.0045361031
0.0043691414
0.0043118095
0.0041170045
0.0040339077
0.00678578
0.0090063001
0.011674737
0.014862664
0.018641851
0.023105384
0.028410791
0.034426892
0.041246085
0.048882766
0.057224146
0.066024091
0.074827155
0.082856398
0.088862766
0.09094816
0.086404579
0.071734134
0.047637526
0.023354023
0.010731516
0.0069793711
0.0058470609
0.0052145192
0.0048442091
0.0046413198
0.0045331401
0.0043668332
0.0043097208
0.0041150829
0.0040338151
0.0078289923
0.010134282
0.012893458
0.016175385
0.020048669
0.024637275
0.029999719
0.036072419
0.042954717
0.050620395
0.058946081
0.067671586
0.076322417
0.084098051
0.089722646
0.091272927
0.086030726
0.070549448
0.046059058
0.022239329
0.010336002
0.0068923315
0.005819591
0.0052013649
0.0048368736
0.0046368623
0.0045302402
0.0043645892
0.0043076482
0.0041130914
0.0040337294
0.0088645512
0.011256397
0.014106684
0.017482122
0.021452737
0.026160191
0.031563913
0.037709112
0.044647165
0.052335231
0.060639333
0.069284765
0.077778086
0.085295564
0.090535324
0.091550179
0.085614526
0.069339936
0.044503643
0.021186847
0.0099781651
0.0068145778
0.0057938286
0.0051887513
0.0048297249
0.0046324562
0.0045274102
0.0043624167
0.0043055832
0.0041110359
0.004033651
0.0098923251
0.012371202
0.015312101
0.018780301
0.022855259
0.027661419
0.033115306
0.039332956
0.046320523
0.054025509
0.062302844
0.070863164
0.079194305
0.08644978
0.091302469
0.091782495
0.08515966
0.068110781
0.04297737
0.020196891
0.0096555895
0.0067450075
0.0057696293
0.005176655
0.0048227582
0.0046281003
0.0045246594
0.0043603242
0.0043035191
0.0041090578
0.0040335797
0.01090967
0.013475617
0.016506779
0.020066475
0.024258606
0.029127366
0.0346565
0.040940517
0.047972531
0.055689755
0.063935697
0.072406405
0.080571303
0.087561643
0.092025863
0.091972595
0.084670363
0.066867258
0.041485819
0.019269963
0.0093658539
0.0066826253
0.0057468712
0.0051650528
0.0048159698
0.0046237948
0.0045219975
0.004358319
0.0043014533
0.0041072419
0.0040335167
0.011913762
0.014566908
0.017688679
0.021343669
0.025643679
0.030571212
0.036180862
0.042528833
0.049601376
0.057326704
0.065537093
0.073914207
0.081909406
0.088632207
0.092707408
0.092123323
0.084150716
0.065614849
0.040033926
0.018406246
0.0091065364
0.0066267076
0.0057254526
0.0051539241
0.0048093586
0.0046195421
0.0045194345
0.0043564085
0.0042993861
0.0041054974
0.0040334625
0.012901451
0.015642586
0.018855301
0.022612314
0.027002537
0.031997655
0.037687115
0.044096104
0.051205572
0.058935249
0.067106344
0.075386385
0.083209041
0.08966264
0.093349121
0.092238059
0.083604889
0.064359152
0.038625992
0.017605453
0.0088752223
0.0065763577
0.0057052819
0.005143249
0.0048029252
0.0046153461
0.0045169796
0.0043545988
0.0042973189
0.0041038129
0.0040334184
0.01387083
0.016701041
0.02000521
0.023870217
0.028331611
0.033408923
0.039173988
0.045640747
0.052783794
0.060514398
0.068642861
0.076822853
0.084470741
0.09065422
0.093953109
0.092319988
0.083036959
0.063105624
0.037265706
0.016866761
0.0086695429
0.0065307386
0.0056862918
0.0051330095
0.0047966728
0.0046112126
0.0045146398
0.0043528953
0.0042952553
0.0041021889
0.0040333826
0.014820596
0.017741272
0.021139761
0.025106399
0.029639634
0.034801742
0.040639687
0.047161291
0.054334839
0.062063259
0.070146149
0.07822362
0.085695141
0.091608336
0.094521598
0.092371671
0.082449789
0.061859531
0.035956208
0.016188802
0.0084872182
0.0064893113
0.005668422
0.005123189
0.0047906061
0.0046071482
0.0045124193
0.0043513015
0.0042931998
0.0041006215
0.0040333514
0.0157502
0.018762036
0.022259839
0.026315906
0.030929068
0.036174434
0.042082722
0.0486564
0.055857597
0.063581024
0.071615793
0.079588782
0.086882973
0.092526489
0.095056911
0.092396164
0.081846406
0.060625501
0.034700077
0.015569734
0.0083260759
0.0064515589
0.0056516197
0.0051137732
0.0047847319
0.0046031602
0.0045103181
0.0043498188
0.0042911584
0.0040991144
0.0040333254
0.016659729
0.019763125
0.023363252
0.027499105
0.032199541
0.037525481
0.043501729
0.050124825
0.057351039
0.065066957
0.073051454
0.080918522
0.088035059
0.093410289
0.095561993
0.092397007
0.081231036
0.059407916
0.033499368
0.015007344
0.008184081
0.0064170586
0.0056358369
0.00510475
0.0047790585
0.0045992565
0.0045083313
0.0043484464
0.0042891374
0.0040976599
0.0040333029
0.017549788
0.020745502
0.02444442
0.0286609
0.033448872
0.038853378
0.044895452
0.051565378
0.058814194
0.066520378
0.074452855
0.082213094
0.089152303
0.094261383
0.096039313
0.092377935
0.080608083
0.058209666
0.032355925
0.014499122
0.0080593647
0.0063854464
0.0056210288
0.0050961102
0.004773595
0.0045954446
0.0045064486
0.00434718
0.0042871432
0.0040962585
0.0040332836
0.018420913
0.021709955
0.025501604
0.02980214
0.034675922
0.040156843
0.046262754
0.052976904
0.060246137
0.067940659
0.075819774
0.083472825
0.090235677
0.095081839
0.096491029
0.092342648
0.079982586
0.057034218
0.031271574
0.014046539
0.0079502664
0.006356419
0.0056071522
0.0050878479
0.0047683504
0.0045917317
0.0045046537
0.0043460118
0.0042851822
0.0040949083
0.0040332684
0.019273632
0.022658239
0.026533592
0.03092249
0.035879627
0.04143463
0.047601213
0.054358258
0.061645987
0.069327205
0.077152029
0.084698093
0.091286218
0.09587342
0.096920127
0.092294877
0.079359322
0.055885172
0.030248001
0.013641813
0.0078553446
0.0063297236
0.0055941655
0.00507996
0.0047633328
0.0045881243
0.0045029244
0.0043449307
0.0042832606
0.0040936081
0.0040332582
0.02010911
0.023586281
0.027544532
0.032020601
0.037059004
0.042685636
0.048908227
0.055708465
0.063012891
0.070679446
0.078449464
0.085889295
0.092305701
0.096637731
0.097329505
0.092238384
0.078742759
0.054765837
0.02928657
0.013280905
0.0077737982
0.006305153
0.0055820284
0.0050724459
0.004758548
0.0045846284
0.004501233
0.0043439223
0.0042813857
0.004092356
0.0040332532
0.020928125
0.02449421
0.028534873
0.033095803
0.038213116
0.043909133
0.05018594
0.057026845
0.064346025
0.071996835
0.079711906
0.087047248
0.093294958
0.097376949
0.097722048
0.092176942
0.078137116
0.053679065
0.028388179
0.012961037
0.0077059965
0.0062825373
0.0055707027
0.0050653065
0.0047539985
0.0045812491
0.0044995469
0.0043429688
0.004279563
0.0040911522
0.0040332537
0.021731601
0.025382001
0.029504653
0.034147393
0.039340929
0.045104198
0.051436067
0.058312547
0.065644534
0.073278804
0.080939457
0.088172158
0.094254397
0.098093055
0.098100649
0.09211432
0.07754644
0.052627458
0.027553277
0.012679726
0.0076468001
0.0062617352
0.0055601536
0.0050585426
0.0047496829
0.0045779906
0.0044978303
0.0043420487
0.004277814
0.0040899827
0.0040332601
0.022520826
0.026249911
0.030453272
0.035174552
0.040441377
0.046269283
0.05265377
0.059562041
0.066907437
0.074525089
0.082132796
0.089264048
0.095185448
0.098787979
0.098468205
0.092054273
0.076974652
0.051613411
0.026781959
0.012434863
0.0075963716
0.0062426545
0.0055503499
0.0050521543
0.0047455982
0.0045748545
0.0044960574
0.0043411268
0.0042761332
0.0040888536
0.0040332736
0.02329594
0.02709906
0.03137994
0.036176445
0.041513434
0.047403161
0.053837204
0.060774472
0.068134162
0.075735937
0.083291113
0.090323688
0.096089308
0.099463668
0.098827592
0.092000529
0.076425566
0.050639134
0.026074033
0.012224817
0.0075536493
0.0062252132
0.0055412781
0.0050461463
0.0047417393
0.0045718217
0.0044941923
0.0043401799
0.0042745188
0.0040877601
0.004033295
0.024056707
0.027930154
0.032284393
0.037152319
0.042556036
0.04850467
0.054986423
0.061956199
0.06932395
0.076909893
0.084413416
0.091351464
0.0969671
0.10012204
0.099181647
0.091956729
0.075902895
0.04970667
0.025429026
0.012049135
0.007515869
0.0062090296
0.0055329274
0.0050405008
0.0047380923
0.0045688989
0.0044922092
0.0043391835
0.0042729558
0.004086702
0.0040333247
0.024803811
0.028743422
0.033166486
0.038101839
0.043568724
0.049573333
0.056100597
0.06310131
0.070474199
0.078045463
0.085499907
0.092347637
0.097819887
0.10076497
0.099533126
0.091926907
0.075410577
0.048818352
0.024854823
0.011892183
0.0074776855
0.0061940572
0.0055252741
0.0050352174
0.0047346497
0.0045660792
0.0044900932
0.0043381183
0.0042714272
0.004085676
0.0040333618
0.025540612
0.02954154
0.034028085
0.039026159
0.044552268
0.050609353
0.057179158
0.064207392
0.071588709
0.079139145
0.086550221
0.093312478
0.098648652
0.10139424
0.099884653
0.091914674
0.074952712
0.047983659
0.024339291
0.011742299
0.0074409227
0.0061802699
0.0055183046
0.0050302858
0.0047313994
0.0045633596
0.0044878448
0.0043369706
0.0042699139
0.0040846863
0.0040334053
0.026266403
0.030324574
0.034869366
0.03992472
0.045505583
0.051610878
0.058218676
0.065271918
0.072661817
0.080197202
0.087563904
0.09424621
0.099454288
0.10201152
0.10023878
0.091922962
0.074533461
0.047209181
0.023873897
0.011599262
0.0074053812
0.0061676395
0.0055120047
0.0050256999
0.0047283305
0.0045607332
0.0044854769
0.0043357382
0.0042684042
0.0040837356
0.0040334531
0.026973303
0.031085918
0.035685023
0.040793062
0.046423246
0.052572894
0.059216101
0.066293916
0.073692599
0.081215526
0.088538967
0.095148918
0.10023758
0.10261839
0.10059797
0.091955059
0.074157126
0.046499629
0.023453994
0.01146232
0.0073713786
0.0061561377
0.0055063628
0.0050214528
0.0047254328
0.0045581939
0.0044830065
0.0043344331
0.0042668959
0.0040828207
0.0040335031
0.027647815
0.031812393
0.036463381
0.041622456
0.047299968
0.053492157
0.060170594
0.067272192
0.074680018
0.082192538
0.08947996
0.096017288
0.10099909
0.10321627
0.10096455
0.092014248
0.073828124
0.045858306
0.023075478
0.011330802
0.0073390542
0.0061457378
0.0055013686
0.0050175393
0.0047226981
0.0045557347
0.0044804465
0.0043330695
0.0042653874
0.0040819566
0.0040335535
0.028303607
0.03251096
0.037207087
0.042412657
0.048135479
0.054368373
0.06108049
0.068205483
0.075623033
0.08312732
0.090383112
0.096859056
0.10173526
0.10380628
0.10134062
0.092103573
0.073550887
0.04528761
0.022734516
0.011204065
0.0073085781
0.0061364131
0.005497013
0.0050139555
0.0047201203
0.0045533498
0.0044778065
0.0043316453
0.0042639065
0.0040811498
0.0040336025
0.028952885
0.03319263
0.037924622
0.043168968
0.048931097
0.055200946
0.061944647
0.069092495
0.076520507
0.084018954
0.0912477
0.097669583
0.10245597
0.10438522
0.10172797
0.092225869
0.073329755
0.044789434
0.022427688
0.01108148
0.0072801094
0.0061281376
0.0054932878
0.0050106984
0.0047176952
0.0045510348
0.0044750997
0.0043301496
0.0042624998
0.0040803872
0.0040336491
0.029594926
0.033858626
0.038618016
0.043893149
0.049687789
0.055989661
0.062762055
0.069931928
0.077371216
0.084866412
0.092073038
0.09844846
0.10315608
0.10496396
0.1021269
0.09238368
0.073168892
0.044365488
0.022151919
0.01096241
0.0072538243
0.0061208851
0.0054901859
0.0050077659
0.0047154201
0.0045487883
0.0044723475
0.0043285858
0.0042612058
0.0040796559
0.0040336923
0.030227759
0.034507926
0.039287121
0.044585405
0.050405638
0.056734049
0.063531677
0.070722444
0.078173857
0.085668553
0.09285832
0.099195304
0.10383556
0.10553751
0.10254247
0.092579377
0.073072213
0.044017565
0.021904361
0.010846188
0.0072299249
0.0061146294
0.005487701
0.0050051567
0.004713293
0.0045466128
0.0044695857
0.004326968
0.0042600396
0.0040789616
0.0040337325
0.030849897
0.03513935
0.03993109
0.045245142
0.051084098
0.057433332
0.064252372
0.071462632
0.078927033
0.086424131
0.093602613
0.099909583
0.10449437
0.10610635
0.10297387
0.092813644
0.073043274
0.043747778
0.021682257
0.010732097
0.0072086584
0.0061093445
0.0054858277
0.0050028693
0.0047113116
0.0045445171
0.0044668703
0.0043253228
0.0042590046
0.0040783089
0.0040337704
0.031460287
0.035751995
0.040548945
0.045871429
0.05172228
0.058086483
0.06492291
0.072150985
0.079629225
0.087131798
0.094304849
0.1005906
0.10513229
0.10667081
0.10342205
0.093091206
0.073085326
0.043558774
0.021482779
0.010619354
0.0071903367
0.0061050035
0.0054845605
0.0050009027
0.004709474
0.0045425158
0.0044642711
0.0043236959
0.0042580877
0.004077694
0.004033807
0.032058061
0.036345113
0.041139652
0.046463151
0.052319085
0.058692278
0.06554203
0.072785848
0.080278981
0.087793108
0.094968633
0.10124304
0.10575437
0.1072359
0.1038918
0.093414766
0.073202521
0.043453983
0.021302838
0.010507071
0.0071753624
0.0061015771
0.0054838918
0.0049992546
0.0047077784
0.004540628
0.0044618577
0.0043221436
0.0042572679
0.0040771091
0.0040338409
0.032642519
0.036917952
0.04170205
0.047019007
0.052873247
0.059249291
0.066108708
0.073371948
0.080885415
0.088407096
0.095584106
0.10185403
0.10634821
0.1077909
0.10437459
0.09377853
0.073394004
0.043438357
0.021138841
0.010394211
0.0071642579
0.0060990314
0.0054838092
0.0049979221
0.0047062247
0.0045388752
0.0044596815
0.0043207207
0.0042565293
0.0040765507
0.0040338657
0.033213509
0.037469776
0.042234855
0.047537499
0.05338327
0.059757603
0.066629407
0.073905719
0.081425878
0.088961684
0.096152236
0.10242895
0.10691941
0.10834116
0.10487538
0.094186846
0.073662692
0.043516079
0.020986326
0.010279516
0.0071580036
0.0060973357
0.0054842929
0.0049969049
0.0047048199
0.0045372779
0.0044577555
0.0043194632
0.0042558669
0.0040760213
0.0040338771
0.03377207
0.038000114
0.042736792
0.048017214
0.053846923
0.060219608
0.067096035