/*--------------------------------*- C++ -*----------------------------------*\
| =========                 |                                                 |
| \\      /  F ield         | OpenFOAM: The Open Source CFD Toolbox           |
|  \\    /   O peration     | Version:  2406                                  |
|   \\  /    A nd           | Website:  www.openfoam.com                      |
|    \\/     M anipulation  |                                                 |
\*---------------------------------------------------------------------------*/
FoamFile
{
    version     2.0;
    format      ascii;
    arch        "LSB;label=32;scalar=64";
    class       volScalarField;
    location    "0.008";
    object      T;
}
// * * * * * * * * * * * * * * * * * * * * * * * * * * * * * * * * * * * * * //

dimensions      [0 0 0 1 0 0 0];

internalField   nonuniform List<scalar> 
8951
(
292.42279
292.42285
292.42091
292.42246
292.42829
292.43753
292.44924
292.46254
292.47577
292.48706
292.4946
292.49651
292.49169
292.47903
292.45883
292.4306
292.39883
292.38139
292.43995
292.52082
292.56079
292.58521
292.60985
292.63699
292.66656
292.69004
292.71173
292.72295
292.73597
292.7621
292.94433
292.45462
292.45611
292.45582
292.45716
292.46082
292.46695
292.47526
292.485
292.49452
292.50242
292.50698
292.50631
292.49931
292.48492
292.46328
292.43416
292.40248
292.38733
292.44975
292.52733
292.5645
292.58785
292.61172
292.63831
292.66781
292.69087
292.71276
292.72334
292.73584
292.76204
292.94436
292.50247
292.50111
292.49946
292.49911
292.5001
292.50284
292.50725
292.51279
292.5181
292.5219
292.52288
292.51901
292.50931
292.49276
292.46926
292.43887
292.40693
292.39468
292.46116
292.53435
292.56852
292.59075
292.61374
292.63967
292.66894
292.69182
292.71378
292.72393
292.73593
292.76163
292.94426
292.56747
292.56022
292.55414
292.54979
292.54682
292.54533
292.54522
292.54595
292.54644
292.54551
292.54204
292.53439
292.52151
292.50239
292.47666
292.44464
292.41233
292.40399
292.47442
292.54218
292.57313
292.59413
292.61613
292.64131
292.67011
292.69293
292.71483
292.72434
292.73624
292.76112
292.94401
292.64153
292.6292
292.61804
292.60864
292.60067
292.59404
292.58861
292.58387
292.57892
292.57275
292.56431
292.55237
292.53586
292.51375
292.48546
292.45165
292.41896
292.41593
292.48981
292.55086
292.57842
292.59805
292.61888
292.6432
292.67127
292.69403
292.71543
292.72481
292.73667
292.76076
292.94374
292.71728
292.70204
292.68706
292.67313
292.66015
292.64813
292.63698
292.62634
292.61553
292.60371
292.58996
292.57329
292.55269
292.52715
292.49592
292.46017
292.42764
292.43138
292.5075
292.56044
292.58447
292.60258
292.62208
292.64542
292.67253
292.69518
292.71581
292.72532
292.73719
292.76051
292.94351
292.7919
292.77504
292.75759
292.74024
292.72305
292.7061
292.68947
292.67298
292.65621
292.63854
292.61922
292.59747
292.57236
292.54295
292.50837
292.47059
292.43873
292.4516
292.52745
292.57097
292.59138
292.60781
292.62577
292.64801
292.67403
292.69655
292.71736
292.72585
292.73772
292.76041
292.94334
292.86478
292.84696
292.8279
292.80804
292.78749
292.76641
292.74494
292.72307
292.70059
292.67714
292.65218
292.62511
292.59514
292.56146
292.52317
292.48338
292.45331
292.47737
292.54924
292.58255
292.59928
292.61382
292.63004
292.65106
292.67598
292.69817
292.71966
292.72666
292.73816
292.76048
292.94305
292.93485
292.91639
292.89629
292.87472
292.85175
292.8275
292.8021
292.77561
292.748
292.71911
292.68864
292.65619
292.62118
292.58293
292.5407
292.49905
292.47321
292.50975
292.57215
292.59533
292.60832
292.62074
292.63497
292.65464
292.67829
292.69958
292.72084
292.72757
292.73851
292.76064
292.94262
293.00012
292.9816
292.96108
292.9386
292.91414
292.8877
292.85937
292.82921
292.79728
292.76358
292.72803
292.69043
292.65042
292.60753
292.56133
292.51855
292.50152
292.54892
292.59548
292.60943
292.61869
292.62865
292.64065
292.65886
292.68101
292.70068
292.72082
292.72854
292.73888
292.76068
292.94176
293.05911
293.041
293.02068
292.998
292.97281
292.94506
292.91477
292.88197
292.84675
292.80918
292.76932
292.72715
292.68253
292.63523
292.58555
292.54401
292.54297
292.59285
292.61902
292.62503
292.63058
292.63767
292.64718
292.6638
292.68421
292.70312
292.72147
292.72965
292.73959
292.76038
292.94057
293.1104
293.09247
293.0724
293.04997
293.02481
292.99671
292.96557
292.93138
292.89416
292.85398
292.81096
292.76523
292.71682
292.66591
292.61464
292.58093
292.60027
292.63566
292.64303
292.64236
292.64415
292.64789
292.65466
292.66959
292.688
292.70575
292.7225
292.73123
292.74073
292.75971
292.93914
293.15137
293.13427
293.11478
293.09274
293.06801
293.04033
293.00941
292.97506
292.93719
292.89581
292.85105
292.80309
292.7523
292.69999
292.65367
292.64069
292.66476
292.67423
292.66796
292.66143
292.65944
292.65933
292.66335
292.67638
292.69253
292.70923
292.72426
292.73307
292.74223
292.75887
292.93738
293.17987
293.16418
293.14635
293.12595
293.10249
293.07577
293.04558
293.01176
292.97419
292.93285
292.88788
292.83982
292.79017
292.74348
292.71582
292.72227
292.72288
292.70849
292.6938
292.68236
292.67636
292.67218
292.67351
292.68433
292.69798
292.71328
292.7265
292.73526
292.74405
292.75835
292.93523
293.19345
293.17895
293.16239
293.14365
293.12237
293.09794
293.06995
293.03838
293.00325
292.96467
292.92309
292.88027
292.84049
292.8122
292.80296
292.79196
292.76657
292.74123
292.72035
292.70466
292.69467
292.68659
292.68525
292.69366
292.70453
292.71802
292.72941
292.73783
292.74599
292.75853
292.93268
293.19514
293.18186
293.16637
293.1486
293.12889
293.10762
293.08449
293.05895
293.03091
293.00064
292.96942
292.93933
292.91268
292.89143
292.86712
292.83483
292.80315
292.77289
292.74724
292.72784
292.71418
292.70227
292.69851
292.70442
292.7125
292.72364
292.73315
292.74062
292.74792
292.75954
292.92971
293.20427
293.19642
293.18753
293.17711
293.16398
293.14699
293.12598
293.10134
293.07529
293.05012
293.02502
292.99761
292.96686
292.93401
292.89827
292.86571
292.83399
292.80259
292.77318
292.75096
292.73437
292.71891
292.71301
292.71664
292.72192
292.73034
292.73779
292.74392
292.74976
292.76106
292.92606
293.17075
293.16455
293.15767
293.15026
293.14264
293.13526
293.12831
293.12108
293.10949
293.08976
293.06351
293.03107
292.99603
292.96213
292.92938
292.89221
292.85912
292.82888
292.79822
292.774
292.75469
292.73601
292.72863
292.73019
292.73265
292.73835
292.7436
292.74803
292.7519
292.7626
292.9206
293.15505
293.14947
293.14289
293.13501
293.12549
293.11397
293.10027
293.08498
293.06984
293.05522
293.04113
293.03052
293.01646
292.98844
292.95324
292.91723
292.88198
292.85055
292.8213
292.79653
292.77481
292.75374
292.74521
292.74481
292.74477
292.74793
292.75104
292.75359
292.75537
292.76436
292.91339
293.11325
293.10976
293.10586
293.10147
293.09654
293.09101
293.0847
293.07722
293.06817
293.05691
293.04165
293.0208
293.00099
292.98778
292.96827
292.9363
292.90312
292.87157
292.84243
292.81771
292.79383
292.77259
292.7638
292.76076
292.75816
292.75907
292.76053
292.76126
292.76099
292.76665
292.91663
293.09104
293.08805
293.08454
293.08037
293.07538
293.06941
293.06231
293.054
293.04451
293.03408
293.02327
293.01205
292.99708
292.97474
292.95727
292.94614
292.91938
292.89003
292.86304
292.8372
292.81185
292.79384
292.78501
292.77816
292.77289
292.77211
292.77229
292.77101
292.76927
292.77019
292.91897
293.04908
293.0471
293.04486
293.0423
293.03937
293.03606
293.03233
293.02807
293.02304
293.01674
293.00836
292.99763
292.98605
292.9745
292.95648
292.93861
292.92767
292.90491
292.88019
292.85515
292.83178
292.81929
292.80821
292.79553
292.78909
292.78733
292.78633
292.78263
292.77983
292.77548
292.92042
293.02537
293.02388
293.0221
293.02001
293.0175
293.01448
293.0108
293.00634
293.00101
292.99489
292.98811
292.98092
292.97267
292.96295
292.95339
292.93801
292.92314
292.91483
292.89494
292.87389
292.85624
292.84693
292.83164
292.81243
292.80643
292.80429
292.8028
292.79664
292.79294
292.78625
292.92463
292.99473
292.99397
292.99306
292.99199
292.99075
292.98933
292.98774
292.98592
292.98383
292.98129
292.97793
292.97317
292.96684
292.95898
292.94942
292.94158
292.93181
292.91897
292.90957
292.89427
292.88043
292.86961
292.85152
292.83066
292.82527
292.82343
292.82168
292.81375
292.81033
292.79761
292.92671
292.99313
292.99259
292.99192
292.99108
292.99003
292.98872
292.9871
292.98508
292.98254
292.9794
292.9758
292.97186
292.96758
292.96292
292.95759
292.94929
292.93924
292.93158
292.91999
292.9094
292.89886
292.88713
292.87097
292.85193
292.84689
292.84694
292.84348
292.83366
292.83247
292.81391
292.92772
292.97753
292.97719
292.97678
292.97627
292.97563
292.97484
292.97387
292.97271
292.97133
292.96974
292.96783
292.96549
292.96267
292.95914
292.95493
292.95103
292.94699
292.93969
292.9335
292.92165
292.91252
292.90611
292.89535
292.87759
292.87096
292.87312
292.86868
292.85779
292.85972
292.84232
292.93903
292.97531
292.975
292.97463
292.97418
292.97361
292.97291
292.97204
292.97094
292.96955
292.96772
292.96525
292.96216
292.9594
292.95698
292.95464
292.95176
292.94817
292.94466
292.94257
292.94299
292.93611
292.93058
292.92281
292.908
292.89834
292.90011
292.89426
292.88695
292.89266
292.87635
292.93353
292.97003
292.96966
292.96925
292.96878
292.96826
292.96769
292.9671
292.96651
292.96601
292.96571
292.96585
292.96649
292.96675
292.96659
292.96605
292.9653
292.96426
292.96286
292.96059
292.95969
292.95864
292.95486
292.95223
292.93909
292.92714
292.92862
292.9256
292.92523
292.92929
292.91413
292.94565
292.98653
292.98598
292.9854
292.9848
292.9842
292.98359
292.98299
292.98242
292.98187
292.98135
292.98084
292.98033
292.97991
292.97957
292.97926
292.97885
292.97842
292.97786
292.9767
292.97591
292.97945
292.98198
292.97896
292.96887
292.95739
292.9593
292.96174
292.9616
292.96292
292.95339
292.96827
292.99809
292.99801
292.99789
292.99774
292.99754
292.99728
292.99696
292.99656
292.9961
292.99557
292.99502
292.99452
292.99417
292.99403
292.9941
292.9944
292.99484
292.99559
292.99689
292.9987
293.0039
293.00996
293.00855
293.00012
292.98758
292.98549
292.98964
292.98387
292.98575
292.98253
292.99435
293.00635
293.00638
293.00641
293.00644
293.00649
293.00656
293.00665
293.00677
293.00692
293.00708
293.00726
293.00749
293.00776
293.00807
293.00835
293.00852
293.00859
293.00844
293.00895
293.00902
293.00908
293.01805
293.02234
293.0208
293.01403
293.00645
293.00771
293.0058
293.00349
293.0036
293.00298
293.06006
293.13632
293.2347
293.27508
293.22513
293.1231
293.00726
292.9023
292.8136
292.73859
292.67418
292.61807
292.56876
292.52476
292.48378
292.44416
292.40179
292.35705
292.30938
292.30932
292.38012
292.47333
292.53787
292.59011
292.63631
292.672
292.69996
292.71882
292.7431
292.77166
292.9857
293.10387
293.18581
293.24014
293.22106
293.15418
293.05832
292.95708
292.86525
292.78559
292.71664
292.65649
292.60366
292.557
292.51511
292.47577
292.4374
292.39584
292.35208
292.30709
292.3101
292.38576
292.47762
292.54033
292.5917
292.63731
292.67259
292.70015
292.71878
292.74307
292.77146
292.98413
293.16195
293.23789
293.24927
293.20339
293.11715
293.01618
292.92023
292.83563
292.76186
292.69738
292.64067
292.59069
292.54641
292.50643
292.46857
292.43129
292.39044
292.34744
292.30508
292.31118
292.39145
292.48169
292.54259
292.59314
292.63819
292.6731
292.70029
292.7187
292.74303
292.7714
292.98288
293.2307
293.26689
293.24019
293.16776
293.07206
292.97473
292.88657
292.80878
292.74013
292.67952
292.62592
292.57858
292.53652
292.49832
292.46184
292.42556
292.38538
292.34308
292.30329
292.31262
292.39724
292.48567
292.54481
292.59456
292.63908
292.67361
292.70041
292.71861
292.74299
292.77134
292.9817
293.28246
293.27066
293.21134
293.12301
293.02677
292.93652
292.85582
292.78381
292.71955
292.66242
292.61175
292.56694
292.52702
292.49052
292.45537
292.42004
292.38055
292.33896
292.30172
292.3145
292.40318
292.48951
292.54697
292.59596
292.63996
292.67412
292.7005
292.71852
292.74295
292.77132
292.98054
293.29771
293.24794
293.16725
293.07454
292.98406
292.90169
292.82741
292.76026
292.69987
292.64595
292.59808
292.55573
292.51787
292.48304
292.44916
292.41475
292.37597
292.33511
292.30033
292.31686
292.40919
292.49322
292.54907
292.59734
292.64082
292.67462
292.70057
292.71842
292.74293
292.77133
292.9794
293.28048
293.20371
293.11688
293.02817
292.94538
292.8699
292.80087
292.73786
292.68097
292.63008
292.58494
292.54497
292.50912
292.47588
292.44324
292.40971
292.37166
292.3315
292.29906
292.3197
292.41523
292.49678
292.55111
292.59868
292.64168
292.67511
292.70063
292.71832
292.74291
292.7714
292.97826
293.23795
293.15264
293.06771
292.98604
292.91034
292.84041
292.77571
292.71639
292.66275
292.61478
292.5723
292.53466
292.50076
292.46906
292.43761
292.40491
292.3676
292.3281
292.29792
292.32304
292.42123
292.50019
292.5531
292.6
292.64252
292.67559
292.70067
292.71822
292.74292
292.77151
292.97713
293.18669
293.1022
293.02289
292.94803
292.87801
292.81254
292.75159
292.69567
292.64512
292.60003
292.56015
292.52478
292.49278
292.46257
292.43226
292.40035
292.36378
292.32499
292.29701
292.32688
292.42715
292.50346
292.55503
292.60128
292.64335
292.67607
292.70069
292.71813
292.74295
292.77166
292.97602
293.1337
293.05505
292.98218
292.91299
292.84751
292.78579
292.72826
292.67556
292.62805
292.58579
292.54848
292.51534
292.48518
292.4564
292.42719
292.39603
292.36019
292.32215
292.29645
292.33111
292.43294
292.50659
292.55692
292.60254
292.64417
292.67653
292.7007
292.71803
292.743
292.77182
292.97493
293.0839
293.01211
292.94469
292.87997
292.8182
292.75984
292.70556
292.65602
292.61151
292.57207
292.53729
292.50632
292.47795
292.45055
292.4224
292.39195
292.35683
292.31953
292.29617
292.33563
292.43858
292.50959
292.55876
292.60378
292.64498
292.67698
292.70071
292.71795
292.74308
292.77194
292.97388
293.03866
292.97247
292.90931
292.84817
292.78966
292.73447
292.68339
292.63697
292.59548
292.55884
292.52657
292.49773
292.47109
292.44503
292.41788
292.38808
292.35373
292.31713
292.29617
292.34045
292.4441
292.51247
292.56056
292.60498
292.64577
292.67743
292.70071
292.71788
292.74319
292.77201
292.97288
292.99684
292.93488
292.87507
292.81704
292.76159
292.70954
292.66166
292.6184
292.57994
292.54611
292.51631
292.48956
292.4646
292.43983
292.41365
292.38446
292.35088
292.31498
292.29647
292.34557
292.44947
292.51524
292.56233
292.60617
292.64655
292.67786
292.70072
292.71782
292.74332
292.77208
292.97193
292.95689
292.89821
292.8413
292.78619
292.73379
292.68495
292.64034
292.6003
292.56491
292.53387
292.50652
292.48182
292.45849
292.43496
292.4097
292.38107
292.34829
292.31309
292.29708
292.35096
292.45469
292.5179
292.56405
292.60732
292.64731
292.67828
292.70073
292.71778
292.74348
292.77228
292.97105
292.91748
292.86163
292.8075
292.75536
292.70614
292.66065
292.61941
292.58266
292.55037
292.52213
292.49719
292.47449
292.45274
292.43041
292.40602
292.37794
292.34597
292.31147
292.29796
292.35659
292.45975
292.52047
292.56575
292.60846
292.64805
292.67869
292.70076
292.71775
292.74366
292.77259
292.97024
292.87766
292.82459
292.77337
292.72439
292.67856
292.63659
292.59886
292.56549
292.53633
292.51088
292.48833
292.46758
292.44736
292.42618
292.40263
292.37507
292.34386
292.31012
292.29913
292.36244
292.46462
292.52295
292.56742
292.60957
292.64878
292.67909
292.70081
292.71775
292.74386
292.77286
292.96952
292.83677
292.7867
292.73869
292.69319
292.65104
292.61279
292.5787
292.5488
292.52281
292.50014
292.47993
292.46109
292.44235
292.42227
292.39951
292.37247
292.34194
292.30907
292.30056
292.36848
292.46932
292.52535
292.56905
292.61066
292.64948
292.67947
292.70088
292.71777
292.74407
292.77301
292.96885
292.79437
292.74773
292.70336
292.66172
292.62356
292.58925
292.55897
292.53261
292.5098
292.4899
292.47201
292.45502
292.43772
292.41869
292.39666
292.37016
292.34023
292.30829
292.30224
292.37467
292.47383
292.52767
292.57066
292.61172
292.65016
292.67985
292.70098
292.71782
292.74429
292.77309
292.96816
292.75018
292.70755
292.66735
292.63002
292.59616
292.56603
292.53968
292.51693
292.49734
292.48019
292.46456
292.44938
292.43345
292.41544
292.3941
292.36818
292.33875
292.30775
292.30419
292.38096
292.47816
292.52993
292.57224
292.61277
292.65082
292.68021
292.70112
292.7179
292.7445
292.77312
292.96749
292.70409
292.66617
292.63072
292.59816
292.56892
292.54317
292.52089
292.50181
292.48542
292.47099
292.45759
292.44416
292.42955
292.4125
292.39185
292.36648
292.33744
292.30744
292.30639
292.38733
292.48229
292.53213
292.57378
292.6138
292.65146
292.68057
292.7013
292.718
292.74471
292.77316
292.96688
292.65623
292.62374
292.59362
292.56626
292.54194
292.52076
292.50263
292.48726
292.47407
292.46233
292.4511
292.43936
292.42603
292.40989
292.38988
292.36502
292.3363
292.3073
292.30887
292.39372
292.48625
292.53428
292.57531
292.6148
292.65207
292.68091
292.70152
292.71815
292.7449
292.77317
292.96626
292.60695
292.58054
292.55629
292.5345
292.51534
292.49886
292.48497
292.47331
292.46331
292.45421
292.44509
292.43499
292.42288
292.4076
292.38822
292.36382
292.33543
292.30728
292.31167
292.40012
292.49003
292.53637
292.5768
292.61579
292.65267
292.68125
292.70179
292.71832
292.74506
292.77316
292.96567
292.55679
292.53696
292.51902
292.50309
292.48926
292.47758
292.46796
292.46001
292.45316
292.44664
292.43958
292.43105
292.4201
292.40565
292.38687
292.36284
292.33479
292.3074
292.31483
292.40645
292.49365
292.53842
292.57826
292.61676
292.65325
292.68158
292.7021
292.71853
292.7452
292.7731
292.96512
292.50643
292.49354
292.48218
292.47226
292.46385
292.45701
292.45166
292.44739
292.44363
292.43964
292.43456
292.42754
292.41767
292.40405
292.3858
292.36211
292.33436
292.30768
292.31835
292.41269
292.49711
292.54042
292.57969
292.61771
292.65382
292.68191
292.70247
292.71879
292.7453
292.77302
292.96459
292.45671
292.45096
292.44609
292.44221
292.43926
292.43727
292.43614
292.43548
292.43474
292.43322
292.43005
292.42444
292.41564
292.40282
292.38499
292.36163
292.33413
292.30817
292.32221
292.4188
292.50043
292.54239
292.58109
292.61863
292.65437
292.68223
292.70288
292.71908
292.74538
292.77291
292.96408
292.40821
292.40945
292.4111
292.41321
292.4157
292.41849
292.42146
292.42431
292.42652
292.42738
292.42602
292.42176
292.41406
292.40191
292.38448
292.3614
292.3341
292.3089
292.32637
292.42476
292.50361
292.54433
292.58245
292.61954
292.65491
292.68255
292.70335
292.71942
292.74542
292.77277
292.96355
292.36165
292.36959
292.37759
292.38553
292.39329
292.40074
292.4077
292.41393
292.41899
292.42213
292.42246
292.41963
292.4129
292.40129
292.38425
292.36142
292.33429
292.3099
292.3308
292.43054
292.50668
292.54623
292.58379
292.62043
292.65545
292.68288
292.70386
292.71981
292.74543
292.7726
292.96301
292.31763
292.33185
292.34586
292.35939
292.37222
292.38413
292.39492
292.40437
292.41214
292.41742
292.41949
292.41802
292.41205
292.40099
292.38432
292.3617
292.33473
292.31118
292.33547
292.43613
292.50964
292.54811
292.5851
292.62129
292.65597
292.6832
292.70443
292.72025
292.74542
292.77239
292.96246
292.27665
292.29661
292.3162
292.335
292.35262
292.36876
292.38315
292.39565
292.40598
292.41335
292.4172
292.41684
292.41158
292.40103
292.38467
292.36224
292.3354
292.31266
292.34035
292.44154
292.5125
292.54997
292.58637
292.62214
292.65649
292.68353
292.70503
292.72073
292.74539
292.77215
292.96189
292.23903
292.26411
292.28883
292.31252
292.33461
292.35467
292.37238
292.38775
292.40067
292.41021
292.41549
292.41602
292.4115
292.4014
292.38532
292.36305
292.33631
292.31435
292.34538
292.44675
292.51528
292.5518
292.58761
292.62295
292.65699
292.68387
292.70567
292.72127
292.74534
292.77187
292.96127
292.20488
292.23449
292.26387
292.29205
292.31823
292.34189
292.36266
292.38099
292.39663
292.40776
292.41418
292.41565
292.4118
292.4021
292.38625
292.36413
292.33743
292.3162
292.3505
292.45176
292.51797
292.55361
292.58884
292.62376
292.6575
292.68421
292.70634
292.72184
292.74526
292.77155
292.96059
292.1742
292.20792
292.24151
292.27369
292.30364
292.33076
292.35468
292.37598
292.3933
292.40562
292.41337
292.41573
292.41249
292.40314
292.38748
292.3655
292.3388
292.31823
292.35567
292.45657
292.52061
292.55541
292.59004
292.62454
292.658
292.68455
292.70703
292.72243
292.74515
292.77117
292.95983
292.14828
292.18565
292.22287
292.2585
292.29171
292.32188
292.34874
292.37189
292.39021
292.40408
292.41309
292.41628
292.41356
292.40451
292.389
292.36715
292.34039
292.32045
292.36086
292.46123
292.5232
292.5572
292.59123
292.62532
292.65849
292.6849
292.70771
292.72303
292.74501
292.77073
292.95898
292.12802
292.16859
292.20889
292.2473
292.28287
292.31525
292.34386
292.36809
292.38788
292.40328
292.41333
292.41727
292.415
292.40621
292.39081
292.369
292.34222
292.32286
292.36604
292.46572
292.52576
292.55897
292.59241
292.62607
292.65898
292.68524
292.70838
292.72361
292.7448
292.77024
292.95806
292.11222
292.15599
292.19882
292.23921
292.27632
292.3097
292.33943
292.36516
292.38654
292.40317
292.41412
292.41872
292.41682
292.40824
292.39291
292.37109
292.34429
292.32548
292.37119
292.47006
292.52826
292.56074
292.59357
292.62681
292.65946
292.68557
292.70901
292.72416
292.74452
292.76967
292.95706
292.09937
292.14586
292.19051
292.23222
292.27033
292.30482
292.33602
292.36329
292.38605
292.40371
292.41546
292.42063
292.41906
292.4106
292.39529
292.37341
292.34658
292.3283
292.37629
292.47426
292.53073
292.5625
292.59472
292.62754
292.65992
292.6859
292.70959
292.72466
292.74417
292.76907
292.95601
292.09382
292.14095
292.18571
292.22748
292.26599
292.30142
292.33384
292.36244
292.38637
292.40491
292.41733
292.42299
292.4217
292.4133
292.39798
292.37599
292.3491
292.3313
292.38133
292.47831
292.53316
292.56425
292.59587
292.62826
292.66038
292.68621
292.71011
292.72508
292.74374
292.76848
292.95489
292.09777
292.14259
292.18521
292.22554
292.26364
292.29955
292.33289
292.36261
292.3875
292.40677
292.41976
292.42582
292.42474
292.41634
292.40095
292.3788
292.35185
292.33449
292.38629
292.48222
292.53554
292.566
292.59701
292.62896
292.66083
292.6865
292.71054
292.72539
292.74323
292.76786
292.95373
292.10867
292.14865
292.18755
292.22561
292.26289
292.29907
292.33319
292.36382
292.38947
292.40931
292.42274
292.4291
292.42816
292.41973
292.40422
292.38186
292.35481
292.33784
292.39117
292.48599
292.53788
292.56773
292.59814
292.62966
292.66126
292.68677
292.71089
292.72558
292.74265
292.7672
292.95252
292.12144
292.15565
292.19067
292.22664
292.26335
292.29991
292.33475
292.36614
292.39231
292.41256
292.42627
292.43284
292.43198
292.42345
292.40778
292.38517
292.35799
292.34136
292.39596
292.48963
292.54016
292.56945
292.59927
292.63035
292.66169
292.68703
292.71114
292.72564
292.74202
292.76651
292.95128
292.13064
292.16034
292.19293
292.22803
292.26493
292.30216
292.3377
292.36963
292.39607
292.41652
292.43036
292.43705
292.43618
292.42751
292.41164
292.38871
292.36137
292.34501
292.40065
292.49315
292.5424
292.57115
292.60039
292.63103
292.66211
292.68727
292.7113
292.72556
292.74136
292.76581
292.95003
292.13334
292.16158
292.1942
292.23009
292.26805
292.30618
292.34225
292.37439
292.4008
292.42122
292.43502
292.4417
292.44077
292.43191
292.4158
292.3925
292.36495
292.34879
292.40524
292.49654
292.54459
292.57282
292.60151
292.63171
292.66253
292.68749
292.71139
292.72536
292.74067
292.76515
292.94879
292.1317
292.16175
292.19658
292.23443
292.27376
292.31257
292.34869
292.38053
292.40659
292.42668
292.44024
292.44681
292.44574
292.43664
292.42024
292.39652
292.36872
292.35269
292.40973
292.49982
292.54673
292.57447
292.60262
292.63238
292.66294
292.68772
292.71144
292.72507
292.73998
292.76455
292.94766
292.13319
292.1666
292.20407
292.24353
292.28348
292.32204
292.35726
292.38812
292.41345
292.43288
292.44601
292.45235
292.45108
292.44169
292.42497
292.40078
292.37266
292.35668
292.41412
292.503
292.54883
292.57609
292.60372
292.63306
292.66337
292.68796
292.71146
292.72472
292.7393
292.76401
292.94674
292.14757
292.18294
292.22101
292.25988
292.29842
292.33507
292.36807
292.39718
292.42135
292.43981
292.45233
292.45833
292.45678
292.44707
292.42998
292.40528
292.37675
292.36075
292.41842
292.50608
292.55088
292.57768
292.6048
292.63373
292.6638
292.68821
292.71147
292.72433
292.73863
292.76349
292.9461
292.18188
292.21513
292.24976
292.28449
292.31889
292.35145
292.38091
292.40756
292.43012
292.44743
292.45916
292.4647
292.46281
292.45274
292.43526
292.41001
292.38098
292.36489
292.42262
292.50908
292.55291
292.57925
292.60587
292.6344
292.66426
292.6885
292.71145
292.72394
292.73798
292.76302
292.94576
292.23584
292.26184
292.28855
292.31579
292.34339
292.37009
292.39525
292.41883
292.43941
292.45555
292.46642
292.47142
292.46914
292.45867
292.44076
292.41495
292.38537
292.36909
292.42678
292.51202
292.5549
292.58077
292.60691
292.63506
292.66475
292.68883
292.71139
292.72355
292.73737
292.76263
292.94523
292.30103
292.31562
292.33134
292.34918
292.36884
292.38929
292.40996
292.43031
292.44878
292.46386
292.47401
292.47841
292.47569
292.46481
292.44642
292.42004
292.38988
292.37331
292.43087
292.51482
292.55682
292.58223
292.60788
292.63568
292.66526
292.6892
292.71129
292.72318
292.73679
292.76236
292.94531
292.36476
292.36781
292.3722
292.38072
292.39312
292.40811
292.42471
292.44203
292.45857
292.47247
292.48208
292.48585
292.48262
292.47126
292.45233
292.42532
292.3945
292.3773
292.43461
292.51728
292.55856
292.58356
292.60874
292.63625
292.66581
292.68959
292.71128
292.72293
292.7363
292.7622
292.94561
293.03199
293.09393
293.18749
293.25217
293.22998
293.13738
293.02242
292.91592
292.82518
292.74844
292.68271
292.62549
292.57514
292.53019
292.48843
292.44815
292.40552
292.36028
292.31182
292.30947
292.37682
292.47096
292.53656
292.58932
292.63588
292.67178
292.69999
292.71899
292.74328
292.77194
292.98539
293.02385
293.0756
293.15395
293.22292
293.213
293.13102
293.02324
292.91984
292.83016
292.75376
292.68808
292.6307
292.57998
292.53449
292.49219
292.45131
292.40834
292.3625
292.31405
292.30937
292.37457
292.46959
292.53594
292.58903
292.63579
292.67177
292.70012
292.71921
292.7435
292.77228
292.9866
293.01862
293.06587
293.13786
293.20834
293.2063
293.13161
293.02774
292.9258
292.83637
292.75985
292.69393
292.63625
292.58507
292.53902
292.49613
292.45463
292.41126
292.36485
292.31622
292.30919
292.37206
292.46796
292.53517
292.58861
292.63561
292.67169
292.7002
292.71938
292.74366
292.77255
292.988
293.01368
293.05703
293.12453
293.19655
293.2022
293.13321
293.03216
292.93133
292.84214
292.76554
292.69947
292.64156
292.59002
292.54348
292.50005
292.45797
292.41422
292.3673
292.31847
292.30918
292.36964
292.46628
292.53434
292.58814
292.6354
292.6716
292.70025
292.71954
292.74381
292.77282
292.98953
293.00921
293.0488
293.11177
293.18471
293.19759
293.13412
293.03596
292.93638
292.84755
292.77098
292.70484
292.64675
292.59491
292.54792
292.50399
292.46136
292.41724
292.36983
292.32081
292.30931
292.36734
292.46461
292.53352
292.58766
292.63519
292.6715
292.70029
292.71969
292.74395
292.7731
292.99121
293.0054
293.04171
293.10033
293.17297
293.19229
293.13432
293.03936
292.94118
292.85281
292.77633
292.71014
292.65191
292.5998
292.5524
292.50799
292.46483
292.42032
292.37246
292.32326
292.30958
292.36513
292.46296
292.53272
292.58719
292.635
292.67142
292.70033
292.71984
292.74409
292.7734
292.99306
293.00227
293.03575
293.09038
293.16133
293.18659
293.13413
293.04255
292.94587
292.85801
292.78164
292.71542
292.65707
292.60471
292.55693
292.51205
292.46838
292.42348
292.37517
292.32579
292.30997
292.36299
292.46132
292.53193
292.58674
292.63481
292.67135
292.70036
292.71999
292.74422
292.77371
292.9951
292.9998
293.03078
293.08172
293.14989
293.18004
293.13367
293.04562
292.95049
292.86318
292.78694
292.72069
292.66224
292.60965
292.5615
292.51618
292.47201
292.42671
292.37797
292.32843
292.31049
292.36093
292.45968
292.53115
292.58628
292.63463
292.67127
292.70039
292.72012
292.74435
292.77403
292.99735
292.99795
293.02672
293.07426
293.1393
293.17326
293.13298
293.04857
292.95506
292.86833
292.79224
292.72597
292.66742
292.61462
292.56613
292.52039
292.47572
292.43002
292.38086
292.33116
292.31114
292.35897
292.45803
292.53037
292.58583
292.63446
292.6712
292.70041
292.72025
292.74448
292.77436
292.99981
292.99674
293.02356
293.06795
293.12966
293.1665
293.13212
293.05142
292.9596
292.8735
292.79757
292.73129
292.67263
292.61964
292.57082
292.52466
292.47952
292.43341
292.38384
292.33398
292.31192
292.35709
292.45638
292.5296
292.58539
292.63428
292.67113
292.70042
292.72037
292.74459
292.77471
293.00249
292.99616
293.02125
293.06275
293.12108
293.1599
293.13114
293.05422
292.96416
292.8787
292.80294
292.73665
292.67789
292.6247
292.57557
292.529
292.4834
292.43689
292.38691
292.33689
292.31284
292.3553
292.45474
292.52883
292.58495
292.63411
292.67105
292.70042
292.72047
292.74471
292.77506
293.00538
292.9962
293.01974
293.05861
293.11366
293.15363
293.13009
293.05701
292.96876
292.88398
292.8084
292.74207
292.68321
292.62982
292.58038
292.53342
292.48736
292.44044
292.39008
292.3399
292.31391
292.35362
292.4531
292.52807
292.58452
292.63394
292.67097
292.70041
292.72056
292.74481
292.77542
293.00849
292.99683
293.019
293.05547
293.10739
293.14772
293.129
293.05981
292.97343
292.88936
292.81395
292.74758
292.68859
292.635
292.58526
292.53791
292.49141
292.44407
292.39334
292.34299
292.31515
292.35205
292.45146
292.52732
292.5841
292.63376
292.67088
292.70038
292.72064
292.74492
292.7758
293.01181
292.99804
293.019
293.0533
293.10227
293.14235
293.12798
293.06266
292.9782
292.89486
292.81963
292.7532
292.69407
292.64026
292.59022
292.54248
292.49554
292.44778
292.39667
292.34612
292.31661
292.3506
292.44983
292.52658
292.58369
292.63358
292.67078
292.70034
292.7207
292.74503
292.77619
293.01534
292.99983
293.01973
293.05208
293.09829
293.13782
293.12717
293.0656
292.98309
292.90052
292.82545
292.75894
292.69964
292.64561
292.59526
292.54714
292.49975
292.45158
292.40008
292.3493
292.31821
292.34927
292.4482
292.52585
292.58329
292.63339
292.67067
292.70029