/*--------------------------------*- C++ -*----------------------------------*\
| =========                 |                                                 |
| \\      /  F ield         | OpenFOAM: The Open Source CFD Toolbox           |
|  \\    /   O peration     | Version:  2406                                  |
|   \\  /    A nd           | Website:  www.openfoam.com                      |
|    \\/     M anipulation  |                                                 |
\*---------------------------------------------------------------------------*/
FoamFile
{
    version     2.0;
    format      ascii;
    arch        "LSB;label=32;scalar=64";
    class       volScalarField;
    location    "0.05";
    object      nut;
}
// * * * * * * * * * * * * * * * * * * * * * * * * * * * * * * * * * * * * * //

dimensions      [0 2 -1 0 0 0 0];

internalField   nonuniform List<scalar> 
2065
(
0.0026109701
0.0028774461
0.0031521689
0.0034395819
0.0037447484
0.0040706595
0.004420305
0.0047979673
0.005199297
0.0056276438
0.0060758295
0.0065357535
0.0069988283
0.0074459483
0.007881249
0.0082809105
0.0086387211
0.0089420126
0.0092010369
0.0094106373
0.009573859
0.0096942727
0.0097736918
0.0098085434
0.009797155
0.0097394778
0.0096387966
0.0094996494
0.0093268984
0.0091332849
0.0089390071
0.0087630795
0.0086021044
0.0084345145
0.0082696513
0.0081488848
0.0080904844
0.0080751677
0.0081052966
0.0082134606
0.0084213987
0.0087235343
0.0091139402
0.0095966492
0.010159068
0.01080766
0.011483153
0.012187771
0.012887756
0.013570185
0.014154884
0.014662672
0.01503677
0.015249703
0.015321945
0.015191407
0.015015383
0.01443536
0.0016442672
0.0018930351
0.0021638373
0.0024614812
0.0027883573
0.0031418216
0.0035277138
0.0039492079
0.0044021138
0.0048887554
0.0054006789
0.0059304949
0.0064713735
0.0070052666
0.0075210799
0.0079941894
0.0084315616
0.0088152396
0.0091411337
0.0094091211
0.0096224979
0.0097842499
0.0098916128
0.0099457619
0.0099503826
0.0099033659
0.0098097382
0.0096771829
0.0095139338
0.0093352987
0.0091614119
0.009009405
0.0088745138
0.0087378692
0.0086145364
0.0085463577
0.0085487841
0.0086009107
0.0087059585
0.0088946229
0.0091863322
0.0095695213
0.010037213
0.01058654
0.011210124
0.011902936
0.012624712
0.013362664
0.01409362
0.014806445
0.01542533
0.015962119
0.016382396
0.01662192
0.016736503
0.016633858
0.016481335
0.015920226
0.0011400636
0.0013613859
0.0016106166
0.0018914525
0.0022067959
0.0025376205
0.0028878011
0.0032739198
0.0036792499
0.0041164307
0.0045924021
0.0051049376
0.0056536018
0.0062251547
0.00679005
0.0073426903
0.0078523903
0.008348175
0.0087840333
0.0091469961
0.0094492312
0.0096915267
0.0098718485
0.009996807
0.010068245
0.010082174
0.010041316
0.0099535907
0.0098293286
0.0096805874
0.0095240189
0.0093791431
0.0092608359
0.0091622947
0.0090692914
0.0090006986
0.0089976799
0.0090724989
0.0092020767
0.0093890922
0.0096611084
0.010035211
0.01049455
0.011031935
0.011638792
0.01231386
0.013041691
0.013801207
0.014563225
0.015321351
0.016054906
0.016704356
0.017261403
0.017724381
0.017984985
0.018138244
0.018060825
0.017928336
0.017387434
0.0015040213
0.0017162488
0.0019365505
0.0021641234
0.0023906456
0.0026140789
0.0028543602
0.0031481192
0.0034598032
0.0038018868
0.0042114337
0.0046667608
0.0051628909
0.005698
0.0062507562
0.0068156125
0.0073706333
0.0078797931
0.008389986
0.008835103
0.0092055673
0.0095116159
0.0097613259
0.0099555872
0.010093788
0.010169346
0.01018366
0.010145625
0.010066126
0.009958117
0.0098335913
0.0097093887
0.0096044378
0.0095316306
0.0094833732
0.0094483689
0.0094481134
0.0095218941
0.0096784371
0.0098919839
0.010163626
0.010517259
0.010968218
0.011495644
0.0120931
0.012747547
0.013464179
0.014218887
0.015007869
0.015785526
0.016566679
0.017312063
0.017987975
0.018559612
0.019060454
0.019337474
0.019525829
0.019470612
0.019355428
0.018835019
0.0024173689
0.0026120763
0.0027917311
0.0029686517
0.0031426467
0.0033187612
0.0035134824
0.0037430252
0.0039968479
0.0042822761
0.004629582
0.005004417
0.0054365514
0.0059180636
0.0064425786
0.0069847921
0.0075109418
0.0080053616
0.0084951999
0.0089210576
0.0092829011
0.0095893277
0.0098398412
0.010031147
0.010162155
0.010233119
0.01024942
0.010220715
0.010158992
0.010077907
0.0099895734
0.0099103982
0.0098585325
0.0098450309
0.0098612662
0.0098986541
0.0099786131
0.010137605
0.010380859
0.010679893
0.011033743
0.011462818
0.011981707
0.012567045
0.013213933
0.013905936
0.014654554
0.015428583
0.016238697
0.017026288
0.017824292
0.018576494
0.019272889
0.019855524
0.020388508
0.020678329
0.020898138
0.02086205
0.020761981
0.020261819
0.003106507
0.0033209903
0.0034965031
0.0036464459
0.0037766938
0.0039026771
0.0040380152
0.0041955355
0.0043832636
0.0045985325
0.0048510616
0.0051569013
0.0054998219
0.0059006659
0.0063265945
0.0067915463
0.0072740944
0.0077451752
0.0082031032
0.0086583046
0.0090484231
0.009383129
0.00966724
0.0098960675
0.010072148
0.010195292
0.010266006
0.01029106
0.010281555
0.010250326
0.010210577
0.010173332
0.010153949
0.010169519
0.010228146
0.010323454
0.010444617
0.010612321
0.010859561
0.011188741
0.011569256
0.011998189
0.012493096
0.013068866
0.013700999
0.014386595
0.015106633
0.015878406
0.016664961
0.017488957
0.018281419
0.019090562
0.019845638
0.020556977
0.021147272
0.021706573
0.02200692
0.02225427
0.022234436
0.022147651
0.021667198
0.0035635523
0.003842671
0.0040487266
0.0042045325
0.0043298086
0.0044396741
0.004542573
0.0046561115
0.0047924645
0.0049594718
0.0051569704
0.0053923493
0.0056721747
0.0059911618
0.006356078
0.0067564699
0.0071670871
0.0076023676
0.0080157154
0.0084204055
0.0088195269
0.009158013
0.0094549461
0.0097103498
0.0099194224
0.010083573
0.010203605
0.010282627
0.010328926
0.010354094
0.010370536
0.010389455
0.010419621
0.010474775
0.010569439
0.010712762
0.01089615
0.011106817
0.011363352
0.011695425
0.012103888
0.012557094
0.013050584
0.013599769
0.014220617
0.01488853
0.015602743
0.016342212
0.017129306
0.017922454
0.01875413
0.019547076
0.020362369
0.021116877
0.021838299
0.022433204
0.023013191
0.023322604
0.023593471
0.023587443
0.023512326
0.023050858
0.0041016442
0.0043682228
0.0045582875
0.00469729
0.004807386
0.0049049237
0.0050037569
0.0051158272
0.005249946
0.0054119299
0.0056039125
0.0058304067
0.0060948742
0.0063968457
0.0067408943
0.0071094901
0.007478391
0.007857308
0.0082213648
0.0085736935
0.0089253659
0.0092242495
0.0094897246
0.0097223367
0.0099187785
0.010080946
0.010210962
0.01031428
0.010400215
0.010479644
0.010563019
0.010657868
0.010769754
0.010908685
0.011091407
0.011325675
0.011598504
0.011896902
0.012236409
0.012644071
0.01312068
0.013634714
0.014180593
0.014772075
0.0154266
0.016120148
0.016853986
0.017605427
0.018401113
0.019195808
0.020029952
0.020819663
0.021636812
0.022387796
0.023115071
0.023711842
0.024307561
0.024624479
0.024915088
0.024921059
0.024856062
0.024412694
0.0044776106
0.0047194543
0.0048839864
0.0050032913
0.0051003431
0.0051934133
0.0052945224
0.0054119576
0.0055514078
0.0057172609
0.00591165
0.0061362716
0.0063933323
0.0066795864
0.0070010529
0.0073447795
0.0076847012
0.0080209015
0.0083459907
0.008656631
0.0089741108
0.0092494341
0.0094989433
0.0097254668
0.0099262851
0.010104708
0.010264508
0.010412832
0.010558999
0.010711833
0.010878401
0.011060823
0.011259609
0.011488237
0.011760305
0.012080921
0.012437182
0.012814585
0.013225792
0.013696077
0.014227418
0.014789377
0.015375482
0.015998058
0.016676056
0.017386425
0.018132226
0.018889399
0.019688069
0.020480131
0.021312438
0.022095829
0.022911192
0.023656155
0.024385649
0.024981853
0.025588985
0.025911843
0.026218556
0.026235518
0.026179037
0.025752676
0.0044090067
0.0047221684
0.0049336634
0.0050714012
0.0051713381
0.005258971
0.0053482179
0.0054491404
0.0055686356
0.005711375
0.005879829
0.0060760991
0.006301483
0.0065547666
0.00683171
0.0071287133
0.0074532541
0.0077701573
0.0080862766
0.0083899486
0.0086864074
0.0089880431
0.0092701233
0.0095287826
0.0097749556
0.010003456
0.010220144
0.010430613
0.010642857
0.010865038
0.011102957
0.011357302
0.011628965
0.011916856
0.012229563
0.012580943
0.012977137
0.013404783
0.013848092
0.014317132
0.014835998
0.015408625
0.016006263
0.016621631
0.017265616
0.017958496
0.018678392
0.01942988
0.020187736
0.020984844
0.0217709
0.022597886
0.023372465
0.024183003
0.024919878
0.025648509
0.02624203
0.026856845
0.027184138
0.027503473
0.027531145
0.027481505
0.027070749
0.0045692452
0.0048497405
0.0050351466
0.0051504342
0.0052347255
0.0053112875
0.0053937775
0.0054905375
0.0056069137
0.005746918
0.0059131698
0.0061067445
0.0063284476
0.0065767929
0.0068476603
0.0071362947
0.0074511121
0.0077638332
0.0080798953
0.0083942165
0.008709471
0.0090340411
0.0093467367
0.0096490634
0.0099437716
0.010222145
0.010495431
0.010770881
0.011055203
0.01135637
0.011678372
0.012020303
0.012375625
0.012740271
0.013123786
0.013540692
0.013997935
0.014482485
0.014977577
0.015490835
0.016045379
0.016647409
0.01727021
0.017905704
0.018563249
0.019264144
0.019987789
0.020740003
0.021494591
0.022286556
0.023063969
0.023882874
0.024646687
0.025449917
0.026177039
0.026902236
0.027491272
0.028110587
0.028440915
0.02876995
0.028807963
0.028763763
0.02836715
0.004615078
0.0048772773
0.0050483152
0.0051491088
0.0052208311
0.0052870415
0.0053607408
0.0054488906
0.0055562578
0.0056868321
0.0058442881
0.0060301928
0.0062457248
0.0064896975
0.0067578827
0.0070492367
0.0073690175
0.0077036022
0.0080497421
0.0084081622
0.0087788044
0.0091631127
0.0095296427
0.0099037262
0.010274656
0.01061787
0.010958208
0.01130332
0.011661192
0.012038474
0.012436806
0.012852363
0.013276868
0.013704741
0.014145098
0.014613242
0.015117334
0.015645313
0.016179701
0.016725712
0.017305432
0.017927339
0.01856694
0.019215423
0.019880505
0.020584186
0.021307183
0.022056343
0.022804679
0.023588771
0.02435555
0.025164255
0.025915828
0.026709772
0.027425844
0.028145508
0.028728565
0.029349709
0.029681812
0.030018115
0.030066106
0.030026145
0.029642384
0.0045540871
0.0048127616
0.0049776889
0.0050729015
0.0051382803
0.0051970723
0.0052619763
0.0053401685
0.0054363129
0.0055543894
0.0057003589
0.0058767182
0.0060845269
0.0063277883
0.0065965095
0.0068972581
0.007237066
0.0076079041
0.0080081991
0.0084326165
0.0088870339
0.0093571886
0.0098105327
0.010272843
0.010736449
0.011161853
0.01157875
0.011996684
0.012424519
0.012869473
0.013333225
0.013810878
0.014293001
0.014772852
0.015258752
0.015766765
0.016306516
0.0168674
0.017431523
0.018001718
0.01859887
0.019233608
0.019883768
0.020539957
0.021208187
0.02191085
0.022629998
0.023373335
0.024113259
0.024887481
0.025642197
0.026439135
0.027177421
0.027960558
0.028664622
0.02937709
0.029952974
0.030573749
0.030906534
0.031248109
0.031305779
0.031269022
0.030897023
0.0043826949
0.0046528452
0.0048237922
0.0049234907
0.0049896089
0.0050452657
0.0051039194
0.0051738391
0.005259781
0.0053678449
0.0055022207
0.0056680947
0.0058675029
0.0061018877
0.006371565
0.0066818812
0.0070467748
0.0074612194
0.0079193932
0.0084200771
0.0089722413
0.0095463783
0.010111167
0.010681281
0.011253533
0.011778415
0.012284255
0.012781781
0.013281096
0.013791259
0.014315299
0.014848553
0.0153813
0.015906085
0.016430423
0.016970987
0.017538952
0.018125576
0.018712906
0.019301497
0.019910853
0.020553567
0.021209863
0.021870036
0.022538379
0.023237399
0.023950479
0.024686062
0.0254161
0.026179072
0.026920779
0.027704863
0.028429189
0.029200407
0.029891813
0.03059582
0.031163626
0.031782273
0.032114835
0.032460085
0.032527225
0.032492799
0.032131703
0.0041023468
0.0043922137
0.0045779289
0.0046902115
0.0047623298
0.0048173567
0.0048700786
0.004930283
0.0050066759
0.005105318
0.0052298595
0.005386018
0.0055745872
0.0058019815
0.0060716296
0.0063954581
0.0067917828
0.0072383447
0.0077464976
0.0083315046
0.0089812447
0.0096721535
0.010366648
0.011061144
0.011757198
0.01239963
0.013009414
0.013597439
0.014174715
0.014752855
0.01533726
0.015924523
0.016505578
0.017072359
0.017631817
0.018201101
0.018793013
0.019401017
0.020007497
0.020610911
0.021229228
0.021876797
0.022536227
0.023197882
0.023864358
0.024558039
0.025263618
0.025990195
0.026709431
0.027460289
0.028188447
0.028958999
0.029669018
0.030427575
0.031105952
0.031800597
0.0323597
0.032974867
0.033306505
0.033654207
0.033730698
0.033697909
0.03334694
0.0040202727
0.0042238873
0.0043532874
0.0044367671
0.0044952969
0.0045450049
0.004597447
0.0046629886
0.004750461
0.0048657444
0.0050132646
0.0051985838
0.0054323571
0.0057099447
0.0060552289
0.0064703487
0.0069409998
0.0075049148
0.0081692515
0.0089166325
0.0097280874
0.010562021
0.011388073
0.01221874
0.01299203
0.013718176
0.014407248
0.015070173
0.015721258
0.016368936
0.017011759
0.017640941
0.018248878
0.018842428
0.019438828
0.020052527
0.020679449
0.021302712
0.02191891
0.022544354
0.023194906
0.023855504
0.024517036
0.02518045
0.025867804
0.026565057
0.027281911
0.027989878
0.02872818
0.029442595
0.030199291
0.030894944
0.031640425
0.032305662
0.032990376
0.033540416
0.034151129
0.034481353
0.034830632
0.034916445
0.034884815
0.034543461
0.0035155869
0.0037328486
0.00387863
0.0039758304
0.0040429984
0.0040940591
0.0041418093
0.0041979939
0.0042784982
0.0043924224
0.0045432602
0.0047388132
0.0049914525
0.005291011
0.0056621989
0.0061001909
0.0066144528
0.0072469597
0.0079879388
0.0088383071
0.0097677895
0.010737533
0.011693264
0.012652711
0.013561328
0.01440789
0.015203085
0.01595618
0.016683779
0.017396026
0.018094182
0.018771679
0.019421332
0.02004884
0.020671751
0.021306146
0.021950558
0.022589202
0.023217066
0.023848694
0.024501182
0.025161694
0.025822133
0.026481848
0.027162408
0.02785097
0.028557802
0.029254392
0.029980048
0.030680817
0.03142364
0.032105123
0.032837413
0.033489634
0.034164154
0.034705022
0.035310657
0.035639199
0.035989508
0.036084695
0.036054005
0.035722026
0.0028464002
0.0030647617
0.0032182398
0.0033278845
0.0034087695
0.003473977
0.0035338544
0.0035952629
0.0036804912
0.0038074459
0.0039833814
0.0041979704
0.0044841963
0.0048259845
0.0052434946
0.0057322572
0.0063539864
0.0070790773
0.0079131623
0.0088524307
0.0098732934
0.010950698
0.01202908
0.013090778
0.014125336
0.015089071
0.015987625
0.016829478
0.017632954
0.018410127
0.01916463
0.019890813
0.020581889
0.021243032
0.021891948
0.022546234
0.023207089
0.02386012
0.024498975
0.025136336
0.025790213
0.026449856
0.027108658
0.027764422
0.028438093
0.029117941
0.02981478
0.030500173
0.031213382
0.031900851
0.032630058
0.033297798
0.034017059
0.034656614
0.035320956
0.035852786
0.036453041
0.036779854
0.03713096
0.037235643
0.037205974
0.036883387
0.0022155073
0.0023716047
0.0024959867
0.002603689
0.0027036094
0.0027985477
0.0028913222
0.0029974157
0.0031546935
0.003379853
0.0036289637
0.0039830241
0.0043896605
0.0049192661
0.0055433091
0.0062508832
0.0070483484
0.007952713
0.0089635218
0.010064406
0.011230223
0.012413415
0.013565747
0.014698745
0.015775148
0.016770319
0.017696773
0.018573758
0.019414094
0.020222782
0.020995807
0.021726859
0.022420544
0.023094521
0.023767706
0.024443912
0.025110376
0.025759667
0.026402523
0.027057501
0.027715804
0.028372713
0.029024524
0.029691479
0.030362848
0.031049978
0.031724582
0.032425792
0.03310053
0.033816623
0.034471265
0.035177922
0.035805376
0.036459823
0.036982979
0.037577849
0.037903111
0.038255078
0.038369436
0.038341214
0.038028203
0.028955832
0.029610801
0.030258825
0.030919421
0.03158274
0.03226065
0.032925072
0.033614943
0.034277719
0.034981434
0.035623833
0.036318567
0.036934707
0.037579794
0.038094864
0.038684623
0.03900873
0.039361904
0.039486165
0.039460197
0.039156956
0.014577513
0.012476802
0.0063931219
0.009185195
0.012183093
0.014659993
0.0158707
0.015614972
0.014150508
0.012088306
0.0044424799
0.0065806452
0.0092784309
0.012135915
0.014445911
0.01552213
0.0151965
0.013725797
0.011704912
0.0046836809
0.0067625955
0.0093582852
0.012072232
0.014214784
0.015151146
0.01476921
0.013296811
0.011324515
0.0049325818
0.0069419022
0.0094279302
0.011992997
0.013957082
0.014738025
0.014330832
0.012863158
0.010939823
0.0051911441
0.0071217987
0.0094900149
0.01189916
0.013690995
0.014366602
0.013891282
0.012432905
0.010560128
0.0054627579
0.0073051726
0.0095462393
0.011794449
0.013418657
0.01398856
0.013444569
0.012004411
0.010186978
0.0057491837
0.0074933526
0.0095987018
0.011681494
0.013138302
0.013596712
0.012982974
0.011573645
0.0098158708
0.0060534615
0.0076895927
0.0096504364
0.0115625
0.012850109
0.013199221
0.012538594
0.011147063
0.0094477597
0.0063728405
0.007892976
0.009701199
0.011437514
0.012556663
0.012801142
0.012102965
0.010726589
0.009083774
0.006710151
0.0081046555
0.009752221
0.011307667
0.012258096
0.012402366
0.011666523
0.010310447
0.0087237669
0.007060717
0.0083214232
0.0098008546
0.011171452
0.011957946
0.012003071
0.011232028
0.0098988921
0.0083680152
0.0074169492
0.008538028
0.0098451271
0.011026271
0.011654981
0.011604261
0.010801019
0.0094925563
0.0080168977
0.0077712539
0.0087481524
0.0098798463
0.010869935
0.011350195
0.011206604
0.010375038
0.0090927406
0.0076715909
0.0081095221
0.0089420806
0.0098983816
0.010700651
0.011044994
0.010811052
0.0099554713
0.0087007161
0.007333203
0.0084285833
0.0091152317
0.0098977134
0.010518799
0.010738077
0.010419634
0.0095443441
0.0083184261
0.0070036107
0.0087163318
0.009261201
0.0098747917
0.010327527
0.010428713
0.010033776
0.0091432631
0.0079472806
0.0066840932
0.0089667559
0.0093762398
0.0098254846
0.010132869
0.010118314
0.0096555945
0.0087546065
0.0075897608
0.0063772402
0.009176355
0.0094601396
0.0097628816
0.0099302371
0.0098089055
0.0092862101
0.0083784992
0.0072449986
0.0060812852
0.0093422191
0.0095152451
0.0096849612
0.0097229834
0.0095038804
0.0089283449
0.008017192
0.0069150694
0.0057983277
0.0094711943
0.0095451006
0.0095947572
0.0095148256
0.009205922
0.0085831387
0.0076705201
0.0065988852
0.0055267256
0.0095648207
0.009552601
0.0094960809
0.0093101873
0.0089192791
0.0082538604
0.0073409171
0.0062984593
0.0052684866
0.0096266359
0.0095414345
0.0093929838
0.0091130667
0.0086476042
0.0079430757
0.0070300502
0.0060149923
0.0050246274
0.0096578804
0.0095135545
0.0092885703
0.0089278574
0.0083957649
0.0076547723
0.0067402474
0.0057490083
0.0047940222
0.0096584258
0.0094682079
0.0091824629
0.0087575367
0.0081673571
0.0073937599
0.006476909
0.00550627
0.0045828363
0.0096236503
0.0094016264
0.0090718535
0.0085994324
0.0079630581
0.0071621728
0.0062427217
0.0052893289
0.0043931722
0.0095514436
0.0093097307
0.0089524361
0.0084480717
0.0077795785
0.0069588493
0.006037777
0.0050985323
0.0042249898
0.009442087
0.0091891778
0.0088171298
0.0082950368
0.0076092384
0.006778425
0.0058591528
0.0049327015
0.0040780993
0.0092970743
0.0090381185
0.0086594017
0.0081305567
0.0074396873
0.0066087073
0.0056965855
0.0047839514
0.0039466835
0.0091183614
0.0088552915
0.008474053
0.0079451193
0.0072575573
0.0064344046
0.0055350816
0.0046390565
0.0038198156
0.0089156834
0.0086473752
0.0082638833
0.0077371132
0.0070570081
0.0062467138
0.0053647572
0.0044886699
0.0036895582
0.0087087386
0.0084330028
0.0080454504
0.0075199597
0.0068476041
0.0060513773
0.0051883206
0.0043335496
0.0035556278
0.008517843
0.0082334827
0.0078412501
0.0073169582
0.0066524841
0.0058701796
0.0050252509
0.004190411
0.0034319864
0.0083412712
0.0080478735
0.007651307
0.0071294899
0.0064746789
0.0057076954
0.0048811473
0.0040652094
0.0033244078
0.0081552619
0.0078506364
0.0074485653
0.0069296373
0.0062864873
0.0055378314
0.0047328219
0.003938423
0.0032171196
0.0079641003
0.0076419031
0.0072279431
0.0067064881
0.0060716832
0.0053406401
0.0045588009
0.0037891267
0.0030911036
0.0078080381
0.0074605336
0.0070260777
0.0064936286
0.0058597707
0.0051407082
0.0043784842
0.0036319068
0.0029569683
0.0077068171
0.0073266722
0.0068634079
0.0063116834
0.0056714432
0.0049583404
0.0042109662
0.00348387
0.0028294345
0.0076422315
0.0072229732
0.0067238274
0.0061462275
0.005494342
0.0047837406
0.004049247
0.0033405524
0.0027059671
0.0076153771
0.0071491662
0.0066041424
0.0059900682
0.0053176502
0.0046037092
0.0038793958
0.0031887441
0.0025749419
0.0076595021
0.007138484
0.0065363371
0.0058724775
0.0051664363
0.0044383631
0.0037167908
0.0030397888
0.0024445372
0.007797589
0.0072143087
0.006543104
0.0058135558
0.0050568452
0.0042999734
0.0035705079
0.0029003953
0.0023197818
0.0080293242
0.0073811306
0.0066337481
0.0058263419
0.0050037879
0.0042031563
0.0034534698
0.0027814066
0.0022094441
0.0083503108
0.0076364905
0.0068078639
0.0059113595
0.0050063077
0.0041443226
0.003360135
0.0026764028
0.0021074295
0.0087715764
0.007998755
0.0070927011
0.0061043096
0.0051049567
0.0041626585
0.0033235109
0.0026107643
0.0020320903
0.0092770532
0.0084496635
0.0074689563
0.0063871719
0.0052858015
0.004249541
0.0033392495
0.0025828207
0.0019829689
0.0098832914
0.0090153458
0.0079757498
0.0068123703
0.0056074183
0.0044588876
0.0034491256
0.0026215687
0.0019796145
0.010517128
0.0096119754
0.008518909
0.0072851601
0.0059976532
0.0047594156
0.003658307
0.002747262
0.0020420781
0.01119128
0.01026011
0.0091267244
0.0078326
0.0064612353
0.0051241885
0.0039282768
0.002938386
0.0021716588
0.011864526
0.010912948
0.0097477571
0.0084063555
0.0069695993
0.0055486758
0.0042550363
0.0031712912
0.0023285942
0.012522074
0.011553716
0.010362643
0.0089830284
0.007493576
0.006006344
0.004638029
0.0034766379
0.0025610914
0.013081842
0.012099095
0.010886201
0.009474998
0.0079428509
0.0064027985
0.0049754522
0.0037546416
0.0027851532
0.01356459
0.012567989
0.011335785
0.0098982036
0.0083321953
0.0067520851
0.0052813874
0.004017539
0.0030084286
0.01390726
0.012895696
0.011645442
0.010187893
0.0085993653
0.0069930936
0.0054947085
0.0042040136
0.0031706435
0.014102956
0.013088651
0.01183051
0.01035836
0.0087515139
0.0071316746
0.0056230668
0.0043240768
0.0032832185
0.014148506
0.013127223
0.011863097
0.01038768
0.0087812632
0.0071605799
0.0056548442
0.0043616695
0.0033262369
0.014005572
0.012992635
0.011741237
0.010283606
0.0086988658
0.0071024403
0.0056173158
0.0043401072
0.003317443
0.013820159
0.012817354
0.01157904
0.010137881
0.0085732605
0.0070005315
0.0055414942
0.0042895276
0.0032883094
0.01324036
0.012262099
0.011060333
0.0096695512
0.0081682955
0.0066676884
0.0052825061
0.0040982446
0.0031526592
0.010218547
0.0078629899
0.0054748028
0.0032152521
0.0012909005
0.00015866474
0.0098941667
0.0076162961
0.0053043202
0.0031222621
0.001254833
0.00015449396
0.0095766709
0.00737065
0.0051405879
0.0030328513
0.001223458
0.00015017112
0.0092588141
0.0071279433
0.0049799544
0.0029450964
0.0011900977
0.00014574208
0.0089425705
0.0068916863
0.0048228249
0.0028597633
0.0011598721
0.00014120986
0.0086338157
0.0066592517
0.00466841
0.002775338
0.001127791
0.00013660204
0.0083293401
0.0064302903
0.0045161878
0.0026919951
0.0010973736
0.0001319127
0.0080281615
0.0062040754
0.0043653526
0.0026085284
0.0010651895
0.0001271498
0.007729728
0.0059797843
0.0042151654
0.002524727
0.0010331199
0.00012229917
0.0074340808
0.0057569506
0.0040650377
0.0024399285
0.00099960419
0.00011735373
0.0071410094
0.0055351151
0.0039144733
0.0023539184
0.00096534832
0.00011229739
0.0068507583
0.0053144058
0.0037635331
0.0022667193
0.00093004281
0.00010712106
0.0065635636
0.0050949357
0.003612284
0.0021784588
0.00089401044
0.00010181719
0.0062805464
0.0048777629
0.0034616865
0.0020898995
0.00085760897
9.6391768e-05
0.0060026729
0.004663707
0.0033123984
0.0020015223
0.00082115978
9.0858354e-05
0.0057317598
0.0044544909
0.0031659955
0.0019146727
0.000785575
8.5251815e-05
0.0054690761
0.0042514662
0.0030239332
0.0018307207
0.00075163791
7.9663342e-05
0.005217263
0.0040571309
0.0028881289
0.0017504502
0.00071894407
7.415058e-05
0.0049737251
0.0038681047
0.0027545959
0.0016698883
0.00068473017
6.8647131e-05
0.0047406551
0.0036866673
0.0026256588
0.0015912386
0.00065056747
6.3107587e-05
0.0045161677
0.003511011
0.0025000066
0.0015141507
0.00061716118
5.7670235e-05
0.0043025029
0.0033436782
0.0023802751
0.0014405917
0.00058487995
5.3036263e-05
0.0041005342
0.003185292
0.0022666396
0.0013704052
0.00055415587
4.8930247e-05
0.0039076669
0.0030319485
0.0021542607
0.0012984588
0.00052020609
4.5281865e-05
0.003730569
0.002890915
0.0020510031
0.0012328054
0.00049014581
4.1971868e-05
0.0035707867
0.0027630795
0.0019569557
0.0011727318
0.00046283705
3.895418e-05
0.0034276254
0.00264698
0.0018699864
0.0011158255
0.00043621928
3.6204533e-05
0.003301438
0.0025432487
0.0017908579
0.0010628701
0.00041086654
3.3720567e-05
0.0031881015
0.0024492114
0.0017181377
0.0010134475
0.00038699092
3.1495257e-05
0.0030790318
0.0023586456
0.0016478799
0.00096559195
0.00036401881
2.949489e-05
0.0029679536
0.0022670567
0.0015773404
0.00091804505
0.00034171952
2.7696063e-05
0.0028540283
0.0021733629
0.00150545
0.00086994717
0.00031963786
2.6084306e-05
0.002748611
0.0020863059
0.0014383666
0.00082502003
0.00029938361
2.4724928e-05
0.0026570461
0.0020105552
0.001379834
0.00078589782
0.00028228648
2.3674501e-05
0.0025671295
0.0019373778
0.0013243277
0.00074972997
0.00026730918
2.2871055e-05
0.002462361
0.0018533413
0.0012618642
0.00071007273
0.00025139262
2.2162087e-05
0.0023501098
0.0017631213
0.0011950786
0.00066826084
0.0002352365
2.1541088e-05
0.0022426158
0.0016762945
0.0011307833
0.00062844369
0.00022065432
2.106263e-05
0.002138713
0.0015925969
0.0010691059
0.00059063335
0.00020722169
2.0692139e-05
0.0020287041
0.0015045227
0.0010047686
0.00055153943
0.00019322781
2.0335653e-05
0.0019182837
0.0014157632
0.00094002508
0.00051262368
0.00017978371
1.9999945e-05
0.001811222
0.0013290296
0.00087663707
0.00047475366
0.00016694745
1.9679808e-05
0.0017143021
0.0012491141
0.00081753335
0.00043937117
0.00015531562
1.9383207e-05
0.001622408
0.0011722943
0.00076045772
0.00040528144
0.00014393888
1.9063989e-05
0.0015481526
0.0011064508
0.00070972608
0.00037456588
0.00013404522
1.8755756e-05
0.0014911943
0.0010510049
0.00066460932
0.00034641585
0.00012465416
1.8386245e-05
0.0014647328
0.0010143073
0.00062985627
0.00032332536
0.00011710439
1.8015166e-05
0.0014826338
0.001003523
0.00060771897
0.00030479719
0.00011037464
1.760647e-05
0.0015618535
0.0010388385
0.00061305018
0.00029815684
0.00010611409
1.7216837e-05
0.0016598014
0.0010904718
0.00063277238
0.00030007808
0.00010526468
1.6923815e-05
0.0018233015
0.0011883061
0.00067859295
0.00031377106
0.00010423472
1.6594178e-05
0.0019963131
0.0013075298
0.00074638823
0.00033856122
0.00010641699
1.6313379e-05
0.0021795833
0.0014456408
0.00083769329
0.00038209948
0.00011097565
1.6029604e-05
0.0023163184
0.0015522266
0.0009127192
0.00042314307
0.00011973461
1.5848559e-05
0.0024177069
0.0016360338
0.00097486605
0.00045743488
0.00012556778
1.5467289e-05
0.0024614969
0.0016748137
0.0010061714
0.00047774774
0.00013157452
1.5072633e-05
0.0024600483
0.0016757702
0.0010082998
0.00047893544
0.00013377085
1.4518538e-05
0.002445279
0.0016692615
0.0010078753
0.00048153614
0.00013245055
1.3835733e-05
0.0023522761
0.0016091569
0.00097311436
0.00046398216
0.00012879456
1.2868812e-05
)
;

boundaryField
{
    Side1
    {
        type            empty;
    }
    Inlet
    {
        type            calculated;
        value           nonuniform List<scalar> 0();
    }
    Side2
    {
        type            empty;
    }
    Outlet
    {
        type            zeroGradient;
    }
    Botwall
    {
        type            nutkWallFunction;
        blending        stepwise;
        value           nonuniform List<scalar> 
59
(
1.5078238e-05
1.4492943e-05
1.388622e-05
1.3262661e-05
1.2624002e-05
1.1972818e-05
1.1309181e-05
1.0633343e-05
9.9437236e-06
9.2388285e-06
8.5163723e-06
7.7747014e-06
7.0124501e-06
6.2300074e-06
5.42879e-06
4.6130502e-06
3.7956125e-06
2.9840356e-06
2.1671008e-06
1.3366564e-06
5.1227218e-07
0
0
0
0
0
0
0
0
0
0
0
0
0
0
0
0
0
0
0
0
0
0
0
0
0
0
0
0
0
0
0
0
0
0
0
0
0
0
)
;
    }
    Cyli
    {
        type            nutkWallFunction;
        blending        stepwise;
        value           nonuniform List<scalar> 0();
    }
    procBoundary1to0
    {
        type            processor;
        value           nonuniform List<scalar> 
44
(
0.0023508917
0.0042072555
0.00141675
0.00141675
0.0009452787
0.0009452787
0.0012944676
0.0021913295
0.0021913295
0.0028360389
0.0028360389
0.0032021389
0.0037375126
0.0041304581
0.0041304581
0.0039838677
0.0041576352
0.0042140554
0.0041602612
0.0039951185
0.0037156914
0.0037189937
0.0037156914
0.0032105545
0.0025695612
0.0020174565
0.0020174565
0.014998353
0.012863911
0.0061997622
0.0090783638
0.012211653
0.014853859
0.01619427
0.016023075
0.016023075
0.0042072555
0.0042072555
0.010544101
0.0081144287
0.0056450375
0.0033092018
0.0013243083
0.00016266334
)
;
    }
    procBoundary1to3
    {
        type            processor;
        value           nonuniform List<scalar> 
62
(
0.0013245903
0.0014751571
0.0016182123
0.0017569373
0.0018984407
0.0020514532
0.0022020575
0.0023453337
0.0025585074
0.0028572596
0.0032013974
0.0036586908
0.0042036109
0.0048193285
0.0055256791
0.0063323893
0.0072340012
0.0082259692
0.0093037803
0.01045755
0.011672474
0.012915326
0.014137786
0.01532615
0.016492634
0.01757017
0.018569578
0.019512
0.020409405
0.021267667
0.022084152
0.022852843
0.023577259
0.024274433
0.024964481
0.025654213
0.026332981
0.026992267
0.027640358
0.028295958
0.028295958
0.030163151
0.030816447
0.031460983
0.032115633
0.032771437
0.033440839
0.034095922
0.034775356
0.035427157
0.036119536
0.03675089
0.037434673
0.03804079
0.038677705
0.039185687
0.039771358
0.040095276
0.040450482
0.040585016
0.040562885
0.040270531
)
;
    }
}


// ************************************************************************* //
