/*--------------------------------*- C++ -*----------------------------------*\
| =========                 |                                                 |
| \\      /  F ield         | OpenFOAM: The Open Source CFD Toolbox           |
|  \\    /   O peration     | Version:  2406                                  |
|   \\  /    A nd           | Website:  www.openfoam.com                      |
|    \\/     M anipulation  |                                                 |
\*---------------------------------------------------------------------------*/
FoamFile
{
    version     2.0;
    format      ascii;
    arch        "LSB;label=32;scalar=64";
    class       volScalarField;
    location    "0.086";
    object      p;
}
// * * * * * * * * * * * * * * * * * * * * * * * * * * * * * * * * * * * * * //

dimensions      [1 -1 -2 0 0 0 0];

internalField   nonuniform List<scalar> 
8260
(
101071.09
100992.81
100947.78
100893
100843.02
100807.01
100787.19
100783.39
100794.46
100818.39
100855.41
100903.48
100959.36
101020.51
101081.27
101144.97
101183.75
101214.99
101240.31
101262.26
101281.56
101297.9
101312.52
101325.06
101335.76
101344.82
101352.52
101358.66
101363.82
101366.96
101369.36
101227.46
101158.66
101091.67
101020.04
100957.56
100909.78
100878.01
100862.88
100862.63
100876.14
100903.57
100943.33
100991.77
101047.12
101100.08
101157.81
101191.97
101223.1
101246.73
101267.3
101285.57
101301.07
101315.05
101327.1
101337.4
101346.15
101353.62
101359.58
101364.61
101367.65
101370
101333.16
101270.24
101196.76
101118.52
101049.71
100994.62
100954.49
100930.85
100922.4
100926.44
100946.04
100978.86
101021.48
101072.8
101120.27
101173.32
101202.6
101232.91
101254.27
101273.17
101290.23
101304.75
101317.99
101329.45
101339.3
101347.69
101354.88
101360.63
101365.5
101368.44
101370.74
101420.16
101361.07
101288.03
101208.09
101135.61
101075.18
101028.25
100996.5
100979.84
100976.62
100988.99
101015.19
101052.41
101099.88
101142.59
101190.39
101215.65
101244
101262.85
101279.86
101295.55
101308.96
101321.34
101332.15
101341.46
101349.44
101356.32
101361.82
101366.52
101369.34
101371.57
101495.41
101440.34
101370.73
101292.4
101219.04
101155.59
101103.79
101065.42
101041.39
101031.43
101036.7
101056.19
101087.82
101130.66
101168.2
101209.08
101231.44
101256.46
101272.6
101287.49
101301.61
101313.76
101325.17
101335.22
101343.93
101351.44
101357.96
101363.19
101367.68
101370.37
101372.52
101557.68
101506.48
101442.21
101368.53
101297.4
101233.73
101179.52
101136.73
101106.92
101090.85
101089.47
101102.39
101128.4
101165.81
101197.47
101229.71
101250.17
101270.43
101283.64
101296.15
101308.5
101319.24
101329.52
101338.71
101346.75
101353.72
101359.82
101364.74
101369
101371.53
101373.6
101606.72
101559.47
101501.31
101434.74
101368.71
101307.59
101253.54
101208.7
101175.06
101154.06
101146.87
101153.73
101174.43
101205.56
101230.36
101253.06
101271.58
101286.12
101296.11
101305.99
101316.3
101325.46
101334.47
101342.69
101349.94
101356.3
101361.94
101366.51
101370.49
101372.86
101374.82
101643.97
101601.34
101550.47
101492.19
101433
101376.58
101325.01
101280.42
101244.99
101220.58
101208.73
101210.38
101226.32
101249.85
101266.58
101280.65
101295.11
101303.69
101310.14
101317.13
101325.14
101332.52
101340.1
101347.19
101353.57
101359.24
101364.34
101368.52
101372.19
101374.37
101376.21
101673.81
101634.89
101591.44
101542.15
101491.07
101441.04
101393.88
101351.6
101316.33
101290.16
101274.97
101272.47
101284.17
101298.14
101306.24
101313.37
101320.36
101323.27
101325.87
101329.72
101335.12
101340.52
101346.47
101352.31
101357.7
101362.59
101367.09
101370.81
101374.12
101376.1
101377.79
101698.28
101665.56
101628.09
101587.31
101545.07
101502.52
101461.12
101422.67
101389.19
101362.78
101345.61
101340.03
101347.07
101351.01
101350.12
101349.51
101347.29
101344.9
101343.39
101343.89
101346.37
101349.56
101353.68
101358.11
101362.4
101366.39
101370.22
101373.43
101376.31
101378.07
101379.59
101718.34
101698.57
101670.39
101637.37
101601.59
101565.14
101529.22
101495.09
101464.35
101438.97
101421.34
101413.62
101414.61
101408.35
101397.19
101386.27
101376.17
101368.4
101362.67
101359.67
101358.99
101359.79
101361.85
101364.73
101367.75
101370.73
101373.79
101376.43
101378.82
101380.33
101381.64
101745.74
101732.52
101713.5
101687.62
101658.86
101629.24
101599.52
101570.51
101543.49
101520.4
101503.79
101493.75
101484.01
101466.12
101443.68
101423.16
101406.42
101393.3
101383.57
101376.95
101373.1
101371.29
101371.12
101372.25
101373.85
101375.69
101377.84
101379.84
101381.67
101382.89
101383.98
101789.27
101789
101777.5
101755
101729.75
101704.48
101679.49
101654.81
101630.88
101608.88
101589.63
101570.9
101546.75
101516.95
101486.84
101459.86
101437.39
101419.54
101405.77
101395.61
101388.55
101384.07
101381.57
101380.72
101380.75
101381.32
101382.43
101383.7
101384.91
101385.78
101386.65
101864.83
101850.94
101832.95
101811.43
101789.97
101770.74
101752.56
101733.01
101710.73
101685.63
101657.92
101627.33
101593.68
101558.93
101525.65
101495.37
101468.91
101446.71
101429.02
101415.37
101405.18
101398
101393.1
101390.12
101388.46
101387.63
101387.6
101388.04
101388.58
101389.05
101389.67
101894.51
101894.61
101891.62
101885.53
101871.54
101848.21
101822.07
101795.36
101766.28
101734.31
101700.74
101665.5
101628.88
101592.88
101559.28
101528.11
101499.63
101474.41
101453.13
101436.07
101422.76
101412.81
101405.58
101400.42
101396.91
101394.65
101393.39
101392.88
101392.71
101392.69
101393.08
101896.22
101887.56
101875.33
101860.3
101847.23
101836.89
101825.99
101813.57
101794.11
101765.3
101732.82
101697.61
101659.47
101622.23
101587.96
101556.44
101527.63
101501.3
101477.61
101457.54
101441.24
101428.35
101418.76
101411.51
101406.15
101402.39
101399.85
101398.28
101397.32
101396.76
101396.91
101887.51
101879.86
101870.35
101859.29
101847.46
101834.45
101818.06
101797.62
101778.14
101761.71
101744.07
101720.16
101686.04
101649.26
101614.23
101581.61
101551.98
101525.51
101501.17
101479.21
101460.46
101444.71
101432.61
101423.39
101416.22
101410.9
101407.03
101404.3
101402.43
101401.29
101401.17
101860.43
101854.47
101847.31
101839.13
101829.77
101818.97
101806.51
101792.35
101776.81
101759.85
101739.24
101717.56
101697.22
101669.76
101637.27
101605.25
101574.49
101546.87
101522.28
101499.72
101479.74
101461.91
101447.32
101436.14
101427.19
101420.22
101414.93
101410.96
101408.11
101406.31
101405.88
101833.38
101828.49
101822.61
101815.9
101808.21
101799.37
101789.19
101777.57
101764.42
101749.46
101732.73
101714.35
101697.3
101677.67
101651.54
101625.25
101595.56
101567.06
101541.17
101518.03
101497.66
101479.24
101462.9
101449.68
101438.99
101430.29
101423.47
101418.25
101414.38
101411.88
101411.1
101804.35
101800.55
101795.96
101790.74
101784.78
101777.91
101770.01
101760.89
101750.38
101738.25
101724.2
101708.28
101690.14
101674.12
101659.97
101639.59
101613.09
101585.33
101559.1
101534.83
101513.61
101495.23
101478.46
101463.59
101451.2
101440.89
101432.55
101426.13
101421.27
101418.05
101416.85
101776.6
101773.6
101769.98
101765.87
101761.17
101755.77
101749.55
101742.4
101734.17
101724.73
101713.95
101701.76
101687.92
101673.27
101656.19
101638.73
101622.93
101600.1
101574.98
101551.23
101528.8
101509.2
101492.62
101477.09
101463.38
101451.78
101442.11
101434.58
101428.8
101424.85
101423.21
101748.66
101746.34
101743.55
101740.39
101736.78
101732.62
101727.83
101722.29
101715.91
101708.58
101700.18
101690.57
101679.66
101667.12
101653.5
101638.15
101622.79
101608.99
101588.03
101565.19
101543.49
101522.8
101505.22
101489.63
101475.37
101462.93
101452.2
101443.6
101436.98
101432.33
101430.2
101722.08
101720.29
101718.14
101715.71
101712.94
101709.74
101706.05
101701.79
101696.88
101691.22
101684.71
101677.23
101668.67
101659
101647.95
101635.82
101622.05
101607.87
101594.81
101575.7
101555.15
101536.46
101518.18
101501.8
101487.26
101474.25
101462.79
101453.2
101445.76
101440.46
101437.84
101696.31
101694.97
101693.35
101691.52
101689.43
101687.03
101684.24
101681.02
101677.3
101673.01
101668.04
101662.31
101655.73
101648.15
101639.49
101629.37
101618.21
101605.35
101592.06
101580.26
101563.75
101547.76
101530.92
101514.12
101499.03
101485.46
101473.54
101463.23
101455.03
101449.15
101446.09
101672.86
101671.84
101670.62
101669.25
101667.67
101665.85
101663.75
101661.31
101658.47
101655.18
101651.36
101646.92
101641.75
101635.77
101628.85
101621.16
101612.26
101602.45
101592.22
101580.73
101568.46
101554.48
101539.43
101524.49
101509.82
101495.94
101483.84
101473.35
101464.61
101458.28
101454.87
101651.42
101650.69
101649.82
101648.84
101647.71
101646.41
101644.89
101643.13
101641.07
101638.68
101635.9
101632.67
101628.91
101624.55
101619.51
101613.61
101606.86
101599.17
101590.26
101581.49
101571.52
101558.46
101544.61
101531.4
101518.28
101505.38
101493.54
101483.23
101474.34
101467.73
101464.06
101633.48
101632.94
101632.3
101631.58
101630.75
101629.79
101628.67
101627.37
101625.86
101624.08
101621.99
101619.54
101616.66
101613.3
101609.37
101604.83
101599.62
101593.75
101587.12
101579.93
101572.32
101562.96
101551.32
101538.06
101525.48
101514.17
101503
101492.91
101484.12
101477.38
101473.52
101616.66
101616.27
101615.81
101615.3
101614.7
101614.01
101613.21
101612.28
101611.2
101609.93
101608.45
101606.73
101604.72
101602.4
101599.71
101596.57
101592.85
101588.35
101583.09
101576.89
101570.22
101564.12
101555.96
101544.25
101532.73
101522.37
101512.14
101502.31
101493.72
101487.03
101483.04
101604.36
101604.09
101603.77
101603.4
101602.99
101602.5
101601.94
101601.29
101600.52
101599.63
101598.57
101597.33
101595.84
101594.04
101591.86
101589.25
101586.19
101582.68
101578.63
101573.91
101568.04
101560.39
101553.06
101546.64
101538.44
101529.1
101519.96
101510.84
101502.64
101496.21
101492.26
101594.62
101594.36
101594.05
101593.7
101593.29
101592.82
101592.27
101591.63
101590.89
101590.02
101589
101587.81
101586.43
101584.82
101582.97
101580.82
101578.29
101575.32
101571.81
101567.71
101563.15
101558.23
101552.65
101548.17
101542.92
101534.27
101525.92
101517.8
101510.39
101504.38
101500.69
101582.17
101582.04
101581.88
101581.7
101581.49
101581.25
101580.96
101580.63
101580.24
101579.78
101579.23
101578.58
101577.79
101576.83
101575.67
101574.26
101572.56
101570.52
101568.08
101565.22
101561.95
101558.34
101554.42
101548.66
101541.94
101536.05
101529.11
101521.9
101515.1
101509.48
101506
100474.02
100460.02
100450.7
100441.59
100431.4
100424.79
100428.25
100443.34
100466.85
100502.83
100550.24
100607.37
100672.56
100743.3
100816.87
100896.68
100966.19
101038.81
101083.93
101130.58
101172.39
101207.39
101237.52
101262.83
101284.03
101301.53
101315.86
101327.22
101336.15
101341.84
101345.63
100485.7
100470.17
100449.93
100433.13
100420.64
100416.24
100424.16
100444.79
100475.62
100517.19
100568.37
100627.75
100693.84
100763.86
100835.84
100912.43
100980.72
101046.88
101087.05
101136.38
101177.3
101211.49
101240.88
101265.56
101286.26
101303.37
101317.38
101328.5
101337.27
101342.84
101346.53
100448.15
100423.16
100399.44
100385.46
100381.24
100386.96
100404.41
100434.02
100472.23
100519.88
100575.85
100638.66
100706.85
100777.52
100849.8
100924.2
100993.76
101054.3
101092.74
101142.78
101182.42
101215.7
101244.29
101268.34
101288.52
101305.22
101318.92
101329.8
101338.39
101343.86
101347.49
100387.39
100365.91
100349.19
100342.93
100346.67
100360.68
100386.14
100422.58
100467.34
100520.57
100580.92
100646.88
100717.1
100788.69
100862.33
100934.92
101005.17
101061.56
101099.82
101149.15
101187.49
101219.88
101247.71
101271.12
101290.79
101307.08
101320.47
101331.11
101339.53
101344.87
101348.46
100308.39
100294.77
100287.66
100292.06
100306.96
100331.96
100367.17
100411.58
100463.42
100522.25
100586.75
100655.61
100727.62
100800.04
100875.15
100946.74
101015.75
101068.44
101107.24
101155.44
101192.53
101224.05
101251.12
101273.91
101293.07
101308.96
101322.03
101332.42
101340.67
101345.9
101349.42
100214.16
100212.93
100219.88
100238.51
100266.83
100303.88
100349.28
100402.03
100460.87
100525.08
100593.5
100665.03
100738.57
100811.67
100888.11
100959.26
101025.19
101074.56
101114.78
101161.63
101197.54
101228.19
101254.52
101276.69
101295.35
101310.84
101323.6
101333.75
101341.82
101346.94
101350.38
100106.24
100123.67
100149.11
100184.46
100227.46
100277.05
100332.82
100394
100459.59
100528.86
100600.89
100674.83
100749.67
100823.26
100900.62
100971.52
101034.58
101080.46
101122.42
101167.7
101202.51
101232.3
101257.9
101279.47
101297.63
101312.72
101325.18
101335.09
101342.98
101347.98
101351.35
99996.2
100035.3
100080.54
100133.03
100190.75
100252.68
100318.58
100387.85
100459.72
100533.61
100608.9
100684.95
100760.81
100834.96
100912.69
100982.93
101044.4
101086.76
101130.09
101173.68
101207.43
101236.38
101261.26
101282.23
101299.91
101314.61
101326.76
101336.43
101344.15
101349.03
101352.33
99893.333
99953.517
100017.31
100086.32
100158.24
100231.82
100307.17
100383.89
100461.43
100539.43
100617.55
100695.39
100772.1
100847.74
100924.76
100993.22
101053.86
101093.76
101137.71
101179.55
101212.31
101240.42
101264.6
101284.99
101302.19
101316.5
101328.34
101337.77
101345.33
101350.08
101353.32
99801.612
99881.987
99962.065
100046.62
100131.63
100215.42
100299.14
100382.41
100464.86
100546.36
100626.86
100706.14
100783.66
100861.02
100936.72
101003.45
101062.53
101101.28
101145.21
101185.34
101217.14
101244.42
101267.92
101287.73
101304.45
101318.39
101329.93
101339.12
101346.5
101351.14
101354.31
99724.719
99822.032
99918.918
100016.6
100112.22
100204.24
100295.04
100383.69
100470.13
100554.43
100636.83
100717.32
100796
100874.56
100947.99
101013.56
101070.55
101109.12
101152.57
101191.05
101221.93
101248.39
101271.2
101290.45
101306.71
101320.27
101331.51
101340.48
101347.69
101352.2
101355.3
99670.302
99781.179
99889.928
99996.432
100099.5
100199.16
100295.59
100388.1
100477.41
100563.78
100647.66
100729.24
100809.35
100886.32
100957.8
101023.51
101078.3
101117.12
101159.78
101196.69
101226.65
101252.31
101274.46
101293.16
101308.96
101322.15
101333.1
101341.83
101348.87
101353.27
101356.3
99642.568
99761.448
99876.538
99988.287
100096.26
100200.19
100300.38
100396.23
100487.36
100575.04
100659.96
100742.27
100821.32
100895.66
100967.91
101032.89
101086.04
101125.2
101166.84
101202.25
101231.32
101256.18
101277.69
101295.84
101311.19
101324.01
101334.68
101343.18
101350.06
101354.33
101357.31
99642.149
99764.071
99880.197
99993.042
100102.65
100208.38
100310.63
100408.53
100501.05
100589.1
100673.7
100754.64
100831.26
100904.76
100977.67
101041.82
101094.05
101133.32
101173.75
101207.74
101235.93
101260.01
101280.87
101298.49
101313.4
101325.87
101336.25
101344.53
101351.24
101355.41
101358.31
99656.706
99782.329
99898.663
100010.6
100119.46
100225.01
100327.42
100424.31
100516.08
100602.44
100683.61
100763.51
100841.88
100915.26
100987.12
101051.23
101102.32
101141.45
101180.5
101213.15
101240.47
101263.78
101284.02
101301.12
101315.59
101327.72
101337.82
101345.88
101352.43
101356.48
101359.32
99676.268
99803.454
99921.85
100034.51
100142.42
100245.95
100345.87
100438.06
100525.06
100610.97
100695.35
100775.91
100853.73
100925.72
100996.5
101060.85
101110.73
101149.58
101187.08
101218.48
101244.94
101267.5
101287.13
101303.71
101317.77
101329.54
101339.38
101347.22
101353.61
101357.55
101360.34
99749.758
99856.723
99959.79
100063.01
100165.18
100263.82
100356.83
100448.89
100540.8
100626.67
100709.63
100789.26
100865.77
100936
101005.8
101070.3
101119.18
101157.61
101193.49
101223.72
101249.34
101271.16
101290.18
101306.27
101319.91
101331.36
101340.92
101348.55
101354.79
101358.63
101361.36
99886.23
99970.36
100048.87
100130.83
100216.59
100303.34
100388.42
100475.37
100562.63
100644.98
100725.06
100802.91
100877.87
100946.27
101015
101079.62
101127.61
101165.51
101199.76
101228.88
101253.67
101274.76
101293.2
101308.8
101322.03
101333.15
101342.46
101349.88
101355.97
101359.7
101362.37
100020.91
100090.02
100150.32
100213.95
100283
100355.52
100429.37
100507.45
100587.81
100664.99
100741.39
100816.91
100890.08
100956.64
101024.1
101088.88
101135.97
101173.27
101205.89
101233.94
101257.92
101278.3
101296.15
101311.28
101324.12
101334.92
101343.97
101351.2
101357.14
101360.77
101363.39
100171.98
100221.85
100261.58
100305.86
100357.29
100414.02
100475.21
100543.43
100615.48
100686.73
100758.59
100831.22
100902.3
100967.11
101033.12
101098.16
101144.22
101180.86
101211.91
101238.9
101262.08
101281.76
101299.05
101313.71
101326.17
101336.66
101345.47
101352.5
101358.3
101361.84
101364.41
100342.64
100369.48
100385.67
100407.96
100439.35
100478.22
100526.78
100583.34
100645.38
100710.18
100776.7
100845.74
100914.45
100977.68
101042.08
101107.35
101152.27
101188.16
101217.75
101243.7
101266.11
101285.11
101301.85
101316.08
101328.18
101338.36
101346.94
101353.79
101359.45
101362.91
101365.43
100532.83
100532.68
100523.32
100521.29
100529.95
100551.61
100585.96
100627.64
100678.99
100736.35
100796.61
100861.17
100926.97
100988.58
101051.09
101115.99
101159.82
101194.9
101223.29
101248.29
101269.97
101288.33
101304.56
101318.38
101330.13
101340.04
101348.4
101355.06
101360.6
101363.98
101366.46
100749.82
100722.47
100688.67
100659.96
100644.8
100645.25
100659
100684.66
100722.02
100769.29
100821.56
100880.08
100941.7
101000.95
101060.66
101123.75
101166.47
101200.8
101228.55
101252.72
101273.71
101291.48
101307.22
101320.64
101332.06
101341.7
101349.84
101356.34
101361.75
101365.04
101367.5
100976.53
100936.92
100894.23
100844.42
100800.97
100772.14
100759.59
100763.47
100782.49
100813.65
100854.72
100904.86
100960.47
101016.34
101072.11
101132.05
101172.9
101206.67
101234.03
101257.35
101277.6
101294.72
101309.93
101322.94
101334.02
101343.37
101351.29
101357.61
101362.9
101366.11
101368.55
100512.76
100506.98
100497.04
100487.09
100478.26
100472.8
100474.09
100484.55
100503.06
100533.66
100575.53
100627.31
100687.41
100753.5
100822.13
100896.35
100960.88
101028.11
101078.29
101124.73
101168
101203.82
101234.61
101260.46
101282.1
101299.96
101314.56
101326.13
101335.21
101341
101344.91
100520.97
100519.13
100510.29
100500.07
100491.27
100486.65
100488.15
100495.16
100511.74
100540.05
100579.46
100628.95
100687.05
100751.72
100819.6
100893.04
100959.53
101024.56
101077.02
101122.29
101165.68
101201.72
101232.78
101258.9
101280.78
101298.85
101313.62
101325.32
101334.5
101340.37
101344.27
100516.82
100514.84
100508.78
100502.92
100497.85
100495.45
100498.02
100505.51
100521.91
100548.81
100586.24
100633.55
100689.55
100752.43
100819.16
100891.11
100958.31
101022.94
101075.54
101120.21
101163.74
101199.9
101231.15
101257.46
101279.53
101297.76
101312.68
101324.5
101333.76
101339.7
101343.36
100512.67
100511.36
100508.59
100506.23
100504.54
100504.75
100508.86
100517.74
100534.26
100559.98
100595.5
100640.56
100694.22
100754.96
100820.07
100889.84
100956.86
101020.99
101073.51
101117.78
101161.58
101197.93
101229.39
101255.91
101278.18
101296.6
101311.66
101323.61
101332.97
101338.98
101342.34
100510.34
100511.06
100511
100511.02
100511.63
100514.02
100519.75
100529.94
100546.7
100571.55
100605.42
100648.37
100699.74
100758.25
100821.53
100888.77
100955.29
101018.85
101071.17
101115.12
101159.17
101195.73
101227.44
101254.2
101276.7
101295.32
101310.56
101322.65
101332.11
101338.21
101341.47
100508.13
100510.73
100512.81
100514.99
100517.79
100522.29
100529.74
100541.25
100558.46
100582.81
100615.37
100656.44
100705.64
100761.93
100823.31
100887.91
100953.66
101016.88
101068.75
101112.37
101156.65
101193.41
101225.36
101252.37
101275.11
101293.95
101309.37
101321.62
101331.19
101337.38
101340.8
100505.24
100508.97
100513.16
100517.64
100522.8
100529.52
100538.85
100551.78
100569.67
100593.83
100625.37
100664.79
100711.96
100766.07
100825.46
100887.48
100952.52
101015.16
101066.68
101109.55
101154.09
101191.02
101223.19
101250.46
101273.44
101292.5
101308.11
101320.53
101330.21
101336.5
101340.14
100502
100507.22
100513.15
100519.71
100527.16
100536.13
100547.41
100561.86
100580.61
100604.82
100635.58
100673.55
100718.8
100770.77
100828.12
100887.94
100951.9
101013.29
101065.09
101106.81
101151.52
101188.58
101220.97
101248.47
101271.69
101290.98
101306.79
101319.37
101329.17
101335.56
101339.06
100498.96
100505.76
100513.39
100521.89
100531.51
100542.63
100555.84
100571.83
100591.52
100615.93
100646.11
100682.79
100726.23
100776.09
100831.37
100889.36
100951.3
101011.16
101063.62
101104.23
101148.95
101186.1
101218.68
101246.4
101269.87
101289.38
101305.39
101318.14
101328.07
101334.57
101337.77
100496.18
100504.87
100514.24
100524.68
100536.37
100549.54
100564.57
100582.05
100602.68
100627.38
100657.09
100692.6
100734.32
100782.12
100835.27
100891.47
100951.05
101009.35
101062
101101.82
101146.39
101183.58
101216.33
101244.27
101267.96
101287.7
101303.92
101316.85
101326.9
101333.51
101336.59
100495.31
100505.39
100516.52
100528.85
100542.46
100557.48
100574.17
100592.96
100614.45
100639.41
100668.69
100703.1
100743.15
100788.9
100839.87
100894.19
100951.7
101008.23
101060.28
101099.63
101143.86
101181.04
101213.92
101242.05
101265.98
101285.94
101302.37
101315.47
101325.66
101332.38
101335.52
100497.76
100508.98
100521.63
100535.54
100550.74
100567.27
100585.29
100605.12
100627.25
100652.32
100681.12
100714.41
100752.81
100796.51
100845.25
100897.54
100953.06
101007.83
101058.81
101097.8
101141.4
101178.5
101211.48
101239.78
101263.91
101284.1
101300.73
101314.02
101324.35
101331.19
101334.45
100504.93
100517.12
100530.96
100546.02
100562.31
100579.85
100598.71
100619.15
100641.55
100666.48
100694.61
100726.72
100763.41
100805.02
100851.46
100901.6
100954.99
101007.53
101057.45
101096.52
101139.04
101175.99
101209.01
101237.44
101261.77
101282.18
101299.02
101312.5
101322.96
101329.92
101333.31
100519.03
100530.97
100545.63
100561.39
100578.18
100596.08
100615.17
100635.65
100657.85
100682.25
100709.47
100740.2
100775.09
100814.53
100858.57
100906.42
100957.52
101007.79
101056.18
101095.56
101136.8
101173.54
101206.53
101235.06
101259.57
101280.19
101297.23
101310.89
101321.49
101328.58
101332.07
100541.22
100554
100568.28
100583.4
100599.58
100616.9
100635.4
100655.21
100676.6
100700
100725.94
100755.05
100787.96
100825.11
100866.66
100912.08
100960.74
101008.73
101055.39
101094.88
101134.73
101171.18
101204.08
101232.65
101257.3
101278.12
101295.36
101309.2
101319.94
101327.15
101330.72
100570.94
100583.71
100597.26
100611.36
100626.37
100642.45
100659.66
100678.13
100698.11
100719.99
100744.24
100771.43
100802.15
100836.87
100875.8
100918.61
100964.55
101010.12
101055.19
101094.62
101132.86
101168.95
101201.66
101230.22
101254.99
101275.98
101293.41
101307.43
101318.31
101325.65
101329.29
100607.76
100619.31
100631.94
100644.77
100658.21
100672.54
100687.89
100704.44
100722.47
100742.33
100764.48
100789.43
100817.74
100849.87
100886.04
100926.05
100968.84
101011.82
101055.88
101094.86
101131.23
101166.89
101199.32
101227.8
101252.65
101273.78
101291.38
101305.58
101316.59
101324.06
101327.77
100650.88
100660.88
100671.99
100683.08
100694.53
100706.66
100719.69
100733.87
100749.49
100766.94
100786.64
100809.08
100834.77
100864.14
100897.44
100934.48
100973.93
101014.78
101058.18
101095.57
101129.91
101165.07
101197.08
101225.4
101250.28
101271.53
101289.29
101303.66
101314.79
101322.38
101326.18
100697.29
100705.89
100715.36
100724.58
100733.88
100743.65
100754.17
100765.74
100778.72
100793.51
100810.54
100830.28
100853.19
100879.69
100910.03
100944.07
100980.69
101019.57
101061.28
101096.56
101129.02
101163.54
101194.97
101223.07
101247.91
101269.24
101287.13
101301.65
101312.91
101320.62
101324.5
100744.6
100751.62
100759.5
100767
100774.34
100781.9
100790.02
100799.06
100809.41
100821.51
100835.82
100852.78
100872.86
100896.45
100923.81
100954.86
100988.79
101025
101063.49
101097.86
101128.86
101162.37
101193.04
101220.81
101245.57
101266.92
101284.92
101299.57
101310.94
101318.77
101322.73
100791.24
100796.68
100802.93
100808.8
100814.38
100819.99
100825.98
100832.74
100840.68
100850.28
100861.98
100876.26
100893.56
100914.28
100938.68
100966.74
100997.88
101031.29
101066.66
101099.8
101129.3
101161.58
101191.3
101218.7
101243.28
101264.59
101282.66
101297.42
101308.9
101316.84
101320.88
100835.27
100839.27
100843.95
100848.33
100852.44
100856.48
100860.77
100865.68
100871.62
100879.07
100888.47
100900.3
100915.01
100933
100954.53
100979.65
101007.91
101038.56
101071.19
101102.07
101130.27
101161.28
101189.85
101216.75
101241.06
101262.26
101280.37
101295.21
101306.77
101314.81
101318.93
100875.33
100878.31
100881.61
100884.68
100887.57
100890.44
100893.5
100897.05
100901.49
100907.25
100914.77
100924.52
100936.93
100952.4
100971.21
100993.48
101018.87
101046.72
101076.47
101105.31
101132.44
101161.42
101188.67
101215.09
101238.93
101259.97
101278.06
101292.95
101304.58
101312.7
101316.9
100911.28
100912.84
100915.56
100917.88
100919.79
100921.74
100923.9
100926.51
100929.89
100934.43
100940.52
100948.58
100959.04
100972.28
100988.6
101008.14
101030.72
101055.71
101082.15
101108.13
101135.03
101162.78
101188.16
101213.7
101236.97
101257.73
101275.75
101290.64
101302.31
101310.51
101314.78
100944.28
100944.83
100945.81
100947.03
100948.48
100950.01
100951.73
100953.86
100956.66
100960.43
100965.52
100972.3
100981.16
100992.47
101006.54
101023.55
101043.4
101065.52
101088.84
101113.1
101137.93
101163.63
101188.38
101212.79
101235.21
101255.6
101273.46
101288.29
101299.99
101308.24
101312.57
100972.14
100972.59
100973.44
100974.22
100974.97
100976.02
100977.54
100979.51
100982.05
100985.4
100989.83
100995.65
101003.21
101012.87
101024.93
101039.6
101056.87
101076.32
101097.2
101119.54
101141.18
101164.56
101188.86
101212.31
101233.73
101253.6
101271.22
101285.93
101297.62
101305.91
101310.3
100996.99
100997.29
100997.91
100998.66
100999.76
101001.08
101002.57
101004.42
101006.79
101009.83
101013.75
101018.79
101025.26
101033.45
101043.68
101056.2
101071.05
101087.98
101106.42
101126.22
101145.19
101166.57
101189.9
101211.98
101232.42
101251.79
101269.04
101283.57
101295.22
101303.51
101307.95
101020.9
101021.41
101022.18
101022.97
101023.98
101025.3
101026.91
101028.84
101031.17
101034
101037.49
101041.85
101047.32
101054.18
101062.73
101073.23
101085.79
101100.28
101116.25
101133.47
101150.41
101169.48
101191.32
101212
101231.24
101250.18
101266.95
101281.23
101292.79
101301.07
101305.54
101044.54
101045.26
101046.24
101047.25
101048.44
101049.87
101051.54
101053.47
101055.68
101058.24
101061.26
101064.92
101069.41
101075.01
101081.97
101090.56
101100.93
101113.07
101126.66
101141.54
101156.15
101172.91
101192.75
101212.09
101230.83
101248.8
101264.97
101278.94
101290.37
101298.59
101303.08
101068.52
101069.38
101070.5
101071.66
101072.81
101074.2
101075.98
101077.96
101080.07
101082.37
101084.93
101087.89
101091.43
101095.78
101101.21
101107.98
101116.29
101126.19
101137.45
101149.89
101162.31
101177.09
101194.68
101212.74
101230.9
101247.73
101263.16
101276.73
101287.96
101296.1
101300.59
101092.54
101093.42
101094.54
101095.62
101097.03
101098.8
101100.57
101102.37
101104.25
101106.2
101108.24
101110.48
101113.07
101116.22
101120.19
101125.25
101131.64
101139.44
101148.54
101158.76
101169.44
101181.98
101197.51
101214.34
101231.14
101246.67
101261.47
101274.61
101285.6
101293.62
101298.07
101116.79
101117.56
101118.69
101119.98
101121.42
101122.92
101124.46
101126.04
101127.6
101129.13
101130.63
101132.17
101133.86
101135.9
101138.54
101142.05
101146.67
101152.58
101159.74
101168
101176.99
101187.33
101201
101216.15
101231.38
101246.09
101260.14
101272.65
101283.31
101291.17
101295.56
101141.57
101141.91
101142.53
101143.29
101144.31
101145.48
101146.73
101148
101149.2
101150.3
101151.29
101152.21
101153.14
101154.25
101155.76
101157.94
101161.06
101165.31
101170.74
101177.24
101184.59
101193.01
101204.85
101218.09
101232.48
101246.26
101258.93
101270.85
101281.12
101288.78
101293.07
101163.77
101163.84
101164.86
101166.41
101167.48
101167.97
101168.43
101168.94
101169.42
101169.82
101170.11
101170.31
101170.51
101170.81
101171.41
101172.53
101174.44
101177.33
101181.31
101186.3
101192.22
101198.98
101209.12
101220.83
101233.79
101246.11
101257.99
101269.31
101279.07
101286.48
101290.64
101184.11
101183.72
101183.4
101183.22
101183.95
101185.48
101186.52
101186.73
101186.74
101186.54
101186.22
101185.83
101185.43
101185.13
101185.08
101185.47
101186.5
101188.4
101191.26
101195.05
101199.75
101205.14
101213.64
101223.75
101234.83
101246.71
101257.95
101267.98
101277.19
101284.31
101288.29
101202.04
101201.51
101201.04
101200.33
101199.34
101198.3
101198
101198.57
101199.16
101199.2
101198.59
101197.93
101197.3
101196.77
101196.46
101196.5
101197.07
101198.36
101200.47
101203.37
101207.08
101211.46
101218.36
101227.12
101236.95
101247.84
101257.62
101266.65
101275.55
101282.28
101286.07
101213.92
101213.55
101213.28
101212.96
101212.44
101211.66
101210.53
101209.18
101207.95
101207.39
101207.4
101207.1
101206.49
101205.95
101205.66
101205.71
101206.22
101207.27
101208.94
101211.25
101214.2
101217.82
101223.27
101230.8
101239.28
101248.31
101257.57
101266.19
101274.23
101280.41
101283.99
101218.4
101218.25
101218.07
101217.85
101217.59
101217.3
101216.99
101216.6
101216.06
101215.34
101214.55
101214
101213.76
101213.61
101213.6
101213.84
101214.42
101215.4
101216.84
101218.76
101221.13
101224.07
101228.33
101234.6
101241.57
101249.56
101258.33
101265.89
101273.04
101278.74
101282.1
101221.44
101221.54
101221.57
101221.55
101221.51
101221.46
101221.4
101221.33
101221.27
101221.24
101221.21
101221.02
101220.87
101221.02
101221.28
101221.67
101222.27
101223.18
101224.43
101226
101227.89
101230.22
101233.51
101238.6
101244.46
101251.21
101258.52
101266
101272.23
101277.33
101280.43
101225.76
101225.98
101226.16
101226.31
101226.49
101226.7
101226.96
101227.27
101227.59
101227.7
101227.61
101227.88
101228.45
101228.88
101229.28
101229.72
101230.27
101230.98
101231.93
101233.1
101234.51
101236.27
101238.7
101242.72
101247.6
101253.1
101259.52
101266.38
101271.65
101276.17
101279.02
101233.52
101233.49
101233.56