/*--------------------------------*- C++ -*----------------------------------*\
| =========                 |                                                 |
| \\      /  F ield         | OpenFOAM: The Open Source CFD Toolbox           |
|  \\    /   O peration     | Version:  2406                                  |
|   \\  /    A nd           | Website:  www.openfoam.com                      |
|    \\/     M anipulation  |                                                 |
\*---------------------------------------------------------------------------*/
FoamFile
{
    version     2.0;
    format      ascii;
    arch        "LSB;label=32;scalar=64";
    class       surfaceScalarField;
    location    "0.086";
    object      phi;
}
// * * * * * * * * * * * * * * * * * * * * * * * * * * * * * * * * * * * * * //

dimensions      [1 0 -1 0 0 0 0];

oriented        oriented;

internalField   nonuniform List<scalar> 
16284
(
0.010508118
-0.014645645
0.015092277
-0.010954752
0.010065194
-0.017196245
0.01763917
0.0096007987
-0.020122811
0.020587224
0.009118214
-0.023504833
0.023987447
0.0086247869
-0.027411653
0.027905127
0.0081307089
-0.031910198
0.032404352
0.0076476296
-0.03707575
0.03755893
0.0071852929
-0.042998098
0.043460551
0.0067497294
-0.049799915
0.050235575
0.0063433802
-0.05762335
0.05802977
0.0059669668
-0.06659749
0.066973959
0.0056163225
-0.076888171
0.077238857
0.0052816394
-0.088661018
0.088995729
0.004945423
-0.10203245
0.10236867
0.0045781022
-0.11683074
0.11719804
0.0041104583
-0.13268566
0.13315329
0.0035305607
-0.14880422
0.14938414
0.0030092362
-0.16609687
0.16661819
0.002621198
-0.18694262
0.18733064
0.0022907572
-0.21110952
0.21143999
0.0019919795
-0.23863229
0.23893114
0.0017219296
-0.26982377
0.27009391
0.001475134
-0.30513882
0.30538565
0.0012539676
-0.34532008
0.34554123
0.0010540393
-0.39106135
0.39126119
0.00086753004
-0.44288697
0.44307337
0.00069024288
-0.50167128
0.50184846
0.00052002433
-0.56840229
0.56857248
0.00035142287
-0.64417279
0.64434145
0.00018078906
-0.73044974
0.73062039
-0.82842794
0.82860883
0.011648327
-0.014254077
-0.012039881
0.011208392
-0.016756288
0.010741757
-0.019656143
0.01025221
-0.023015236
0.0097444956
-0.026903867
0.0092277052
-0.031393315
0.0087134986
-0.036561434
0.0082137047
-0.042498187
0.0077348065
-0.049320922
0.0072801875
-0.057168661
0.006852712
-0.066169963
0.0064496389
-0.07648506
0.0060611595
-0.088272517
0.005664023
-0.10163532
0.0052261909
-0.11639294
0.0046692416
-0.13212875
0.0039916955
-0.14812665
0.0034074941
-0.16551268
0.0029726929
-0.18650782
0.0025987486
-0.21073553
0.0022600419
-0.23829348
0.0019538228
-0.26951744
0.0016740851
-0.30485902
0.0014234105
-0.34506942
0.001196696
-0.39083472
0.00098497585
-0.44267538
0.00078366295
-0.50147008
0.00059030224
-0.56820895
0.00039890073
-0.64398133
0.0002050568
-0.73025587
-0.82822276
0.01278782
-0.013911552
-0.013130309
0.012388499
-0.016356925
0.011945644
-0.019213234
0.011467308
-0.022536834
0.010959967
-0.026396444
0.010432549
-0.030865802
0.0098965515
-0.036025333
0.0093649238
-0.041966453
0.0088462873
-0.048802196
0.0083440166
-0.056666326
0.0078634207
-0.065689318
0.0074030498
-0.076024652
0.0069533429
-0.087822786
0.0064858475
-0.10116784
0.0059637458
-0.1158709
0.0052987179
-0.13146375
0.0045122171
-0.14734013
0.0038681677
-0.16486863
0.003381614
-0.18602127
0.0029576951
-0.21031157
0.0025726928
-0.23790836
0.002224125
-0.26916875
0.0019056937
-0.30454052
0.001620297
-0.34478402
0.0013621136
-0.39057664
0.0011209199
-0.44243432
0.00089163817
-0.50124094
0.00067145688
-0.5679888
0.00045378819
-0.64376361
0.00023321487
-0.73003527
-0.82798941
0.013943468
-0.013626998
-0.014227967
0.013600146
-0.016013541
0.01320205
-0.018815069
0.012755215
-0.022089922
0.012266305
-0.025907448
0.011743968
-0.030343372
0.011199366
-0.035480634
0.010645484
-0.04141248
0.010092596
-0.048249233
0.0095457696
-0.056119443
0.0090114035
-0.065154908
0.0084894945
-0.075502706
0.0079707106
-0.087303978
0.0074217475
-0.10061891
0.006797952
-0.11524718
0.0060024287
-0.13066828
0.0050953484
-0.14643304
0.0043912888
-0.16416457
0.0038444794
-0.18547447
0.0033634022
-0.20983043
0.0029259154
-0.23747073
0.0025293537
-0.26877203
0.0021673067
-0.30417838
0.0018428535
-0.34445956
0.001549193
-0.39028309
0.0012747106
-0.44216
0.0010138253
-0.50098022
0.00076326104
-0.56773828
0.00051586803
-0.64351616
0.00026496717
-0.72978435
-0.82772428
0.015111685
-0.013409045
-0.01532957
0.014835058
-0.015736841
0.014498013
-0.018477948
0.014102304
-0.021694134
0.013652068
-0.025457129
0.013154075
-0.029845294
0.012618023
-0.0349445
0.012055868
-0.040850251
0.011478543
-0.047671848
0.01089317
-0.055534024
0.01030667
-0.064568368
0.0097201923
-0.074916189
0.0091243111
-0.086708069
0.008480649
-0.099975281
0.0077323379
-0.11449897
0.0067810207
-0.12971702
0.0057473055
-0.14539933
0.0049834956
-0.16340077
0.0043691373
-0.18486012
0.0038241743
-0.2092854
0.0033280744
-0.23697447
0.0028773264
-0.2683211
0.0024659212
-0.30376685
0.0020971316
-0.34409075
0.001762929
-0.389949
0.0014503798
-0.44184763
0.0011533807
-0.5006834
0.00086804812
-0.56745301
0.00058679477
-0.64323485
0.00030121447
-0.72949875
-0.82742289
0.01628268
-0.013264957
-0.016426698
0.016082616
-0.015536708
0.015820608
-0.018215872
0.015494002
-0.02136746
0.015102838
-0.025065896
0.014650283
-0.029392672
0.014142984
-0.034437139
0.013590534
-0.040297748
0.013003117
-0.04708439
0.012388826
-0.0549197
0.011754676
-0.063934184
0.011102224
-0.074263695
0.010421051
-0.086026865
0.0096665348
-0.099220819
0.0087645699
-0.11359714
0.0076297749
-0.1285823
0.0064755898
-0.14424517
0.0056511585
-0.16257636
0.0049619126
-0.18417088
0.0043453902
-0.20866879
0.0037838547
-0.23641275
0.0032719913
-0.26780903
0.0028049561
-0.30329966
0.002386165
-0.34367192
0.0020058788
-0.38956883
0.0016500782
-0.44149204
0.0013120519
-0.5003456
0.000987123
-0.56712815
0.00066744025
-0.64291511
0.00034232524
-0.72917361
-0.82708036
0.017451885
-0.013199596
-0.017517186
0.017335746
-0.015420514
0.017160082
-0.018040164
0.016917704
-0.021125038
0.016603925
-0.024752072
0.016217292
-0.029005998
0.015760003
-0.033979816
0.015237707
-0.039775428
0.014657978
-0.046504644
0.014027949
-0.054289655
0.013353523
-0.063259733
0.012635222
-0.073545348
0.011859601
-0.085251213
0.010973622
-0.098334921
0.0098802835
-0.11250398
0.008539026
-0.12724116
0.0072908343
-0.14299702
0.0063996565
-0.16168522
0.0056292683
-0.1834005
0.0049337103
-0.20797314
0.0042999973
-0.23577882
0.0037197779
-0.26722856
0.003190408
-0.3027701
0.0027153839
-0.34319683
0.002282608
-0.38913618
0.0018776011
-0.44108725
0.0014928745
-0.49996112
0.0011227455
-0.56675811
0.00075939383
-0.64255172
0.00038911083
-0.72880331
-0.82669102
0.018630832
-0.013213289
-0.018617108
0.018600721
-0.015390377
0.018515801
-0.01795522
0.018365977
-0.020975195
0.01814232
-0.024528401
0.017838213
-0.028701884
0.01745021
-0.033591814
0.016978355
-0.039303584
0.016425426
-0.04595173
0.01579502
-0.05365926
0.015089644
-0.062554342
0.014305991
-0.072761646
0.01342336
-0.084368556
0.012378396
-0.097290079
0.011048405
-0.11117422
0.0094963004
-0.12568923
0.0081990865
-0.14169989
0.0072336288
-0.16071982
0.0063765124
-0.1825434
0.0055950726
-0.2071916
0.0048823024
-0.23506581
0.0042261755
-0.26657216
0.0036274234
-0.3021711
0.0030894678
-0.34265878
0.0025970438
-0.38864388
0.00213629
-0.44062675
0.0016985472
-0.49952367
0.0012769488
-0.56633663
0.00086403383
-0.64213878
0.0004422154
-0.72838149
-0.82624855
0.01982949
-0.013299555
-0.019743224
0.019881691
-0.015442584
0.019886405
-0.017959945
0.019831225
-0.020920031
0.019703857
-0.024401058
0.019492681
-0.02849074
0.019188099
-0.033287275
0.018783353
-0.038898891
0.01827435
-0.045442783
0.017658219
-0.053043172
0.016930691
-0.061826817
0.016079599
-0.071910503
0.015066923
-0.083355871
0.013825347
-0.096048681
0.012219736
-0.10956891
0.01049858
-0.12396833
0.009200578
-0.14040201
0.0081565076
-0.15967583
0.0072070627
-0.18159399
0.0063351301
-0.20631958
0.0055366146
-0.23426703
0.0047974516
-0.26583268
0.004122242
-0.30149559
0.003514209
-0.34205062
0.0029542115
-0.38808401
0.0024304429
-0.44010325
0.0019325533
-0.49902612
0.0014523681
-0.56585659
0.0009831601
-0.64166956
0.0005026029
-0.72790093
-0.82574567
0.021057733
-0.013446668
-0.020910641
0.021180607
-0.015565484
0.021266585
-0.018045961
0.021301287
-0.020954782
0.021268339
-0.02436817
0.021151546
-0.028374017
0.020935568
-0.033071383
0.020606459
-0.038569882
0.020151644
-0.044988073
0.019558753
-0.05245037
0.018812499
-0.061080593
0.01788527
-0.07098323
0.016714082
-0.082184705
0.015201191
-0.094536022
0.013316411
-0.1076845
0.011556843
-0.12220909
0.010284215
-0.13912956
0.0091685892
-0.15856031
0.0081214062
-0.18054687
0.0071588512
-0.20535696
0.0062670734
-0.23337501
0.0054391879
-0.26500446
0.004680359
-0.30073641
0.0039947693
-0.34136488
0.0033589308
-0.38744827
0.0027642467
-0.43950887
0.0021982969
-0.49846055
0.0016516359
-0.5653101
0.0011184983
-0.64113644
0.00057118731
-0.72735363
-0.82517418
0.02231425
-0.013648701
-0.022112254
0.022496363
-0.015747635
0.022647945
-0.018197578
0.022754352
-0.021061232
0.022798781
-0.024412659
0.022762498
-0.02833782
0.022625374
-0.032934369
0.022366149
-0.038310793
0.02196204
-0.044584116
0.021387477
-0.051875942
0.020610771
-0.060303946
0.019577707
-0.06995013
0.01817874
-0.080785787
0.016326609
-0.092684155
0.014342262
-0.1057006
0.012745926
-0.12061321
0.011462441
-0.13784632
0.010245851
-0.15734385
0.0091195932
-0.17942072
0.0080492287
-0.20428659
0.0070768696
-0.23240244
0.0061572673
-0.26408451
0.0053070409
-0.29988582
0.0045363001
-0.34059395
0.0038166895
-0.38672872
0.0031425069
-0.43883504
0.0024996669
-0.49781813
0.0018778345
-0.56468849
0.0012720689
-0.64053073
0.00064913657
-0.72673072
-0.82452473
0.02349018
-0.013881437
-0.023257449
0.023710411
-0.015967878
0.02390716
-0.018394346
0.024064465
-0.021218571
0.024164461
-0.024512706
0.024186522
-0.028359958
0.024106566
-0.032854521
0.023895944
-0.038100313
0.023519465
-0.044207803
0.022932517
-0.051289146
0.022077258
-0.059448737
0.020865031
-0.068737837
0.019192207
-0.079112976
0.017163161
-0.090655347
0.015384193
-0.1039222
0.013973841
-0.1192035
0.012641697
-0.13651459
0.011399661
-0.15610202
0.010193897
-0.17821513
0.0090608798
-0.20315367
0.0079716399
-0.23131307
0.0069430387
-0.26305559
0.0060070372
-0.29894947
0.0051430056
-0.33972966
0.004332509
-0.38591826
0.0035698207
-0.43807273
0.0028402277
-0.497089
0.0021339795
-0.56398249
0.0014458598
-0.6398427
0.00073756321
-0.72602247
-0.82378686
0.02440972
-0.014115033
-0.024176085
0.024631392
-0.016189511
0.024829507
-0.018592422
0.02499105
-0.021380082
0.0250987
-0.024620337
0.02513032
-0.028391575
0.025057644
-0.032781862
0.024843221
-0.037885932
0.024436381
-0.043801025
0.023767385
-0.050620193
0.022749517
-0.058430801
0.021325692
-0.067313841
0.019607609
-0.077394794
0.017978221
-0.089026147
0.016556682
-0.10250129
0.015222136
-0.1178698
0.013920456
-0.13521361
0.012605876
-0.15478785
0.011337609
-0.17694717
0.010105442
-0.20192175
0.0089492188
-0.23015682
0.0078392858
-0.26194542
0.0067741048
-0.29788393
0.0058145676
-0.33876979
0.0049121338
-0.38501585
0.0040471137
-0.43720809
0.003223537
-0.49626591
0.0024232041
-0.56318244
0.0016421205
-0.63906176
0.0008376785
-0.72521809
-0.82294891
0.024251087
-0.014311009
-0.024055026
0.024434561
-0.016372892
0.024596653
-0.01875442
0.024732655
-0.021515991
0.024831251
-0.024718832
0.024861046
-0.028421244
0.024778289
-0.03269895
0.024535243
-0.037642702
0.024083289
-0.04334886
0.023372886
-0.049909556
0.022386214
-0.057443912
0.02120785
-0.066135352
0.020027132
-0.076213985
0.018897232
-0.087896338
0.017730253
-0.10133481
0.016476325
-0.11661676
0.015161327
-0.13389956
0.013842142
-0.15346939
0.012537025
-0.17564263
0.011259925
-0.20064512
0.00999258
-0.22888965
0.008776191
-0.26072886
0.0076363988
-0.29674382
0.0065737099
-0.33770676
0.0055575379
-0.38399962
0.0045833883
-0.43623433
0.0036519562
-0.495335
0.0027483367
-0.5622791
0.0018629726
-0.63817658
0.00095040703
-0.72430559
-0.82199829
0.023167154
-0.014551394
-0.022926668
0.023392523
-0.016598126
0.023580751
-0.018942481
0.023701358
-0.021636383
0.023728512
-0.024745737
0.023661013
-0.028353472
0.023496172
-0.032533794
0.023241081
-0.037387222
0.02291227
-0.043019577
0.022491864
-0.049488614
0.02199123
-0.056942859
0.021435454
-0.06557944
0.020775426
-0.075554069
0.019922913
-0.087044067
0.018863221
-0.10027545
0.017679026
-0.11543313
0.016424424
-0.13264584
0.015106171
-0.15215214
0.013778198
-0.1743156
0.012438247
-0.19930595
0.011117882
-0.22756975
0.0098261404
-0.25943708
0.0085678009
-0.29548522
0.0073967138
-0.33653533
0.0062698315
-0.3828726
0.005184092
-0.43514901
0.0041295306
-0.49428097
0.0031099827
-0.56125983
0.0021103208
-0.63717714
0.0010766051
-0.72327196
-0.82092158
0.020833358
-0.01485335
-0.020531348
0.021163601
-0.016928312
0.021523196
-0.01930202
0.021908031
-0.022021164
0.022291823
-0.025129468
0.022636212
-0.028697777
0.022889713
-0.032787095
0.02295013
-0.037447324
0.022794306
-0.042863434
0.022519998
-0.04921397
0.022203529
-0.056626068
0.021861414
-0.06523703
0.021422113
-0.075114785
0.02078765
-0.086409884
0.019923328
-0.099411334
0.018858715
-0.11436883
0.01765981
-0.13144742
0.016376256
-0.15086936
0.015041503
-0.17298187
0.013694637
-0.19796007
0.01229478
-0.22617066
0.010910125
-0.25805267
0.0095853128
-0.29416022
0.008306156
-0.33525595
0.0070594248
-0.38162581
0.0058415455
-0.43393156
0.0046631126
-0.4931031
0.00352016
-0.56011715
0.0023829385
-0.6360401
0.0012155044
-0.72210459
-0.81970613
0.019311315
-0.015094623
-0.01906995
0.019572399
-0.017189292
0.019853687
-0.019583189
0.020153002
-0.022320346
0.020474238
-0.025450553
0.02081712
-0.029040509
0.021211346
-0.033181268
0.021727984
-0.037964029
0.022252627
-0.043388233
0.022633403
-0.049595362
0.022667435
-0.056661092
0.022319523
-0.064889295
0.021888934
-0.0746839
0.021406767
-0.085927851
0.020804955
-0.098808808
0.019958601
-0.11352214
0.018890537
-0.13037947
0.01765808
-0.14963711
0.016316877
-0.1716411
0.014933323
-0.19657718
0.013516337
-0.22475453
0.012069833
-0.25660677
0.010655058
-0.29274551
0.0092832319
-0.33388421
0.0079106109
-0.38025331
0.006570829
-0.43259231
0.0052524946
-0.49178538
0.003963668
-0.55882854
0.0026892316
-0.63476574
0.0013725159
-0.72078787
-0.81833386
0.019051351
-0.015337584
-0.018808387
0.019312225
-0.01745017
0.019589857
-0.019860838
0.019883333
-0.02261386
0.020194037
-0.025761317
0.020517485
-0.029364062
0.020827187
-0.033491136
0.021085313
-0.038222466
0.021338708
-0.043642207
0.021612374
-0.049869881
0.022025682
-0.057075747
0.022350957
-0.065217588
0.022262549
-0.07459996
0.021903223
-0.085569681
0.021406103
-0.09830574
0.02078404
-0.11289611
0.019945765
-0.12953997
0.018867507
-0.14855874
0.017566757
-0.17034006
0.016184555
-0.19519475
0.014741834
-0.22331211
0.013232734
-0.25509836
0.011786358
-0.29129953
0.010328217
-0.33242653
0.0088360853
-0.37876164
0.0073504108
-0.43110735
0.0058892554
-0.49032479
0.0044577148
-0.55739709
0.0030230639
-0.63333098
0.0015438979
-0.71930856
-0.81679038
0.018307121
-0.015572014
-0.018072605
0.018565543
-0.017708492
0.018848472
-0.020143658
0.019155577
-0.022920838
0.019484275
-0.026089884
0.0198285
-0.029708147
0.020178776
-0.033841306
0.020521909
-0.038565566
0.020856156
-0.043976647
0.021171754
-0.050186312
0.021423252
-0.057330202
0.021806972
-0.065609362
0.022178304
-0.074988959
0.022210229
-0.085608287
0.021816835
-0.097890408
0.021274669
-0.1123411
0.020635532
-0.12889705
0.019814249
-0.14773671
0.018697266
-0.16922286
0.017351592
-0.19384852
0.015925472
-0.2218855
0.014421506
-0.25359447
0.01292674
-0.28980509
0.01140041
-0.33090087
0.0097957515
-0.37715767
0.0081852692
-0.42949775
0.0065790164
-0.48871906
0.0049794637
-0.55579737
0.0033849404
-0.63173608
0.0017338424
-0.71765713
-0.81505705
0.017844605
-0.015787185
-0.01762936
0.018080312
-0.017944109
0.018336893
-0.020400138
0.01861431
-0.023198125
0.018912243
-0.026387667
0.019230512
-0.030026206
0.019570043
-0.034180541
0.019932822
-0.038927837
0.020312421
-0.044355287
0.020689828
-0.050561681
0.021019677
-0.057655315
0.021201983
-0.065781014
0.021335583
-0.075101397
0.021623891
-0.08588705
0.021797719
-0.098089161
0.021451677
-0.11200868
0.020939511
-0.1283879
0.02030305
-0.14709998
0.019486213
-0.16840552
0.018373388
-0.19273591
0.017014779
-0.22052695
0.015557903
-0.2521369
0.014076996
-0.28832357
0.01248139
-0.32930553
0.010782113
-0.37545894
0.0090273827
-0.42774395
0.0072840652
-0.48697621
0.0055394268
-0.55405225
0.0037696007
-0.62996559
0.0019358188
-0.7158228
-0.81312167
0.017041753
-0.015993244
-0.016835634
0.017270429
-0.01817272
0.017522968
-0.020652599
0.017800238
-0.02347531
0.018102259
-0.026689576
0.018427522
-0.030351343
0.01877178
-0.034524621
0.01912723
-0.039283058
0.019485421
-0.044713132
0.019841244
-0.050916943
0.020199675
-0.058012816
0.020534711
-0.066114419
0.020818215
-0.07538293
0.020933849
-0.086002405
0.021125123
-0.098282337
0.021326069
-0.11221236
0.02101273
-0.12807781
0.020496583
-0.14658545
0.019871597
-0.16778022
0.019053923
-0.19191803
0.017895235
-0.21936929
0.016606586
-0.25084824
0.015161528
-0.28687693
0.013497591
-0.32764035
0.011731038
-0.37369233
0.0098850398
-0.4258988
0.0080059066
-0.48509761
0.0061047497
-0.55215035
0.0041689047
-0.62802889
0.0021498205
-0.71380298
-0.81097197
0.016313136
-0.016181582
-0.016124702
0.016521841
-0.018381317
0.016752072
-0.020882705
0.017004789
-0.023727888
0.017280615
-0.026965241
0.017579751
-0.030650298
0.017902367
-0.034847032
0.018248721
-0.039629181
0.018616871
-0.045081023
0.018998524
-0.051298313
0.019377314
-0.058391315
0.019758243
-0.066495155
0.020123843
-0.075748834
0.020439773
-0.086319045
0.020570663
-0.09841419
0.02075735
-0.11240008
0.020932475
-0.12825367
0.020561478
-0.14621694
0.020013948
-0.16723416
0.019318244
-0.19122101
0.01844238
-0.2184919
0.017445493
-0.24985202
0.016134232
-0.28556507
0.014418742
-0.32592154
0.012597928
-0.3718702
0.010679568
-0.42398086
0.0086985192
-0.48311715
0.0066766807
-0.55012768
0.0045735038
-0.62592486
0.002367712
-0.71159637
-0.80860374
0.015335957
-0.016357815
-0.015159666
0.015532421
-0.018577721
0.01575062
-0.021100838
0.015991963
-0.023969161
0.016257471
-0.027230677
0.016547484
-0.030940244
0.016861179
-0.035160668
0.017195836
-0.039963807
0.017547153
-0.045432358
0.017911346
-0.051662611
0.018286823
-0.058767038
0.018666684
-0.06687547
0.019062076
-0.076144996
0.019479482
-0.086737912
0.019886787
-0.098823354
0.020078724
-0.1125933
0.020272599
-0.12844804
0.020448972
-0.14639286
0.020040918
-0.16682825
0.019436744
-0.19061822
0.018762664
-0.2178147
0.017928466
-0.24901563
0.016760374
-0.28439711
0.015162069
-0.324319
0.013328275
-0.37003354
0.011394517
-0.42204648
0.0093423295
-0.48106493
0.007199042
-0.54798348
0.0049540986
-0.62367924
0.0025787058
-0.70922023
-0.80602369
0.014577385
-0.016517506
-0.014417729
0.014755492
-0.018755872
0.014953668
-0.021299078
0.015173481
-0.024189064
0.015416443
-0.027473767
0.015683987
-0.031207969
0.015977435
-0.035454371
0.016298105
-0.040284833
0.016647132
-0.045781877
0.017023837
-0.052039989
0.017422448
-0.059166541
0.017828894
-0.06728303
0.018210741
-0.076528112
0.018541889
-0.087070354
0.01881071
-0.099093695
0.019018954
-0.11280318
0.018998469
-0.12842811
0.019118963
-0.14651306
0.019416726
-0.16712406
0.019231179
-0.19043034
0.018835672
-0.21741775
0.018057801
-0.24823725
0.016857488
-0.28319589
0.015486809
-0.32294506
0.013782256
-0.3683256
0.011898176
-0.42016041
0.0098486365
-0.47901347
0.0076450285
-0.5457783
0.0052990733
-0.62133295
0.0027697532
-0.70669055
-0.80325198
0.013259494
-0.016655039
-0.013122
0.01341328
-0.018909705
0.013584809
-0.021470669
0.013775546
-0.02437988
0.013986839
-0.027685166
0.014219808
-0.031441075
0.014475159
-0.035709905
0.0147528
-0.040562715
0.015050998
-0.046080382
0.015366712
-0.052356087
0.015697957
-0.059498256
0.016045662
-0.067631303
0.016414589
-0.076897699
0.016803407
-0.087459836
0.017222419
-0.099513146
0.017682946
-0.11326395
0.018220439
-0.12896602
0.018563912
-0.14685682
0.018674585
-0.16723582
0.018743307
-0.19050032
0.018432214
-0.21710734
0.017635899
-0.24743813
0.016546068
-0.28210198
0.015315793
-0.32171294
0.013826442
-0.36683399
0.012113819
-0.4184453
0.010158545
-0.47705373
0.0079453477
-0.54356227
0.0055451327
-0.61893275
0.0029191472
-0.70406496
-0.80033097
0.012601151
-0.016771467
-0.012484766
0.012731491
-0.019040083
0.012877206
-0.021616415
0.013039677
-0.024542365
0.013220253
-0.027865731
0.013420212
-0.031640983
0.013640723
-0.035930306
0.013882965
-0.040804764
0.014148327
-0.046345441
0.0144374
-0.052644709
0.014747601
-0.059807824
0.015072026
-0.067954874
0.015397515
-0.077222107
0.015702345
-0.087763435
0.015945713
-0.099755329
0.016100774
-0.11341807
0.016137792
-0.12900291
0.016076415
-0.14679669
0.01597455
-0.16713541
0.016022534
-0.19055316
0.016072302
-0.21716279
0.015920692
-0.24728472
0.015366371
-0.28154631
0.014574114
-0.32092002
0.01344669
-0.36570979
0.01196876
-0.41696704
0.010199332
-0.47527838
0.0080928159
-0.54145216
0.005687499
-0.61652772
0.0030122119
-0.70139076
-0.79731734
0.011431195
-0.01686915
-0.011333572
0.011541362
-0.019150309
0.011665443
-0.021740546
0.01180496
-0.024681919
0.011961425
-0.028022205
0.012136171
-0.031815692
0.012330079
-0.0361241
0.012543227
-0.041017674
0.012775036
-0.046576824
0.013024075
-0.052893039
0.013287009
-0.060069644
0.01355892
-0.068225136
0.013835565
-0.077496456
0.014120207
-0.088045088
0.014428738
-0.10006027
0.01477636
-0.11376178
0.015149132
-0.12937164
0.01551038
-0.14715395
0.015774895
-0.16739741
0.01558423
-0.19036027
0.015123498
-0.21670222
0.014696348
-0.24686631
0.014450967
-0.28131181
0.013886828
-0.32036796
0.013020874
-0.36484872
0.011692349
-0.41563773
0.010018573
-0.47359985
0.0080191925
-0.53945017
0.0056704419
-0.61417925
0.0030214463
-0.69874304
-0.79429436
0.011708667
-0.016948946
-0.011628987
0.01179759
-0.019239362
0.011896734
-0.021839832
0.012007078
-0.02479242
0.012129753
-0.028145049
0.012266121
-0.031952247
0.012417928
-0.036276112
0.012587351
-0.041187329
0.012776644
-0.046766378
0.012988357
-0.053105057
0.013226639
-0.060308289
0.013497063
-0.068495992
0.013804959
-0.077804862
0.014148678
-0.088389403
0.014509834
-0.10042208
0.014841687
-0.11409417
0.015106878
-0.12963725
0.01527419
-0.1473214
0.015399197
-0.16752186
0.015632171
-0.19059221
0.015577514
-0.2166463
0.014977077
-0.24626595
0.01403779
-0.28037253
0.013185368
-0.3195157
0.012337583
-0.363999
0.01112792
-0.41442485
0.0095618758
-0.47203228
0.0076813709
-0.53757072
0.0054557907
-0.61195401
0.0029166435
-0.69620481
-0.79137599
0.010692373
-0.017008802
-0.010632602
0.010759655
-0.019306747
0.010835273
-0.021915577
0.010920069
-0.024877373
0.011014898
-0.028240073
0.011120588
-0.032058178
0.011237881
-0.0363937
0.011367358
-0.041317168
0.011509329
-0.04690879
0.011663517
-0.053259775
0.01182836
-0.060473762
0.012000295
-0.068668665
0.012173234
-0.07797864
0.012339892
-0.088556955
0.012497901
-0.10058096
0.012649866
-0.11424701
0.012801726
-0.12978992
0.012945675
-0.14746614
0.012961221
-0.16753758
0.012746875
-0.19037676
0.012616719
-0.21651484
0.012763647
-0.24640918
0.012604535
-0.28019925
0.011927799
-0.31882737
0.01098055
-0.36305642
0.0099324033
-0.41337375
0.0085687717
-0.47066861
0.0069035332
-0.53590897
0.0049469431
-0.60999723
0.0026707404
-0.6939275
-0.78870374
0.0094523267
-0.017032277
-0.0094285491
0.0094787387
-0.019332825
0.0095074273
-0.0219439
0.0095383037
-0.024907851
0.0095711362
-0.028272475
0.0096054991
-0.032092082
0.0096407171
-0.036428437
0.0096758365
-0.04135179
0.0097096445
-0.046942095
0.0097407901
-0.053290424
0.0097678346
-0.060500329
0.0097900196
-0.068690403
0.0098083527
-0.077996567
0.0098232686
-0.088571486
0.0098337814
-0.10059111
0.0098441199
-0.11425698
0.0098524757
-0.12979783
0.0098660503
-0.147479
0.0099419144
-0.16761248
0.010116403
-0.19054958
0.010248153
-0.2166412
0.010175664
-0.24632426
0.010183075
-0.28020107
0.0099998477
-0.3186493
0.0093097104
-0.36238274
0.0084133486
-0.4124896
0.0073200184
-0.46958193
0.005944566
-0.53453591
0.0042721662
-0.60832516
0.0022963573
-0.69194927
-0.78640428
0.0095585039
-0.009555389
0.0095620523
0.0095666149
0.0095725456
0.0095802838
0.0095903595
0.0096033904
0.0096200482
0.0096409835
0.0096667097
0.009697595
0.0097337579
0.0097750171
0.0098207046
0.0098657581
0.0099044741
0.0099307905
0.0099341021
0.0098926773
0.0097779952
0.0095834269
0.0093011872
0.0088679307
0.0083945171
0.0079364838
0.0072629302
0.0063391687
0.0051628477
0.0037200737
0.0020002449
0.01157423
-0.011376309
0.0090621445
-0.0092601067
0.013318557
-0.014628223
0.01288387
0.014624052
-0.017894337
0.01658881
0.015665823
-0.021503768
0.020461961
0.016578071
-0.025635156
0.024722874
0.017423597
-0.030403935
0.029558371
0.018208093
-0.035882424
0.035097898
0.01894854
-0.042140728
0.041400264
0.019646409
-0.049332004
0.048634133
0.020278726
-0.057569432
0.056937135
0.02082635
-0.066982238
0.066434665
0.021277663
-0.077728689
0.077277458
0.021623077
-0.089988038
0.089642724
0.02185018
-0.10393787
0.10371086
0.02194108
-0.11975458
0.11966375
0.021834625
-0.13746826
0.13757475
0.021466221
-0.15687752
0.15724594
0.020733875
-0.17750453
0.17823688
0.01956828
-0.19817606
0.19934168
0.01832658
-0.21997313
0.22121482
0.017199207
-0.24608152
0.2472088
0.016057436
-0.27654269
0.27768435
0.014846461
-0.31125397
0.3124648
0.0135518
-0.3507344
0.3520289
0.012158553
-0.39579608
0.39718915
0.010637386
-0.44712304
0.44864407
0.0089598162
-0.50552587
0.50720344
0.0070951363
-0.57197924
0.57384412
0.0050084325
-0.64761469
0.64970159
0.0026587318
-0.73387079
0.73622053
-0.8320785
0.83473707
0.012739005
-0.012834491
-0.011280864
0.013726214
-0.015615471
0.01454305
-0.018711209
0.015306669
-0.022267426
0.016063563
-0.02639209
0.016813073
-0.031153481
0.017536238
-0.03660562
0.018227201
-0.042831713
0.018868056
-0.049972867
0.019436746
-0.058138105
0.019922131
-0.067467572
0.020316626
-0.078123103
0.020611955
-0.090283271
0.02079614
-0.10412196
0.020850745
-0.11980912
0.020707193
-0.13732468
0.020308959
-0.15647927
0.019546992
-0.17674256
0.018382965
-0.197012
0.017212427
-0.21880265
0.016154263
-0.24502344
0.015073333
-0.27546187
0.013926921
-0.31010771
0.012704372
-0.34951201
0.01139174
-0.39448363
0.0099610648
-0.44569251
0.0083858474
-0.50395065
0.0066375474
-0.57023075
0.0046832872
-0.64566023
0.0024856931
-0.73167315
-0.82959291
0.012299009
-0.013641721
-0.011491808
0.013015287
-0.016331783
0.013743788
-0.019439746
0.014501641
-0.023025315
0.015263777
-0.027154262
0.016000485
-0.03189022
0.016696485
-0.037301649
0.017348213
-0.043483465
0.01793714
-0.050561804
0.018452186
-0.058653134
0.018886189
-0.067901521
0.019233627
-0.078470461
0.019487181
-0.090536738
0.019635521
-0.10427021
0.019659367
-0.11983291
0.019486566
-0.13715183
0.019068145
-0.15606082
0.018283208
-0.1759576
0.017140595
-0.19586935
0.016050427
-0.21771251
0.015058764
-0.24403186
0.014039337
-0.27444256
0.01296011
-0.30902863
0.011812801
-0.34836487
0.010584501
-0.39325552
0.0092488433
-0.444357
0.0077813449
-0.50248315
0.0061555128
-0.56860472
0.0043408683
-0.64384538
0.0023028302
-0.72963507
-0.82729009
0.011401951
-0.014376541
-0.010667171
0.012161414
-0.017091281
0.012929628
-0.020207993
0.01368981
-0.02378553
0.014425941
-0.027890426
0.015123883
-0.032588197
0.015775626
-0.037953426
0.016375658
-0.044083526
0.016910172
-0.051096332
0.01737179
-0.059114737
0.017755798
-0.068285479
0.018058104
-0.078772694
0.018271988
-0.090750547
0.018386176
-0.10438432
0.018375478
-0.11982216
0.018177166
-0.1369535
0.017748288
-0.15563191
0.016948772
-0.17515806
0.015841083
-0.19476163
0.014830475
-0.21670192
0.013904313
-0.24310578
0.012949307
-0.27348766
0.01194114
-0.3080206
0.01087353
-0.34729743
0.0097345338
-0.39211673
0.0084994135
-0.44312203
0.0071457188
-0.50112945
0.0056490687
-0.56710788
0.0039814628
-0.64217757
0.0021112152
-0.72776477
-0.82517884
0.01049448
-0.015162593
-0.0097084912
0.011275148
-0.017871986
0.012040769
-0.020973646
0.012783298
-0.02452809
0.013491085
-0.028598246
0.014152632
-0.03324978
0.014761044
-0.038561876
0.015310326
-0.044632844
0.015792048
-0.051578072
0.016202221
-0.059524899
0.016538394
-0.068621604
0.016797725
-0.079031962
0.016973986
-0.090926745
0.017055729
-0.10446597
0.017012461
-0.11977883
0.016794626
-0.13673564
0.016357606
-0.15519483
0.015549575
-0.17434999
0.014489148
-0.19370118
0.013559686
-0.21577249
0.012699878
-0.24224605
0.011812037
-0.27259993
0.010878247
-0.30708696
0.0098939471
-0.34631331
0.0088482233
-0.39107121
0.0077181232
-0.44199209
0.0064832628
-0.49989459
0.0051214246
-0.56574585
0.0036071243
-0.64066307
0.0019116692
-0.72606926
-0.82326714
0.0095538673
-0.015963291
-0.0087531956
0.010335188
-0.018653329
0.01109073
-0.021729211
0.011811073
-0.025248458
0.01248496
-0.029272165
0.01310426
-0.03386912
0.013664359
-0.039122019
0.014161125
-0.045129652
0.01459033
-0.052007302
0.014950473
-0.059885037
0.015240691
-0.068911781
0.015459071
-0.079250291
0.015599837
-0.091067453
0.015651662
-0.1045177
0.015580435
-0.11970754
0.015351174
-0.13650636
0.014906016
-0.15474961
0.014092846
-0.17353678
0.013091678
-0.19269998
0.01224284
-0.21492368
0.011449494
-0.24145278
0.010631047
-0.27178158
0.0097745513
-0.30623061
0.0088768879
-0.34541582
0.0079281921
-0.39012273
0.0069073692
-0.44097142
0.0057960952
-0.49878331
0.0045743571
-0.56452393
0.0032192127
-0.63930772
0.0017050879
-0.72455508
-0.82156203
0.0085842455
-0.016772462
-0.0077750479
0.0093609793
-0.01943007
0.010096899
-0.022465144
0.010783745
-0.025935328
0.011414692
-0.029903144
0.011985293
-0.034439764
0.01249296
-0.039629736
0.012935932
-0.045572673
0.013312933
-0.052384335
0.013624216
-0.060196321
0.013870079
-0.06915761
0.014049331
-0.079429494
0.014156786
-0.091174838
0.014181892
-0.1045427
0.014089576
-0.11961515
0.013855399
-0.13627216
0.013400791
-0.15429494
0.012586874
-0.17272282
0.011654915
-0.19176798
0.010885176