/*--------------------------------*- C++ -*----------------------------------*\
| =========                 |                                                 |
| \\      /  F ield         | OpenFOAM: The Open Source CFD Toolbox           |
|  \\    /   O peration     | Version:  2406                                  |
|   \\  /    A nd           | Website:  www.openfoam.com                      |
|    \\/     M anipulation  |                                                 |
\*---------------------------------------------------------------------------*/
FoamFile
{
    version     2.0;
    format      ascii;
    arch        "LSB;label=32;scalar=64";
    class       volScalarField;
    location    "0.086";
    object      T;
}
// * * * * * * * * * * * * * * * * * * * * * * * * * * * * * * * * * * * * * //

dimensions      [0 0 0 1 0 0 0];

internalField   nonuniform List<scalar> 
8260
(
292.77409
292.77535
292.77758
292.78519
292.79676
292.81044
292.82457
292.83759
292.84775
292.85372
292.85443
292.84896
292.83704
292.81914
292.798
292.78059
292.80202
292.87425
292.92259
292.94632
292.96266
292.97658
292.98876
292.99955
293.00909
293.01679
293.0231
293.02827
293.03257
293.03518
293.03706
292.84011
292.83496
292.83266
292.83463
292.83954
292.84637
292.85406
292.86125
292.86648
292.86832
292.86574
292.85767
292.84378
292.82435
292.80292
292.78716
292.81349
292.88554
292.92904
292.9506
292.96598
292.97918
292.9908
293.00116
293.01036
293.0178
293.02394
293.02897
293.03317
293.0357
293.03755
292.91097
292.90119
292.89368
292.88955
292.88775
292.88771
292.88871
292.88966
292.88933
292.88658
292.88008
292.86887
292.8525
292.83116
292.80908
292.79501
292.82727
292.89754
292.93575
292.95528
292.96967
292.98207
292.99309
293.00298
293.01181
293.01897
293.02489
293.02976
293.03386
293.03631
293.03811
292.98325
292.96949
292.95717
292.94737
292.9394
292.9329
292.9274
292.92215
292.91609
292.90822
292.89735
292.88252
292.86324
292.83969
292.81678
292.80492
292.84391
292.91068
292.94325
292.96067
292.97397
292.98545
292.99575
293.00511
293.01349
293.02032
293.026
293.03068
293.03464
293.03701
293.03875
293.05497
293.03797
293.02165
293.00695
292.99346
292.98102
292.96937
292.95803
292.94618
292.93296
292.91738
292.89855
292.876
292.85002
292.82631
292.81804
292.864
292.92483
292.95159
292.96681
292.97886
292.9893
292.99879
293.00753
293.01541
293.02185
293.02725
293.03173
293.03554
293.03779
293.03949
293.12503
293.10574
293.08634
293.0676
293.04937
293.03161
293.01428
292.99709
292.97951
292.96084
292.94031
292.91716
292.891
292.86245
292.83822
292.83558
292.88785
292.93987
292.96087
292.97378
292.98445
292.99369
293.00226
293.01029
293.01759
293.0236
293.02868
293.03292
293.03655
293.03869
293.04032
293.19231
293.17156
293.15004
293.12822
293.10614
293.08388
293.06151
293.03894
293.01587
292.99184
292.96626
292.93857
292.90853
292.87743
292.85349
292.85912
292.91514
292.95567
292.97119
292.98169
292.99078
292.9987
293.00622
293.01345
293.02007
293.02559
293.03031
293.03427
293.03771
293.03971
293.04126
293.25542
293.23397
293.21115
293.18726
293.16237
293.13658
293.11004
293.08279
293.05473
293.02562
292.99511
292.96284
292.92881
292.89559
292.87374
292.8906
292.94491
292.97221
292.98265
292.99064
292.99795
293.00437
293.01073
293.01703
293.02289
293.02785
293.03216
293.03582
293.03902
293.04088
293.04233
293.31295
293.29153
293.26821
293.24319
293.21649
293.18821
293.15849
293.12747
293.09518
293.06157
293.02652
292.98991
292.95213
292.91797
292.90164
292.93147
292.97515
292.98959
292.99542
293.00073
293.00603
293.01079
293.01584
293.02109
293.02608
293.03042
293.03426
293.03757
293.0405
293.0422
293.04355
293.3638
293.34281
293.3197
293.29436
293.26676
293.23699
293.20518
293.17146
293.13595
293.09873
293.05989
293.0196
292.97905
292.94631
292.94222
292.97955
293.00402
293.00803
293.00962
293.01208
293.0151
293.01803
293.02163
293.02568
293.0297
293.03335
293.03666
293.03958
293.04219
293.04372
293.04494
293.40695
293.38645
293.36374
293.33864
293.31103
293.28086
293.24815
293.21297
293.17547
293.13582
293.09431
293.05167
293.01104
292.98638
293.00001
293.02654
293.03106
293.02768
293.02521
293.02479
293.02523
293.02619
293.02814
293.03089
293.03386
293.03667
293.0394
293.04187
293.04412
293.04545
293.04652
293.44059
293.42122
293.39943
293.37512
293.34812
293.3183
293.28565
293.2502
293.21207
293.17152
293.12927
293.08782
293.05501
293.04838
293.06388
293.06615
293.05702
293.04852
293.04224
293.03864
293.03645
293.0354
293.03547
293.03685
293.0386
293.04047
293.04253
293.0445
293.04632
293.04743
293.04832
293.4625
293.44408
293.42344
293.40063
293.37528
293.34711
293.316
293.28201
293.24549
293.20726
293.16927
293.13737
293.12277
293.12364
293.11546
293.09831
293.08308
293.07005
293.06022
293.05349
293.04882
293.04558
293.0438
293.04362
293.04395
293.04483
293.04608
293.04749
293.04883
293.04968
293.05037
293.47336
293.45784
293.44033
293.42055
293.39809
293.37267
293.34441
293.31405
293.28288
293.25295
293.22745
293.20969
293.19718
293.17745
293.15178
293.12862
293.10875
293.09216
293.07873
293.06903
293.06193
293.05674
293.05311
293.05119
293.05
293.04973
293.0501
293.05087
293.05168
293.05222
293.05271
293.48838
293.47407
293.45737
293.43842
293.41815
293.39768
293.37675
293.3549
293.33271
293.3112
293.29039
293.26745
293.23956
293.20946
293.18159
293.15654
293.13446
293.11441
293.09747
293.0849
293.07561
293.06852
293.0632
293.05951
293.05668
293.05521
293.05461
293.05466
293.0549
293.05507
293.05536
293.49332
293.48618
293.47866
293.4702
293.45901
293.44353
293.42405
293.40093
293.37636
293.35258
293.3268
293.29662
293.26504
293.23432
293.20636
293.18097
293.15798
293.13645
293.11653
293.10121
293.08965
293.08063
293.07388
293.06852
293.06393
293.06123
293.05966
293.05888
293.05851
293.05825
293.05835
293.47134
293.46316
293.45401
293.44411
293.43369
293.4231
293.41327
293.40504
293.39364
293.37337
293.34649
293.31753
293.28813
293.25962
293.22916
293.2017
293.17834
293.15689
293.13576
293.11815
293.10442
293.09312
293.08493
293.07802
293.07178
293.0679
293.06527
293.06361
293.06254
293.06179
293.06169
293.4581
293.45283
293.44672
293.43938
293.43052
293.4198
293.4063
293.38971
293.37269
293.35782
293.3459
293.33155
293.30748
293.28069
293.25168
293.22311
293.19685
293.17471
293.15404
293.13557
293.11996
293.10655
293.09655
293.0881
293.08037
293.07522
293.07157
293.06886
293.067
293.06574
293.06539
293.429
293.42417
293.41871
293.41255
293.4057
293.3982
293.39018
293.38153
293.37138
293.3582
293.34072
293.32451
293.31388
293.29285
293.26713
293.24264
293.21717
293.19212
293.17062
293.15206
293.13561
293.12112
293.10921
293.09886
293.08976
293.08325
293.07845
293.07469
293.07196
293.07011
293.06949
293.40959
293.40635
293.40262
293.39822
293.393
293.38673
293.37916
293.37012
293.35978
293.34867
293.33691
293.3217
293.30194
293.28911
293.27843
293.25697
293.23371
293.21003
293.1867
293.1669
293.14946
293.13565
293.12288
293.11009
293.09981
293.09187
293.08583
293.08103
293.07742
293.07495
293.07402
293.38307
293.3802
293.37692
293.37317
293.36888
293.36403
293.35859
293.35254
293.34567
293.33752
293.32792
293.31774
293.30656
293.29059
293.27351
293.26147
293.2442
293.22383
293.20237
293.18138
293.16166
293.14806
293.13594
293.12122
293.10993
293.10088
293.09361
293.08785
293.08339
293.08032
293.07902
293.36208
293.36017
293.35795
293.35534
293.35224
293.34854
293.3441
293.33876
293.33244
293.32519
293.31712
293.30822
293.29897
293.28965
293.27637
293.25982
293.24738
293.23165
293.21457
293.19544
293.17565
293.159
293.14636
293.13169
293.11983
293.1101
293.10182
293.09513
293.0899
293.08623
293.08455
293.33807
293.33638
293.33444
293.33221
293.32964
293.32672
293.32343
293.31974
293.31561
293.31089
293.30529
293.29847
293.29016
293.28091
293.27205
293.26086
293.24622
293.23574
293.22214
293.2064
293.18843
293.1726
293.15542
293.14187
293.12991
293.11969
293.11058
293.10289
293.09698
293.09271
293.09062
293.31811
293.3171
293.31591
293.31451
293.31283
293.3108
293.30833
293.30533
293.30167
293.2973
293.29222
293.28644
293.27987
293.27237
293.26427
293.25667
293.24795
293.23556
293.22533
293.21077
293.19929
293.18502
293.16749
293.15331
293.14044
293.12949
293.11977
293.11115
293.1045
293.09971
293.09721
293.29594
293.29495
293.2938
293.29247
293.29093
293.28918
293.2872
293.28498
293.28247
293.27962
293.27634
293.27255
293.26815
293.26291
293.2564
293.24892
293.24203
293.23458
293.22316
293.21386
293.20379
293.19107
293.17662
293.16367
293.1509
293.1389
293.12867
293.11968
293.11231
293.10711
293.10427
293.28064
293.2802
293.27968
293.27903
293.27823
293.27723
293.27596
293.27437
293.27241
293.27
293.26703
293.2634
293.25911
293.25434
293.24931
293.24375
293.23662
293.22936
293.22381
293.21554
293.20429
293.19073
293.181
293.17091
293.15922
293.14693
293.13666
293.12789
293.12023
293.11479
293.11174
293.26172
293.26112
293.26044
293.25966
293.25878
293.25778
293.25668
293.25546
293.25409
293.25258
293.25099
293.24937
293.2477
293.24579
293.2432
293.23952
293.23473
293.22807
293.22031
293.2123
293.20212
293.1927
293.18324
293.17391
293.16404
293.15381
293.14413
293.13568
293.12828
293.12272
293.11951
293.25084
293.25057
293.25024
293.24984
293.24935
293.24876
293.24805
293.24721
293.24622
293.24504
293.24359
293.24177
293.23948
293.23667
293.23331
293.22941
293.22526
293.22092
293.215
293.20934
293.2048
293.19716
293.1873
293.17798
293.16951
293.16094
293.15192
293.14364
293.13648
293.13081
293.12748
293.23495
293.23472
293.23445
293.23413
293.23374
293.23329
293.23275
293.23212
293.23136
293.23047
293.22942
293.22818
293.22675
293.22513
293.22328
293.22127
293.21874
293.21571
293.21255
293.20827
293.20395
293.20043
293.19306
293.18309
293.17523
293.16749
293.15947
293.15145
293.14441
293.1389
293.13553
293.22818
293.22802
293.22783
293.2276
293.22732
293.22699
293.22659
293.2261
293.22552
293.22482
293.22398
293.22296
293.22176
293.22035
293.21861
293.21651
293.21413
293.21141
293.2084
293.20515
293.20047
293.19459
293.19066
293.18695
293.17991
293.17197
293.16456
293.15732
293.15081
293.14562
293.14242
293.22237
293.2222
293.222
293.22177
293.22149
293.22117
293.22079
293.22034
293.21982
293.21921
293.21851
293.21768
293.21665
293.21537
293.2139
293.21219
293.21018
293.20785
293.20503
293.20167
293.19816
293.1945
293.19009
293.1852
293.18017
293.17448
293.16793
293.16137
293.15528
293.15032
293.14725
293.87319
293.75092
293.6262
293.51116
293.41111
293.32332
293.24376
293.17212
293.10605
293.04662
292.99354
292.94623
292.90339
292.86357
292.82504
292.78512
292.74524
292.71631
292.73241
292.80064
292.86054
292.89757
292.92419
292.94641
292.96514
292.98036
292.9924
293.00195
293.00931
293.01415
293.01739
293.70219
293.58927
293.49547
293.41245
293.33433
293.25962
293.18946
293.1249
293.06543
293.01222
292.96493
292.92263
292.88392
292.84745
292.81138
292.77382
292.736
292.71386
292.73888
292.81125
292.86748
292.90181
292.92738
292.94898
292.96723
292.98203
292.99376
293.0031
293.01031
293.01504
293.01803
293.63663
293.53961
293.45073
293.36643
293.28655
293.21253
293.14537
293.08487
293.03077
292.98294
292.94057
292.90251
292.86727
292.83359
292.79952
292.76407
292.72831
292.71283
292.74626
292.821
292.87329
292.90549
292.93025
292.95133
292.96915
292.98359
292.99504
293.00417
293.01125
293.01588
293.01883
293.56608
293.47159
293.38514
293.30465
293.23013
293.1622
293.10119
293.04681
292.99869
292.9563
292.91868
292.88458
292.85253
292.82133
292.78897
292.75549
292.72249
292.71276
292.75459
292.83054
292.8789
292.90924
292.93323
292.95376
292.97113
292.98518
292.99635
293.00527
293.0122
293.01673
293.0196
293.48566
293.39668
293.31647
293.2423
293.17423
293.11292
293.05849
293.01056
292.9685
292.93152
292.89852
292.8682
292.83915
292.81025
292.77949
292.74792
292.7185
292.71373
292.76432
292.83971
292.88413
292.91288
292.93617
292.95616
292.97308
292.98676
292.99765
293.00637
293.01316
293.01758
293.02041
293.39475
293.31583
293.24401
293.17765
293.11747
293.06399
293.01702
292.97602
292.94018
292.90857
292.88003
292.8533
292.82705
292.80028
292.77113
292.74143
292.7158
292.71576
292.77522
292.84836
292.88907
292.91648
292.93911
292.95855
292.97504
292.98835
292.99897
293.00748
293.01412
293.01844
293.02119
293.29886
293.23054
293.16823
293.11141
293.0607
293.01611
292.97725
292.94346
292.91388
292.88752
292.86325
292.8399
292.81627
292.79146
292.76391
292.73603
292.71373
292.7191
292.78688
292.85639
292.89375
292.92003
292.94201
292.96093
292.97698
292.98993
293.00028
293.00859
293.01509
293.01931
293.022
293.19421
293.13934
293.08954
293.04461
293.00477
292.96987
292.93953
292.91307
292.88967
292.86839
292.84819
292.828
292.8068
292.78372
292.75775
292.73171
292.71219
292.72424
292.79882
292.86379
292.89824
292.92354
292.94489
292.96329
292.97892
292.99151
293.00159
293.00971
293.01606
293.02018
293.0228
293.08457
293.04597
293.01091
292.97909
292.95074
292.92589
292.90419
292.88502
292.86763
292.8512
292.83483
292.8176
292.79861
292.77695
292.75263
292.72845
292.71148
292.73128
292.81049
292.87059
292.90258
292.927
292.94775
292.96564
292.98084
292.99309
293.00291
293.01082
293.01704
293.02105
293.02362
292.97639
292.95467
292.93479
292.91619
292.89943
292.88471
292.87156
292.85946
292.84782
292.83598
292.82318
292.80869
292.79168
292.7713
292.74863
292.72607
292.71177
292.73987
292.82156
292.87687
292.90681
292.93043
292.95058
292.96796
292.98275
292.99466
293.00422
293.01194
293.01801
293.02193
293.02444
292.87269
292.86785
292.86242
292.85691
292.85169
292.84686
292.84189
292.83653
292.83032
292.82275
292.81323
292.80123
292.78595
292.76688
292.74589
292.72459
292.71315
292.7493
292.83191
292.88273
292.91095
292.93381
292.95337
292.97027
292.98465
292.99622
293.00553
293.01306
293.01899
293.0228
293.02526
292.77549
292.78653
292.79547
292.80279
292.8086
292.81279
292.81543
292.81634
292.81515
292.81151
292.80498
292.79521
292.78146
292.76397
292.74422
292.72398
292.71552
292.75938
292.84158
292.88824
292.91501
292.93716
292.95613
292.97255
292.98653
292.99777
293.00684
293.01417
293.01997
293.02369
293.02609
292.68854
292.71385
292.73582
292.75464
292.77034
292.78294
292.79249
292.79896
292.80232
292.80221
292.79837
292.79059
292.77848
292.76249
292.74321
292.72421
292.71877
292.76988
292.85055
292.89348
292.919
292.94046
292.95886
292.9748
292.98839
292.99931
293.00814
293.01529
293.02096
293.02457
293.02692
292.61591
292.65233
292.68494
292.7134
292.73757
292.75746
292.77307
292.78451
292.79187
292.79494
292.79358
292.78758
292.77703
292.76212
292.74313
292.72512
292.72289
292.78054
292.85883
292.89851
292.92293
292.94371
292.96155
292.97703
292.99022
293.00085
293.00944
293.0164
293.02194
293.02545
293.02775
292.56072
292.60492
292.64491
292.68041
292.71115
292.73691
292.75764
292.77353
292.78448
292.79032
292.79116
292.78649
292.77678
292.76249
292.74396
292.72662
292.72792
292.79112
292.86644
292.90337
292.92681
292.94692
292.96421
292.97923
292.99204
293.00237
293.01072
293.01751
293.02292
293.02634
293.02858
292.52063
292.57176
292.61692
292.65705
292.69233
292.7225
292.74724
292.76676
292.78069
292.78845
292.79022
292.78646
292.77756
292.76372
292.74567
292.72901
292.73388
292.80136
292.87345
292.90808
292.93062
292.95008
292.96683
292.9814
292.99384
293.00388
293.01201
293.01861
293.0239
293.02723
293.02942
292.48147
292.54179
292.5945
292.64033
292.67993
292.7137
292.7417
292.76326
292.77839
292.78761
292.79064
292.78776
292.77941
292.76596
292.74826
292.73237
292.74068
292.81115
292.88006
292.9127
292.93439
292.9532
292.96942
292.98355
292.99563
293.00538
293.01328
293.01972
293.02488
293.02811
293.03026
292.45661
292.51717
292.5736
292.62424
292.66836
292.70583
292.73666
292.76059
292.77779
292.78852
292.79265
292.79047
292.78245
292.76925
292.75176
292.73649
292.74811
292.82047
292.8863
292.91723
292.93813
292.95629
292.97198
292.98567
292.99739
293.00687
293.01456
293.02081
293.02585
293.029
293.03111
292.46093
292.51585
292.56898
292.61871
292.66359
292.70262
292.7352
292.76082
292.77955
292.79144
292.79637
292.79461
292.78672
292.7736
292.75616
292.74129
292.75589
292.82933
292.89221
292.92169
292.94182
292.95935
292.97451
292.98776
292.99914
293.00834
293.01582
293.02191
293.02683
293.02989
293.03195
292.47861
292.52894
292.5779
292.62446
292.66747
292.70583
292.73845
292.76452
292.78398
292.79647
292.80183
292.80023
292.79226
292.779
292.76144
292.74674
292.76382
292.83773
292.89786
292.92606
292.94547
292.96237
292.977
292.98983
293.00087
293.0098
293.01706
293.02299
293.0278
293.03077
293.0328
292.50854
292.553
292.59697
292.63933
292.67908
292.71521
292.74629
292.77177
292.79119
292.80363
292.80902
292.80732
292.79905
292.78542
292.76758
292.75281
292.77177
292.84573
292.90325
292.93035
292.94906
292.96533
292.97945
292.99184
293.00256
293.01123
293.0183
293.02406
293.02876
293.03166
293.03364
292.5506
292.5872
292.62464
292.66165
292.69709
292.72968
292.75824
292.78241
292.80093
292.81276
292.81782
292.81579
292.80704
292.79281
292.77451
292.75947
292.77965
292.85334
292.90836
292.93448
292.95254
292.9682
292.98182
292.9938
293.00422
293.01264
293.01951
293.02512
293.02972
293.03254
293.03448
292.60461
292.63064
292.65907
292.68908
292.71903
292.74749
292.77328
292.79537
292.81247
292.82341
292.82789
292.82537
292.81603
292.80102
292.78213
292.7666
292.78732
292.86037
292.91307
292.93838
292.95587
292.97095
292.9841
292.9957
293.00583
293.01402
293.02071
293.02618
293.03068
293.03343
293.03534
292.67563
292.68974
292.70571
292.72545
292.74772
292.77061
292.7924
292.81151
292.82641
292.8361
292.83964
292.83638
292.82627
292.81022
292.7904
292.7738
292.79409
292.86642
292.91732
292.94209
292.95911
292.97366
292.98637
292.9976
293.00746
293.01542
293.02193
293.02726
293.03166
293.03434
293.03624
293.8714
293.7703
293.64909
293.53287
293.43038
293.34121
293.2614
293.18771
293.1212
293.06097
293.00666
292.95784
292.9135
292.87231
292.83272
292.79205
292.75148
292.71988
292.7304
292.79544
292.85715
292.89528
292.92239
292.94492
292.96392
292.97936
292.99158
293.00127
293.00873
293.01364
293.01692
293.84962
293.7486
293.63183
293.5225
293.42535
293.33983
293.26313
293.1924
293.12772
293.0685
293.01443
292.96527
292.92026
292.87823
292.83779
292.79644
292.75527
292.72253
292.7293
292.79229
292.85522
292.89389
292.92119
292.94385
292.96298
292.97855
292.99087
293.00065
293.00817
293.01313
293.01638
293.8288
293.73287
293.62077
293.51657
293.424
293.34184
293.26763
293.19899
293.13554
293.07698
293.02299
292.97341
292.92765
292.88473
292.84334
292.80123
292.75929
292.72511
292.72806
292.78851
292.85288
292.89225
292.9198
292.94264
292.96193
292.97764
292.99008
292.99995
293.00754
293.01256
293.01574
293.80948
293.72153
293.61375
293.51302
293.42361
293.344
293.27189
293.20494
293.14274
293.08499
293.0313
292.98151
292.93519
292.89148
292.84922
292.80642
292.76373
292.72801
292.72722
292.7845
292.85021
292.89036
292.91823
292.94126
292.96074
292.97661
292.9892
292.99919
293.00686
293.01195
293.01513
293.78967
293.71039
293.60701
293.50974
293.42291
293.34559
293.27547
293.21027
293.14947
293.09271
293.03953
292.98972
292.94298
292.89859
292.85552
292.8121
292.76866
292.73129
292.72684
292.78045
292.84735
292.88834
292.91653
292.93979
292.95946
292.97552
292.98825
292.99836
293.00612
293.01129
293.01456
293.76821
293.69843
293.60003
293.50585
293.42172
293.34672
293.27862
293.21526
293.15599
293.10033
293.04779
292.99813
292.95109
292.90611
292.8623
292.81834
292.77415
292.73499
292.72691
292.77644
292.84438
292.88623
292.91474
292.93822
292.95811
292.97435
292.98725
292.99749
293.00534
293.01058
293.01407
293.74561
293.68525
293.59278
293.50203
293.42056
293.34782
293.2817
293.22018
293.16244
293.10793
293.05613
293.00673
292.95953
292.91407
292.8696
292.82513
292.78011
292.7392
292.72737
292.7725
292.8413
292.88408
292.91292
292.9366
292.95669
292.97313
292.98619
292.99656
293.00451
293.00983
293.0134
293.72321
293.67145
293.58568
293.49866
293.41977
293.34914
293.28488
293.22512
293.1689
293.11557
293.06456
293.01554
292.96829
292.92245
292.8774
292.83241
292.7866
292.7441
292.72826
292.76862
292.83811
292.88187
292.91105
292.93493
292.95522
292.97184
292.98507
292.99558
293.00363
293.00903
293.01257
293.70278
293.65769
293.57883
293.49593
293.41966
293.35103
293.2885
293.23037
293.17558
293.1234
293.07321
293.02463
292.97743
292.93129
292.88573
292.84017
292.79369
292.74987
292.72962
292.76491
292.83479
292.87959
292.90912
292.93319
292.95367
292.97049
292.98389
292.99454
293.00269
293.00818
293.01165
293.68475
293.64466
293.57256
293.49405
293.42051
293.35381
293.29287
293.23621
293.18271
293.13158
293.08218
293.03406
292.98696
292.94062
292.8946
292.84844
292.8013
292.75632
292.7316
292.76146
292.83135
292.87725
292.90715
292.9314
292.95206
292.96907
292.98265
292.99344
293.00169
293.00728
293.01072
293.66968
293.63322
293.5675
293.49353
293.42276
293.35787
293.29836
293.24293
293.19052
293.1403
293.0916
293.04392
292.99695
292.95045
292.90403
292.85727
292.80946
292.76329
292.73465
292.75839
292.82781
292.87487
292.90513
292.92954
292.95039
292.96758
292.98133
292.99227
293.00064
293.00632
293.00988
293.65895
293.62481
293.56466
293.49506
293.42696
293.3637
293.30532
293.25086
293.19929
293.14977
293.10162
293.0543
293.00746
292.96081
292.91403
292.86669
292.81817
292.77076
292.73863
292.75592
292.82417
292.87244
292.90308
292.92764
292.94865
292.96603
292.97995
292.99104
292.99952
293.0053
293.00899
293.65282
293.61985
293.56448
293.49907
293.43353
293.37171
293.31417
293.2603
293.20924
293.16017
293.11238
293.06531
293.01853
292.97175
292.92462
292.87671
292.82749
292.77893
292.74349
292.75422
292.82046
292.87
292.90102
292.92569
292.94685
292.96441
292.9785
292.98975
292.99834
293.00422
293.00801
293.65175
293.62028
293.56859
293.50655
293.44309
293.38229
293.3252
293.27152
293.2206
293.17168
293.12403
293.07704
293.03025
292.9833
292.93582
292.88736
292.83746
292.78785
292.74922
292.75338
292.81669
292.86755
292.89895
292.92372
292.945
292.96272
292.97699
292.98838
292.99709
293.00308
293.00691
293.65445
293.62373
293.57548
293.51676
293.4553
293.39535
293.33844
293.28465
293.23352
293.18441
293.13666
293.08958
293.04266
292.99549
292.94765
292.89866
292.8481
292.7976
292.75595
292.75362
292.81294
292.86513
292.89691
292.92172
292.94311
292.96097
292.9754
292.98695
292.99577
293.00186
293.00576
293.66037
293.63048
293.58513
293.52951
293.46997
293.41076
293.35383
293.29966
293.24802
293.19844
293.15032
293.10298
293.05582
293.00837
292.96016
292.91066
292.85951
292.80822
292.76393
292.75483
292.80932
292.86272
292.8949
292.91972
292.94118
292.95918
292.97376
292.98545
292.99439
293.00058
293.00454
293.66804
293.63995
293.59761
293.54478
293.48693
293.4283
293.37117
293.31641
293.26405
293.21376
293.16503
293.11724
293.06973
293.02194
292.97336
292.92343
292.87187
292.81994
292.77288
292.75691
292.80596
292.86042
292.89295
292.91774
292.93923
292.95732
292.97205
292.98389
292.99293
292.99923
293.00325
293.67735
293.65126
293.61194
293.56188
293.50569
293.44756
293.39014
293.33465
293.2814
293.23025
293.18075
293.13234
293.08439
293.03622
292.98727
292.93702
292.88528
292.83286
292.78321
292.75972
292.80283
292.85817
292.89109
292.9158
292.93726
292.95544
292.97029
292.98225
292.9914
292.99781
293.0019
293.68696
293.6629
293.62681
293.57983
293.52555
293.46805
293.41034
293.35406
293.29985
293.24773
293.19737
293.14825
293.09975
293.05118
293.0019
292.95137
292.89941
292.84645
292.79404
292.76386
292.80038
292.85617
292.88931
292.91392
292.93532
292.95351
292.96846
292.98056
292.98981
292.99631
293.00046
293.69696
293.67496
293.64205
293.59827
293.54615
293.48947
293.43152
293.37444
293.3192
293.26604
293.21476
293.16488
293.11577
293.06678
293.01718
292.96638
292.91407
292.86019
292.80598
292.76971
292.79875
292.85418
292.88771
292.91213
292.93338
292.95157
292.96661
292.9788
292.98814
292.99474
292.99893
293.70733
293.68714
293.65721
293.61672
293.56706
293.51148
293.45348
293.39563
293.33931
293.28506
293.23281
293.18213
293.1324
293.08295
293.03305
292.98199
292.92928
292.87466
292.81918
292.77724
292.79741
292.85269
292.8862
292.91048
292.93152
292.94962
292.9647
292.97699
292.98641
292.9931
292.99732
293.71829
293.69941
293.67201
293.63469
293.58781
293.5338
293.47605
293.41755
293.36016
293.30477
293.25149
293.19996
293.14959
293.09966
293.04944
292.99813
292.94507
292.8898
292.83311
292.78658
292.79741
292.85097
292.88502
292.909
292.92973
292.94766
292.96277
292.97512
292.98461
292.99139
292.99562
293.72996
293.71183
293.68624
293.65166
293.60765
293.55569
293.49875
293.43998
293.38168
293.32515
293.27079
293.21836
293.1673
293.11688
293.0663
293.01476
292.96138
292.90554
292.84767
292.79692
292.79917
292.85032
292.88395
292.90777
292.92795
292.94577
292.96085
292.97322
292.98276
292.9896
292.99386
293.74136
293.72402
293.69998
293.66761
293.62622
293.57659
293.52103
293.46253
293.40367
293.34614
293.29071
293.23733
293.18552
293.13457
293.08362
293.03181
292.97819
292.92191
292.86322
292.80928
292.80155
292.84945
292.88381
292.90684
292.92647
292.94389
292.95887
292.97126
292.98084
292.98775
292.99206
293.75175
293.73509
293.71234
293.68196
293.64302
293.59587
293.54215
293.48453
293.42565
293.36748
293.31113
293.25683
293.20424
293.1527
293.10136
293.04927
292.99546
292.93899
292.87982
292.82281
292.80463
292.84845
292.88393
292.90638
292.92495
292.94208
292.95699
292.9693
292.97889
292.98584
292.99022
293.75822
293.74262
293.72142
293.69313
293.65684
293.61252
293.56125
293.50525
293.44704
293.38877
293.33181
293.27672
293.22338
293.17124
293.11947
293.06712
293.01315
292.95662
292.89727
292.838
292.80893
292.84808
292.88411
292.90602
292.92383
292.94051
292.95506
292.96731
292.9769
292.98387
292.98834
293.75877
293.74448
293.72507
293.69924
293.6659
293.62475
293.57662
293.52321
293.46667
293.40912
293.35216
293.29664
293.24271
293.19003
293.13785
293.08525
293.03116
292.97457
292.91488
292.85395
292.81603
292.84819
292.8844
292.90599
292.92299
292.93883
292.95323
292.96532
292.97487
292.98186
292.98641
293.75174
293.73897
293.72164
293.69852
293.6686
293.63143
293.5873
293.5374
293.48353
293.42766
293.37147
293.31606
293.26189
293.20883
293.15633
293.10352
293.04935
292.99274
292.93288
292.87086
292.82498
292.84912
292.88544
292.90594
292.92193
292.93763
292.95151
292.96338
292.97286
292.97981
292.98441
293.73705
293.72596
293.71093
293.6909
293.66489
293.6322
293.59269
293.54708
293.49679
293.44354
293.38897
293.33437
293.28043
293.22731
293.17466
293.12175
293.06758
293.01103
292.95115
292.8884
292.8362
292.8508
292.8858
292.90633
292.92205
292.93658
292.94976
292.9614
292.97079
292.97774
292.98236
293.7158
293.70644
293.69379
293.67687
293.65472
293.62657
293.59209
293.55152
293.50572
293.45604
293.404
293.35096
293.29785
293.24509
293.19256
293.13972
293.08567
293.02931
292.96958
292.90644
292.84924
292.85413
292.8871
292.9072
292.9219
292.93508
292.94822
292.95961
292.96886
292.97566
292.98024
293.68901
293.68132
293.67096
293.65712
293.63892
293.61553
293.58637
293.55126
293.51056
293.46516
293.41638
293.36557
293.31383
293.26185
293.20975
293.1572
293.10344
293.04742
292.98802
292.92491
292.86476
292.85792
292.88892
292.90793
292.92207
292.93484
292.94705
292.9578
292.96683
292.97359
292.97813
293.65877
293.65263
293.64441
293.63345
293.61898
293.60016
293.57623
293.5467
293.51147
293.47098
293.42613
293.37816
293.3283
293.27747
293.22607
293.17401
293.12069
293.06516
293.00629
292.94347
292.88099
292.86243
292.89084
292.90923
292.92272
292.93432
292.94545
292.95611
292.96498
292.97156
292.97601
293.62721
293.62215
293.6156
293.60704
293.59581
293.58112
293.56213
293.53809
293.50849
293.47329
293.43299
293.38855
293.34115
293.29188
293.24145
293.19005
293.13731
293.0824
293.02421
292.96189
292.89754
292.86872
292.89346
292.91167
292.92311
292.9338
292.9447
292.9548
292.96321
292.96959
292.97398
293.59938
293.5947
293.5888
293.58136
293.572
293.56013
293.54496
293.52558
293.50122
293.4714
293.43613
293.39592
293.35174
293.30468
293.25567
293.20519
293.15317
293.09899
293.04161
292.98
292.91514
292.87643
292.89599
292.91257
292.92378
292.93458
292.94439
292.95327
292.96142
292.96771
292.97199
293.578
293.57358
293.56833
293.5619
293.55381
293.54346
293.53029
293.5137
293.49299
293.46743
293.43662
293.40064
293.36002
293.31567
293.26853
293.2193
293.16819
293.11482
293.05831
292.99757
292.93283
292.88529
292.89851
292.91469
292.92556
292.93466
292.9437
292.95235
292.96015
292.96598
292.97009
293.56554
293.56066
293.55512
293.54874
293.54122
293.53213
293.52084
293.50653
293.48827
293.46538
293.43759
293.40493
293.36747
293.32573
293.28051
293.23261
293.18244
293.12988
293.07425
293.01446
292.95022
292.8962
292.90134
292.9175
292.92672
292.93541
292.94425
292.95158
292.95867
292.96429
292.96827
293.56486
293.55944
293.55336
293.54643
293.53842
293.529
293.5177
293.50398
293.48724
293.46677
293.44171
293.41144
293.37606
293.33612
293.2924
293.24561
293.19624
293.14437
293.08949
293.03062
292.96703
292.90803
292.90489
292.91985
292.9283
292.93672
292.94411
292.95094
292.95762
292.96294
292.96662
293.57073
293.56534
293.55921
293.55214
293.54392
293.53428
293.52286
293.50919
293.49267
293.47259
293.44823
293.41915
293.38521
293.3467
293.3042
293.25838
293.20977
293.15849
293.10423
293.04619
292.98333
292.92111
292.90925
292.92259
292.93095
292.93794
292.94429
292.95121
292.95713
292.96151
292.96509
293.5735
293.56881
293.56337
293.55696
293.54936
293.54024
293.52924
293.51589
293.49968
293.48007
293.45658
293.42863
293.39582
293.35828
293.31653
293.27131
293.22319
293.1724
293.11873
293.06144
292.9993
292.93444
292.91435
292.92593
292.93336
292.93892
292.94569
292.95154
292.95617
292.96053
292.9639
293.56639
293.56283
293.55861
293.55355
293.54741
293.53986
293.53051
293.51885
293.50431
293.48626
293.46407
293.43722
293.40558
293.36927
293.3286
293.28415
293.23657
293.18627
293.13316
293.07661
293.01528
292.94941
292.9202
292.92956
292.93596
292.94112
292.94658
292.95164
292.95591