/*--------------------------------*- C++ -*----------------------------------*\
| =========                 |                                                 |
| \\      /  F ield         | OpenFOAM: The Open Source CFD Toolbox           |
|  \\    /   O peration     | Version:  2406                                  |
|   \\  /    A nd           | Website:  www.openfoam.com                      |
|    \\/     M anipulation  |                                                 |
\*---------------------------------------------------------------------------*/
FoamFile
{
    version     2.0;
    format      ascii;
    arch        "LSB;label=32;scalar=64";
    class       volScalarField;
    location    "0.003";
    object      Ma;
}
// * * * * * * * * * * * * * * * * * * * * * * * * * * * * * * * * * * * * * //

dimensions      [0 0 0 0 0 0 0];

internalField   nonuniform List<scalar> 
86779
(
0.15106452
0.1518399
0.15259438
0.15331583
0.1539927
0.15461619
0.15518351
0.15571949
0.15623591
0.15674455
0.15725657
0.15778175
0.15832702
0.15890117
0.15950043
0.16012396
0.16076441
0.16140598
0.16204063
0.16266398
0.16326933
0.16386526
0.16445543
0.16504056
0.16561982
0.16619108
0.1667519
0.16730123
0.16783755
0.16835834
0.16886037
0.16933996
0.169793
0.17021492
0.1706007
0.17094478
0.17124077
0.17148218
0.1716666
0.17177309
0.17179064
0.17172784
0.17156606
0.17128816
0.1708836
0.17034241
0.16965803
0.16883234
0.16788451
0.16686448
0.16586265
0.1649874
0.16430336
0.16379706
0.16341253
0.16309739
0.16281863
0.16255935
0.16231156
0.16207194
0.1618393
0.1616132
0.16139282
0.16117776
0.16096808
0.16076329
0.16056281
0.16036664
0.16017487
0.15998724
0.15980332
0.15962293
0.1594459
0.15927178
0.15910019
0.15893113
0.15876455
0.15860037
0.15843848
0.15827905
0.15812189
0.15796692
0.15781438
0.15766408
0.15751599
0.15737025
0.1572267
0.15708534
0.1569462
0.15680907
0.15667401
0.15654099
0.15640995
0.15628093
0.15615391
0.15602891
0.15590598
0.15578506
0.1556662
0.1555494
0.15543465
0.15532197
0.15521141
0.15510301
0.1549969
0.15489314
0.15479179
0.15469291
0.15459657
0.15450286
0.15441185
0.15432362
0.15423836
0.15415618
0.15407712
0.15400143
0.15392939
0.1538613
0.15379741
0.15373826
0.15368415
0.15363594
0.15359351
0.15355832
0.15352977
0.1535108
0.15349907
0.14881637
0.1496839
0.15055655
0.15138487
0.1521688
0.15290891
0.1536086
0.15427738
0.15492343
0.15555516
0.15618113
0.15680943
0.15744699
0.1580989
0.15876454
0.15944115
0.16012265
0.16080048
0.16146902
0.16212539
0.16276741
0.16339816
0.16401973
0.16463274
0.1652366
0.16582938
0.16640908
0.16697446
0.16752424
0.1680559
0.16856629
0.16905179
0.16950835
0.16993141
0.17031592
0.17065629
0.17094621
0.17117907
0.17135068
0.17144071
0.17144292
0.17136153
0.17117306
0.17086679
0.17043111
0.1698568
0.16913941
0.16828507
0.16732074
0.16630811
0.16534696
0.16453917
0.16392629
0.16347586
0.16312851
0.16283732
0.16257513
0.16232873
0.16209193
0.16186228
0.16163893
0.16142164
0.16120955
0.16100232
0.16080013
0.16060249
0.16040875
0.16021899
0.16003334
0.15985156
0.15967322
0.15949813
0.15932619
0.15915697
0.15899008
0.15882552
0.15866325
0.15850319
0.15834523
0.15818955
0.15803599
0.15788445
0.15773518
0.15758803
0.15744295
0.1573001
0.15715934
0.15702064
0.15688407
0.15674941
0.15661672
0.15648597
0.15635711
0.15623019
0.15610519
0.15598215
0.1558611
0.155742
0.15562488
0.15550977
0.15539666
0.15528557
0.15517653
0.15506962
0.15496492
0.15486254
0.15476251
0.15466491
0.15456979
0.15447724
0.15438734
0.15430016
0.15421589
0.15413463
0.1540564
0.15398146
0.15391011
0.15384262
0.15377926
0.15372057
0.15366685
0.153619
0.15357685
0.15354195
0.15351359
0.1534948
0.1534831
0.14619347
0.14716512
0.14820002
0.14918169
0.15010846
0.15098735
0.15182436
0.15262617
0.15339953
0.15415162
0.15488979
0.15562109
0.15635169
0.15708592
0.15782431
0.15856477
0.15930284
0.16003269
0.16075003
0.16145245
0.16213883
0.16281051
0.16346905
0.16411517
0.16474857
0.16536784
0.16597082
0.16655676
0.16712426
0.16767098
0.16819386
0.16868939
0.16915356
0.16958185
0.1699692
0.17030999
0.1705979
0.17082612
0.17098889
0.171068
0.17106036
0.17096281
0.17075278
0.17042327
0.16996174
0.16936013
0.16861643
0.16774162
0.16677119
0.16577807
0.16486722
0.1641277
0.16357784
0.16317267
0.16285464
0.16258299
0.1623353
0.16210096
0.16187484
0.16165503
0.16144094
0.16123241
0.1610286
0.16082916
0.16063443
0.16044393
0.16025692
0.16007353
0.15989395
0.15971797
0.15954518
0.15937537
0.1592085
0.15904418
0.15888198
0.15872192
0.15856395
0.15840801
0.15825398
0.15810204
0.15795208
0.15780397
0.15765797
0.15751399
0.15737192
0.15723197
0.15709399
0.15695796
0.15682396
0.15669177
0.15656143
0.15643296
0.15630628
0.15618145
0.15605847
0.15593735
0.15581816
0.15570083
0.15558542
0.15547194
0.1553604
0.15525081
0.15514321
0.15503766
0.15493427
0.15483313
0.15473429
0.15463781
0.15454375
0.15445222
0.15436327
0.15427699
0.15419357
0.15411309
0.15403559
0.15396132
0.15389058
0.15382364
0.15376077
0.15370253
0.15364921
0.15360175
0.15355992
0.15352535
0.15349721
0.15347864
0.153467
0.14367667
0.14476513
0.14594104
0.1470645
0.14812787
0.14913828
0.15010246
0.15102646
0.15191641
0.15277881
0.1536202
0.1544468
0.15526397
0.15607554
0.15688265
0.15768431
0.15847761
0.15925859
0.16002398
0.16077174
0.16150092
0.1622123
0.16290701
0.16358572
0.16424828
0.16489344
0.16551953
0.16612561
0.16671049
0.16727186
0.16780678
0.16831182
0.16878301
0.16921587
0.16960533
0.16994571
0.17023061
0.170453
0.17060578
0.17067382
0.17065466
0.17053852
0.1703063
0.16995237
0.16946399
0.16883475
0.1680657
0.16717377
0.16620431
0.16524112
0.1643898
0.16372119
0.16323148
0.16286784
0.16257668
0.16232344
0.16208987
0.16186752
0.16165215
0.16144229
0.16123757
0.16103794
0.16084254
0.16065101
0.16046386
0.16028062
0.16010046
0.15992356
0.15975018
0.15958012
0.15941301
0.15924858
0.15908687
0.15892757
0.15877017
0.15861471
0.15846115
0.15830943
0.15815942
0.15801132
0.15786507
0.15772048
0.15757785
0.15743712
0.15729817
0.15716121
0.15702612
0.15689285
0.1567615
0.15663186
0.15650397
0.15637786
0.15625343
0.15613077
0.15600988
0.15589077
0.15577352
0.15565803
0.1555444
0.15543263
0.15532273
0.15521472
0.15510863
0.15500453
0.15490252
0.1548027
0.15470512
0.15460983
0.15451691
0.15442647
0.15433853
0.15425322
0.15417072
0.15409109
0.15401437
0.15394082
0.15387073
0.15380439
0.15374205
0.15368429
0.1536314
0.15358434
0.15354285
0.15350862
0.15348072
0.15346238
0.1534508
0.14128729
0.14249663
0.1437928
0.14504
0.14622676
0.14735771
0.14843876
0.14947524
0.15047268
0.15143692
0.15237383
0.1532889
0.15418688
0.15507124
0.15594355
0.15680366
0.15764994
0.15847988
0.15929121
0.16008237
0.16085262
0.16160234
0.16233229
0.16304296
0.16373424
0.16440503
0.16505379
0.16567985
0.16628187
0.16685764
0.16740432
0.16791851
0.16839631
0.16883323
0.16922418
0.1695634
0.1698444
0.17005997
0.17020176
0.17025768
0.17022498
0.17008854
0.16983297
0.16945297
0.16893654
0.16827933
0.1674863
0.16658175
0.16562199
0.16470019
0.16391673
0.16332013
0.16288717
0.16256148
0.16229505
0.16205927
0.16183954
0.1616292
0.16142468
0.16122494
0.16102977
0.16083921
0.16065239
0.16046893
0.16028952
0.16011372
0.15994056
0.15977029
0.15960324
0.15943925
0.15927793
0.15911903
0.1589626
0.15880842
0.15865595
0.15850519
0.15835614
0.15820874
0.15806285
0.15791869
0.15777622
0.15763524
0.15749606
0.15735867
0.15722291
0.157089
0.15695687
0.15682643
0.1566978
0.15657079
0.15644541
0.1563217
0.1561996
0.15607916
0.15596041
0.15584336
0.15572808
0.1556145
0.15550269
0.15539267
0.15528445
0.15517805
0.15507351
0.15497088
0.15487029
0.15477182
0.15467552
0.15458146
0.15448971
0.15440036
0.15431347
0.15422915
0.15414758
0.15406881
0.15399289
0.15392007
0.15385065
0.15378493
0.15372314
0.15366588
0.15361343
0.15356679
0.15352564
0.15349177
0.15346412
0.15344602
0.15343451
0.13902834
0.14035855
0.14176024
0.14311418
0.14440897
0.14564686
0.14683242
0.14797014
0.14906488
0.15012179
0.15114604
0.15214252
0.15311546
0.15406807
0.15500218
0.15591826
0.15681561
0.15769283
0.15854846
0.15938141
0.16019115
0.16097785
0.16174195
0.16248378
0.16320315
0.16389906
0.16457033
0.16521603
0.16583496
0.16642491
0.16698309
0.16750616
0.16799024
0.16843081
0.16882274
0.16916021
0.16943658
0.16964454
0.16977438
0.169817
0.16976937
0.16961112
0.16933097
0.16892355
0.16837828
0.16769339
0.16687886
0.16596777
0.16502814
0.16415935
0.16345013
0.1629245
0.16254415
0.16225295
0.16200936
0.16179029
0.1615842
0.16138593
0.16119241
0.16100293
0.16081749
0.16063618
0.1604581
0.16028287
0.16011134
0.15994313
0.15977712
0.15961361
0.15945303
0.15929521
0.15913983
0.15898657
0.15883552
0.15868657
0.15853912
0.15839317
0.15824872
0.15810572
0.15796405
0.15782389
0.15768529
0.157548
0.15741234
0.15727836
0.15714587
0.15701509
0.15688598
0.15675845
0.15663261
0.15650828
0.15638546
0.15626424
0.1561445
0.15602634
0.15590979
0.15579486
0.15568161
0.15556997
0.15546003
0.15535181
0.15524531
0.15514058
0.15503763
0.15493653
0.1548374
0.15474032
0.15464535
0.15455255
0.154462
0.15437379
0.15428798
0.15420468
0.15412407
0.1540462
0.15397111
0.15389906
0.15383034
0.15376525
0.15370404
0.1536473
0.15359531
0.15354911
0.15350831
0.15347482
0.15344742
0.15342955
0.15341814
0.13691656
0.138359
0.13985242
0.14129708
0.14268411
0.14401429
0.145291
0.14651787
0.14769903
0.14883889
0.14994196
0.15101249
0.15205426
0.15307023
0.15406235
0.1550315
0.15597766
0.1569002
0.15779828
0.15867124
0.15951872
0.16034078
0.16113765
0.1619095
0.16265607
0.16337647
0.16406949
0.16473439
0.16536974
0.16597341
0.16654265
0.16707415
0.16756399
0.16800764
0.16839989
0.16873482
0.1690057
0.16920514
0.16932185
0.16935012
0.16928613
0.16910434
0.16879833
0.16836236
0.16778786
0.16707638
0.16624418
0.16533464
0.16442718
0.16362259
0.16299159
0.16253403
0.16220167
0.16194169
0.16171929
0.16151633
0.16132376
0.16113765
0.16095527
0.16077623
0.16060069
0.1604288
0.16025963
0.16009278
0.1599293
0.15976884
0.15961012
0.1594535
0.15929952
0.15914802
0.15899868
0.15885119
0.15870562
0.15856201
0.15841969
0.15827865
0.1581389
0.1580004
0.15786302
0.15772697
0.15759231
0.1574588
0.15732673
0.15719624
0.15706709
0.15693951
0.1568135
0.15668894
0.15656596
0.15644438
0.1563242
0.15620551
0.1560882
0.15597237
0.15585807
0.1557453
0.15563414
0.1555245
0.15541648
0.1553101
0.15520538
0.15510236
0.15500104
0.15490152
0.15480388
0.15470824
0.15461464
0.15452314
0.15443382
0.15434679
0.15426209
0.15417985
0.15410023
0.15402328
0.15394905
0.15387779
0.1538098
0.15374537
0.15368476
0.15362856
0.15357705
0.1535313
0.15349087
0.15345776
0.15343062
0.153413
0.15340169
0.13496417
0.13650423
0.13807508
0.13959508
0.14105891
0.14246678
0.14382118
0.14512496
0.14638148
0.14759443
0.14876761
0.14990468
0.15100891
0.15208302
0.15312892
0.15414777
0.15513998
0.15610544
0.15704378
0.15795467
0.15883789
0.15969346
0.16052146
0.16132194
0.16209453
0.16283837
0.16355238
0.16423565
0.16488672
0.16550345
0.1660831
0.16662236
0.16711726
0.16756323
0.16795496
0.16828638
0.16855067
0.1687404
0.16884276
0.16885601
0.16877347
0.16856623
0.16823309
0.16776762
0.16716396
0.16642791
0.16558353
0.16468575
0.16382375
0.16309319
0.16254173
0.16214789
0.16185883
0.16162712
0.16142456
0.16123726
0.16105814
0.16088431
0.16071322
0.16054478
0.16037933
0.16021703
0.16005695
0.15989862
0.15974334
0.15959079
0.15943951
0.15928991
0.15914267
0.1589976
0.15885444
0.15871284
0.15857287
0.1584347
0.15829762
0.15816159
0.15802663
0.15789271
0.15775973
0.15762786
0.15749722
0.15736757
0.15723918
0.15711225
0.15698652
0.15686222
0.15673938
0.15661785
0.1564978
0.15637904
0.15626155
0.15614546
0.15603065
0.1559172
0.15580521
0.15569467
0.15558564
0.15547805
0.155372
0.15526751
0.15516461
0.15506335
0.15496372
0.15486581
0.15476972
0.15467556
0.15458336
0.1544932
0.15440516
0.15431934
0.15423579
0.15415464
0.15407604
0.15400004
0.1539267
0.15385627
0.15378903
0.15372529
0.1536653
0.15360966
0.15355865
0.15351336
0.15347332
0.1534406
0.15341374
0.15339636
0.15338517
0.13317683
0.13479659
0.1364299
0.13801047
0.13953646
0.14100811
0.14242722
0.14379598
0.14511701
0.14639327
0.14762787
0.14882385
0.14998401
0.15111074
0.15220587
0.15327063
0.1543057
0.1553113
0.15628739
0.15723386
0.15815062
0.15903765
0.15989495
0.16072242
0.16151964
0.16228572
0.16301957
0.16372019
0.16438606
0.16501499
0.16560423
0.1661504
0.16664951
0.16709686
0.16748703
0.16781382
0.16807019
0.16824855
0.16833614
0.16833352
0.1682288
0.16799462
0.16763327
0.16713765
0.16650553
0.1657482
0.16489918
0.16402564
0.16322285
0.16257383
0.16210052
0.16176506
0.16151476
0.16130877
0.16112493
0.16095296
0.1607873
0.16062588
0.16046625
0.16030855
0.16015337
0.16000084
0.15985001
0.15970036
0.15955342
0.15940895
0.15926524
0.15912279
0.15898245
0.15884393
0.15870706
0.15857149
0.15843721
0.15830459
0.15817286
0.15804194
0.15791188
0.15778262
0.15765413
0.15752653
0.1574
0.15727429
0.15714965
0.15702635
0.15690413
0.15678317
0.15666358
0.15654517
0.1564281
0.15631223
0.15619751
0.15608409
0.15597183
0.15586082
0.1557512
0.15564293
0.15553609
0.1554306
0.15532657
0.15522403
0.155123
0.15502354
0.15492565
0.1548294
0.1547349
0.15464226
0.15455152
0.15446274
0.15437601
0.15429144
0.15420908
0.15412905
0.1540515
0.15397649
0.15390407
0.15383449
0.15376804
0.15370501
0.15364567
0.15359061
0.15354012
0.15349531
0.15345567
0.15342335
0.15339677
0.15337964
0.15336858
0.13156348
0.13323648
0.13491556
0.13654263
0.13811739
0.13963999
0.14111175
0.14253423
0.14390937
0.14523944
0.14652689
0.14777419
0.14898364
0.15015728
0.15129678
0.15240333
0.15347771
0.15452033
0.15553136
0.15651083
0.15745871
0.15837497
0.15925952
0.16011216
0.16093238
0.16171923
0.16247159
0.16318834
0.16386787
0.16450795
0.16510573
0.16565779
0.16616003
0.16660765
0.16699509
0.16731595
0.16756302
0.16772812
0.16780045
0.1677802
0.16764972
0.16738756
0.16699691
0.16647091
0.16581194
0.16503835
0.16419472
0.16335992
0.16262945
0.1620663
0.16166734
0.1613844
0.16116869
0.16098624
0.16082026
0.1606634
0.16051119
0.16036233
0.16021432
0.16006753
0.15992279
0.1597802
0.15963879
0.15949798
0.15935953
0.15922328
0.15908729
0.15895211
0.1588188
0.15868698
0.15855651
0.15842709
0.15829862
0.15817165
0.15804537
0.15791967
0.15779459
0.1576701
0.15754619
0.15742294
0.1573006
0.15717891
0.15705811
0.15693852
0.15681987
0.15670234
0.15658607
0.15647085
0.15635684
0.15624394
0.15613205
0.15602135
0.1559117
0.1558032
0.155696
0.15559006
0.15548546
0.15538214
0.15528019
0.15517964
0.15508053
0.15498292
0.15488681
0.15479228
0.15469942
0.15460835
0.1545191
0.15443174
0.15434637
0.15426309
0.15418195
0.15410307
0.15402662
0.15395262
0.15388116
0.15381246
0.15374682
0.15368454
0.15362587
0.15357141
0.15352147
0.15347714
0.15343793
0.15340602
0.15337973
0.15336284
0.15335195
0.13011031
0.13181737
0.13352788
0.13518902
0.13680069
0.13836278
0.13987618
0.14134192
0.14276136
0.14413617
0.14546819
0.14675932
0.14801142
0.14922616
0.15040495
0.15154888
0.15265873
0.15373497
0.15477786
0.1557875
0.15676388
0.15770694
0.15861651
0.15949229
0.16033366
0.1611396
0.16190891
0.16264035
0.16333221
0.16398215
0.16458725
0.16514396
0.16564808
0.16609465
0.16647796
0.16679146
0.16702774
0.16717771
0.1672331
0.16719296
0.16703453
0.1667433
0.16632213
0.16576612
0.16508325
0.16430068
0.16347526
0.16269511
0.16204796
0.1615714
0.16124107
0.16100474
0.16081992
0.16065921
0.16051042
0.16036853
0.16022981
0.16009366
0.15995745
0.1598217
0.15968757
0.1595551
0.15942326
0.15929144
0.15916162
0.15903374
0.15890561
0.15877783
0.1586517
0.1585267
0.15840273
0.15827962
0.15815707
0.15803584
0.15791513
0.15779474
0.15767475
0.1575551
0.15743586
0.15731707
0.15719898
0.15708141
0.15696453
0.15684873
0.15673373
0.1566197
0.15650681
0.15639485
0.15628399
0.15617411
0.15606512
0.15595722
0.15585026
0.15574432
0.1556396
0.15553605
0.15543375
0.15533264
0.15523282
0.15513432
0.15503718
0.15494148
0.15484721
0.15475444
0.15466327
0.1545738
0.15448609
0.1544002
0.15431622
0.15423427
0.1541544
0.15407672
0.15400139
0.15392844
0.15385797
0.15379018
0.15372539
0.15366388
0.1536059
0.15355208
0.15350269
0.15345888
0.15342009
0.15338862
0.15336262
0.15334598
0.15333527
0.12880463
0.13053266
0.1322628
0.13394697
0.1355849
0.13717611
0.13872107
0.14022041
0.14167499
0.14308594
0.14445457
0.14578228
0.14707046
0.14832042
0.14953329
0.15071001
0.15185124
0.15295745
0.15402888
0.15506564
0.15606771
0.15703496
0.15796713
0.15886381
0.15972429
0.16054743
0.16133194
0.16207643
0.16277907
0.16343739
0.16404834
0.16460826
0.16511277
0.16555677
0.16593435
0.1662388
0.1664626
0.16659519
0.16663168
0.16656973
0.16638124
0.16605958
0.1656071
0.16502247
0.16432051
0.16353909
0.16274751
0.16203801
0.16148169
0.16108885
0.1608203
0.16062494
0.16046784
0.16032745
0.16019534
0.16006835
0.15994316
0.15981987
0.15969564
0.15957105
0.1594477
0.15932553
0.15920343
0.15908074
0.15895967
0.1588403
0.15872017
0.15859992
0.15848111
0.15836306
0.15824571
0.15812902
0.15801251
0.15789713
0.15778208
0.15766711
0.1575523
0.15743759
0.15732311
0.15720886
0.15709512
0.15698175
0.15686887
0.15675692
0.15664566
0.1565352
0.15642578
0.15631716
0.1562095
0.15610273
0.15599672
0.15589168
0.15578746
0.15568414
0.15558197
0.15548086
0.15538092
0.15528209
0.15518445
0.15508805
0.15499294
0.1548992
0.15480681
0.15471586
0.15462642
0.15453862
0.15445249
0.15436812
0.15428558
0.154205
0.15412642
0.15404999
0.15397581
0.15390395
0.15383449
0.15376766
0.15370373
0.15364302
0.15358578
0.15353261
0.15348381
0.15344052
0.15340219
0.15337114
0.15334546
0.15332905
0.15331856
0.12763931
0.12937743
0.13111688
0.13281401
0.13446838
0.13607914
0.13764639
0.13917038
0.14065154
0.14209053
0.14348819
0.14484544
0.14616327
0.14744261
0.14868431
0.14988907
0.15105743
0.15218974
0.1532862
0.15434685
0.15537161
0.15636025
0.15731244
0.15822762
0.15910496
0.15994322
0.16074096
0.16149665
0.1622083
0.1628733
0.16348844
0.16404989
0.1645531
0.16499275
0.16536273
0.16565613
0.16586539
0.16597831
0.16599455
0.1659081
0.16568727
0.16533409
0.16485034
0.16423995
0.16352624
0.16275945
0.16201959
0.161395
0.16093247
0.16061752
0.16040341
0.16024394
0.16011195
0.15999077
0.159875
0.15976288
0.15965126
0.15954097
0.15942891
0.1593156
0.15920319
0.15909148
0.15897928
0.15886585
0.15875368
0.15864295
0.15853096
0.15841834
0.15830701
0.15819606
0.15808541
0.15797528
0.15786492
0.15775547
0.1576462
0.15753675
0.15742722
0.15731754
0.1572079
0.15709829
0.15698897
0.15687988
0.15677109
0.15666308
0.15655563
0.15644882
0.15634294
0.15623773
0.15613336
0.15602976
0.15592679
0.15582469
0.15572329
0.15562266
0.15552309
0.15542449
0.15532696
0.15523045
0.15513506
0.15504083
0.15494779
0.15485606
0.15476561
0.15467653
0.15458888
0.15450279
0.1544183
0.15433548
0.15425442
0.15417525
0.15409803
0.15402286
0.15394988
0.15387914
0.15381073
0.15374489
0.15368187
0.15362199
0.15356551
0.15351301
0.15346481
0.15342207
0.15338421
0.15335361
0.15332825
0.15331208
0.15330182
0.12660846
0.128347
0.13008643
0.1317873
0.13344906
0.13507055
0.13665153
0.13819188
0.13969164
0.14115107
0.14257056
0.14395062
0.14529185
0.14659481
0.14786007
0.14908808
0.15027918
0.15143359
0.15255139
0.15363252
0.1546768
0.1556839
0.15665333
0.15758442
0.1584762
0.1593273
0.16013612
0.16090095
0.16161963
0.16228939
0.16290682
0.1634679
0.16396786
0.16440116
0.16476141
0.16504142
0.16523342
0.16532554
0.16532022
0.16520446
0.16494978
0.16456471
0.164051
0.16341976
0.16270493
0.16196981
0.16130037
0.16077113
0.16040053
0.16015565
0.1599888
0.15986083
0.15975185
0.15964908
0.15954941
0.15945214
0.15935413
0.15925696
0.15915727
0.15905536
0.15895403
0.15885297
0.15875082
0.15864679
0.15854362
0.15844166
0.15833795
0.15823308
0.15812937
0.15802565
0.1579218
0.15781835
0.15771426
0.15761085
0.15750745
0.15740362
0.15729946
0.15719489
0.15709021
0.15698532
0.1568805
0.15677579
0.15667117
0.15656717
0.15646361
0.15636053
0.15625826
0.15615654
0.15605552
0.15595517
0.15585532
0.15575623
0.15565772
0.15555983
0.15546293
0.1553669
0.15527184
0.15517772
0.15508463
0.15499261
0.15490172
0.15481205
0.1547236
0.15463643
0.15455063
0.1544663
0.15438349
0.15430228
0.15422275
0.15414503
0.1540692
0.15399535
0.1539236
0.15385402
0.1537867
0.15372187
0.1536598
0.15360078
0.15354509
0.1534933
0.15344573
0.15340354
0.15336617
0.15333604
0.153311
0.15329507
0.15328507
0.12570612
0.12743608
0.12916703
0.13086329
0.13252423
0.13414841
0.13573527
0.13728435
0.13879533
0.14026809
0.14170262
0.14309907
0.14445765
0.14577861
0.14706221
0.14830863
0.14951803
0.15069043
0.15182576
0.15292383
0.15398431
0.15500675
0.15599051
0.15693477
0.15783838
0.15869984
0.15951738
0.1602891
0.16101262
0.16168498
0.16230257
0.16286113
0.16335566
0.16378035
0.16412855
0.16439271
0.16456434
0.16463458
0.16460533
0.16445544
0.16416659
0.16374986
0.16320919
0.16256495
0.16186361
0.16118024
0.16059845
0.16016945
0.15988467
0.15970115
0.15957496
0.15947485
0.15938724
0.15930231
0.15921862
0.15913621
0.15905184
0.15896787
0.15888078
0.15879038
0.15870024
0.15861003
0.15851807
0.15842354
0.15832948
0.1582364
0.15814112
0.15804411
0.15794815
0.15785183
0.15775486
0.15765821
0.15756052
0.15746322
0.1573658
0.15726769
0.15716901
0.15706964
0.15696998
0.15686991
0.15676968
0.15666942
0.15656906
0.15646915
0.15636956
0.15627029
0.15617171
0.15607355
0.15597595
0.15587893
0.15578227
0.15568626
0.15559072
0.15549564
0.15540147
0.15530807
0.15521554
0.15512387
0.15503314
0.1549434
0.1548547
0.15476716
0.15468076
0.15459557
0.15451166
0.15442914
0.15434806
0.15426851
0.15419055
0.15411434
0.15403994
0.15396745
0.15389698
0.15382859
0.1537624
0.15369862
0.15363752
0.1535794
0.15352453
0.15347347
0.15342655
0.15338495
0.15334808
0.15331842
0.15329372
0.15327803
0.15326831
0.124925
0.12663834
0.1283534
0.1300377
0.13169053
0.1333102
0.13489584
0.13644667
0.13796207
0.13944154
0.14088474
0.14229148
0.14366162
0.14499511
0.1462919
0.14755195
0.14877516
0.14996136
0.15111032
0.15222166
0.15329491
0.15432945
0.15532447
0.15627897
0.15719165
0.15806083
0.15888454
0.15966066
0.16038661
0.16105919
0.16167455
0.1622282
0.16271484
0.1631284
0.16346197
0.16370772
0.16385584
0.16390186
0.16384557
0.16365904
0.16333607
0.16288876
0.16232663
0.1616811
0.16101218
0.16040203
0.15992081
0.15959066
0.15938267
0.15925189
0.15916057
0.15908541
0.15901792
0.15895048
0.15888272
0.15881516
0.15874448
0.15867375
0.15859949
0.15852072
0.15844186
0.15836266
0.15828103
0.15819611
0.15811127
0.15802718
0.15794048
0.15785142
0.15776335
0.15767458
0.15758457
0.15749482
0.15740366
0.15731257
0.15722121
0.15712893
0.15703582
0.15694173
0.15684719
0.15675204
0.15665647
0.15656076
0.15646475
0.156369
0.15627346
0.15617807
0.15608325
0.15598873
0.15589464
0.15580101
0.15570761
0.15561476
0.15552227
0.15543007
0.15533869
0.15524798
0.15515803
0.15506887
0.15498058
0.15489318
0.15480673
0.15472136
0.15463707
0.15455392
0.15447196
0.1543913
0.15431201
0.15423416
0.15415783
0.15408317
0.15401025
0.15393916
0.15387
0.15380285
0.15373782
0.15367513
0.15361504
0.15355786
0.15350383
0.15345354
0.15340729
0.15336629
0.15332994
0.15330077
0.15327641
0.153261
0.15325151
0.12425692
0.12594687
0.12763973
0.12930577
0.13094412
0.13255291
0.13413096
0.13567724
0.1371908
0.13867086
0.14011678
0.14152803
0.14290419
0.14424491
0.14554989
0.14681881
0.14805136
0.14924716
0.15040577
0.15152664
0.1526091
0.15365236
0.15465544
0.15561713
0.15653593
0.15740998
0.15823711
0.15901495
0.15974068
0.16041085
0.16102135
0.16156739
0.16204341
0.16244301
0.16275902
0.16298337
0.16310472
0.1631246
0.16303803
0.16281287
0.16245651
0.1619819
0.1614074
0.1607771
0.16016325
0.15964617
0.15927159
0.1590333
0.15889188
0.15880594
0.1587445
0.15869205
0.15864371
0.15859361
0.15854193
0.15848913
0.15843217
0.15837464
0.15831343
0.15824645
0.15817892
0.1581109
0.15803974
0.15796451
0.15788896
0.15781398
0.15773603
0.15765501
0.15757493
0.15749387
0.15741091
0.15732815
0.15724366
0.15715887
0.15707367
0.15698732
0.15689988
0.15681114
0.15672182
0.15663167
0.15654084
0.15644976
0.15635819
0.15626669
0.15617528
0.15608384
0.15599286
0.15590206
0.15581154
0.15572138
0.15563131
0.1555417
0.15545233
0.15536308
0.15527456
0.15518661
0.15509931
0.15501272
0.15492692
0.15484192
0.15475778
0.15467466
0.15459253
0.15451147
0.15443152
0.15435278
0.15427533
0.15419923
0.15412458
0.15405151
0.15398012
0.15391048
0.15384267
0.1537768
0.15371297
0.15365141
0.15359237
0.15353615
0.15348301
0.1534335
0.15338797
0.15334758
0.15331178
0.15328311
0.15325908
0.15324398
0.15323468
0.1236937
0.1253548
0.12702019
0.12866255
0.1302809
0.13187318
0.13343798
0.13497398
0.13648002
0.13795502
0.13939808
0.1408084
0.1421853
0.14352817
0.14483644
0.14610957
0.14734702
0.1485482
0.14971244
0.15083902
0.15192706
0.15297557
0.15398336
0.15494903
0.15587085
0.15674676
0.15757435
0.158351
0.15907363
0.1597385
0.16034122
0.1608767
0.16133904
0.16172152
0.16201662
0.16221579
0.16230875
0.16230095
0.16217838
0.16191429
0.16152722
0.16103199
0.160459
0.15986562
0.15933098
0.15892129
0.15865151
0.15849456
0.15840997
0.15836159
0.15832572
0.15829435
0.15826437
0.15823179
0.15819664
0.15815832
0.158115
0.15807061
0.15802263
0.15796769
0.15791148
0.15785476
0.15779423
0.15772878
0.15766258
0.15759681
0.15752777
0.15745489
0.15738288
0.15730969
0.15723389
0.15715818
0.15708051
0.1570021
0.15692314
0.15684282
0.15676114
0.15667784
0.15659381
0.15650878
0.15642276
0.1563364
0.15624935
0.15616218
0.15607498
0.15598758
0.15590051
0.15581349
0.15572663
0.15564
0.15555335
0.15546703
0.15538087
0.15529465
0.15520906
0.15512393
0.15503934
0.15495538
0.15487214
0.1547896
0.15470784
0.15462702
0.15454711
0.15446821
0.15439032
0.15431356
0.154238
0.15416371
0.15409079
0.15401937
0.15394955
0.1538814
0.153815
0.15375044
0.15368785
0.15362746
0.15356951
0.15351429
0.15346207
0.15341338
0.15336857
0.15332883
0.15329359
0.15326543
0.15324175
0.15322702
0.15321786
0.12322785
0.12485554
0.12648898
0.12810303
0.12969659
0.13126742
0.13281389
0.13433448
0.13582778
0.1372925
0.13872751
0.14013179
0.1415044
0.14284452
0.14415135
0.14542413
0.1466621
0.14786444
0.1490303
0.15015872
0.15124863
0.15229881
0.15330786
0.15427415
0.15519573
0.15607028
0.15689518
0.15766751
0.15838389
0.1590403
0.15963204
0.16015368
0.16059901
0.160961
0.16123173
0.16140149
0.16146487
0.16142692
0.16126291
0.16096248
0.16054965
0.16004511
0.15949337
0.1589627
0.15852881
0.15823195
0.15805821
0.15797161
0.15793513
0.15791681
0.15790324
0.15789208
0.15787971
0.15786527
0.15784738
0.15782291
0.15779311
0.15776177
0.15772699
0.15768457
0.15763963
0.15759421
0.15754449
0.15748896
0.15743214
0.15737567
0.15731574
0.15725108
0.15718717
0.15712202
0.15705348
0.15698489
0.15691419
0.15684225
0.1567696
0.15669541
0.1566196
0.15654181
0.15646316
0.15638333
0.15630221
0.15622065
0.15613821
0.15605545
0.15597253
0.15588924
0.15580617
0.15572301
0.15563987
0.15555686
0.15547368
0.15539075
0.15530788
0.15522475
0.15514217
0.15505993
0.1549781
0.15489684
0.15481622
0.15473621
0.15465689
0.15457844
0.15450082
0.15442412
0.15434836
0.15427363
0.15420002
0.15412759
0.15405645
0.15398674
0.15391854
0.15385193
0.15378697
0.15372378
0.15366247
0.15360328
0.15354646
0.15349229
0.15344102
0.15339317
0.15334912
0.15331005
0.1532754
0.15324775
0.1532244
0.15321013
0.15320111
0.12285195
0.12444243
0.12604019
0.12762203
0.12918668
0.13073175
0.13225541
0.13375594
0.13523174
0.13668137
0.13810348
0.13949687
0.14086043
0.14219311
0.14349393
0.14476191
0.14599608
0.14719543
0.14835887
0.14948524
0.15057324
0.15162143
0.15262817
0.15359159
0.15450949
0.1553793
0.15619812
0.15696275
0.15766948
0.15831397
0.15889121
0.15939543
0.15982009
0.16015788
0.16040064
0.16053717
0.16056922
0.16049725
0.16029055
0.15995846
0.15952849
0.159032
0.15852722
0.15808588
0.15776669
0.1575784
0.15748835
0.15746274
0.1574641
0.15746883
0.15747665
0.15748563
0.15749013
0.15749476
0.15749387
0.15748254
0.1574669
0.15744836
0.15742622
0.15739741
0.15736363
0.15732918
0.15729046
0.15724512
0.15719768
0.15715058
0.15709993
0.15704361
0.1569878
0.15693084
0.1568697
0.15680825
0.15674468
0.1566793
0.15661304
0.15654507
0.15647522
0.15640301
0.15632982
0.1562553
0.15617915
0.15610248
0.15602474
0.15594646
0.15586792
0.15578881
0.15570981
0.15563058
0.15555125
0.15547193
0.15539229
0.1553128
0.15523331
0.15515337
0.15507385
0.15499458
0.15491558
0.15483708
0.15475915
0.15468174
0.15460492
0.15452889
0.15445362
0.1543792
0.15430562
0.15423298
0.15416138
0.15409087
0.15402157
0.15395361
0.15388708
0.15382206
0.15375859
0.15369681
0.15363682
0.15357889
0.15352324
0.15347014
0.15341985
0.15337288
0.15332963
0.15329124
0.1532572
0.15323009
0.15320705
0.15319334
0.15318441
0.12255811
0.1241085
0.12566774
0.12721423
0.12874653
0.13026212
0.13175897
0.13323524
0.13468919
0.13611923
0.13752391
0.13890186
0.14025182
0.14157258
0.14286297
0.14412183
0.14534798
0.14654021
0.14769722
0.14881762
0.1498999
0.15094235
0.15194311
0.15290002
0.15381063
0.15467212
0.15548126
0.15623454
0.15692792
0.15755674
0.15811564
0.15859851
0.15899852
0.15930797
0.15951837
0.15961989
0.15961933
0.15950805
0.15926069
0.15890544
0.15847328
0.15800923
0.15758085
0.15725082
0.15704952
0.15695846
0.15694166
0.156961
0.1569889
0.15701799
0.15704784
0.15707625
0.15709826
0.15711984
0.15713311
0.15713717
0.15713796
0.15713045
0.15712024
0.15710664
0.15708404
0.15705945
0.15703194
0.15699742
0.15695933
0.1569215
0.15688035
0.15683255
0.15678476
0.15673613
0.15668256
0.15662827
0.15657199
0.15651326
0.15645343
0.15639177
0.15632798
0.15626143
0.15619378
0.15612466
0.15605357
0.15598186
0.15590891
0.1558352
0.1557611
0.15568626
0.1556114
0.15553619
0.15546074
0.15538517
0.15530915
0.15523317
0.15515714
0.15508047
0.15500408
0.15492785
0.15485176
0.15477608
0.1547009
0.15462616
0.15455191
0.15447837
0.15440552
0.15433343
0.1542621
0.15419161
0.15412207
0.15405354
0.15398613
0.15391997
0.15385517
0.15379179
0.15372987
0.15366953
0.15361092
0.15355427
0.15349983
0.15344785
0.15339858
0.15335252
0.1533101
0.15327242
0.15323901
0.15321244
0.15318972
0.15317665
0.15316766
0.12233857
0.12384737
0.12536601
0.12687459
0.1283716
0.12985438
0.1313208