/*--------------------------------*- C++ -*----------------------------------*\
| =========                 |                                                 |
| \\      /  F ield         | OpenFOAM: The Open Source CFD Toolbox           |
|  \\    /   O peration     | Version:  2406                                  |
|   \\  /    A nd           | Website:  www.openfoam.com                      |
|    \\/     M anipulation  |                                                 |
\*---------------------------------------------------------------------------*/
FoamFile
{
    version     2.0;
    format      ascii;
    arch        "LSB;label=32;scalar=64";
    class       surfaceScalarField;
    location    "0.03";
    object      phi;
}
// * * * * * * * * * * * * * * * * * * * * * * * * * * * * * * * * * * * * * //

dimensions      [1 0 -1 0 0 0 0];

oriented        oriented;

internalField   nonuniform List<scalar> 
16284
(
0.012623304
-0.018129996
0.019023602
-0.013516618
0.012143399
-0.021814151
0.022294499
0.011431182
-0.025258356
0.025971358
0.010353216
-0.029332148
0.030411013
0.0093049055
-0.034102768
0.035151887
0.0083339092
-0.039300699
0.040273116
0.0074863123
-0.045296563
0.046146424
0.0065985855
-0.051668957
0.052557928
0.0057730283
-0.058846931
0.059673927
0.0050164953
-0.066796853
0.067554343
0.0043982469
-0.075763935
0.076383083
0.0038146202
-0.085770154
0.086354399
0.0032965817
-0.096721378
0.097239501
0.002852755
-0.10849871
0.10894314
0.0024405574
-0.12178465
0.12219836
0.0020947088
-0.13740352
0.1377504
0.0018029576
-0.15500307
0.15529557
0.0015698536
-0.17465744
0.17489266
0.0013265015
-0.1973287
0.19757448
0.0011134669
-0.22276723
0.22298271
0.00095943331
-0.25160694
0.25176288
0.00078369664
-0.28388468
0.28406197
0.00062962882
-0.32028908
0.32044551
0.00050928245
-0.3615168
0.36163733
0.00040773461
-0.40827884
0.40838637
0.00031741046
-0.46129371
0.46141364
0.00021623623
-0.5215205
0.52162608
0.00012784878
-0.59063588
0.59073143
4.4129097e-05
-0.66928743
0.66939633
-2.4822859e-05
-0.75806466
0.75816223
-0.84651723
0.8465745
0.012272706
-0.017357274
-0.013045171
0.011462336
-0.021003178
0.010891087
-0.024686321
0.010299526
-0.028739883
0.0095267253
-0.033329179
0.0087875984
-0.038559529
0.007886248
-0.044393229
0.0069677498
-0.050749642
0.0061516379
-0.058029322
0.0053548586
-0.065998584
0.0047035134
-0.075111741
0.004305295
-0.085371649
0.0037003418
-0.096116366
0.0032052943
-0.10800293
0.0027633378
-0.12134104
0.002406933
-0.13704604
0.0021042982
-0.15469945
0.001838642
-0.17438938
0.0015621661
-0.19704935
0.0012810796
-0.22248339
0.0010927523
-0.25141641
0.0008952666
-0.28368553
0.00072091333
-0.32011336
0.00058274819
-0.36137629
0.00046551731
-0.40815506
0.00036471789
-0.46115216
0.00023627116
-0.52138865
0.00013982335
-0.59053019
5.123474e-05
-0.66917196
-2.8179665e-05
-0.75795184
-0.84645531
0.014913707
-0.017188026
-0.015082797
0.014230909
-0.020319816
0.01355602
-0.024010803
0.012702628
-0.027885224
0.011633256
-0.03225836
0.010505528
-0.0374301
0.0094924432
-0.043378667
0.0084915542
-0.049747429
0.0074354105
-0.056971707
0.0064152836
-0.064976912
0.005597598
-0.074293308
0.0048641394
-0.084638322
0.0043712056
-0.095623549
0.003787331
-0.1074182
0.0032804936
-0.12083262
0.0028255647
-0.13658966
0.00244182
-0.15431391
0.00211354
-0.17405862
0.0017770041
-0.19670935
0.001484926
-0.2221882
0.0012473104
-0.25117602
0.0010448457
-0.28348112
0.00083437704
-0.31990129
0.00067484712
-0.36121165
0.00053846024
-0.40801175
0.00042008468
-0.46099287
0.00027509755
-0.5212439
0.00016101031
-0.59040881
5.8595423e-05
-0.66904503
-3.1799149e-05
-0.75782276
-0.84643853
0.014119625
-0.016556784
-0.014750618
0.013248381
-0.019448128
0.012217123
-0.02297835
0.011428856
-0.027095276
0.010940489
-0.031768128
0.010531851
-0.037019942
0.0097160657
-0.04256127
0.0087668342
-0.04879647
0.0078949656
-0.056098208
0.0069224332
-0.064003613
0.0060467932
-0.073417651
0.0052729281
-0.083865552
0.0045362479
-0.094886718
0.0040734152
-0.1069539
0.003557524
-0.12031501
0.0031007359
-0.13613121
0.0027315699
-0.15394225
0.0024084234
-0.17373288
0.0020584011
-0.19635546
0.0016921007
-0.22181853
0.0013851097
-0.25086624
0.0011546524
-0.28324841
0.00092697413
-0.31966907
0.00074849233
-0.36102473
0.00059816084
-0.40785408
0.00046891059
-0.46084696
0.00030815422
-0.52108813
0.00018021948
-0.59027205
6.5997647e-05
-0.66890708
-3.6431823e-05
-0.75767542
-0.84626391
0.016300974
-0.016523655
-0.016334278
0.016208639
-0.019355626
0.016029851
-0.022798684
0.015591427
-0.026655702
0.014529824
-0.030704897
0.012980014
-0.035468627
0.011707827
-0.041288379
0.010639612
-0.047728158
0.0095135998
-0.054971564
0.0084115579
-0.062902575
0.0073266743
-0.072332788
0.0063661699
-0.082905779
0.005467448
-0.093987192
0.0047155375
-0.10619985
0.0042754329
-0.11987308
0.0037000184
-0.13555351
0.0032084467
-0.15344725
0.0027845085
-0.17330575
0.0023301493
-0.19589689
0.001974617
-0.22145948
0.0016843464
-0.25057421
0.0013596596
-0.28292138
0.0010879349
-0.31939217
0.00087769912
-0.36080227
0.00070015703
-0.40766799
0.00054420499
-0.46068645
0.00035661117
-0.52090273
0.00020825587
-0.59010758
7.5861427e-05
-0.66874942
-4.1071226e-05
-0.75750619
-0.84605563
0.01533106
-0.015940792
-0.015914177
0.014640917
-0.018665611
0.013720273
-0.021879052
0.01263869
-0.025575086
0.011900882
-0.029967399
0.011647398
-0.035215554
0.011204097
-0.040845781
0.010465202
-0.046988039
0.009514535
-0.054021709
0.0086741205
-0.062064088
0.007749595
-0.071407019
0.0067039188
-0.081859197
0.0057559351
-0.093037241
0.0049591867
-0.10539955
0.0044145375
-0.11932638
0.0039978691
-0.13513451
0.0035345889
-0.15297997
0.0031705047
-0.17293837
0.0026904899
-0.19541205
0.0022372975
-0.22100263
0.0018475666
-0.25018307
0.0014958373
-0.28256721
0.0012028713
-0.31909291
0.00097089737
-0.36055361
0.0007797709
-0.40746707
0.00060083462
-0.46050171
0.00040105423
-0.52069018
0.00023434671
-0.58991662
8.395516e-05
-0.66857273
-4.6367598e-05
-0.75731452
-0.84618931
0.016701791
-0.016061527
-0.016581348
0.016860297
-0.018823794
0.017042645
-0.022061931
0.017190775
-0.025724742
0.016896649
-0.029674232
0.015910124
-0.034229844
0.014500833
-0.039438202
0.013063025
-0.045549472
0.011837045
-0.052793679
0.010582752
-0.0608068
0.009403768
-0.070225458
0.0082315823
-0.080685093
0.0070778256
-0.091880672
0.0060978773
-0.10441649
0.0053951079
-0.11862246
0.004737156
-0.13447397
0.0042215104
-0.15246107
0.0036640607
-0.17237743
0.0030430778
-0.19478572
0.0025947886
-0.22055055
0.0021939145
-0.24978021
0.0017722005
-0.28214302
0.0014211563
-0.31873158
0.0011295302
-0.36024252
0.00090933899
-0.40723569
0.00068870344
-0.46022085
0.00046183395
-0.52044424
0.00027249814
-0.58969342
9.6880018e-05
-0.66836655
-5.4048563e-05
-0.7570908
-0.84632214
0.015826071
-0.015778171
-0.016111223
0.015240012
-0.018238286
0.01431547
-0.021136045
0.013285683
-0.024693386
0.012409675
-0.028797132
0.011820073
-0.033638112
0.011616554
-0.039232194
0.011299825
-0.045227403
0.010682068
-0.052170343
0.010065795
-0.060189132
0.0091699454
-0.069328303
0.0081314622
-0.079644986
0.0071429344
-0.090890824
0.0063487288
-0.10362006
0.0056525763
-0.11792615
0.0049782946
-0.13379734
0.0044410786
-0.15192219
0.0040787609
-0.17201197
0.0035188015
-0.19422104
0.0029188728
-0.21994744
0.0023773562
-0.24923716
0.0019304579
-0.28169387
0.001559696
-0.31835125
0.0012541152
-0.3599153
0.0009980815
-0.40696762
0.00076723177
-0.45987296
0.00051866011
-0.52017317
0.00030549343
-0.58943573
0.0001051808
-0.6681286
-6.350687e-05
-0.75683591
-0.84598031
0.01622717
-0.015959283
-0.01604789
0.016567622
-0.01858057
0.016986596
-0.021555072
0.017286885
-0.024992242
0.017330196
-0.028838447
0.016959221
-0.033264366
0.016049606
-0.038318743
0.015134439
-0.04430956
0.014171172
-0.051207748
0.013090211
-0.059110757
0.011821624
-0.068059489
0.010319635
-0.078141244
0.0090753649
-0.089646419
0.0079410856
-0.10248303
0.0069348839
-0.11691927
0.0061782178
-0.1330392
0.0054021346
-0.1511458
0.0046121094
-0.17121907
0.0039447818
-0.19355031
0.0033768114
-0.21937754
0.0028390489
-0.24869845
0.0022877049
-0.28114054
0.0018588493
-0.31791631
0.0014847992
-0.35951953
0.0011618359
-0.40663185
0.00087891417
-0.45962184
0.00060105505
-0.51981934
0.0003558534
-0.58912926
0.00011921302
-0.66784431
-7.0606645e-05
-0.75654539
-0.84561635
0.015917315
-0.015850468
-0.016025539
0.015584114
-0.018248148
0.015136018
-0.021110368
0.014408478
-0.02426904
0.013428639
-0.027859451
0.012510484
-0.032345667
0.012160335
-0.037970327
0.012108652
-0.044263496
0.011972708
-0.051076864
0.011500025
-0.05863947
0.010644655
-0.067201101
0.0096021355
-0.077095446
0.0087098077
-0.088750677
0.0080387589
-0.10180968
0.0071554287
-0.11603413
0.0062678398
-0.13214979
0.0056225433
-0.15050074
0.005038524
-0.17063289
0.0044782936
-0.19298749
0.003768709
-0.21866619
0.0030234739
-0.24795275
0.0024722303
-0.28058796
0.0020022755
-0.31744148
0.0016260179
-0.35912465
0.0012973299
-0.40629034
0.00096688839
-0.45939554
0.00067828238
-0.5192356
0.00039850497
-0.58878565
0.00012910631
-0.6675113
-7.9326436e-05
-0.75622239
-0.84580448
0.016285712
-0.016154958
-0.015982452
0.016518284
-0.018479987
0.016641511
-0.021233176
0.017166681
-0.024795758
0.018166594
-0.028863049
0.018908402
-0.033089472
0.018851476
-0.037916799
0.018000002
-0.043416073
0.016636069
-0.049712823
0.015332371
-0.057331744
0.014028918
-0.065892126
0.01283982
-0.075902915
0.011733305
-0.087642291
0.010397237
-0.1004715
0.0092687714
-0.11490483
0.0081096951
-0.13098842
0.0068957002
-0.1492852
0.0058061467
-0.16954116
0.0049490669
-0.19212766
0.0042879498
-0.21800241
0.0036366173
-0.2473019
0.0030160096
-0.27996694
0.0024190449
-0.31683856
0.0019325828
-0.35861867
0.001528284
-0.40587235
0.0011050851
-0.45902493
0.00078150607
-0.51847396
0.00046360601
-0.58840354
0.00014759219
-0.66711221
-9.3886186e-05
-0.75585266
-0.8453895
0.015294867
-0.01631645
-0.015134917
0.01554309
-0.018732265
0.015592682
-0.021284306
0.015084538
-0.024287455
0.014131437
-0.027911984
0.013184394
-0.032144151
0.012415333
-0.037146374
0.011726951
-0.042724212
0.011453258
-0.049434715
0.011424232
-0.057299565
0.011433704
-0.065899885
0.011052183
-0.075521103
0.010437235
-0.087027102
0.0098451477
-0.099879469
0.0090850865
-0.1141461
0.0080094139
-0.12991131
0.0069194626
-0.14819152
0.0062203137
-0.16883991
0.0056226388
-0.19152922
0.004700306
-0.21707981
0.0038397225
-0.24644331
0.0032185564
-0.27934663
0.0026261113
-0.31623889
0.0021319517
-0.35810119
0.0016889103
-0.40541346
0.0012014169
-0.4585708
0.00085580786
-0.51799958
0.0005074935
-0.58792263
0.00015391057
-0.66665317
-0.00010866272
-0.75544751
-0.84490497
0.014918502
-0.016583001
-0.01465265
0.015170095
-0.018984592
0.015634227
-0.021750665
0.016128328
-0.024782923
0.016594063
-0.028379287
0.016989629
-0.032539392
0.017260548
-0.037410677
0.017753268
-0.043215854
0.018148143
-0.049834102
0.017876771
-0.057031444
0.017237129
-0.065263308
0.016460721
-0.074747074
0.015294913
-0.085862756
0.013895703
-0.098482619
0.012295544
-0.11254599
0.010733118
-0.1283496
0.0089751019
-0.14643109
0.0074362322
-0.16730085
0.0064157197
-0.19051098
0.0056198393
-0.21628787
0.0046756845
-0.24550324
0.0038990743
-0.278572
0.0031938753
-0.3155266
0.0025677287
-0.35745176
0.0019942433
-0.40482144
0.0014424413
-0.45805215
0.00099188865
-0.5177924
0.0005915521
-0.58729853
0.00017596793
-0.66610954
-0.00012569231
-0.75498814
-0.84445251
0.014404101
-0.016775512
-0.014213486
0.014568939
-0.019150648
0.014705602
-0.021888594
0.014923716
-0.025002876
0.015111159
-0.028567978
0.015235945
-0.032669268
0.015087858
-0.037270943
0.014516562
-0.042646666
0.013437276
-0.048756588
0.012509018
-0.056108295
0.012032153
-0.064791024
0.011561156
-0.074280429
0.011037201
-0.085344289
0.010728902
-0.098178891
0.010023111
-0.11184021
0.0092657189
-0.1275927
0.00866995
-0.14583448
0.0079450447
-0.16658014
0.0069794991
-0.18955381
0.0058997395
-0.21521796
0.0048751562
-0.24448648
0.0040928632
-0.27779264
0.0034073057
-0.31483537
0.0027839058
-0.3568061
0.002147852
-0.40416056
0.0015564631
-0.45748531
0.0010911412
-0.51761927
0.00064624168
-0.58674353
0.0001838272
-0.66552487
-0.00014251991
-0.75449158
-0.84430499
0.013941885
-0.017016072
-0.013703571
0.014153825
-0.01936507
0.014337769
-0.022074981
0.014570294
-0.025238381
0.014822958
-0.028822643
0.015109691
-0.032958347
0.015567973
-0.037735703
0.016092844
-0.043180563
0.01698365
-0.049654177
0.017731339
-0.056865668
0.018205212
-0.065275575
0.018269813
-0.074354938
0.017368395
-0.08445069
0.015605578
-0.096423109
0.013761585
-0.11000025
0.011935448
-0.12576935
0.010266812
-0.14416773
0.0087757245
-0.16509734
0.0078456809
-0.18863958
0.0072025328
-0.21459116
0.0060607266
-0.24335278
0.0049853872
-0.27671934
0.0041240622
-0.31396991
0.0033327985
-0.35598827
0.0025855312
-0.40336943
0.0018538478
-0.45675128
0.0012850324
-0.51719387
0.00072937076
-0.5862831
0.000214742
-0.66493322
-0.00016716207
-0.75392569
-0.84372982
0.013118639
-0.017207996
-0.012931215
0.013365198
-0.01961669
0.01362141
-0.02233697
0.01379421
-0.025417816
0.013881174
-0.028917439
0.013926969
-0.033011377
0.01379513
-0.037609498
0.013510404
-0.042901407
0.01270514
-0.048854931
0.011703611
-0.055868048
0.010380291
-0.063960509
0.00935775
-0.073340601
0.0089500653
-0.084048139
0.0090522567
-0.096534068
0.0096394083
-0.11059942
0.01030191
-0.12645122
0.010201375
-0.14408409
0.0091855949
-0.16409159
0.007843465
-0.18731293
0.0068577073
-0.21362261
0.0060275633
-0.24253178
0.0050151964
-0.2757091
0.0042585014
-0.31321105
0.0035030362
-0.3552037
0.0027550918
-0.40254811
0.0019924033
-0.45594341
0.0014178868
-0.51663827
0.00078925801
-0.58577727
0.00022407185
-0.66432901
-0.00019460437
-0.75331165
-0.84301394
0.012536711
-0.017457099
-0.01229318
0.01274966
-0.019835952
0.0129636
-0.022557831
0.013217298
-0.025678952
0.013557557
-0.029266088
0.013814545
-0.033277612
0.014116828
-0.037920929
0.014458172
-0.043251963
0.014812301
-0.049216886
0.014989294
-0.056049427
0.015173704
-0.06414974
0.015405003
-0.073574637
0.015341243
-0.083996074
0.014711504
-0.095923841
0.013193055
-0.10909921
0.011443944
-0.12471695
0.010794053
-0.1434596
0.010549382
-0.16387387
0.0095673432
-0.18635354
0.0083924248
-0.21246684
0.0075878576
-0.24173914
0.006432859
-0.27455747
0.0053374801
-0.31211506
0.0043625914
-0.35421008
0.0033941524
-0.40150097
0.0024375354
-0.45491138
0.0016929686
-0.51586155
0.00092608188
-0.5850501
0.0002725741
-0.66362944
-0.0002171616
-0.75260811
-0.8423913
0.012221309
-0.017625367
-0.01205945
0.012409224
-0.020030919
0.012602257
-0.022759019
0.012783282
-0.025869278
0.012934207
-0.029427131
0.01316648
-0.033521336
0.013329044
-0.038096413
0.013428774
-0.043365928
0.013592544
-0.049397438
0.013827327
-0.056301274
0.013603264
-0.063940121
0.013246202
-0.073239791
0.0127074
-0.08347413
0.011835935
-0.095061603
0.012353634
-0.10963431
0.01265159
-0.12502886
0.011293114
-0.14211544
0.0097210947
-0.16232263
0.008866529
-0.18552268
0.0079350781
-0.21155434
0.0071576988
-0.24096968
0.006371182
-0.27377015
0.0054873196
-0.3112295
0.0044822392
-0.3532029
0.0034971136
-0.40047501
0.0026409188
-0.45399682
0.0018505799
-0.51504598
0.00099001045
-0.58417313
0.00029549746
-0.66286365
-0.00023865212
-0.75182406
-0.84185437
0.012022339
-0.017798631
-0.011856184
0.012183844
-0.020200451
0.012380479
-0.02296454
0.012617747
-0.026116433
0.01285359
-0.029674255
0.013044483
-0.033724684
0.013315091
-0.038380751
0.013591179
-0.043656126
0.013854339
-0.049675422
0.01406912
-0.056534092
0.014564753
-0.064456035
0.014847789
-0.073543333
0.015551661
-0.084199828
0.016403185
-0.095932788
0.015672036
-0.10892511
0.014832223
-0.12421455
0.014490149
-0.14179579
0.013921702
-0.16177023
0.012785848
-0.18439947
0.011335601
-0.21011305
0.0097863047
-0.2394194
0.0082306196
-0.27220484
0.0067654517
-0.30975892
0.0053504063
-0.35179265
0.0040907717
-0.39921786
0.0030683599
-0.45295152
0.0021243694
-0.51409584
0.0011546866
-0.58317043
0.00036729707
-0.66199759
-0.00025010999
-0.75092448
-0.84152413
0.01124379
-0.017930227
-0.011119308
0.011401421
-0.020366094
0.011561195
-0.023133365
0.011695651
-0.02626094
0.011840488
-0.029830021
0.012004839
-0.033901249
0.012144393
-0.038534104
0.012276497
-0.043804219
0.012395336
-0.049811867
0.012596205
-0.056753271
0.012720489
-0.064598725
0.012587418
-0.073428799
0.011861163
-0.083494235
0.011192037
-0.095284627
0.01117605
-0.10892924
0.011167691
-0.12422799
0.01103282
-0.14168177
0.010593755
-0.16134739
0.0098987377
-0.18370992
0.0087282256
-0.20894344
0.007483131
-0.23817667
0.0068400919
-0.2715645
0.0058906126
-0.30880831
0.0051696877
-0.35107664
0.0042572356
-0.39831078
0.0032687511
-0.45193035
0.0023238091
-0.51313834
0.0012680629
-0.5820947
0.00040967898
-0.66106251
-0.00029936622
-0.74993857
-0.84084685
0.010632425
-0.018072334
-0.010497946
0.010771383
-0.020513498
0.01092455
-0.023295849
0.011121184
-0.026468006
0.011358549
-0.030079009
0.011618325
-0.034173776
0.011927177
-0.038856977
0.012306339
-0.044198814
0.012692718
-0.050214658
0.012989578
-0.057067942
0.013253522
-0.064881426
0.013401605
-0.073595132
0.01370469
-0.083816798
0.013796241
-0.095394994
0.013496952
-0.10864585
0.013042016
-0.12378996
0.012293193
-0.14095133
0.011542181
-0.16061825
0.010970386
-0.18316123
0.010359595
-0.20834975
0.0095116565
-0.23735122
0.0086270601
-0.2707082
0.0073216362
-0.30752709
0.0061046915
-0.34988878
0.0049042368
-0.39712045
0.0036628756
-0.45062567
0.0025620107
-0.51193007
0.0014997035
-0.58097032
0.00044838679
-0.65990608
-0.000437291
-0.74882278
-0.83982106
0.0097907043
-0.018159988
-0.0097118277
0.0098794261
-0.020612031
0.0099714946
-0.023398876
0.01006191
-0.026570634
0.010150385
-0.030181196
0.010247523
-0.034286184
0.010317646
-0.038944001
0.010286687
-0.044186049
0.010285478
-0.050233652
0.010267675
-0.057072389
0.010221808
-0.06486012
0.010466783
-0.073868833
0.010649399
-0.084028715
0.010863857
-0.095642674
0.011057587
-0.10887584
0.010858008
-0.12362008
0.010629043
-0.14075139
0.010555616
-0.1605756
0.010534146
-0.18317665
0.01056441
-0.20842307
0.0096991391
-0.23653023
0.0079574649
-0.26900821
0.0067074687
-0.3063307
0.0055160394
-0.34876779
0.0045839381
-0.39624398
0.0036103562
-0.44962664
0.0027297332
-0.51086388
0.0016433421
-0.57960852
0.00040218119
-0.65842035
-0.00063398799
-0.74763991
-0.83807687
0.010239888
-0.0183004
-0.010109969
0.010393761
-0.020777773
0.010582944
-0.023601493
0.010805573
-0.026808446
0.011052417
-0.030444981
0.011326688
-0.034579489
0.011627352
-0.039265957
0.012032222
-0.044614881
0.012444791
-0.05067302
0.012894253
-0.057551128
0.013416615
-0.065414956
0.013720713
-0.074207976
0.01389284
-0.084239003
0.013847344
-0.095636742
0.0135095
-0.10857845
0.013261622
-0.12341348
0.01291904
-0.14045018
0.012307054
-0.16000347
0.011356328
-0.18227225
0.010483846
-0.20760544
0.010267966
-0.23637106
0.010061474
-0.26885548
0.0091069017
-0.30543733
0.0075539321
-0.34728214
0.0059827235
-0.39472979
0.0045886968
-0.44825451
0.0032696743
-0.50947781
0.0019174548
-0.57807227
0.00032759339
-0.65663027
-0.00081261116
-0.74642598
-0.83725455
0.0083625214
-0.018432422
-0.0082404946
0.0085010329
-0.020927582
0.0086459236
-0.023759164
0.008797891
-0.026974807
0.0089622784
-0.030625575
0.009135102
-0.034770479
0.0093181572
-0.039469404
0.0094460865
-0.044765729
0.0095652708
-0.050817756
0.0096886919
-0.057703112
0.0097277624
-0.065485358
0.0098588842
-0.074372573
0.01014706
-0.084562267
0.010550559
-0.096076082
0.010994213
-0.10905802
0.011439635
-0.12389329
0.011704719
-0.1407455
0.011565473
-0.15988552
0.011139813
-0.18188254
0.010567616
-0.20709959
0.0096874338
-0.23553097
0.0083404393
-0.2675259
0.0074958326
-0.30461508
0.006956747
-0.34674898
0.0060638198
-0.39382091
0.0049168714
-0.44711036
0.0035984801
-0.50821398
0.0020320897
-0.57659258
0.00027236447
-0.65490891
-0.00097649673
-0.74512184
-0.83658238
0.0067319242
-0.018513646
-0.0066576325
0.0068130337
-0.0210165
0.0069102627
-0.023865166
0.0070179723
-0.027092356
0.0071392552
-0.030757897
0.0072762126
-0.03491974
0.007435885
-0.039642792
0.007670007
-0.045015046
0.007933217
-0.051097656
0.0082120708
-0.058000414
0.0085339426
-0.065827208
0.0088203642
-0.074681149
0.0088387671
-0.084605135
0.0087799816
-0.096045553
0.0088871565
-0.10919918
0.0090423433
-0.12408904
0.0092279931
-0.14098132
0.0096018727
-0.16032262
0.0098940688
-0.18221152
0.0099951006
-0.20718619
0.010320967
-0.23584396
0.010943253
-0.26813265
0.010212105
-0.30386571
0.0088571303
-0.34536957
0.0072092588
-0.39214819
0.005686194
-0.44559978
0.0039740511
-0.5065936
0.0023485887
-0.57512708
0.00047815545
-0.65314767
-0.00115015
-0.74356691
-0.83515424
0.0062728177
-0.018517231
-0.0062747
0.0062687796
-0.021018569
0.0062467418
-0.023849984
0.006215497
-0.027068816
0.0061727511
-0.030723794
0.0061170844
-0.034873789
0.006051159
-0.039587697
0.0059629281
-0.044938911
0.005874889
-0.051023118
0.0057941071
-0.057934586
0.0057316381
-0.065781574
0.0057667935
-0.074735022
0.0061069015
-0.084966614
0.0066256322
-0.096588629
0.0071432669
-0.10974523
0.0075878322
-0.12456824
0.0080007179
-0.14143561
0.0082671866
-0.16063496
0.0084404645
-0.18243116
0.0082773285
-0.20707511
0.0073710842
-0.2349812
0.0056865611
-0.26649626
0.0050946271
-0.30333741
0.0053408502
-0.3456803
0.0049488173
-0.39182595
0.0042288171
-0.44496071
0.0032441572
-0.50570746
0.002062853
-0.57404895
0.00040977548
-0.65152543
-0.0015642691
-0.74200373
-0.83433803
0.0059335639
-0.018629164
-0.0058325711
0.0060480144
-0.021145487
0.0061907513
-0.024006955
0.0063589381
-0.027253228
0.0065529185
-0.030936255
0.0067757866
-0.035117704
0.0070239963
-0.039859894
0.0073027202
-0.045244967
0.0076043337
-0.051355949
0.007920137
-0.058286012
0.0082605468
-0.066162656
0.0085545071
-0.075075473
0.0087189299
-0.085183999
0.0087159214
-0.096645469
0.0086006878
-0.10969645
0.0084513945
-0.12449091
0.008231165
-0.1412918
0.0080793328
-0.16056691
0.0078571514
-0.18230876
0.0076730997
-0.20700219
0.0078714111
-0.23529451
0.0085835553
-0.26732325
0.0081928258
-0.30305781
0.0066605295
-0.34427286
0.0056639252
-0.39096067
0.0046970955
-0.44411583
0.0033613656
-0.50448938
0.0019653859
-0.57273599
0.00052935062
-0.65004506
-0.0016329648
-0.74026838
-0.83310672
0.0057088561
-0.018642714
-0.0057107935
0.0057064565
-0.021160755
0.0056977785
-0.024018451
0.0056839315
-0.027262428
0.0056667728
-0.030945422
0.005644456
-0.035125438
0.0056228955
-0.039872634
0.0055986402
-0.045259791
0.0055753843
-0.051377134
0.0055655234
-0.0583265
0.0055545007
-0.066208338
0.005584409
-0.075168929
0.0056727123
-0.085343143
0.0058429339
-0.096894046
0.0060742868
-0.1100144
0.0063752871
-0.12488663
0.0067042006
-0.14172505
0.0068503194
-0.16082594
0.0068657008
-0.18244415
0.0067281985
-0.20699119
0.0060834259
-0.23479736
0.0046923213
-0.26609233
0.0039963986
-0.30251248
0.0040205222
-0.34443805
0.0035637835
-0.39062864
0.0027244224
-0.44341036
0.0018726399
-0.5038079
0.0010051883
-0.57200297
-1.029284e-05
-0.64906612
-0.0017312458
-0.73886381
-0.83310407
0.0051004163
-0.018680767
-0.0050743396
0.0051293741
-0.021203225
0.0051659626
-0.024070275
0.0052096962
-0.027323347
0.0052601529
-0.031015266
0.0053186125
-0.035205792
0.0053824342
-0.039961195
0.0054547907
-0.045360175
0.0055324851
-0.051486662
0.0056129173
-0.058443232
0.005698216
-0.066335408
0.0057779979
-0.075296823
0.0058434663
-0.08546441
0.0058897834
-0.097005221
0.0059059893
-0.11010577
0.0058909392
-0.12495824
0.0058203071
-0.14175268
0.0057597187
-0.16087387
0.0057822098
-0.18258784
0.0059010843
-0.20724972
0.0060795503
-0.23514099
0.0062429191
-0.26644516
0.0061305251
-0.30260802
0.005155494
-0.3436832
0.004090514
-0.38980415
0.0032141258
-0.4428037
0.0020460376
-0.50295392
0.00078562805
-0.57100297
-0.00043102928
-0.648026
-0.001934568
-0.73753754
-0.83261964
0.0042154226
-0.018686325
-0.0042244744
0.0042054158
-0.021209741
0.004192524
-0.024076072
0.0041765727
-0.027328521
0.0041573866
-0.031019951
0.0041344889
-0.03520985
0.0041078537
-0.039964983
0.0040752863
-0.045361925
0.0040363617
-0.051486418
0.003991691
-0.058442193
0.0039412231
-0.066334098
0.00388677
-0.075297836
0.003833079
-0.085473305
0.0037842469
-0.097027061
0.0037435457
-0.11014454
0.003735802
-0.12504016
0.0037660833
-0.14188241
0.0037830412
-0.16100059
0.0037892087
-0.18271765
0.0037615197
-0.20736084
0.0037520675
-0.23528402
0.0036048943
-0.26645578
0.0031611749
-0.30233929
0.0024975158
-0.34321073
0.002224026
-0.38974266
0.0017209507
-0.44251645
0.00077738069
-0.5022368
-6.2610738e-05
-0.57036203
-0.00086522375
-0.64737625
-0.0022516077
-0.73636596
-0.8326522
0.0031862874
-0.0032015186
0.0031681365
0.0031444292
0.0031151951
0.0030797413
0.0030370345
0.0029864242
0.0029268953
0.0028581655
0.0027745083
0.0026768726
0.0025567038
0.0024097121
0.0022276614
0.002002855
0.0017223586
0.0014447694
0.0011653468
0.00086133231
0.00053171328
0.0002174222
0.0004116267
0.00071773167
0.00098550266
0.0011120652
0.0011103224
0.0011001071
0.00081551096
0.00049297208
-0.0015808592
0.016298616
-0.019293735
0.01449785
-0.011508848
0.01941355
-0.026218039
0.023108799
0.021249521
-0.031304921
0.029468656
0.022032578
-0.035795821
0.03501193
0.022257359
-0.040471383
0.040251031
0.022271031
-0.045504042
0.045496449
0.02228974
-0.051111854
0.051098913
0.022323533
-0.057099579
0.057068695
0.022369622
-0.064011863
0.063967812
0.022501296
-0.071877011
0.071751219
0.022454347
-0.080661826
0.080714397
0.022249271
-0.090311694
0.090521163
0.021913512
-0.10098919
0.10132817
0.021506322
-0.11313587
0.11354459
0.021054545
-0.12708632
0.12753982
0.020488643
-0.14251279
0.14307812
0.019828036
-0.15986123
0.16052012
0.019098183
-0.17965527
0.18038306
0.018284465
-0.20177893
0.20259176
0.017387234
-0.22665924
0.22755546
0.016430786
-0.25463805
0.2555924
0.015443466
-0.28656849
0.28755525
0.014442711
-0.32296113
0.32396393
0.01321481
-0.36383889
0.36507083
0.011840247
-0.41009759
0.41147681
0.010071942
-0.46261484
0.46439407
0.008673941
-0.52298331
0.52440366
0.0068542107
-0.5919689
0.59382482
0.0047158222
-0.67070848
0.67288488
0.0024216211
-0.75864574
0.76099416
-0.84662708
0.84915818
0.019005906
-0.023240749
-0.015108442
0.020234623
-0.027475429
0.020577143
-0.031656468
0.020718222
-0.035931873
0.020844369
-0.040593187
0.021013037
-0.04567012
0.021110585
-0.0512035
0.021170485
-0.05714894
0.021074716
-0.063909438
0.021107122
-0.071907603
0.021032859
-0.080584311
0.020783349
-0.090056679
0.020504787
-0.10070716
0.020231007
-0.11286138
0.019814584
-0.12666922
0.019234385
-0.14193367
0.018566931
-0.15919563
0.017829761
-0.17892021
0.017050251
-0.2010004
0.016186562
-0.22579666
0.015294744
-0.2537483
0.014335761
-0.28560981
0.013296777
-0.32191982
0.012124311
-0.36266204
0.01083138
-0.40879935
0.0094993089
-0.46127046
0.0079775957
-0.5214371
0.0062612773
-0.59021578
0.0043687331
-0.66877882
0.0022348827
-0.75646135
-0.84401485
0.018403295
-0.024299245
-0.01731896
0.019008736
-0.02805784
0.01927662
-0.031910409
0.019496949
-0.036140694
0.019668095
-0.040758095
0.019631488
-0.04563116
0.019538744
-0.051108629
0.019704671
-0.057309123
0.019765455
-0.063960425
0.019694446
-0.071829334
0.019524405
-0.080412753
0.019362969
-0.089891646
0.019129244
-0.10047054
0.018739936
-0.11247102
0.018332224
-0.12626163
0.017803052
-0.14140578
0.017180993
-0.15857541
0.016512669
-0.17825404
0.015779936
-0.2002686
0.014968755
-0.22498655
0.014133048
-0.25291453
0.013239588
-0.28471642
0.012266817
-0.32094442
0.011184664
-0.3615751
0.0099771591
-0.40758587
0.0087521151
-0.46003175
0.007340686
-0.5199991
0.0057584951
-0.58859648
0.0040098866
-0.66699377
0.0020443745
-0.75444721
-0.84184824
0.017158053
-0.024776756
-0.016677656
0.017385971
-0.028284108
0.017547584
-0.032069885
0.017615666
-0.036205021
0.017601642
-0.040739401
0.017766466
-0.045791112
0.017917203
-0.051255523
0.018071995
-0.057460938
0.018282644
-0.064165839
0.018313254
-0.071853373
0.018162022
-0.080253949
0.017815841
-0.0895417
0.017529089
-0.10018492
0.017260534
-0.1122013
0.016876383
-0.12587854
0.016360499
-0.14089125
0.015750777
-0.15796758
0.01510732
-0.17761262
0.014411687
-0.19957378
0.013665299
-0.22424118
0.012897763
-0.25214875
0.012075148
-0.28389356
0.011176728
-0.32004305
0.010181049
-0.36057417
0.009089355
-0.40648751
0.0079614886
-0.45888879
0.0066741044
-0.51868304
0.0052309248
-0.58711609
0.0036333879
-0.66536088
0.0018458985
-0.75261265
-0.83985674
0.015239748
-0.025031371
-0.014981289
0.015521584
-0.028562585
0.015776618
-0.032320781
0.016034364
-0.036457918
0.016307906
-0.041007759
0.016537499
-0.046014314
0.01658204
-0.051292105
0.016534933
-0.057406878
0.016602589
-0.064227101
0.016578323
-0.071828262
0.016512141
-0.080186546
0.016309105
-0.089334197
0.015993064
-0.099862726
0.015641384
-0.11184651
0.01525498
-0.12549479
0.014779787
-0.14041751
0.014229817
-0.15741939
0.013642198
-0.17702676
0.013006541
-0.19893883
0.012320319
-0.2235559
0.011625549
-0.25145546
0.010876463
-0.28314392
0.010054086
-0.31921741
0.0091491522
-0.35966357
0.008182518
-0.40551357
0.0071423578
-0.45783221
0.0059829322
-0.51749298
0.0046828994
-0.58577903
0.0032416557
-0.66388536
0.001638643
-0.75096363
-0.83806898
0.013380551
-0.025512674
-0.012894806
0.013728637
-0.028906482
0.014010076
-0.032598075
0.014272347
-0.036716228
0.014414596
-0.041145782
0.014581562
-0.046174749
0.014851812
-0.051553186
0.014988789
-0.057536735
0.015051059
-0.064282951
0.014848557
-0.071623775
0.014681368
-0.080018879
0.014491089
-0.089139039
0.014312896
-0.099679722
0.014065672
-0.11159747
0.01368884
-0.12512002
0.013233919
-0.13996407
0.012688811
-0.15687589
0.012129155
-0.17646862
0.011537986
-0.19834817
0.0109173
-0.22293605
0.010293569
-0.25083289
0.0096227484
-0.28247222
0.0088829331
-0.318474
0.008066217
-0.35884071
0.0072146198
-0.40465401
0.0062890668
-0.45688896
0.0052635501
-0.51643501
0.0041138664
-0.58459274
0.0028357115
-0.6625742
0.001423744
-0.74950622
-0.83650103
0.011587195
-0.02589344
-0.011200978
0.011908362
-0.029221191
0.012208977
-0.032891388
0.012555716
-0.037056794