/*--------------------------------*- C++ -*----------------------------------*\
| =========                 |                                                 |
| \\      /  F ield         | OpenFOAM: The Open Source CFD Toolbox           |
|  \\    /   O peration     | Version:  2406                                  |
|   \\  /    A nd           | Website:  www.openfoam.com                      |
|    \\/     M anipulation  |                                                 |
\*---------------------------------------------------------------------------*/
FoamFile
{
    version     2.0;
    format      ascii;
    arch        "LSB;label=32;scalar=64";
    class       volScalarField;
    location    "0.048";
    object      alphat;
}
// * * * * * * * * * * * * * * * * * * * * * * * * * * * * * * * * * * * * * //

dimensions      [1 -1 -1 0 0 0 0];

internalField   nonuniform List<scalar> 
8260
(
0.040040116
0.045409521
0.05172104
0.058849683
0.066633138
0.074898352
0.083424806
0.091914554
0.099963999
0.10699647
0.11219969
0.11445103
0.11222929
0.10363594
0.086625225
0.060257021
0.031789085
0.014846296
0.0096429409
0.0080050743
0.0070572161
0.0064646909
0.0060134148
0.0056627494
0.0054194691
0.0052469447
0.0051364613
0.0050562747
0.0050012313
0.0049636705
0.0049437091
0.047394945
0.052924828
0.058993841
0.065670924
0.072914757
0.080594666
0.088502153
0.096339038
0.10369381
0.10998167
0.11436118
0.11568742
0.11242059
0.1026752
0.084461405
0.057384503
0.029050351
0.013988737
0.0093852898
0.0079081079
0.0070048629
0.0064311012
0.0059934086
0.0056490773
0.0054113316
0.0052420194
0.0051334821
0.0050543981
0.005000072
0.0049628932
0.0049431895
0.055820548
0.061142035
0.066906408
0.073151926
0.079855486
0.086912401
0.094132266
0.10122553
0.10777617
0.11318542
0.1165988
0.11684606
0.11237058
0.10130869
0.081764091
0.053898756
0.026359014
0.013089476
0.0092005059
0.007857588
0.0069771357
0.0064135224
0.0059829276
0.0056418822
0.005407004
0.0052393314
0.0051317595
0.0050531217
0.0049991769
0.0049621891
0.0049426206
0.065427196
0.070317143
0.075636771
0.081365133
0.087463815
0.093828641
0.10027516
0.10651781
0.11213689
0.11652263
0.11880627
0.11779624
0.11192294
0.099356437
0.07834672
0.049714332
0.023576982
0.012306118
0.0090444772
0.0077781962
0.00692972
0.0063824896
0.0059638873
0.005628776
0.0053990154
0.0052342946
0.0051285675
0.0050510395
0.00499784
0.0049612504
0.004941974
0.076211612
0.080503348
0.085253287
0.090348425
0.095736773
0.1013059
0.10686706
0.11213091
0.11667044
0.11986471
0.1208301
0.11835719
0.11087022
0.096590098
0.073986522
0.044747403
0.020779321
0.011549671
0.0088702162
0.0077057666
0.0068879566
0.0063555648
0.0059472625
0.0056176779
0.0053923475
0.0052301111
0.0051258897
0.0050491661
0.0049965664
0.0049602859
0.0049412383
0.087966826
0.091590215
0.09565582
0.09999944
0.10455703
0.10920579
0.11374753
0.1178832
0.12117387
0.12298499
0.12241847
0.11825033
0.1089104
0.092695999
0.06840449
0.038961177
0.018265186
0.010853863
0.0087055719
0.0076170228
0.0068335676
0.0063195596
0.0059245125
0.005602341
0.0053830007
0.0052241632
0.0051221144
0.0050466589
0.0049949243
0.0049591036
0.0049404006
0.10032497
0.10323844
0.10653115
0.11001987
0.11362924
0.11722602
0.12060088
0.1234419
0.12529513
0.12551029
0.12317523
0.11705617
0.10560931
0.087246438
0.061266465
0.032449523
0.015890612
0.010225291
0.0085323412
0.0075270495
0.0067796931
0.0062840601
0.0059017566
0.0055874698
0.0053740277
0.0052184423
0.0051184741
0.0050441501
0.0049932262
0.0049578278
0.0049394477
0.11268199
0.11485489
0.11730565
0.1198509
0.12240352
0.12481892
0.12687523
0.12824588
0.12846027
0.12685169
0.12249539
0.11415568
0.10035322
0.079672299
0.052228022
0.025578072
0.01372513
0.0097336274
0.0083612372
0.007423235
0.0067153149
0.0062406009
0.0058734658
0.0055688582
0.0053626684
0.0052110835
0.0051138363
0.005041041
0.0049911589
0.0049563139
0.0049383651
0.12408246
0.12548764
0.12703863
0.12856457
0.12996375
0.13107753
0.13166928
0.13139594
0.12976941
0.12610756
0.11947721
0.1086531
0.092293739
0.069258149
0.041128869
0.020060173
0.011947195
0.0093441059
0.0081775897
0.0073136648
0.0066494404
0.0061954277
0.0058440211
0.00554988
0.0053511225
0.0052035554
0.0051090915
0.0050377851
0.0049889449
0.0049546426
0.0049371368
0.13302738
0.13365631
0.13426
0.13470474
0.13487097
0.13458165
0.13358188
0.1315096
0.1278594
0.1219383
0.11281429
0.09928965
0.080301511
0.055253111
0.028618469
0.015651196
0.010589844
0.0089810427
0.0079859006
0.0071901391
0.0065734967
0.0061418289
0.0058093954
0.0055271958
0.0053370884
0.0051943226
0.0051033107
0.0050338766
0.0049863197
0.0049526855
0.0049357431
0.13725857
0.13712234
0.13676595
0.13609618
0.13497629
0.13321257
0.13052926
0.12654394
0.12073829
0.1124222
0.10068931
0.084382739
0.063060018
0.037348056
0.019743406
0.012513967
0.0098648402
0.0086618973
0.0077787782
0.0070610045
0.0064940787
0.0060849481
0.005773432
0.0055034652
0.0053222057
0.0051846645
0.0050972266
0.0050296692
0.0049834567
0.0049505015
0.0049341583
0.13348241
0.13256043
0.13126656
0.12950327
0.12711302
0.12387759
0.11949734
0.11357457
0.10559741
0.094921805
0.080743897
0.061869741
0.039642245
0.022845166
0.014158761
0.010456333
0.0092859777
0.0082983035
0.0075672732
0.0069141714
0.0064033701
0.0060205079
0.0057321567
0.0054755233
0.0053041873
0.0051731773
0.0050899798
0.0050246866
0.0049800994
0.0049479736
0.0049318727
0.1170584
0.11548907
0.11336162
0.11058178
0.10698762
0.10234583
0.09633573
0.088578732
0.078647483
0.066109336
0.050922079
0.036151992
0.023268274
0.014911623
0.011008577
0.0096662922
0.0087900574
0.0079948051
0.0073314106
0.0067759862
0.006305246
0.0059488036
0.0056893181
0.0054458849
0.0052845956
0.0051610926
0.0050822382
0.0050192802
0.0049763928
0.0049451621
0.0049292769
0.082458482
0.080247795
0.077550814
0.074401874
0.070651366
0.066111967
0.060585752
0.054007606
0.04633935
0.037660773
0.028502226
0.020199002
0.014275541
0.01111105
0.0096755552
0.0089563194
0.008322799
0.0076216607
0.0071048446
0.0066008423
0.0061990768
0.0058744576
0.0056364336
0.0054122689
0.0052616106
0.0051469992
0.0050731674
0.0050130531
0.0049720872
0.004941961
0.0049264042
0.046422952
0.045019394
0.043288603
0.041230304
0.038702527
0.035637594
0.032249428
0.028477526
0.024349026
0.019983416
0.015763907
0.012408753
0.010424958
0.0094911041
0.0090865132
0.0085071133
0.0078013998
0.0073302712
0.006845832
0.0064425235
0.0060873126
0.005784623
0.0055845716
0.0053766993
0.0052362398
0.0051323429
0.0050636781
0.0050064735
0.0049673576
0.0049384346
0.0049233329
0.022972866
0.022471446
0.021732203
0.020796037
0.01963513
0.018249094
0.016709561
0.015049331
0.013325856
0.011671705
0.010220695
0.0092937062
0.0088378371
0.0088969743
0.0082022701
0.0077849428
0.0073810266
0.0069630016
0.0066123796
0.0062562684
0.005955303
0.0056977834
0.0055198128
0.0053378705
0.0052079739
0.0051160651
0.0050525982
0.0049991345
0.0049620206
0.0049344682
0.0049201943
0.012197533
0.012076989
0.011830068
0.01148574
0.011060185
0.010578664
0.010064694
0.0095141623
0.0089176965
0.0084865286
0.0082867207
0.0081747584
0.0082985299
0.0078575121
0.0077501492
0.0074152592
0.0068161616
0.0065967824
0.0063148798
0.0060617289
0.0058294288
0.0056004857
0.0054540816
0.0052947251
0.005178496
0.0050998231
0.0050414021
0.0049917121
0.0049561954
0.004930119
0.0049162165
0.0082486234
0.0082199383
0.0081448135
0.0080402817
0.0079040365
0.0077659849
0.0076446143
0.0075328408
0.007474633
0.0074946181
0.0075960348
0.0074754458
0.0070133086
0.007043969
0.0069461004
0.0067089362
0.0065283687
0.0062086042
0.0060522287
0.0058562225
0.0056673735
0.00549871
0.0053763338
0.0052475145
0.0051504759
0.0050819758
0.0050279013
0.0049833421
0.004949849
0.0049252408
0.0049122036
0.0069585343
0.0069131136
0.0068802078
0.0068645288
0.00686321
0.0068590368
0.0068767422
0.0068437948
0.0068083534
0.0067713002
0.0066417574
0.0065400095
0.0065487131
0.006325233
0.0062379764
0.0062974749
0.0061576745
0.0059483335
0.0057652383
0.0056365095
0.0055095765
0.0053894641
0.0052980358
0.0052003063
0.005122332
0.0050622803
0.0050148308
0.0049749068
0.0049430167
0.0049199074
0.0049072934
0.0063804476
0.0063766629
0.0063682215
0.0063561861
0.0063618194
0.0063782436
0.0063646719
0.0063437812
0.0062877083
0.0061680151
0.0061201076
0.0060760792
0.005933102
0.0059008622
0.0058486902
0.0057856527
0.0057686044
0.0057182222
0.0056030492
0.005485369
0.0053540518
0.00528119
0.0052161255
0.005155669
0.0050906951
0.0050414638
0.0050003648
0.0049649305
0.0049358394
0.0049140064
0.0049026001
0.0059619037
0.0059586654
0.0059516804
0.0059341528
0.0059028755
0.005856346
0.0058410331
0.0058275892
0.0058112302
0.0057992989
0.0057820873
0.0057490838
0.0056799092
0.0056330497
0.0056374253
0.0055520365
0.0054861547
0.0054565428
0.0054490826
0.0053883022
0.0052728332
0.0052080717
0.0051542947
0.005107457
0.0050619567
0.0050211911
0.0049873371
0.0049550764
0.0049279325
0.0049077832
0.0048969192
0.0055636242
0.0055643604
0.0055619899
0.0055562062
0.0055504034
0.0055550763
0.0055610098
0.0055564336
0.0055474915
0.0055258575
0.0054977253
0.0054719697
0.0054972992
0.0054449908
0.0054144243
0.0054050875
0.0053523697
0.0052982763
0.0052577211
0.0052432495
0.0052227186
0.0051657368
0.0051038414
0.0050672126
0.0050364593
0.0050026087
0.0049731988
0.004943641
0.0049195856
0.0049011392
0.0048918108
0.0053513963
0.0053516673
0.0053493558
0.0053439452
0.0053354317
0.0053218595
0.005305279
0.0052943363
0.0052888209
0.0052842731
0.005278771
0.0052821213
0.0052656399
0.0052848941
0.0052594718
0.0052475009
0.0052668976
0.0052176971
0.0051580131
0.0051373411
0.0051512455
0.0051294771
0.0050744351
0.0050447124
0.0050138339
0.0049875267
0.0049592852
0.0049336144
0.0049105022
0.004894179
0.0048855201
0.005150976
0.00515209
0.0051514391
0.0051494535
0.0051471866
0.0051451777
0.0051441669
0.0051479744
0.0051520937
0.0051528966
0.0051526254
0.0051474517
0.0051404459
0.0051291988
0.0051269362
0.0051217752
0.0051172087
0.0051175951
0.005094405
0.0050651724
0.0050582534
0.0050709405
0.0050436632
0.0050195383
0.0049993044
0.0049707613
0.0049433067
0.0049208936
0.0049011392
0.0048871873
0.0048801443
0.0050502074
0.0050520734
0.0050523255
0.0050515696
0.0050502858
0.005048655
0.0050464884
0.0050431369
0.0050386168
0.0050386846
0.0050417978
0.0050460779
0.0050519999
0.0050601457
0.0050504753
0.0050523877
0.0050308007
0.0050274439
0.0050292728
0.0050338215
0.0050203858
0.0050071136
0.0050025848
0.0049966886
0.0049726457
0.0049517363
0.004926491
0.0049089657
0.0048919347
0.0048802103
0.0048739625
0.0049532953
0.0049543889
0.0049547954
0.0049549386
0.0049553129
0.0049560416
0.0049571192
0.0049590057
0.004964513
0.004971507
0.0049783298
0.0049835695
0.0049857628
0.0049828376
0.0049800987
0.0049670217
0.0049748437
0.0049855311
0.004975259
0.0049918353
0.0049916914
0.0049746614
0.004954703
0.0049461492
0.0049362824
0.0049270834
0.0049072364
0.0048964887
0.0048830678
0.0048734068
0.0048677999
0.0049103667
0.0049112148
0.0049116191
0.0049118666
0.0049122184
0.0049126544
0.0049130075
0.0049132671
0.0049135103
0.0049137099
0.0049137244
0.0049145425
0.0049162193
0.0049172365
0.0049176974
0.0049204276
0.0049233476
0.004925875
0.0049351259
0.0049231199
0.0049293801
0.0049211152
0.0049217553
0.0049108242
0.0049069288
0.0049003031
0.0048957886
0.0048834223
0.0048745386
0.0048677683
0.0048637798
0.0048857472
0.0048861898
0.0048863871
0.004886494
0.0048866332
0.0048868315
0.0048871263
0.0048875469
0.0048880312
0.0048886111
0.0048892772
0.0048904738
0.0048924595
0.0048942207
0.0048950599
0.0048954995
0.0048967453
0.0048970709
0.0048981753
0.0048969325
0.0048966799
0.0048951163
0.0048945413
0.004892596
0.0048906244
0.0048864149
0.0048815852
0.0048755496
0.0048695222
0.0048644858
0.0048619094
0.0048735252
0.0048737318
0.0048738306
0.0048739175
0.0048740624
0.0048742817
0.0048746105
0.0048750404
0.0048755093
0.004876103
0.0048769159
0.0048781084
0.004879633
0.0048805605
0.0048819001
0.0048829373
0.0048829495
0.0048838022
0.0048836423
0.0048852902
0.0048832178
0.0048842389
0.0048820096
0.0048814247
0.0048804696
0.0048777336
0.004874584
0.0048706158
0.0048663893
0.0048622178
0.0048581809
0.0048664593
0.0048666202
0.0048667601
0.0048669271
0.004867143
0.0048673949
0.00486759
0.004867624
0.0048676409
0.0048677886
0.0048686537
0.0048699921
0.0048711533
0.0048712868
0.0048712611
0.0048715909
0.004872378
0.0048733243
0.0048740723
0.0048748573
0.0048747354
0.0048751466
0.0048747599
0.0048739459
0.00487366
0.0048723539
0.0048705903
0.0048681037
0.0048625006
0.0048585341
0.0048585894
0.004859469
0.0048596093
0.0048597777
0.0048599886
0.0048602722
0.0048606569
0.0048611652
0.0048618206
0.0048626427
0.0048636205
0.0048646311
0.004866044
0.0048666236
0.0048669352
0.0048667265
0.0048665301
0.0048664363
0.004866666
0.0048680384
0.0048683782
0.0048697623
0.0048678956
0.0048703001
0.0048695621
0.0048692992
0.0048685536
0.004867334
0.0048643116
0.0048625453
0.0048616242
0.0048599619
0.00088994352
0.0019216091
0.0038422457
0.0066915945
0.010455496
0.015233071
0.021124248
0.02818277
0.03648735
0.045517512
0.055416039
0.065729633
0.075669699
0.083999733
0.088860016
0.087605592
0.076966455
0.055965381
0.031613149
0.015344238
0.0091274203
0.0072287327
0.0064239524
0.0059466301
0.0056012926
0.00537069
0.0052105804
0.0051063213
0.0050343041
0.0049875447
0.0049631012
0.0021862103
0.0043782947
0.007224731
0.010644973
0.014828476
0.019894777
0.025915215
0.033226696
0.041304676
0.050269467
0.059966136
0.069878034
0.079163531
0.08652233
0.090035518
0.087028877
0.074360063
0.051905571
0.027837975
0.013850872
0.0086342047
0.007081968
0.0063632338
0.0059121771
0.0055804447
0.005358318
0.0052038322
0.0051025678
0.0050321848
0.0049863266
0.0049625168
0.0040076574
0.0063476142
0.0092438731
0.012879775
0.017389933
0.022867912
0.029423508
0.036933013
0.045237339
0.054333239
0.063945588
0.073528921
0.082203672
0.088619147
0.090811728
0.086100815
0.071539608
0.048021109
0.024942686
0.012418086
0.008281473
0.007017743
0.0063353016
0.005895674
0.0055702259
0.0053514417
0.0051999687
0.005100133
0.0050306307
0.0049853104
0.0049618488
0.0057774191
0.0083612548
0.011627404
0.01565938
0.020502043
0.02628721
0.033098417
0.040662337
0.049082208
0.058198602
0.067661726
0.076879804
0.084921568
0.090382524
0.091259323
0.084881097
0.068551658
0.044321773
0.022409217
0.011584181
0.0080843786
0.0069383871
0.0062926959
0.0058691253
0.0055536732
0.0053411933
0.0051943215
0.0050968757
0.0050287234
0.0049841628
0.00496111
0.007532684
0.010474081
0.014080914
0.018409582
0.023556693
0.029650547
0.036551318
0.044294317
0.052818777
0.061909545
0.071178963
0.079994089
0.087373591
0.091862544
0.091424612
0.083412273
0.065441712
0.04077733
0.020166188
0.010698954
0.0078804107
0.0068823086
0.0062647318
0.0058516316
0.0055427985
0.0053340214
0.0051903194
0.0050943728
0.0050271383
0.0049831235
0.0049603333
0.0093762422
0.012616639
0.016500786
0.021106912
0.026597444
0.03290066
0.03998408
0.047880179
0.056462798
0.065483719
0.074520702
0.082899162
0.089589826
0.093091823
0.091342649
0.081726969
0.062255276
0.037392706
0.018207036
0.010130153
0.0077465271
0.0068252553
0.0062310836
0.0058298213
0.0055290345
0.0053252541
0.0051854436
0.0050914572
0.0050253747
0.0049820143
0.004959545
0.011166208
0.014695426
0.018879995
0.023822383
0.02957547
0.036077455
0.043366875
0.051391158
0.060000214
0.068919737
0.077694236
0.085609115
0.091590474
0.094096386
0.091044253
0.07986522
0.059035128
0.034221576
0.016541287
0.0095892327
0.0076211712
0.0067784725
0.0062051801
0.0058129872
0.0055184712
0.0053182856
0.005181536
0.0050889895
0.0050238055
0.0049809676
0.0049587466
0.012898532
0.016744953
0.02124358
0.026529696
0.032495795
0.039220213
0.046686598
0.054811525
0.063421439
0.072214593
0.080703002
0.08813415
0.093392895
0.094901047
0.090560698
0.077871451
0.055825282
0.031305588
0.015165544
0.009215887
0.0075276177
0.0067340641
0.0061777175
0.0057946404
0.0055067815
0.0053106776
0.0051772544
0.0050863385
0.0050221577
0.0049798869
0.0049579436
0.014626983
0.018772377
0.023591926
0.029142685
0.03535414
0.04229542
0.049921959
0.058128325
0.066718751
0.075365536
0.083550032
0.090484075
0.095014644
0.095532481
0.089932284
0.07578487
0.05269935
0.028676048
0.014076179
0.0089190668
0.0074429551
0.0066954827
0.0061547684
0.0057792677
0.0054970315
0.0053041945
0.0051735742
0.0050839665
0.0050206344
0.0049788444
0.0049571354
0.016300858
0.020750095
0.025892059
0.031676759
0.038143469
0.045292038
0.053062605
0.061332736
0.069886234
0.078370967
0.086239358
0.092669764
0.096474539
0.096017019
0.089197095
0.073650353
0.049665663
0.026346995
0.013141975
0.0087000259
0.0073740048
0.0066599259
0.0061320791
0.0057637252
0.0054870474
0.0052975725
0.0051697868
0.0050815353
0.0050190878
0.0049777883
0.0049563234
0.017958094
0.022702942
0.028123104
0.03415334
0.040864151
0.048201664
0.056099127
0.064416902
0.072919157
0.081230601
0.088776444
0.094703706
0.097793201
0.096382848
0.088387054
0.071510796
0.046776174
0.024326225
0.0124305
0.0085231665
0.007312014
0.0066284778
0.0061124008
0.0057501645
0.0054783677
0.0052917207
0.0051664045
0.0050792912
0.0050176273
0.0049767578
0.0049555074
0.019570201
0.024612049
0.030279839
0.036566357
0.043503288
0.051012498
0.059022308
0.067373852
0.07581395
0.083945494
0.091168265
0.09659995
0.098991878
0.096662444
0.087536527
0.069411698
0.044071787
0.022611311
0.0118441
0.0083875583
0.0072596113
0.006600016
0.0060937949
0.0057370621
0.0054699071
0.0052859874
0.0051630554
0.0050770545
0.0050161732
0.0049757254
0.0049546881
0.021157464
0.026470152
0.032380363
0.038907392
0.046039952
0.053714296
0.061823325
0.070197679
0.078568376
0.086518119
0.093423097
0.09837325
0.10009145
0.096880909
0.086678045
0.067391172
0.041583854
0.021183064
0.011407722
0.008279238
0.0072130208
0.0065748406
0.0060775196
0.0057254371
0.0054624304
0.0052808357
0.0051600061
0.0050749558
0.0050147839
0.0049747122
0.0049538657
0.022717446
0.028273657
0.034421442
0.0411681
0.048469259
0.056301314
0.064494015
0.072882652
0.08118167
0.088953542
0.09555101
0.1000407
0.10111504
0.097065886
0.085847357
0.065474994
0.039335008
0.0200225
0.011086729
0.0081955163
0.0071732918
0.0065524259
0.0060627065
0.0057145559
0.0054553984
0.0052759324
0.0051570622
0.0050729007
0.0050134166
0.0049737037
0.0049530405
0.024257492
0.030028891
0.036396081
0.043343064
0.0508192
0.058741587
0.067030187
0.075426987
0.083653465
0.091257898
0.097562068
0.10161717
0.10208861
0.097254787
0.085090011
0.063687138
0.037339109
0.019110288
0.01086613
0.0081300863
0.0071389005
0.0065328106
0.0060499373
0.0057048967
0.0054491803
0.0052715098
0.0051543594
0.005070958
0.0050121029
0.0049727125
0.0049522118
0.0257516
0.031727508
0.038293298
0.045418665
0.053046438
0.061085426
0.069399896
0.077818306
0.085978035
0.093422716
0.099464222
0.10311932
0.10303572
0.097479962
0.084446643
0.062067983
0.035607303
0.018435643
0.010702179
0.0080779721
0.007110162
0.0065157067
0.0060388263
0.0056961143
0.0054435049
0.0052673994
0.0051517961
0.0050690791
0.0050108207
0.0049717316
0.004951378
0.027147268
0.033326682
0.040078361
0.047366868
0.055128376
0.063266233
0.071628735
0.080016751
0.088122759
0.095449769
0.1012563
0.10455967
0.10397734
0.097770961
0.083953309
0.060679393
0.034187488
0.017863092
0.01053503
0.0080339102
0.0070864289
0.0065010811
0.0060296248
0.0056884314
0.0054385408
0.0052637151
0.005149439
0.0050673003
0.0050095853
0.0049707664
0.0049505394
0.028421483
0.034765717
0.041679751
0.049116898
0.057008679
0.065247786
0.073677658
0.082079926
0.090123794
0.09730862
0.1029327
0.10594878
0.10493278
0.0981543
0.083641301
0.059572632
0.033053704
0.017386398
0.010394557
0.0080005663
0.0070677527
0.0064887771
0.006022139
0.0056816951
0.0054341485
0.0052603725
0.0051472347
0.0050655976
0.0050083854
0.0049698135
0.0049496963
0.029765561
0.036183805
0.043185083
0.050718408
0.058702149
0.067021113
0.075510672
0.083941122
0.091966101
0.099071422
0.10452855
0.10726986
0.10591666
0.098653033
0.083537489
0.058786017
0.032185073
0.016985213
0.010266367
0.0079760781
0.0070537549
0.0064787859
0.0060164493
0.0056760199
0.0054304008
0.0052574268
0.0051452162
0.005063991
0.0050072296
0.0049688756
0.0049488492
0.031103142
0.037570203
0.044615408
0.052196778
0.060232639
0.068603891
0.077137675
0.085596482
0.093620041
0.10067956
0.10602831
0.1085931
0.1069463
0.099254131
0.083662556
0.058347956
0.031569323
0.016644294
0.010152677
0.0079612428
0.0070444138
0.0064710938
0.0060124543
0.0056713655
0.0054272356
0.0052548395
0.0051433585
0.0050624699
0.0050061125
0.0049679511
0.0049479986
0.032411773
0.038890804
0.045943344
0.053535761
0.061589326
0.069988843
0.078554071
0.087041765
0.095080489
0.10212991
0.1074241
0.10987695
0.10803134
0.1000486
0.084026828
0.058279003
0.031206564
0.016341709
0.010046918
0.0079556475
0.0070397722
0.0064658186
0.0060101936
0.0056678209
0.005424695
0.0052526379
0.0051416778
0.0050610443
0.0050050375
0.0049670401
0.0049471445
0.033679804
0.04013068
0.047150756
0.054718241
0.062755758
0.071167469
0.079782788
0.088327142
0.096417995
0.10347958
0.10874347
0.11113214
0.1091711
0.10099649
0.084669645
0.058594045
0.03111967
0.0160484
0.009944879
0.0079581165
0.0070400803
0.0064630831
0.0060096172
0.0056653868
0.0054227482
0.005250794
0.0051401562
0.0050597044
0.0050039983
0.0049661394
0.0049462877
0.03491754
0.041271359
0.048202677
0.055707272
0.063741188
0.072181249
0.080837256
0.089418922
0.097532892
0.10463372
0.10993513
0.11234174
0.11036382
0.10210481
0.085578683
0.059317809
0.031296043
0.015723856
0.0098487755
0.0079693644
0.0070431389
0.0064628733
0.0060102171
0.0056640261
0.0054213664
0.0052492857
0.0051387834
0.0050584451
0.005002991
0.0049652473
0.0049454277
0.036121122
0.042276353
0.049019266
0.056372644
0.064316455
0.072719585
0.081381566
0.090014735
0.098215991
0.10541697
0.11082407
0.11332595
0.11141227
0.10316369
0.086533362
0.060176958
0.031741277
0.015296769
0.009749167
0.0079879327
0.0070502591
0.0064639738
0.0060118302
0.0056635338
0.0054204357
0.0052480427
0.0051375271
0.0050572528
0.0050020101
0.0049643639
0.0049445642
0.00091296356
0.0018616536
0.003672262
0.0063727666
0.009957281
0.014453601
0.020018036
0.026760345
0.03479602
0.043639319
0.05342252
0.063727199
0.073800055
0.082468754
0.087927826
0.08757034
0.078059526
0.057877668
0.033287652
0.015931747
0.0092651829
0.0072689084
0.0064418147
0.0059580084
0.0056086635
0.005376062
0.0052136115
0.0051082375
0.0050355248
0.0049883336
0.0049634269
0.00096846433
0.0019148938
0.0036964985
0.0063243683
0.0098122769
0.014236148
0.019716469
0.026353856
0.034252272
0.043005924
0.052637998
0.062818392
0.072862898
0.081606629
0.087277987
0.087306648
0.078392124
0.05875591
0.034174294
0.016317941
0.0093527177
0.0072925649
0.006452758
0.0059653177
0.0056136423
0.005379461
0.005215567
0.0051094964
0.005036356
0.0049889354
0.0049637748
0.001036437
0.0019725365
0.0037312558
0.0063131899
0.0097356834
0.014073435
0.019441337
0.025944697
0.033668194
0.042292398
0.051799964
0.061885975
0.071894871
0.080706437
0.086586993
0.087006519
0.078702562
0.059651061
0.035120351
0.016739127
0.0094500455
0.0073181081
0.006464545
0.0059729897
0.0056186736
0.0053836168
0.005217894
0.0051109942
0.0050373149
0.0049895271
0.0049641962
0.0011137209
0.0020333961
0.0037661074
0.0063015082
0.0096579622
0.013908772
0.019163819
0.02552514
0.033081536
0.041569093
0.050946171
0.060928683
0.070895418
0.079766783
0.085852139
0.086666111
0.078985197
0.060562584
0.036124575
0.017204667
0.0095581928
0.0073453088
0.0064766701
0.0059811043
0.0056244437
0.0053870617
0.0052199582
0.0051123304
0.0050382164
0.0049902173
0.0049647079
0.0012079177
0.0021056637
0.0038063484
0.0062935347
0.0095827876
0.013745399
0.018886671
0.025105722
0.032493392
0.040838599
0.050078021
0.059949372
0.069864741
0.078786955
0.08507153
0.08628238
0.079235422
0.061489019
0.03718482
0.017717261
0.0096803832
0.007376021
0.0064907936
0.0059898975
0.0056300557
0.0053920115
0.0052227148
0.0051141
0.0050393377
0.0049909286
0.0049650868
0.0013156914
0.0021833924
0.0038488601
0.0062874765
0.0095102535
0.013585003
0.018612823
0.02469233
0.031907628
0.040104187
0.049198403
0.05895023
0.068804154
0.077767286
0.084244154
0.085852933
0.079446837
0.062423264
0.038288943
0.018288477
0.0098199006
0.0074079735
0.0065045976
0.0059991424
0.0056367598
0.0053967017
0.0052254287
0.0051158397
0.0050404592
0.0049916859
0.0049654922
0.001448033
0.0022849306
0.0039075127
0.0062953886
0.0094507748
0.013436468
0.018349519
0.024287565
0.031330606
0.039370736
0.048311349
0.05793477
0.067716302
0.076709929
0.083370478
0.085375548
0.079615701
0.063352898
0.03944444
0.018912769
0.0099760738
0.0074431138
0.0065197494
0.0060087375
0.0056435094
0.0054016912
0.0052283183
0.0051176931
0.0050416533
0.0049924896
0.0049659725
0.0016075852
0.0024068722
0.0039821738
0.0063162615
0.0094031716
0.013299175
0.018096993
0.023893303
0.03076851
0.038641282
0.047421189
0.056907678
0.066604076
0.07561866
0.08245209
0.084847749
0.079741965
0.064274502
0.040682116
0.019600843
0.010151417
0.0074812607
0.0065357929
0.006018908
0.0056507202
0.0054069652
0.0052314086
0.00511966
0.0050429116
0.0049933407
0.0049666288
0.0017947836
0.0025523105
0.0040799398
0.0063585934
0.0093761395
0.013181666
0.01786322
0.023515324
0.030208192
0.03791949
0.046532734
0.055873141
0.065476213
0.074495117
0.081488678
0.084267123
0.079818813
0.065182342
0.041982703
0.020358363
0.010348596
0.0075227703
0.006552646
0.0060292578
0.0056582189
0.0054125704
0.0052346897
0.005121749
0.0050442521
0.0049942413
0.0049673598
0.00201698
0.0027347746
0.0042108342
0.0064308592
0.0093771987
0.013090948
0.017654762
0.023160314
0.029673237
0.037212084
0.045651565
0.05483667
0.064340629
0.073343014
0.080481596
0.083631672
0.079840638
0.066074819
0.043337886
0.021191211
0.010570597
0.0075680812
0.0065703893
0.0060404238
0.0056663703
0.005418484
0.0052382121
0.0051239656
0.0050456572
0.0049951913
0.0049681518
0.0022821162
0.0029595352
0.0043811706
0.006541581
0.009414887
0.013034995
0.017478957
0.022836144
0.029173796
0.036531434
0.044784665
0.053803384
0.06318766
0.07216538
0.079432749
0.082940371
0.079802568
0.066935144
0.044745814
0.02210716
0.010821094
0.0076177424
0.0065891117
0.0060514145
0.0056745835
0.0054247713
0.0052419398
0.0051263072
0.0050471551
0.0049961954
0.0049689403
0.0025928014
0.0032378536
0.0046100489
0.0067039586
0.0095000645
0.013023282
0.017344701
0.022549513
0.028711952
0.035878265
0.043938246
0.052779438
0.062030574
0.070966694
0.078344697
0.082192992
0.079699871
0.067747732
0.046165231
0.02310507
0.011103087
0.0076721754
0.0066083319
0.0060636138
0.0056838361
0.0054313748
0.0052459466
0.0051287963
0.0050487144
0.0049972513
0.0049697555
0.0029453168
0.0035746921
0.0049005575
0.006926746
0.0096415453
0.013064254
0.017260964
0.022307576
0.028290594
0.035242751
0.043115331
0.05177067
0.060875118
0.069751763
0.077220649
0.081390061
0.079528805
0.068504229
0.047583049
0.024190309
0.011422109
0.0077322828
0.0066294772
0.0060751536
0.0056926431
0.0054383975
0.0052501686
0.0051313969
0.0050503731
0.0049983687
0.0049706204
0.0033555348
0.0039817433
0.0052600968
0.0072233103
0.0098517408
0.013168035
0.017234871
0.022118684
0.027916105
0.034660424
0.042325529
0.050783607
0.059727154
0.068524359
0.07606425
0.080532851
0.07928661
0.069196388
0.049011864
0.025367092
0.011781015
0.0077984186
0.0066494647
0.0060880921
0.0057031059
0.0054456933
0.0052546805
0.0051341849
0.0050520929
0.0049995363
0.0049715355
0.0038435644
0.0044774855
0.0057111501
0.0076009994
0.010137368
0.013341152
0.017271898
0.021988899
0.027593837
0.03412984
0.041584128
0.049825813
0.058592225
0.067284353
0.074879344
0.079623446
0.078971238
0.069814636
0.050438272
0.026631948
0.012188572
0.0078726763
0.0066745168
0.0061005324
0.005712469
0.0054534904
0.0052594396
0.0051370481
0.005053907
0.005000774
0.0049724918
0.0044256671
0.0050643771
0.0062600594
0.008076079
0.010502633
0.013584603
0.017372934
0.021920336
0.02732682
0.033650075
0.040877338
0.048901057
0.057478084
0.06606499
0.07367371
0.078665197
0.078581966
0.070347935
0.051861435
0.027990475
0.012644437
0.0079538344
0.0066944197
0.0061131103
0.0057239381
0.005461356
0.0052644129
0.0051401764
0.0050557995
0.0050020517
0.0049734849
0.005130933
0.0057551602
0.0068943422
0.0086140537
0.010938275
0.013893627
0.017534367
0.021910456
0.027114074
0.033219122
0.040204146
0.048009968
0.05638819
0.06484801
0.072451767
0.077662302
0.078120829
0.070790297
0.053267504
0.029421344
0.013165375
0.0080506352
0.0067244933
0.0061276242
0.0057342819
0.005469931
0.0052697554
0.0051433135
0.0050577511
0.0050034093
0.0049745112
0.0059713036
0.0065554195
0.0076143382
0.0092251406
0.011432064
0.01425678
0.017747124
0.021951742
0.026951319
0.032837412
0.039590907
0.047158655
0.055325288
0.06363485
0.071217425
0.076619204
0.077591423
0.071149479
0.054662613
0.030978133
0.013744548
0.0081580008
0.0067470675
0.0061385557
0.0057457776
0.0054780389
0.0052750576
0.0051468331
0.0050598388
0.0050047836
0.0049755665
0.0069288535
0.0074570125
0.0084196198
0.0099116964
0.011988164
0.014663472
0.017997628
0.022031353
0.026829274
0.032497324
0.039016865
0.046343067
0.054290286
0.062436124
0.069975343
0.075539789
0.076992896
0.071424374
0.05601192
0.032599505
0.014409133
0.0083011569
0.006776844
0.0061553845
0.0057580784
0.0054872583
0.0052810379
0.005150258
0.0050618915
0.0050062493
0.0049766497
0.0080054684
0.0084618967
0.0093039454
0.01064958
0.012567016
0.015093352
0.018268695
0.022133053
0.026735083
0.032189221
0.038479488
0.045578503
0.053287381
0.061254299
0.068725699
0.074427044
0.076325237
0.071598481
0.057286779
0.034260146
0.015136724
0.0084357594
0.0068143273
0.0061673091
0.005768115
0.005495296
0.0052865025
0.0051541745
0.0050642063
0.0050076965
0.0049777579
0.0091413131
0.0095225978
0.010239847
0.011419749
0.013159917
0.015525507
0.018539756
0.022237988
0.026653252
0.031900319
0.037964993
0.044817227
0.052307737
0.060088184
0.067464423
0.073283415
0.07559116
0.071672049
0.058477763
0.03599228
0.015968079
0.0086217304
0.0068367749
0.0061814344
0.0057823294