/*--------------------------------*- C++ -*----------------------------------*\
| =========                 |                                                 |
| \\      /  F ield         | OpenFOAM: The Open Source CFD Toolbox           |
|  \\    /   O peration     | Version:  2406                                  |
|   \\  /    A nd           | Website:  www.openfoam.com                      |
|    \\/     M anipulation  |                                                 |
\*---------------------------------------------------------------------------*/
FoamFile
{
    version     2.0;
    format      ascii;
    arch        "LSB;label=32;scalar=64";
    class       surfaceScalarField;
    location    "0.048";
    object      phi;
}
// * * * * * * * * * * * * * * * * * * * * * * * * * * * * * * * * * * * * * //

dimensions      [1 0 -1 0 0 0 0];

oriented        oriented;

internalField   nonuniform List<scalar> 
16284
(
0.010508121
-0.014649589
0.015096439
-0.010954912
0.010065031
-0.017201163
0.017644314
0.0096003838
-0.020128848
0.020593546
0.0091174477
-0.023512154
0.023995131
0.0086235387
-0.027420368
0.027914305
0.0081288727
-0.03192022
0.032414886
0.0076450652
-0.037087022
0.037570807
0.0071818368
-0.043010306
0.043473491
0.0067453417
-0.049811636
0.050248073
0.0063380151
-0.05763221
0.058039471
0.0059603351
-0.0666005
0.06697811
0.0056077637
-0.076881146
0.077233647
0.0052700508
-0.088639062
0.088976719
0.0049295788
-0.10199576
0.1023362
0.004557378
-0.11679023
0.11716242
0.0040854205
-0.13265822
0.13313015
0.0035027982
-0.14879396
0.14937652
0.0029827596
-0.16612774
0.16664767
0.0025992692
-0.18703435
0.18741776
0.0022769112
-0.21129916
0.21162141
0.0019871986
-0.2388526
0.23914218
0.0017214144
-0.27012818
0.27039386
0.001477781
-0.30551543
0.30575895
0.0012543746
-0.3454912
0.34571453
0.0010520372
-0.39106969
0.391272
0.00086478396
-0.44280546
0.44299273
0.0006881136
-0.50163073
0.50180745
0.00051849444
-0.56840131
0.56857103
0.0003501265
-0.64424258
0.64441099
0.00017958634
-0.73056992
0.73074044
-0.82866034
0.8288399
0.011648378
-0.014257828
-0.012040082
0.011208223
-0.016760951
0.010741268
-0.019661845
0.010251274
-0.023022127
0.0097429694
-0.026912052
0.0092254916
-0.031402749
0.0087104673
-0.036572028
0.008209681
-0.042509571
0.0077297389
-0.049331759
0.0072740414
-0.057176587
0.0068451926
-0.066171731
0.0064400151
-0.076476047
0.0060482026
-0.088247309
0.005646338
-0.10159393
0.0052031438
-0.11634703
0.0046415612
-0.13209665
0.0039610655
-0.14811353
0.0033782836
-0.16554509
0.00294906
-0.18660521
0.0025841897
-0.21093442
0.0022554652
-0.23852403
0.0019537187
-0.26982656
0.0016770015
-0.30523885
0.0014236519
-0.34523794
0.0011941247
-0.39084019
0.00098161108
-0.44259294
0.00078110301
-0.50143015
0.0005884947
-0.56820859
0.00039736866
-0.64405141
0.00020366656
-0.73037623
-0.82845671
0.012787922
-0.013915101
-0.013130603
0.012388308
-0.016361294
0.011945041
-0.019218542
0.011466159
-0.022543223
0.010958128
-0.026404016
0.010429918
-0.030874554
0.0098930014
-0.036035147
0.0093602891
-0.041976914
0.0088405055
-0.048812046
0.0083370597
-0.056673221
0.0078549933
-0.065689751
0.0073923591
-0.076013494
0.0069390242
-0.087794032
0.006466359
-0.10112129
0.0059385085
-0.11581917
0.0052685629
-0.13142673
0.0044790716
-0.1473241
0.0038368642
-0.16490301
0.0033569108
-0.18612536
0.0029428147
-0.21052046
0.0025685641
-0.23814996
0.0022245484
-0.26948269
0.0019088618
-0.30492331
0.001620322
-0.34494951
0.0013588406
-0.39057874
0.0011167897
-0.44235086
0.000888546
-0.50120184
0.00066930993
-0.56798922
0.0004519725
-0.64383402
0.00023160097
-0.73015588
-0.82822516
0.013943631
-0.013630306
-0.014228397
0.01359993
-0.016017567
0.013201327
-0.018819921
0.012753849
-0.022095736
0.012264154
-0.025914327
0.011740911
-0.030351334
0.011195279
-0.035489556
0.010640225
-0.04142192
0.010086106
-0.048258002
0.0095380243
-0.056125225
0.0090021192
-0.065153936
0.0084778276
-0.075489284
0.007955161
-0.087271419
0.0074006886
-0.10056684
0.0067709909
-0.11518946
0.0059703136
-0.13062607
0.0050602444
-0.1464141
0.0043584767
-0.16420139
0.0038192939
-0.18558628
0.0033486942
-0.21005003
0.0029226384
-0.23772411
0.0025306137
-0.26909083
0.0021707388
-0.30456362
0.0018425375
-0.34462145
0.0015450195
-0.39028126
0.0012696312
-0.44207545
0.0010100797
-0.50094219
0.00076070151
-0.56773969
0.00051370697
-0.64358696
0.00026310052
-0.72990529
-0.82796212
0.015111993
-0.013412047
-0.015330244
0.014834891
-0.015740459
0.014497243
-0.018482274
0.014100795
-0.021699296
0.013649674
-0.025463226
0.013150663
-0.029852357
0.012613469
-0.034952412
0.012050061
-0.040858578
0.011471447
-0.047679468
0.010884781
-0.05553865
0.010296738
-0.064565984
0.0097078455
-0.074900468
0.009107938
-0.086671555
0.0084586539
-0.099917561
0.0077046406
-0.11443541
0.0067481261
-0.12966958
0.005711608
-0.14537764
0.0049504905
-0.16344043
0.0043448384
-0.18498075
0.0038106838
-0.20951606
0.0033263147
-0.23723997
0.0028798291
-0.26864454
0.002469606
-0.30415362
0.0020962987
-0.34424832
0.0017576166
-0.38994263
0.0014441321
-0.44176193
0.0011488291
-0.50064679
0.00086498369
-0.56745568
0.00058421115
-0.6433061
0.00029905953
-0.72962016
-0.82766313
0.016283318
-0.013267579
-0.0164278
0.016082693
-0.015539854
0.015819998
-0.018219602
0.015492564
-0.02137189
0.015100418
-0.025071116
0.01464674
-0.029398724
0.014138201
-0.034443932
0.013584437
-0.040304886
0.012995716
-0.04709083
0.012380174
-0.054923196
0.011744597
-0.063930493
0.011089861
-0.074245798
0.010404752
-0.085986476
0.009644941
-0.099157741
0.0087381793
-0.1135286
0.0075983101
-0.12852972
0.0064415942
-0.14422098
0.0056201842
-0.16261917
0.004940609
-0.18430131
0.0043345925
-0.20891025
0.0037844953
-0.23669012
0.0032763099
-0.26813656
0.0028088856
-0.30368644
0.0023845436
-0.3438242
0.0019991384
-0.38955728
0.0016423998
-0.44140516
0.0013065044
-0.50031077
0.00098343883
-0.56713242
0.00066433802
-0.6429869
0.0003398495
-0.72929568
-0.82732338
0.017453302
-0.01320176
-0.017519155
0.017336512
-0.015423102
0.017160098
-0.018043229
0.016916819
-0.021128655
0.016601975
-0.02475632
0.016214133
-0.029010938
0.015755537
-0.0339854
0.015231912
-0.039781335
0.014650947
-0.046509945
0.014019851
-0.054292182
0.013344335
-0.063255049
0.012624189
-0.073525699
0.011845193
-0.085207487
0.010955049
-0.098267569
0.0098588884
-0.11243238
0.008512846
-0.12718366
0.0072626045
-0.14297079
0.0063744875
-0.16173119
0.0056142603
-0.18354122
0.004927846
-0.20822406
0.0043043377
-0.23606689
0.0037266815
-0.26755914
0.0031945679
-0.30315463
0.0027125555
-0.34334247
0.0022741052
-0.38911889
0.0018681896
-0.44099919
0.0014860936
-0.49992854
0.001118295
-0.5667644
0.00075565538
-0.64262415
0.00038628048
-0.72892631
-0.82693721
0.018634029
-0.01321493
-0.018620903
0.018603212
-0.015392331
0.018517433
-0.017957498
0.018366603
-0.020977875
0.018141805
-0.024531574
0.017836446
-0.028705637
0.017447141
-0.033596156
0.016974047
-0.039308306
0.01642011
-0.045956074
0.015789087
-0.053661222
0.015083358
-0.062549367
0.014298874
-0.072741235
0.013414342
-0.084322934
0.012367754
-0.097220932
0.011038195
-0.11110273
0.0094815321
-0.12562695
0.0081827157
-0.14167201
0.0072203438
-0.16076894
0.0063726601
-0.18269369
0.0055973279
-0.20744897
0.0048921854
-0.23536204
0.004236667
-0.26690387
0.0036318242
-0.30255013
0.0030848207
-0.3427958
0.0025863992
-0.38862054
0.0021248072
-0.44053754
0.0016902361
-0.49949383
0.0012715377
-0.56634547
0.00085951913
-0.64221198
0.00043900257
-0.72850579
-0.82649836
0.019835628
-0.013300628
-0.019749964
0.019887122
-0.015443859
0.019890999
-0.017961412
0.019834848
-0.02092176
0.01970641
-0.024403176
0.019494101
-0.028493369
0.019188409
-0.033290507
0.018782741
-0.038902682
0.018273276
-0.045446649
0.017657454
-0.053045433
0.016931035
-0.061822965
0.016081196
-0.071891383
0.015069875
-0.083311561
0.013831546
-0.095982533
0.012230184
-0.10950126
0.010505051
-0.12390174
0.00920511
-0.14037207
0.0081643177
-0.15972825
0.0072211614
-0.18175069
0.006350032
-0.20657808
0.0055547339
-0.23456703
0.0048127784
-0.26616217
0.0041269564
-0.30186469
0.0035069291
-0.34217618
0.0029409628
-0.38805466
0.0024165262
-0.44001304
0.0019223459
-0.4989995
0.0014457304
-0.5658686
0.00097770516
-0.64174378
0.00049898817
-0.72802706
-0.82599955
0.021068707
-0.013447194
-0.02092215
0.021190945
-0.015566106
0.02127628
-0.018046756
0.021310342
-0.020955834
0.02127672
-0.024369564
0.02115925
-0.028375911
0.020942727
-0.033073995
0.020613463
-0.038573427
0.020159325
-0.044992517
0.019568541
-0.052454646
0.018826166
-0.061080573
0.017904197
-0.07096937
0.016740629
-0.082147912
0.01524
-0.094481814
0.013362117
-0.10762325
0.011597856
-0.12213735
0.010322095
-0.13909626
0.009210453
-0.1586167
0.008161737
-0.18070211
0.0071930901
-0.20560966
0.0062975162
-0.23367174
0.005460698
-0.26532559
0.0046856332
-0.30109004
0.0039839597
-0.34147499
0.0033424173
-0.38741323
0.0027474959
-0.43941806
0.0021857574
-0.49843761
0.0016434128
-0.56532599
0.0011119024
-0.64121205
0.00056718234
-0.72748231
-0.82543258
0.022333607
-0.01364911
-0.022131675
0.022515635
-0.015748117
0.022667114
-0.018198215
0.022773426
-0.021062125
0.022817849
-0.024413965
0.02278176
-0.0283398
0.022645234
-0.032937445
0.022387399
-0.038315567
0.021986176
-0.044591265
0.021417074
-0.051885512
0.020649347
-0.060312806
0.019628961
-0.069948926
0.018248766
-0.080767627
0.016418972
-0.092651922
0.01444214
-0.1056463
0.012839954
-0.12053498
0.01155261
-0.13780878
0.010337995
-0.15740212
0.0092063114
-0.17957055
0.0081114075
-0.20451496
0.0071154703
-0.23267602
0.0061859052
-0.26439622
0.005313552
-0.30021812
0.0045212957
-0.34068331
0.0037958528
-0.38668794
0.0031223749
-0.43874452
0.002484298
-0.4977994
0.0018675988
-0.56470902
0.001264055
-0.64060824
0.00064483289
-0.72686302
-0.82478801
0.023522141
-0.013882403
-0.023288819
0.023743092
-0.015969035
0.023940739
-0.018395825
0.024099189
-0.021220536
0.024200687
-0.024515422
0.024224807
-0.028363875
0.024147811
-0.032860402
0.023941624
-0.038109331
0.023572152
-0.044221744
0.02299673
-0.051310047
0.02215965
-0.059475689
0.020972952
-0.068762188
0.01933264
-0.079127264
0.017325447
-0.09064467
0.015554942
-0.10387568
0.014144324
-0.1191241
0.012804957
-0.13646914
0.011560075
-0.15615719
0.010323531
-0.17833409
0.0091566549
-0.20334821
0.0080392338
-0.23155871
0.0069799839
-0.26333709
0.006015267
-0.29925383
0.0051234137
-0.33979212
0.0043056603
-0.38587042
0.0035452684
-0.43798411
0.0028214522
-0.4970755
0.0021213577
-0.56400867
0.0014360095
-0.63992257
0.00073316326
-0.72616007
-0.82405516
0.024456989
-0.014117896
-0.024221472
0.024680978
-0.016192997
0.024881972
-0.018596789
0.025047106
-0.021385636
0.025159226
-0.024627502
0.025196538
-0.02840114
0.025131364
-0.032795176
0.024926867
-0.03790478
0.02453375
-0.043828579
0.023885207
-0.050661471
0.022897805
-0.058488286
0.02150974
-0.067374145
0.019825699
-0.077443249
0.018220215
-0.0890392
0.016814284
-0.10246968
0.015483805
-0.1177933
0.014177544
-0.13516248
0.012851245
-0.15483069
0.011535244
-0.17701802
0.010244
-0.2020569
0.0090353178
-0.23034997
0.0078818403
-0.26218364
0.0067834196
-0.29815578
0.005790562
-0.33880001
0.0048764793
-0.38495669
0.0040200354
-0.43712772
0.0032006051
-0.49625605
0.0024081087
-0.56321594
0.0016298313
-0.63914391
0.00083306489
-0.72536315
-0.82322246
0.02431606
-0.014316684
-0.024117264
0.024502884
-0.016379806
0.024669186
-0.018763069
0.024810791
-0.021527207
0.024917483
-0.024734149
0.024958752
-0.028442351
0.024891416
-0.032727773
0.024667463
-0.037680751
0.024236838
-0.043397881
0.023547345
-0.049971926
0.022584637
-0.057525586
0.021425727
-0.066215299
0.020274712
-0.076292302
0.019195504
-0.087960043
0.018077742
-0.10135193
0.016843328
-0.11655866
0.015519773
-0.13383846
0.014177532
-0.15348806
0.012792628
-0.17563276
0.011437552
-0.20070153
0.010114445
-0.22902652
0.0088366536
-0.26090566
0.0076487688
-0.29696819
0.0065368623
-0.33768889
0.0055058417
-0.38392611
0.0045452057
-0.43616729
0.0036252347
-0.49533618
0.0027311944
-0.56232169
0.0018475525
-0.63825982
0.0009447091
-0.72446006
-0.82227817
0.023221481
-0.014559725
-0.022978458
0.023449673
-0.016608022
0.023640865
-0.018954292
0.023764349
-0.021650731
0.023794227
-0.024764069
0.02372943
-0.028377592
0.023570691
-0.032569057
0.023328717
-0.037438773
0.023019936
-0.043089063
0.022623157
-0.049575083
0.022146461
-0.057048852
0.021603659
-0.065672483
0.020986158
-0.075674787
0.020208958
-0.087182821
0.019231917
-0.10037489
0.018104733
-0.11543133
0.016853877
-0.13258722
0.015498474
-0.15213218
0.014086948
-0.17422058
0.012651902
-0.19926579
0.011249469
-0.22762337
0.0098795266
-0.2595352
0.0085624314
-0.29565128
0.0073539578
-0.33648127
0.0062136731
-0.3827863
0.0051415584
-0.43509554
0.0040989341
-0.49429382
0.0030901431
-0.56131274
0.0020915353
-0.63726067
0.0010662069
-0.72343439
-0.82121244
0.020858965
-0.014863374
-0.020555326
0.021191457
-0.016940527
0.021554057
-0.019316908
0.021942543
-0.022039234
0.02232941
-0.025150957
0.022674612
-0.028722824
0.022920474
-0.032814969
0.022961423
-0.037479808
0.022784507
-0.042912237
0.022501305
-0.049291949
0.022240429
-0.056788031
0.021969826
-0.06540193
0.021555238
-0.075260261
0.020942564
-0.086570085
0.020151546
-0.099583663
0.019182951
-0.1144625
0.018035884
-0.13143974
0.016742656
-0.15083845
0.015346158
-0.17282325
0.013898153
-0.19781671
0.012434112
-0.22615824
0.01097998
-0.25808016
0.0095708813
-0.29424211
0.0082438777
-0.33515494
0.0069779781
-0.38152101
0.0057850561
-0.43390321
0.0046234655
-0.49313269
0.0034954871
-0.56018468
0.0023641123
-0.63612865
0.0011988843
-0.72226869
-0.82001407
0.019294408
-0.015103493
-0.019054286
0.019553731
-0.017199843
0.019832416
-0.019595582
0.020128111
-0.022334915
0.020444727
-0.025467563
0.020782234
-0.029060327
0.021167519
-0.033200255
0.021663861
-0.037976153
0.022141785
-0.043390197
0.02240945
-0.049559785
0.022330626
-0.056709463
0.022055898
-0.065127497
0.021754728
-0.074959566
0.021367211
-0.086182857
0.020758854
-0.098975232
0.019964338
-0.11366764
0.018995059
-0.13046969
0.017809275
-0.14965173
0.016510549
-0.17152365
0.015100704
-0.19640574
0.013616211
-0.22467244
0.01211356
-0.25657631
0.010606081
-0.2927342
0.0091937439
-0.33374307
0.0078221484
-0.38015032
0.006508308
-0.43259022
0.0052049678
-0.49183003
0.0039366796
-0.55891649
0.0026676256
-0.63485887
0.0013476267
-0.72094802
-0.81866697
0.019053244
-0.015346444
-0.018810272
0.019314345
-0.01746092
0.019593013
-0.019874221
0.019888982
-0.022630854
0.020204974
-0.02578352
0.020538617
-0.029393935
0.020871212
-0.033532817
0.021177539
-0.038282459
0.021509383
-0.043722038
0.021951761
-0.050002113
0.022351651
-0.057109226
0.022363013
-0.065138757
0.021954552
-0.074551155
0.021464876
-0.085693794
0.020978859
-0.098489744
0.02038176
-0.1130713
0.019614679
-0.12970232
0.018630997
-0.14866654
0.017486475
-0.17037795
0.016196732
-0.19511502
0.014760327
-0.223235
0.013254128
-0.25506901
0.011699299
-0.29117872
0.010200267
-0.33224448
0.0087143581
-0.3786656
0.0072698491
-0.43114692
0.0058388138
-0.49039999
0.0044256316
-0.55750371
0.0030045532
-0.63343702
0.001513389
-0.7194559
-0.81715401
0.018181004
-0.015574543
-0.017952858
0.018431289
-0.01771115
0.018703319
-0.020146186
0.01899552
-0.02292298
0.019303268
-0.026091181
0.019617237
-0.029707803
0.019922625
-0.033838089
0.020197988
-0.038557682
0.0204391
-0.043962968
0.020597795
-0.050160558
0.020800372
-0.057311428
0.021299109
-0.065636888
0.021697552
-0.074948353
0.021504643
-0.08549821
0.021069886
-0.098053552
0.020588396
-0.11259239
0.020017018
-0.12913319
0.019249357
-0.14789861
0.018274227
-0.1694014
0.017126236
-0.19396613
0.01579325
-0.22190154
0.01433493
-0.25361021
0.012773512
-0.28961694
0.011237169
-0.33070874
0.0096616251
-0.37709145
0.0080959182
-0.4295829
0.0065245521
-0.48883002
0.0049467083
-0.5559267
0.0033695085
-0.63185909
0.0016971597
-0.71778222
-0.81545701
0.017867378
-0.015790429
-0.017651426
0.018104267
-0.017947964
0.018363022
-0.020404855
0.018644077
-0.023203935
0.018947881
-0.026394869
0.019275392
-0.030035178
0.019629071
-0.034191606
0.02001244
-0.038940851
0.020418812
-0.044369081
0.020833663
-0.050575048
0.021186391
-0.057663578
0.021299846
-0.065749108
0.021452026
-0.075096893
0.021719074
-0.085750718
0.021493887
-0.097820445
0.020919593
-0.11203434
0.020327056
-0.1285446
0.019739123
-0.14731277
0.01892865
-0.16859065
0.017907258
-0.19294411
0.016709733
-0.22070385
0.015339873
-0.25224056
0.013833192
-0.28811052
0.012269725
-0.32914602
0.010631205
-0.37545453
0.0089397265
-0.42789355
0.0072420685
-0.48713427
0.0055089119
-0.55419485
0.0037519132
-0.63010143
0.0018980631
-0.71592662
-0.81355864
0.016887442
-0.015993153
-0.016684663
0.017112191
-0.01817265
0.01735981
-0.020652402
0.017630794
-0.023474836
0.017924566
-0.026688544
0.018238793
-0.030349292
0.01856821
-0.034520888
0.018904405
-0.039276883
0.019239461
-0.044703945
0.019569409
-0.050904786
0.019907237
-0.058001269
0.02028911
-0.066131387
0.020606049
-0.075416975
0.021021064
-0.086181848
0.021550474
-0.098358173
0.021504049
-0.11196305
0.020854365
-0.12788737
0.020137707
-0.14659546
0.019474564
-0.16792903
0.018606923
-0.19207773
0.017523226
-0.21962062
0.01623816
-0.25095541
0.014810175
-0.28668301
0.01326427
-0.32760095
0.011594403
-0.37378615
0.0098030415
-0.4261046
0.0079720513
-0.48530579
0.0060821933
-0.55230675
0.0041500814
-0.6281688
0.0021145897
-0.71388912
-0.81144318
0.016413916
-0.016183277
-0.016223696
0.016624936
-0.018383556
0.016858461
-0.020885791
0.017115941
-0.023732154
0.017398736
-0.026971143
0.017708111
-0.030658429
0.0180456
-0.034858088
0.018412943
-0.039643875
0.018809178
-0.045099754
0.019225474
-0.051320571
0.019639021
-0.058414205
0.020015573
-0.066507188
0.020357346
-0.075757669
0.02045558
-0.086277844
0.020501139
-0.098401045
0.020952677
-0.11241541
0.021122469
-0.1280545
0.020616901
-0.14608725
0.019921054
-0.16723343
0.019158163
-0.19131496
0.018244324
-0.21870796
0.017036779
-0.24974735
0.015696696
-0.28534233
0.014185797
-0.32609055
0.012487663
-0.37208924
0.010623213
-0.42424247
0.0086767157
-0.48336224
0.0066647525
-0.55029691
0.0045570893
-0.62606088
0.0023405696
-0.71167068
-0.80910132
0.015217368
-0.016356926
-0.01504362
0.015410853
-0.018576927
0.015625346
-0.02110015
0.015861989
-0.02396864
0.016121425
-0.02723039
0.016403499
-0.030940275
0.016706869
-0.035161179
0.017028802
-0.039965462
0.017364866
-0.045435381
0.017711698
-0.051666856
0.018071439
-0.058773264
0.018447632
-0.066882562
0.018829817
-0.076138966
0.019290526
-0.086737809
0.019727706
-0.098837171
0.019969523
-0.11265676
0.020415487
-0.12850224
0.020616112
-0.14628771
0.02014826
-0.16676536
0.019372695
-0.19053977
0.018514931
-0.21785081
0.017625071
-0.24885767
0.016473287
-0.28418838
0.014989881
-0.3246064
0.013288039
-0.37038814
0.011388742
-0.42234498
0.0093423876
-0.48131877
0.0072053533
-0.54816219
0.0049517944
-0.62380759
0.0025678786
-0.70928543
-0.80653203
0.01472096
-0.016516117
-0.014561616
0.01489854
-0.018754334
0.015096024
-0.021297437
0.015314953
-0.024187342
0.015556804
-0.027471982
0.01582294
-0.031206111
0.016114489
-0.035452382
0.016432031
-0.040282597
0.016775951
-0.045778791
0.017143996
-0.052034237
0.017526687
-0.059155093
0.017909821
-0.067264689
0.018278222
-0.076506245
0.018572405
-0.087030879
0.018775947
-0.099039854
0.018886662
-0.11276601
0.018925518
-0.12854097
0.019301249
-0.14666818
0.019596027
-0.16706497
0.019281972
-0.19022749
0.018570177
-0.21713922
0.017823677
-0.24811179
0.017017308
-0.28337776
0.015643235
-0.32322835
0.013911818
-0.36865526
0.011994985
-0.42042906
0.009901171
-0.47922686
0.0076824816
-0.54594581
0.0053138483
-0.62143988
0.0027811672
-0.70675233
-0.80374974
0.013490421
-0.016660724
-0.013345698
0.013652468
-0.018916246
0.013833397
-0.021478202
0.014034868
-0.024388612
0.014258443
-0.027695309
0.014505398
-0.031452758
0.014776484
-0.035723082
0.015071209
-0.040576846
0.015388832
-0.046095871
0.015729292
-0.052374127
0.016092658
-0.059517926
0.016479154
-0.067650717
0.016889884
-0.076916733
0.017341075
-0.08748231
0.017830987
-0.099531029
0.018326597
-0.11326489
0.018687521
-0.12890564
0.018845286
-0.14682823
0.019113819
-0.16733914
0.01932341
-0.19044061
0.018861153
-0.21667186
0.01802205
-0.24727329
0.017043307
-0.28239405
0.015797573
-0.3219722
0.014210951
-0.36706211
0.012357714
-0.41857492
0.010274499
-0.47714416
0.0080145752
-0.54368732
0.0055908727
-0.61901732
0.0029557648
-0.70411784
-0.80079362
0.012874149
-0.0167806
-0.012754317
0.013007854
-0.019049995
0.0131567
-0.021627097
0.013321842
-0.024553813
0.013504438
-0.027877984
0.013705754
-0.031654184
0.013927303
-0.035944794
0.014171424
-0.040821205
0.014440334
-0.046365127
0.014735877
-0.052670174
0.015060863
-0.059843647
0.015416771
-0.068007664
0.015798781
-0.077300077
0.016189355
-0.087874407
0.016550846
-0.09989378
0.016848107
-0.1135622
0.017089265
-0.1291456
0.01711477
-0.14685096
0.016877233
-0.16709369
0.016908544
-0.1904673
0.017274808
-0.21703758
0.017278649
-0.24727196
0.0164185
-0.28153552
0.015292045
-0.32084823
0.013927515
-0.36569092
0.012261102
-0.41690503
0.010361658
-0.47524455
0.0081608426
-0.5414863
0.0057344898
-0.61659173
0.0030594669
-0.70144431
-0.79773462
0.011277705
-0.016874132
-0.011184209
0.011383335
-0.019155678
0.011502443
-0.02174628
0.011636477
-0.024687951
0.011786842
-0.028028485
0.011954761
-0.031822279
0.012140932
-0.03613119
0.012344984
-0.041025548
0.012564852
-0.046585369
0.012796104
-0.0529019
0.013031532
-0.060079654
0.013261729
-0.068238534
0.013475444
-0.077514605
0.013668287
-0.088068232
0.013860311
-0.10008698
0.014079723
-0.11378276
0.014331223
-0.1293973
0.014716312
-0.14723499
0.015098841
-0.16747362
0.015240526
-0.19060724
0.015225302
-0.2170293
0.015039104
-0.24710189
0.014742793
-0.28124796
0.014037178
-0.32012623
0.01305753
-0.36470195
0.011727773
-0.41557232
0.010052074
-0.47356844
0.0080356357
-0.53946856
0.0057118177
-0.6142682
0.003083812
-0.6988183
-0.79465163
0.011253384
-0.016947917
-0.011179583
0.011336254
-0.019238524
0.011429298
-0.021839286
0.011533671
-0.024792267
0.011650629
-0.028145362
0.01178149
-0.031953024
0.011927674
-0.036277214
0.012090759
-0.041188409
0.012272504
-0.046766796
0.012474723
-0.053103662
0.012698789
-0.060303044
0.0129453
-0.068484059
0.013215884
-0.07778386
0.013508541
-0.088359102
0.013810542
-0.10038665
0.014098576
-0.11406818
0.014331657
-0.12962851
0.014433325
-0.14733715
0.014510905
-0.16755623
0.014428991
-0.19053127
0.014103368
-0.21670428
0.013549646
-0.24654035
0.013092383
-0.28078694
0.012676198
-0.31972547
0.011982339
-0.36402031
0.010895011
-0.41448425
0.0094634587
-0.47213081
0.0076616042
-0.53766273
0.0054670993
-0.61207342
0.0029901425
-0.69634334
-0.79166266
0.010770237
-0.017010105
-0.010708068
0.010839945
-0.019308266
0.010917925
-0.021917321
0.011004934
-0.024879363
0.011101767
-0.028242325
0.011209257
-0.032060702
0.011328277
-0.036396503
0.011459746
-0.041320256
0.011604615
-0.046912195
0.011763769
-0.053263549
0.011937522
-0.060477812
0.01212403
-0.068671922
0.012317386
-0.077978832
0.012510373
-0.08855387
0.012696647
-0.10057468
0.012870673
-0.11424362
0.013033485
-0.12979202
0.013173133
-0.14747655
0.013231115
-0.16761291
0.01325509
-0.19055389
0.013235674
-0.21668293
0.013096101
-0.24639514
0.012489747
-0.28017861
0.011657858
-0.31890095
0.01080996
-0.36317894
0.0098394744
-0.41350501
0.0085186298
-0.47080126
0.0069019445
-0.53604332
0.0049586219
-0.6101315
0.0027129621
-0.69409883
-0.78895021
0.0096955964
-0.017036161
-0.0096694057
0.0097246231
-0.01933715
0.0097561567
-0.021948704
0.0097901414
-0.02491319
0.0098264117
-0.02827843
0.0098646601
-0.032098779
0.0099044134
-0.036436076
0.0099450405
-0.04136069
0.0099858387
-0.046952771
0.010026282
-0.053303718
0.010066385
-0.060517545
0.010107939
-0.068712956
0.010154551
-0.078024694
0.010207524
-0.088605751
0.010264666
-0.10063025
0.010322361
-0.11429911
0.010375705
-0.12984248
0.010425484
-0.14752308
0.010452819
-0.16763718
0.010440096
-0.19053851
0.010385811
-0.21662656
0.010383221
-0.24639378
0.010439058
-0.28023383
0.010164226
-0.31862315
0.0094381537
-0.36245245
0.0084977873
-0.41256956
0.0073659389
-0.46967693
0.0059701463
-0.53465133
0.0042967505
-0.60846234
0.0023200084
-0.6921214
-0.78663025
0.0095440566
-0.0095407372
0.0095479316
0.0095529885
0.0095596052
0.0095682376
0.0095794098
0.0095936768
0.0096115449
0.009633322
0.0096588841
0.0096875811
0.0097184916
0.0097523004
0.0097862067
0.0098172729
0.0098414481
0.0098524312
0.0098413059
0.0097998539
0.009710354
0.0095448955
0.0092420303
0.0088266971
0.0084045881
0.0079377874
0.0072619129
0.0063451217
0.0051728155
0.0037333889
0.0020139196
0.011586951
-0.011381641
0.009062893
-0.0092682899
0.013333204
-0.014635271
0.012888914
0.01464144
-0.017905308
0.016596971
0.015686604
-0.021520148
0.02047488
0.016600675
-0.02565705
0.024742861
0.017445916
-0.030431759
0.029586383
0.018228813
-0.035915865
0.035132845
0.018967018
-0.042179812
0.041441503
0.019662135
-0.049376353
0.048681156
0.020291325
-0.057618565
0.056989323
0.020835697
-0.067035624
0.066491223
0.021283889
-0.077785997
0.07733779
0.021626441
-0.090048864
0.089706293
0.021851103
-0.10400146
0.10377676
0.021940161
-0.11982158
0.11973247
0.021832516
-0.13753438
0.13764197
0.021462759
-0.15694063
0.15731033
0.020727088
-0.17754981
0.17828543
0.019559643
-0.19820003
0.19936746
0.018318299
-0.21999413
0.22123549
0.017194146
-0.24605573
0.24717988
0.016064068
-0.2766282
0.27775824
0.014864236
-0.31140666
0.31260639
0.013569469
-0.35092035
0.352215
0.012170174
-0.39587346
0.39727267
0.010643513
-0.44710623
0.44863283
0.008963713
-0.50551371
0.50719347
0.0070974273
-0.57199349
0.57385971
0.0050098127
-0.64768834
0.64977591
0.0026593566
-0.7339894
0.73633978
-0.83229162
0.83495119
0.012753338
-0.012840018
-0.011295062
0.013742749
-0.015624781
0.014562157
-0.018724827
0.015327109
-0.022285227
0.016084182
-0.026414261
0.016832627
-0.03118034
0.017554113
-0.036637476
0.018242838
-0.042868637
0.01888102
-0.05001461
0.019446766
-0.05818436
0.019929106
-0.06751799
0.020320662
-0.078177569
0.020613257
-0.090341485
0.020795098
-0.10418335
0.02084805
-0.11987459
0.020703283
-0.13738967
0.02030347
-0.1565409
0.019537862
-0.17678426
0.018372652
-0.19703484
0.017203259
-0.21882469
0.016149164
-0.24500165
0.015080439
-0.27555951
0.013944879
-0.31027121
0.012721529
-0.3496971
0.011402765
-0.39455477
0.0099667729
-0.44567031
0.0083894415
-0.50393643
0.0066396154
-0.57024374
0.004684531
-0.6457333
0.0024862009
-0.73179115
-0.82980524
0.012315488
-0.013650081
-0.011505533
0.013033585
-0.016342996
0.013762658
-0.019454025
0.014520257
-0.02304296
0.015281625
-0.027175764
0.016017138
-0.031915982
0.016711486
-0.03733194
0.017361092
-0.043518336
0.017947517
-0.050601103
0.018459797
-0.058696681
0.018890908
-0.067949124
0.019235521
-0.0785222
0.019486401
-0.090592398
0.019632386
-0.10432938
0.019654152
-0.11989642
0.019480101
-0.13721569
0.019060461
-0.15612134
0.018272024
-0.1759959
0.017128957
-0.1958918
0.016040257
-0.21773598
0.015053456
-0.24401487
0.014046506
-0.27455259
0.012977899
-0.3092027
0.011829345
-0.34854864
0.010594977
-0.39332047
0.0092541751
-0.44432957
0.0077846484
-0.50246695
0.0061573599
-0.56861652
0.0043419369
-0.64391792
0.002303345
-0.72975263
-0.8275017
0.011417799
-0.014386125
-0.010681863
0.012177669
-0.017102983
0.012945799
-0.020222281
0.013705601
-0.023802894
0.014441006
-0.027911303
0.015137815
-0.032612917
0.015787972
-0.037982207
0.016385987
-0.044116436
0.016918125
-0.0511333
0.0173771
-0.059155691
0.017758312
-0.068330357
0.018057845
-0.078821756
0.018269057
-0.090803647
0.018380825
-0.10444121
0.018367965
-0.11988363
0.018168558
-0.13701636
0.017738408
-0.15569128
0.01693549
-0.17519306
0.015827839
-0.19478419
0.014819175
-0.21672733
0.013898784
-0.2430945
0.012956465
-0.27361031
0.011958653
-0.30820498
0.010889361
-0.34747943
0.0097444041
-0.39217557
0.0085043425
-0.44308957
0.0071487157
-0.50111138
0.0056506828
-0.56711854
0.0039823488
-0.64224962
0.0021116565
-0.72788201
-0.82538984
0.010508457
-0.015172099
-0.0097225846
0.011289037
-0.017883678
0.012054491
-0.020987862
0.012796614
-0.02454515
0.013503646
-0.028618468
0.014164049
-0.033273443
0.014770916
-0.038589178
0.015318268
-0.044663866
0.015797712
-0.051612795
0.016205324
-0.059563332
0.016538742
-0.068663795
0.016795297
-0.079078336
0.016968841
-0.090977234
0.017048099
-0.10452053
0.017002695
-0.11983831
0.016783938
-0.13679768
0.016345278
-0.15525272
0.015533915
-0.17438178
0.014474227
-0.19372454
0.013547257
-0.21580037
0.012694105
-0.24224138
0.011819003
-0.27273524
0.010895287
-0.30728136
0.0099089627
-0.34649316
0.0088574733
-0.39112413
0.0077226549
-0.44195482
0.0064859526
-0.49987473
0.0051228021
-0.56575545
0.0036078313
-0.64073469
0.001911986
-0.72618624
-0.82347766
0.0095655815
-0.015973138
-0.0087646552
0.010346918
-0.01866514
0.011102221
-0.021743295
0.011822057
-0.025265119
0.01249514
-0.029291682
0.013113308
-0.03389173
0.013671918
-0.039147886
0.014166833
-0.045158851
0.014593834
-0.052039839
0.014951461
-0.059920982
0.01523892
-0.068951272
0.015454466
-0.079293909
0.015592434
-0.091115251
0.015641711
-0.10456988
0.015568479
-0.11976516
0.015338722
-0.13656801
0.014891532
-0.15480564
0.014074654
-0.173565
0.01307485
-0.19272478
0.012229206
-0.21495475
0.011443413
-0.24145563
0.010637654
-0.27192952
0.0097909642
-0.30643474
0.0088910062
-0.34559325
0.0079368024
-0.39016997
0.0069115004
-0.44092957
0.0057984733
-0.49876175
0.0045754928
-0.56453251
0.0032197441
-0.63937897
0.0017052495
-0.72467181
-0.82177221
0.0085936677
-0.016782507
-0.0077844185
0.0093703535
-0.019441956
0.010106045
-0.022479118
0.010792423
-0.025951631
0.011422612
-0.029922001
0.011992132
-0.034461367
0.012498373
-0.039654219
0.012939563
-0.045600104
0.013314414
-0.052414724
0.013623194
-0.060229781
0.013866252
-0.069194346
0.014042554
-0.079470241
0.014147097
-0.091219847
0.014169593
-0.10459245
0.014075269
-0.11967092
0.013840004
-0.13633284
0.013382879
-0.15434864
0.012566031
-0.17274824
0.011636159