/*--------------------------------*- C++ -*----------------------------------*\
| =========                 |                                                 |
| \\      /  F ield         | OpenFOAM: The Open Source CFD Toolbox           |
|  \\    /   O peration     | Version:  2406                                  |
|   \\  /    A nd           | Website:  www.openfoam.com                      |
|    \\/     M anipulation  |                                                 |
\*---------------------------------------------------------------------------*/
FoamFile
{
    version     2.0;
    format      ascii;
    arch        "LSB;label=32;scalar=64";
    class       volScalarField;
    location    "0.004";
    object      p;
}
// * * * * * * * * * * * * * * * * * * * * * * * * * * * * * * * * * * * * * //

dimensions      [1 -1 -2 0 0 0 0];

internalField   nonuniform List<scalar> 
86779
(
100791.7
100731.48
100704.34
100672.59
100640.64
100613.38
100590.76
100572.25
100557.38
100546.06
100537.93
100532.45
100528.91
100526.91
100525.98
100526.55
100529.1
100533.81
100540.71
100549.29
100559.28
100570.42
100582.58
100595.61
100609.47
100624.17
100639.53
100655.33
100671.49
100687.97
100704.75
100721.74
100738.9
100756.16
100773.44
100790.68
100807.77
100824.87
100840.87
100856.56
100871.65
100887.83
100903.5
100917.24
100930.23
100942.32
100953.44
100963.5
100972.47
100980.45
100987.7
100994.42
101000.66
101006.54
101012.16
101017.6
101022.88
101028.01
101032.99
101037.85
101042.57
101047.18
101051.67
101056.06
101060.35
101064.54
101068.65
101072.67
101076.62
101080.48
101084.28
101088.01
101091.67
101095.27
101098.82
101102.32
101105.77
101109.2
101112.59
101115.96
101119.32
101122.67
101126.02
101129.37
101132.74
101136.13
101139.54
101142.99
101146.48
101150.01
101153.59
101157.24
101160.95
101164.73
101168.59
101172.53
101176.56
101180.67
101184.88
101189.18
101193.57
101198.04
101202.58
101207.18
101211.83
101216.51
101221.2
101225.87
101230.51
101235.09
101239.59
101243.99
101248.26
101252.38
101256.33
101260.08
101263.61
101266.91
101269.95
101272.71
101275.2
101277.38
101279.27
101280.8
101282.09
101282.9
101283.55
100919.07
100876.51
100836.98
100794.22
100755.96
100723.92
100697.15
100675.07
100657.18
100643.04
100632.13
100623.87
100617.58
100612.45
100608.27
100605.29
100603.8
100604.4
100607.13
100611.76
100618.2
100626.3
100635.69
100646.11
100657.44
100669.63
100682.55
100695.98
100709.83
100724.04
100738.56
100753.32
100768.26
100783.32
100798.44
100813.55
100828.55
100843.52
100858.02
100871.67
100884.51
100899.56
100913.86
100926.27
100938.18
100949.39
100959.81
100969.36
100978
100985.82
100993.03
100999.72
101005.9
101011.66
101017.13
101022.39
101027.48
101032.43
101037.24
101041.92
101046.49
101050.94
101055.29
101059.54
101063.7
101067.78
101071.77
101075.69
101079.53
101083.3
101087.01
101090.65
101094.23
101097.75
101101.23
101104.66
101108.05
101111.41
101114.74
101118.06
101121.37
101124.67
101127.97
101131.28
101134.6
101137.94
101141.32
101144.73
101148.18
101151.67
101155.22
101158.83
101162.51
101166.26
101170.08
101174
101178
101182.09
101186.27
101190.54
101194.91
101199.35
101203.87
101208.46
101213.09
101217.75
101222.43
101227.09
101231.72
101236.29
101240.78
101245.18
101249.45
101253.57
101257.52
101261.28
101264.82
101268.12
101271.17
101273.95
101276.45
101278.63
101280.54
101282.08
101283.37
101284.18
101284.84
100986.44
100953.71
100909.26
100861.94
100820.56
100785.73
100756.43
100731.86
100711.5
100694.84
100681.34
100670.48
100661.73
100654.52
100648.65
100644.05
100640.87
100639.55
100640.24
100642.99
100647.82
100654.37
100662.3
100671.39
100681.49
100692.53
100704.37
100716.83
100729.78
100743.16
100756.89
100770.91
100785.15
100799.53
100813.98
100828.44
100842.81
100857.1
100871.28
100883.79
100895.95
100910.84
100924.29
100936.02
100947.32
100957.93
100967.78
100976.81
100984.99
100992.45
100999.37
101005.78
101011.67
101017.17
101022.4
101027.43
101032.32
101037.06
101041.68
101046.18
101050.58
101054.87
101059.07
101063.18
101067.2
101071.15
101075.02
101078.83
101082.56
101086.23
101089.84
101093.39
101096.89
101100.33
101103.73
101107.09
101110.41
101113.7
101116.98
101120.23
101123.48
101126.73
101129.98
101133.24
101136.52
101139.82
101143.15
101146.52
101149.93
101153.39
101156.9
101160.47
101164.12
101167.83
101171.63
101175.51
101179.48
101183.54
101187.69
101191.94
101196.28
101200.71
101205.2
101209.77
101214.38
101219.03
101223.68
101228.33
101232.95
101237.52
101242.01
101246.4
101250.67
101254.79
101258.74
101262.5
101266.05
101269.36
101272.42
101275.21
101277.71
101279.91
101281.83
101283.37
101284.68
101285.49
101286.16
101040.35
101011.17
100966.5
100918.22
100875.42
100838.7
100807.14
100780.08
100757.1
100737.77
100721.64
100708.27
100697.22
100688.12
100680.74
100674.97
100670.85
100668.6
100668.27
100669.91
100673.46
100678.69
100685.35
100693.26
100702.27
100712.29
100723.2
100734.81
100746.99
100759.67
100772.76
100786.2
100799.89
100813.77
100827.75
100841.77
100855.72
100869.59
100883.5
100895.23
100907.28
100921.94
100934.75
100946.03
100956.86
100966.98
100976.32
100984.82
100992.5
100999.53
101006.05
101012.07
101017.62
101022.82
101027.78
101032.59
101037.25
101041.78
101046.21
101050.53
101054.75
101058.88
101062.92
101066.89
101070.78
101074.59
101078.34
101082.03
101085.65
101089.22
101092.73
101096.19
101099.6
101102.96
101106.28
101109.57
101112.82
101116.05
101119.26
101122.46
101125.65
101128.84
101132.04
101135.25
101138.48
101141.74
101145.03
101148.35
101151.72
101155.14
101158.62
101162.15
101165.76
101169.44
101173.2
101177.05
101180.99
101185.02
101189.15
101193.37
101197.69
101202.09
101206.56
101211.11
101215.7
101220.33
101224.97
101229.61
101234.21
101238.77
101243.25
101247.64
101251.91
101256.03
101259.99
101263.75
101267.3
101270.62
101273.69
101276.49
101279.01
101281.21
101283.14
101284.69
101286.01
101286.82
101287.49
101091.6
101063.02
101018.94
100971.03
100927.79
100890.01
100856.92
100828.05
100803.07
100781.64
100763.39
100747.97
100735.01
100724.21
100715.35
100708.33
100703.13
100699.81
100698.4
100698.87
100701.16
100705.1
100710.51
100717.22
100725.11
100734.07
100743.98
100754.66
100765.98
100777.85
100790.19
100802.91
100815.94
100829.19
100842.58
100856.03
100869.44
100882.79
100896.2
100907.18
100919.1
100933.33
100945.45
100956.27
100966.61
100976.21
100985.02
100992.98
101000.17
101006.76
101012.86
101018.47
101023.67
101028.57
101033.28
101037.84
101042.28
101046.6
101050.83
101054.96
101059.01
101062.97
101066.86
101070.67
101074.42
101078.11
101081.73
101085.3
101088.82
101092.28
101095.69
101099.05
101102.37
101105.65
101108.9
101112.1
101115.29
101118.45
101121.59
101124.73
101127.86
101131
101134.15
101137.31
101140.49
101143.7
101146.94
101150.23
101153.55
101156.93
101160.37
101163.87
101167.44
101171.09
101174.81
101178.63
101182.54
101186.54
101190.64
101194.83
101199.12
101203.5
101207.95
101212.47
101217.05
101221.66
101226.28
101230.9
101235.5
101240.05
101244.52
101248.9
101253.17
101257.29
101261.25
101265.02
101268.58
101271.91
101274.99
101277.79
101280.32
101282.54
101284.47
101286.03
101287.36
101288.17
101288.85
101138.88
101109.4
101065.76
101018.83
100975.87
100937.68
100903.72
100873.66
100847.25
100824.24
100804.35
100787.27
100772.71
100760.43
100750.24
100742
100735.68
100731.26
100728.74
100728.07
100729.18
100731.93
100736.18
100741.77
100748.59
100756.53
100765.47
100775.24
100785.7
100796.76
100808.33
100820.34
100832.68
100845.28
100858.04
100870.89
100883.72
100896.54
100909.31
100919.56
100931.37
100945.03
100956.43
100966.75
100976.55
100985.6
100993.85
101001.27
101007.95
101014.1
101019.77
101024.98
101029.82
101034.43
101038.88
101043.2
101047.41
101051.52
101055.54
101059.49
101063.36
101067.15
101070.88
101074.54
101078.15
101081.7
101085.2
101088.64
101092.04
101095.4
101098.71
101101.98
101105.21
101108.4
101111.56
101114.7
101117.8
101120.9
101123.98
101127.05
101130.13
101133.21
101136.3
101139.41
101142.54
101145.71
101148.9
101152.14
101155.43
101158.76
101162.16
101165.62
101169.16
101172.77
101176.46
101180.24
101184.12
101188.09
101192.16
101196.33
101200.59
101204.94
101209.37
101213.87
101218.42
101223.01
101227.62
101232.23
101236.81
101241.35
101245.81
101250.19
101254.45
101258.58
101262.54
101266.31
101269.88
101273.21
101276.3
101279.12
101281.66
101283.88
101285.83
101287.4
101288.73
101289.55
101290.23
101181.98
101150.73
101107.37
101061.77
101019.55
100981.44
100947.1
100916.32
100888.93
100864.77
100843.6
100825.19
100809.32
100795.79
100784.41
100775.07
100767.71
100762.27
100758.71
100756.99
100757.02
100758.68
100761.86
100766.41
100772.22
100779.2
100787.21
100796.09
100805.71
100815.98
100826.81
100838.11
100849.78
100861.73
100873.88
100886.12
100898.37
100910.7
100922.66
100932.22
100944.02
100957.01
100967.67
100977.47
100986.69
100995.16
101002.83
101009.68
101015.87
101021.56
101026.78
101031.59
101036.1
101040.41
101044.59
101048.66
101052.64
101056.54
101060.36
101064.11
101067.79
101071.41
101074.98
101078.49
101081.95
101085.36
101088.73
101092.06
101095.34
101098.59
101101.8
101104.97
101108.11
101111.21
101114.29
101117.34
101120.38
101123.4
101126.41
101129.43
101132.44
101135.46
101138.5
101141.56
101144.64
101147.75
101150.9
101154.1
101157.34
101160.64
101163.99
101167.42
101170.91
101174.49
101178.14
101181.89
101185.74
101189.67
101193.71
101197.85
101202.08
101206.41
101210.81
101215.29
101219.82
101224.39
101228.99
101233.58
101238.15
101242.67
101247.13
101251.5
101255.76
101259.89
101263.85
101267.63
101271.2
101274.55
101277.64
101280.47
101283.02
101285.25
101287.21
101288.79
101290.12
101290.95
101291.63
101221.21
101187.95
101144.85
101100.7
101059.47
101021.77
100987.42
100956.3
100928.32
100903.36
100881.25
100861.83
100844.91
100830.33
100817.94
100807.63
100799.31
100792.93
100788.43
100785.74
100784.78
100785.45
100787.63
100791.21
100796.08
100802.14
100809.26
100817.28
100826.09
100835.59
100845.68
100856.27
100867.26
100878.57
100890.09
100901.73
100913.4
100925.26
100936.2
100945.16
100957.08
100969.24
100979.17
100988.4
100997.03
101004.89
101011.94
101018.22
101023.91
101029.12
101033.9
101038.31
101042.48
101046.5
101050.41
101054.23
101057.98
101061.66
101065.27
101068.82
101072.32
101075.76
101079.16
101082.52
101085.83
101089.11
101092.34
101095.54
101098.71
101101.84
101104.95
101108.02
101111.06
101114.08
101117.08
101120.05
101123.01
101125.96
101128.9
101131.85
101134.8
101137.77
101140.75
101143.75
101146.78
101149.85
101152.95
101156.1
101159.3
101162.55
101165.87
101169.25
101172.71
101176.24
101179.86
101183.58
101187.39
101191.29
101195.3
101199.41
101203.61
101207.91
101212.29
101216.74
101221.25
101225.81
101230.38
101234.95
101239.51
101244.03
101248.48
101252.84
101257.1
101261.22
101265.19
101268.97
101272.55
101275.9
101279
101281.84
101284.4
101286.65
101288.61
101290.2
101291.54
101292.37
101293.06
101256.45
101221.74
101179.02
101136.27
101096.12
101059.04
101024.95
100993.8
100965.54
100940.1
100917.36
100897.2
100879.47
100864.06
100850.82
100839.67
100830.52
100823.29
100817.93
100814.35
100812.49
100812.25
100813.51
100816.19
100820.17
100825.36
100831.63
100838.82
100846.84
100855.58
100864.94
100874.84
100885.15
100895.81
100906.69
100917.71
100928.82
100940.21
100949.81
100958.52
100970.55
100981.7
100990.9
100999.55
101007.54
101014.75
101021.17
101026.89
101032.06
101036.8
101041.12
101045.15
101048.99
101052.71
101056.34
101059.91
101063.42
101066.87
101070.27
101073.63
101076.94
101080.2
101083.43
101086.63
101089.79
101092.92
101096.03
101099.1
101102.15
101105.17
101108.16
101111.14
101114.08
101117.01
101119.92
101122.81
101125.7
101128.57
101131.45
101134.33
101137.22
101140.12
101143.05
101146
101148.98
101151.99
101155.04
101158.14
101161.3
101164.51
101167.78
101171.12
101174.54
101178.04
101181.62
101185.3
101189.07
101192.95
101196.92
101201
101205.17
101209.44
101213.8
101218.23
101222.71
101227.24
101231.8
101236.36
101240.9
101245.4
101249.85
101254.21
101258.46
101262.58
101266.55
101270.33
101273.92
101277.28
101280.39
101283.24
101285.81
101288.07
101290.04
101291.64
101292.99
101293.82
101294.51
101287.57
101252.04
101210.35
101168.95
101129.85
101093.52
101059.9
101028.96
101000.69
100975.03
100951.93
100931.27
100912.96
100896.91
100882.99
100871.14
100861.26
100853.29
100847.16
100842.79
100840.12
100839.04
100839.47
100841.3
100844.46
100848.83
100854.28
100860.69
100867.94
100875.95
100884.6
100893.8
100903.44
100913.44
100923.69
100934.07
100944.57
100955.33
100963.78
100972.52
100984.22
100994.34
101002.86
101010.87
101018.2
101024.74
101030.52
101035.67
101040.33
101044.56
101048.44
101052.09
101055.6
101059.03
101062.39
101065.7
101068.97
101072.19
101075.37
101078.52
101081.64
101084.73
101087.79
101090.82
101093.83
101096.82
101099.79
101102.73
101105.66
101108.56
101111.45
101114.32
101117.17
101120
101122.83
101125.64
101128.44
101131.24
101134.05
101136.86
101139.69
101142.53
101145.4
101148.29
101151.21
101154.18
101157.18
101160.23
101163.34
101166.51
101169.73
101173.03
101176.41
101179.87
101183.42
101187.06
101190.79
101194.63
101198.58
101202.62
101206.77
101211.01
101215.34
101219.74
101224.2
101228.71
101233.25
101237.79
101242.32
101246.81
101251.24
101255.6
101259.84
101263.97
101267.93
101271.72
101275.31
101278.68
101281.8
101284.66
101287.24
101289.51
101291.49
101293.1
101294.46
101295.29
101295.98
101314.69
101279.08
101238.76
101198.79
101160.86
101125.42
101092.45
101061.93
101033.87
101008.24
100984.98
100964.05
100945.37
100928.85
100914.42
100902
100891.52
100882.91
100876.11
100871.04
100867.64
100865.81
100865.47
100866.53
100868.91
100872.52
100877.21
100882.86
100889.38
100896.67
100904.62
100913.13
100922.11
100931.46
100941.05
100950.79
100960.68
100970.66
100978.18
100986.94
100998.05
101007.17
101015.03
101022.37
101028.99
101034.84
101039.98
101044.56
101048.68
101052.42
101055.87
101059.14
101062.33
101065.46
101068.53
101071.58
101074.61
101077.6
101080.56
101083.51
101086.44
101089.34
101092.23
101095.1
101097.95
101100.79
101103.62
101106.44
101109.24
101112.03
101114.8
101117.57
101120.32
101123.06
101125.79
101128.52
101131.24
101133.97
101136.7
101139.45
101142.21
101144.99
101147.8
101150.63
101153.5
101156.41
101159.37
101162.37
101165.43
101168.55
101171.73
101174.99
101178.32
101181.74
101185.25
101188.85
101192.55
101196.36
101200.27
101204.28
101208.39
101212.61
101216.91
101221.28
101225.72
101230.21
101234.73
101239.25
101243.76
101248.24
101252.66
101257.01
101261.26
101265.37
101269.34
101273.14
101276.73
101280.11
101283.24
101286.1
101288.7
101290.98
101292.97
101294.59
101295.95
101296.79
101297.49
101338.21
101303.04
101264.31
101225.94
101189.31
101154.92
101122.77
101092.86
101065.2
101039.79
101016.59
100995.58
100976.7
100959.89
100945.09
100932.24
100921.28
100912.14
100904.77
100899.09
100895.04
100892.54
100891.51
100891.86
100893.53
100896.41
100900.38
100905.32
100911.14
100917.73
100924.99
100932.84
100941.15
100949.84
100958.78
100967.88
100977.16
100986.22
100992.9
101001.71
101012.05
101020.21
101027.38
101034
101039.9
101045.04
101049.53
101053.54
101057.11
101060.36
101063.39
101066.31
101069.16
101072
101074.79
101077.57
101080.36
101083.12
101085.85
101088.6
101091.33
101094.04
101096.75
101099.46
101102.16
101104.85
101107.53
101110.22
101112.9
101115.56
101118.23
101120.88
101123.53
101126.18
101128.82
101131.46
101134.11
101136.76
101139.42
101142.09
101144.78
101147.5
101150.25
101153.02
101155.84
101158.69
101161.6
101164.55
101167.56
101170.63
101173.77
101176.99
101180.28
101183.65
101187.12
101190.69
101194.35
101198.12
101201.99
101205.97
101210.06
101214.24
101218.51
101222.86
101227.27
101231.74
101236.23
101240.74
101245.24
101249.7
101254.11
101258.45
101262.69
101266.81
101270.78
101274.58
101278.18
101281.56
101284.7
101287.58
101290.18
101292.47
101294.47
101296.1
101297.47
101298.31
101299.01
101358.66
101324.25
101287.27
101250.63
101215.44
101182.24
101151.05
101121.91
101094.81
101069.79
101046.82
101025.9
101006.98
100990.03
100975.01
100961.86
100950.53
100940.97
100933.12
100926.92
100922.31
100919.22
100917.57
100917.28
100918.28
100920.5
100923.79
100928.06
100933.19
100939.11
100945.71
100952.89
100960.55
100968.58
100976.86
100985.32
100994.03
101001.91
101007.91
101016.86
101026.22
101033.42
101039.89
101045.75
101050.89
101055.31
101059.17
101062.59
101065.61
101068.38
101071.02
101073.58
101076.11
101078.64
101081.15
101083.66
101086.21
101088.72
101091.23
101093.77
101096.31
101098.83
101101.36
101103.9
101106.44
101108.98
101111.52
101114.07
101116.62
101119.17
101121.72
101124.27
101126.81
101129.36
101131.92
101134.47
101137.03
101139.6
101142.19
101144.79
101147.41
101150.07
101152.75
101155.47
101158.23
101161.03
101163.88
101166.78
101169.74
101172.77
101175.86
101179.03
101182.28
101185.61
101189.04
101192.56
101196.19
101199.92
101203.76
101207.7
101211.75
101215.9
101220.15
101224.47
101228.86
101233.3
101237.77
101242.26
101246.74
101251.19
101255.59
101259.92
101264.16
101268.27
101272.24
101276.04
101279.65
101283.04
101286.19
101289.07
101291.68
101293.99
101296
101297.63
101299.01
101299.86
101300.56
101376.47
101343.18
101308.01
101273.14
101239.48
101207.57
101177.47
101149.21
101122.82
101098.33
101075.74
101055.06
101036.26
101019.31
101004.19
100990.86
100979.28
100969.4
100961.17
100954.54
100949.45
100945.84
100943.63
100942.76
100943.17
100944.76
100947.42
100951.04
100955.54
100960.8
100966.75
100973.28
100980.28
100987.65
100995.27
101003.1
101011.24
101017.56
101023.33
101032.4
101040.52
101046.8
101052.51
101057.59
101061.95
101065.66
101068.88
101071.71
101074.18
101076.49
101078.75
101080.95
101083.16
101085.39
101087.61
101089.85
101092.15
101094.43
101096.71
101099.03
101101.37
101103.7
101106.05
101108.42
101110.8
101113.18
101115.58
101118
101120.42
101122.84
101125.27
101127.72
101130.16
101132.61
101135.07
101137.53
101140.01
101142.51
101145.01
101147.54
101150.1
101152.69
101155.31
101157.96
101160.66
101163.41
101166.2
101169.06
101171.97
101174.94
101177.99
101181.11
101184.31
101187.61
101190.99
101194.48
101198.06
101201.76
101205.56
101209.47
101213.49
101217.6
101221.82
101226.11
101230.47
101234.89
101239.34
101243.81
101248.27
101252.7
101257.1
101261.42
101265.65
101269.76
101273.73
101277.53
101281.15
101284.54
101287.7
101290.59
101293.22
101295.53
101297.55
101299.2
101300.58
101301.43
101302.14
101392.29
101360.25
101326.86
101293.77
101261.68
101231.12
101202.2
101174.93
101149.37
101125.54
101103.46
101083.14
101064.58
101047.76
101032.66
101019.26
101007.53
100997.43
100988.91
100981.93
100976.44
100972.39
100969.7
100968.31
100968.17
100969.19
100971.26
100974.28
100978.15
100982.79
100988.11
100993.99
101000.34
101007.04
101013.98
101021.15
101028.48
101033.54
101039.42
101047.99
101054.87
101060.31
101065.22
101069.48
101073.06
101076.05
101078.63
101080.87
101082.81
101084.68
101086.57
101088.43
101090.31
101092.24
101094.16
101096.13
101098.19
101100.22
101102.27
101104.38
101106.53
101108.66
101110.82
101113.03
101115.24
101117.47
101119.72
101122
101124.3
101126.59
101128.9
101131.24
101133.57
101135.92
101138.29
101140.66
101143.05
101145.47
101147.9
101150.35
101152.84
101155.36
101157.92
101160.51
101163.15
101165.84
101168.58
101171.38
101174.24
101177.17
101180.16
101183.24
101186.4
101189.64
101192.99
101196.43
101199.98
101203.63
101207.4
101211.27
101215.25
101219.34
101223.52
101227.78
101232.12
101236.51
101240.94
101245.38
101249.83
101254.25
101258.63
101262.94
101267.17
101271.28
101275.25
101279.05
101282.67
101286.07
101289.24
101292.14
101294.77
101297.1
101299.13
101300.78
101302.17
101303.03
101303.74
101406.42
101375.71
101344.08
101312.74
101282.25
101253.11
101225.43
101199.24
101174.59
101151.52
101130.06
101110.22
101092.01
101075.43
101060.46
101047.1
101035.31
101025.08
101016.36
101009.12
101003.3
100998.87
100995.76
100993.91
100993.27
100993.77
100995.29
100997.74
101001.02
101005.06
101009.76
101015.01
101020.7
101026.73
101033
101039.49
101045.82
101049.89
101055.86
101063.61
101069.3
101073.91
101077.98
101081.39
101084.19
101086.47
101088.42
101090.07
101091.49
101092.95
101094.5
101096
101097.56
101099.2
101100.81
101102.5
101104.32
101106.11
101107.91
101109.82
101111.77
101113.7
101115.67
101117.71
101119.76
101121.83
101123.93
101126.08
101128.24
101130.41
101132.6
101134.82
101137.05
101139.3
101141.57
101143.85
101146.16
101148.49
101150.84
101153.22
101155.64
101158.09
101160.58
101163.11
101165.69
101168.33
101171.01
101173.75
101176.56
101179.44
101182.39
101185.41
101188.53
101191.73
101195.03
101198.43
101201.93
101205.55
101209.27
101213.11
101217.06
101221.11
101225.26
101229.49
101233.8
101238.16
101242.57
101246.99
101251.42
101255.83
101260.19
101264.5
101268.71
101272.82
101276.79
101280.6
101284.22
101287.63
101290.8
101293.72
101296.36
101298.7
101300.74
101302.4
101303.79
101304.66
101305.37
101419.02
101389.72
101359.84
101330.27
101301.4
101273.72
101247.33
101222.29
101198.64
101176.42
101155.66
101136.39
101118.63
101102.38
101087.64
101074.4
101062.65
101052.37
101043.53
101036.1
101030.03
101025.29
101021.82
101019.57
101018.48
101018.5
101019.51
101021.41
101024.14
101027.59
101031.68
101036.3
101041.35
101046.7
101052.3
101058.12
101063.17
101066.47
101072.61
101079.25
101083.79
101087.55
101090.75
101093.31
101095.33
101096.9
101098.21
101099.33
101100.22
101101.28
101102.52
101103.66
101104.91
101106.25
101107.55
101108.94
101110.55
101112.1
101113.64
101115.34
101117.11
101118.83
101120.61
101122.47
101124.36
101126.27
101128.22
101130.23
101132.26
101134.3
101136.37
101138.48
101140.6
101142.74
101144.92
101147.1
101149.32
101151.58
101153.85
101156.15
101158.49
101160.88
101163.3
101165.77
101168.29
101170.86
101173.49
101176.18
101178.93
101181.76
101184.65
101187.63
101190.7
101193.85
101197.11
101200.46
101203.93
101207.5
101211.19
101214.99
101218.9
101222.92
101227.03
101231.24
101235.51
101239.85
101244.23
101248.63
101253.04
101257.43
101261.78
101266.08
101270.29
101274.39
101278.36
101282.17
101285.8
101289.21
101292.39
101295.32
101297.97
101300.32
101302.37
101304.04
101305.44
101306.32
101307.03
101430.27
101402.49
101374.38
101346.58
101319.35
101293.15
101268.11
101244.26
101221.66
101200.36
101180.38
101161.76
101144.53
101128.69
101114.26
101101.23
101089.59
101079.34
101070.45
101062.89
101056.64
101051.65
101047.87
101045.27
101043.79
101043.36
101043.89
101045.29
101047.47
101050.36
101053.85
101057.85
101062.24
101066.92
101071.87
101077
101080.31
101083.44
101089.66
101094.85
101098.3
101101.18
101103.47
101105.19
101106.44
101107.31
101108.02
101108.62
101108.96
101109.68
101110.64
101111.43
101112.34
101113.4
101114.37
101115.45
101116.87
101118.18
101119.44
101120.95
101122.53
101124.04
101125.62
101127.32
101129.05
101130.78
101132.58
101134.45
101136.36
101138.26
101140.2
101142.2
101144.21
101146.25
101148.33
101150.42
101152.55
101154.72
101156.91
101159.14
101161.41
101163.72
101166.08
101168.48
101170.94
101173.45
101176.02
101178.65
101181.35
101184.13
101186.97
101189.9
101192.91
101196.02
101199.23
101202.54
101205.97
101209.5
101213.14
101216.91
101220.78
101224.76
101228.84
101233.02
101237.26
101241.57
101245.92
101250.3
101254.69
101259.06
101263.4
101267.69
101271.89
101275.99
101279.96
101283.77
101287.4
101290.82
101294.01
101296.95
101299.61
101301.97
101304.03
101305.71
101307.12
101308
101308.71
101440.48
101414.31
101387.95
101361.89
101336.3
101311.61
101287.93
101265.32
101243.82
101223.48
101204.34
101186.44
101169.8
101154.44
101140.38
101127.63
101116.18
101106.02
101097.14
101089.53
101083.14
101077.96
101073.93
101071.03
101069.19
101068.35
101068.44
101069.36
101071.02
101073.35
101076.25
101079.62
101083.35
101087.35
101091.6
101095.72
101097.67
101101.02
101106.57
101110.33
101112.79
101114.75
101116.13
101117.01
101117.52
101117.67
101117.81
101117.9
101117.72
101118.24
101118.86
101119.26
101119.85
101120.63
101121.26
101122.06
101123.29
101124.35
101125.33
101126.62
101128.05
101129.33
101130.7
101132.24
101133.81
101135.37
101137.01
101138.75
101140.52
101142.29
101144.11
101146
101147.89
101149.83
101151.81
101153.8
101155.84
101157.93
101160.04
101162.18
101164.38
101166.63
101168.91
101171.24
101173.64
101176.09
101178.6
101181.18
101183.82
101186.54
101189.33
101192.21
101195.18
101198.24
101201.4
101204.67
101208.05
101211.54
101215.14
101218.86
101222.7
101226.64
101230.69
101234.83
101239.05
101243.32
101247.65
101252.01
101256.38
101260.73
101265.06
101269.33
101273.52
101277.62
101281.59
101285.4
101289.03
101292.46
101295.66
101298.61
101301.28
101303.65
101305.71
101307.41
101308.82
101309.71
101310.42
101450.02
101425.45
101400.79
101376.45
101352.49
101329.3
101307
101285.64
101265.27
101245.93
101227.67
101210.53
101194.53
101179.71
101166.09
101153.66
101142.45
101132.45
101123.64
101116.02
101109.56
101104.23
101100
101096.83
101094.67
101093.47
101093.13
101093.59
101094.74
101096.53
101098.84
101101.59
101104.65
101107.97
101111.51
101114.29
101115.27
101118.88
101123.3
101125.69
101127.19
101128.2
101128.68
101128.76
101128.51
101127.92
101127.53
101127.08
101126.77
101126.98
101127.05
101127.15
101127.42
101127.85
101128.25
101128.87
101129.74
101130.57
101131.31
101132.37
101133.63
101134.7
101135.85
101137.22
101138.67
101140.03
101141.52
101143.12
101144.77
101146.39
101148.08
101149.86
101151.64
101153.47
101155.35
101157.24
101159.2
101161.2
101163.22
101165.29
101167.4
101169.58
101171.8
101174.06
101176.4
101178.79
101181.23
101183.75
101186.34
101189.01
101191.75
101194.57
101197.49
101200.5
101203.61
101206.83
101210.17
101213.62
101217.18
101220.86
101224.66
101228.56
101232.57
101236.68
101240.86
101245.11
101249.41
101253.75
101258.09
101262.43
101266.74
101271
101275.19
101279.28
101283.24
101287.06
101290.69
101294.13
101297.34
101300.29
101302.97
101305.35
101307.43
101309.13
101310.55
101311.44
101312.16
101459.14
101436.09
101413.09
101390.44
101368.1
101346.42
101325.5
101305.41
101286.18
101267.86
101250.5
101234.15
101218.84
101204.6
101191.44
101179.4
101168.48
101158.67
101149.99
101142.4
101135.91
101130.48
101126.09
101122.68
101120.24
101118.69
101117.96
101117.96
101118.62
101119.87
101121.59
101123.7
101126.09
101128.74
101131.55
101132.49
101133.15
101136.91
101139.8
101140.89
101141.42
101141.49
101141.09
101140.36
101139.32
101138.02
101137.2
101136.58
101136.01
101135.6
101135.29
101135.1
101135.06
101135.17
101135.34
101135.7
101136.25
101136.83
101137.41
101138.26
101139.23
101140.16
101141.09
101142.29
101143.59
101144.76
101146.08
101147.57
101149.09
101150.57
101152.12
101153.79
101155.46
101157.17
101158.96
101160.75
101162.61
101164.53
101166.47
101168.45
101170.49
101172.6
101174.74
101176.94
101179.21
101181.54
101183.92
101186.38
101188.92
101191.52
101194.21
101196.98
101199.85
101202.81
101205.87
101209.05
101212.33
101215.74
101219.26
101222.9
101226.65
101230.52
101234.5
101238.57
101242.72
101246.94
101251.21
101255.52
101259.84
101264.16
101268.45
101272.7
101276.88
101280.96
101284.93
101288.74
101292.38
101295.82
101299.04
101302
101304.7
101307.09
101309.17
101310.89
101312.31
101313.21
101313.93
101468
101446.3
101424.98
101404.05
101383.35
101363.17
101343.64
101324.8
101306.71
101289.42
101272.98
101257.44
101242.82
101229.18
101216.54
101204.9
101194.3
101184.74
101176.21
101168.7
101162.22
101156.72
101152.19
101148.59
101145.88
101144
101142.89
101142.46
101142.63
101143.33
101144.46
101145.91
101147.6
101149.52
101151.25
101150.77
101151.61
101154.62
101155.92
101155.88
101155.42
101154.57
101153.29
101151.67
101149.77
101148.31
101147.25
101146.1
101145.07
101144.26
101143.61
101143.1
101142.76
101142.56
101142.49
101142.59
101142.84
101143.18
101143.58
101144.19
101144.91
101145.64
101146.44
101147.48
101148.56
101149.56
101150.73
101152.07
101153.48
101154.82
101156.22
101157.79
101159.34
101160.94
101162.63
101164.32
101166.09
101167.92
101169.79
101171.67
101173.64
101175.68
101177.75
101179.87
101182.08
101184.34
101186.66
101189.06
101191.54
101194.09
101196.72
101199.44
101202.25
101205.16
101208.18
101211.3
101214.54
101217.9
101221.38
101224.98
101228.69
101232.52
101236.46
101240.49
101244.61
101248.8
101253.04
101257.32
101261.62
101265.92
101270.2
101274.43
101278.6
101282.68
101286.64
101290.46
101294.1
101297.55
101300.77
101303.75
101306.45
101308.85
101310.95
101312.67
101314.1
101315
101315.73
101476.71
101456.42
101436.72
101417.52
101398.47
101379.8
101361.63
101344.02
101327.05
101310.77
101295.23
101280.49
101266.59
101253.56
101241.44
101230.24
101219.99
101210.69
101202.34
101194.95
101188.49
101182.96
101178.32
101174.54
101171.58
101169.39
101167.91
101167.04
101166.72
101166.86
101167.37
101168.16
101169.15
101170.31
101170.61
101169.12
101170.15
101171.89
101171.69
101170.57
101169.14
101167.38
101165.12
101162.57
101160.54
101158.87
101157.13
101155.53
101154.13
101152.96
101151.97
101151.15
101150.51
101150.03
101149.69
101149.52
101149.51
101149.61
101149.81
101150.18
101150.67
101151.22
101151.86
101152.69
101153.57
101154.47
101155.48
101156.62
101157.93
101159.13
101160.39
101161.86
101163.29
101164.78
101166.37
101167.95
101169.62
101171.38
101173.16
101174.96
101176.84
101178.81
101180.81
101182.86
101185
101187.2
101189.46
101191.79
101194.21
101196.71
101199.28
101201.94
101204.71
101207.56
101210.53
101213.6
101216.8
101220.11
101223.54
101227.1
101230.77
101234.56
101238.46
101242.45
101246.54
101250.69
101254.91
101259.16
101263.44
101267.71
101271.98
101276.2
101280.36
101284.43
101288.39
101292.2
101295.85
101299.3
101302.54
101305.52
101308.23
101310.64
101312.75
101314.48
101315.92
101316.83
101317.55
101485.76
101467.21
101448.77
101431.17
101413.75
101396.55
101379.69
101363.26
101347.36
101332.05
101317.39
101303.44
101290.23
101277.82
101266.22
101255.47
101245.58
101236.56
101228.42
101221.16
101214.76
101209.2
101204.47
101200.53
101197.33