/*--------------------------------*- C++ -*----------------------------------*\
| =========                 |                                                 |
| \\      /  F ield         | OpenFOAM: The Open Source CFD Toolbox           |
|  \\    /   O peration     | Version:  2406                                  |
|   \\  /    A nd           | Website:  www.openfoam.com                      |
|    \\/     M anipulation  |                                                 |
\*---------------------------------------------------------------------------*/
FoamFile
{
    version     2.0;
    format      ascii;
    arch        "LSB;label=32;scalar=64";
    class       volScalarField;
    location    "0.03";
    object      alphat;
}
// * * * * * * * * * * * * * * * * * * * * * * * * * * * * * * * * * * * * * //

dimensions      [1 -1 -1 0 0 0 0];

internalField   nonuniform List<scalar> 
92813
(
0.039304651
0.042437222
0.045689241
0.048984077
0.052289218
0.055583865
0.05885036
0.062074561
0.0652447
0.06835067
0.071383398
0.074334241
0.077194366
0.079954331
0.082603453
0.08513103
0.087528514
0.089779411
0.091868686
0.093782028
0.095504743
0.097022192
0.098319471
0.099381172
0.10019136
0.10073367
0.1009914
0.10094759
0.1005852
0.099887265
0.098837223
0.097419221
0.095618566
0.093422265
0.090819686
0.087803319
0.084370086
0.08052181
0.076266527
0.071620106
0.066614678
0.061290946
0.055701034
0.049918211
0.044033149
0.038152063
0.032449088
0.027126187
0.02243847
0.018642555
0.015889309
0.014067604
0.012889838
0.012083041
0.011471355
0.010965043
0.010522247
0.010123671
0.0097595159
0.0094246098
0.009116094
0.0088304552
0.0085660524
0.0083211992
0.0080944072
0.0078836885
0.0076880742
0.0075071436
0.0073384195
0.0071819064
0.0070366933
0.0069007107
0.0067742633
0.0066568149
0.0065463689
0.0064435226
0.0063477125
0.006257314
0.0061731971
0.0060946039
0.0060202514
0.0059509072
0.0058859385
0.0058245991
0.005767408
0.0057133431
0.0056627539
0.0056155923
0.0055712849
0.005530505
0.0054921997
0.0054565263
0.0054233279
0.0053918314
0.0053623886
0.0053345865
0.0053080197
0.0052829869
0.0052592478
0.00523654
0.0052151399
0.0051949631
0.0051759131
0.0051579949
0.0051411716
0.0051252706
0.0051101576
0.0050961056
0.005083102
0.005070936
0.0050595521
0.0050489044
0.0050388891
0.0050294632
0.0050207128
0.0050126893
0.0050053071
0.0049986379
0.0049926094
0.0049871632
0.0049823717
0.0049781766
0.0049746729
0.004971699
0.0049696483
0.0049676928
0.0049675042
0.04412411
0.04729109
0.050454277
0.053617327
0.056773884
0.059912206
0.063019429
0.066083818
0.069094778
0.07204253
0.074917816
0.077711543
0.080414347
0.083016239
0.085506502
0.087874048
0.090107326
0.092192006
0.094113432
0.095856782
0.097407035
0.098749172
0.09986838
0.10074918
0.10137558
0.10173122
0.10179945
0.10156344
0.10100633
0.10011148
0.098862753
0.097244861
0.095243859
0.092847701
0.09004695
0.086835588
0.083212253
0.079181425
0.074753505
0.069945468
0.064794531
0.059347197
0.053658446
0.047807793
0.041894593
0.036045487
0.030437527
0.025295379
0.020890468
0.01746732
0.015088382
0.013555452
0.012557988
0.011849323
0.011290131
0.010813895
0.010390467
0.010006249
0.0096537127
0.0093287749
0.0090291809
0.0087513685
0.0084940658
0.0082557096
0.0080348448
0.0078294606
0.0076387337
0.0074623439
0.0072975784
0.0071447075
0.0070027934
0.0068696719
0.0067459775
0.0066309938
0.0065227697
0.0064220074
0.0063280449
0.0062392803
0.0061566515
0.0060794316
0.00600637
0.0059381839
0.0058742971
0.0058138829
0.0057575589
0.0057043032
0.0056545057
0.0056080926
0.0055644608
0.0055243568
0.0054866524
0.0054515169
0.0054187825
0.005387682
0.0053586068
0.0053311009
0.005304785
0.0052799798
0.005256438
0.0052339147
0.0052126913
0.0051926785
0.0051738058
0.0051560517
0.0051393729
0.0051236293
0.0051086403
0.0050946924
0.0050817871
0.0050697186
0.0050584232
0.0050478555
0.0050379255
0.0050285728
0.005019886
0.0050119176
0.0050045805
0.0049979473
0.0049919595
0.004986547
0.0049817829
0.004977614
0.0049741297
0.0049711743
0.0049691336
0.0049671885
0.0049670034
0.049094908
0.052174693
0.055225054
0.058255438
0.061266538
0.064251155
0.067199834
0.070103112
0.072951717
0.075736505
0.078448389
0.081078181
0.083616349
0.08605273
0.088376439
0.090575779
0.092638197
0.094549841
0.096296202
0.097862372
0.099233302
0.10039393
0.10132902
0.10202295
0.10245978
0.10262319
0.10249665
0.1020635
0.10130713
0.10021126
0.098760261
0.096939497
0.09473587
0.092138413
0.08913904
0.085733432
0.081922251
0.07771267
0.073116941
0.068156521
0.062873676
0.057318605
0.051552411
0.045662599
0.039758754
0.033983881
0.028529333
0.023639126
0.019586327
0.016563395
0.014530004
0.013224244
0.012349221
0.011701568
0.011174146
0.010716746
0.010306359
0.0099323337
0.0095882082
0.0092704969
0.0089772953
0.0087050009
0.0084526291
0.0082186978
0.0080017722
0.0077998527
0.007612239
0.0074386514
0.0072762659
0.0071255446
0.0069855219
0.0068539573
0.0067316292
0.0066179334
0.0065108273
0.0064111131
0.0063180887
0.0062301393
0.0061482438
0.0060717149
0.0059992297
0.00593155
0.0058682107
0.0058082442
0.0057523451
0.0056995041
0.0056501013
0.0056040765
0.0055607761
0.0055210175
0.0054836273
0.0054487619
0.005416263
0.0053853575
0.0053564582
0.0053290924
0.0053028886
0.005278181
0.0052547279
0.0052322865
0.0052111392
0.0051912003
0.0051724204
0.0051547509
0.0051381472
0.0051224968
0.0051075731
0.0050936739
0.0050808161
0.0050688012
0.0050575545
0.0050470311
0.0050371544
0.0050278463
0.0050191957
0.0050112579
0.0050039457
0.0049973294
0.0049913658
0.0049859727
0.0049812234
0.0049770701
0.0049735964
0.0049706523
0.0049686182
0.0049666763
0.0049664939
0.054196785
0.057133554
0.060040283
0.062921875
0.06577859
0.068604108
0.07139017
0.074128395
0.076810294
0.079427178
0.081970134
0.08442995
0.086796957
0.089060843
0.09121052
0.093234039
0.095118545
0.096850231
0.098414599
0.099796716
0.10098145
0.10195355
0.10269759
0.10319791
0.10343858
0.10340338
0.10307591
0.10243974
0.10147859
0.10017664
0.098518833
0.096491307
0.094081946
0.091281015
0.088081966
0.084482386
0.080485257
0.076100745
0.071342517
0.06623901
0.060837589
0.055190662
0.049368032
0.043465807
0.037604611
0.031942828
0.02668838
0.022097887
0.018426185
0.015789624
0.014054944
0.012931008
0.012151566
0.011552697
0.011052111
0.010611557
0.010213315
0.0098490448
0.0095130913
0.0092025099
0.0089157438
0.0086490593
0.0084017954
0.0081725359
0.0079598397
0.0077616935
0.0075775304
0.0074071211
0.0072474619
0.0070992559
0.0069614972
0.0068319064
0.0067114588
0.0065994648
0.0064938324
0.0063955169
0.0063037539
0.006216901
0.0061359996
0.0060604216
0.0059888092
0.0059219279
0.0058593801
0.0058000787
0.0057448109
0.0056925791
0.0056437581
0.0055983011
0.0055555032
0.0055162421
0.0054793043
0.0054448401
0.0054126852
0.0053820687
0.0053534312
0.0053262781
0.005300254
0.005275708
0.0052523993
0.0052300933
0.0052090746
0.0051892573
0.0051706163
0.0051530753
0.0051365853
0.0051210629
0.0051062394
0.005092422
0.0050796384
0.0050677014
0.0050565248
0.0050460642
0.0050362585
0.0050270122
0.0050184133
0.0050105194
0.0050032448
0.0049966555
0.0049907247
0.0049853593
0.0049806317
0.0049764999
0.0049730417
0.0049701129
0.0049680873
0.0049661525
0.0049659734
0.059392783
0.062160482
0.064902493
0.067619859
0.070311163
0.072969514
0.075586602
0.078154217
0.080664066
0.083107585
0.08547587
0.087759617
0.089949001
0.092033542
0.094001991
0.095842263
0.097541405
0.099085627
0.10046048
0.10165103
0.10264212
0.10341836
0.10396423
0.10426403
0.10430181
0.10406148
0.1035268
0.10268164
0.10151011
0.099996907
0.098127679
0.095889455
0.09327124
0.090264701
0.086865015
0.083071883
0.078890875
0.07433534
0.069421458
0.064184512
0.058676932
0.052954584
0.047096599
0.041208043
0.035421507
0.029910998
0.024900702
0.020651525
0.017380075
0.015112699
0.013640458
0.012668255
0.011967463
0.011409666
0.01093282
0.010507982
0.010121577
0.009767087
0.0094394224
0.0091361279
0.0088559693
0.0085950293
0.0083530032
0.0081285217
0.0079201203
0.007725778
0.0075450744
0.0073778193
0.0072208337
0.0070750817
0.006939509
0.0068117702
0.0066930767
0.0065826754
0.0064784196
0.0063814157
0.0062908275
0.0062050013
0.0061250433
0.0060503452
0.0059795326
0.0059133767
0.0058515476
0.0057928483
0.0057381548
0.0056864807
0.0056381787
0.0055932324
0.005550883
0.005512056
0.0054755131
0.0054413972
0.0054095378
0.0053791662
0.0053507454
0.0053237684
0.0052978936
0.0052734815
0.0052502949
0.0052281035
0.0052071927
0.0051874794
0.00516896
0.0051515311
0.0051351414
0.0051197322
0.0051049973
0.005091252
0.005078531
0.0050666622
0.0050555465
0.0050451404
0.0050353981
0.0050262079
0.0050176545
0.0050097985
0.0050025579
0.0049959911
0.0049900888
0.0049847477
0.0049800389
0.004975926
0.0049724811
0.0049695661
0.0049675481
0.0049656187
0.0049654429
0.064638788
0.067220047
0.069786247
0.072329274
0.074846279
0.077329744
0.079771053
0.082161816
0.084493618
0.086757784
0.08894528
0.091046638
0.093051856
0.094950289
0.096730556
0.098380479
0.099887072
0.10123659
0.10241463
0.10340634
0.10419654
0.10476981
0.10511057
0.10520309
0.10503146
0.10457971
0.10383183
0.10277201
0.10138485
0.09965566
0.09757088
0.095118563
0.092288987
0.089075395
0.085474894
0.081489518
0.077127717
0.072406174
0.067344709
0.061985304
0.056385282
0.050605538
0.044734919
0.03888802
0.033210697
0.027893386
0.023174595
0.019307307
0.01644751
0.014525061
0.013278697
0.012430915
0.011793978
0.01127055
0.010814655
0.010404358
0.010029282
0.0096843414
0.0093648135
0.0090687101
0.0087951123
0.0085398572
0.0083030408
0.0080833228
0.0078791967
0.0076886342
0.0075113768
0.0073472705
0.0071929418
0.0070496448
0.0069162698
0.0067904163
0.0066735295
0.0065647681
0.0064619314
0.0063662906
0.0062769261
0.0061921712
0.0061132162
0.0060394452
0.0059694801
0.0059041183
0.0058430556
0.0057850085
0.005730942
0.005679873
0.0056321293
0.0055877344
0.0055458756
0.0055075127
0.005471392
0.0054376513
0.0054061093
0.0053760005
0.0053478112
0.0053210249
0.0052953154
0.0052710535
0.0052480041
0.0052259422
0.0052051538
0.0051855586
0.0051671733
0.0051498689
0.005133592
0.0051183043
0.0051036694
0.005090008
0.0050773568
0.005065563
0.0050545141
0.0050441673
0.0050344929
0.0050253644
0.0050168612
0.0050090464
0.0050018445
0.0049953034
0.0049894312
0.0049841171
0.0049794293
0.0049753368
0.0049719067
0.0049690067
0.0049669969
0.004965074
0.0049649016
0.069895227
0.072275546
0.074660717
0.07702331
0.07935956
0.081661698
0.08392097
0.08612878
0.088276498
0.09035524
0.092355773
0.09426843
0.096083024
0.097788752
0.09937412
0.10082689
0.10213407
0.10328196
0.10425626
0.10504215
0.10562452
0.10598795
0.10611688
0.10599558
0.10560823
0.10493902
0.10397223
0.10269245
0.10108481
0.099135348
0.096831426
0.094162249
0.091119535
0.087698297
0.083897791
0.079722648
0.075184532
0.070303353
0.065103878
0.059635105
0.053958767
0.048142243
0.042284702
0.036511368
0.030982925
0.025906801
0.021530678
0.018081056
0.015630878
0.014019183
0.012961461
0.012213995
0.011628809
0.011134535
0.010697498
0.010300881
0.0099368
0.0096013079
0.0092898738
0.0090009723
0.0087339898
0.0084844515
0.0082529039
0.0080380102
0.0078381995
0.0076514422
0.0074776561
0.007316716
0.0071650429
0.0070242067
0.0068930333
0.00676906
0.0066539888
0.0065468724
0.0064454596
0.006351194
0.0062630595
0.0061793847
0.0061014615
0.0060286257
0.0059595127
0.0058949619
0.0058346624
0.0057772712
0.0057238427
0.005673383
0.0056261926
0.0055823451
0.0055409759
0.0055030663
0.0054673554
0.0054339776
0.0054027411
0.0053728836
0.0053449125
0.0053183078
0.0052927576
0.0052686414
0.0052457269
0.005223793
0.0052031251
0.0051836475
0.0051653939
0.005148212
0.0051320487
0.0051168789
0.0051023439
0.005088768
0.0050761848
0.0050644641
0.0050534804
0.0050431917
0.0050335833
0.0050245163
0.0050160626
0.0050082874
0.0050011249
0.004994609
0.0049887653
0.0049834777
0.0049788105
0.0049747378
0.0049713223
0.0049684371
0.0049664352
0.0049645185
0.0049643496
0.075117254
0.077295797
0.079495363
0.081672734
0.083823139
0.085938636
0.088010414
0.090029705
0.091987657
0.093875168
0.095682793
0.097400669
0.099018433
0.10052514
0.10190921
0.10315834
0.10425958
0.10519927
0.1059632
0.10653664
0.10690455
0.1070516
0.10696225
0.10662087
0.10601179
0.10511941
0.10392837
0.10242371
0.10059123
0.098417787
0.095891775
0.093003721
0.089746963
0.086118502
0.08211999
0.077758975
0.073050761
0.068017828
0.062692059
0.057129947
0.05139626
0.045567054
0.039752574
0.034090236
0.028757136
0.023976742
0.019995145
0.016987432
0.014927949
0.013585159
0.012680609
0.012013118
0.011470018
0.011000856
0.010581052
0.010197401
0.0098440214
0.0095178697
0.0092144573
0.0089327342
0.0086723826
0.0084285494
0.0082022887
0.0079922383
0.007796741
0.0076137768
0.0074434548
0.007285672
0.0071366342
0.0069982522
0.0068692806
0.0067471949
0.0066339618
0.0065285094
0.0064285389
0.0063356745
0.0062487916
0.0061662176
0.0060893687
0.0060174927
0.0059492473
0.0058855453
0.0058260234
0.0057693105
0.0057165507
0.0056667199
0.0056200963
0.0055768093
0.0055359457
0.005498498
0.0054632011
0.0054301892
0.0053992613
0.005369657
0.0053419047
0.0053154844
0.0052900986
0.0052661342
0.0052433613
0.0052215625
0.0052010217
0.0051816692
0.0051635515
0.0051464969
0.0051304545
0.0051154049
0.0051009754
0.0050874917
0.0050749797
0.0050633343
0.0050524181
0.0050421897
0.005032648
0.0050236454
0.0050152434
0.0050075085
0.005000388
0.004993899
0.0049880838
0.0049828239
0.0049781784
0.0049741259
0.0049707257
0.0049678557
0.0049658619
0.0049639519
0.0049637866
0.080264073
0.082246802
0.084257012
0.086245405
0.088205951
0.090130472
0.092010109
0.093835957
0.095598982
0.097289891
0.098899055
0.10041644
0.10183154
0.10313328
0.10431001
0.10534942
0.10623857
0.10696386
0.10751119
0.10786594
0.10801316
0.10793764
0.10762397
0.10705665
0.10622024
0.10509942
0.10367927
0.1019454
0.099884329
0.097483878
0.094733644
0.091625632
0.088155012
0.084321002
0.080127931
0.07558663
0.070716596
0.065541988
0.060104551
0.054468353
0.048699642
0.042886407
0.037150559
0.031643608
0.026560104
0.02213515
0.018594641
0.016034862
0.014330747
0.013211628
0.012428593
0.011824601
0.011316052
0.010868938
0.010465132
0.010093871
0.0097509547
0.0094340618
0.0091386145
0.0088640643
0.0086103729
0.0083722454
0.0081513038
0.0079461271
0.0077549506
0.0075757786
0.0074089238
0.0072542978
0.0071078867
0.006971963
0.0068452021
0.0067250164
0.0066136459
0.0065098775
0.0064113694
0.0063199313
0.0062343193
0.006152865
0.0060771292
0.0060062355
0.0059388695
0.0058760468
0.0058173084
0.0057612871
0.0057092194
0.0056600275
0.0056139767
0.0055712533
0.0055309016
0.0054939157
0.0054590283
0.0054263749
0.0053957504
0.0053663947
0.0053388554
0.0053126176
0.0052873962
0.005263585
0.0052409566
0.0052192964
0.0051988857
0.0051796627
0.0051616815
0.0051447551
0.0051288382
0.0051139083
0.0050995868
0.0050861994
0.0050737596
0.0050621893
0.0050513409
0.0050411736
0.0050316978
0.0050227608
0.0050144111
0.0050067163
0.0049996393
0.0049931779
0.0049873901
0.0049821582
0.0049775347
0.0049735025
0.0049701177
0.004967263
0.0049652774
0.004963374
0.0049632124
0.085299166
0.08708931
0.088909158
0.090706306
0.092474054
0.094204163
0.095887783
0.097515932
0.099079454
0.10056892
0.10197456
0.10328621
0.10449325
0.10558453
0.10654834
0.10737237
0.10804371
0.10854886
0.10887381
0.10900406
0.10892483
0.10862105
0.10807749
0.10727888
0.10621005
0.1048561
0.1032026
0.10123584
0.098943221
0.096313636
0.093338053
0.090010162
0.086327192
0.082290849
0.077908435
0.073194419
0.068172706
0.06287079
0.057339947
0.051650977
0.045874487
0.040111711
0.034497004
0.029198092
0.024426291
0.020417778
0.017351407
0.015223139
0.013826733
0.012887076
0.012198861
0.011645479
0.011165711
0.010738354
0.010349596
0.0099902409
0.0096575911
0.0093498832
0.0090623436
0.0087949641
0.0085479534
0.0083155245
0.0080999231
0.0078996349
0.0077127726
0.0075373815
0.0073739855
0.0072225036
0.0070787058
0.0069452424
0.0068207005
0.006702432
0.0065929507
0.0064908887
0.0063938667
0.0063038814
0.0062195619
0.0061392484
0.0060646622
0.0059947767
0.005928304
0.0058663917
0.005808446
0.0057531315
0.0057017813
0.0056532392
0.005607771
0.005565617
0.0055257849
0.0054892646
0.005454785
0.0054224852
0.005392162
0.0053630537
0.0053357252
0.0053096714
0.0052846175
0.0052609636
0.0052384852
0.0052169695
0.0051966945
0.0051776078
0.005159765
0.0051429695
0.0051271843
0.0051123752
0.005098166
0.0050848798
0.0050725149
0.0050610205
0.0050502413
0.0050401369
0.0050307268
0.005021857
0.0050135613
0.0050059069
0.0049988753
0.0049924431
0.0049866822
0.0049814791
0.0049768782
0.0049728663
0.0049694975
0.0049666584
0.0049646812
0.0049627846
0.0049626268
0.090184075
0.091784257
0.093413632
0.095018103
0.096590893
0.098123901
0.099608336
0.10103519
0.10239526
0.10367902
0.10487663
0.10597785
0.10697197
0.1078478
0.10859361
0.10919711
0.10964544
0.10992519
0.11002248
0.10992298
0.10961206
0.10907488
0.10829646
0.10726181
0.10595615
0.10436507
0.10247475
0.10027229
0.097746101
0.09488633
0.091685502
0.088139219
0.084247036
0.08001346
0.075449133
0.070572592
0.065412064
0.0600004
0.054398572
0.048682932
0.042931698
0.037260621
0.031817882
0.026788847
0.022397004
0.018860047
0.016278603
0.014543163
0.013400766
0.01260081
0.011985981
0.011473429
0.011018092
0.010608801
0.010234344
0.0098864797
0.0095639358
0.0092653428
0.0089856589
0.0087254613
0.0084851466
0.0082584114
0.0080481666
0.0078527725
0.0076702157
0.0074985968
0.0073386507
0.0071902963
0.0070491049
0.0069181116
0.0067958027
0.0066794765
0.0065719148
0.0064715853
0.0063760777
0.0062875724
0.0062045688
0.0061254193
0.0060520133
0.0059831625
0.0059176007
0.0058566259
0.0057994821
0.0057448873
0.0056942752
0.0056463909
0.0056015141
0.0055599324
0.0055206242
0.0054845703
0.0054504943
0.0054185404
0.0053885139
0.0053596501
0.0053325291
0.0053066606
0.0052817763
0.0052582827
0.0052359591
0.0052145936
0.0051944594
0.0051755149
0.0051578116
0.0051411484
0.0051255003
0.0051108131
0.0050967193
0.005083538
0.0050712505
0.0050598321
0.0050491231
0.0050390831
0.005029738
0.0050209364
0.0050126959
0.0050050822
0.0049980974
0.0049916954
0.0049859608
0.004980787
0.0049762092
0.0049722177
0.0049688652
0.0049660419
0.0049640733
0.0049621835
0.0049620297
0.09487806
0.096290736
0.097729569
0.099140611
0.10051708
0.10185105
0.10313385
0.10435651
0.10550983
0.10658427
0.10756997
0.10845665
0.10923357
0.10988954
0.11041284
0.11079122
0.11101189
0.11106157
0.11092651
0.1105926
0.1100454
0.10927035
0.10825277
0.10697808
0.10543195
0.10360058
0.10147091
0.099030986
0.09627037
0.093180676
0.089756201
0.085994719
0.081898418
0.077474975
0.072738843
0.067713218
0.062429765
0.056929704
0.051284652
0.045574375
0.039888408
0.034358429
0.029148283
0.024460089
0.020517793
0.017491136
0.015377026
0.013978716
0.013037164
0.012343575
0.011785632
0.011306673
0.010872546
0.010480071
0.010119293
0.0097825649
0.0094699998
0.0091804464
0.0089085741
0.0086555851
0.0084219661
0.0082009212
0.0079960393
0.0078055264
0.0076272619
0.007459407
0.0073028967
0.0071576428
0.0070190559
0.0068905472
0.0067704868
0.0066561357
0.0065505255
0.0064519562
0.006357995
0.0062709962
0.0061893329
0.0061113734
0.0060391704
0.0059713804
0.0059067513
0.005846736
0.0057904055
0.0057365439
0.0056866861
0.0056394667
0.0055951911
0.0055541843
0.0055154034
0.0054798159
0.0054461395
0.0054145244
0.0053847905
0.0053561694
0.0053292537
0.0053035734
0.0052788622
0.0052555327
0.00523337
0.0052121611
0.0051921738
0.0051733783
0.005155816
0.0051392871
0.0051237811
0.005109218
0.0050952434
0.0050821703
0.0050699635
0.0050586216
0.0050479839
0.0050380102
0.0050287295
0.005019997
0.0050118133
0.0050042412
0.0049973043
0.0049909339
0.0049852253
0.0049800813
0.004975527
0.0049715563
0.0049682204
0.0049654132
0.0049634534
0.0049615706
0.0049614207
0.099337386
0.10056499
0.10181371
0.10303117
0.10421062
0.1053443
0.10642369
0.10743993
0.10838388
0.10924607
0.11001663
0.11068531
0.11124141
0.11167374
0.11197065
0.11211994
0.11210895
0.11192452
0.11155311
0.1109808
0.11019346
0.10917683
0.10791663
0.10639875
0.10460947
0.10253569
0.10016527
0.097487348
0.094492866
0.091175102
0.087530388
0.083558963
0.079265991
0.074662738
0.069768034
0.064610619
0.059224022
0.053662252
0.048007826
0.042341461
0.036769389
0.031440006
0.026533921
0.022264224
0.018833012
0.016327451
0.014634677
0.013509584
0.012721364
0.012107814
0.011594513
0.011143863
0.010728657
0.01035205
0.010004362
0.0096784822
0.0093758001
0.0090951998
0.0088311149
0.0085853805
0.0083584256
0.0081430737
0.0079435534
0.0077578879
0.0075839009
0.0074198067
0.0072667172
0.0071245275
0.0069885544
0.0068625512
0.0067447573
0.0066324237
0.0065287998
0.0064320199
0.006339642
0.0062541747
0.0061738769
0.0060971369
0.0060261519
0.0059594465
0.0058957766
0.0058367369
0.0057812327
0.0057281187
0.005679025
0.0056324765
0.0055888115
0.0055483808
0.0055101287
0.0054750053
0.0054417229
0.0054104397
0.0053809933
0.005352613
0.0053259006
0.0053004118
0.0052758775
0.0052527162
0.0052307203
0.0052096752
0.005189841
0.0051712009
0.0051537814
0.0051373883
0.0051220288
0.0051075922
0.0050937404
0.0050807778
0.0050686551
0.0050573902
0.0050468248
0.0050369191
0.0050277025
0.0050190391
0.0050109136
0.0050033844
0.004996496
0.0049901586
0.0049844759
0.0049793622
0.0049748317
0.0049708819
0.004967563
0.004964772
0.0049628215
0.0049609455
0.0049607998
0.10351622
0.10456118
0.1056206
0.10664482
0.10762707
0.10855979
0.10943463
0.11024289
0.11097554
0.11162319
0.11217608
0.112624
0.11295633
0.11316195
0.11322927
0.11314623
0.11290028
0.11247846
0.11186742
0.11105355
0.11002303
0.10876201
0.10725667
0.1054935
0.10345948
0.10114241
0.098531177
0.095616257
0.092390168
0.088848117
0.084988764
0.08081515
0.076335807
0.071566049
0.066529654
0.061261378
0.055798738
0.050208771
0.04458312
0.039008178
0.033609518
0.028552117
0.024031817
0.020258014
0.017377452
0.015367983
0.014029578
0.013114924
0.012440909
0.011887677
0.011410221
0.010983937
0.010586246
0.010224703
0.0098894329
0.0095742196
0.0092813549
0.0090096054
0.00875333
0.008514916
0.0082945271
0.0080848827
0.0078907233
0.0077098462
0.0075401161
0.0073797851
0.007230102
0.0070909307
0.0069575967
0.0068341221
0.0067186123
0.0066083495
0.0065067486
0.0064117862
0.006321033
0.0062371197
0.0061582119
0.0060827238
0.0060129651
0.0059473641
0.0058846835
0.0058266282
0.0057719638
0.0057196142
0.0056712883
0.0056254164
0.0055823709
0.0055425164
0.0055047937
0.0054701301
0.0054372358
0.0054062786
0.0053771147
0.0053489736
0.0053224636
0.0052971704
0.005272818
0.0052498292
0.0052280069
0.0052071336
0.0051874592
0.0051689807
0.0051517065
0.0051354509
0.0051202414
0.0051059347
0.0050922092
0.0050793591
0.0050673241
0.0050561373
0.0050456453
0.0050358091
0.0050266565
0.0050180619
0.0050099961
0.0050025115
0.0049956719
0.0049893689
0.0049837123
0.0049786292
0.0049741228
0.0049701944
0.0049668927
0.004964118
0.0049621773
0.0049603082
0.0049601666
0.10736661
0.10823135
0.10910265
0.10993432
0.11071966
0.11145126
0.11212099
0.11272031
0.11324036
0.1136719
0.11400528
0.11423042
0.11433677
0.11431334
0.11414866
0.11383081
0.11334741
0.11268573
0.11183267
0.11077498
0.10949922
0.10799201
0.10624014
0.10423078
0.10195179
0.099391972
0.096541516
0.093392411
0.089939029
0.086178805
0.082113071
0.077748066
0.073096152
0.06817726
0.063020815
0.057667683
0.052162102
0.046584988
0.04103533
0.035610501
0.030456964
0.025755425
0.021708421
0.018494265
0.016167137
0.014594174
0.013534748
0.012775982
0.012185748
0.011678889
0.011231103
0.01082594
0.010445408
0.010098042
0.0097742951
0.0094697769
0.0091866871
0.008923654
0.0086753081
0.0084442951
0.0082302425
0.0080263608
0.0078375768
0.0076613934
0.0074958853
0.0073393308
0.0071930479
0.007056842
0.0069261947
0.0068052682
0.0066920579
0.0065839332
0.0064843936
0.0063912738
0.006302192
0.0062198521
0.0061423561
0.0060681554
0.0059996266
0.0059351455
0.0058734845
0.0058164164
0.0057626047
0.0057110389
0.0056634785
0.0056182883
0.005575871
0.0055365913
0.0054993975
0.0054651876
0.0054326747
0.0054020385
0.0053731516
0.0053452485
0.0053189408
0.0052938479
0.0052696828
0.0052468716
0.00522523
0.0052045376
0.0051850298
0.0051667186
0.0051495926
0.0051334763
0.0051184195
0.0051042461
0.0050906503
0.0050779143
0.0050659709
0.0050548633
0.0050444457
0.0050346802
0.0050255918
0.005017065
0.0050090603
0.0050016227
0.0049948316
0.0049885645
0.0049829346
0.0049778822
0.0049734002
0.0049694936
0.0049662092
0.0049634511
0.0049615207
0.0049596584
0.0049595211
0.11083825
0.11152531
0.11220993
0.11285012
0.11343921
0.11397
0.11443458
0.11482461
0.11513144
0.11534599
0.11545878
0.11545986
0.11533884
0.11508486
0.1146866
0.11413232
0.11340989
0.1125068
0.11141032
0.11010758
0.10858563
0.10683166
0.10483316
0.10257815
0.1000555
0.097255267
0.094169114
0.090790834
0.087116956
0.083147498
0.078886868
0.074344964
0.069538528
0.064492848
0.059243938
0.053837637
0.048329645
0.042816692
0.037401354
0.032198683
0.027375717
0.023124295
0.019632637
0.017009404
0.015193763
0.013974858
0.013123437
0.012477725
0.011948007
0.011478619
0.011055957
0.010668932
0.010306468
0.009971943
0.0096586764
0.0093652294
0.0090918521
0.0088373171
0.0085971853
0.0083736351
0.008165492
0.0079675467
0.0077841624
0.0076125121
0.007451172
0.0072984343
0.0071555613
0.0070222569
0.0068943702
0.0067760011
0.0066651019
0.0065591996
0.0064617599
0.0063705009
0.0062831429
0.0062023922
0.0061263251
0.0060534489
0.0059861515
0.0059228007
0.0058621876
0.0058061036
0.0057531555
0.005702395
0.0056555935
0.0056110895
0.0055693093
0.005530601
0.0054939346
0.005460171
0.0054280327
0.0053977136
0.0053690984
0.0053414324
0.0053153282
0.0052904407
0.0052664695
0.0052438417
0.0052223881
0.005201887
0.0051825528
0.0051644137
0.0051474398
0.0051314649
0.0051165627
0.0051025258
0.0050890633
0.0050764428
0.0050645946
0.0050535679
0.0050432258
0.0050335322
0.0050245086
0.0050160479
0.0050081056
0.0050007179
0.0049939746
0.0049877449
0.0049821426
0.0049771209
0.0049726635
0.0049687792
0.0049655123
0.0049627709
0.0049608514
0.0049589959
0.0049588629
0.11387851
0.11439051
0.11489016
0.11534023
0.11573414
0.11606488
0.1163248
0.11650582
0.11659948
0.11659692
0.11648882
0.11626542
0.11591648
0.11543133
0.11479884
0.11400749
0.11304542
0.11190047
0.11056027
0.10901247
0.10724468
0.10524479
0.10300111
0.10050268
0.097739577
0.094703328
0.091387356
0.087787562
0.083902998
0.079736683
0.075296579
0.070596771
0.065659006
0.060514863
0.055208366
0.04978772
0.044328887
0.038943218
0.03373317
0.028840394
0.024447052
0.020741814
0.017862121
0.015811556
0.014426866
0.01347416
0.012773025
0.012209096
0.011721573
0.011284892
0.010883721
0.010512308
0.010169518
0.0098460904
0.0095426653
0.0092608435
0.0089969868
0.0087505714
0.0085191277
0.0083029522
0.0081001606
0.0079085668
0.0077305338
0.0075631532
0.0074059297
0.007257106
0.0071176692
0.0069871716
0.0068621523
0.0067463413
0.006637756
0.006534185
0.0064388789
0.0063494883
0.0062639133
0.0061847644
0.0061101355
0.0060386224
0.0059725566
0.005910342
0.0058508007
0.0057956942
0.0057436174
0.0056936847
0.0056476311
0.0056038165
0.0055626846
0.0055245423
0.0054884007
0.005455075
0.0054233043
0.0053932995
0.0053649507
0.0053375218
0.0053116236
0.0052869465
0.0052631767
0.0052407391
0.0052194809
0.0051991828
0.0051800294
0.0051620663
0.005145249
0.0051294175
0.0051146715
0.005100774
0.0050874479
0.0050749448
0.0050631953
0.0050522513
0.005041986
0.005032365
0.0050234068
0.0050150102
0.0050071316
0.0049997971
0.0049931003
0.0049869098
0.0049813362
0.0049763452
0.0049719127
0.0049680512
0.0049648017
0.0049620772
0.0049601692
0.0049583206
0.004958192
0.11643192
0.11677167
0.11708841
0.11735012
0.11755034
0.11768233
0.1177387
0.11771164
0.11759294
0.11737394
0.11704552
0.11659811
0.11602166
0.1153057
0.11443936
0.11341138
0.11221023
0.11082414
0.10924123
0.10744975
0.10543799
0.10319466
0.10070908
0.09797148
0.094973394
0.091708069
0.088171004
0.084360583
0.080278816
0.075932233
0.071332921
0.066499781
0.061460275
0.056253257
0.050931324
0.045549234
0.040204501
0.035018257
0.030102749
0.025623989
0.021766773
0.018686254
0.016425539
0.014876786
0.013823334
0.013059373
0.012466166
0.011960793
0.011505292
0.011092943
0.0107127
0.010359497
0.01002984
0.0097196315
0.0094289
0.0091570693
0.0089022897
0.0086635339
0.0084411371
0.0082320376
0.0080343001
0.0078496599
0.007676668
0.0075132457
0.007360142
0.0072153973
0.0070794104
0.0069515677
0.0068295744
0.0067163206
0.0066100344
0.0065089403
0.0064157858
0.0063282553
0.0062445337
0.0061669943
0.0060938021
0.0060236919
0.0059588565
0.0058977789
0.0058393291
0.0057851907
0.0057339897
0.0056849073
0.0056395864
0.0055964625
0.0055559938
0.0055184095
0.0054827895
0.0054498925
0.005418483
0.0053887905
0.0053607033
0.0053335125
0.0053078241
0.005283363
0.005259803
0.0052375632
0.0052165075
0.0051964255
0.0051774606
0.0051596763
0.0051430206
0.0051273351
0.0051127464
0.0050989904
0.0050858038
0.00507342
0.0050617726
0.0050509132
0.005040726
0.0050311784
0.0050222866
0.0050139518
0.0050061381
0.0049988599
0.0049922082
0.0049860587
0.0049805154
0.0049755547
0.0049711476
0.0049673094
0.0049640774
0.0049613698
0.0049594739
0.0049576322
0.0049575081
0.11844093
0.11861131
0.11874744
0.11882291
0.11883143
0.11876654
0.11862115
0.11838773
0.11805831
0.11762444
0.1170772
0.11640723
0.11560471
0.1146594
0.11356071
0.11229774
0.11085935
0.10923425
0.10741114
0.10537899
0.10312692
0.10064462
0.097922604
0.09495254
0.091727664
0.088243274
0.084497322
0.080491115
0.076230147
0.071725079
0.066992845
0.062057964
0.056954562
0.051730007
0.046444512
0.041167071
0.036018097
0.031121113
0.026607706
0.022657755
0.019432749
0.01700842
0.015310504
0.01415751
0.01333869
0.012710264
0.012186321
0.011717374
0.011294605
0.010906309
0.010545206
0.010207863
0.0098917754
0.0095943435
0.0093150335
0.0090532974
0.0088078224
0.0085777458
0.0083621259
0.0081590661
0.0079689385
0.0077912244
0.0076224376
0.0074628482
0.0073138901
0.0071733896
0.0070407825
0.0069154154
0.0067966877
0.0066859782
0.0065819585
0.0064835374
0.0063925158
0.0063068187
0.0062250417
0.0061491081
0.0060773355