/*--------------------------------*- C++ -*----------------------------------*\
| =========                 |                                                 |
| \\      /  F ield         | OpenFOAM: The Open Source CFD Toolbox           |
|  \\    /   O peration     | Version:  2406                                  |
|   \\  /    A nd           | Website:  www.openfoam.com                      |
|    \\/     M anipulation  |                                                 |
\*---------------------------------------------------------------------------*/
FoamFile
{
    version     2.0;
    format      ascii;
    arch        "LSB;label=32;scalar=64";
    class       volScalarField;
    location    "0.03";
    object      Ma;
}
// * * * * * * * * * * * * * * * * * * * * * * * * * * * * * * * * * * * * * //

dimensions      [0 0 0 0 0 0 0];

internalField   nonuniform List<scalar> 
92813
(
0.14239003
0.14307579
0.14380809
0.14452469
0.14515983
0.14573929
0.14628262
0.14680285
0.14731206
0.14782069
0.14833757
0.14886993
0.14942325
0.15000231
0.15060319
0.15122646
0.15186825
0.1525168
0.15315914
0.15379042
0.15440732
0.1550048
0.15558947
0.15616466
0.15673077
0.15728696
0.15783166
0.15836282
0.15887795
0.15937416
0.15984819
0.16029632
0.16071445
0.16109799
0.16144187
0.16174036
0.16198704
0.16217898
0.16230395
0.16234312
0.16230226
0.16217551
0.16194313
0.16159532
0.16112417
0.16052526
0.15980169
0.15897163
0.15807818
0.1571951
0.15641033
0.15578202
0.15530905
0.15495178
0.15466635
0.15442122
0.15419857
0.15398966
0.15379009
0.15359821
0.15341365
0.15323495
0.15306199
0.15289476
0.15273252
0.15257441
0.15242066
0.15227183
0.15212664
0.15198581
0.15184928
0.15171564
0.1515859
0.15146003
0.15133672
0.15121707
0.15110097
0.15098719
0.15087683
0.1507697
0.15066459
0.15056266
0.15046402
0.15036733
0.15027363
0.15018223
0.150093
0.15000623
0.14992116
0.14983891
0.14975864
0.14968065
0.14960513
0.14953137
0.14946027
0.14939136
0.1493242
0.14925953
0.14919722
0.14913689
0.14907871
0.1490228
0.14896915
0.1489171
0.14886697
0.14881914
0.14877282
0.14872861
0.14868651
0.14864633
0.14860797
0.14857154
0.14853722
0.14850464
0.14847386
0.14844498
0.14841804
0.14839293
0.14836985
0.14834888
0.14832973
0.1483131
0.1482981
0.14828622
0.14827563
0.1482696
0.14826457
0.13990248
0.1407747
0.14164911
0.14247405
0.14324181
0.143964
0.14465237
0.14531562
0.14596169
0.14659827
0.14723247
0.14787069
0.14851805
0.14917759
0.14984843
0.15052864
0.15121394
0.15189727
0.15257161
0.15323325
0.15388014
0.15451079
0.15512718
0.1557308
0.15632185
0.15689957
0.15746257
0.15800893
0.1585363
0.15904189
0.15952249
0.15997446
0.16039369
0.16077559
0.16111506
0.16140639
0.16164335
0.16182119
0.16192681
0.16194718
0.1618872
0.16173139
0.1614673
0.16108567
0.16057911
0.15994549
0.15919263
0.15834659
0.15746148
0.15661924
0.15590243
0.15534866
0.15493764
0.15462425
0.15436832
0.15414374
0.1539368
0.15374109
0.1535533
0.15337231
0.15319805
0.15302896
0.15286511
0.15270656
0.1525525
0.15240212
0.15225576
0.15211404
0.15197555
0.15184117
0.15171079
0.15158294
0.15145878
0.15133825
0.15121994
0.15110515
0.15099365
0.15088421
0.15077804
0.15067488
0.15057353
0.15047527
0.15038011
0.15028671
0.15019617
0.15010779
0.15002143
0.14993739
0.14985492
0.14977515
0.14969725
0.14962153
0.14954815
0.14947644
0.14940731
0.14934026
0.14927489
0.14921193
0.14915125
0.14909249
0.14903578
0.14898128
0.14892898
0.1488782
0.14882927
0.14878259
0.14873736
0.14869419
0.14865306
0.1486138
0.14857631
0.14854068
0.14850712
0.14847526
0.14844514
0.14841688
0.14839051
0.14836592
0.1483433
0.14832276
0.14830398
0.14828768
0.14827294
0.14826131
0.14825089
0.14824498
0.14823999
0.13709875
0.13809267
0.13913487
0.14011976
0.14104397
0.14191932
0.14275618
0.14356201
0.14434353
0.14510727
0.14585941
0.14660555
0.14735025
0.14809637
0.1488442
0.14959228
0.15033735
0.15107462
0.15179922
0.15250806
0.15319939
0.15387236
0.15452771
0.15516633
0.15578845
0.15639354
0.15698044
0.15754743
0.15809232
0.15861245
0.15910472
0.15956556
0.15999089
0.16037613
0.16071614
0.16100519
0.16123698
0.16140564
0.16149747
0.16150568
0.16143031
0.16125055
0.16096073
0.16055133
0.16001618
0.15935604
0.15858405
0.15773493
0.15687297
0.1560837
0.15543739
0.15495033
0.15458956
0.15431035
0.15407791
0.15387072
0.153678
0.15349486
0.15331854
0.15314826
0.1529842
0.15282464
0.15266981
0.15251988
0.15237399
0.15223129
0.15209226
0.15195761
0.15182576
0.15169774
0.15157345
0.15145129
0.15133262
0.15121733
0.15110395
0.1509939
0.15088693
0.15078176
0.1506797
0.15058049
0.15048286
0.1503882
0.15029647
0.1502063
0.15011887
0.15003346
0.14994993
0.14986858
0.14978868
0.14971134
0.14963578
0.14956228
0.14949103
0.14942134
0.14935413
0.14928894
0.14922534
0.14916406
0.14910501
0.1490478
0.14899256
0.14893945
0.14888849
0.14883897
0.14879124
0.14874568
0.14870154
0.1486594
0.14861923
0.14858088
0.14854424
0.14850942
0.1484766
0.14844546
0.148416
0.14838834
0.14836255
0.14833846
0.14831631
0.14829619
0.14827778
0.14826181
0.14824734
0.14823594
0.1482257
0.14821989
0.14821495
0.1345015
0.13560457
0.13678048
0.13790506
0.13896873
0.13998079
0.14095016
0.1418833
0.14278602
0.14366398
0.1445226
0.14536674
0.14620042
0.1470263
0.14784527
0.14865675
0.14945868
0.15024787
0.15102094
0.15177539
0.15250965
0.15322291
0.15391544
0.15458777
0.15523999
0.15587166
0.15648175
0.15706868
0.1576304
0.15816438
0.15866757
0.15913648
0.15956704
0.15995467
0.16029418
0.16057971
0.16080482
0.16096289
0.16104086
0.16103589
0.16094149
0.16073686
0.16042039
0.15998243
0.15941888
0.15873421
0.15794816
0.15710524
0.1562789
0.15555297
0.15498016
0.15455674
0.15424178
0.15399362
0.15378305
0.15359258
0.15341388
0.15324332
0.15307853
0.15291908
0.15276535
0.15261543
0.15246974
0.15232856
0.15219095
0.15205605
0.15192449
0.15179704
0.15167194
0.15155041
0.15143233
0.15131599
0.15120292
0.151093
0.15098466
0.15087947
0.15077716
0.15067636
0.15057854
0.15048337
0.15038957
0.15029861
0.15021042
0.15012357
0.15003935
0.14995701
0.14987638
0.14979781
0.14972055
0.14964574
0.14957258
0.14950138
0.14943233
0.14936473
0.14929951
0.14923623
0.14917446
0.14911494
0.14905756
0.14900197
0.14894823
0.14889656
0.14884699
0.14879877
0.14875228
0.1487079
0.14866487
0.1486238
0.14858462
0.14854721
0.14851146
0.14847746
0.14844542
0.14841501
0.14838624
0.1483592
0.148334
0.14831044
0.14828876
0.14826909
0.14825106
0.14823543
0.14822124
0.14821008
0.14820001
0.14819433
0.14818944
0.13209112
0.1332919
0.13457555
0.1358174
0.13700243
0.13813554
0.13922329
0.14027074
0.14128269
0.14226398
0.14321929
0.14415288
0.14506833
0.14596816
0.14685364
0.14772482
0.14858063
0.14941912
0.15023806
0.15103561
0.15181045
0.15256188
0.15328987
0.15399456
0.15467589
0.15533336
0.15596598
0.15657228
0.15715028
0.15769752
0.15821103
0.15868732
0.15912234
0.15951147
0.15984945
0.16013029
0.16034733
0.16049323
0.16055706
0.16053678
0.16041981
0.16018938
0.15984498
0.15937763
0.15878618
0.15807993
0.15728664
0.15646128
0.15568382
0.15502999
0.15453144
0.15416763
0.15389411
0.1536742
0.15348412
0.15330982
0.15314501
0.15298709
0.15283398
0.15268551
0.15254229
0.15240216
0.15226578
0.15213351
0.15200434
0.1518774
0.15175345
0.15163335
0.15151514
0.15140023
0.15128848
0.15117807
0.15107073
0.15096627
0.15086308
0.15076285
0.15066528
0.15056896
0.15047545
0.15038441
0.15029451
0.15020733
0.15012274
0.15003929
0.14995834
0.14987912
0.14980146
0.14972572
0.14965116
0.14957891
0.14950821
0.14943935
0.14937253
0.14930707
0.14924388
0.14918255
0.14912265
0.1490649
0.14900924
0.14895529
0.14890309
0.1488529
0.14880474
0.14875784
0.14871262
0.14866941
0.14862753
0.14858754
0.14854937
0.14851292
0.14847806
0.14844491
0.14841366
0.148384
0.14835591
0.14832951
0.14830492
0.14828189
0.1482607
0.14824148
0.14822384
0.14820854
0.14819464
0.14818373
0.14817385
0.14816828
0.14816344
0.12984112
0.13114253
0.13251997
0.13386089
0.13514932
0.13638662
0.13757709
0.13872445
0.13983256
0.14090543
0.14194705
0.14296114
0.14395085
0.14491859
0.14586582
0.14679303
0.14769986
0.14858525
0.1494478
0.15028623
0.15109952
0.15188709
0.15264869
0.15338421
0.15409339
0.15477564
0.15542997
0.15605492
0.15664855
0.15720844
0.15773164
0.15821464
0.15865339
0.1590432
0.15937872
0.15965386
0.15986174
0.15999412
0.16004257
0.1600049
0.15986341
0.15960619
0.15923269
0.15873579
0.15811803
0.15739483
0.15660338
0.15580876
0.15509302
0.15451725
0.1540911
0.15378199
0.1535457
0.15335159
0.15318092
0.15302238
0.1528714
0.15272623
0.15258494
0.15244761
0.15231507
0.15218488
0.15205795
0.15193475
0.15181416
0.15169531
0.15157912
0.15146649
0.1513553
0.15124712
0.15114182
0.15103745
0.15093593
0.15083705
0.15073909
0.15064392
0.15055118
0.15045941
0.15037031
0.15028347
0.15019755
0.15011424
0.15003331
0.14995331
0.1498757
0.14979967
0.14972503
0.14965218
0.14958038
0.14951074
0.14944254
0.14937607
0.14931153
0.14924826
0.14918713
0.14912779
0.1490698
0.14901387
0.14895996
0.14890769
0.14885707
0.14880837
0.14876164
0.1487161
0.14867217
0.14863018
0.14858946
0.14855058
0.14851343
0.14847796
0.14844402
0.14841173
0.14838129
0.14835239
0.14832501
0.14829926
0.14827527
0.1482528
0.14823211
0.14821334
0.1481961
0.14818115
0.14816754
0.14815688
0.14814718
0.14814174
0.14813696
0.12775956
0.12916331
0.1306232
0.13204658
0.13342061
0.13474476
0.13602163
0.13725387
0.13844446
0.13959665
0.14071378
0.14179897
0.14285501
0.14388408
0.14488769
0.14586664
0.14682101
0.14775034
0.14865383
0.14953061
0.15037994
0.15120128
0.15199431
0.15275873
0.15349409
0.15419971
0.15487451
0.15551703
0.1561253
0.1566969
0.15722885
0.15771763
0.15815912
0.15854855
0.15888046
0.15914867
0.15934616
0.15946332
0.15949486
0.1594382
0.15927029
0.15898506
0.15858165
0.15805581
0.1574147
0.15668135
0.15590333
0.15515409
0.15451148
0.15401645
0.15365865
0.15339883
0.15319581
0.15302542
0.15287327
0.1527302
0.15259304
0.15246075
0.15233141
0.15220538
0.15208369
0.15196359
0.15184626
0.15173228
0.15162041
0.15150978
0.15140148
0.15129647
0.15119242
0.1510911
0.15099236
0.15089413
0.15079855
0.15070533
0.1506127
0.15052269
0.15043486
0.15034773
0.15026312
0.15018057
0.15009871
0.15001933
0.14994213
0.14986566
0.14979146
0.14971867
0.14964711
0.1495772
0.14950821
0.14944123
0.14937559
0.14931155
0.14924935
0.1491883
0.14912928
0.14907197
0.14901593
0.14896186
0.14890973
0.14885918
0.14881016
0.14876299
0.14871773
0.14867356
0.14863096
0.14859019
0.14855066
0.14851291
0.14847682
0.14844234
0.14840933
0.14837792
0.1483483
0.14832017
0.14829352
0.14826843
0.14824507
0.14822316
0.14820297
0.14818466
0.14816783
0.14815324
0.14813993
0.14812952
0.14812001
0.14811469
0.14810997
0.1258739
0.12736521
0.12889261
0.13038163
0.13182366
0.13321748
0.13456455
0.1358667
0.13712612
0.13834535
0.13952705
0.14067379
0.14178791
0.14287133
0.14392551
0.14495134
0.14594917
0.14691893
0.14786018
0.14877237
0.14965494
0.15050742
0.15132942
0.15212048
0.15288002
0.15360723
0.15430093
0.15495958
0.15558118
0.15616323
0.15670272
0.15719605
0.15763901
0.15802671
0.15835358
0.15861331
0.15879882
0.1588989
0.15891253
0.15883463
0.15863814
0.15832378
0.1578902
0.15733701
0.15667726
0.15594307
0.15519262
0.15450379
0.153943
0.15352798
0.15323289
0.15301698
0.15284375
0.15269537
0.15256109
0.15243328
0.15230997
0.15219068
0.15207343
0.15195886
0.15184819
0.15173831
0.15163071
0.1515261
0.1514231
0.15132082
0.15122056
0.15112329
0.1510265
0.15093215
0.15084007
0.15074809
0.15065855
0.1505711
0.1504839
0.15039913
0.15031631
0.1502339
0.15015387
0.15007568
0.14999795
0.14992259
0.14984918
0.14977631
0.14970558
0.14963609
0.14956768
0.14950075
0.14943464
0.14937038
0.14930733
0.14924578
0.14918594
0.14912717
0.14907029
0.14901507
0.14896102
0.14890883
0.14885853
0.14880973
0.14876235
0.14871674
0.14867297
0.1486302
0.14858896
0.14854944
0.14851112
0.14847452
0.1484395
0.14840603
0.14837398
0.14834347
0.14831468
0.14828734
0.14826143
0.14823701
0.14821429
0.14819296
0.14817328
0.14815544
0.14813903
0.14812479
0.1481118
0.14810164
0.14809233
0.14808714
0.14808248
0.12419087
0.12575041
0.12732908
0.12886738
0.13036073
0.13180796
0.13320986
0.13456758
0.13588266
0.13715695
0.13839246
0.13959121
0.14075506
0.14188563
0.14298419
0.14405161
0.14508836
0.14609455
0.14706999
0.14801429
0.14892702
0.14980773
0.15065598
0.15147119
0.15225264
0.15299936
0.15371008
0.15438314
0.15501644
0.15560742
0.15615295
0.15664932
0.15709222
0.1574766
0.15779672
0.15804609
0.15821745
0.15829965
0.15829436
0.15819091
0.15796436
0.15762028
0.15715704
0.15657949
0.15590809
0.15518535
0.15447871
0.15386427
0.15339013
0.15305128
0.15281242
0.15263537
0.15248897
0.15236125
0.15224434
0.15213164
0.15202222
0.15191606
0.15181105
0.15170811
0.1516086
0.15150906
0.15141134
0.15131623
0.15122222
0.15112843
0.15103634
0.15094694
0.15085752
0.15077027
0.15068495
0.15059933
0.15051593
0.15043434
0.15035266
0.15027323
0.1501955
0.15011791
0.15004253
0.14996878
0.14989527
0.14982399
0.14975444
0.14968524
0.14961804
0.14955191
0.14948671
0.14942283
0.14935964
0.14929815
0.14923775
0.14917872
0.14912131
0.14906485
0.14901017
0.14895707
0.14890505
0.14885479
0.14880634
0.14875934
0.14871363
0.14866961
0.14862735
0.14858602
0.14854616
0.14850791
0.14847083
0.1484354
0.14840148
0.14836903
0.14833795
0.14830837
0.14828043
0.14825389
0.14822872
0.148205
0.14818292
0.14816218
0.14814302
0.14812567
0.14810968
0.14809581
0.14808314
0.14807323
0.14806413
0.14805906
0.14805447
0.12271054
0.12431593
0.12592888
0.12750098
0.12903037
0.13051618
0.13195879
0.13335882
0.13471722
0.13603521
0.13731419
0.13855562
0.13976091
0.1409313
0.14206784
0.14317127
0.14424204
0.14528032
0.14628601
0.14725881
0.14819833
0.14910414
0.14997569
0.1508123
0.15161311
0.15237702
0.15310259
0.15378805
0.15443117
0.15502925
0.15557903
0.15607668
0.1565177
0.15689691
0.15720838
0.15744541
0.15760005
0.15766353
0.15763735
0.1575041
0.1572469
0.15687279
0.15638152
0.15578455
0.15511146
0.15441562
0.15377003
0.15324102
0.15285401
0.15258508
0.15239573
0.15225306
0.15213104
0.15202295
0.15192303
0.15182533
0.15172988
0.15163698
0.15154433
0.15145317
0.15136496
0.15127588
0.15118818
0.15110268
0.15101779
0.15093263
0.15084885
0.15076742
0.1506855
0.15060545
0.15052699
0.15044783
0.15037067
0.15029503
0.15021898
0.15014497
0.15007241
0.14999973
0.14992909
0.14985985
0.14979064
0.14972352
0.14965789
0.14959244
0.14952882
0.14946612
0.14940419
0.1493434
0.1492832
0.14922452
0.14916682
0.14911038
0.14905543
0.14900134
0.14894888
0.14889795
0.14884801
0.14879972
0.14875316
0.14870799
0.14866398
0.14862159
0.14858086
0.14854099
0.14850254
0.14846559
0.14842978
0.14839554
0.14836273
0.14833132
0.14830124
0.14827259
0.14824552
0.1482198
0.1481954
0.14817238
0.14815096
0.14813082
0.1481122
0.14809533
0.14807978
0.14806628
0.14805393
0.14804429
0.14803539
0.14803045
0.14802593
0.12142846
0.123054
0.12468432
0.12627609
0.1278281
0.12933951
0.13081034
0.13224077
0.13363123
0.13498238
0.13629507
0.13757026
0.13880888
0.14001183
0.14117986
0.14231351
0.14341314
0.14447887
0.1455106
0.14650803
0.14747075
0.14839826
0.14928995
0.15014501
0.15096242
0.15174092
0.15247893
0.1531745
0.15382526
0.15442833
0.15498031
0.15547717
0.15591423
0.15628613
0.15658681
0.15680943
0.15694471
0.15698727
0.15693764
0.15677237
0.15648407
0.15608008
0.15556398
0.15495523
0.154294
0.15364323
0.15307501
0.1526379
0.15233427
0.15212759
0.15198136
0.15186925
0.15176969
0.15168044
0.1515972
0.15151445
0.15143302
0.1513535
0.15127336
0.15119415
0.15111733
0.15103882
0.15096127
0.1508855
0.15080984
0.15073344
0.1506581
0.15058473
0.15051043
0.15043769
0.15036618
0.15029359
0.15022278
0.15015317
0.15008284
0.15001435
0.14994705
0.14987936
0.14981353
0.14974889
0.14968405
0.14962116
0.14955952
0.14949788
0.14943791
0.14937868
0.1493201
0.14926245
0.1492053
0.14914949
0.14909453
0.14904072
0.14898827
0.1489366
0.14888643
0.14883769
0.14878988
0.14874359
0.14869896
0.14865566
0.14861339
0.14857265
0.14853349
0.14849511
0.1484581
0.14842247
0.14838794
0.14835491
0.14832325
0.1482929
0.14826383
0.14823615
0.14820995
0.14818506
0.14816144
0.14813914
0.14811839
0.14809886
0.14808079
0.14806442
0.14804932
0.1480362
0.14802417
0.14801479
0.14800611
0.1480013
0.14799685
0.12031896
0.12195015
0.12358506
0.12518473
0.12674804
0.12827391
0.12976207
0.13121234
0.1326247
0.13399936
0.1353367
0.1366372
0.13790138
0.13912977
0.14032282
0.14148084
0.14260403
0.14369238
0.14474572
0.14576368
0.14674578
0.14769143
0.14859989
0.14947022
0.15030124
0.15109152
0.15183929
0.15254243
0.15319837
0.15380405
0.15435587
0.15484958
0.1552803
0.15564243
0.15592978
0.15613556
0.15624865
0.15626847
0.15619273
0.15599343
0.15567392
0.15524163
0.15470632
0.15409699
0.15346497
0.15287885
0.15240093
0.15205664
0.15182938
0.1516768
0.151568
0.15148329
0.15140477
0.1513338
0.15126693
0.15119909
0.15113176
0.15106572
0.15099824
0.15093113
0.15086576
0.15079795
0.15073068
0.1506647
0.15059838
0.15053088
0.15046412
0.15039891
0.15033235
0.15026701
0.15020253
0.15013662
0.15007225
0.15000875
0.14994425
0.14988136
0.14981938
0.14975678
0.14969584
0.14963586
0.1495755
0.1495169
0.14945931
0.14940157
0.14934529
0.1492896
0.14923442
0.14917997
0.14912592
0.14907302
0.14902086
0.14896972
0.14891984
0.14887063
0.14882277
0.1487763
0.14873064
0.14868639
0.14864373
0.14860235
0.14856185
0.14852279
0.14848522
0.14844836
0.14841281
0.14837854
0.14834532
0.14831352
0.14828302
0.14825375
0.14822571
0.14819901
0.14817371
0.14814967
0.14812685
0.14810528
0.1480852
0.1480663
0.14804879
0.14803292
0.14801828
0.14800554
0.14799386
0.14798474
0.14797628
0.1479716
0.14796723
0.11936782
0.12099327
0.1226223
0.12421972
0.12578439
0.12731495
0.12881083
0.13027152
0.13169665
0.13308603
0.13443962
0.13575751
0.13703985
0.1382868
0.13949851
0.14067506
0.14181643
0.14292246
0.14399284
0.14502707
0.14602455
0.14698459
0.14790627
0.14878852
0.14962995
0.15042896
0.15118359
0.15189149
0.15254989
0.15315552
0.15370454
0.15419246
0.15461413
0.15496369
0.15523471
0.15542052
0.15551003
0.15550559
0.15539872
0.15516452
0.15481504
0.15435834
0.15381275
0.15321835
0.15263617
0.15213311
0.15175277
0.1514969
0.15133693
0.1512307
0.1511546
0.15109465
0.15103632
0.1509832
0.15093229
0.15087937
0.15082624
0.15077373
0.15071907
0.15066426
0.15061031
0.15055333
0.15049648
0.15044034
0.15038345
0.15032501
0.15026695
0.15020995
0.15015127
0.15009342
0.15003602
0.14997693
0.14991908
0.14986176
0.1498032
0.14974599
0.14968941
0.149632
0.14957601
0.14952076
0.14946496
0.14941071
0.14935724
0.14930348
0.14925094
0.14919883
0.14914714
0.14909594
0.14904504
0.14899511
0.14894579
0.14889739
0.1488501
0.1488034
0.14875792
0.14871373
0.14867029
0.14862812
0.14858746
0.14854803
0.14850934
0.14847198
0.14843605
0.14840072
0.14836668
0.14833378
0.14830189
0.14827135
0.14824203
0.14821386
0.14818687
0.14816117
0.14813679
0.1481136
0.14809159
0.14807078
0.14805138
0.14803313
0.14801619
0.14800083
0.14798665
0.14797431
0.14796297
0.14795412
0.14794589
0.14794134
0.14793705
0.11856294
0.12017328
0.12178751
0.12337387
0.12493117
0.12645779
0.12795286
0.12941557
0.13084524
0.13224133
0.13360346
0.13493136
0.13622484
0.13748375
0.13870795
0.13989727
0.14105146
0.14217017
0.14325291
0.14429903
0.14530778
0.14627829
0.1472095
0.14810011
0.14894858
0.14975307
0.1505114
0.15122101
0.15187889
0.15248152
0.1530248
0.15350398
0.15391363
0.15424762
0.15449922
0.1546614
0.15472598
0.15469508
0.15455208
0.15428422
0.15390748
0.15343336
0.15289078
0.15233129
0.15182096
0.15141488
0.15113249
0.15095667
0.15085414
0.15078753
0.15074046
0.15070283
0.15066468
0.15062901
0.15059324
0.15055536
0.15051656
0.15047761
0.15043601
0.15039372
0.15035105
0.15030503
0.15025875
0.15021246
0.15016508
0.15011585
0.15006664
0.15001789
0.14996722
0.14991695
0.14986667
0.14981453
0.14976328
0.14971219
0.1496597
0.14960824
0.14955712
0.14950501
0.14945404
0.14940359
0.14935243
0.14930259
0.14925331
0.1492036
0.14915484
0.14910638
0.14905825
0.14901034
0.14896265
0.14891573
0.1488693
0.14882369
0.14877905
0.14873491
0.14869184
0.14864999
0.1486088
0.14856875
0.14853012
0.14849269
0.14845585
0.14842023
0.14838594
0.14835219
0.14831967
0.14828817
0.14825765
0.14822838
0.14820026
0.14817322
0.1481473
0.14812262
0.14809917
0.14807685
0.14805567
0.14803563
0.14801692
0.14799933
0.14798297
0.14796814
0.14795443
0.14794248
0.1479315
0.14792293
0.14791492
0.14791051
0.14790631
0.11789278
0.11948002
0.12107191
0.12263967
0.12418204
0.12569717
0.1271839
0.12864114
0.13006794
0.13146347
0.13282703
0.13415807
0.1354561
0.13672069
0.13795142
0.13914788
0.14030958
0.14143598
0.14252637
0.14357993
0.14459572
0.14557268
0.14650954
0.14740483
0.14825675
0.14906326
0.14982192
0.15052993
0.15118403
0.15178041
0.15231472
0.15278191
0.15317629
0.15349147
0.15372051
0.15385537
0.15389225
0.15383206
0.15365149
0.15335256
0.15295343
0.1524731
0.15195196
0.15145088
0.15103217
0.15072952
0.15053935
0.15043329
0.15037814
0.15034606
0.15032513
0.15030723
0.15029054
0.15027153
0.15024954
0.15022711
0.15020287
0.15017738
0.15014928
0.15011984
0.15008798
0.15005314
0.15001763
0.1499811
0.14994329
0.14990347
0.14986325
0.14982276
0.14978024
0.1497376
0.14969448
0.14964944
0.14960487
0.14956005
0.14951375
0.14946812
0.14942251
0.1493758
0.14932991
0.14928432
0.1492379
0.14919253
0.14914749
0.14910193
0.14905699
0.14901222
0.14896772
0.14892315
0.14887872
0.14883488
0.14879139
0.14874861
0.14870666
0.14866513
0.14862452
0.14858506
0.14854617
0.14850827
0.14847172
0.14843632
0.14840136
0.14836751
0.1483349
0.14830276
0.14827178
0.14824172
0.14821258
0.1481846
0.14815772
0.14813181
0.14810698
0.14808335
0.14806085
0.14803941
0.14801908
0.14799983
0.14798182
0.1479649
0.14794913
0.14793483
0.14792161
0.14791006
0.14789945
0.14789115
0.14788338
0.1478791
0.14787499
0.11734547
0.11890307
0.1204664
0.12200927
0.12353029
0.12502741
0.1264992
0.12794432
0.12936159
0.13074993
0.13210841
0.13343622
0.13473261
0.1359969
0.13722845
0.13842659
0.13959061
0.14071973
0.14181307
0.14286958
0.14388811
0.14486738
0.14580593
0.14670203
0.14755366
0.14835851
0.14911391
0.14981676
0.15046352
0.15105011
0.15157189
0.15202353
0.15239904
0.1526918
0.15289484
0.15299853
0.15300597
0.15291408
0.15269598
0.15237053
0.15195815
0.15148838
0.15101219
0.15059349
0.15027955
0.15007822
0.14997102
0.1499244
0.14990637
0.14990583
0.14990744
0.14990794
0.14991422
0.14991004
0.14990121
0.14989499
0.14988538
0.14987308
0.14985924
0.14984288
0.14982098
0.14979789
0.14977333
0.14974621
0.14971802
0.14968794
0.14965691
0.14962457
0.14959036
0.14955542
0.14951946
0.14948169
0.14944386
0.14940534
0.14936536
0.14932562
0.14928558
0.14924438
0.14920364
0.14916295
0.14912138
0.14908052
0.14903977
0.14899846
0.14895736
0.14891634
0.14887555
0.14883436
0.14879326
0.14875252
0.14871203
0.14867214
0.14863293
0.14859406
0.14855596
0.14851892
0.14848238
0.14844667
0.14841223
0.14837891
0.14834586
0.1483138
0.14828291
0.14825241
0.148223
0.14819439
0.14816667
0.14814
0.14811438
0.14808963
0.14806591
0.14804334
0.1480218
0.14800126
0.1479818
0.14796335
0.14794605
0.14792981
0.14791466
0.14790089
0.14788816
0.14787704
0.14786679
0.14785877
0.14785124
0.14784711
0.14784309
0.11690914
0.11843199
0.11996189
0.12147476
0.12296908
0.12444259
0.12589364
0.12732073
0.12872247
0.1300976
0.131445
0.13276365
0.1340526
0.13531097
0.13653787
0.13773242
0.13889369
0.14002068
0.14111228
0.14216723
0.14318415
0.14416154
0.14509768
0.14599059
0.146838
0.14763733
0.14838561
0.14907946
0.14971505
0.150288
0.15079337
0.15122556
0.1515783
0.15184459
0.15201753
0.15208875
0.15206604
0.15193708
0.15168578
0.15134221
0.15093169
0.15049539
0.15009062
0.14977381
0.14956813
0.14945948
0.14942542
0.14942694
0.14943776
0.14946314
0.14948629
0.1495073
0.14953229
0.14954374
0.14955105
0.14956003
0.1495646
0.14956512
0.14956629
0.14956221
0.14955002
0.1495398
0.14952602
0.14950767
0.14948924
0.1494694
0.14944781
0.14942333
0.14939761
0.14937047
0.14934159
0.14931132
0.14928026
0.14924806
0.14921457
0.14918077
0.14914631
0.14911077
0.14907522
0.14903947
0.14900285
0.14896655
0.14893016
0.14889317
0.14885596
0.14881874
0.14878172
0.14874396
0.14870624
0.14866866
0.14863121
0.14859427
0.14855783
0.14852168
0.14848614
0.14845156
0.14841741
0.14838394
0.14835163
0.14832043
0.14828934
0.14825911
0.14822995
0.14820112
0.1481733
0.14814619
0.1481199
0.14809457
0.14807022
0.14804665
0.14802407
0.14800258
0.14798203
0.1479624
0.14794381
0.14792619
0.14790961
0.14789407
0.14787954
0.14786632
0.1478541
0.14784339
0.14783352
0.14782578
0.1478185
0.14781451
0.14781058
0.11657231
0.11805693
0.11954968
0.12102844
0.12249155
0.12393661
0.12536183
0.12676556
0.12814631
0.12950271
0.1308335
0.1321375
0.1334136
0.13466071
0.13587777
0.13706368
0.1382173
0.1393374
0.14042264
0.14147154
0.14248248
0.14345369
0.14438322
0.1452688
0.1461079
0.14689762
0.1476347
0.14831544
0.14893571
0.14949084
0.14997561
0.15038423
0.15071023
0.15094611
0.15108436
0.15112306
0.15106887
0.1509006
0.1506251
0.15027677
0.14989019
0.14951518
0.14920662
0.14900206
0.148899
0.14887416
0.14889483
0.14893024
0.14897095
0.14901857
0.14906339
0.14910548
0.14914471
0.14917431
0.14919948
0.14922259
0.14924113
0.14925516
0.14926933
0.14927587
0.14927646
0.14927961
0.14927533
0.14926559
0.14925711
0.14924811
0.14923604
0.14921898
0.14920212
0.14918281
0.14916084
0.14913837
0.14911414
0.1490882
0.14906138
0.14903357
0.14900471
0.14897495
0.14894466
0.14891389
0.14888232
0.14885063
0.14881862
0.14878606
0.14875277
0.14871939
0.14868622
0.14865193
0.14861765
0.14858327
0.14854892
0.14851498
0.14848136
0.14844798
0.14841504
0.14838296
0.14835126
0.14832006
0.14828992
0.14826088
0.14823179
0.1482034
0.14817601
0.1481489
0.14812269
0.14809709
0.14807227
0.14804829
0.14802525
0.14800288
0.14798145
0.14796107
0.14794151
0.14792282
0.14790512
0.14788834
0.14787248
0.14785766
0.14784376
0.1478311
0.14781939
0.14780911
0.14779963
0.14779218
0.14778515
0.14778131
0.14777748
0.11632534
0.1177692
0.11922184
0.12066301
0.12209098
0.12350327
0.124898
0.12627352
0.12762829
0.12896088
0.13026994
0.13155419
0.13281237
0.13404324
0.13524554
0.13641798
0.13755921
0.13866778
0.13974212
0.14078051
0.14178106
0.14274177
0.14366038
0.14453436
0.14536085
0.14613666
0.14685819
0.14752143
0.14812192
0.14865471
0.14911438
0.14949504
0.14979031
0.14999222
0.15009199
0.15009814
0.15001163
0.14980933
0.14952293
0.14919038
0.14885625
0.14857076
0.14837606
0.14828304
0.14827179
0.14831046
0.14836874
0.14843429
0.14850463
0.14857498
0.14864042
0.14870073
0.14875594
0.14880307
0.14884457
0.14888214
0.14891482
0.14894288
0.14896812
0.14898634
0.14900094
0.14901498
0.14902047
0.1490215
0.14902241
0.14902425
0.14902111
0.14901158
0.1490042
0.14899242
0.14897714
0.148963
0.14894554
0.14892571
0.14890585
0.14888406
0.14886076
0.14883695
0.14881198
0.14878619
0.14875978
0.14873274
0.14870517
0.14867713
0.14864779
0.14861831
0.14858904
0.14855826
0.14852748
0.14849634
0.14846515
0.14843426
0.1484035
0.14837294
0.14834266
0.14831312
0.1482839
0.14825502
0.14822709
0.14820024
0.14817318
0.14814668
0.14812108
0.14809571
0.14807114
0.14804709
0.14802376
0.14800115
0.14797944
0.14795829
0.14793803
0.14791878
0.14790024
0.1478825
0.14786571
0.14784978
0.14783467
0.14782056
0.14780732
0.14779523
0.14778404
0.1477742
0.14776511
0.14775795
0.14775118
0.14774748
0.14774375
0.11615888
0.11756071
0.11897085
0.12037136
0.12176055
0.12313601
0.12449593
0.12583873
0.12716288
0.12846697
0.1297496
0.13100938
0.13224494
0.1334549
0.1346378
0.13579218
0.13691648
0.13800901
0.13906799
0.14009142
0.14107718
0.14202298
0.14292626
0.1437842
0.14459362
0.14535098
0.14605236
0.14669341
0.14726934
0.14777495
0.14820469
0.14855281
0.14881328
0.14897766
0.14903921
0.14901479
0.14889429
0.14867211
0.1483955
0.14810745
0.14785699
0.14768274
0.14760961
0.14761618
0.14767079
0.14775557
0.14784716
0.14794483
0.14804045
0.14813151
0.14821608
0.14829413
0.14836561
0.14842942
0.14848684
0.14853896
0.14858562
0.14862709
0.14866428
0.14869547
0.14872214
0.14874553
0.1487626
0.14877549
0.14878611
0.14879703
0.1488018
0.14880206
0.1488041
0.14879899
0.14879077
0.14878536
0.14877442
0.14876058
0.14874811
0.14873227
0.1487144
0.14869681
0.1486772
0.14865635
0.14863525
0.14861292
0.14858979
0.14856636
0.14854102
0.14851549
0.14849015
0.14846294
0.14843571
0.14840787
0.1483799
0.1483521
0.14832424
0.14829656
0.14826898
0.14824201
0.14821534
0.14818881
0.14816313
0.1481385
0.1481135
0.14808892
0.14806515
0.14804156
0.14801865
0.14799617
0.14797435
0.14795315
0.14793278
0.14791288
0.14789382
0.1478757
0.1478582
0.14784143
0.14782557
0.14781051
0.14779615
0.14778278
0.1477702
0.14775868
0.14774803
0.14773863
0.14772994
0.14772309
0.14771657
0.14771303
0.1477094
0.11606425
0.11742368
0.11879004
0.12014667
0.12149319
0.12282769
0.1241486
0.12545442
0.1267437
0.12801502
0.12926691
0.13049792
0.13170655
0.13289125
0.13405042
0.13518239
0.13628539
0.13735752
0.13839674
0.13940082
0.14036735
0.14129376
0.14217719
0.14301449
0.14380216
0.14453631
0.14521266
0.14582654
0.14637285
0.14684619
0.14724102
0.14755205
0.1477745
0.14789869
0.1479262
0.14787391
0.14772511
0.14750643
0.14726897
0.14705953
0.14691948
0.1468693
0.14690126
0.14698085
0.14708815
0.14720942
0.14733565
0.14745943
0.14757718
0.14768783
0.14779077
0.14788609
0.14797388
0.14805384
0.14812672
0.14819333
0.14825384
0.14830858
0.14835801
0.1484015
0.14844
0.14847417
0.14850257
0.14852638
0.14854737
0.14856639
0.14857998
0.14859056
0.14860023
0.14860233
0.14860286
0.14860533
0.14860051
0.14859305
0.14858825
0.14857815
0.14856565
0.14855463
0.14854035
0.14852433
0.14850876
0.14849117
0.14847244
0.14845375
0.14843249
0.14841095
0.14838954
0.14836595
0.14834235
0.14831784
0.14829314
0.14826848
0.14824357
0.14821883
0.148194
0.14816964
0.14814556
0.14812142
0.14809801
0.14807563
0.14805274
0.14803013
0.14800821
0.14798643
0.14796519
0.14794431
0.14792404
0.14790426
0.14788526
0.14786663
0.14784879
0.14783183
0.14781538
0.14779961
0.14778469
0.1477705
0.14775692
0.14774429
0.14773239
0.14772146
0.14771135
0.1477024
0.14769412
0.14768757
0.14768132
0.14767794
0.14767441
0.11603198
0.11734714
0.11866887