/*--------------------------------*- C++ -*----------------------------------*\
| =========                 |                                                 |
| \\      /  F ield         | OpenFOAM: The Open Source CFD Toolbox           |
|  \\    /   O peration     | Version:  2406                                  |
|   \\  /    A nd           | Website:  www.openfoam.com                      |
|    \\/     M anipulation  |                                                 |
\*---------------------------------------------------------------------------*/
FoamFile
{
    version     2.0;
    format      ascii;
    arch        "LSB;label=32;scalar=64";
    class       volVectorField;
    location    "0.03";
    object      UMean;
}
// * * * * * * * * * * * * * * * * * * * * * * * * * * * * * * * * * * * * * //

dimensions      [0 1 -1 0 0 0 0];

internalField   nonuniform List<vector> 
92813
(
(39.84047 29.960927 -4.9362445e-21)
(40.6976 29.20165 1.6789637e-20)
(41.51404 28.488495 -1.0240542e-20)
(42.277085 27.807748 -1.041216e-20)
(42.979917 27.134765 -8.6612021e-21)
(43.632079 26.473471 6.9358689e-21)
(44.240166 25.830732 5.4231864e-21)
(44.80964 25.21087 0)
(45.34635 24.616445 -3.0357191e-21)
(45.855829 24.048535 -1.189652e-24)
(46.343215 23.507142 -1.5131693e-21)
(46.813295 22.991524 -1.0339633e-21)
(47.270338 22.500367 0)
(47.717905 22.031796 0)
(48.156525 21.583715 1.2430941e-22)
(48.587695 21.15429 -5.4641816e-26)
(49.011116 20.741751 -1.5729928e-21)
(49.423755 20.344516 -1.7545295e-21)
(49.822027 19.961871 2.4007035e-25)
(50.20491 19.593522 -8.4888016e-21)
(50.571888 19.239491 0)
(50.922037 18.900286 0)
(51.258483 18.574632 0)
(51.583182 18.261239 5.4388765e-21)
(51.897003 17.958976 -1.0733416e-20)
(52.200344 17.666705 -5.3050767e-21)
(52.493285 17.383286 0)
(52.775673 17.107585 0)
(53.047151 16.838462 5.199263e-21)
(53.307183 16.57477 -1.5577929e-20)
(53.555075 16.31534 -1.0404656e-20)
(53.789959 16.058968 5.2290723e-21)
(54.010722 15.804392 -1.5821464e-20)
(54.216064 15.550381 0)
(54.404647 15.295558 0)
(54.574894 15.038371 -1.6644879e-20)
(54.724805 14.777575 1.1394711e-20)
(54.85356 14.511136 -1.1768437e-20)
(54.958024 14.237062 1.2230754e-20)
(55.032406 13.952961 -3.1874095e-20)
(55.076963 13.661101 -4.694924e-20)
(55.092411 13.35352 1.4298698e-20)
(55.072562 13.030806 3.8346128e-20)
(55.015166 12.690894 3.3117849e-20)
(54.918994 12.332273 9.0073563e-21)
(54.784 11.954751 2.9636064e-20)
(54.612275 11.559412 0)
(54.409591 11.149887 0)
(54.187654 10.734082 0)
(53.965843 10.325942 5.8305404e-20)
(53.768045 9.9434199 6.2533522e-20)
(53.611831 9.59961 6.5501688e-20)
(53.499058 9.2950641 1.6817632e-20)
(53.419329 9.0210133 -1.7051334e-20)
(53.359893 8.767502 6.8667704e-20)
(53.311351 8.5275045 -8.6080751e-20)
(53.268281 8.2970194 -4.3063271e-20)
(53.227976 8.0740235 3.6183696e-25)
(53.189151 7.8574784 -1.458497e-19)
(53.151332 7.6467945 0)
(53.11444 7.4416742 1.2759084e-19)
(53.078226 7.2419029 -1.3531433e-19)
(53.042606 7.0471887 8.4001412e-21)
(53.007636 6.8573422 1.4173078e-19)
(52.973213 6.6722532 1.2401566e-19)
(52.939165 6.4916734 8.1929558e-21)
(52.905591 6.3154327 1.1358774e-19)
(52.872581 6.1434315 2.5693577e-19)
(52.839917 5.9755306 1.5886886e-20)
(52.807732 5.8115266 -7.8501778e-21)
(52.776067 5.6513736 1.318509e-19)
(52.744709 5.494914 -1.5318555e-20)
(52.713808 5.3419896 1.2852298e-19)
(52.683426 5.1925501 1.268066e-19)
(52.653361 5.0464645 1.9608084e-25)
(52.62376 4.9035955 2.3210121e-19)
(52.594661 4.7638865 -7.1481369e-21)
(52.565904 4.6272246 2.1832576e-19)
(52.537625 4.4934929 1.3873122e-20)
(52.509828 4.3626284 -6.8299841e-21)
(52.482419 4.2345314 -2.1514878e-19)
(52.45551 4.1091049 0)
(52.429066 3.9862798 -2.1483075e-19)
(52.403056 3.8659643 -1.9852131e-19)
(52.377561 3.7480811 3.1650667e-24)
(52.352514 3.6325483 0)
(52.327937 3.5192961 -1.8876021e-19)
(52.303874 3.408239 -5.985224e-21)
(52.28025 3.2993119 2.5228826e-24)
(52.257123 3.1924389 0)
(52.2345 3.0875448 0)
(52.212328 2.9845704 -3.5709679e-19)
(52.19067 2.8834347 -4.0320206e-24)
(52.169511 2.7840778 -5.382904e-21)
(52.148826 2.6864314 1.0573238e-20)
(52.128661 2.5904261 3.2186077e-19)
(52.109 2.4959992 3.2619215e-19)
(52.089831 2.4030841 -3.1528204e-19)
(52.071186 2.3116165 0)
(52.053049 2.2215273 -3.0864979e-19)
(52.03542 2.1327612 0)
(52.01832 2.0452379 2.9269067e-19)
(52.001736 1.9589092 4.5592306e-21)
(51.985674 1.8736974 0)
(51.970139 1.7895424 -2.8098357e-19)
(51.955131 1.7063754 0)
(51.940652 1.6241289 2.7046619e-19)
(51.926713 1.5427275 -2.6749629e-19)
(51.913318 1.4621061 4.0689097e-21)
(51.900471 1.382186 -1.9960239e-21)
(51.888179 1.3028993 0)
(51.876448 1.224158 0)
(51.865282 1.1458916 4.8047329e-19)
(51.854694 1.0680027 -1.3497623e-26)
(51.844687 0.99041763 -4.6227766e-19)
(51.835279 0.91302379 0)
(51.826466 0.83575135 2.4480673e-24)
(51.818276 0.7584529 0)
(51.810685 0.68109313 -4.2935999e-19)
(51.803775 0.60343066 -2.1909673e-24)
(51.79746 0.52555834 0)
(51.791931 0.44696383 -4.0457706e-19)
(51.786949 0.36814584 3.9673441e-19)
(51.782966 0.28788077 0)
(51.779473 0.20772492 0)
(51.777381 0.12487002 3.7425453e-19)
(51.775749 0.042845085 -3.6361022e-19)
(39.119911 29.479671 -6.051165e-21)
(40.038778 28.750621 -1.74419e-20)
(40.872877 28.100904 0)
(41.64646 27.474874 -1.0426914e-20)
(42.369754 26.857482 1.981303e-20)
(43.048492 26.250756 -9.4429702e-21)
(43.686982 25.65934 6.6057201e-24)
(44.289254 25.086289 0)
(44.859501 24.533586 8.2968696e-21)
(45.401977 24.002402 1.5951292e-20)
(45.920885 23.493165 -2.1365682e-24)
(46.420275 23.005626 1.4846017e-20)
(46.903806 22.538877 0)
(47.374316 22.091337 -6.9604128e-21)
(47.83319 21.661134 1.3514153e-20)
(48.281114 21.246549 -2.9762038e-24)
(48.717729 20.846039 6.3973904e-21)
(49.141572 20.458396 6.2420508e-21)
(49.55096 20.083155 0)
(49.94516 19.720359 0)
(50.324004 19.370098 5.8613608e-21)
(50.68757 19.032493 1.1121739e-24)
(51.037157 18.7071 -5.6718265e-21)
(51.373937 18.393126 -5.5933243e-21)
(51.69866 18.089586 1.1055664e-20)
(52.011726 17.795417 -5.4777587e-21)
(52.313255 17.509538 5.4382775e-21)
(52.603133 17.230858 1.0827642e-20)
(52.881045 16.958276 -5.4022412e-21)
(53.146487 16.690671 1.6218123e-20)
(53.398784 16.426893 -5.4267676e-21)
(53.637073 16.165752 5.4655795e-21)
(53.860272 15.905946 -1.1043916e-20)
(54.067105 15.64628 5.6008145e-21)
(54.256202 15.385355 -1.7117342e-20)
(54.425977 15.121604 2.3361333e-20)
(54.574566 14.853622 0)
(54.700566 14.579697 1.2436092e-20)
(54.800633 14.297357 6.4736852e-21)
(54.871074 14.002591 2.7031568e-20)
(54.910978 13.702291 -1.4251314e-20)
(54.91945 13.383979 7.6080132e-21)
(54.891786 13.050425 -2.4495165e-20)
(54.826421 12.698934 -8.8214329e-21)
(54.72233 12.328424 3.8403299e-20)
(54.580137 11.939131 0)
(54.403109 11.532812 0)
(54.19888 11.114282 3.8325729e-20)
(53.981771 10.693434 7.0138e-20)
(53.773312 10.286477 -1.5199106e-20)
(53.596356 9.9115079 -4.8370596e-20)
(53.463219 9.5781073 -6.6904507e-20)
(53.37018 9.282586 0)
(53.304799 9.0144475 0)
(53.255219 8.7641924 -6.9188968e-20)
(53.213702 8.5258255 5.1941261e-20)
(53.176096 8.2961312 8.647311e-20)
(53.140425 8.0735393 0)
(53.105753 7.8572222 1.7186887e-20)
(53.071785 7.6466895 -1.7103232e-20)
(53.038529 7.4416908 1.7004203e-20)
(53.005733 7.2420271 1.1822357e-19)
(52.973344 7.0474029 -1.4247744e-19)
(52.94145 6.857638 8.316067e-21)
(52.909939 6.6726318 -2.5530093e-19)
(52.878643 6.4921195 1.3048923e-19)
(52.847695 6.3159462 -2.5827167e-19)
(52.817192 6.1440103 -1.3570298e-19)
(52.786897 5.9761711 -1.2625515e-19)
(52.756977 5.8122252 1.3254248e-19)
(52.727474 5.6521297 -1.5398539e-20)
(52.698158 5.4957216 7.5998622e-21)
(52.669216 5.3428474 0)
(52.640704 5.1934556 0)
(52.612409 5.047413 -2.3334673e-19)
(52.584506 4.9045856 -2.2998137e-19)
(52.557027 4.7649137 7.081295e-21)
(52.529808 4.6282856 -2.3017168e-19)
(52.503003 4.4945854 2.1979027e-19)
(52.476612 4.3637474 6.76169e-21)
(52.450542 4.2356744 -6.6548618e-21)
(52.424914 4.1102689 0)
(52.399691 3.9874597 -2.1259241e-19)
(52.374846 3.8671585 2.0276342e-19)
(52.350466 3.7492858 -1.9316911e-19)
(52.326481 3.6337589 0)
(52.302918 3.5205117 -2.8968912e-24)
(52.279824 3.4094547 0)
(52.257123 3.3005249 -1.8618438e-19)
(52.234879 3.1936477 0)
(52.213098 3.0887449 1.7975858e-19)
(52.191729 2.9857602 1.7659437e-19)
(52.170838 2.8846118 6.9387784e-19)
(52.150411 2.785239 5.3244489e-21)
(52.130423 2.6875754 3.2943631e-19)
(52.110924 2.5915506 -6.5728496e-19)
(52.091897 2.4971019 5.0452323e-21)
(52.073333 2.4041636 3.0694348e-19)
(52.055265 2.3126711 -3.0621239e-19)
(52.037677 2.222555 3.0537836e-19)
(52.020571 2.1337611 0)
(52.003968 2.0462101 2.5222088e-24)
(51.987857 1.9598527 0)
(51.972245 1.8746098 0)
(51.957137 1.7904222 0)
(51.942535 1.7072189 2.7297699e-19)
(51.928439 1.624936 2.0921836e-21)
(51.914863 1.5435002 -2.053431e-21)
(51.901812 1.4628433 2.599414e-19)
(51.889289 1.3828866 -5.0814189e-19)
(51.877302 1.3035626 1.9399179e-21)
(51.865858 1.2247836 4.8724382e-19)
(51.854962 1.1464783 -1.8672451e-21)
(51.844624 1.0685507 0)
(51.834851 0.99092582 4.618464e-19)
(51.82566 0.91349215 -3.5257422e-21)
(51.817047 0.83617907 -8.8365841e-19)
(51.80904 0.75884061 0)
(51.801616 0.68143965 -2.2969726e-24)
(51.794855 0.6037362 4.185658e-19)
(51.788672 0.52581988 -8.0030978e-22)
(51.783259 0.44718542 4.018976e-19)
(51.778374 0.36832014 -7.8829784e-19)
(51.774473 0.28801617 0)
(51.771043 0.20780957 0)
(51.76899 0.12489663 -8.8865987e-23)
(51.767374 0.042854483 8.8167679e-23)
(38.372207 28.851888 -1.4164314e-23)
(39.277324 28.212607 -1.0634543e-20)
(40.125962 27.644958 -5.0620304e-21)
(40.922506 27.086564 4.8271408e-21)
(41.672697 26.530439 9.2397229e-21)
(42.380739 25.980781 -8.8560014e-21)
(43.050216 25.441987 -8.5054741e-21)
(43.684577 24.916738 -8.181719e-21)
(44.28732 24.406874 3.1200862e-24)
(44.861998 23.913658 0)
(45.412156 23.437771 1.5593234e-24)
(45.941229 22.979292 -7.4403434e-25)
(46.452349 22.537699 1.0503574e-24)
(46.948031 22.111902 -6.7385476e-21)
(47.429808 21.700533 1.3121738e-20)
(47.898409 21.30222 -1.2794981e-20)
(48.35376 20.915686 1.2496857e-20)
(48.79509 20.539976 0)
(49.221381 20.174726 -5.9875357e-21)
(49.632068 19.819984 -5.8758674e-21)
(50.027025 19.47587 -7.3003869e-25)
(50.406427 19.142523 -5.6870931e-21)
(50.771014 18.819831 5.6105516e-21)
(51.121654 18.507296 -1.1096677e-20)
(51.459031 18.20415 0)
(51.783562 17.909491 0)
(52.095408 17.622351 1.0854516e-20)
(52.394503 17.341724 -1.0822848e-20)
(52.680572 17.066569 -5.4120054e-21)
(52.95315 16.79581 -5.4256507e-21)
(53.211584 16.528328 1.0914973e-20)
(53.455024 16.262953 -1.1014871e-20)
(53.682422 15.998379 1.6732301e-20)
(53.89252 15.733422 5.6713739e-21)
(54.083923 15.46665 1.7368836e-20)
(54.255035 15.196487 2.7168693e-24)
(54.404035 14.921414 6.1289214e-21)
(54.529157 14.639882 -6.3555859e-21)
(54.626961 14.348907 -6.635706e-21)
(54.695382 14.045282 -2.777826e-20)
(54.732564 13.735324 2.9376678e-20)
(54.73606 13.40615 -3.1475411e-20)
(54.702905 13.061703 3.3860388e-20)
(54.631911 12.698722 0)
(54.522392 12.316668 4.9979753e-20)
(54.375725 11.916301 8.7681447e-25)
(54.196419 11.50031 4.8297253e-20)
(53.994083 11.075098 -1.1961023e-19)
(53.785481 10.652884 -1.0163255e-19)
(53.593277 10.251572 8.7564427e-25)
(53.437559 9.8875391 -1.6398885e-20)
(53.32501 9.5655899 5.0633295e-20)
(53.248023 9.2785241 8.5671269e-20)
(53.193865 9.0154237 0)
(53.152161 8.767859 6.9182593e-20)
(53.116619 8.5309047 4.0797236e-24)
(53.083984 8.3019985 1.7264116e-20)
(53.052733 8.0799063 1.2046828e-19)
(53.02212 7.8639396 0)
(52.991954 7.6536733 0)
(52.962312 7.4488854 1.6936681e-20)
(52.932923 7.2493918 -1.6814867e-20)
(52.903755 7.054893 2.5021946e-19)
(52.874932 6.8652152 -1.1574926e-19)
(52.846338 6.6802727 1.6375443e-20)
(52.817797 6.4997864 -1.6210731e-20)
(52.789476 6.3236182 -4.6024069e-24)
(52.761487 6.1516625 0)
(52.733566 5.9837841 -7.8387374e-21)
(52.705914 5.8197795 -1.1614068e-19)
(52.67858 5.6596078 -7.6446804e-21)
(52.651316 5.5031077 7.5443296e-21)
(52.624336 5.3501297 1.26525e-19)
(52.597701 5.2006198 1.8448869e-25)
(52.571186 5.0544493 2.3151103e-19)
(52.544984 4.9114866 -7.1294347e-21)
(52.519132 4.7716682 -7.0236345e-21)
(52.493459 4.6348887 6.9171661e-21)
(52.468131 4.5010324 -2.1793892e-19)
(52.443152 4.3700306 0)
(52.418426 4.2417924 -6.5975849e-21)
(52.394083 4.1162188 -1.3446363e-25)
(52.370088 3.9932371 6.381239e-21)
(52.346412 3.8727642 -1.9468119e-19)
(52.323149 3.7547184 -6.1751961e-21)
(52.300231 3.6390163 6.0713009e-21)
(52.277686 3.5255973 1.9097602e-19)
(52.255564 3.4143666 -1.1731404e-20)
(52.233789 3.3052646 -1.7869606e-19)
(52.212431 3.1982183 0)
(52.191495 3.0931457 -1.7806895e-19)
(52.170931 2.9899948 0)
(52.15081 2.8886825 -5.3653624e-21)
(52.131117 2.7891472 5.2736311e-21)
(52.111829 2.6913246 -3.3145874e-19)
(52.092998 2.5951437 6.5096399e-19)
(52.074607 2.500541 -3.2456907e-19)
(52.05665 2.4074524 9.805613e-21)
(52.039159 2.3158126 3.0323588e-19)
(52.022121 2.2255518 -3.0240675e-19)
(52.00554 2.1366171 -4.6379385e-21)
(51.989436 2.0489274 -2.913659e-19)
(51.973799 1.9624349 -2.7703925e-19)
(51.958638 1.8770599 -8.7708425e-21)
(51.943958 1.7927437 4.3037778e-21)
(51.929762 1.7094156 -2.7029214e-19)
(51.916051 1.6270108 0)
(51.90284 1.5454544 2.0332322e-21)
(51.890133 1.4646798 -2.5735852e-19)
(51.877936 1.3846088 -3.4080402e-24)
(51.866255 1.3051728 0)
(51.855099 1.2262843 -4.823988e-19)
(51.844473 1.1478723 4.7326934e-19)
(51.834388 1.0698396 4.6428875e-19)
(51.82485 0.99211216 -4.5545879e-19)
(51.815876 0.91457808 -4.4505281e-19)
(51.807464 0.83716584 -2.4928275e-24)
(51.799641 0.75973059 -2.5189335e-21)
(51.792384 0.68223273 4.2161838e-19)
(51.785773 0.60443639 8.0777341e-22)
(51.779724 0.52642461 0)
(51.774428 0.44769995 0)
(51.76964 0.36873888 3.9021331e-19)
(51.765821 0.28834758 3.8264752e-19)
(51.762454 0.20804255 0)
(51.760441 0.12503347 -7.3566235e-19)
(51.758843 0.042907865 0)
(37.743332 28.186252 9.9976651e-21)
(38.6309 27.630972 -9.7764775e-21)
(39.479771 27.141595 4.680631e-21)
(40.286665 26.653639 0)
(41.052933 26.161767 -8.6412435e-21)
(41.780839 25.670887 1.6653953e-20)
(42.472845 25.185636 8.0330702e-21)
(43.131551 24.708824 -7.7682509e-21)
(43.759709 24.242422 0)
(44.360185 23.787874 7.2900659e-21)
(44.935885 23.346112 0)
(45.489645 22.917529 -6.8814174e-21)
(46.024066 22.50199 1.0332476e-24)
(46.541298 22.098898 -6.5313492e-21)
(47.042824 21.707373 0)
(47.52949 21.326444 0)
(48.001503 20.955188 9.5616921e-25)
(48.458529 20.592919 -5.9848505e-21)
(48.899997 20.239346 5.8785534e-21)
(49.325514 19.894488 5.782235e-21)
(49.734955 19.558467 -8.1643932e-25)
(50.128454 19.231427 0)
(50.506513 18.913362 -5.5587846e-21)
(50.869778 18.603973 5.5029788e-21)
(51.218805 18.302706 5.4663088e-21)
(51.553962 18.008838 5.4356476e-21)
(51.875403 17.721544 -2.1676516e-20)
(52.183075 17.439921 0)
(52.476723 17.163008 -5.426578e-21)
(52.755902 16.889786 5.4521847e-21)
(53.019971 16.619181 -1.6488661e-20)
(53.268087 16.350039 5.5574942e-21)
(53.499213 16.081098 0)
(53.71211 15.811136 -1.7240833e-20)
(53.905353 15.538714 -5.8839412e-21)
(54.077321 15.262243 -6.0495068e-21)
(54.226189 14.980121 -2.5027513e-20)
(54.349956 14.690946 2.6035621e-20)
(54.445575 14.390392 6.9354334e-25)
(54.511067 14.080079 -3.5646776e-20)
(54.544959 13.759038 0)
(54.543208 13.418975 3.2591383e-20)
(54.504464 13.063525 -3.5134093e-20)
(54.427799 12.689144 0)
(54.313071 12.295899 -5.2048864e-20)
(54.162573 11.885194 1.1426425e-20)
(53.982317 11.460901 -6.2858647e-20)
(53.78417 11.031347 8.2756295e-20)
(53.587193 10.611094 1.0478514e-19)
(53.413998 10.218619 0)
(53.280482 9.8669324 4.9804354e-20)
(53.187774 9.555953 1.6983944e-20)
(53.125595 9.2762105 -1.7171744e-20)
(53.08174 9.0172371 1.7258731e-20)
(53.047434 8.7718328 1.728116e-20)
(53.017678 8.5360252 -1.726035e-20)
(52.989968 8.3077755 0)
(52.96315 8.0861101 7.5130523e-24)
(52.936632 7.8704385 1.7074918e-20)
(52.910316 7.66039 -1.6975166e-20)
(52.88434 7.4557633 0)
(52.858407 7.2563891 1.6733901e-20)
(52.832509 7.0619644 -2.8210079e-19)
(52.80681 6.8723221 -1.644403e-20)
(52.781182 6.6873941 1.6278258e-20)
(52.755443 6.5068849 -1.128045e-19)
(52.729798 6.3306786 -1.5943705e-20)
(52.704371 6.1586614 -1.2605262e-19)
(52.678871 5.9907068 0)
(52.653535 5.8266117 0)
(52.628415 5.6663353 0)
(52.603247 5.5097197 -1.1230586e-19)
(52.578272 5.3566199 3.5047608e-24)
(52.553558 5.2069772 -7.2805665e-21)
(52.528863 5.0606686 0)
(52.504403 4.9175655 -2.2625808e-19)
(52.480218 4.7775982 -6.9644895e-21)
(52.456128 4.640669 2.2632003e-19)
(52.432317 4.506662 -6.7516857e-21)
(52.408786 4.3755041 -2.0600142e-19)
(52.385439 4.2471114 -2.0924631e-19)
(52.362416 4.1213831 0)
(52.33968 3.9982439 4.1127531e-19)
(52.317207 3.8776167 1.8666924e-19)
(52.295093 3.7594167 6.1181296e-21)
(52.273271 3.6435593 -1.9247156e-19)
(52.251773 3.5299898 -1.8918654e-19)
(52.230651 3.4186074 0)
(52.20983 3.3093559 1.7699393e-19)
(52.189383 3.2021639 5.609757e-21)
(52.169318 3.0969449 0)
(52.149584 2.9936515 1.67825e-19)
(52.130255 2.8921992 -3.2967318e-19)
(52.111318 2.792525 7.6140207e-26)
(52.092751 2.6945671 3.2821515e-19)
(52.074608 2.5982532 -6.4958642e-19)
(52.056874 2.5035194 0)
(52.039542 2.4103032 3.1067407e-19)
(52.022648 2.318538 0)
(52.006178 2.228154 2.9471345e-19)
(51.990137 2.1390997 9.1834309e-21)
(51.974547 2.051292 -4.5070002e-21)
(51.959401 1.9646846 -2.4443357e-24)
(51.944704 1.879197 -2.7784536e-19)
(51.930466 1.7947707 -2.6840806e-19)
(51.916689 1.7113345 -4.1806928e-21)
(51.903375 1.6288245 0)
(51.890541 1.5471648 0)
(51.878189 1.4662893 -2.527673e-19)
(51.866328 1.3861193 4.9604944e-19)
(51.854963 1.3065868 0)
(51.844104 1.2276032 0)
(51.833757 1.1490983 -4.7026977e-19)
(51.823932 1.0709745 -9.1731108e-19)
(51.814637 0.99315707 1.7609819e-21)
(51.805888 0.91553503 8.8445193e-19)
(51.797683 0.83803589 8.6589655e-19)
(51.79005 0.76051561 -4.2549437e-19)
(51.782966 0.68293226 0)
(51.77651 0.60505392 -7.9952133e-22)
(51.770598 0.52695767 -4.0072751e-19)
(51.765423 0.44815342 0)
(51.760735 0.36910677 0)
(51.757001 0.28863831 -3.7837226e-19)
(51.753699 0.20824492 -5.4397211e-22)
(51.751727 0.12514785 3.6424881e-19)
(51.750149 0.042953022 0)
(37.207607 27.503369 4.586999e-21)
(38.077013 27.024202 9.0287761e-21)
(38.918322 26.606327 -4.3515556e-21)
(39.72666 26.185813 8.396171e-21)
(40.500786 25.757104 -8.11452e-21)
(41.241076 25.324619 -7.8535637e-21)
(41.948724 24.892836 0)
(42.625383 24.464618 -1.0349291e-24)
(43.273028 24.042052 7.1796111e-21)
(43.893839 23.626758 3.2598649e-24)
(44.490105 23.219894 6.8053875e-21)
(45.064097 22.822147 6.6348156e-21)
(45.617935 22.43375 1.6908688e-24)
(46.153421 22.054534 6.3372665e-21)
(46.671905 21.68406 6.2037676e-21)
(47.174256 21.321754 -4.2710529e-25)
(47.660856 20.967041 -5.9700462e-21)
(48.131676 20.61949 9.6281954e-25)
(48.586471 20.27891 8.9584404e-25)
(49.025023 19.945325 -5.6947435e-21)
(49.447257 19.618856 -7.8838363e-26)
(49.85328 19.299643 5.5621136e-21)
(50.243432 18.987722 -2.3765936e-25)
(50.618159 18.682923 1.6407123e-20)
(50.977869 18.38486 -1.6318928e-20)
(51.322841 18.092974 -1.0846124e-20)
(51.653189 17.806576 1.6248213e-20)
(51.96884 17.524877 0)
(52.269537 17.247001 0)
(52.554829 16.971997 1.645448e-20)
(52.824077 16.69884 -5.541865e-21)
(53.076434 16.426399 -5.6155645e-21)
(53.310856 16.153458 -2.2845796e-20)
(53.526107 15.878773 5.8326945e-21)
(53.720737 15.600887 1.7955074e-20)
(53.893086 15.31821 6.1716467e-21)
(54.04129 15.029131 -1.2799692e-20)
(54.163155 14.732305 -6.6734355e-21)
(54.256355 14.422369 -2.7914771e-20)
(54.318518 14.104664 3.6746403e-20)
(54.348163 13.77228 7.8546385e-21)
(54.340868 13.421539 -8.4507712e-21)
(54.296377 13.054955 0)
(54.214005 12.669265 9.9242016e-21)
(54.094373 12.265187 -1.0850396e-20)
(53.940915 11.844951 0)
(53.761469 11.413901 5.2333477e-20)
(53.570367 10.982583 -1.4287812e-20)
(53.388447 10.567578 -3.0767984e-20)
(53.236735 10.186488 -1.6229357e-20)
(53.125806 9.8477574 0)
(53.051868 9.5469832 -8.5317887e-20)
(53.003219 9.2736104 -3.4402324e-20)
(52.968794 9.0181402 3.451249e-20)
(52.941441 8.7745982 -5.177608e-20)
(52.917295 8.539838 -6.8910488e-20)
(52.894466 8.3122416 0)
(52.872097 8.0910428 7.619013e-24)
(52.84971 7.8757194 1.7009287e-20)
(52.827289 7.6659512 -1.3522132e-19)
(52.805031 7.4615476 -1.6780933e-20)
(52.782601 7.2623544 -1.3318382e-19)
(52.760019 7.0680653 1.3201869e-19)
(52.737492 6.8785177 -1.3078248e-19)
(52.714876 6.6936631 2.5892957e-19)
(52.691983 6.5131864 -1.280903e-19)
(52.669059 6.3369995 1.2665098e-19)
(52.646238 6.1649738 1.251646e-19)
(52.623199 5.9969948 -1.0818621e-19)
(52.600217 5.8328605 -1.5258912e-20)
(52.57735 5.6725266 -1.2047467e-19)
(52.554313 5.5158407 1.1884617e-19)
(52.53138 5.3626637 -1.3184838e-19)
(52.50862 5.2129284 7.2205385e-21)
(52.485777 5.0665203 7.1157562e-21)
(52.463091 4.923314 2.2432347e-19)
(52.440603 4.783231 0)
(52.418124 4.6461837 -2.175282e-19)
(52.395855 4.5120559 6.6915418e-21)
(52.3738 4.3807684 2.1072449e-19)
(52.351856 4.2522465 2.0733367e-19)
(52.330177 4.1263866 -6.3735551e-21)
(52.308723 4.0031105 -4.0116226e-19)
(52.287472 3.8823484 1.9725108e-19)
(52.266529 3.7640115 0)
(52.245822 3.6480142 1.9063191e-19)
(52.22539 3.5343088 1.8151026e-19)
(52.205286 3.4227872 5.754021e-21)
(52.185436 3.3133975 1.75274e-19)
(52.165917 3.2060701 5.5548515e-21)
(52.146737 3.1007137 0)
(52.127848 2.9972858 2.254266e-24)
(52.109325 2.8957006 5.2645647e-21)
(52.091158 2.7958934 -3.3606009e-19)
(52.073325 2.6978055 -6.4985279e-19)
(52.055883 2.6013634 3.2401821e-19)
(52.038817 2.5065023 -4.8943205e-21)
(52.022121 2.4131617 -6.1505855e-19)
(52.005833 2.3212741 2.9718031e-19)
(51.989942 2.2307691 9.2608274e-21)
(51.974451 2.1415969 5.2029149e-26)
(51.959385 2.0536728 4.9413561e-26)
(51.944736 1.9669515 2.7582401e-19)
(51.930512 1.881352 2.792865e-19)
(51.916724 1.7968161 -4.2187941e-21)
(51.903374 1.7132724 2.6481097e-19)
(51.890464 1.630657 -2.0297329e-21)
(51.878013 1.5488941 2.5893244e-19)
(51.866023 1.4679176 4.9637387e-19)
(51.854503 1.3876481 3.8352314e-21)
(51.843461 1.3080182 -3.7628024e-21)
(51.832904 1.2289391 -1.3739068e-26)
(51.82284 1.1503404 -4.635641e-19)
(51.81328 1.0721245 4.5653783e-19)
(51.804232 0.99421671 -4.4611719e-19)
(51.795712 0.91650577 -4.3761334e-19)
(51.787718 0.83891854 2.5448366e-24)
(51.780278 0.76131215 4.2104602e-19)
(51.773369 0.68364294 0)
(51.767072 0.60568093 4.0507488e-19)
(51.7613 0.52749892 3.9808417e-19)
(51.756246 0.44861439 2.6072514e-27)
(51.751662 0.36948063 -3.829208e-19)
(51.748014 0.28893392 0)
(51.744778 0.2084514 -3.6749198e-19)
(51.742848 0.12526548 8.7951931e-23)
(51.741291 0.043000095 -8.5556487e-23)
(36.75095 26.80596 0)
(37.603019 26.401432 -4.1882266e-21)
(38.433187 26.050106 8.1192918e-21)
(39.237204 25.692761 -7.8759844e-21)
(40.012625 25.324319 -1.528696e-20)
(40.758584 24.948347 2.2293739e-20)
(41.475313 24.568831 7.2295138e-21)
(42.163677 24.18851 -1.4086679e-20)
(42.824951 23.809505 6.8669115e-21)
(43.460686 23.433548 -1.3408953e-20)
(44.07259 23.061976 -1.3104725e-20)
(44.662414 22.695722 6.4116848e-21)
(45.231831 22.335326 -1.2556639e-20)
(45.78231 21.980984 0)
(46.315017 21.632633 0)
(46.830767 21.290056 0)
(47.330018 20.95299 0)
(47.812919 20.621233 0)
(48.279428 20.294715 -1.1361958e-20)
(48.729461 19.973498 -1.1228553e-20)
(49.162993 19.657716 -5.5562004e-21)
(49.580111 19.347511 -5.5055376e-21)
(49.981036 19.042948 -1.0936177e-20)
(50.366056 18.743943 0)
(50.735439 18.450232 -5.4205923e-21)
(51.089367 18.161389 1.6240083e-20)
(51.427885 17.876848 0)
(51.75088 17.595926 0)
(52.058063 17.317835 5.47302e-21)
(52.348968 17.041691 -5.5202165e-21)
(52.622935 16.766526 1.1181377e-20)
(52.879105 16.491227 1.1358287e-20)
(53.116407 16.214632 -2.2933934e-24)
(53.333595 15.935488 0)
(53.529192 15.652305 -1.2196942e-20)
(53.701505 15.363504 0)
(53.848602 15.067567 1.9666934e-20)
(53.968104 14.763 6.584606e-25)
(54.058515 14.443842 -1.0977222e-24)
(54.116993 14.117918 3.7981204e-20)
(54.141749 13.774204 -3.2578567e-20)
(54.128722 13.412937 -3.5116457e-20)
(54.078415 13.035079 0)
(53.990507 12.638239 0)
(53.86656 12.223807 0)
(53.711425 11.795083 -3.7263604e-20)
(53.535092 11.359217 -6.8012135e-20)
(53.354368 10.929145 -1.4767527e-20)
(53.190898 10.522702 -4.7291331e-20)
(53.06244 10.154975 0)
(52.973716 9.8292407 0)
(52.917139 9.5377815 6.8468977e-20)
(52.880735 9.2699742 0)
(52.854955 9.0175655 -8.6202024e-20)
(52.83418 8.7757242 1.7221988e-20)
(52.815505 8.542004 1.7184633e-20)
(52.797526 8.3151206 5.1362156e-20)
(52.779622 8.0944759 -1.3629078e-19)
(52.761399 7.879591 1.3550392e-19)
(52.742911 7.6701994 1.1776104e-19)
(52.724416 7.4661084 1.6695623e-20)
(52.705529 7.2671801 1.4900505e-19)
(52.686302 7.0731079 1.3125437e-19)
(52.666988 6.8837293 -1.6251918e-20)
(52.647423 6.6990185 -1.2862212e-19)
(52.627414 6.5186377 2.5443936e-19)
(52.60725 6.3425341 1.414833e-19)
(52.587072 6.1705551 -1.5531431e-20)
(52.566528 6.0026044 2.6075401e-19)
(52.545936 5.8384818 3.5468785e-25)
(52.525356 5.6781345 8.963385e-20)
(52.504483 5.5214201 1.3261669e-19)
(52.483623 5.3682067 0)
(52.462849 5.2184137 0)
(52.441887 5.0719393 0)
(52.421003 4.9286621 0)
(52.40024 4.788491 0)
(52.3794 4.6513521 0)
(52.3587 4.5171289 2.0553965e-19)
(52.338144 4.3857338 6.5241671e-21)
(52.317629 4.257104 2.0539717e-19)
(52.297316 4.1311326 0)
(52.277168 4.0077371 1.9865945e-19)
(52.257163 3.8868574 3.5967366e-24)
(52.23741 3.7683994 6.0015293e-21)
(52.21784 3.6522764 -5.8990471e-21)
(52.198492 3.5384491 -1.9132335e-19)
(52.179426 3.4268008 1.1394237e-20)
(52.160565 3.3172845 -1.1192646e-20)
(52.14199 3.2098331 1.0998593e-20)
(52.123713 3.104349 -1.7286652e-19)
(52.105685 3.0007963 2.3505429e-24)
(52.087985 2.8990871 -5.2110544e-21)
(52.070602 2.7991551 3.2239638e-19)
(52.053518 2.700945 3.2662567e-19)
(52.03679 2.6043818 0)
(52.020404 2.5094001 3.1001684e-19)
(52.004358 2.4159414 2.9959537e-19)
(51.988688 2.3239372 4.6713116e-21)
(51.973386 2.2333167 0)
(51.958456 2.1440318 -4.4976383e-21)
(51.943925 2.055996 -2.7810781e-19)
(51.929784 1.9691651 0)
(51.916043 1.8834579 -2.7636252e-19)
(51.902714 1.7988164 8.3424244e-21)
(51.889798 1.7151686 -5.3224229e-19)
(51.877302 1.6324516 4.0168298e-21)
(51.86524 1.5505879 -2.5225312e-19)
(51.85362 1.4695136 -2.4750062e-19)
(51.842449 1.3891476 -4.8572451e-19)
(51.831735 1.3094228 0)
(51.821487 1.2302504 0)
(51.811712 1.1515602 4.5685644e-19)
(51.802423 1.0732543 4.5169462e-19)
(51.793626 0.99525784 4.4309332e-19)
(51.785339 0.9174601 4.2958212e-19)
(51.777561 0.83978625 -4.2303511e-19)
(51.770318 0.76209566 1.6271338e-21)
(51.763589 0.68434148 -7.9790199e-22)
(51.757453 0.60629793 -8.0152594e-19)
(51.751824 0.52803157 -7.6772216e-22)
(51.746895 0.44906786 -3.8550608e-19)
(51.742417 0.36984846 7.5583625e-19)
(51.738855 0.28922485 3.7109986e-19)
(51.735687 0.20865444 7.2714389e-19)
(51.733799 0.12538089 3.5650015e-19)
(51.732264 0.043046991 3.4661118e-19)
(36.368865 26.101709 0)
(37.204135 25.771371 -3.9059187e-21)
(38.020892 25.482278 1.5209475e-20)
(38.816164 25.183545 -1.1112784e-20)
(39.587357 24.871603 7.2248864e-21)
(40.333052 24.549229 -7.0496653e-21)
(41.05289 24.219793 -6.8853495e-21)
(41.74715 23.885813 1.3459621e-20)
(42.416529 23.549361 -6.5858616e-21)
(43.062024 23.212208 6.4488444e-21)
(43.684821 22.875804 1.8961091e-20)
(44.286192 22.541257 -1.8603411e-20)
(44.867397 22.209346 1.8271003e-20)
(45.429579 21.880551 -5.9883895e-21)
(45.973691 21.555116 0)
(46.500442 21.233122 0)
(47.010287 20.914571 1.1717339e-24)
(47.503452 20.599464 5.6579343e-21)
(47.980002 20.287857 5.5941839e-21)
(48.439932 19.979872 5.5388988e-21)
(48.883243 19.675672 5.4933246e-21)
(49.309996 19.375412 5.4576441e-21)
(49.720322 19.079182 -1.0864166e-20)
(50.114384 18.786957 1.6241439e-20)
(50.492328 18.498564 5.4081735e-21)
(50.854231 18.213679 5.4116697e-21)
(51.200058 17.93184 0)
(51.529635 17.652458 0)
(51.842629 17.374828 1.6520583e-20)
(52.138533 17.098132 -1.6706436e-20)
(52.416653 16.821453 0)
(52.676103 16.543696 5.7550116e-21)
(52.915784 16.263753 1.7640357e-20)
(53.134409 15.980377 0)
(53.330476 15.692024 -6.2263548e-21)
(53.502272 15.397164 -6.3135623e-25)
(53.647794 15.094381 2.0189956e-20)
(53.764417 14.781867 2.1181031e-20)
(53.851556 14.453643 -7.4168144e-21)
(53.906021 14.118984 4.8064803e-24)
(53.925375 13.76392 -4.9181755e-24)
(53.906463 13.3921 3.6539183e-20)
(53.85036 13.002965 0)
(53.757292 12.595266 -1.0800365e-20)
(53.629951 12.171191 5.9108954e-20)
(53.474918 11.735414 1.2945888e-20)
(53.30461 11.297247 6.9102437e-25)
(53.137987 10.871909 -1.5221293e-20)
(52.996059 10.477215 8.0468286e-20)
(52.891764 10.124162 6.0939712e-25)
(52.824176 9.810967 -1.6995879e-20)
(52.783348 9.5278551 -6.8610412e-20)
(52.757959 9.2649178 6.8849884e-20)
(52.740134 9.0152451 6.8871042e-20)
(52.725629 8.7750211 1.37504e-19)
(52.712313 8.5423803 0)
(52.699165 8.3162972 -6.8235578e-20)
(52.685744 8.0963119 0)
(52.671717 7.881967 -2.6976697e-19)
(52.657199 7.67306 -1.3391916e-19)
(52.642509 7.4693785 -1.6605686e-20)
(52.627202 7.2708048 1.6460286e-20)
(52.611367 7.0770365 -1.3044094e-19)
(52.595307 6.8879057 1.4526863e-19)
(52.578832 6.7034122 -3.1938006e-20)
(52.561743 6.5231931 -1.105281e-19)
(52.544376 6.3472411 -1.248361e-19)
(52.526879 6.1753661 0)
(52.508866 6.0074986 -1.0652865e-19)
(52.490699 5.843442 -1.3517621e-19)
(52.47244 5.6831274 0)
(52.453763 5.5264285 -1.3149902e-19)
(52.435009 5.3732225 2.8807014e-20)
(52.416251 5.223409 -1.4193806e-20)
(52.397201 5.076904 0)
(52.378149 4.933591 -2.2035312e-19)
(52.359139 4.7933617 -1.3559964e-20)
(52.339965 4.6561603 1.3347738e-20)
(52.32086 4.5218696 -2.1017345e-19)
(52.301829 4.3903911 2.1325825e-19)
(52.282767 4.261677 4.4299803e-24)
(52.263845 4.1356161 -1.250445e-20)
(52.245025 4.0121208 2.0286822e-19)
(52.226286 3.8911424 -1.9342592e-19)
(52.207745 3.7725809 0)
(52.189332 3.6563479 1.8688691e-19)
(52.171089 3.542414 1.7791788e-19)
(52.153078 3.4306526 5.6394494e-21)
(52.135225 3.3210225 -1.7730225e-19)
(52.117612 3.2134592 1.6873653e-19)
(52.100253 3.1078584 1.8178145e-19)
(52.083102 3.0041909 -1.7328922e-19)
(52.066239 2.9023674 -5.1571309e-21)
(52.049656 2.8023191 5.0641722e-21)