/*--------------------------------*- C++ -*----------------------------------*\
| =========                 |                                                 |
| \\      /  F ield         | OpenFOAM: The Open Source CFD Toolbox           |
|  \\    /   O peration     | Version:  2406                                  |
|   \\  /    A nd           | Website:  www.openfoam.com                      |
|    \\/     M anipulation  |                                                 |
\*---------------------------------------------------------------------------*/
FoamFile
{
    version     2.0;
    format      ascii;
    arch        "LSB;label=32;scalar=64";
    class       surfaceScalarField;
    location    "0.005";
    object      phi;
}
// * * * * * * * * * * * * * * * * * * * * * * * * * * * * * * * * * * * * * //

dimensions      [1 0 -1 0 0 0 0];

oriented        oriented;

internalField   nonuniform List<scalar> 
46073
(
0.0058910128
-0.019977102
0.020216365
0.0056453662
-0.020334663
0.020580706
0.0053943159
-0.020674202
0.02092575
0.0051407829
-0.020998308
0.021252444
0.0048900952
-0.021312836
0.021564224
0.0046502417
-0.021628161
0.02186878
0.0044302427
-0.021958651
0.022179425
0.004235902
-0.022316615
0.022511683
0.0040659356
-0.022704112
0.02287473
0.0039147335
-0.023117451
0.023269243
0.0037767634
-0.023549599
0.023688118
0.003647948
-0.023993312
0.024122658
0.0035258701
-0.024445664
0.02456827
0.0034091587
-0.024905232
0.025022479
0.00329711
-0.025372127
0.025484723
0.0031892881
-0.025846351
0.025954734
0.0030856006
-0.026328679
0.02643294
0.002985868
-0.02681879
0.026919109
0.0028898039
-0.027316771
0.027413435
0.0027972245
-0.027823375
0.027916566
0.0027080001
-0.028338751
0.028428599
0.0026220456
-0.028863267
0.028949855
0.0025391842
-0.029396856
0.029480363
0.0024593041
-0.029939996
0.030020534
0.0023822928
-0.030492828
0.030570511
0.0023080568
-0.031055708
0.031130631
0.0022364746
-0.031628771
0.031701055
0.0021674566
-0.032212414
0.032282149
0.0021009236
-0.032806919
0.032874183
0.0020367993
-0.033412595
0.033477462
0.0019749947
-0.034029687
0.034092244
0.0019153947
-0.034658282
0.034718643
0.001857915
-0.035298768
0.035357017
0.0018024798
-0.03595149
0.036007702
0.0017489927
-0.036616583
0.036670856
0.0016973558
-0.037294271
0.037346704
0.0016474619
-0.037984773
0.038035474
0.0015992111
-0.038688357
0.038737425
0.0015525256
-0.039405248
0.039452761
0.0015073324
-0.040135694
0.040181725
0.001463585
-0.040880068
0.040924663
0.0014212516
-0.041638789
0.041681979
0.0013803067
-0.042412329
0.042454139
0.0013407153
-0.043201114
0.04324158
0.001302448
-0.044005667
0.044044816
0.0012654675
-0.04482644
0.044864308
0.0012297305
-0.045663824
0.045700453
0.0011951911
-0.046518217
0.046553651
0.0011618101
-0.047390009
0.047424289
0.001129547
-0.048279565
0.048312729
0.001098365
-0.049187214
0.0492193
0.001068225
-0.050113312
0.050144359
0.0010390774
-0.051058199
0.051088256
0.001010881
-0.052022312
0.052051419
0.00098359538
-0.053006067
0.053034262
0.00095717437
-0.054009852
0.054037181
0.00093156952
-0.055034214
0.055060721
0.00090673669
-0.056079674
0.0561054
0.00088262936
-0.057146708
0.057171694
0.00085920489
-0.058235822
0.058260107
0.00083642325
-0.059347499
0.059371116
0.00081424896
-0.060482257
0.060505235
0.00079264687
-0.06164056
0.061662931
0.00077158282
-0.062822965
0.062844756
0.00075102041
-0.064029954
0.064051198
0.00073092754
-0.065262095
0.065282817
0.00071126548
-0.066519959
0.066540196
0.00069199898
-0.067804089
0.067823873
0.00067309839
-0.069115132
0.069134489
0.00065452858
-0.07045361
0.070472577
0.00063626508
-0.071820143
0.071838741
0.00061828132
-0.073215268
0.073233524
0.00060054577
-0.074639538
0.074657483
0.00058303866
-0.07609357
0.076111223
0.00056573454
-0.077577935
0.077595322
0.00054860932
-0.079093252
0.079110397
0.00053164191
-0.080640186
0.08065711
0.00051481107
-0.082219384
0.082236107
0.00049809739
-0.083831521
0.083848065
0.00048148165
-0.085477287
0.085493671
0.00046494437
-0.08715737
0.087173613
0.0004484675
-0.088872451
0.088888574
0.0004320344
-0.090623219
0.09063924
0.00041562508
-0.092410378
0.092426321
0.00039922697
-0.094234642
0.094250525
0.00038282609
-0.096096738
0.096112582
0.00036640869
-0.097997419
0.098013244
0.00034996612
-0.099937431
0.099953254
0.00033348386
-0.10191754
0.10193339
0.0003169535
-0.10393855
0.10395442
0.00030036237
-0.10600123
0.10601716
0.00028370149
-0.10810641
0.10812241
0.00026696198
-0.11025491
0.110271
0.00025013617
-0.11244754
0.11246373
0.00023321866
-0.11468513
0.11470145
0.00021620047
-0.11696851
0.11698496
0.00019907625
-0.11929851
0.11931511
0.00018183601
-0.121676
0.12169278
0.00016447117
-0.12410187
0.12411883
0.00014697328
-0.12657703
0.12659419
0.00012933048
-0.12910234
0.12911973
0.00011152731
-0.1316788
0.13169642
9.3544781e-05
-0.13430715
0.13432503
7.5373299e-05
-0.13698878
0.13700692
5.6966171e-05
-0.13972394
0.13974239
3.8313279e-05
-0.14251506
0.14253382
1.9305377e-05
-0.14536164
0.1453808
-0.14826675
0.14828624
0.0059241927
-0.019721753
0.0056626957
-0.020072672
0.0053970456
-0.020407959
0.0051320993
-0.020732675
0.0048757175
-0.021055695
0.0046379814
-0.02138964
0.0044274236
-0.021747343
0.0042460717
-0.02213459
0.0040880964
-0.022545536
0.0039455262
-0.022974323
0.003812988
-0.023416524
0.0036874097
-0.023867202
0.0035671672
-0.024324883
0.0034514667
-0.024788982
0.0033399998
-0.025260097
0.003232506
-0.025738281
0.0031289666
-0.026224551
0.0030292484
-0.026718471
0.0029330936
-0.027220004
0.0028403406
-0.027729999
0.002750876
-0.028248654
0.0026646195
-0.028776367
0.0025813876
-0.029312968
0.0025010821
-0.02985902
0.0024236075
-0.030414669
0.0023488847
-0.030980284
0.002276796
-0.031555966
0.0022072543
-0.032142141
0.0021401963
-0.032739117
0.00207554
-0.033347183
0.0020131842
-0.033966566
0.0019530091
-0.034597333
0.001894927
-0.035239904
0.001838854
-0.035894626
0.001784687
-0.036561616
0.001732318
-0.037241091
0.0016816414
-0.037933275
0.0016325661
-0.038638449
0.0015850217
-0.03935686
0.0015389548
-0.040088774
0.0014943348
-0.040834584
0.0014511404
-0.041594722
0.0014093558
-0.042369662
0.001368947
-0.043159815
0.0013298848
-0.043965707
0.0012921316
-0.044787784
0.0012556415
-0.045626426
0.0012203698
-0.046482033
0.0011862731
-0.047354997
0.0011533137
-0.048245686
0.0011214527
-0.049154431
0.0010906509
-0.050081585
0.0010608584
-0.05102748
0.0010320331
-0.05199256
0.0010041347
-0.052977242
0.00097711675
-0.053981911
0.00095093228
-0.055007112
0.00092553338
-0.056053368
0.00090087423
-0.057121156
0.00087691041
-0.058210987
0.0008536029
-0.059323346
0.0008309165
-0.060458756
0.00080881393
-0.061617681
0.00078726162
-0.062800679
0.00076622393
-0.06400823
0.00074566829
-0.065240905
0.00072555439
-0.066499267
0.00070584855
-0.067783864
0.00068651852
-0.069095343
0.00066753219
-0.070434227
0.00064885732
-0.071801134
0.00063047019
-0.07319661
0.00061233888
-0.074621199
0.00059444372
-0.076075532
0.00057675674
-0.07756017
0.0005592557
-0.079075738
0.00054191764
-0.080622899
0.00052472272
-0.082202304
0.00050764861
-0.083814627
0.00049067646
-0.085460558
0.0004737885
-0.087140788
0.00045696452
-0.088855994
0.00044018636
-0.090606867
0.0004234381
-0.092394111
0.00040670393
-0.094218438
0.00038996954
-0.096080577
0.000373222
-0.09798128
0.00035645119
-0.099921297
0.00033964352
-0.10190139
0.00032278833
-0.10392236
0.00030587335
-0.10598499
0.00028889123
-0.1080901
0.00027183045
-0.11023851
0.0002546857
-0.11243104
0.00023744768
-0.11466851
0.00022011088
-0.11695175
0.0002026666
-0.1192816
0.00018510644
-0.12165892
0.00016742296
-0.12408459
0.00014960553
-0.12655955
0.00013163682
-0.12908464
0.00011351958
-0.13166087
9.5210705e-05
-0.13428894
7.6710656e-05
-0.1369703
5.7973176e-05
-0.13970515
3.89861e-05
-0.14249596
1.9647794e-05
-0.14534214
-0.14824692
0.0059442402
-0.019454473
0.0056733316
-0.019801171
0.005402877
-0.020136821
0.0051406636
-0.020469709
0.0048965518
-0.020810799
0.0046791778
-0.021171509
0.0044907901
-0.021558267
0.0043262829
-0.021969469
0.0041771101
-0.022395799
0.0040369531
-0.022833617
0.0039036209
-0.02328265
0.0037761279
-0.023739168
0.0036535321
-0.024201736
0.0035353318
-0.024670217
0.0034214178
-0.025145605
0.0033115212
-0.025627794
0.0032055951
-0.026118023
0.003103529
-0.026615793
0.0030050907
-0.027120943
0.0029101109
-0.027634386
0.0028184712
-0.028156371
0.0027301048
-0.028687347
0.0026448068
-0.029227003
0.0025624909
-0.029776022
0.0024830657
-0.030334545
0.0024064506
-0.030902954
0.0023325111
-0.031481295
0.0022611642
-0.032070048
0.0021923429
-0.032669537
0.0021259657
-0.033280036
0.002061933
-0.033901754
0.0020001262
-0.034534738
0.0019404606
-0.035179442
0.0018828569
-0.035836218
0.001827212
-0.036505157
0.0017734264
-0.03718648
0.0017213842
-0.037880397
0.0016710019
-0.038587219
0.0016222097
-0.039307209
0.0015749552
-0.04004065
0.0015292027
-0.040787952
0.0014849309
-0.04154956
0.0014421141
-0.042325946
0.0014007109
-0.043117504
0.0013606873
-0.043924769
0.0013220023
-0.044748177
0.0012846069
-0.045588104
0.0012484555
-0.046444951
0.0012135043
-0.047319112
0.001179712
-0.048210958
0.0011470411
-0.049120821
0.0011154516
-0.050049054
0.0010848941
-0.050995979
0.0010553237
-0.051962045
0.0010267017
-0.052947677
0.00099898306
-0.053953252
0.00097211764
-0.054979314
0.00094605748
-0.056026386
0.0009207556
-0.057094949
0.00089616828
-0.058185516
0.00087225288
-0.059298574
0.00084897543
-0.060434655
0.00082630084
-0.061594221
0.00080419204
-0.062777828
0.00078261466
-0.06398596
0.00076153483
-0.065219186
0.00074091372
-0.066478064
0.00072071343
-0.067763142
0.00070090374
-0.069075073
0.000681446
-0.070414372
0.0006623163
-0.07178167
0.00064348297
-0.073177506
0.00062491597
-0.074602427
0.00060659187
-0.076057068
0.00058848691
-0.077541991
0.00057057359
-0.079057816
0.00055283259
-0.080605216
0.00053524042
-0.082184835
0.00051777477
-0.08379735
0.0005004183
-0.085443456
0.00048315114
-0.087123838
0.0004659533
-0.088839176
0.00044880691
-0.090590161
0.00043169506
-0.092377494
0.0004146005
-0.094201889
0.00039750912
-0.096064074
0.00038040942
-0.097964804
0.00036328781
-0.099904828
0.0003461341
-0.10188491
0.00032893347
-0.10390585
0.00031167708
-0.10596842
0.00029435294
-0.10807347
0.00027695243
-0.11022179
0.00025946885
-0.11241422
0.00024189452
-0.11465157
0.00022422057
-0.11693467
0.00020644051
-0.11926436
0.00018854564
-0.1216415
0.00017052463
-0.12406699
0.0001523709
-0.12654174
0.00013407211
-0.1290666
0.00011560707
-0.13164259
9.6963015e-05
-0.1342704
7.8119527e-05
-0.13695148
5.9037432e-05
-0.13968601
3.9707889e-05
-0.14247652
2.0004813e-05
-0.14532227
-0.14822673
0.0059429
-0.019178407
0.0056674509
-0.019525035
0.005398808
-0.019867423
0.0051465906
-0.020216712
0.0049191549
-0.020582604
0.0047196657
-0.020971325
0.0045441212
-0.021382097
0.0043858756
-0.021810651
0.0042391526
-0.022248531
0.0040998877
-0.022693805
0.0039669706
-0.023149184
0.0038397505
-0.023611397
0.0037170709
-0.024078492
0.0035984551
-0.024551021
0.0034839989
-0.025030556
0.0033734336
-0.025516624
0.0032666808
-0.026010655
0.0031636763
-0.026512164
0.0030642708
-0.027020904
0.0029683069
-0.027537779
0.002875644
-0.028063056
0.0027862212
-0.02859726
0.0026998327
-0.029139936
0.0026164054
-0.0296919
0.002535868
-0.030253296
0.0024581449
-0.030824502
0.0023830968
-0.031405501
0.0023106389
-0.03199683
0.0022407137
-0.032598838
0.0021732366
-0.033211774
0.0021081009
-0.033835825
0.0020451773
-0.034471013
0.001984386
-0.03511784
0.0019256459
-0.035776659
0.0018688544
-0.036447536
0.0018139104
-0.037130696
0.0017607101
-0.037826344
0.0017091739
-0.038534819
0.0016592455
-0.039256406
0.0016108791
-0.039991398
0.0015640491
-0.040740226
0.0015187336
-0.041503338
0.0014749055
-0.042281202
0.001432525
-0.043074199
0.0013915506
-0.043882861
0.0013519427
-0.04470763
0.0013136521
-0.045548869
0.0012766278
-0.046406979
0.0012408284
-0.047282361
0.0012062101
-0.048175385
0.0011727359
-0.049086389
0.0011403635
-0.050015721
0.0011090469
-0.0509637
0.0010787384
-0.051930774
0.0010493983
-0.052917376
0.0010209829
-0.053923881
0.00099344136
-0.054950824
0.00096672291
-0.055998731
0.00094078192
-0.057068088
0.0009155711
-0.058159408
0.00089105232
-0.059273187
0.0008671865
-0.060409955
0.00084394022
-0.06157018
0.000821276
-0.062754414
0.00079915894
-0.063963143
0.00077755444
-0.065196937
0.00075642336
-0.066456347
0.00073572823
-0.067741922
0.00071543755
-0.069054321
0.00069551053
-0.070394047
0.00067592228
-0.071761748
0.00065664062
-0.073157956
0.00063763362
-0.074583218
0.00061888169
-0.07603818
0.00060035336
-0.077523394
0.00058202646
-0.079039487
0.00056387668
-0.080587131
0.00054588374
-0.082166975
0.00052802531
-0.083779691
0.00051028006
-0.085425976
0.00049262911
-0.087106518
0.00047505399
-0.088821995
0.00045753459
-0.090573096
0.00044005308
-0.092360524
0.0004225951
-0.094184993
0.00040514431
-0.096047229
0.00038768623
-0.097947987
0.00037021194
-0.099888023
0.00035270595
-0.1018681
0.00033515551
-0.103889
0.00031755211
-0.10595153
0.00029988224
-0.1080565
0.00028213899
-0.11020474
0.00026431172
-0.11239707
0.00024639443
-0.1146343
0.00022838107
-0.11691726
0.00021025929
-0.11924679
0.00019202381
-0.12162376
0.00017366441
-0.12404905
0.00015516922
-0.12652359
0.00013652901
-0.12904823
0.00011771917
-0.13162396
9.8730503e-05
-0.13425151
7.9540274e-05
-0.13693231
6.0116476e-05
-0.13966653
4.0422279e-05
-0.1424567
2.036416e-05
-0.14530204
-0.14820616
0.0059196171
-0.01889875
0.0056472845
-0.019251934
0.0053899117
-0.019609266
0.0051566593
-0.019982704
0.0049508919
-0.020376141
0.0047695996
-0.020789408
0.0046058286
-0.021217748
0.0044541657
-0.021658439
0.0043111588
-0.022104989
0.0041734086
-0.022555501
0.0040404811
-0.023015695
0.0039126373
-0.02348299
0.0037889781
-0.023954253
0.0036691601
-0.024430607
0.0035534907
-0.024914279
0.0034416901
-0.025404206
0.0033335873
-0.025901926
0.0032291395
-0.026407082
0.0031283085
-0.02691943
0.0030309492
-0.027439768
0.0029368675
-0.027968313
0.002846022
-0.02850574
0.0027582024
-0.029051425
0.0026733558
-0.029606344
0.0025914195
-0.030170632
0.0025123211
-0.030744658
0.0024359037
-0.031328322
0.0023620878
-0.031922238
0.0022908246
-0.032526786
0.0022220285
-0.033142179
0.002155586
-0.033768574
0.0020913704
-0.034405981
0.0020293008
-0.035054946
0.0019693011
-0.035715825
0.0019112623
-0.036388653
0.0018550913
-0.03707367
0.0018006784
-0.037771064
0.0017479533
-0.038481215
0.0016968682
-0.039204429
0.0016473825
-0.039941009
0.0015994693
-0.040691399
0.0015531079
-0.041456053
0.0015082719
-0.042235432
0.0014649098
-0.043029894
0.0014229829
-0.043839984
0.0013824503
-0.04466614
0.0013432567
-0.045508713
0.0013053554
-0.046368111
0.0012687007
-0.047244737
0.0012332492
-0.04813896
0.0011989618
-0.049051125
0.0011657998
-0.049981581
0.0011337112
-0.050930632
0.001102653
-0.051898736
0.0010725845
-0.05288633
0.0010434598
-0.053893783
0.0010152298
-0.054921629
0.00098784294
-0.055970393
0.00096124804
-0.057040561
0.00093540342
-0.058132655
0.0009102667
-0.059247171
0.0008858011
-0.060384645
0.00086197069
-0.061545546
0.00083873743
-0.062730424
0.00081606852
-0.063939769
0.00079392849
-0.065174147
0.00077227684
-0.066434106
0.00075107601
-0.067720194
0.00073029115
-0.069033073
0.00070988449
-0.070373242
0.00068982569
-0.071741356
0.00067008643
-0.07313795
0.00065063094
-0.074563562
0.00063143671
-0.076018854
0.00061247883
-0.077504371
0.00059372603
-0.079020738
0.00057516221
-0.08056864
0.00055675905
-0.082148713
0.00053849539
-0.083761637
0.00052035217
-0.08540811
0.00050230967
-0.08708882
0.00048434842
-0.088804442
0.00046644731
-0.090555665
0.0004485876
-0.092343191
0.00043075594
-0.094167739
0.00041293564
-0.09603003
0.00039511361
-0.097930824
0.00037727618
-0.099870872
0.00035941133
-0.10185094
0.00034150587
-0.10387181
0.00032354667
-0.10593429
0.00030552365
-0.1080392
0.00028742787
-0.11018736
0.00026925163
-0.11237958
0.00025098621
-0.11461669
0.0002326228
-0.11689952
0.00021415558
-0.11922889
0.00019557216
-0.12160568
0.000176864
-0.12403078
0.00015802145
-0.1265051
0.00013903275
-0.12902951
0.00011987857
-0.13160499
0.00010054577
-0.13423228
8.1002996e-05
-0.13691278
6.1213179e-05
-0.13964668
4.1160884e-05
-0.14243652
2.0742149e-05
-0.14528144
-0.14818521
0.0058806569
-0.018624358
0.0056223086
-0.018992767
0.0053862575
-0.019372455
0.0051773016
-0.019773061
0.0049919791
-0.020190198
0.0048237584
-0.020620616
0.0046666967
-0.021060131
0.0045178388
-0.02150904
0.0043762451
-0.021962861
0.0042391891
-0.022417878
0.0041062788
-0.022882207
0.0039782054
-0.023354342
0.0038542635
-0.023829717
0.0037340159
-0.024309749
0.0036178255
-0.02479747
0.0035054161
-0.02529117
0.0033965355
-0.025792409
0.0032911467
-0.026301048
0.0031893536
-0.026816985
0.0030910366
-0.027340791
0.0029959161
-0.027872522
0.0029039791
-0.028413118
0.0028150373
-0.02896178
0.002729056
-0.029519639
0.0026459801
-0.030086813
0.0025657401
-0.030663657
0.0024881627
-0.031249967
0.0024131786
-0.031846462
0.0023407452
-0.032453549
0.0022707714
-0.033071392
0.0022031477
-0.033700128
0.0021377369
-0.034339739
0.0020744695
-0.034990839
0.0020132675
-0.035653774
0.0019540254
-0.036328552
0.0018966529
-0.037015426
0.0018410502
-0.037714577
0.0017871562
-0.038426424
0.0017349309
-0.039151296
0.0016843354
-0.039889494
0.0016353491
-0.040641482
0.001587951
-0.041407714
0.0015421091
-0.042188639
0.0014977685
-0.042984592
0.001454888
-0.043796134
0.0014134268
-0.044623703
0.0013733305
-0.045467636
0.0013345481
-0.046328343
0.0012970326
-0.047206232
0.0012607428
-0.048101678
0.0012256369
-0.049015024
0.0011916759
-0.049946622
0.0011588093
-0.050896767
0.0011269953
-0.051865924
0.0010961867
-0.052854526
0.0010663471
-0.053862954
0.0010374196
-0.054891722
0.0010093511
-0.055941358
0.00098209584
-0.057012359
0.00095560782
-0.058105245
0.00092984484
-0.059220517
0.00090476793
-0.060358714
0.00088034444
-0.06152031
0.00085653442
-0.062705849
0.00083330414
-0.063915827
0.00081061894
-0.065150808
0.0007884359
-0.06641133
0.00076671888
-0.067697948
0.00074543316
-0.069011322
0.00072453658
-0.070351946
0.00070400277
-0.071720489
0.00068379525
-0.073117477
0.00066388135
-0.074543451
0.00064424003
-0.075999084
0.00062484038
-0.077484913
0.00060565573
-0.079001564
0.00058666454
-0.080549729
0.00056784415
-0.082130044
0.00054916954
-0.083743184
0.00053062022
-0.085389851
0.00051217814
-0.087070735
0.00049382036
-0.088786508
0.0004755291
-0.090537859
0.00045728595
-0.092325492
0.00043907361
-0.094150122
0.00042087754
-0.096012474
0.00040268227
-0.097913304
0.00038447562
-0.099853369
0.00036624282
-0.10183343
0.00034797273
-0.10385428
0.00032965134
-0.10591672
0.00031126951
-0.10802156
0.00029281566
-0.11016963
0.0002742813
-0.11236175
0.00025565996
-0.11459875
0.00023694253
-0.11688143
0.00021811981
-0.11921064
0.00019918342
-0.12158726
0.00018012159
-0.12401215
0.0001609256
-0.12648627
0.00014157991
-0.12901044
0.00012206988
-0.13158567
0.00010237522
-0.13421268
8.2474536e-05
-0.13689289
6.2325853e-05
-0.13962646
4.1909994e-05
-0.14241597
2.1113175e-05
-0.14526046
-0.14816388
0.0058381655
-0.018367289
0.0056045674
-0.018758342
0.0053953877
-0.019162613
0.005209225
-0.01958629
0.0050388896
-0.020019299
0.0048789883
-0.020460169
0.0047266254
-0.020907217
0.0045801704
-0.021362044
0.0044402738
-0.021822427
0.0043046742
-0.022281699
0.0041723314
-0.022749265
0.0040439473
-0.02322537
0.0039196827
-0.023704848
0.0037990476
-0.02418849
0.0036823186
-0.024680111
0.0035693004
-0.025177515
0.0034596992
-0.025682161
0.003353422
-0.026194117
0.0032506869
-0.026713589
0.0031514294
-0.027240866
0.0030552744
-0.027775687
0.0029622409
-0.028319388
0.0028721918
-0.028871013
0.0027850926
-0.029431801
0.0027008937
-0.030001854
0.0026195242
-0.03058151
0.0025407943
-0.031170444
0.0024646444
-0.031769505
0.0023910455
-0.032379132
0.0023198994
-0.032999418
0.0022510919
-0.033630484
0.0021844887
-0.03427229
0.0021200236
-0.03492552
0.0020576238
-0.03559051
0.0019971842
-0.036267237
0.0019386207
-0.036955975
0.0018818379
-0.037656894
0.0018267821
-0.038370455
0.0017734272
-0.039097015
0.0017217381
-0.039836868
0.0016716894
-0.040590485
0.0016232593
-0.041358324
0.0015764175
-0.042140826
0.0015311015
-0.042938296
0.0014872712
-0.043751315
0.0014448826
-0.044580319
0.0014038803
-0.045425633
0.0013642138
-0.046287672
0.001325837
-0.047166847
0.001288703
-0.048063533
0.001252773
-0.04897808
0.0012180074
-0.04991084
0.0011843569
-0.050862099
0.0011517758
-0.051832326
0.0011202239
-0.052821961
0.0010896581
-0.053831382
0.001060024
-0.054861092
0.0010312683
-0.055911622
0.0010033417
-0.056983472
0.00097620046
-0.05807717
0.00094979957
-0.059193215
0.00092410334
-0.060332154
0.00089907627
-0.061494463
0.00087468023
-0.062680681
0.00085087815
-0.063891307
0.00082763652
-0.065126908
0.00080491406
-0.066388011
0.00078267307
-0.067675175
0.00076087497
-0.068989058
0.00073948036
-0.070330152
0.00071845727
-0.071699134
0.00069777481
-0.073096531
0.00067739405
-0.074522877
0.00065729424
-0.07597886
0.00063744649
-0.077465011
0.00061782117
-0.078981956
0.00059839641
-0.080530394
0.00057914893
-0.082110957
0.00056005294
-0.08372432
0.00054108966
-0.085371191
0.0005222378
-0.087052255
0.00050347899
-0.088768188
0.00048479006
-0.090519672
0.00046615359
-0.092307416
0.00044755326
-0.094132134
0.00042897176
-0.09599455
0.00041039619
-0.097895423
0.00039181208
-0.099835508
0.00037320569
-0.10181557
0.0003545636
-0.10383639
0.00033587275
-0.10589878
0.00031712186
-0.10800357
0.00029830231
-0.11015156
0.00027940481
-0.11234358
0.00026042015
-0.11458045
0.00024134143
-0.11686299
0.0002221585
-0.11919205
0.00020285959
-0.12156848
0.00018343835
-0.12399318
0.00016388203
-0.12646708
0.00014417813
-0.12899102
0.00012430675
-0.13156599
0.00010425095
-0.13419273
8.3980597e-05
-0.13687263
6.346757e-05
-0.13960588
4.2670094e-05
-0.14239503
2.1502353e-05
-0.1452391
-0.14814216
0.0058064109
-0.018138758
0.0056021576
-0.018553349
0.0054182208
-0.018978187
0.0052482231
-0.01941572
0.0050869385
-0.019857472
0.0049323551
-0.020305045
0.0047835679
-0.020757881
0.0046388407
-0.02121677
0.0044998576
-0.021682897
0.0043660856
-0.022147338
0.0042346363
-0.022617194
0.004106052
-0.023096182
0.0039817591
-0.023579944
0.0038611329
-0.024067232
0.003744225
-0.024562565
0.0036309139
-0.025063559
0.0035209527
-0.025571545
0.0034141514
-0.026086651
0.0033107228
-0.02660949
0.0032107154
-0.027140181
0.0031137116
-0.027677994
0.0030197529
-0.028224721
0.0029287623
-0.028779291
0.0028407108
-0.029342993
0.0027555221
-0.029915888
0.0026731398
-0.030498333
0.0025933589
-0.031089852
0.0025161357
-0.031691458
0.0024414466
-0.032303608
0.0023691875
-0.032926315
0.0022992494
-0.033559693
0.0022314936
-0.034203674
0.0021658638
-0.03485902
0.0021022925
-0.035526059
0.0020406761
-0.036204729
0.001980939
-0.036895334
0.0019229924
-0.03759803
0.0018667969
-0.038313329
0.0018123306
-0.039041606
0.0017595604
-0.039783142
0.001708464
-0.040538421
0.0016590154
-0.041307897
0.0016111805
-0.042092002
0.0015648948
-0.042891011
0.0015201151
-0.043705528
0.0014768027
-0.044535992
0.0014348958
-0.045382706
0.0013943445
-0.046246096
0.001355101
-0.047126576
0.0013171212
-0.048024522
0.0012803627
-0.048940288
0.0012447867
-0.049874228
0.0012103441
-0.05082662
0.001176993
-0.05179794
0.001144687
-0.052788624
0.0011133882
-0.05379906
0.0010830403
-0.054829732
0.0010535879
-0.055881175
0.0010249801
-0.056953891
0.00099717524
-0.058048419
0.00097013096
-0.059165257
0.00094380471
-0.060304953
0.00091816588
-0.061467994
0.00089317242
-0.062654909
0.00086879036
-0.063866202
0.00084498387
-0.065102439
0.0008217117
-0.06636414
0.00079893665
-0.067651866
0.00077661856
-0.068966272
0.00075471482
-0.070307848
0.0007331971
-0.071677285
0.00071202746
-0.0730751
0.00069117152
-0.07450183
0.00067060627
-0.075958175
0.00065030161
-0.077444659
0.00063022498
-0.078961905
0.00061035735
-0.080510625
0.00059067422
-0.082091446
0.0005711495
-0.08370504
0.00055176316
-0.085352121
0.00053249627
-0.087033375
0.00051332382
-0.08874947
0.00049422908
-0.090501096
0.0004751906
-0.092288955
0.00045619433
-0.094113769
0.00043722202
-0.095976253
0.00041825654
-0.09787717
0.00039928731
-0.09981728
0.00038029915
-0.10179734
0.00036127698
-0.10381814
0.00034220996
-0.1058805
0.00032308466
-0.10798522
0.00030389171
-0.11013313
0.00028462226
-0.11232505
0.00026526931
-0.1145618
0.00024582071
-0.1168442
0.00022626849
-0.1191731
0.00020660427
-0.12154935
0.00018681471
-0.12397385
0.00016689051
-0.12644753
0.00014681531
-0.12897123
0.00012658326
-0.13154595
0.00010614835
-0.13417239
8.5508948e-05
-0.136852
6.4619826e-05
-0.13958491
4.3447485e-05
-0.14237371
2.1891085e-05
-0.14521734
-0.14812003
0.0057922346
-0.017942124
0.0056164887
-0.018377167
0.0054507342
-0.01881198
0.0052879964
-0.01925234
0.0051322931
-0.019701211
0.0049824394
-0.020154648
0.0048370506
-0.020611947
0.0046933002
-0.021072455
0.0045552402
-0.021544269
0.004425632
-0.02201713
0.0042946871
-0.022485619
0.004166055
-0.022966928
0.0040419393
-0.023455212
0.0039214778
-0.023946135
0.0038046704
-0.024445112
0.0036912003
-0.024949436
0.0035810594
-0.025460739
0.0034740332
-0.025978952
0.0033700186
-0.026504794
0.0032693052
-0.02703878
0.0031715676
-0.027579556
0.0030767948
-0.028129227
0.0029849837
-0.028686733
0.0028960881
-0.029253324
0.002809997
-0.029829002
0.0027266758
-0.030414199
0.0026459107
-0.031008259
0.0025676745
-0.031612382
0.0024919505
-0.032227035
0.0024186231
-0.032852129
0.0023475892
-0.033487792
0.0022787116
-0.03413392
0.0022119458
-0.034791369
0.0021472277
-0.035460444
0.0020844561
-0.036141049
0.0020235697
-0.036833526
0.0019644823
-0.037538008
0.0019071664
-0.038255065
0.001851611
-0.038985089
0.0017977801
-0.039728337
0.0017456507
-0.040485306
0.0016951962
-0.041256444
0.0016463785
-0.042042176
0.0015991306
-0.042842744
0.0015534093
-0.043658779
0.0015091733
-0.044490722
0.0014663643
-0.045338857
0.0014249292
-0.046203617
0.001384821
-0.04708542
0.0013459918
-0.047984642
0.0013084012
-0.048901644
0.0012720085
-0.04983678
0.0012367709
-0.050790327
0.0012026426
-0.051762758
0.0011695771
-0.05275451
0.0011375383
-0.053765981
0.0011064681
-0.054797635
0.0010763095
-0.055850007
0.0010470138
-0.056923609
0.0010185384
-0.058018986
0.00099083939
-0.059136634
0.00096387594
-0.060277106
0.00093761619
-0.061440897
0.00091201611
-0.062628523
0.00088704551
-0.063840503
0.00086266468
-0.065077391
0.00083883139
-0.066339704
0.00081551228
-0.06762801
0.00079266539
-0.068942957
0.00077024531
-0.070285028
0.00074822192
-0.071654932
0.00072655911
-0.073053179
0.00070521655
-0.0744803
0.00068417703
-0.075937021
0.00066340538
-0.077423846
0.00064286923
-0.078941402
0.00062255193
-0.080490415
0.00060242511
-0.082071502
0.00058246301
-0.083685336
0.00056264441
-0.085332634
0.00054295032
-0.087014084
0.00052335965
-0.088730351
0.00050385084
-0.090482124
0.00048440283
-0.092270104
0.0004650007
-0.094095016
0.00044562716
-0.095957575
0.00042626702
-0.097858542
0.00040690364
-0.099798678
0.00038752604
-0.10177874
0.00036811687
-0.10379953
0.00034866436
-0.10586184
0.00032915671
-0.1079665
0.00030958319
-0.11011433
0.00028993599
-0.11230616
0.00027020474
-0.11454279
0.00025038132
-0.11682505
0.00023045498
-0.11915379
0.00021041514
-0.12152985
0.00019025263
-0.12395415
0.00016995416
-0.12642761
0.00014951065
-0.12895108
0.00012889369
-0.13152553
0.00010809268
-0.13415169
8.7072339e-05
-0.13683099
6.5795283e-05
-0.13956355
4.4236133e-05
-0.142352
2.2291875e-05
-0.14519518
-0.1480975
0.0058024296
-0.017767788
0.0056331774
-0.018207366
0.0054730258
-0.018651221
0.005321338
-0.01910011
0.0051734104
-0.019552745
0.0050286783
-0.020009368
0.0048874155
-0.020470125
0.00475037
-0.020934837
0.0046091247
-0.021402432
0.0044739894
-0.021881393
0.0043493029
-0.022360307
0.0042229373
-0.022839931
0.0040991901
-0.023330837
0.003979456
-0.023825759
0.0038632086
-0.024328211
0.0037495993
-0.024835163
0.0036394562
-0.025349923
0.0035325824
-0.025871396
0.0034281138
-0.026399632
0.0033267729
-0.02693674
0.0032284924
-0.027480563
0.003133097
-0.028033096
0.0030406228
-0.028593496
0.0029510277
-0.029162938
0.0028641448
-0.029741306
0.0027799763
-0.0303292
0.0026983159
-0.030925754
0.0026191495
-0.031532359
0.0025424567
-0.032149477
0.0024681155
-0.032776914
0.0023960324
-0.033414826
0.0023260732
-0.034063069
0.0022582053
-0.034722599
0.002192372
-0.035393698
0.0021284752
-0.036076227
0.0020664642
-0.036770577
0.0020062655
-0.037476856
0.0019478574
-0.03819569
0.0018912377
-0.038927489
0.0018363691
-0.039672476
0.0017832261
-0.040431157
0.0017317803
-0.041203981
0.001681994
-0.04199136
0.0016337918
-0.042793503
0.0015871348
-0.043611074
0.0015419831
-0.044444515
0.0014982748
-0.045294089
0.0014559577
-0.046160236
0.0014149844
-0.04704338
0.0013753067
-0.047943893
0.0013368802
-0.048862144
0.0012996695
-0.049798495
0.0012636318
-0.050753214
0.0012287214
-0.051726776
0.0011948915
-0.052719614
0.0011621039
-0.053732137
0.0011303053
-0.054764794
0.0010994341
-0.055818111
0.0010694425
-0.056892617
0.0010402871
-0.05798886
0.0010119264
-0.059107339
0.00098431521
-0.060248601
0.00095742454
-0.06141316
0.0009312115
-0.062601518
0.00090564284
-0.063814201
0.00088067849
-0.065051755
0.00085627732
-0.066314697
0.00083240676
-0.067603601
0.00080901922
-0.0689191
0.00078607256
-0.070261682
0.00076353569
-0.071632067
0.00074136871
-0.073030755
0.00071953506
-0.074458283
0.00069800993
-0.075915387
0.00067676245
-0.077402564
0.00065575923
-0.07892044
0.00063498166
-0.080469756
0.00061440186
-0.082051117
0.00059399243
-0.083665198
0.00057373481
-0.085312722
0.00055360692
-0.086994375
0.00053358838
-0.088710821
0.00051365598
-0.090462747
0.00049379083
-0.092250854
0.00047397535
-0.09407587
0.00045419317
-0.095938508
0.00043442732
-0.097839529
0.00041466444
-0.099779696
0.00039488778
-0.10175977
0.00037508396
-0.10378054
0.00035523905
-0.10584282
0.00033534166
-0.10794742
0.0003153803
-0.11009517
0.00029534638
-0.1122869
0.00027523108
-0.11452341
0.0002550241
-0.11680553
0.00023471624
-0.11913411
0.00021429537
-0.12150999
0.00019375086
-0.12393408
0.00017307228
-0.12640732