/*--------------------------------*- C++ -*----------------------------------*\
| =========                 |                                                 |
| \\      /  F ield         | OpenFOAM: The Open Source CFD Toolbox           |
|  \\    /   O peration     | Version:  2406                                  |
|   \\  /    A nd           | Website:  www.openfoam.com                      |
|    \\/     M anipulation  |                                                 |
\*---------------------------------------------------------------------------*/
FoamFile
{
    version     2.0;
    format      ascii;
    arch        "LSB;label=32;scalar=64";
    class       volScalarField;
    location    "0.005";
    object      rho;
}
// * * * * * * * * * * * * * * * * * * * * * * * * * * * * * * * * * * * * * //

dimensions      [1 -3 0 0 0 0 0];

internalField   nonuniform List<scalar> 
23203
(
1.1985842
1.1987367
1.1988512
1.1989262
1.1989638
1.1989722
1.1989681
1.1989722
1.1989995
1.1990542
1.1991295
1.1992165
1.1993093
1.1994041
1.1994989
1.1995924
1.1996845
1.1997747
1.1998633
1.1999502
1.2000353
1.2001187
1.2002004
1.2002805
1.2003589
1.2004358
1.2005112
1.2005851
1.2006577
1.2007288
1.2007986
1.200867
1.2009339
1.2009994
1.2010633
1.2011257
1.2011864
1.2012455
1.2013027
1.2013581
1.2014117
1.2014636
1.2015138
1.2015625
1.2016097
1.2016555
1.2016999
1.201743
1.2017848
1.2018253
1.2018646
1.2019027
1.2019397
1.2019755
1.2020103
1.2020441
1.2020768
1.2021086
1.2021394
1.2021693
1.2021983
1.2022264
1.2022536
1.2022801
1.2023057
1.2023307
1.202355
1.2023787
1.2024019
1.2024247
1.2024473
1.2024697
1.2024921
1.2025145
1.2025371
1.20256
1.2025834
1.2026072
1.2026317
1.2026569
1.202683
1.20271
1.202738
1.2027672
1.2027977
1.2028297
1.2028631
1.2028981
1.2029347
1.2029728
1.2030124
1.2030532
1.2030952
1.2031381
1.2031816
1.2032254
1.2032691
1.2033123
1.2033544
1.2033949
1.2034332
1.2034688
1.2035011
1.2035294
1.2035534
1.2035723
1.2035856
1.203593
1.198957
1.1990503
1.1991104
1.199137
1.1991353
1.1991178
1.1991047
1.1991138
1.1991513
1.1992135
1.1992902
1.1993734
1.1994595
1.1995466
1.1996334
1.1997191
1.1998038
1.1998871
1.1999691
1.2000499
1.2001292
1.2002073
1.2002839
1.2003592
1.2004332
1.200506
1.2005774
1.2006477
1.2007168
1.2007847
1.2008514
1.2009168
1.200981
1.2010438
1.2011052
1.2011652
1.2012237
1.2012805
1.2013357
1.2013891
1.2014409
1.2014911
1.2015398
1.2015871
1.201633
1.2016775
1.2017208
1.2017628
1.2018036
1.2018431
1.2018815
1.2019188
1.201955
1.2019901
1.2020242
1.2020573
1.2020895
1.2021207
1.202151
1.2021804
1.2022089
1.2022366
1.2022634
1.2022895
1.2023148
1.2023394
1.2023634
1.2023868
1.2024098
1.2024324
1.2024547
1.2024769
1.2024991
1.2025214
1.2025439
1.2025667
1.2025899
1.2026137
1.2026381
1.2026632
1.2026892
1.2027161
1.2027441
1.2027733
1.2028038
1.2028357
1.2028691
1.2029041
1.2029407
1.2029788
1.2030184
1.2030592
1.2031012
1.2031441
1.2031876
1.2032314
1.2032751
1.2033183
1.2033604
1.203401
1.2034393
1.2034749
1.2035072
1.2035356
1.2035596
1.2035785
1.2035917
1.2035992
1.1992855
1.1993283
1.1993411
1.1993279
1.1992992
1.1992725
1.1992662
1.1992877
1.1993324
1.1993943
1.1994656
1.1995407
1.199618
1.1996962
1.1997746
1.1998522
1.1999293
1.2000054
1.2000808
1.2001553
1.2002287
1.2003012
1.2003726
1.200443
1.2005124
1.2005808
1.2006483
1.2007148
1.2007803
1.2008447
1.2009082
1.2009706
1.2010319
1.201092
1.2011507
1.2012082
1.2012642
1.2013187
1.2013716
1.201423
1.2014729
1.2015213
1.2015683
1.201614
1.2016585
1.2017017
1.2017437
1.2017845
1.2018242
1.2018627
1.2019001
1.2019364
1.2019717
1.2020061
1.2020394
1.2020718
1.2021033
1.2021339
1.2021636
1.2021924
1.2022204
1.2022476
1.2022739
1.2022996
1.2023245
1.2023487
1.2023723
1.2023954
1.2024181
1.2024404
1.2024625
1.2024845
1.2025065
1.2025286
1.2025509
1.2025736
1.2025967
1.2026203
1.2026446
1.2026696
1.2026956
1.2027224
1.2027504
1.2027795
1.2028099
1.2028418
1.2028752
1.2029101
1.2029467
1.2029848
1.2030243
1.2030652
1.2031072
1.2031501
1.2031936
1.2032375
1.2032812
1.2033244
1.2033665
1.2034071
1.2034455
1.2034811
1.2035134
1.2035418
1.2035658
1.2035847
1.203598
1.2036055
1.199574
1.1995696
1.1995418
1.1995005
1.1994603
1.1994379
1.1994431
1.199473
1.199519
1.1995771
1.199642
1.199709
1.1997776
1.199847
1.1999169
1.1999864
1.200056
1.200125
1.2001935
1.2002617
1.2003291
1.200396
1.2004621
1.2005277
1.2005924
1.2006565
1.2007199
1.2007825
1.2008444
1.2009055
1.2009657
1.201025
1.2010833
1.2011406
1.2011967
1.2012515
1.2013051
1.2013572
1.201408
1.2014573
1.2015052
1.2015518
1.2015972
1.2016413
1.2016843
1.2017261
1.2017668
1.2018065
1.201845
1.2018824
1.2019189
1.2019543
1.2019887
1.2020222
1.2020548
1.2020865
1.2021173
1.2021472
1.2021763
1.2022046
1.202232
1.2022587
1.2022846
1.2023098
1.2023343
1.2023582
1.2023814
1.2024042
1.2024266
1.2024486
1.2024705
1.2024922
1.202514
1.2025359
1.2025581
1.2025806
1.2026036
1.2026271
1.2026513
1.2026762
1.202702
1.2027288
1.2027567
1.2027858
1.2028162
1.202848
1.2028814
1.2029163
1.2029528
1.2029909
1.2030305
1.2030713
1.2031133
1.2031562
1.2031998
1.2032436
1.2032874
1.2033306
1.2033728
1.2034133
1.2034518
1.2034874
1.2035198
1.2035481
1.2035722
1.2035911
1.2036044
1.2036119
1.1998297
1.1997849
1.1997277
1.199674
1.199637
1.1996258
1.1996406
1.1996734
1.1997159
1.1997667
1.1998231
1.1998809
1.1999399
1.2000001
1.2000615
1.2001228
1.2001848
1.2002467
1.2003084
1.2003702
1.2004316
1.2004929
1.2005537
1.2006142
1.2006743
1.200734
1.2007932
1.200852
1.2009101
1.2009677
1.2010246
1.2010807
1.201136
1.2011904
1.2012437
1.2012959
1.2013469
1.2013967
1.2014452
1.2014924
1.2015383
1.2015831
1.2016267
1.2016693
1.2017108
1.2017512
1.2017906
1.201829
1.2018664
1.2019028
1.2019382
1.2019726
1.2020062
1.2020388
1.2020706
1.2021015
1.2021316
1.2021609
1.2021894
1.2022171
1.202244
1.2022702
1.2022956
1.2023203
1.2023444
1.2023678
1.2023908
1.2024132
1.2024352
1.202457
1.2024786
1.2025001
1.2025217
1.2025434
1.2025654
1.2025878
1.2026106
1.202634
1.2026581
1.2026829
1.2027086
1.2027354
1.2027632
1.2027922
1.2028225
1.2028543
1.2028876
1.2029225
1.2029591
1.2029971
1.2030367
1.2030776
1.2031196
1.2031625
1.203206
1.2032499
1.2032936
1.2033369
1.2033791
1.2034197
1.2034581
1.2034938
1.2035262
1.2035546
1.2035787
1.2035976
1.2036109
1.2036184
1.2000575
1.1999833
1.1999122
1.1998619
1.1998359
1.1998343
1.1998519
1.1998815
1.1999165
1.1999576
1.2000051
1.2000539
1.2001033
1.2001545
1.2002075
1.2002607
1.2003152
1.2003698
1.2004247
1.2004801
1.2005356
1.2005912
1.2006466
1.2007022
1.2007575
1.2008128
1.2008679
1.2009227
1.2009771
1.2010311
1.2010846
1.2011375
1.2011897
1.2012411
1.2012916
1.2013411
1.2013896
1.2014369
1.2014831
1.2015282
1.2015721
1.2016151
1.201657
1.2016979
1.2017379
1.2017769
1.201815
1.2018521
1.2018883
1.2019236
1.2019579
1.2019914
1.202024
1.2020558
1.2020868
1.202117
1.2021464
1.202175
1.2022028
1.2022299
1.2022562
1.2022819
1.2023068
1.2023311
1.2023547
1.2023778
1.2024003
1.2024224
1.2024441
1.2024656
1.2024869
1.2025082
1.2025296
1.2025511
1.2025729
1.2025951
1.2026178
1.202641
1.202665
1.2026897
1.2027154
1.202742
1.2027697
1.2027987
1.202829
1.2028607
1.202894
1.2029289
1.2029654
1.2030035
1.203043
1.2030839
1.2031259
1.2031688
1.2032124
1.2032562
1.2033
1.2033433
1.2033855
1.2034261
1.2034646
1.2035003
1.2035327
1.2035612
1.2035853
1.2036042
1.2036176
1.203625
1.2002678
1.200178
1.2001102
1.2000734
1.2000569
1.200058
1.200072
1.2000949
1.2001201
1.2001495
1.2001883
1.2002288
1.2002681
1.2003101
1.2003549
1.2003999
1.2004469
1.2004943
1.2005425
1.2005916
1.200641
1.2006911
1.2007411
1.2007916
1.2008423
1.2008931
1.2009439
1.2009947
1.2010454
1.2010958
1.2011459
1.2011954
1.2012445
1.2012929
1.2013405
1.2013873
1.2014331
1.201478
1.2015219
1.2015648
1.2016067
1.2016478
1.2016879
1.2017272
1.2017656
1.2018032
1.2018399
1.2018758
1.2019108
1.2019449
1.2019782
1.2020106
1.2020423
1.2020732
1.2021034
1.2021328
1.2021614
1.2021893
1.2022165
1.202243
1.2022688
1.2022939
1.2023183
1.2023421
1.2023653
1.2023879
1.20241
1.2024318
1.2024532
1.2024744
1.2024954
1.2025165
1.2025376
1.2025589
1.2025805
1.2026026
1.2026251
1.2026482
1.2026721
1.2026967
1.2027222
1.2027488
1.2027765
1.2028054
1.2028356
1.2028673
1.2029005
1.2029354
1.2029719
1.2030099
1.2030495
1.2030903
1.2031323
1.2031753
1.2032188
1.2032627
1.2033065
1.2033498
1.2033921
1.2034327
1.2034712
1.2035069
1.2035394
1.2035678
1.203592
1.2036109
1.2036243
1.2036317
1.2004756
1.2003833
1.2003341
1.2003082
1.2002928
1.2002894
1.2002957
1.2003106
1.2003245
1.2003407
1.2003709
1.2004046
1.200434
1.2004663
1.2005031
1.2005402
1.2005798
1.2006201
1.2006616
1.2007044
1.2007478
1.2007922
1.2008368
1.2008824
1.2009283
1.2009747
1.2010213
1.201068
1.2011148
1.2011616
1.2012082
1.2012544
1.2013003
1.2013456
1.2013903
1.2014343
1.2014775
1.2015199
1.2015614
1.2016021
1.201642
1.2016812
1.2017195
1.2017572
1.201794
1.2018301
1.2018655
1.2019
1.2019338
1.2019667
1.2019989
1.2020304
1.2020611
1.2020911
1.2021204
1.202149
1.2021769
1.2022041
1.2022306
1.2022564
1.2022816
1.2023061
1.20233
1.2023533
1.2023761
1.2023983
1.20242
1.2024414
1.2024625
1.2024833
1.2025041
1.2025249
1.2025458
1.2025669
1.2025883
1.2026102
1.2026326
1.2026556
1.2026793
1.2027038
1.2027292
1.2027557
1.2027833
1.2028121
1.2028423
1.202874
1.2029072
1.202942
1.2029785
1.2030165
1.203056
1.2030969
1.2031389
1.2031818
1.2032254
1.2032693
1.2033131
1.2033564
1.2033987
1.2034394
1.2034779
1.2035137
1.2035461
1.2035746
1.2035988
1.2036177
1.2036311
1.2036386
1.2006932
1.2006174
1.2005865
1.2005554
1.2005343
1.2005228
1.2005199
1.2005255
1.2005285
1.2005333
1.2005533
1.2005806
1.2006005
1.2006226
1.2006517
1.2006812
1.2007137
1.2007468
1.2007817
1.2008183
1.2008557
1.2008946
1.2009338
1.2009744
1.2010156
1.2010576
1.2010998
1.2011425
1.2011855
1.2012285
1.2012716
1.2013144
1.201357
1.2013993
1.201441
1.2014821
1.2015227
1.2015625
1.2016017
1.2016402
1.2016781
1.2017153
1.2017519
1.2017878
1.2018231
1.2018577
1.2018916
1.2019248
1.2019573
1.2019891
1.2020202
1.2020506
1.2020803
1.2021094
1.2021378
1.2021656
1.2021927
1.2022192
1.202245
1.2022702
1.2022948
1.2023187
1.2023421
1.2023649
1.2023871
1.2024089
1.2024302
1.2024512
1.2024719
1.2024925
1.202513
1.2025335
1.2025542
1.2025751
1.2025963
1.202618
1.2026402
1.2026631
1.2026866
1.2027111
1.2027364
1.2027628
1.2027903
1.202819
1.2028492
1.2028808
1.202914
1.2029488
1.2029852
1.2030232
1.2030627
1.2031036
1.2031456
1.2031885
1.2032321
1.203276
1.2033198
1.2033632
1.2034055
1.2034462
1.2034847
1.2035205
1.203553
1.2035815
1.2036057
1.2036247
1.2036381
1.2036455
1.2009477
1.2008875
1.2008406
1.2008024
1.200775
1.2007554
1.2007427
1.2007349
1.2007329
1.2007305
1.2007357
1.200754
1.2007656
1.2007788
1.2008007
1.2008226
1.2008482
1.2008744
1.2009028
1.2009332
1.2009647
1.2009981
1.2010319
1.2010675
1.2011041
1.2011416
1.2011795
1.2012181
1.2012572
1.2012965
1.2013361
1.2013754
1.2014147
1.2014538
1.2014925
1.2015308
1.2015687
1.201606
1.2016428
1.2016791
1.2017149
1.2017502
1.2017849
1.2018191
1.2018528
1.2018859
1.2019183
1.2019502
1.2019814
1.202012
1.2020419
1.2020713
1.2021
1.2021281
1.2021557
1.2021826
1.2022089
1.2022346
1.2022597
1.2022843
1.2023082
1.2023316
1.2023544
1.2023766
1.2023984
1.2024197
1.2024407
1.2024613
1.2024817
1.2025019
1.2025221
1.2025423
1.2025628
1.2025834
1.2026045
1.202626
1.202648
1.2026707
1.2026942
1.2027185
1.2027437
1.20277
1.2027974
1.2028261
1.2028562
1.2028877
1.2029208
1.2029556
1.202992
1.20303
1.2030695
1.2031104
1.2031524
1.2031953
1.2032389
1.2032828
1.2033267
1.20337
1.2034123
1.2034531
1.2034916
1.2035275
1.20356
1.2035885
1.2036127
1.2036317
1.2036451
1.2036526
1.2012127
1.2011477
1.2010943
1.201051
1.201015
1.2009857
1.2009626
1.2009452
1.2009315
1.2009227
1.2009225
1.2009267
1.2009283
1.2009358
1.2009499
1.2009634
1.2009831
1.2010026
1.2010243
1.2010489
1.2010745
1.2011025
1.201131
1.2011617
1.2011936
1.2012267
1.2012602
1.2012947
1.2013299
1.2013655
1.2014014
1.2014373
1.2014733
1.2015092
1.2015449
1.2015803
1.2016155
1.2016503
1.2016847
1.2017188
1.2017525
1.2017857
1.2018187
1.2018511
1.2018831
1.2019146
1.2019457
1.2019761
1.202006
1.2020354
1.2020642
1.2020924
1.2021201
1.2021473
1.2021739
1.2022
1.2022255
1.2022504
1.2022748
1.2022987
1.202322
1.2023447
1.202367
1.2023887
1.20241
1.2024308
1.2024514
1.2024716
1.2024916
1.2025115
1.2025314
1.2025514
1.2025715
1.202592
1.2026128
1.2026341
1.202656
1.2026785
1.2027018
1.202726
1.2027511
1.2027773
1.2028046
1.2028333
1.2028633
1.2028948
1.2029279
1.2029626
1.202999
1.203037
1.2030764
1.2031173
1.2031593
1.2032022
1.2032458
1.2032898
1.2033336
1.203377
1.2034193
1.2034601
1.2034987
1.2035345
1.2035671
1.2035956
1.2036198
1.2036389
1.2036523
1.2036598
1.2014801
1.2014102
1.2013495
1.2012962
1.2012504
1.2012115
1.2011788
1.2011517
1.2011303
1.2011137
1.201102
1.201096
1.2010934
1.201096
1.2010973
1.2011036
1.201119
1.2011309
1.2011456
1.2011647
1.2011851
1.2012078
1.201231
1.2012568
1.201284
1.2013128
1.2013418
1.2013722
1.2014036
1.2014354
1.2014677
1.2015
1.2015326
1.2015654
1.2015981
1.2016306
1.201663
1.2016953
1.2017273
1.2017591
1.2017907
1.201822
1.2018531
1.2018837
1.2019141
1.2019441
1.2019736
1.2020026
1.2020312
1.2020593
1.2020869
1.2021141
1.2021407
1.2021669
1.2021926
1.2022178
1.2022424
1.2022666
1.2022903
1.2023134
1.202336
1.2023582
1.2023798
1.202401
1.2024218
1.2024422
1.2024623
1.2024821
1.2025017
1.2025213
1.2025409
1.2025606
1.2025805
1.2026007
1.2026213
1.2026424
1.2026641
1.2026865
1.2027097
1.2027337
1.2027587
1.2027848
1.202812
1.2028406
1.2028705
1.202902
1.202935
1.2029697
1.2030061
1.203044
1.2030835
1.2031243
1.2031663
1.2032093
1.2032529
1.2032968
1.2033407
1.2033841
1.2034265
1.2034672
1.2035059
1.2035417
1.2035743
1.2036029
1.2036271
1.2036462
1.2036596
1.2036671
1.2017446
1.2016666
1.2015967
1.2015348
1.2014803
1.2014326
1.201391
1.2013553
1.201325
1.2013003
1.2012812
1.2012666
1.2012559
1.2012489
1.2012461
1.2012481
1.2012542
1.201259
1.201267
1.2012797
1.2012965
1.2013139
1.2013314
1.2013526
1.2013753
1.2013997
1.2014242
1.2014506
1.201478
1.2015061
1.2015347
1.2015634
1.2015928
1.2016224
1.201652
1.2016817
1.2017113
1.201741
1.2017707
1.2018002
1.2018297
1.201859
1.2018882
1.201917
1.2019457
1.2019741
1.2020021
1.2020297
1.2020569
1.2020838
1.2021102
1.2021362
1.2021618
1.202187
1.2022117
1.2022359
1.2022598
1.2022831
1.202306
1.2023285
1.2023504
1.202372
1.202393
1.2024137
1.2024339
1.2024538
1.2024734
1.2024928
1.2025121
1.2025313
1.2025506
1.20257
1.2025897
1.2026096
1.20263
1.2026509
1.2026725
1.2026947
1.2027177
1.2027416
1.2027665
1.2027924
1.2028196
1.2028481
1.2028779
1.2029093
1.2029423
1.202977
1.2030133
1.2030512
1.2030907
1.2031315
1.2031735
1.2032164
1.20326
1.203304
1.2033479
1.2033913
1.2034337
1.2034745
1.2035131
1.203549
1.2035816
1.2036102
1.2036345
1.2036536
1.203667
1.2036745
1.2019994
1.2019142
1.2018369
1.2017671
1.2017043
1.2016481
1.2015983
1.2015545
1.2015166
1.2014841
1.2014568
1.2014345
1.201417
1.2014038
1.2013942
1.2013883
1.2013867
1.2013888
1.2013902
1.2013945
1.2014089
1.2014203
1.201432
1.2014489
1.2014671
1.2014874
1.2015073
1.2015296
1.2015533
1.2015775
1.2016025
1.2016276
1.2016536
1.2016801
1.2017066
1.2017334
1.2017603
1.2017875
1.2018148
1.201842
1.2018694
1.2018967
1.2019239
1.201951
1.2019779
1.2020047
1.2020312
1.2020574
1.2020832
1.2021088
1.202134
1.2021588
1.2021833
1.2022075
1.2022312
1.2022545
1.2022775
1.2023
1.2023222
1.2023439
1.2023652
1.202386
1.2024065
1.2024266
1.2024463
1.2024657
1.2024849
1.2025038
1.2025227
1.2025416
1.2025605
1.2025796
1.202599
1.2026187
1.2026389
1.2026596
1.202681
1.202703
1.2027258
1.2027496
1.2027744
1.2028002
1.2028273
1.2028557
1.2028855
1.2029168
1.2029498
1.2029844
1.2030207
1.2030586
1.203098
1.2031388
1.2031808
1.2032237
1.2032673
1.2033113
1.2033552
1.2033986
1.2034411
1.2034819
1.2035206
1.2035565
1.2035891
1.2036177
1.203642
1.2036611
1.2036746
1.203682
1.2022451
1.2021531
1.2020686
1.2019914
1.2019211
1.2018575
1.2018003
1.2017491
1.2017038
1.2016641
1.2016299
1.2016007
1.2015761
1.2015559
1.2015402
1.2015286
1.2015203
1.2015148
1.2015123
1.2015146
1.2015205
1.2015251
1.2015335
1.2015456
1.2015593
1.2015756
1.2015908
1.2016091
1.2016291
1.2016496
1.201671
1.2016924
1.2017151
1.2017384
1.2017619
1.2017859
1.20181
1.2018347
1.2018595
1.2018845
1.2019097
1.201935
1.2019603
1.2019856
1.2020108
1.2020359
1.2020608
1.2020856
1.20211
1.2021343
1.2021582
1.2021819
1.2022053
1.2022284
1.2022512
1.2022736
1.2022956
1.2023173
1.2023387
1.2023596
1.2023802
1.2024004
1.2024202
1.2024397
1.2024589
1.2024778
1.2024965
1.2025151
1.2025336
1.2025521
1.2025707
1.2025895
1.2026086
1.2026281
1.202648
1.2026685
1.2026896
1.2027115
1.2027342
1.2027578
1.2027824
1.2028081
1.2028351
1.2028634
1.2028932
1.2029244
1.2029573
1.2029919
1.2030282
1.203066
1.2031054
1.2031462
1.2031882
1.2032311
1.2032747
1.2033187
1.2033627
1.2034061
1.2034485
1.2034894
1.2035281
1.203564
1.2035967
1.2036254
1.2036497
1.2036688
1.2036823
1.2036897
1.2024793
1.2023815
1.2022909
1.2022074
1.2021307
1.2020605
1.2019965
1.2019387
1.2018868
1.2018405
1.2017996
1.2017638
1.201733
1.2017068
1.2016848
1.2016668
1.2016528
1.2016423
1.2016349
1.2016308
1.2016302
1.201632
1.2016372
1.2016423
1.2016518
1.201664
1.2016743
1.2016889
1.2017055
1.2017223
1.20174
1.2017577
1.2017771
1.2017974
1.2018178
1.201839
1.2018604
1.2018825
1.201905
1.2019277
1.2019507
1.201974
1.2019974
1.2020207
1.2020442
1.2020677
1.2020911
1.2021143
1.2021374
1.2021603
1.202183
1.2022055
1.2022278
1.2022498
1.2022715
1.202293
1.2023141
1.202335
1.2023555
1.2023757
1.2023956
1.2024151
1.2024343
1.2024532
1.2024718
1.2024902
1.2025085
1.2025266
1.2025447
1.2025628
1.2025811
1.2025996
1.2026184
1.2026376
1.2026573
1.2026776
1.2026985
1.2027202
1.2027427
1.2027661
1.2027906
1.2028162
1.2028431
1.2028713
1.202901
1.2029322
1.2029651
1.2029996
1.2030358
1.2030736
1.203113
1.2031538
1.2031958
1.2032387
1.2032823
1.2033263
1.2033702
1.2034137
1.2034562
1.203497
1.2035358
1.2035717
1.2036044
1.2036331
1.2036574
1.2036765
1.2036901
1.2036975
1.2027021
1.2025995
1.2025038
1.2024149
1.2023325
1.2022565
1.2021867
1.2021229
1.2020649
1.2020126
1.2019658
1.2019241
1.2018873
1.2018551
1.2018274
1.201804
1.2017844
1.2017684
1.2017559
1.2017471
1.2017414
1.2017384
1.2017379
1.2017403
1.2017462
1.201752
1.2017581
1.201769
1.2017821
1.2017953
1.2018095
1.2018235
1.2018397
1.2018569
1.2018743
1.2018927
1.2019114
1.201931
1.2019511
1.2019715
1.2019924
1.2020136
1.202035
1.2020565
1.2020783
1.2021001
1.2021219
1.2021436
1.2021653
1.2021868
1.2022083
1.2022296
1.2022507
1.2022716
1.2022923
1.2023128
1.202333
1.202353
1.2023727
1.2023921
1.2024113
1.2024301
1.2024487
1.202467
1.202485
1.2025029
1.2025207
1.2025383
1.202556
1.2025738
1.2025917
1.2026099
1.2026284
1.2026473
1.2026668
1.2026868
1.2027075
1.202729
1.2027514
1.2027746
1.202799
1.2028245
1.2028513
1.2028794
1.202909
1.2029401
1.2029729
1.2030074
1.2030436
1.2030814
1.2031207
1.2031615
1.2032034
1.2032464
1.20329
1.203334
1.203378
1.2034214
1.2034639
1.2035048
1.2035435
1.2035795
1.2036122
1.203641
1.2036653
1.2036845
1.203698
1.2037055
1.2029133
1.2028068
1.2027069
1.2026134
1.2025263
1.2024453
1.2023704
1.2023013
1.2022381
1.2021804
1.2021281
1.2020809
1.2020386
1.2020011
1.201968
1.2019392
1.2019145
1.2018935
1.2018763
1.2018624
1.2018518
1.2018443
1.2018397
1.2018376
1.2018381
1.2018411
1.201844
1.2018496
1.2018584
1.2018683
1.2018794
1.2018895
1.2019027
1.201917
1.2019314
1.201947
1.2019629
1.20198
1.2019978
1.2020159
1.2020346
1.2020538
1.2020733
1.2020929
1.2021129
1.202133
1.2021532
1.2021734
1.2021937
1.2022139
1.202234
1.2022541
1.202274
1.2022939
1.2023135
1.202333
1.2023523
1.2023714
1.2023903
1.2024089
1.2024273
1.2024454
1.2024633
1.202481
1.2024985
1.2025159
1.2025331
1.2025503
1.2025676
1.202585
1.2026025
1.2026204
1.2026386
1.2026572
1.2026764
1.2026963
1.2027168
1.202738
1.2027602
1.2027833
1.2028075
1.2028329
1.2028596
1.2028876
1.2029171
1.2029482
1.2029809
1.2030154
1.2030515
1.2030893
1.2031286
1.2031693
1.2032113
1.2032542
1.2032978
1.2033418
1.2033858
1.2034293
1.2034718
1.2035127
1.2035515
1.2035875
1.2036202
1.203649
1.2036734
1.2036925
1.2037061
1.2037135
1.2031127
1.2030034
1.2029001
1.202803
1.2027119
1.2026267
1.2025474
1.2024738
1.2024059
1.2023434
1.2022862
1.202234
1.2021868
1.2021442
1.2021062
1.2020725
1.2020429
1.2020172
1.2019952
1.2019768
1.2019617
1.2019498
1.2019407
1.2019345
1.2019308
1.201929
1.2019289
1.201932
1.2019352
1.2019414
1.2019493
1.2019556
1.2019659
1.2019776
1.201989
1.2020018
1.202015
1.2020296
1.2020451
1.2020609
1.2020775
1.2020946
1.2021122
1.2021298
1.2021481
1.2021665
1.2021851
1.2022038
1.2022226
1.2022414
1.2022602
1.2022791
1.2022978
1.2023166
1.2023352
1.2023537
1.202372
1.2023902
1.2024082
1.202426
1.2024437
1.2024611
1.2024783
1.2024954
1.2025123
1.2025291
1.2025459
1.2025626
1.2025794
1.2025964
1.2026136
1.2026311
1.202649
1.2026674
1.2026863
1.2027059
1.2027262
1.2027473
1.2027692
1.2027922
1.2028163
1.2028415
1.2028681
1.202896
1.2029254
1.2029564
1.2029891
1.2030235
1.2030596
1.2030973
1.2031366
1.2031773
1.2032193
1.2032622
1.2033058
1.2033498
1.2033938
1.2034373
1.2034798
1.2035207
1.2035595
1.2035956
1.2036283
1.2036571
1.2036815
1.2037007
1.2037143
1.2037217
1.2033005
1.2031891
1.2030834
1.2029835
1.2028892
1.2028006
1.2027176
1.2026402
1.2025681
1.2025014
1.2024398
1.2023832
1.2023315
1.2022844
1.2022418
1.2022036
1.2021694
1.2021393
1.2021128
1.20209
1.2020706
1.2020544
1.2020413
1.2020309
1.202023
1.2020174
1.2020138
1.2020123
1.2020128
1.2020159
1.202019
1.202022
1.2020295
1.2020384
1.2020469
1.2020571
1.2020676
1.2020798
1.2020929
1.2021065
1.2021208
1.2021359
1.2021516
1.2021673
1.2021838
1.2022006
1.2022175
1.2022347
1.202252
1.2022694
1.2022869
1.2023045
1.2023221
1.2023397
1.2023572
1.2023747
1.2023921
1.2024094
1.2024265
1.2024435
1.2024604
1.2024771
1.2024936
1.20251
1.2025263
1.2025426
1.2025589
1.2025751
1.2025915
1.2026081
1.2026249
1.2026421
1.2026597
1.2026778
1.2026964
1.2027157
1.2027358
1.2027567
1.2027784
1.2028012
1.2028251
1.2028503
1.2028767
1.2029045
1.2029339
1.2029648
1.2029974
1.2030318
1.2030678
1.2031055
1.2031448
1.2031855
1.2032274
1.2032703
1.2033139
1.2033579
1.2034019
1.2034454
1.2034879
1.2035289
1.2035677
1.2036038
1.2036366
1.2036654
1.2036898
1.203709
1.2037226
1.2037301
1.2034769
1.2033643
1.2032569
1.2031549
1.2030582
1.2029669
1.2028808
1.2028001
1.2027245
1.2026541
1.2025887
1.2025282
1.2024724
1.2024212
1.2023745
1.2023321
1.2022938
1.2022594
1.2022288
1.2022019
1.2021784
1.2021582
1.202141
1.2021266
1.2021148
1.2021053
1.2020981
1.2020931
1.20209
1.2020889
1.2020894
1.2020901
1.2020936
1.2020991
1.2021051
1.2021129
1.2021206
1.2021303
1.2021413
1.2021526
1.2021648
1.2021778
1.2021915
1.2022053
1.20222
1.2022351
1.2022504
1.202266
1.2022819
1.2022979
1.2023141
1.2023304
1.2023468
1.2023632
1.2023797
1.2023961
1.2024125
1.2024289
1.2024452
1.2024613
1.2024774
1.2024933
1.2025092
1.202525
1.2025407
1.2025564
1.2025721
1.2025879
1.2026039
1.20262
1.2026365
1.2026533
1.2026705
1.2026883
1.2027067
1.2027258
1.2027456
1.2027663
1.2027878
1.2028105
1.2028342
1.2028592
1.2028855
1.2029132
1.2029425
1.2029734
1.2030059
1.2030402
1.2030762
1.2031139
1.2031531
1.2031938
1.2032356
1.2032785
1.2033221
1.2033661
1.2034102
1.2034537
1.2034962
1.2035372
1.2035761
1.2036122
1.203645
1.2036738
1.2036983
1.2037175
1.2037311
1.2037386
1.2036422
1.2035289
1.2034206
1.2033172
1.2032187
1.2031253
1.2030369
1.2029535
1.202875
1.2028014
1.2027327
1.2026688
1.2026094
1.2025545
1.2025041
1.2024578
1.2024156
1.2023774
1.202343
1.2023122
1.2022848
1.2022607
1.2022397
1.2022215
1.2022059
1.2021928
1.202182
1.2021734
1.2021668
1.2021623
1.2021593
1.2021577
1.2021587
1.2021601
1.2021636
1.2021689
1.2021738
1.2021812
1.2021901
1.2021992
1.2022092
1.2022202
1.2022319
1.2022438
1.2022567
1.2022702
1.2022838
1.2022979
1.2023122
1.2023269
1.2023417
1.2023568
1.2023719
1.2023872
1.2024026
1.202418
1.2024334
1.2024488
1.2024642
1.2024795
1.2024948
1.20251
1.2025251
1.2025402
1.2025553
1.2025705
1.2025857
1.202601
1.2026165
1.2026322
1.2026483
1.2026647
1.2026817
1.2026992
1.2027173
1.202736
1.2027556
1.202776
1.2027974
1.2028199
1.2028435
1.2028683
1.2028945
1.2029221
1.2029513
1.2029821
1.2030146
1.2030488
1.2030847
1.2031224
1.2031616
1.2032022
1.2032441
1.2032869
1.2033305
1.2033745
1.2034186
1.2034621
1.2035047
1.2035457
1.2035846
1.2036207
1.2036535
1.2036824
1.2037069
1.2037261
1.2037397
1.2037472
1.2037965
1.2036834
1.2035746
1.2034705
1.2033709
1.2032759
1.2031857
1.2031001
1.2030193
1.2029432
1.2028716
1.2028047
1.2027422
1.2026841
1.2026303
1.2025806
1.2025349
1.2024931
1.2024551
1.2024207
1.2023897
1.2023619
1.2023372
1.2023154
1.2022962
1.2022796
1.2022653
1.2022533
1.2022434
1.2022355
1.2022295
1.2022252
1.2022227
1.2022219
1.2022232
1.202225
1.2022273
1.2022325
1.2022392
1.2022462
1.202254
1.202263
1.2022728
1.2022828
1.2022939
1.2023057
1.2023177
1.2023302
1.2023431
1.2023563
1.2023698
1.2023835
1.2023975
1.2024116
1.2024258
1.2024402
1.2024546
1.2024691
1.2024835
1.202498
1.2025125
1.2025269
1.2025414
1.2025558
1.2025703
1.2025849
1.2025995
1.2026143
1.2026293
1.2026446
1.2026603
1.2026764
1.202693
1.2027102
1.202728
1.2027465
1.2027658
1.202786
1.2028072
1.2028295
1.2028529
1.2028776
1.2029037
1.2029312
1.2029603
1.202991
1.2030234
1.2030575
1.2030934
1.203131
1.2031702
1.2032108
1.2032526
1.2032955
1.2033391
1.2033831
1.2034271
1.2034707
1.2035133
1.2035543
1.2035932
1.2036294
1.2036622
1.2036911
1.2037156
1.2037348
1.2037485
1.203756
1.2039402
1.2038277
1.2037192
1.2036148
1.2035146
1.2034187
1.2033272
1.2032401
1.2031574
1.2030791
1.2030053
1.2029358
1.2028707
1.2028097
1.2027529
1.2027001
1.2026513
1.2026063
1.202565
1.2025272
1.2024927
1.2024615
1.2024334
1.2024081
1.2023855
1.2023655
1.2023479
1.2023326
1.2023196
1.2023086
1.2022996
1.2022925
1.2022872
1.2022837
1.2022819
1.2022818
1.2022821
1.2022842
1.2022884
1.2022934
1.2022993
1.2023063
1.2023142
1.2023222
1.2023316
1.2023417
1.202352
1.2023629
1.2023743
1.2023861
1.2023982
1.2024107
1.2024234
1.2024364
1.2024495
1.2024628
1.2024762
1.2024897
1.2025033
1.2025169
1.2025305
1.2025442
1.2025579
1.2025717
1.2025855
1.2025995
1.2026136
1.2026279
1.2026425
1.2026573
1.2026726
1.2026883
1.2027046
1.2027214
1.202739
1.2027572
1.2027763
1.2027962
1.2028172
1.2028393
1.2028625
1.2028871
1.202913
1.2029404
1.2029694
1.203
1.2030324
1.2030665
1.2031023
1.2031398
1.203179
1.2032195
1.2032613
1.2033042
1.2033478
1.2033918
1.2034358
1.2034794
1.203522
1.2035631
1.203602
1.2036382
1.2036711
1.2037
1.2037245
1.2037437
1.2037574
1.2037649
1.2040737
1.2039623
1.2038545
1.2037503
1.2036501
1.2035537
1.2034614
1.2033732
1.2032891
1.2032093
1.2031336
1.203062
1.2029946
1.2029312
1.2028719
1.2028164
1.2027647
1.2027167
1.2026723
1.2026314
1.2025938
1.2025594
1.202528
1.2024995
1.2024736
1.2024504
1.2024297
1.2024113
1.2023952
1.2023813
1.2023695
1.2023596
1.2023516
1.2023455
1.2023412
1.2023382
1.2023366
1.2023371
1.2023382
1.2023409
1.2023448
1.2023498
1.2023559
1.2023619
1.2023696
1.2023781
1.2023868
1.2023961
1.202406
1.2024164
1.2024272
1.2024383
1.2024498
1.2024616
1.2024736
1.2024858
1.2024982
1.2025107
1.2025233
1.2025361
1.2025489
1.2025618
1.2025748
1.2025879
1.2026011
1.2026145
1.202628
1.2026418
1.2026559
1.2026703
1.2026852
1.2027005
1.2027164
1.2027329
1.2027501
1.2027681
1.2027869
1.2028066
1.2028274
1.2028492
1.2028723
1.2028967
1.2029225
1.2029498
1.2029787
1.2030093
1.2030415
1.2030756
1.2031113
1.2031488
1.2031879
1.2032284
1.2032702
1.2033131
1.2033566
1.2034007
1.2034447
1.2034883
1.2035309
1.203572
1.2036109
1.2036471
1.20368
1.203709
1.2037335
1.2037528
1.2037665
1.203774
1.2041972
1.2040873
1.2039806
1.2038772
1.2037773
1.203681
1.2035883
1.2034995
1.2034146
1.2033335
1.2032564
1.2031833
1.203114
1.2030485
1.2029869
1.2029291
1.2028749
1.2028242
1.2027771
1.2027333
1.2026928
1.2026554
1.2026209
1.2025894
1.2025605
1.2025343
1.2025106
1.2024893
1.2024703
1.2024536
1.202439
1.2024265
1.2024159
1.2024073
1.2024004
1.2023951
1.2023914
1.2023891
1.2023884
1.2023893
1.2023906
1.2023937
1.202398
1.202402
1.202408
1.2024149
1.202422
1.2024298
1.2024381
1.2024471
1.2024565
1.2024664
1.2024766
1.2024872
1.202498
1.2025092
1.2025205
1.2025321
1.2025438
1.2025556
1.2025676
1.2025797
1.202592
1.2026044
1.2026169
1.2026297
1.2026427
1.202656
1.2026696
1.2026835
1.202698
1.2027129
1.2027285
1.2027447
1.2027616
1.2027792
1.2027978
1.2028172
1.2028377
1.2028594
1.2028823
1.2029066
1.2029322
1.2029594
1.2029882
1.2030187
1.2030509
1.2030848
1.2031205
1.203158
1.203197
1.2032375
1.2032793
1.2033221
1.2033657
1.2034097
1.2034537
1.2034973
1.2035399
1.203581
1.20362
1.2036562
1.2036892
1.2037182
1.2037427
1.203762
1.2037757
1.2037832
1.2043111
1.2042032
1.204098
1.2039957
1.2038965
1.2038007
1.2037081
1.2036191
1.2035337
1.2034519
1.2033738
1.2032994
1.2032286
1.2031615
1.203098
1.2030381
1.2029816
1.2029287
1.202879
1.2028327
1.2027894
1.2027493
1.2027121
1.2026777
1.202646
1.202617
1.2025905
1.2025664
1.2025448
1.2025254
1.2025082
1.2024931
1.20248
1.2024689
1.2024596
1.202452
1.2024461
1.2024417
1.2024388
1.2024373
1.2024371
1.2024384
1.2024402
1.2024424
1.2024467
1.2024519
1.2024575
1.2024637
1.2024706
1.2024782
1.2024862
1.2024948
1.2025037
1.2025131
1.2025228
1.2025329
1.2025432
1.2025538
1.2025645
1.2025755
1.2025867
1.2025979
1.2026095
1.2026212
1.2026331
1.2026453
1.2026577
1.2026704
1.2026835
1.202697
1.202711
1.2027256
1.2027408
1.2027566
1.2027732
1.2027906
1.2028088
1.202828
1.2028483
1.2028698
1.2028925
1.2029166
1.2029421
1.2029692
1.2029979
1.2030283
1.2030604
1.2030943
1.2031299
1.2031673
1.2032063
1.2032467
1.2032885
1.2033313
1.2033748
1.2034188
1.2034629
1.2035065
1.2035491
1.2035902
1.2036292
1.2036655
1.2036985
1.2037275
1.203752
1.2037714
1.2037851
1.2037926
1.2044159
1.2043102
1.2042068
1.204106
1.204008
1.2039129
1.2038209
1.2037321
1.2036466
1.2035645
1.2034857
1.2034104
1.2033385
1.20327
1.203205
1.2031433
1.2030849
1.2030298
1.202978
1.2029293
1.2028837
1.202841
1.2028012
1.2027642
1.20273
1.2026983
1.2026692
1.2026426
1.2026184