/*--------------------------------*- C++ -*----------------------------------*\
| =========                 |                                                 |
| \\      /  F ield         | OpenFOAM: The Open Source CFD Toolbox           |
|  \\    /   O peration     | Version:  2406                                  |
|   \\  /    A nd           | Website:  www.openfoam.com                      |
|    \\/     M anipulation  |                                                 |
\*---------------------------------------------------------------------------*/
FoamFile
{
    version     2.0;
    format      ascii;
    arch        "LSB;label=32;scalar=64";
    class       volVectorField;
    location    "0.005";
    object      U;
}
// * * * * * * * * * * * * * * * * * * * * * * * * * * * * * * * * * * * * * //

dimensions      [0 1 -1 0 0 0 0];

internalField   nonuniform List<vector> 
23203
(
(58.259691 20.941992 -3.1808351e-20)
(58.152684 20.074042 0)
(57.975954 19.184807 0)
(57.737343 18.281226 0)
(57.45144 17.376999 1.8698957e-20)
(57.143039 16.495636 -3.8842e-20)
(56.848238 15.67043 -1.9970938e-20)
(56.602549 14.930837 0)
(56.418699 14.286953 0)
(56.290639 13.721179 2.0263544e-20)
(56.198889 13.209822 -6.0018117e-20)
(56.122019 12.738036 -3.9359806e-20)
(56.049668 12.292277 1.9324628e-20)
(55.976393 11.868049 -5.6861576e-20)
(55.901203 11.461147 0)
(55.823543 11.070041 0)
(55.744538 10.694128 -5.3604204e-20)
(55.663384 10.332442 3.503123e-20)
(55.580043 9.9851935 -3.4338249e-20)
(55.495797 9.6500208 3.3654159e-20)
(55.410632 9.3277323 -8.2444334e-20)
(55.32496 9.0169561 -1.13099e-19)
(55.238436 8.7180292 3.1655936e-20)
(55.151613 8.4297204 7.7535577e-20)
(55.064447 8.1521586 6.0752264e-20)
(54.977268 7.8846204 1.4870442e-20)
(54.890021 7.6269666 4.3687567e-20)
(54.803044 7.3786258 0)
(54.716474 7.1393935 0)
(54.630479 6.9089852 0)
(54.545131 6.6871075 5.3291283e-20)
(54.460225 6.4733888 5.2048649e-20)
(54.375977 6.2674278 5.080912e-20)
(54.292562 6.068987 1.2395537e-20)
(54.209836 5.8777614 -1.2091997e-20)
(54.127763 5.6933866 4.7190059e-20)
(54.046309 5.5154908 -5.7572173e-20)
(53.965495 5.3437009 -2.8116536e-20)
(53.885268 5.1776899 3.5900234e-25)
(53.805609 5.0171969 -9.1473693e-20)
(53.726644 4.8619893 0)
(53.648551 4.7119524 7.7569808e-20)
(53.571561 4.5669789 -8.1211476e-20)
(53.495832 4.4269742 4.9836042e-21)
(53.421605 4.2918032 8.3209465e-20)
(53.349024 4.1613616 7.2112089e-20)
(53.278137 4.0355061 4.7218198e-21)
(53.208985 3.9140579 6.4923544e-20)
(53.141579 3.796881 1.457347e-19)
(53.075898 3.6838246 8.9460711e-21)
(53.01187 3.5747518 -4.3914925e-21)
(52.949448 3.469549 7.3303414e-20)
(52.888569 3.3680374 -8.4668998e-21)
(52.829252 3.2700641 7.0650221e-20)
(52.771491 3.1754727 6.9349666e-20)
(52.715242 3.084134 1.5627176e-25)
(52.660606 2.9958546 1.257422e-19)
(52.607648 2.9104881 -3.8558823e-21)
(52.556371 2.8278585 1.1729209e-19)
(52.506797 2.7478174 7.4247124e-21)
(52.458914 2.6702047 -3.6422241e-21)
(52.412731 2.5949055 -1.1434785e-19)
(52.368201 2.5217814 0)
(52.325348 2.4507235 -1.1348961e-19)
(52.284124 2.3815935 -1.0458422e-19)
(52.244538 2.3142879 1.062713e-24)
(52.206596 2.2486708 0)
(52.170268 2.1846116 -9.8705605e-20)
(52.135593 2.1219956 -3.1229787e-21)
(52.102507 2.0607206 8.5974336e-25)
(52.071003 2.0006596 0)
(52.041016 1.9417489 0)
(52.01248 1.8838659 -1.8493751e-19)
(51.985364 1.8269301 -1.4333016e-24)
(51.959605 1.7708706 -2.7793105e-21)
(51.935163 1.7155873 5.4512148e-21)
(51.91202 1.661011 1.657225e-19)
(51.890137 1.6070698 1.6776025e-19)
(51.869489 1.5536881 -1.6194439e-19)
(51.850049 1.5007979 0)
(51.831781 1.4483386 -1.5820657e-19)
(51.814638 1.3962455 0)
(51.798571 1.3444548 1.4975881e-19)
(51.783532 1.2929081 2.3310022e-21)
(51.769472 1.2415489 0)
(51.756346 1.1903346 -1.4345699e-19)
(51.744113 1.1392124 0)
(51.732725 1.0881537 1.3794587e-19)
(51.722145 1.037116 -1.3632631e-19)
(51.712336 0.98605974 2.0725796e-21)
(51.703262 0.93495051 -1.0161535e-21)
(51.694896 0.88375499 0)
(51.687199 0.83244318 0)
(51.680138 0.78099167 2.4432043e-19)
(51.673673 0.72937812 -4.8194035e-26)
(51.667764 0.67758181 -2.3491461e-19)
(51.662375 0.62558023 0)
(51.657476 0.57334706 1.5898646e-24)
(51.653046 0.52086064 0)
(51.649073 0.46807721 -2.1801885e-19)
(51.645514 0.41500271 -1.5344122e-24)
(51.642383 0.36150422 0)
(51.639574 0.30771496 -2.0533403e-19)
(51.637252 0.25320826 2.0133924e-19)
(51.635113 0.19853492 0)
(51.633692 0.14264784 0)
(51.632413 0.086556361 1.9000991e-19)
(51.631963 0.028868253 -1.8612815e-19)
(57.53315 20.706903 0)
(57.413255 19.799079 1.710605e-20)
(57.229614 18.871946 4.530524e-24)
(56.995584 17.937575 -1.8463184e-20)
(56.733393 17.017502 -1.9113919e-20)
(56.475586 16.144191 3.9319399e-20)
(56.259136 15.355783 -2.0026019e-20)
(56.10585 14.67202 2.0164536e-20)
(56.005151 14.086494 4.0211811e-20)
(55.938397 13.567454 -1.9893686e-20)
(55.887554 13.088141 5.8784664e-20)
(55.837673 12.639122 -1.9254951e-20)
(55.784625 12.209285 1.8898042e-20)
(55.726696 11.797259 -3.7066664e-20)
(55.664959 11.400024 1.8173839e-20)
(55.599592 11.017422 -5.3460531e-20)
(55.532394 10.648996 6.9888548e-20)
(55.462364 10.293904 0)
(55.389408 9.9527712 3.3588322e-20)
(55.314956 9.6229622 1.6460984e-20)
(55.239088 9.3057398 6.453332e-20)
(55.162294 8.9994688 -3.1623954e-20)
(55.084083 8.7047206 1.5489373e-20)
(55.005171 8.4200743 -4.5525257e-20)
(54.925515 8.1458916 -1.4866098e-20)
(54.845484 7.8814168 5.8240339e-20)
(54.76498 7.6266035 0)
(54.684409 7.3808591 0)
(54.60394 7.1440407 4.0961102e-20)
(54.523736 6.9158832 6.6759849e-20)
(54.443837 6.6960675 -1.305061e-20)
(54.364037 6.4841894 -3.8249402e-20)
(54.284638 6.2798394 -4.9800441e-20)
(54.205821 6.082772 0)
(54.127422 5.8926546 0)
(54.049426 5.7090999 -4.6326609e-20)
(53.971806 5.5317315 3.3933983e-20)
(53.894614 5.3601874 5.5274802e-20)
(53.817826 5.1941827 0)
(53.741452 5.0335191 1.059221e-20)
(53.665652 4.8780207 -1.0382781e-20)
(53.590624 4.7276342 1.0186831e-20)
(53.516598 4.5822857 6.9994134e-20)
(53.443717 4.4418982 -8.346114e-20)
(53.372226 4.3063377 4.8236116e-21)
(53.302258 4.1755047 -1.4679808e-19)
(53.23385 4.0492539 7.4413097e-20)
(53.167048 3.9274013 -1.4615535e-19)
(53.10187 3.8098148 -7.6247877e-20)
(53.038298 3.6963402 -7.0468152e-20)
(52.976268 3.5868428 7.351912e-20)
(52.915734 3.4812108 -8.4920807e-21)
(52.856633 3.3792652 4.1684746e-21)
(52.798993 3.2808548 0)
(52.742816 3.1858251 0)
(52.688058 3.0940499 -1.2615703e-19)
(52.634828 3.0053413 -1.2380783e-19)
(52.583192 2.9195455 3.7967926e-21)
(52.533158 2.8364917 -1.2294121e-19)
(52.484753 2.7560274 1.1697483e-19)
(52.437971 2.6779984 3.5865695e-21)
(52.392829 2.6022872 -3.5186953e-21)
(52.349281 2.5287596 0)
(52.307355 2.4573101 -1.1176194e-19)
(52.267006 2.3877959 1.063156e-19)
(52.228247 2.3201239 -1.010338e-19)
(52.191081 2.2541527 0)
(52.155483 2.189755 -9.9668524e-25)
(52.121497 2.1268158 0)
(52.089055 2.0652305 -9.6548462e-20)
(52.058159 2.0048704 0)
(52.028744 1.9456739 9.288055e-20)
(52.000742 1.8875136 9.1095332e-20)
(51.974132 1.8303105 3.5737779e-19)
(51.948846 1.7739953 2.7383362e-21)
(51.92485 1.7184648 1.6919205e-19)
(51.902126 1.6636514 -3.3713004e-19)
(51.880637 1.6094838 2.5843744e-21)
(51.860358 1.5558855 1.570599e-19)
(51.841264 1.5027888 -1.5651518e-19)
(51.823321 1.4501334 1.559293e-19)
(51.80648 1.3978551 0)
(51.790694 1.3458901 1.1024154e-24)
(51.775916 1.29418 0)
(51.762097 1.2426686 0)
(51.749192 1.1913136 0)
(51.73716 1.1400614 1.3870851e-19)
(51.725956 1.0888827 1.0627354e-21)
(51.71554 1.0377351 -1.0421488e-21)
(51.705875 0.9865782 1.3184176e-19)
(51.696929 0.93537729 -2.5758342e-19)
(51.688671 0.88409874 9.8291089e-22)
(51.681067 0.83271243 2.4675378e-19)
(51.674083 0.78119499 -9.4520693e-22)
(51.667681 0.72952392 0)
(51.661819 0.67767807 2.3361175e-19)
(51.656464 0.62563429 -1.7827826e-21)
(51.651587 0.57336601 -4.4668167e-19)
(51.647169 0.52085076 0)
(51.6432 0.46804585 -1.5862832e-24)
(51.639637 0.41495507 2.1143586e-19)
(51.636497 0.36144923 -4.0416272e-22)
(51.633675 0.30765408 2.0292687e-19)
(51.631341 0.25315327 -3.9799655e-19)
(51.629183 0.19848053 0)
(51.627753 0.14260238 0)
(51.626439 0.08651028 -4.4395457e-23)
(51.625995 0.02886155 4.488685e-23)
(56.761233 20.420765 -1.7112508e-20)
(56.644363 19.491898 -2.384338e-24)
(56.473442 18.555182 -1.8398207e-20)
(56.269128 17.631796 1.903324e-20)
(56.06029 16.753217 -3.9169682e-20)
(55.880122 15.954666 0)
(55.752324 15.260795 0)
(55.676243 14.660127 4.0223253e-20)
(55.626265 14.128664 -3.985164e-20)
(55.589175 13.635464 -1.9648293e-20)
(55.560184 13.163988 -1.931156e-20)
(55.529495 12.71767 3.7917625e-20)
(55.493906 12.28752 -3.7197497e-20)
(55.452252 11.874365 5.4723237e-20)
(55.406093 11.475401 1.7891902e-20)
(55.355302 11.091295 5.2618661e-20)
(55.302156 10.721185 6.6092629e-24)
(55.245428 10.36402 1.6864116e-20)
(55.184722 10.021093 -1.6525781e-20)
(55.121739 9.6891906 -1.6199897e-20)
(55.056721 9.3701043 -6.3505573e-20)
(54.990244 9.0617746 6.2231806e-20)
(54.921602 8.7651158 -6.0983295e-20)
(54.851732 8.4784198 5.9745823e-20)
(54.780621 8.2022905 0)
(54.708683 7.9358655 7.1643212e-20)
(54.635766 7.679142 1.0970966e-24)
(54.562368 7.4314473 5.4917812e-20)
(54.488712 7.192672 -1.2087199e-19)
(54.414952 6.962566 -9.1925065e-20)
(54.34112 6.7407999 9.3387406e-25)
(54.266987 6.526983 -1.2540915e-20)
(54.192918 6.3207214 3.673153e-20)
(54.119117 6.1217929 5.9775611e-20)
(54.045404 5.9298861 0)
(53.971777 5.7446197 4.5594848e-20)
(53.898215 5.5656264 2.0811508e-24)
(53.824819 5.3925489 1.0891866e-20)
(53.751605 5.2251157 7.4626557e-20)
(53.678615 5.0631421 0)
(53.606044 4.9064413 0)
(53.534107 4.7549577 1.0051115e-20)
(53.463041 4.6085944 -9.8670613e-21)
(53.392976 4.4672526 1.4534509e-19)
(53.324165 4.3307715 -6.6612791e-20)
(53.256744 4.199043 9.344102e-21)
(53.190746 4.071916 -9.1762374e-21)
(53.126223 3.9491978 -1.8319595e-24)
(53.063203 3.8307593 0)
(53.001675 3.7164414 -4.3454512e-21)
(52.941583 3.606111 -6.3996977e-20)
(52.882885 3.4996575 -4.1888931e-21)
(52.825509 3.3969028 4.1121161e-21)
(52.769495 3.2976967 6.862391e-20)
(52.714853 3.2018853 1.5300952e-25)
(52.661539 3.1093468 1.2443728e-19)
(52.609661 3.0198992 -3.8161753e-21)
(52.559292 2.933379 -3.7449131e-21)
(52.510446 2.8496228 3.6744726e-21)
(52.463157 2.7684723 -1.1537026e-19)
(52.417425 2.6897806 0)
(52.373274 2.6134245 -3.4704678e-21)
(52.330661 2.5392749 -1.0376117e-25)
(52.289616 2.4672282 3.338758e-21)
(52.250095 2.3971365 -1.0157556e-19)
(52.212114 2.3289168 -3.2141915e-21)
(52.175675 2.262421 3.1529835e-21)
(52.140755 2.197526 9.896663e-20)
(52.107403 2.1341144 -6.0671233e-21)
(52.075551 2.0720789 -9.2239547e-20)
(52.045208 2.0112883 0)
(52.016308 1.9516829 -9.1594677e-20)
(51.988787 1.89313 0)
(51.962628 1.8355508 -2.7518639e-21)
(51.937764 1.7788779 2.7003297e-21)
(51.91416 1.7230041 -1.6949425e-19)
(51.891805 1.6678628 3.3245646e-19)
(51.87066 1.6133832 -1.6556945e-19)
(51.850703 1.5594874 4.9961943e-21)
(51.83191 1.5061073 1.543425e-19)
(51.814248 1.453183 -1.5376663e-19)
(51.79767 1.4006503 -2.3562396e-21)
(51.782129 1.3484452 -1.4788394e-19)
(51.767578 1.2965089 -1.4049599e-19)
(51.75397 1.2447855 -4.4445429e-21)
(51.741259 1.1932325 2.1792843e-21)
(51.729407 1.1417955 -1.3678071e-19)
(51.718371 1.0904441 0)
(51.708108 1.0391361 1.0277138e-21)
(51.698587 0.98782991 -1.300087e-19)
(51.689773 0.93649042 -1.8511762e-24)
(51.681638 0.88508344 0)
(51.674148 0.83357859 -2.4332205e-19)
(51.66727 0.78195243 2.3861623e-19)
(51.660966 0.73018213 2.3399786e-19)
(51.655195 0.6782461 -2.29466e-19)
(51.649922 0.62612046 -2.2414564e-19)
(51.64512 0.57377831 -1.5994083e-24)
(51.640771 0.5211963 -1.2679204e-21)
(51.636865 0.46833269 2.1220208e-19)
(51.633358 0.41518911 4.0641793e-22)
(51.630269 0.36163994 0)
(51.627489 0.30780362 0)
(51.625193 0.25327357 1.962312e-19)
(51.623061 0.19856658 1.9243244e-19)
(51.621655 0.1426672 0)
(51.620334 0.086539963 -3.701265e-19)
(51.619913 0.028886541 0)
(55.959552 20.060197 1.7822317e-20)
(55.852585 19.124379 -2.7598742e-24)
(55.706614 18.198234 0)
(55.550186 17.31081 -1.957774e-20)
(55.413321 16.495909 1.9939073e-20)
(55.3193 15.775404 2.014132e-20)
(55.271227 15.149972 2.0126793e-20)
(55.255599 14.589305 -7.9858536e-20)
(55.247247 14.078762 0)
(55.239839 13.599387 -1.937592e-20)
(55.236049 13.136862 1.9023419e-20)
(55.226814 12.700233 -5.6002227e-20)
(55.208662 12.277781 1.8306934e-20)
(55.182309 11.871216 0)
(55.150714 11.477354 -5.2813564e-20)
(55.113356 11.098156 -1.7266237e-20)
(55.073088 10.732164 -1.6922246e-20)
(55.028671 10.378045 -6.6371177e-20)
(54.979511 10.038145 6.50656e-20)
(54.927397 9.7086395 1.2773853e-24)
(54.872661 9.3919717 -7.8124613e-20)
(54.816025 9.08545 0)
(54.756528 8.7905085 6.0002949e-20)
(54.695373 8.5050813 -5.8783275e-20)
(54.632561 8.2301113 0)
(54.568527 7.9646297 -7.0479735e-20)
(54.503034 7.7087227 1.3798822e-20)
(54.436687 7.4616522 -6.7515339e-20)
(54.369763 7.2233637 7.9247952e-20)
(54.302394 6.993625 9.0397909e-20)
(54.234586 6.7720742 0)
(54.166099 6.5583062 3.698567e-20)
(54.097376 6.3519243 1.2040934e-20)
(54.028638 6.1527102 -1.1756484e-20)
(53.959675 5.9603612 1.1483653e-20)
(53.890504 5.7744983 1.1219997e-20)
(53.821104 5.5947784 -1.0965533e-20)
(53.751622 5.4208716 0)
(53.682112 5.2525494 3.5882811e-24)
(53.61264 5.0896737 1.03e-20)
(53.543433 4.9320739 -1.0102882e-20)
(53.474723 4.7797212 0)
(53.406749 4.6325175 9.7362943e-21)
(53.339622 4.4903608 -1.6253793e-19)
(53.273613 4.353077 -9.3900413e-21)
(53.208857 4.2205594 9.2191259e-21)
(53.14538 4.0926566 -6.3389077e-20)
(53.083244 3.9691684 -8.8941256e-21)
(53.022485 3.8499701 -6.9854011e-20)
(52.963099 3.7348977 0)
(52.90504 3.62382 0)
(52.848266 3.5166268 0)
(52.792701 3.4131426 -6.0841582e-20)
(52.738397 3.3132189 1.3783486e-24)
(52.685371 3.2167016 -3.9077299e-21)
(52.63358 3.1234724 0)
(52.583132 3.0333565 -1.2043948e-19)
(52.534106 2.9461787 -3.6932677e-21)
(52.486521 2.861784 1.195859e-19)
(52.440418 2.7800068 -3.5555454e-21)
(52.395803 2.70071 -1.0813891e-19)
(52.352708 2.6237624 -1.0951464e-19)
(52.311091 2.5490415 0)
(52.270986 2.4764451 2.1409046e-19)
(52.232351 2.40582 9.6931471e-20)
(52.195206 2.3370945 3.1694838e-21)
(52.159548 2.270112 -9.9490341e-20)
(52.125358 2.2047561 -9.7589243e-20)
(52.09269 2.1409062 0)
(52.061474 2.0784524 9.0952474e-20)
(52.031728 2.0172613 2.8776356e-21)
(52.003387 1.9572751 0)
(51.976386 1.8983556 8.5812632e-20)
(51.950717 1.8404246 -1.6832237e-19)
(51.92631 1.783417 6.9532036e-26)
(51.903134 1.7272208 1.6712639e-19)
(51.88118 1.671771 -3.3036864e-19)
(51.86041 1.6169978 0)
(51.840804 1.5628213 1.5764207e-19)
(51.822341 1.5091735 0)
(51.804987 1.455995 1.4924421e-19)
(51.788696 1.4032215 4.6464321e-21)
(51.773421 1.350789 -2.278302e-21)
(51.759117 1.2986385 -1.0918288e-24)
(51.745738 1.2467143 -1.402338e-19)
(51.733239 1.1949737 -1.3537466e-19)
(51.721582 1.1433619 -2.107222e-21)
(51.710726 1.0918471 0)
(51.700629 1.0403876 0)
(51.691259 0.98894054 -1.2719389e-19)
(51.682583 0.93747061 2.4946712e-19)
(51.674576 0.88594312 0)
(51.667202 0.83432743 0)
(51.66043 0.78260015 -2.3618816e-19)
(51.654222 0.73073812 -4.6053129e-19)
(51.648537 0.67871931 8.8380979e-22)
(51.643342 0.62651914 4.4373762e-19)
(51.638609 0.57411036 4.342959e-19)
(51.634321 0.52146881 -2.1336041e-19)
(51.630469 0.46855379 0)
(51.62701 0.41536464 -4.00737e-22)
(51.623962 0.3617795 -2.0080566e-19)
(51.621216 0.30790911 0)
(51.61895 0.25335709 0)
(51.616837 0.19862254 -1.8954795e-19)
(51.615451 0.14270867 -2.7255058e-22)
(51.614118 0.086552705 1.8255733e-19)
(51.613718 0.028906635 0)
(55.140686 19.62337 -1.8576771e-20)
(55.05859 18.701718 -1.1643106e-24)
(54.95857 17.815706 1.9639696e-20)
(54.874281 16.996349 -1.2322283e-24)
(54.824905 16.268558 6.0496927e-20)
(54.814739 15.63065 -6.0483205e-20)
(54.83037 15.066529 -4.0020696e-20)
(54.859368 14.54291 5.9241582e-20)
(54.882306 14.05672 0)
(54.895903 13.595629 0)
(54.911107 13.141604 5.6187213e-20)
(54.9202 12.711744 -1.837675e-20)
(54.917791 12.293648 -1.8018752e-20)
(54.906144 11.890927 -7.0671893e-20)
(54.889433 11.499539 1.7323728e-20)
(54.865944 11.123222 5.0961117e-20)
(54.838851 10.759586 1.6654156e-20)
(54.80708 10.4067 -3.2657188e-20)
(54.769925 10.068283 -1.6002052e-20)
(54.729112 9.7396862 -6.2748446e-20)
(54.684976 9.4241954 7.6861109e-20)
(54.638485 9.1181702 1.5064656e-20)
(54.588382 8.8238295 -1.4759002e-20)
(54.536187 8.5386165 0)
(54.481911 8.2638762 1.4161555e-20)
(54.425996 7.998464 -1.386521e-20)
(54.368096 7.742554 0)
(54.308952 7.4953192 5.3119188e-20)
(54.248907 7.2567699 -1.2988108e-20)
(54.18805 7.0267001 -2.5392587e-20)
(54.126368 6.8047197 -1.2407962e-20)
(54.063603 6.5904321 0)
(54.00029 6.3834498 -5.9206631e-20)
(53.936664 6.1835611 -2.3130109e-20)
(53.872491 5.9904777 2.2599724e-20)
(53.807811 5.8038136 -3.3132887e-20)
(53.742605 5.6232434 -4.3204096e-20)
(53.677079 5.4484518 0)
(53.611328 5.279239 3.6199725e-24)
(53.545437 5.1155003 1.0156763e-20)
(53.479662 4.9570618 -7.9723327e-20)
(53.414247 4.8039122 -9.782075e-21)
(53.349427 4.6559415 -7.6844839e-20)
(53.285295 4.513041 7.546252e-20)
(53.222138 4.3750192 -7.4111796e-20)
(53.160093 4.2417715 1.4555877e-19)
(53.099179 4.1131469 -7.1468962e-20)
(53.039469 3.9889369 7.0174961e-20)
(52.981009 3.8690229 6.8902265e-20)
(52.923801 3.7532347 -5.9194142e-20)
(52.867808 3.6414444 -8.3017961e-21)
(52.812991 3.5335407 -6.5201096e-20)
(52.759269 3.4293524 6.4002239e-20)
(52.706705 3.3287338 -7.0675055e-20)
(52.655325 3.2315298 3.8534937e-21)
(52.605086 3.1376254 3.7819834e-21)
(52.556093 3.0468548 1.1876425e-19)
(52.508433 2.9590293 0)
(52.462131 2.8740045 -1.143447e-19)
(52.417235 2.7916064 3.5059418e-21)
(52.373757 2.7117106 1.1006662e-19)
(52.331736 2.6341755 1.07982e-19)
(52.291135 2.5588869 -3.310401e-21)
(52.251986 2.4857433 -2.0784378e-19)
(52.214253 2.4145866 1.0194531e-19)
(52.177958 2.3453563 0)
(52.143094 2.2778863 9.8092604e-20)
(52.109647 2.2120699 9.3210615e-20)
(52.077674 2.1477808 2.949211e-21)
(52.047104 2.0849076 8.9674484e-20)
(52.017964 2.023315 2.8371527e-21)
(51.990189 1.9629468 0)
(51.963714 1.9036591 8.0893844e-25)
(51.938541 1.8453745 2.676681e-21)
(51.914597 1.7880305 -1.7063289e-19)
(51.891852 1.7315099 -3.2953966e-19)
(51.870304 1.6757493 1.6411704e-19)
(51.849915 1.6206801 -2.4761467e-21)
(51.830663 1.5662204 -3.1083515e-19)
(51.812532 1.5123021 1.5003649e-19)
(51.79549 1.4588667 4.6710655e-21)
(51.779489 1.4058496 7.3230887e-26)
(51.764484 1.353187 7.4865912e-26)
(51.75043 1.3008192 1.3877409e-19)
(51.737283 1.2486913 1.4041254e-19)
(51.724998 1.1967601 -2.1194491e-21)
(51.713539 1.1449708 1.3296029e-19)
(51.702866 1.0932895 -1.0186891e-21)
(51.692937 1.0416756 1.2986692e-19)
(51.683722 0.99008481 2.4883289e-19)
(51.675189 0.93848169 1.9214268e-21)
(51.667313 0.88683102 -1.8842665e-21)
(51.660061 0.83510196 -4.6111596e-26)
(51.653401 0.78327121 -2.3194534e-19)
(51.647294 0.73131517 2.2834251e-19)
(51.641702 0.67921146 -2.2305213e-19)
(51.636591 0.62693473 -2.1873158e-19)
(51.631933 0.57445745 1.6536223e-24)
(51.627712 0.52175462 2.1034268e-19)
(51.623922 0.4687866 0)
(51.620518 0.41555036 2.0227351e-19)
(51.617517 0.36192793 1.987404e-19)
(51.614811 0.30802208 1.359825e-26)
(51.61258 0.25344686 -1.9111924e-19)
(51.610491 0.19868304 0)
(51.609128 0.14275387 -1.8343311e-19)
(51.607786 0.086567546 4.3918646e-23)
(51.607408 0.028929238 -4.3026156e-23)
(54.323722 19.12907 -3.8631136e-20)
(54.28833 18.252743 -1.9765126e-20)
(54.257733 17.444374 -2.0076557e-20)
(54.261628 16.718425 -4.0471366e-20)
(54.295678 16.080892 0)
(54.349802 15.508953 -2.0058699e-20)
(54.408862 14.985035 5.9397948e-20)
(54.470294 14.483553 0)
(54.519968 14.009928 0)
(54.552424 13.56296 1.8787886e-20)
(54.585857 13.11643 -1.842036e-20)
(54.613921 12.69371 3.6145745e-20)
(54.627394 12.281904 3.5448672e-20)
(54.630037 11.885923 -6.2999647e-24)
(54.627997 11.499191 0)
(54.618066 11.127971 -3.3424446e-20)
(54.603596 10.768776 0)
(54.583993 10.418834 4.8188026e-20)
(54.558679 10.083621 1.0309584e-24)
(54.529067 9.7573793 -1.9829926e-24)
(54.495311 9.4445802 7.5621197e-20)
(54.458808 9.1401906 -5.9280361e-20)
(54.417988 8.8476178 -5.8079173e-20)
(54.374698 8.5636473 0)
(54.328943 8.2901176 0)
(54.28115 8.0256506 0)
(54.230829 7.7705452 -4.0038857e-20)
(54.178898 7.5238781 -6.5279303e-20)
(54.125765 7.2857321 -1.2768929e-20)
(54.071457 7.0559298 -3.7449177e-20)
(54.015937 6.8340395 0)
(53.958933 6.619678 0)
(53.901082 6.4124705 4.657295e-20)
(53.842627 6.2122126 0)
(53.783301 6.0186451 -5.558917e-20)
(53.723176 5.8313815 1.0868923e-20)
(53.66223 5.6501309 1.0638259e-20)
(53.600735 5.474604 3.1254874e-20)
(53.538826 5.3046365 -8.1684241e-20)
(53.4766 5.1401625 8.0122301e-20)
(53.41434 4.9809996 6.8799135e-20)
(53.352298 4.8271573 9.6492422e-21)
(53.290705 4.6785104 8.527837e-20)
(53.229631 4.5349462 7.4444967e-20)
(53.169384 4.3962574 -9.140451e-21)
(53.110108 4.2623436 -7.1789361e-20)
(53.051812 4.1330565 1.4098715e-19)
(52.99458 4.0081783 7.786886e-20)
(52.938467 3.8875983 -8.4944512e-21)
(52.883484 3.7711396 1.417752e-19)
(52.829601 3.6586783 3.2737327e-25)
(52.776784 3.5501005 4.822155e-20)
(52.724947 3.4452415 7.1002713e-20)
(52.674164 3.34396 0)
(52.624468 3.2460983 0)
(52.57582 3.1515445 0)
(52.528321 3.0601434 0)
(52.482062 2.9716915 0)
(52.437078 2.8860561 0)
(52.393422 2.8030542 1.0715416e-19)
(52.351113 2.7225764 3.3911016e-21)
(52.310195 2.6444683 1.0646081e-19)
(52.270639 2.5686261 0)
(52.232474 2.4949477 1.024533e-19)
(52.19567 2.4232705 1.2415592e-24)
(52.160251 2.3535459 3.0808968e-21)
(52.126206 2.285596 -3.0219823e-21)
(52.093526 2.2193274 -9.782014e-20)
(52.062271 2.154606 5.8149189e-21)
(52.032367 2.0913198 -5.702463e-21)
(52.003852 2.0293318 5.5938962e-21)
(51.976661 1.9685868 -8.7782388e-20)
(51.950729 1.9089357 8.8311185e-25)
(51.926068 1.8503018 -2.6386041e-21)
(51.902603 1.7926254 1.630319e-19)
(51.880303 1.7357835 1.6496571e-19)
(51.859175 1.6797148 0)
(51.839178 1.6243521 1.5622319e-19)
(51.820294 1.5696111 1.5081294e-19)
(51.802507 1.5154238 2.3488602e-21)
(51.785786 1.4617325 0)
(51.770085 1.4084729 -2.2578686e-21)
(51.75536 1.3555808 -1.3949574e-19)
(51.741564 1.3029962 0)
(51.728658 1.250665 -1.3841483e-19)
(51.716594 1.1985431 4.1755265e-21)
(51.705341 1.1465763 -2.6622911e-19)
(51.694857 1.0947284 2.0082817e-21)
(51.685102 1.0429597 -1.2604696e-19)
(51.676047 0.99122472 -1.2360962e-19)
(51.667662 0.93948802 -2.4244028e-19)
(51.659921 0.88771381 0)
(51.652794 0.83587106 0)
(51.646248 0.78393663 2.277458e-19)
(51.640246 0.73188644 2.2509087e-19)
(51.634748 0.67969776 2.2073129e-19)
(51.629722 0.62734451 2.1393225e-19)
(51.62514 0.57479882 -2.1061431e-19)
(51.620988 0.52203492 8.0996639e-22)
(51.617259 0.46901423 -3.9710254e-22)
(51.61391 0.4157313 -3.9878146e-19)
(51.610957 0.36207216 -3.8188194e-22)
(51.608291 0.30813131 -1.9174169e-19)
(51.606094 0.2535335 3.7587317e-19)
(51.604029 0.19874051 1.8456823e-19)
(51.602688 0.14279684 3.6163854e-19)
(51.601338 0.086580379 1.7737131e-19)
(51.600982 0.028952589 1.7368424e-19)
(53.539157 18.616294 1.9946126e-20)
(53.576048 17.818979 2.0212633e-20)
(53.630416 17.120325 2.0330463e-20)
(53.718052 16.488052 -4.0589806e-20)
(53.814552 15.9221 6.0359967e-20)
(53.911484 15.39539 1.9862346e-20)
(54.001359 14.898887 1.9540263e-20)
(54.088782 14.417988 0)
(54.163603 13.954379 0)
(54.213438 13.525307 5.5461974e-20)
(54.261589 13.089137 -5.4387246e-20)
(54.306698 12.672669 0)
(54.335647 12.266665 1.7441019e-20)
(54.352113 11.878092 5.129828e-20)
(54.364578 11.495609 0)
(54.368212 11.129397 -1.6442138e-20)
(54.366212 10.774784 -9.084035e-25)
(54.358583 10.427889 4.740483e-20)
(54.345177 10.096154 4.646692e-20)
(54.326887 9.7721527 -1.5179424e-20)
(54.303443 9.4622529 7.3424167e-24)
(54.276919 9.1593919 -6.807566e-24)
(54.245419 8.8686984 5.7116248e-20)
(54.211091 8.5860451 0)
(54.173913 8.3138503 -1.3696703e-20)
(54.134299 8.0504078 6.7040325e-20)
(54.091578 7.7961921 1.3116306e-20)
(54.046894 7.5501687 7.5564429e-25)
(54.000719 7.3124967 -1.2550743e-20)
(53.952993 7.0830362 6.1346018e-20)
(53.903663 6.8613018 6.8896721e-25)
(53.85244 6.6469393 -1.171686e-20)
(53.800078 6.4395896 -4.57996e-20)
(53.746821 6.2390469 4.4761017e-20)
(53.692371 6.0450914 4.3763328e-20)
(53.636838 5.8573267 8.5623183e-20)
(53.580197 5.6755022 0)
(53.522789 5.4993532 -4.1062086e-20)
(53.464791 5.3287472 0)
(53.406303 5.1636569 -1.5800562e-19)
(53.347629 5.0038802 -7.7548397e-20)
(53.28903 4.849449 -9.5177523e-21)
(53.230728 4.700218 9.346014e-21)
(53.172769 4.5560732 -7.3425989e-20)
(53.115487 4.4167921 8.1118966e-20)
(53.059031 4.2822803 -1.7701389e-20)
(53.003401 4.1523939 -6.0832065e-20)
(52.948692 4.0269047 -6.8258897e-20)
(52.89497 3.9057118 0)
(52.842252 3.7886304 -5.7565327e-20)
(52.790519 3.6755422 -7.2657809e-20)
(52.739742 3.5663286 0)
(52.689827 3.4608339 -7.0005884e-20)
(52.640862 3.3589228 1.5269086e-20)
(52.592885 3.2604334 -7.4925917e-21)
(52.545865 3.1652564 0)
(52.499892 3.0732487 -1.1544706e-19)
(52.455065 2.9841917 -7.0798993e-21)
(52.411427 2.897965 6.9462183e-21)
(52.36904 2.814376 -1.0904003e-19)
(52.327927 2.7333327 1.1031981e-19)
(52.28814 2.6546659 1.599564e-24)
(52.249653 2.5782832 -6.4345891e-21)
(52.212496 2.5040818 1.0415184e-19)
(52.176646 2.4318947 -9.9070874e-20)
(52.142125 2.3616855 0)
(52.10892 2.2932624 9.53256e-20)
(52.077026 2.2265494 9.0578856e-20)
(52.046507 2.1614016 2.8659e-21)
(52.017285 2.0977078 -8.9950117e-20)
(51.989412 2.0353298 8.5466375e-20)
(51.96282 1.9742123 9.1934161e-20)
(51.937443 1.9142017 -8.7513246e-20)
(51.913307 1.8552221 -2.600908e-21)
(51.890332 1.7972164 2.5507406e-21)
(51.868489 1.7400556 -2.5016343e-21)
(51.847791 1.6836807 1.5946827e-19)
(51.828197 1.6280264 -1.539836e-19)
(51.809689 1.5730053 2.3595956e-21)
(51.792255 1.5185497 -1.5272335e-19)
(51.775865 1.4646034 1.4523581e-19)
(51.760473 1.4111016 2.2254236e-21)
(51.746033 1.3579802 2.793543e-19)
(51.732504 1.3051788 0)
(51.719844 1.252644 2.6865974e-19)
(51.708008 1.2003309 1.3173245e-19)
(51.696965 1.1481862 1.2716704e-19)
(51.686676 1.0961709 -8.2959581e-26)
(51.677101 1.0442466 3.882457e-21)
(51.66821 0.99236673 -1.9036454e-21)
(51.659976 0.94049564 4.7791913e-19)
(51.652375 0.88859713 -2.3433848e-19)
(51.645376 0.83664001 -2.2890747e-19)
(51.638948 0.78460134 4.4761546e-26)
(51.633054 0.73245653 -1.724778e-21)
(51.627654 0.68018248 -2.158709e-19)
(51.622716 0.6277524 1.6894115e-24)
(51.618214 0.57513809 -2.0840627e-19)
(51.614133 0.52231301 -2.0357213e-19)
(51.610468 0.46923969 -7.8283915e-22)
(51.607176 0.41591015 1.9652735e-19)
(51.604272 0.36221454 -3.7641463e-22)
(51.601648 0.30823886 1.8935666e-19)
(51.599486 0.25361876 1.5135734e-24)
(51.597447 0.19879638 -1.817398e-19)
(51.596128 0.1428387 -1.7822299e-19)
(51.594772 0.086592153 -3.495637e-19)
(51.594437 0.02897687 -3.424655e-19)
(52.824208 18.134119 2.0403074e-20)
(52.950845 17.437014 0)
(53.080953 16.858082 0)
(53.225953 16.292414 1.0093438e-19)
(53.362394 15.773052 -5.9738882e-20)
(53.489073 15.277669 -7.8378691e-20)
(53.603839 14.801674 1.9249116e-20)
(53.710858 14.341663 -3.7784776e-20)
(53.810231 13.880501 -1.8540916e-20)
(53.87917 13.470825 -3.6363516e-20)
(53.939118 13.048089 1.7834223e-20)
(53.998423 12.63621 -3.4978708e-20)
(54.043548 12.235976 -3.4301984e-20)
(54.074347 11.857238 -7.0995759e-25)
(54.100955 11.479747 4.9482555e-20)
(54.117809 11.119463 0)
(54.128001 10.770482 -1.5854006e-20)
(54.131945 10.427742 -1.5538753e-20)
(54.130228 10.100713 -3.0463021e-20)
(54.12321 9.7793063 0)
(54.10985 9.4731438 -5.8515161e-20)
(54.093165 9.172232 4.2998287e-20)
(54.070961 8.8840711 -7.4503426e-25)
(54.04558 8.6032715 1.3752305e-20)
(54.01696 8.3329464 1.3465981e-20)
(53.985521 8.0709462 -5.2718244e-20)
(53.950374 7.8180193 3.8688679e-20)
(53.912939 7.5730016 0)
(53.873743 7.3361202 0)
(53.83261 7.1072871 -4.8238107e-20)
(53.789487 6.885944 3.5360428e-20)
(53.744057 6.6717886 5.759733e-20)
(53.697211 6.4644833 5.629395e-20)
(53.649186 6.2638144 -9.9068026e-20)
(53.599645 6.0696219 -3.2298984e-20)
(53.548749 5.8814927 -5.2687996e-20)
(53.496462 5.6992289 0)
(53.443206 5.5225927 0)
(53.389193 5.3514791 0)
(53.334516 5.1859025 7.789594e-20)
(53.279501 5.0256291 1.433871e-19)
(53.224411 4.8707181 9.386215e-21)
(53.169464 4.7209981 -7.3742703e-20)
(53.114673 4.5763589 0)
(53.060407 4.4365634 -7.1112425e-20)
(53.006823 4.3015248 6.982633e-20)
(52.953907 4.1711053 -8.5698742e-21)
(52.901767 4.0450649 -5.0482429e-20)
(52.85048 3.9233146 5.7819698e-20)
(52.800068 3.8056606 0)
(52.750523 3.6919917 6.3674822e-20)
(52.701823 3.5821826 0)
(52.653871 3.4760891 0)
(52.606761 3.3735837 0)
(52.56054 3.2744985 7.3864379e-21)
(52.515183 3.1787262 -7.2483092e-21)
(52.470772 3.0861377 2.2760262e-19)
(52.427408 2.9964986 1.1166165e-19)
(52.385147 2.9097017 0)
(52.344059 2.8255444 -1.1420041e-19)
(52.304172 2.7439539 -9.885389e-20)
(52.265541 2.6647443 -6.4637801e-21)
(52.228152 2.587836 1.0782027e-19)
(52.192028 2.5131248 -9.6434388e-20)
(52.157155 2.44044 -3.051487e-21)
(52.123556 2.3697574 9.5785928e-20)
(52.091214 2.3008689 -1.8790919e-19)
(52.060129 2.2337204 2.8799234e-21)
(52.030364 2.1681528 8.7566015e-20)
(52.001843 2.104058 8.8656019e-20)
(51.974629 2.0412964 -1.7390441e-19)
(51.948651 1.9798112 0)
(51.923844 1.9194458 -8.3638957e-20)
(51.900249 1.8601248 0)
(51.877776 1.8017937 0)
(51.856402 1.7443171 -1.5779334e-19)
(51.836147 1.6876386 -1.5474765e-19)
(51.816968 1.6316949 2.3713077e-21)
(51.798846 1.5763955 -2.3254633e-21)
(51.781775 1.5216729 -1.4595808e-19)
(51.765725 1.4674725 -1.4313708e-19)
(51.750649 1.4137295 0)
(51.736505 1.3603794 -2.7531844e-19)
(51.723249 1.3073615 0)
(51.710843 1.2546232 -1.3445677e-19)
(51.699242 1.202119 4.0571609e-21)
(51.688415 1.1497961 -1.9893183e-21)
(51.678326 1.097613 -1.9509323e-21)
(51.668935 1.0455327 1.9131229e-21)
(51.660214 0.99350733 -1.2007504e-19)
(51.652137 0.9415013 1.8895948e-24)
(51.64468 0.88947794 2.3094807e-19)
(51.637813 0.83740601 2.2648011e-19)
(51.631507 0.78526274 0)
(51.625724 0.73302304 8.5255174e-22)
(51.620424 0.68066343 2.1274717e-19)
(51.615577 0.62815642 8.1986584e-22)
(51.611156 0.57547349 2.0458826e-19)