/*--------------------------------*- C++ -*----------------------------------*\
| =========                 |                                                 |
| \\      /  F ield         | OpenFOAM: The Open Source CFD Toolbox           |
|  \\    /   O peration     | Version:  2406                                  |
|   \\  /    A nd           | Website:  www.openfoam.com                      |
|    \\/     M anipulation  |                                                 |
\*---------------------------------------------------------------------------*/
FoamFile
{
    version     2.0;
    format      ascii;
    arch        "LSB;label=32;scalar=64";
    class       volVectorField;
    location    "0.02";
    object      U;
}
// * * * * * * * * * * * * * * * * * * * * * * * * * * * * * * * * * * * * * //

dimensions      [0 1 -1 0 0 0 0];

internalField   nonuniform List<vector> 
2065
(
(54.953488 0.66242732 -1.5192183e-18)
(54.492429 0.11080229 -8.2180262e-23)
(52.548319 -0.091594755 6.0645155e-24)
(56.853762 3.5127942 7.0167739e-20)
(58.239281 4.0334544 1.7611547e-21)
(59.491274 4.5312923 -2.8689299e-21)
(60.586769 4.9845135 -7.542705e-20)
(61.492798 5.3745109 -6.6465145e-20)
(62.08035 5.7141367 5.8636346e-20)
(62.236246 5.7850193 -1.089591e-19)
(61.666938 5.6888169 -1.1472966e-21)
(60.237378 5.0022184 1.4719927e-21)
(58.916207 4.3433946 -1.6641011e-21)
(58.092632 3.8604789 -4.0725169e-19)
(57.440942 3.4051341 0)
(56.871462 2.9510908 0)
(56.355626 2.5030299 0)
(55.913155 2.0198065 1.0478454e-18)
(55.491577 1.6118793 -4.5270322e-22)
(55.228966 1.0779545 8.2055326e-19)
(54.971943 0.66011789 -3.5313217e-22)
(54.503212 0.11407964 1.5633085e-22)
(52.553127 -0.084282197 1.6135202e-19)
(26.791829 0.013314489 9.229228e-20)
(33.882212 0.2744198 -7.7757831e-20)
(38.487806 0.47147156 3.2012035e-20)
(41.670669 0.63705508 -1.3011655e-20)
(44.162595 0.80575617 -3.1595286e-20)
(46.305778 1.0029145 -8.5018832e-20)
(48.257308 1.2478895 6.843249e-21)
(50.087053 1.5482344 5.4906605e-21)
(51.837002 1.9040567 -4.3893968e-20)
(53.521781 2.3172641 5.9609544e-20)
(55.134536 2.7803802 -4.4856247e-20)
(56.656378 3.2761154 0)
(58.067662 3.7814909 -1.8148536e-21)
(59.349021 4.2741019 5.0439482e-20)
(60.474758 4.7326165 7.811294e-20)
(61.407931 5.1352809 0)
(62.035049 5.4914074 -1.2029234e-24)
(62.236334 5.5978924 1.1216754e-19)
(61.721397 5.5492203 -1.1398622e-21)
(60.330842 4.9155407 1.4302585e-21)
(58.985314 4.2649702 -1.5967264e-21)
(58.143898 3.7978003 0)
(57.484362 3.3568631 1.3818708e-21)
(56.90957 2.9148324 6.3005155e-19)
(56.389419 2.4768246 1.0970191e-21)
(55.941521 2.0021985 -5.0596264e-22)
(55.516393 1.6000394 -4.3019343e-22)
(55.251038 1.0711688 -1.5578173e-18)
(54.991509 0.65726021 1.3740768e-18)
(54.514472 0.11781851 2.2264183e-22)
(52.557089 -0.084028757 -3.8038023e-24)
(26.600505 -0.16826442 -2.1349191e-20)
(33.573097 0.063989908 -3.6252411e-20)
(38.245276 0.29476176 3.0105892e-20)
(41.47663 0.49150578 -1.2345859e-20)
(43.980791 0.67971075 3.0249219e-20)
(46.116444 0.88397817 4.1086801e-20)
(48.053367 1.123236 -6.6801739e-21)
(49.871381 1.4075967 -9.9299938e-25)
(51.613679 1.7409324 4.368959e-21)
(53.296504 2.126986 -3.5223214e-21)
(54.91565 2.5622556 2.8379916e-21)
(56.453275 3.0342568 0)
(57.887774 3.5236617 0)
(59.196875 4.0095822 2.6340704e-24)
(60.352325 4.4714561 0)
(61.313488 4.8856594 0)
(61.981422 5.2540594 -6.5689762e-20)
(62.22808 5.4097089 8.9743501e-22)
(61.770346 5.4003933 1.4574965e-19)
(60.426154 4.8218424 -2.7687911e-21)
(59.057283 4.1806051 1.5283108e-21)
(58.196772 3.7300714 0)
(57.529258 3.3046412 -6.7167043e-19)
(56.949256 2.8755223 -2.361224e-21)
(56.424785 2.4484842 1.0412532e-21)
(55.971375 1.9831991 -9.4455838e-19)
(55.542694 1.5871565 -4.0787163e-22)
(55.274353 1.0636269 1.2853091e-23)
(55.012136 0.65394087 -1.3024099e-18)
(54.525973 0.12258386 0)
(52.562404 -0.080366986 0)
(26.391905 -0.39713566 0)
(33.206653 -0.19419277 -2.1509537e-24)
(37.939408 0.068713792 0)
(41.233564 0.29983604 -2.3367785e-20)
(43.76704 0.51316157 -2.1760882e-24)
(45.908732 0.73095897 -4.7471137e-20)
(47.840597 0.97148391 0)
(49.65184 1.2465925 -4.2457348e-20)
(51.38869 1.5630992 0)
(53.069711 1.9266966 0)
(54.693642 2.3372622 5.7158592e-21)
(56.244408 2.7867861 -7.8999528e-20)
(57.699593 3.2599429 -6.0712606e-20)
(59.034653 3.7379072 -5.1609787e-20)
(60.219051 4.2012611 1.311866e-21)
(61.209118 4.6254755 0)
(61.916483 5.0053898 -6.7040087e-20)
(62.210996 5.2152303 1.9353477e-21)
(61.814927 5.2416699 -1.4395468e-19)
(60.522443 4.7199539 -1.3364894e-21)
(59.132252 4.090064 -3.7212968e-19)
(58.25124 3.6568312 0)
(57.575614 3.2480372 6.3888099e-19)
(56.990523 2.8328192 -5.6814283e-19)
(56.461738 2.4177468 2.289955e-25)
(56.002766 1.9626763 -8.7373401e-22)
(55.570623 1.573178 3.8616112e-22)
(55.298722 1.0553375 6.9807456e-19)
(55.034006 0.6500409 -1.2323582e-18)
(54.53803 0.12801745 3.9904777e-22)
(52.572324 -0.078833473 3.7441238e-20)
(26.162493 -0.66948673 3.629801e-20)
(32.776916 -0.4850441 3.1306467e-20)
(37.560739 -0.19327207 0)
(40.931484 0.073062798 -2.2054185e-20)
(43.512362 0.31385402 5.4929739e-20)
(45.67537 0.54875372 1.5174327e-20)
(47.613352 0.79521648 2.5110382e-20)
(49.424499 1.0661179 3.1069944e-20)
(51.159522 1.3704951 0)
(52.839985 1.7158122 0)
(54.467895 2.1047411 -4.5762105e-20)
(56.029696 2.533397 7.4949077e-20)
(57.503159 2.9903274 1.1929958e-19)
(58.86226 3.4593087 3.1860728e-21)
(60.074614 3.9223629 0)
(61.094195 4.3547169 7.415743e-20)
(61.839534 4.7460748 2.0974142e-21)
(62.181766 4.9875777 1.2846165e-19)
(61.853445 5.067393 -1.4062468e-19)
(60.619897 4.608313 1.6586848e-19)
(59.210268 3.9931389 3.5439074e-19)
(58.307253 3.5777522 3.3760227e-19)
(57.623391 3.1868316 6.0411019e-19)
(57.033374 2.7864939 -5.3874579e-19)
(56.500292 2.3844668 0)
(56.035735 1.9404796 -8.4581699e-19)
(55.600188 1.5578647 0)
(55.324327 1.046039 6.6012891e-19)
(55.057382 0.64563912 1.1642101e-18)
(54.550517 0.13512918 0)
(52.57893 -0.085301311 -3.3009116e-20)
(25.90645 -0.96896456 -6.6662395e-20)
(32.281527 -0.79248847 -2.8986953e-20)
(37.105599 -0.47584396 -3.2337058e-24)
(40.565653 -0.17638289 6.2287098e-20)
(43.21106 0.091510275 0)
(45.410948 0.34420374 1.4508554e-20)
(47.367021 0.59867205 -1.2094845e-20)
(49.185934 0.86838467 -1.006149e-20)
(50.923725 1.1640001 8.341834e-21)
(52.605795 1.494261 0)
(54.237658 1.8643108 4.5537587e-20)
(55.808888 2.2737048 0)
(57.298434 2.7146984 -1.2032167e-19)
(58.679606 3.1739324 -5.4906422e-20)
(59.918743 3.6350574 0)
(60.968161 4.0736096 -7.5362685e-20)
(61.751382 4.4753899 7.0020746e-20)
(62.141619 4.7433018 -1.3268417e-19)
(61.882672 4.8670653 1.359286e-19)
(60.716442 4.4847722 -1.5557275e-19)
(59.291143 3.8896991 0)
(58.364606 3.4924923 2.4781086e-21)
(57.67245 3.1206126 -1.147228e-18)
(57.077738 2.7363306 5.1006034e-19)
(56.540414 2.3484221 -8.8102063e-22)
(56.070305 1.9164004 7.9832532e-19)
(55.631346 1.5410108 6.8866016e-22)
(55.351605 1.0355972 -6.2335734e-19)
(55.082317 0.64079407 -1.098463e-18)
(54.564924 0.14109905 2.3687673e-22)
(52.588878 -0.079948717 0)
(25.616045 -1.2687425 3.0524286e-20)
(31.723896 -1.0933328 -5.3510164e-20)
(36.570583 -0.76073164 2.3003457e-20)
(40.13112 -0.43401477 -7.7986038e-20)
(42.859562 -0.14270124 0)
(45.112261 0.12555756 2.7647959e-20)
(47.098623 0.38735373 0)
(48.933649 0.65661169 -9.7305275e-21)
(50.679368 0.94506011 8.1305733e-21)
(52.365726 1.2624301 0)
(54.002112 1.6157603 5.6348887e-21)
(55.581624 2.0074112 -4.679178e-21)
(57.085261 2.4329663 6.6170873e-20)
(58.486552 2.8819306 4.8823897e-20)
(59.751186 3.3397059 -2.755011e-21)
(60.830573 3.7825926 -1.5418901e-24)
(61.652139 4.1929578 2.1371355e-21)
(62.091286 4.4824446 2.0365574e-21)
(61.901863 4.6186657 1.2257773e-19)
(60.807009 4.3472486 2.3672513e-21)
(59.374393 3.7792725 1.1757966e-24)
(58.423026 3.4006975 -3.0125748e-19)
(57.722553 3.0492902 1.0791303e-18)
(57.12349 2.681986 -1.8763794e-21)
(56.582042 2.309455 -4.2457264e-19)
(56.106492 1.8901872 7.3472961e-22)
(55.664168 1.5223197 -6.4894656e-22)
(55.380542 1.0239972 5.7288035e-22)
(55.108612 0.6353436 1.034613e-18)
(54.579685 0.14715621 0)
(52.595377 -0.080345315 0)
(25.286854 -1.5449809 -2.7866187e-20)
(31.108638 -1.3690824 1.1360122e-24)
(35.961805 -1.0313251 -3.7392865e-24)
(39.631596 -0.68581084 3.653259e-20)
(42.458877 -0.37798491 3.1016132e-20)
(44.779357 -0.098955835 -1.3128521e-20)
(46.807508 0.16709893 -1.1103332e-20)
(48.666702 0.43441738 -2.8116868e-20)
(50.425459 0.71553665 2.3670082e-20)
(52.118855 1.0209153 6.6219927e-21)
(53.760507 1.3590476 -5.5449194e-21)
(55.347463 1.7342935 0)
(56.863407 2.1450488 0)
(58.282911 2.5834818 3.2631226e-21)
(59.571683 3.0367867 -2.7686025e-21)
(60.681031 3.4824328 -2.397344e-21)
(61.541663 3.9003102 2.1436186e-21)
(62.028896 4.2063632 1.2839296e-19)
(61.906261 4.4061515 -2.2441252e-19)
(60.889926 4.197463 1.0906231e-24)
(59.459387 3.6621902 -2.3702133e-21)
(58.482137 3.3020716 0)
(57.773432 2.9721658 -5.0981372e-19)
(57.170445 2.6233831 0)
(56.625051 2.267274 3.990799e-19)
(56.144303 1.8615243 6.9152638e-22)
(55.698812 1.5016704 6.1066362e-22)
(55.41079 1.0113607 0)
(55.136151 0.62906929 -9.7355045e-19)
(54.595231 0.15080238 0)
(52.603025 -0.063156079 0)
(24.929772 -1.7728985 -2.5376566e-20)
(30.457769 -1.6005708 -2.2614261e-20)
(35.293782 -1.2704523 3.9652995e-20)
(39.075001 -0.91946034 -3.4163636e-20)
(42.014395 -0.60445173 -2.9195238e-20)
(44.415915 -0.32201998 -7.9816074e-25)
(46.495912 -0.056970832 2.1180834e-20)
(48.385995 0.20508234 3.5968911e-20)
(50.162016 0.47717374 -3.0481514e-20)
(51.864786 0.77044203 -3.8647319e-20)
(53.512342 1.0942641 3.2591321e-20)
(55.105944 1.4541992 -9.1461382e-21)
(56.632533 1.8508931 6.1590887e-20)
(58.068381 2.2788362 6.5013522e-21)
(59.379892 2.7269274 2.7704109e-21)
(60.519006 3.1742606 -2.3985627e-21)
(61.41941 3.5989853 0)
(61.952455 3.9210374 -1.2443409e-19)
(61.896918 4.1716892 1.1232358e-19)
(60.96673 4.0347849 -2.1608824e-21)
(59.54567 3.5382677 -2.241127e-21)
(58.541541 3.1963788 2.0945102e-21)
(57.824669 2.8897793 4.7826033e-19)
(57.218359 2.5599768 -4.8344923e-25)
(56.669355 2.2217742 2.9444065e-21)
(56.183706 1.8301109 2.901454e-25)
(55.735328 1.4787527 -1.722632e-21)
(55.442457 0.99777623 5.0678788e-22)
(55.165083 0.62178928 1.9582196e-23)
(54.609485 0.15633994 0)
(52.609977 -0.072302118 0)
(24.564194 -1.9316815 -2.3048679e-20)
(29.800921 -1.7743295 -4.82759e-24)
(34.590558 -1.4687197 -3.6680841e-20)
(38.476506 -1.1279545 3.1860103e-20)
(41.53703 -0.8169915 2.7435113e-20)
(44.029603 -0.53965023 4.7041901e-20)
(46.168869 -0.28212883 -1.0065627e-19)
(48.094479 -0.029670426 -3.4406571e-20)
(49.890382 0.23107686 -1.4668564e-20)
(51.603644 0.51153837 6.2368724e-20)
(53.257209 0.82139579 7.2079804e-24)
(54.856568 1.1669603 0)
(56.392168 1.5504801 -1.214914e-19)
(57.842507 1.9683027 0)
(59.175293 2.4109045 9.3675245e-20)
(60.343677 2.8595581 -4.7779908e-21)
(61.284031 3.2909889 4.2564507e-21)
(61.86178 3.6352341 1.1277972e-19)
(61.870695 3.9172806 3.374558e-21)
(61.034215 3.8591756 0)
(59.632605 3.4072927 2.1150828e-21)
(58.600714 3.0834548 -1.9722409e-21)
(57.875976 2.8004993 -9.0164686e-19)
(57.266981 2.492038 -1.5640188e-21)
(56.714678 2.1725362 -3.5419379e-19)
(56.224672 1.7956476 -1.2224771e-21)
(55.773675 1.4537638 1.0787004e-21)
(55.47571 0.98334845 0)
(55.195668 0.61363132 1.718613e-18)
(54.622187 0.16254912 -7.5833912e-19)
(52.619997 -0.076161083 1.3030701e-20)
(24.244313 -2.0176195 -4.1776176e-20)
(29.189144 -1.8919812 -4.0550811e-24)
(33.893754 -1.6289046 1.0152964e-19)
(37.861239 -1.3151975 -2.9672502e-20)
(41.041604 -1.0196365 4.8841747e-26)
(43.630371 -0.75494034 -2.2182245e-20)
(45.832937 -0.51025711 -8.5728606e-24)
(47.796205 -0.2709869 3.279695e-20)
(49.612587 -0.023620443 0)
(51.336087 0.24346321 0)
(52.99487 0.53977634 7.4274954e-24)
(54.598688 0.87214416 -6.9998777e-20)
(56.141611 1.2437095 5.2143471e-20)
(57.604626 1.6521897 -2.7557036e-24)
(58.957077 2.089633 -8.1772683e-20)
(60.153727 2.5399979 -7.5779251e-20)
(61.132805 2.9789783 4.2104029e-21)
(61.755079 3.356406 -1.2052747e-19)
(61.827092 3.6575048 -3.2862965e-21)
(61.088936 3.6705805 1.2551277e-19)
(59.71946 3.2691779 2.6310171e-19)
(58.65924 2.9631804 -3.7100813e-21)
(57.926656 2.7066786 1.4342737e-23)
(57.315916 2.4187805 0)
(56.76105 2.1196001 3.3258696e-19)
(56.267127 1.75781 1.147554e-21)
(55.813738 1.426225 2.3090999e-25)
(55.510613 0.96789706 -8.9336468e-22)
(55.227817 0.60496405 -4.1470271e-22)
(54.640362 0.1670183 6.2726428e-19)
(52.627696 -0.076057027 -9.0681431e-20)
(24.017685 -2.0407573 1.8914596e-20)
(28.675688 -1.9629438 3.4514016e-20)
(33.252031 -1.7587553 -3.1163643e-20)
(37.260967 -1.4895227 2.757164e-20)
(40.545935 -1.2213943 2.4065298e-20)
(43.228156 -0.97625529 -2.0881115e-20)
(45.494113 -0.74808477 3.6113302e-20)
(47.494504 -0.52380361 -3.1187558e-20)
(49.330132 -0.29031257 -1.3439413e-20)
(51.0623 -0.036105262 1.1556042e-20)
(52.724754 0.24798881 -3.9669139e-20)
(54.331345 0.56904724 7.6468062e-20)
(55.879773 0.93040594 -7.2717045e-21)
(57.35367 1.3308846 4.9861843e-20)
(58.724033 1.7640844 -8.5862869e-20)
(59.947158 2.2170278 7.4711541e-20)
(60.961286 2.6656303 4.1458204e-21)
(61.631252 3.0923225 -3.6212121e-21)
(61.770521 3.4148334 0)
(61.130273 3.4700068 -1.2303341e-19)
(59.804942 3.1242307 -4.7667564e-19)
(58.716163 2.8355228 -2.2316064e-19)
(57.976609 2.6040955 1.3180754e-23)
(57.364924 2.340582 -3.5027592e-19)
(56.807873 2.0622518 -1.2184258e-21)
(56.310998 1.7164561 -5.5213899e-19)
(55.855641 1.3967923 0)
(55.54674 0.95133102 -8.3799137e-22)
(55.261352 0.5961958 -7.5565897e-19)
(54.660971 0.16538225 0)
(52.625968 -0.073458805 -1.5258763e-20)
(23.950994 -2.0263448 3.3369085e-20)
(28.316904 -2.0068905 0)
(32.719226 -1.8746806 -1.4330252e-20)
(36.713506 -1.665291 -7.6707208e-20)
(40.070486 -1.4365945 2.24794e-20)
(42.832839 -1.2166588 1.9608992e-20)
(45.156636 -1.0064664 0)
(47.190701 -0.7963191 1.4779192e-20)
(49.042701 -0.57463929 -1.2801646e-20)
(50.781006 -0.33066273 0)
(52.445007 -0.055757061 3.8176758e-20)
(54.052673 0.25685294 0)
(55.60499 0.61046609 -7.0681835e-21)
(57.088099 1.0048588 -9.7326099e-20)
(58.474582 1.4350402 8.9340671e-20)
(59.721706 1.8909201 0)
(60.765804 2.3504896 0)
(61.484428 2.8152884 1.1675854e-19)
(61.701137 3.1623141 0)
(61.161719 3.2270688 3.2747377e-21)
(59.888732 2.9730511 -3.5248998e-21)
(58.77124 2.7005698 2.0951193e-19)
(58.024597 2.4994446 7.5098577e-19)
(57.413324 2.2574912 3.2852454e-19)
(56.855443 2.0010458 0)
(56.35611 1.670998 5.1658207e-19)
(55.899165 1.3646716 0)
(55.584273 0.93342851 -7.853586e-22)
(55.296477 0.58697024 1.0383258e-21)
(54.685225 0.15616556 -2.7589954e-22)
(52.631754 -0.050875264 0)
(24.064122 -2.0277771 -3.0162155e-20)
(28.163746 -2.0781985 1.3915861e-20)
(32.34799 -2.013464 -3.9493603e-20)
(36.259777 -1.8737923 4.7326394e-20)
(39.636338 -1.6909901 -2.09553e-20)
(42.451274 -1.497087 0)
(44.820114 -1.3013632 3.210722e-20)
(46.881511 -1.0998666 -1.5145721e-24)
(48.74622 -0.88403694 0)
(50.488292 -0.64461933 0)
(52.152106 -0.37379408 8.0389194e-24)
(53.759591 -0.065495665 0)
(55.314711 0.28385679 0)
(56.805868 0.67468523 5.3180045e-20)
(58.207021 1.1032264 -5.1221079e-21)
(59.476121 1.5614026 0)
(60.548054 2.0297739 0)
(61.313504 2.4996164 -1.1171753e-19)
(61.613205 2.8696883 -3.399709e-21)
(61.174578 2.9764018 -9.3193145e-20)
(59.963305 2.8101695 4.2459955e-19)
(58.822865 2.5588624 1.96533e-19)
(58.07099 2.3827866 -1.0664499e-23)
(57.460996 2.1677921 0)
(56.902811 1.9344141 -2.7628226e-19)
(56.402285 1.6221198 4.8584049e-19)
(55.944521 1.3311147 0)
(55.623081 0.91433585 7.3562272e-22)
(55.333207 0.57719822 -6.4830064e-22)
(54.702435 0.15253472 0)
(52.647064 -0.083041636 0)
(24.422907 -2.0895832 -9.8634406e-20)
(28.235298 -2.1989999 2.5211887e-20)
(32.169952 -2.2316508 3.3701406e-24)
(35.924351 -2.13858 4.3754e-20)
(39.252019 -2.0023316 1.9486338e-20)
(42.07825 -1.8322055 -3.4383986e-20)
(44.473406 -1.6445116 9.0500947e-20)
(46.555093 -1.4432352 -2.6389326e-20)
(48.430314 -1.2244702 -2.3050186e-20)
(50.175758 -0.98151969 6.0273203e-20)
(51.839579 -0.7078988 -5.2429784e-20)
(53.447324 -0.39818654 -1.518422e-20)
(55.005427 -0.04857181 1.3171543e-20)
(56.504421 0.34165796 5.7162098e-20)
(57.919669 0.77008038 6.960614e-20)
(59.210108 1.2300818 8.7029462e-21)
(60.311537 1.7050417 -7.7076206e-21)
(61.127012 2.1776181 0)
(61.506802 2.5749727 -9.7918133e-20)
(61.169739 2.7819229 1.7539799e-19)
(60.027127 2.6456324 -1.9617935e-19)
(58.871554 2.4109272 -1.8423791e-19)
(58.11379 2.2689652 -3.2862638e-19)
(57.506922 2.075732 0)
(56.950166 1.8644246 2.5674832e-19)
(56.449123 1.5681234 -4.531783e-19)
(55.991047 1.2948471 3.9974218e-19)
(55.663622 0.89363986 0)
(55.370797 0.56605665 6.0713253e-22)
(54.720901 0.15035541 -3.648136e-22)
(52.658631 -0.088183185 0)
(25.013738 -2.2539514 0)
(28.529993 -2.410876 2.3738802e-20)
(32.183729 -2.4792665 -2.1204977e-20)
(35.715556 -2.4588228 -2.0188693e-20)
(38.924809 -2.3617108 -1.8090012e-20)
(41.71261 -2.2126106 -3.2079102e-20)
(44.107006 -2.0302199 2.8281312e-20)
(46.198042 -1.8236349 4.968566e-20)
(48.08153 -1.5943526 -1.3901426e-24)
(49.831883 -1.3398671 1.0333387e-23)
(51.498405 -1.0561431 3.3296881e-20)
(53.109048 -0.73878139 -1.4518717e-20)
(54.672329 -0.38436221 6.3224986e-20)
(56.180611 0.008303601 8.5437095e-24)
(57.610716 0.43808649 -7.6850212e-20)
(58.922958 0.89982494 0)
(60.055631 1.3796765 -5.9715425e-20)
(60.919532 1.8571194 -1.0777968e-19)
(61.373314 2.276888 1.0003034e-19)
(61.139016 2.5356505 9.8153314e-25)
(60.087794 2.4608932 -1.869361e-19)
(58.915161 2.2603722 -1.6720277e-19)
(58.153704 2.1383724 -3.1256819e-19)
(57.5509 1.9746175 2.7217591e-19)
(56.997256 1.7876946 0)
(56.496554 1.5124939 -4.2414726e-19)
(56.038437 1.2569059 -3.726655e-19)
(55.705321 0.87111313 -1.2886635e-21)
(55.409862 0.55387712 5.6815643e-22)
(54.740785 0.14538544 -3.9009799e-22)
(52.683102 -0.051440232 1.0227833e-20)
(25.775343 -2.6024794 0)
(28.991497 -2.7862381 3.2838062e-20)
(32.326417 -2.8707832 -3.0071705e-20)
(35.605938 -2.8797092 -5.5767499e-20)
(38.64291 -2.7968533 8.3693202e-20)
(41.342122 -2.6511997 -4.4760874e-20)
(43.704933 -2.4602736 -2.6431484e-20)
(45.792713 -2.2368061 5.1171386e-24)
(47.683239 -1.987204 -4.1053792e-20)
(49.442714 -1.7128693 -3.6052822e-20)
(51.117892 -1.412179 8.8933921e-24)
(52.737045 -1.0818353 5.5346978e-20)
(54.310116 -0.71886418 -9.6748033e-20)
(55.830943 -0.32118036 -3.1698735e-20)
(57.278056 0.11111709 -9.245392e-21)
(58.613466 0.57443211 6.4997304e-20)
(59.778699 1.0575308 -6.6311804e-24)
(60.690168 1.5399767 1.0368406e-19)
(61.214746 1.9775088 5.9763534e-21)
(61.079081 2.2623165 3.4675962e-24)
(60.132624 2.3078467 1.6984249e-19)
(58.955417 2.10236 3.1816125e-19)
(58.188404 2.0183999 9.0091354e-21)
(57.59251 1.8713471 -5.1342908e-19)
(57.042092 1.7082913 2.2488078e-19)
(56.543699 1.4492629 3.9529469e-19)
(56.086025 1.2159821 1.3670286e-21)
(55.748892 0.84590288 0)
(55.450069 0.53940174 -5.3148101e-22)
(54.76311 0.13915476 -4.709218e-19)
(52.690295 -0.086696553 -1.3707007e-20)
(26.604133 -3.0790574 0)
(29.501242 -3.2544845 0)
(32.513348 -3.3414718 9.2853992e-21)
(35.504237 -3.3405839 1.7039738e-20)
(38.335515 -3.2564618 -1.5435916e-20)
(40.91862 -3.1030893 1.3836838e-20)
(43.234034 -2.896705 -2.4633031e-20)
(45.314795 -2.6522054 2.1828277e-20)
(47.216905 -2.379251 1.9290384e-20)
(48.99412 -2.0823454 0)
(50.687517 -1.7622059 -4.4898496e-20)
(52.323847 -1.4168697 -7.8876747e-20)
(53.9138 -1.0436516 1.03778e-19)
(55.452327 -0.6399932 -3.0327892e-20)
(56.919772 -0.2051655 -7.095064e-20)
(58.280501 0.25886269 -6.2440137e-20)
(59.479552 0.74345194 4.1518245e-20)
(60.438478 1.2303494 1.0567672e-19)
(61.033433 1.681125 5.7001987e-21)
(61.002951 2.0077398 -8.1401995e-20)
(60.158918 2.0158014 -4.8207669e-21)
(58.991798 1.950932 -1.4651505e-19)
(58.218964 1.8716979 2.6956309e-19)
(57.629659 1.767186 2.3829876e-19)
(57.087524 1.6228816 -2.0706549e-19)
(56.591216 1.3888588 3.6824866e-19)
(56.134698 1.1706819 -3.2731598e-19)
(55.792541 0.81786361 0)
(55.491347 0.52456806 5.0832241e-19)
(54.78733 0.13870651 4.4916229e-19)
(52.693009 -0.10112159 6.1182565e-21)
(27.387013 -3.5577605 7.7163161e-20)
(29.961724 -3.7025432 -7.181109e-20)
(32.651584 -3.7671521 1.2630004e-19)
(35.356976 -3.7514512 3.1730491e-24)
(37.974516 -3.6594682 -4.249881e-20)
(40.428642 -3.4991832 5.1106088e-20)
(42.687216 -3.2827261 -6.8629288e-20)
(44.758732 -3.0241684 4.0754757e-20)
(46.676984 -2.734581 -3.6172853e-20)
(48.48066 -2.4206212 3.2020237e-20)
(50.202448 -2.0851562 -2.8269773e-20)
(51.865602 -1.7277622 -7.6211473e-24)
(53.48036 -1.3464214 -4.3842524e-20)
(55.042764 -0.93873989 3.854603e-20)
(56.534871 -0.50328191 6.7809362e-20)
(57.923526 -0.040627725 0)
(59.157523 0.44314266 6.6312043e-21)
(60.163304 0.93332665 -1.0701602e-19)
(60.825881 1.3957346 1.0857693e-20)
(60.910008 1.7774276 -9.3374255e-21)
(60.161055 1.8595253 1.4076658e-19)
(59.013216 1.7785118 4.4204096e-21)
(58.24182 1.7594487 -3.9400056e-21)
(57.665448 1.6421249 3.4815444e-21)
(57.128284 1.5316909 0)
(56.637209 1.3147344 2.7011545e-21)
(56.184058 1.1232452 -2.3805339e-21)
(55.837859 0.78736583 0)
(55.533368 0.50760097 -4.7663104e-19)
(54.810016 0.14563594 8.1907406e-22)
(52.701325 -0.097324987 0)
(28.035548 -3.9606817 -4.2997837e-21)
(30.308824 -4.0620793 0)
(32.699796 -4.1012696 7.4346933e-21)
(35.146607 -4.0600107 -5.6467199e-20)
(37.563646 -3.9588432 -2.633854e-24)
(39.887825 -3.7944205 -2.7947933e-24)
(42.083138 -3.5755867 6.353727e-20)
(44.141114 -3.3137959 3.7937876e-20)
(46.075774 -3.0193074 -3.3827312e-20)
(47.910227 -2.6992989 3.0062065e-20)
(49.667218 -2.3579785 -2.6635671e-20)
(51.364817 -1.9962133 2.3547217e-20)
(53.011427 -1.6129549 0)
(54.603332 -1.2063395 -1.8326728e-20)
(56.124111 -0.77445846 -4.8480587e-20)
(57.543106 -0.31690795 7.1368343e-20)
(58.812633 0.16246514 -2.5332932e-20)
(59.86344 0.65260221 1.1342126e-20)
(60.587904 1.1244748 0)
(60.788528 1.5565402 0)
(60.15251 1.6960628 -1.4326257e-19)
(59.031117 1.6444831 4.1334709e-21)
(58.262279 1.577065 0)
(57.69369 1.5453197 0)
(57.167196 1.4416795 0)
(56.682811 1.2508148 -3.2438146e-19)
(56.233096 1.0669306 2.8380211e-19)
(55.885104 0.75429628 9.8479906e-22)
(55.576392 0.49129057 8.6824094e-22)
(54.832917 0.15771409 3.8288569e-22)
(52.734154 -0.098045623 4.0818947e-20)
(28.486329 -4.2469164 -5.6773432e-20)
(30.499674 -4.3037383 6.4143862e-20)
(32.639905 -4.3013597 -5.9458829e-20)
(34.859679 -4.2497421 -1.9187548e-24)
(37.10129 -4.1373483 4.7163407e-20)
(39.309211 -3.9710635 0)
(41.443677 -3.7562512 -1.9560646e-20)
(43.485798 -3.5007732 3.5228031e-20)
(45.434714 -3.2123773 -3.156231e-20)
(47.300045 -2.897912 -4.0744264e-24)
(49.094614 -2.5618438 -5.0085875e-20)
(50.830547 -2.2057648 -2.4246794e-24)
(52.513298 -1.8294103 1.965899e-20)
(54.138665 -1.4312847 1.7379686e-20)
(55.690962 -1.009306 4.6063344e-20)
(57.141728 -0.56255562 -5.4342456e-20)
(58.446629 -0.093158571 0)
(59.5404 0.3905021 1.0796541e-20)
(60.32182 0.86331636 -8.8040019e-20)
(60.613913 1.3015502 -7.2193593e-20)
(60.124336 1.5072237 -8.3797692e-21)
(59.045697 1.4532449 1.3911694e-19)
(58.269588 1.5146827 -3.4417316e-21)
(57.718179 1.41363 1.9169257e-19)
(57.206112 1.3397238 0)
(56.727375 1.164778 3.0313137e-19)
(56.282499 1.014439 -2.6519607e-19)
(55.933823 0.72007849 -9.2023899e-22)
(55.619791 0.47235904 -8.1130767e-22)
(54.854027 0.17571642 3.5777039e-22)
(52.766165 -0.10418692 -1.6790108e-19)
(28.728054 -4.4129283 1.0565473e-19)
(30.513638 -4.4294978 -6.1721879e-21)
(32.448042 -4.4037298 1.5364521e-24)
(34.485685 -4.3324869 -4.5778485e-20)
(36.583824 -4.2110835 0)
(38.695618 -4.0431825 9.8640545e-21)
(40.779279 -3.8328411 1.8007094e-20)
(42.808347 -3.5860388 3.2639363e-20)
(44.771924 -3.3090399 -5.8781168e-20)
(46.667878 -3.0076367 7.8991295e-20)
(48.500567 -2.6856472 -4.6999172e-20)
(50.276086 -2.3446644 2.0906445e-20)
(51.996583 -1.9844447 -1.8557636e-20)
(53.65682 -1.6033649 3.2886492e-20)
(55.241662 -1.1992249 -7.2806342e-20)
(56.724351 -0.77044261 5.1613379e-20)
(58.063701 -0.31781066 0)
(59.198836 0.15243695 8.2006123e-20)
(60.036192 0.61937833 1.4817351e-19)
(60.419528 1.0599761 7.6459605e-20)
(60.069409 1.3199436 -7.8955142e-21)
(59.054444 1.3603261 -1.1553801e-19)
(58.279861 1.2628081 1.040711e-19)
(57.740455 1.2727039 -1.9335016e-19)
(57.23322 1.2364642 5.0170959e-21)
(56.767831 1.0951042 -6.9865641e-24)
(56.329223 0.9479962 2.4972693e-19)
(55.983772 0.68128067 1.7200974e-21)
(55.661695 0.45589195 -1.5159193e-21)
(54.876557 0.1926115 0)
(52.808705 -0.10345181 0)
(28.789362 -4.440666 -4.2625475e-20)
(30.405092 -4.4320203 8.6743111e-20)
(32.160957 -4.3879517 -8.5552818e-20)
(34.040133 -4.304921 4.0976047e-20)
(36.01529 -4.1794246 0)
(38.046228 -4.0131149 2.6988732e-20)
(40.091667 -3.809182 -6.6217618e-20)
(42.11629 -3.5729966 -1.0361121e-24)
(44.098517 -3.3105455 5.4639411e-20)
(46.027988 -3.0269278 -2.4581907e-20)
(47.90045 -2.725367 0)
(49.716236 -2.407111 1.9647238e-20)
(51.474493 -2.0713695 -1.7482696e-20)
(53.169018 -1.7159 0)
(54.785302 -1.3378883 5.5095651e-20)
(56.298328 -0.93485833 -4.8892218e-20)
(57.6699 -0.50636954 0)
(58.843739 -0.056848111 -1.4568867e-19)
(59.734344 0.39659207 -7.8780386e-20)
(60.202982 0.83052484 0)
(59.985135 1.1249562 -7.3206556e-21)
(59.064616 1.1113811 6.4347649e-21)
(58.278311 1.1543418 -9.5214265e-20)
(57.745761 1.2226241 1.0625838e-20)
(57.263612 1.1520993 -4.6870151e-21)
(56.81002 1.0014325 -2.6664729e-19)
(56.376631 0.89154294 1.8222444e-21)
(56.031088 0.64065054 1.6067071e-21)
(55.702568 0.43421658 3.6180692e-19)
(54.898701 0.20971853 3.1864898e-19)
(52.829814 -0.10492581 -4.7598935e-20)
(28.713442 -4.3190275 -7.9546281e-20)
(30.173691 -4.2917112 0)
(31.785338 -4.2404421 0)
(33.537748 -4.1561468 6.413138e-20)
(35.410419 -4.0362992 -6.9791134e-20)
(37.372703 -3.8800458 0)
(39.387133 -3.6892218 0)
(41.415233 -3.4685607 -1.3942829e-20)
(43.423711 -3.2242249 0)
(45.391446 -2.9618938 0)
(47.307345 -2.6849832 2.0603352e-20)
(49.165186 -2.3947178 5.5313957e-20)
(50.961046 -2.0897939 -3.2893757e-20)
(52.688156 -1.7671007 2.9277e-20)
(54.33306 -1.4227066 -1.3007987e-20)
(55.872905 -1.0529212 -2.311953e-20)
(57.272749 -0.65592375 -1.3366196e-24)
(58.481134 -0.23442692 8.2673761e-20)
(59.420764 0.19772736 6.6107915e-20)
(59.967936 0.61805032 -6.0110316e-20)
(59.867627 0.90823238 1.1357797e-19)
(59.057654 1.0076105 -5.9473837e-21)
(58.262635 1.0596397 5.4856873e-21)
(57.750252 0.9836609 -4.7512691e-21)
(57.292161 1.0006533 0)
(56.845411 0.92293417 2.4325359e-19)
(56.419728 0.81881004 3.4038813e-21)
(56.079363 0.59558832 -1.5005686e-21)
(55.746437 0.41232562 -3.3725889e-19)
(54.913533 0.20340557 -5.9694395e-19)
(52.890117 -0.056028258 9.9026087e-23)
(28.577114 -3.9856017 8.1724665e-25)
(29.91665 -3.9589746 -4.2851607e-21)
(31.407877 -3.9168456 0)
(33.048479 -3.8481808 -5.7684285e-20)
(34.82696 -3.7495656 6.3198796e-20)
(36.721565 -3.618953 0)
(38.700726 -3.4564394 -5.5774049e-20)
(40.726664 -3.2649426 6.4355624e-20)
(42.761034 -3.0497943 0)
(44.770743 -2.8168927 0)
(46.733198 -2.5710324 -1.9256252e-20)
(48.635427 -2.3141197 -3.4567789e-20)
(50.469307 -2.0451935 0)
(52.227111 -1.7607951 0)
(53.896811 -1.4559748 -4.9073684e-20)
(55.458413 -1.1256605 0)
(56.880852 -0.76640906 -5.8301423e-20)
(58.117892 -0.37895462 1.7349396e-20)
(59.100409 0.026429526 -1.2463868e-19)
(59.718758 0.42966052 5.6481327e-20)
(59.754147 0.74516617 -2.0609195e-19)
(59.031885 0.87494278 5.8044752e-21)
(58.253398 0.87524711 8.3932431e-20)
(57.750983 0.88270792 1.3777863e-19)
(57.301149 0.95500641 1.2676534e-19)
(56.875266 0.82603134 -2.271748e-19)
(56.46289 0.75142729 0)
(56.12159 0.54854362 0)
(55.793744 0.377245 3.1491979e-19)
(54.936182 0.18385633 2.7980384e-19)
(52.839144 -0.070154504 4.7352144e-19)
(28.512476 -3.3948224 -6.5950322e-20)
(29.75302 -3.3869088 1.2807145e-19)
(31.141684 -3.3674471 -1.2309882e-19)
(32.681204 -3.3302236 5.2576045e-20)
(34.367951 -3.2707104 -5.7812118e-20)
(36.188712 -3.1853535 -5.7516403e-25)
(38.11876 -3.0723268 -1.2857051e-20)
(40.124088 -2.9319614 3.5739669e-20)
(42.165165 -2.7670177 1.0936252e-20)
(44.202861 -2.5820281 -1.9911563e-20)
(46.204262 -2.3816712 -1.8005829e-20)
(48.146415 -2.1690123 4.8584514e-20)
(50.014992 -1.94417 4.0418875e-25)
(51.799556 -1.7043217 -2.5920676e-20)
(53.488709 -1.4443549 6.931275e-20)
(55.065431 -1.1583973 -4.115237e-20)
(56.503028 -0.84168314 9.1645564e-20)
(57.760798 -0.49316023 0)
(58.77724 -0.1202458 -6.4614907e-24)
(59.455234 0.25899895 -3.9775092e-20)
(59.611084 0.58693473 8.3762682e-20)
(58.996136 0.71937656 0)
(58.238749 0.76108057 -7.3477914e-20)
(57.739679 0.82781509 -8.3813173e-21)
(57.313237 0.81406282 -2.443867e-19)
(56.911112 0.73810952 6.7341125e-21)
(56.501693 0.68450617 -5.9367376e-21)
(56.167337 0.50350211 1.7007833e-19)
(55.842212 0.34731766 -2.9636044e-19)
(54.972587 0.15737034 2.6173794e-19)
(52.816022 -0.077556309 -2.2204427e-19)
(28.603085 -2.6516557 -5.6494577e-20)
(29.770246 -2.6564928 5.9992142e-20)
(31.078275 -2.6662628 0)
(32.532949 -2.6636962 6.8397025e-21)
(34.134025 -2.6545792 0)
(35.875397 -2.6200249 0)
(37.739014 -2.5657839 1.1923451e-20)
(39.697536 -2.4888728 -3.3233516e-20)
(41.71558 -2.3883552 7.132481e-20)
(43.75234 -2.2664628 -6.1079089e-25)
(45.768306 -2.1262625 1.683976e-20)
(47.732278 -1.9702761 3.0353702e-20)
(49.622203 -1.7990681 -5.4474063e-20)
(51.422928 -1.6104389 -2.033661e-24)
(53.122019 -1.3998371 0)
(54.704551 -1.1614011 0)
(56.148001 -0.89002991 -5.1801611e-20)
(57.417108 -0.5835425 1.5410742e-20)
(58.45778 -0.24736825 6.9011425e-20)
(59.183735 0.10186617 3.7322405e-20)
(59.432571 0.42147445 0)
(58.946619 0.57861004 -8.2038714e-20)
(58.204273 0.62495249 9.1486139e-21)
(57.724578 0.65610728 -1.2934357e-19)
(57.32184 0.64010321 9.9809782e-20)
(56.932134 0.65762842 -2.0120087e-19)
(56.537189 0.59834949 2.7711818e-21)
(56.211017 0.45062889 -1.5390808e-19)
(55.892303 0.30511176 -2.1530339e-21)
(55.02517 0.1459312 -2.4294851e-19)
(52.815569 -0.076374505 0)
(28.903069 -1.8965327 -3.4162582e-21)
(29.989852 -1.9363643 -6.5406174e-21)
(31.222212 -1.9780612 4.8487595e-20)
(32.605034 -2.0122837 -1.0385449e-19)
(34.135958 -2.0285613 4.8920912e-20)