/*--------------------------------*- C++ -*----------------------------------*\
| =========                 |                                                 |
| \\      /  F ield         | OpenFOAM: The Open Source CFD Toolbox           |
|  \\    /   O peration     | Version:  2406                                  |
|   \\  /    A nd           | Website:  www.openfoam.com                      |
|    \\/     M anipulation  |                                                 |
\*---------------------------------------------------------------------------*/
FoamFile
{
    version     2.0;
    format      ascii;
    arch        "LSB;label=32;scalar=64";
    class       volScalarField;
    location    "0.01";
    object      p;
}
// * * * * * * * * * * * * * * * * * * * * * * * * * * * * * * * * * * * * * //

dimensions      [1 -1 -2 0 0 0 0];

internalField   nonuniform List<scalar> 
8260
(
100705.11
100653.54
100682.77
100718.63
100757.47
100797.46
100840.33
100892.63
100950.18
101008.45
101067.14
101124.65
101175.63
101220.11
101263.07
101301.21
101332.92
101361.31
101386.38
101407.92
101425.41
101440.27
101452.47
101464.19
101478.95
101492.72
101506.34
101521.36
101536.38
101550.67
101538.31
100912.55
100827.45
100822.81
100841.62
100863.23
100884.81
100916.15
100955.62
100999.14
101050.22
101104.04
101157.27
101205.49
101246.18
101285.79
101321.81
101350.56
101377.14
101400.98
101421.32
101437.29
101451.13
101462.68
101472.43
101485.08
101496.96
101509.55
101523.53
101539.21
101550.79
101536.94
101097.58
101007.61
100975.29
100975.78
100978.27
100983.35
101000.7
101020.99
101049.13
101092.53
101139.37
101187.73
101231.05
101267.05
101302.05
101335.66
101362.33
101387.22
101410.05
101429.43
101444.5
101457.72
101468.61
101477.73
101488.68
101499.81
101511.82
101525.06
101540.9
101550.93
101535.97
101272.83
101184.63
101132.8
101105.59
101090.93
101090.41
101089.93
101091.56
101107.64
101139.3
101172.5
101215.27
101251.98
101283.72
101314.76
101344.96
101370.67
101394.02
101415.62
101434.51
101449.12
101461.87
101471.61
101481.34
101490.7
101501.53
101513.17
101526.05
101541.73
101551.07
101535.2
101418.46
101335.53
101278.51
101241.89
101219.38
101197.45
101174.5
101167.94
101175.75
101191.2
101206.26
101238.47
101269.25
101297.32
101324.4
101352.47
101377.99
101399.07
101419.03
101437.36
101451.94
101464.31
101473.35
101483.39
101491.67
101502.49
101514
101526.68
101541.97
101551.25
101535.08
101539.44
101469.4
101418.94
101373.7
101334.39
101295.27
101266.52
101249.37
101244.12
101239.67
101243.35
101261.96
101284.84
101309.34
101334.58
101361.33
101384.96
101403.7
101421.52
101439.06
101453.54
101465.64
101474.73
101484.23
101492
101502.93
101514.74
101527.19
101541.96
101551.43
101531.81
101634.65
101571.56
101519.18
101474.66
101433.19
101393.93
101357.07
101326.13
101305.96
101286.45
101284.37
101295.21
101307.12
101325.68
101347.68
101372.36
101391.94
101409.02
101424.63
101440.89
101454.72
101466.4
101475.88
101484.79
101492.34
101503.04
101515.39
101527.58
101541.9
101551.64
101528.68
101723.55
101661.14
101610.92
101564.42
101521.4
101481.13
101439.86
101394.64
101361.3
101341.08
101336.02
101335.92
101341.44
101353.55
101367.13
101382.59
101398.45
101414.61
101429.37
101443.59
101455.91
101466.88
101476.93
101485.28
101492.72
101503.07
101516.08
101528.03
101541.97
101551.83
101526.07
101786.06
101733.3
101679.56
101631.53
101590.8
101552.21
101509.23
101465.89
101431.44
101405.19
101393.14
101382.37
101381.52
101381.83
101387.14
101395.45
101407.31
101419.75
101433.72
101447.02
101457.57
101467.42
101477.54
101485.41
101492.61
101503.09
101516.91
101528.73
101542.21
101552
101525.06
101839.2
101802.74
101756.72
101707.65
101657.95
101611.89
101571.28
101535.23
101498.36
101470.66
101445.77
101428.35
101415.95
101404.52
101403.42
101407.57
101414.43
101425.79
101438.5
101450.52
101459.7
101468.21
101477.73
101485.27
101492.46
101503.1
101517.69
101529.45
101542.62
101552.13
101525.38
101843.14
101823.25
101788.24
101744.04
101697.45
101655.27
101623.45
101595.23
101559.96
101521.73
101483.54
101460.5
101438.87
101423.72
101424.93
101427.57
101426.31
101432.86
101442.78
101453.7
101462.19
101469.6
101478.18
101485.32
101492.73
101503.46
101518.34
101530.13
101543.42
101552.26
101529.61
101838.57
101813.08
101798.82
101783.08
101753.42
101716.12
101673.87
101631.81
101595.72
101553.28
101513.75
101490.74
101474.43
101460.88
101447.78
101443.63
101445.95
101448.07
101450.3
101456.52
101464.65
101471.85
101479.25
101485.89
101493.6
101504.52
101519.51
101531.01
101544.65
101552.37
101531.96
101829.07
101812.55
101792.81
101767.48
101744.75
101720.19
101684.99
101649.38
101617.9
101587.36
101558.28
101537.44
101519.19
101497.8
101483.5
101470.51
101463.23
101462.42
101461.7
101462.39
101468.11
101475.17
101481.38
101487.34
101495.44
101506.05
101522
101532.77
101546.01
101552.57
101553.39
101815.44
101803.88
101788.61
101777.57
101763.64
101740.51
101713.82
101684.06
101651.68
101622.63
101597.62
101571.79
101548.42
101530.03
101509.5
101495.25
101482.01
101473.91
101472.42
101472.09
101474.11
101479.43
101484.68
101489.88
101498.34
101507.39
101525.1
101535.49
101547.45
101552.8
101558.47
101793.83
101784.64
101771.83
101756.8
101744.32
101734.36
101718.86
101697.14
101669.74
101642.12
101619.47
101592.81
101568.47
101550.17
101525.53
101505.9
101494.61
101487.07
101480.76
101480.61
101481.49
101483.9
101488.14
101493.24
101501.84
101508.81
101527.34
101537.95
101548.95
101553.2
101558.32
101767.78
101762.6
101755.22
101746.23
101736.19
101722.87
101708.66
101696.17
101682.14
101665.07
101642.01
101608.58
101583.21
101561.37
101543.71
101529.73
101511.15
101498.23
101490.33
101487.47
101487.63
101487.79
101491.11
101496.95
101505.17
101510.99
101528.26
101540.61
101550.54
101553.74
101556.81
101741.12
101735.81
101730.17
101723.45
101716.58
101708.32
101697.41
101682.97
101659.47
101636.66
101620.61
101610.93
101600.64
101579.98
101560.16
101543.13
101526.2
101515.83
101507.25
101498.31
101494.22
101493.03
101496.21
101501.67
101508.24
101514.3
101528.35
101542.9
101552.01
101554.58
101554.92
101720.1
101715.85
101710.79
101705.42
101698.43
101691.99
101684.86
101676.52
101671.87
101665.88
101647.03
101625.5
101601.58
101579.85
101565.69
101553.09
101540.21
101528.65
101517.48
101505.53
101499.5
101500.18
101502.67
101507.65
101511.91
101518.17
101528.24
101542.61
101553.08
101555.45
101555.34
101693.75
101691.25
101687.71
101683.56
101679.31
101673.9
101667.57
101660.68
101653.37
101646.1
101638.26
101623.46
101604.13
101593.97
101584.24
101567.45
101548.84
101533.42
101522.13
101514.91
101510.18
101509.66
101511.04
101514.3
101516.84
101521.23
101528.69
101541.33
101554.25
101557.07
101556.36
101669.66
101667.37
101664.82
101661.79
101658.35
101654.47
101649.94
101644.78
101638.61
101630
101619.12
101612.43
101608.09
101599.37
101585.96
101572.98
101562.38
101549.61
101539.32
101530.84
101522.37
101517.71
101518.6
101521.11
101521.77
101523.8
101530.06
101541.83
101555.64
101559.5
101554.73
101649.23
101647.42
101645.26
101643.07
101640.26
101637.21
101633.87
101629.41
101624.82
101620.15
101614.99
101608.92
101602.19
101594.78
101583
101572.57
101568.89
101561.03
101552.23
101542.08
101532.8
101526.82
101525.22
101527.28
101528.48
101528.35
101532.92
101546.18
101556.49
101562.38
101540.4
101634.49
101633.39
101631.85
101630.15
101628.31
101625.9
101623.25
101620.53
101617.49
101613.51
101609.01
101604.46
101599.83
101593.45
101587.66
101582.17
101571.95
101561.61
101553.01
101547.21
101542.07
101538.66
101535.93
101534.2
101536.01
101538.95
101543.8
101554.26
101557.99
101564.1
101547.66
101624.15
101623.21
101622.18
101620.92
101619.68
101618.2
101616.34
101614.31
101611.81
101609.32
101605.94
101602.18
101598.14
101593.47
101586.85
101580.43
101574.83
101569.16
101562.08
101555.08
101550.41
101546.36
101543.29
101542.49
101544.3
101550.92
101556.46
101560.33
101563.67
101567.77
101543.87
101614.71
101614.03
101613.25
101612.34
101611.39
101610.05
101608.64
101607.07
101604.87
101602.82
101599.96
101597.02
101593.68
101590.24
101586.64
101583.06
101576.25
101569.22
101564.69
101561.89
101555.96
101550.07
101548.33
101548.51
101551.52
101556.75
101562.01
101563.26
101566.32
101570.33
101548.9
101604.91
101604.36
101603.7
101603.06
101602.25
101601.4
101600.29
101598.78
101597.22
101595.17
101593.34
101591.28
101588.69
101586.18
101584.88
101582.77
101579.27
101571.59
101565.35
101562.28
101560.08
101557.77
101556.06
101556.14
101557.07
101558.89
101561.58
101562.06
101565.12
101567.48
101560.45
101599.1
101598.74
101598.29
101597.76
101597.16
101596.39
101595.65
101594.91
101594.09
101593.25
101591.83
101590.11
101588.35
101586.18
101583.57
101580.36
101577.81
101578.3
101575.88
101571.39
101568.78
101564.87
101562.8
101562.44
101561.86
101560.54
101560.16
101560.01
101564.48
101566.24
101569.7
101597.02
101596.74
101596.4
101596.03
101595.58
101595.18
101594.64
101594.1
101593.49
101592.63
101591.87
101590.89
101589.72
101588.22
101586.57
101585.26
101583.7
101581.38
101579.37
101576.43
101573.41
101571.42
101568.08
101565.64
101563.99
101562.8
101563.49
101564.09
101567.26
101568.14
101557.52
101600.43
101600.14
101599.81
101599.43
101599.01
101598.51
101597.97
101597.36
101596.65
101595.88
101594.92
101593.86
101592.76
101591.61
101590.37
101589.07
101587.61
101586.49
101585.02
101582.73
101579.5
101575.47
101571.57
101567.63
101565.03
101563.54
101564.49
101566.18
101567.66
101565.88
101574.61
101607.89
101607.67
101607.42
101607.12
101606.79
101606.41
101605.98
101605.5
101604.95
101604.4
101603.79
101603.2
101602.57
101601.88
101601.09
101599.99
101598.98
101597.31
101594.37
101591.76
101589.23
101586.95
101585.29
101583.1
101579.22
101574.62
101571.13
101569.66
101566.62
101562.97
101590.71
101616.5
101616.29
101616.04
101615.8
101615.5
101615.22
101614.88
101614.53
101614.15
101613.66
101613.26
101612.61
101612.03
101611.15
101609.99
101608.56
101606.66
101605.02
101603.98
101602.81
101600.82
101598.3
101597.05
101593.89
101588.54
101582.58
101577.98
101574.6
101570.35
101568.26
101604.72
101615.02
101614.91
101614.78
101614.62
101614.44
101614.2
101613.96
101613.66
101613.35
101613.1
101612.71
101612.45
101611.91
101611.5
101610.95
101610.15
101608.71
101606.56
101603.31
101597.26
101597.63
101600.23
101598.4
101584.41
101580.55
101580.92
101579.23
101576.5
101573.46
101572.07
101581.34
100791.79
100730.18
100715.75
100756.29
100776.61
100776.09
100776.64
100781.51
100798.6
100827.89
100870.53
100922.15
100978.26
101037.36
101094.4
101149.74
101201.95
101248.54
101289.86
101326.02
101357.13
101383.32
101405.33
101425.52
101445.9
101466.86
101484.45
101500.87
101525.7
101544.75
101525.23
100820.57
100820.29
100783.83
100756.38
100751.25
100751.2
100751.4
100758.88
100784.96
100821.52
100869.88
100924.04
100982.38
101041.98
101099.41
101154.48
101206.29
101252.57
101293.27
101328.67
101359.32
101385.06
101406.56
101426.41
101446.57
101468.07
101485.13
101501.64
101526.08
101545.09
101529.04
100818.03
100809.85
100774.22
100730.96
100713.17
100712.76
100719.73
100740.23
100771.3
100816.39
100869.31
100925.89
100986.67
101047.02
101105.31
101159.27
101210.46
101256.53
101296.51
101331.21
101361.37
101386.69
101407.76
101427.26
101447.38
101469.08
101485.91
101502.42
101526.36
101545.39
101532.22
100777.02
100750.32
100714.6
100681.3
100668.25
100675
100687.19
100717.02
100759.51
100810.65
100867.91
100929.04
100991.06
101052.2
101110.72
101164.09
101214.52
101260.18
101299.66
101333.71
101363.31
101388.21
101408.95
101428.09
101448.5
101469.88
101486.68
101503.19
101526.63
101545.62
101533.77
100697.81
100670.12
100637.18
100615.06
100615.56
100630.91
100654.66
100692.82
100751.33
100807.26
100866.84
100931.39
100994.51
101057.2
101115.72
101169.25
101218.69
101263.73
101302.91
101336.2
101365.25
101389.67
101410.05
101428.94
101449.82
101470.61
101487.4
101503.95
101526.92
101545.8
101533.44
100586.86
100568.3
100546.44
100540.2
100549.24
100577.65
100625.31
100674.76
100737.18
100801.18
100866.35
100933.44
100997.94
101061.62
101120.95
101174.46
101222.9
101267.26
101305.91
101338.61
101367.1
101391.09
101411.16
101429.83
101451.23
101471.34
101488.07
101504.7
101527.27
101545.95
101533.43
100445.51
100436.43
100438.7
100464.27
100494.22
100529.19
100593.37
100662.53
100724.19
100794.72
100867.14
100934.91
101001.03
101065.66
101125.84
101179.31
101226.96
101270.65
101308.87
101341.1
101368.97
101392.52
101412.24
101430.82
101452.62
101472
101488.78
101505.42
101527.66
101546.08
101534.62
100275.24
100291.41
100317.52
100366.57
100431.98
100489.64
100560.32
100645.39
100720.05
100790.95
100866.03
100937.48
101004.8
101069.82
101130.29
101183.87
101231.15
101274
101311.74
101343.5
101370.76
101393.88
101413.33
101431.93
101453.82
101472.6
101489.56
101506.06
101528.02
101546.21
101535.04
100105.5
100164.38
100214.91
100266.2
100349.53
100450.56
100543.21
100622.13
100707.07
100789.13
100866.01
100941.31
101009.99
101074.55
101134.4
101187.86
101235.14
101277.28
101314.39
101345.77
101372.49
101395.18
101414.39
101433.09
101454.83
101473.18
101490.34
101506.64
101528.3
101546.35
101534.89
99917.962
100026.62
100135.69
100218.29
100295.7
100404.85
100512.68
100602.71
100700.52
100786.44
100868.29
100946.16
101015.89
101079.66
101138.49
101191.57
101238.6
101280.34
101316.81
101347.85
101374.12
101396.39
101415.42
101434.24
101455.69
101473.83
101491.1
101507.09
101528.52
101546.49
101534.92
99759.214
99866.353
100015.35
100160.52
100276.7
100382.66
100490.21
100591.35
100690.98
100784.96
100871.42
100951.22
101021.23
101084.61
101142.63
101195.22
101241.76
101283.3
101319.13
101349.76
101375.69
101397.55
101416.38
101435.31
101456.4
101474.55
101491.82
101507.36
101528.67
101546.65
101539.03
99662.503
99791.134
99904.843
100061.62
100235.49
100359.14
100468.92
100594.24
100692.28
100784.41
100874.67
100955.7
101026.72
101090.01
101147.12
101199.26
101244.83
101286.13
101321.56
101351.65
101377.17
101398.75
101417.35
101436.3
101457.05
101475.3
101492.48
101507.51
101528.75
101546.84
101539.15
99523.377
99733.984
99889.063
100021.96
100184.7
100329.59
100461.41
100578.81
100689.52
100786.21
100876.82
100960.87
101033.4
101096.4
101152.23
101203.57
101248.19
101289.04
101324.19
101353.61
101378.71
101400.03
101418.38
101437.26
101457.74
101475.96
101493.05
101507.66
101528.9
101547.06
101541.58
99407.928
99614.852
99849.537
100032.57
100179.58
100317.72
100444.1
100569.99
100684.74
100788.28
100879.37
100966.84
101040.13
101103.68
101158.43
101208.21
101252.16
101292.18
101326.82
101355.66
101380.34
101401.36
101419.54
101438.2
101458.37
101476.53
101493.53
101507.83
101529.11
101547.32
101542.43
99415.571
99578.039
99799.055
99978.555
100139.96
100305.68
100447.35
100562.32
100679.48
100789.08
100883.86
100972.95
101045.81
101109.98
101164.56
101213.21
101256.6
101295.54
101329.21
101357.71
101382.04
101402.71
101420.74
101439.15
101458.95
101477.1
101493.95
101508.03
101529.19
101547.62
101540.6
99412.77
99607.34
99789.536
99963.241
100114.65
100276.07
100435.16
100565.32
100684.78
100789.56
100887.67
100975.24
101049.2
101113.72
101170.23
101218.17
101260.68
101298.63
101331.57
101359.7
101383.71
101404.06
101421.9
101440.08
101459.56
101477.64
101494.34
101508.39
101529.18
101547.95
101541.21
99405.703
99604.595
99805.779
99982.574
100138.21
100289.09
100432.5
100564.3
100685.69
100790.68
100887.32
100973.68
101051.33
101114.18
101173.82
101222.62
101264.13
101301.2
101334.05
101361.6
101385.37
101405.44
101423.02
101441
101460.23
101478.05
101494.79
101509.1
101529.16
101548.31
101542.18
99523.006
99680.526
99847.032
100008.56
100159.89
100308.02
100446.28
100570.61
100687.79
100793.13
100887.76
100971.57
101048.72
101112.72
101173.68
101224.47
101266.52
101303.54
101336.47
101363.38
101386.96
101406.76
101424.11
101441.85
101460.96
101478.54
101495.32
101510.05
101529.19
101548.68
101541.03
99628.648
99774.714
99920.936
100062.93
100200.01
100336.22
100465.17
100585.74
100698.26
100800.03
100891.76
100971.82
101047.05
101112.6
101171.65
101223.6
101268.24
101305.61
101338.3
101364.97
101388.32
101407.94
101425.07
101442.55
101461.71
101478.98
101495.97
101510.84
101529.33
101549.02
101541.55
99757.671
99882.902
100011.96
100137.39
100259.38
100380
100497.54
100612.36
100718.27
100815.68
100902.71
100980.71
101052.21
101115.59
101171.67
101222.57
101268.44
101305.3
101337.75
101365.26
101388.44
101407.99
101425.06
101442.45
101461.93
101479.24
101496.39
101511.34
101529.52
101549.33
101542.18
99899.378
100007.81
100120
100229.11
100334.64
100441.43
100546.57
100652.36
100749.24
100840.15
100922.82
100996.66
101063.66
101124.11
101176.93
101225.11
101267.68
101303.29
101335.48
101363.5
101386.71
101406.35
101423.58
101441.1
101461.28
101479.36
101496.19
101512
101529.32
101549.6
101542.61
100052.83
100146.45
100242.29
100335.61
100427.17
100519.55
100610.14
100702.76
100789.14
100874.23
100952.03
101020.94
101083.14
101138.98
101188.32
101234.2
101274.06
101308
101339.02
101364.23
101386.98
101406.2
101422.98
101440.49
101460.95
101480.2
101496.43
101513.84
101528.97
101549.88
101542.51
100223.64
100300.2
100379.86
100457.15
100532.84
100610.08
100683.96
100760.95
100838.86
100915.58
100987.39
101052.38
101109.44
101161.24
101208.14
101251.13
101288.7
101321.01
101350.11
101374.21
101395.55
101413.41
101428.48
101444.89
101464.09
101482.7
101498.72
101516.21
101529.99
101550.18
101541.71
100429.83
100471.88
100528.55
100588.35
100646.88
100705.4
100762.84
100827.37
100895.82
100962.61
101027.76
101088.81
101142.14
101190.18
101235.31
101275.57
101310.33
101340.73
101367.58
101390.45
101409.79
101426.11
101439.46
101453.73
101470.89
101487.35
101502.4
101518.74
101532.75
101550.47
101540.06
100963.42
100954.2
100894.53
100855.15
100825.84
100806.51
100797.6
100799.25
100810.91
100836.14
100872.4
100921.81
100975.05
101033.54
101090.13
101145.59
101198.04
101245.03
101286.87
101323.51
101355.03
101381.62
101404.04
101424.42
101445.02
101465.39
101483.69
101499.89
101524.99
101544.35
101523.27
101016.5
101026.19
100983
100921.94
100868.16
100835.09
100818.02
100815.04
100825.61
100846.01
100880.41
100927
100978.01
101034.87
101090.41
101145.37
101197.35
101244.19
101286.04
101322.57
101354.16
101380.51
101402.96
101423.28
101443.98
101463.64
101482.86
101498.75
101524.02
101544.05
101522.17
101038.05
101027.46
100990.82
100939.78
100891.07
100858.09
100837.5
100832.26
100839.51
100857.77
100891.53
100935.83
100985.65
101040.37
101094.32
101147.98
101198.91
101245.06
101286.45
101322.6
101353.97
101380.15
101402.02
101422.07
101442.65
101461.49
101481.82
101497.28
101522.6
101543.83
101519.97
101054.97
101031.03
100985.39
100942.24
100903.79
100875.18
100854.58
100846.96
100852.54
100870.54
100902.81
100945.07
100993.45
101045.96
101098.7
101150.83
101200.69
101246.1
101286.99
101322.74
101353.81
101379.98
101401.41
101421.03
101441.23
101459.45
101480.79
101495.81
101521.11
101543.64
101518.72
101069.89
101031.37
100983.45
100944.09
100910.11
100885.02
100866.69
100860.89
100866.37
100882.88
100913.91
100954.06
101000.77
101051.52
101102.88
101153.64
101202.46
101247.11
101287.54
101322.87
101353.64
101379.69
101401.05
101420.23
101439.93
101457.99
101479.84
101494.62
101519.86
101543.47
101518.7
101087.38
101030.83
100983.12
100942.77
100910.1
100888.11
100877.6
100873.04
100878.25
100895.35
100925.86
100964.21
101009.18
101057.82
101107.73
101156.9
101204.49
101248.31
101288.16
101323.07
101353.51
101379.31
101400.61
101419.54
101438.92
101457.46
101479.01
101493.86
101519.05
101543.34
101520.14
101048.43
101009.41
100970
100933.06
100904.13
100885.11
100878.8
100881.58
100889.04
100907.6
100937.99
100975.66
101019.29
101065.89
101113.92
101161.28
101207.38
101250.08
101288.99
101323.39
101353.43
101378.9
101400.12
101418.94
101438.43
101457.74
101478.35
101493.66
101518.76
101543.19
101523.21
100979.63
100951.19
100924.21
100900.07
100881.28
100872.88
100875.83
100884.29
100897.8
100919.03
100950.33
100988.97
101030.86
101075.63
101121.57
101167.1
101211.28
101252.5
101290.28
101323.89
101353.39
101378.51
101399.63
101418.49
101438.37
101457.73
101477.84
101493.83
101518.81
101542.99
101524.58
100891.57
100867.97
100855.3
100847.32
100846.58
100853.72
100864.75
100884.08
100905.42
100926.38
100962.52
101001.1
101042.22
101086.28
101129.97
101173.44
101215.66
101255.25
101292.05
101324.64
101353.43
101378.21
101399.16
101418.01
101438.07
101457.34
101477.36
101493.98
101518.75
101542.71
101527.07
100752.31
100744.22
100763.54
100780.35
100801.68
100822.15
100842.38
100873.43
100903.08
100934.29
100973.45
101012.45
101054.23
101096.84
101138.24
101179.86
101220.17
101258.18
101294.01
101325.58
101353.57
101377.97
101398.75
101417.5
101437.51
101456.79
101476.82
101494.04
101518.45
101542.23
101529.21
100584.41
100611.42
100649.98
100690.83
100734.26
100778.2
100827.85
100859.02
100889.72
100941.31
100981.65
101023.47
101064.69
101106.65
101146.41
101186.33
101224.79
101261.24
101295.87
101326.59
101353.81
101377.8
101398.41
101416.99
101436.85
101456.07
101476.23
101494.17
101518.13
101541.43
101530.76
100418.71
100469.74
100538.3
100615.45
100685.69
100749.74
100795.75
100827.01
100888.76
100944.13
100986.97
101033.06
101076.23
101116.61
101155.23
101193.31
101229.82
101264.46
101297.69
101327.74
101354.26
101377.75
101398.08
101416.44
101436.1
101455.3
101475.65
101494.21
101517.75
101540.39
101531.83
100258.1
100364.18
100472.81
100569.13
100635.66
100679.27
100735.16
100821.4
100896.35
100947.03
100999.01
101044.62
101087.67
101127.35
101165.21
101201.33
101235.43
101268.21
101300.04
101329.23
101355.01
101377.88
101397.76
101415.85
101435.35
101454.54
101475.02
101494
101517.32
101539.41
101532.38
100192.44
100284.89
100365.04
100440.19
100532.24
100643.3
100748.95
100839.95
100903.98
100958.91
101011.64
101058.05
101100.92
101140.88
101176.22
101210.65
101242.22
101273.22
101303.28
101331.29
101356.08
101378.13
101397.44
101415.26
101434.77
101453.73
101474.22
101493.58
101516.87
101538.42
101532.53
100091.1
100178.65
100300.25
100433.13
100571.69
100683.26
100773.58
100852.14
100916.84
100975.22
101030.89
101075.93
101120.16
101156.29
101190.42
101221.99
101251.25
101279.87
101307.62
101333.97
101357.45
101378.57
101397.25
101414.73
101434.3
101452.99
101473.27
101493.03
101516.36
101537.14
101531.76
100166.98
100295.91
100422.52
100535.95
100636.07
100721.11
100805.04
100878.02
100938.33
101002.93
101052.55
101101.56
101140.54
101175.86
101207.41
101235.69
101262.61
101287.76
101312.83
101337.08
101359.17
101379.26
101397.26
101414.22
101433.57
101452.49
101472.24
101492.28
101515.73
101535.65
101530.91
100361.16
100466.72
100544.19
100631.53
100706.45
100782.31
100860.23
100919.28
100984.02
101042.43
101087.31
101132.45
101167.38
101200.61
101227.22
101252.69
101275.54
101296.56
101318.69
101340.62
101361.17
101380.19
101397.39
101413.76
101432.63
101451.96
101471.08
101491.2
101515
101534.22
101530.77
100553.83
100607.84
100667.03
100734.12
100798.94
100867.56
100924.77
100980.02
101044.25
101086.39
101131.4
101167.07
101200.61
101226.91
101250.03
101271.4
101289.02
101306.34
101325.21
101344.69
101363.58
101381.3
101397.6
101413.34
101431.7
101451.06
101469.76
101489.82
101514.18
101532.79
101533.37
100722.58
100764.52
100810.74
100860.75
100907.89
100962.27
101007.84
101057.09
101101.18
101136.62
101177.62
101209.44
101234.27
101253.99
101274.32
101290.1
101303.4
101317.13
101332.52
101349.43
101366.31
101382.66
101397.97
101412.99
101430.73
101449.96
101468.34
101488.35
101513.28
101530.98
101532.98
100876.93
100906.83
100940.6
100977.88
101014.45
101051
101092.15
101133.65
101158.59
101200.4
101231.44
101251.66
101268.32
101284.86
101300.72
101310.46
101319.58
101329.31
101340.75
101354.64
101369.46
101384.34
101398.56
101412.73
101429.8
101448.98
101466.87
101486.95
101512.25
101529.09
101532.79
101004.86
101027.13
101053.04
101078.24
101109.16
101148.7
101177.96
101193.42
101214.52
101254.43
101279.12
101292.32
101307.21
101318.41
101326.32
101332.05
101337.29
101342.48
101349.51
101360.47
101373.09
101386.27
101399.35
101412.68
101429.02
101447.89
101465.31
101485.5
101510.97
101527.54
101541.55
101111.16
101130.06
101154.17
101181.35
101203.64
101232.19
101256.03
101267.85
101288.2
101313.14
101326.38
101337.61
101346.61
101350.28
101352.65
101354.72
101354.96
101355.27
101358.74
101366.81
101376.87
101388.48
101400.34
101412.81
101428.28
101446.46
101463.59
101483.77
101509.43
101526.11
101551.51
101191.09
101208.65
101228.7
101249.86
101271.32
101294.76
101314.9
101331.91
101350.14
101366.6
101374.07
101381.43
101382.96
101382.1
101381.24
101378.1
101372.07
101367.87
101367.93
101372.88
101380.95
101390.78
101401.37
101412.96
101427.35
101444.91
101461.78
101481.66
101507.52
101524.64
101551.68
101237.3
101257.45
101277.01
101299.08
101320.69
101341.76
101359.87
101377.63
101394.17
101404.81
101410.69
101415.92
101414.45
101412.45
101406.89
101398.91
101388.13
101379.72
101376.17
101378.49
101384.92
101393.09
101402.47
101413.21
101426.38
101443.28
101460
101479.3
101505.18
101523.23
101552.89
101254.21
101281.74
101309.18
101336
101361.9
101386.51
101408.08
101425.94
101438.62
101445.73
101448.66
101445.26
101438.63
101432.29
101422.92
101413.11
101401.51
101390.34
101383.81
101383.85
101388.26
101395.37
101403.59
101413.57
101425.63
101441.47
101458.16
101477
101502.55
101521.94
101546.3
101263.27
101292.32
101323.86
101354.2
101383.77
101411.05
101435.75
101456.32
101469.13
101471.08
101466.98
101461.5
101459.96
101450.58
101438.52
101425.74
101412.46
101399.78
101390.63
101387.82
101391.11
101397.09
101404.54
101413.89
101424.98
101439.52
101456.08
101474.76
101499.53
101520.17
101541.88
101235.43
101268.45
101305.29
101342.21
101378.33
101412.02
101442.02
101466.16
101483.91
101494.15
101501.55
101493.82
101471.47
101451.37
101435.41
101423.15
101412.73
101402.1
101391.79
101387.87
101392.37
101398.2
101405.14
101414.13
101424.28
101437.48
101453.6
101472.34
101496.32
101517.94
101546.7
101229.29
101271.17
101312.38
101353.16
101392.02
101427.62
101457.56
101472.44
101478.71
101491.09
101499.49
101480.56
101456.33
101436.87
101420.8
101410.08
101403.75
101397.27
101389.63
101387.9
101392.42
101398.19
101405.15
101413.94
101423.44
101435.52
101450.93
101469.75
101493.38
101515.12
101560.55
101250.97
101273.67
101302.09
101330.68
101359.37
101378.2
101388.84
101406.63
101434.16
101450.55
101445.62
101426.6
101414.06
101406.26
101400.9
101397.32
101397.84
101395.71
101391.24
101389.01
101390.91
101396.94
101404.31
101413.2
101422.45
101433.52
101448.15
101467.08
101490.82
101512.02
101572.64
101076.37
101092.33
101111.73
101137.29
101169.08
101203.42
101236.57
101269.92
101302.08
101310.44
101318
101348.92
101377.77
101395.57
101403.93
101401.98
101393.19
101387.84
101385.61
101384.51
101387.9
101394.9
101402.61
101411.86
101421.15
101431.37
101445.35
101464.45
101488.45
101508.89
101568.4
100931.03
100931.97
100924.81
100906.14
100912.08
100960.33
101009.34
101051.14
101095.88
101147.81
101207.87
101264.16
101309.42
101350.12
101367.65
101372.77
101371.36
101370.29
101372.47
101376.48
101383.3
101391.26
101399.85
101409.76
101419.22
101429.12
101442.83
101462.05
101486.21
101505.69
101556.24
100812.34
100833.24
100855.76
100884.56
100904.36
100913.43
100922.4
100940.49
100995.37
101071.38
101142.67
101199.84
101251.02
101289.58
101296.21
101309.54
101328.67
101345.23
101358.63
101368.82
101377.96
101386.68
101396
101406.73
101416.55
101426.52
101440.42
101459.7
101483.76
101501.89
101523.49
100682.22
100711.22
100755.08
100808.8
100859.8
100905.06
101004.85
101077.68
101113.21
101109.32
101121.87
101145.46
101174.13
101206.38
101253.42
101291.15
101319.06
101339.33
101355.28
101367.1
101375.12
101381.96
101391.56
101402.56
101412.91
101423.34
101437.73
101457.12
101480.6
101497.37
101523.53
100827.04
100835.71
100840.03
100848.25
100862.7
100880.53
100900.7
100922.1
100960.92
101023.78
101078.93
101134.83
101194.1
101246.04
101285.96
101312.48
101331.85
101345.45
101357.02
101365.66
101371.76
101377.98
101387.31
101397.54
101408.28
101419.22
101434.18
101454.05
101476.92
101491.78
101525.22
100906.87
100928.52
100951
100974.7
101002.22
101034.25
101071.41
101109.29
101150.04
101198.84
101247.45
101285.44
101308.88
101323.05
101332.09
101341.55
101348.47
101352.49
101358.24
101366.84
101371.31
101375.96
101383.52
101391.84
101402.06
101414.15
101429.96
101450.31
101472.9
101486.91
101517.89
101226.6
101238.05
101249.47
101267.14
101283.68
101295.93
101313.3
101334.49
101350
101359.32
101371.17
101377.8
101378.46
101370.38
101363.04
101364.22
101364.96
101366.65
101367.31
101369.06
101371.27
101375.1
101380.62
101386.92
101395.04
101407.58
101424.79
101445.71
101468.46
101482.37
101499.88
101317
101333.18
101348.64
101364.44
101379.02
101392.37
101402.94
101411.55
101417.05
101418.17
101417.9
101415.16
101405.6
101382.81
101377.53
101385.63
101386.54
101384.94
101381.6
101378.02
101374.84
101372.87
101376.2
101380.38
101386.5
101399.61
101418.36
101440.22
101463.81
101477.24
101504.79
101322.13
101335.83
101351.94
101364.74
101369.89
101372.03
101375.41
101387.42
101406.03
101420.15
101428.47
101433.84
101437.35
101440.7
101432.3
101410.72
101394.13
101383.65
101376.16
101369.65
101366.45
101367.04
101369.59
101373.07
101377.78
101390.82
101410.78
101433.99
101458.89
101470.86
101512
101251.73
101256.4
101258.9
101265.64
101280.26
101297.17
101312.24
101318.71
101320.58
101325.53
101330.69
101334.57
101337.83
101339.97
101345.06
101353.39
101356.11
101355.17
101353.63
101352.65
101354.67
101359.06
101362.71
101365.84
101369.87
101382.41
101402.6
101427
101453.17
101463.79
101501.56
101178.74
101179.55
101180.56
101182.14
101184.05
101186.33
101189.08
101192.83
101199.31
101210.63
101226.03
101244.89
101268.19
101291.05
101309.59
101316.1
101314.48
101316.84
101320.77
101326.92
101335.23
101343.91
101351.25
101356.44
101361.6
101374.21
101394.45
101419.28
101446.29
101456.68