/*--------------------------------*- C++ -*----------------------------------*\
| =========                 |                                                 |
| \\      /  F ield         | OpenFOAM: The Open Source CFD Toolbox           |
|  \\    /   O peration     | Version:  2406                                  |
|   \\  /    A nd           | Website:  www.openfoam.com                      |
|    \\/     M anipulation  |                                                 |
\*---------------------------------------------------------------------------*/
FoamFile
{
    version     2.0;
    format      ascii;
    arch        "LSB;label=32;scalar=64";
    class       volScalarField;
    location    "0.01";
    object      T;
}
// * * * * * * * * * * * * * * * * * * * * * * * * * * * * * * * * * * * * * //

dimensions      [0 0 0 1 0 0 0];

internalField   nonuniform List<scalar> 
8260
(
292.31533
292.31172
292.33455
292.36408
292.37803
292.40006
292.43579
292.4784
292.53345
292.59187
292.63691
292.67281
292.72844
292.78205
292.81912
292.84444
292.86788
292.9026
292.93418
292.95598
292.97554
292.99413
293.00705
293.02458
293.04848
293.06178
293.07155
293.08357
293.08991
293.10175
293.13945
292.48767
292.44913
292.45043
292.44634
292.45272
292.46927
292.49105
292.52439
292.57654
292.62143
292.66232
292.69949
292.75582
292.80601
292.84099
292.86365
292.88324
292.91672
292.94665
292.96865
292.98724
293.00502
293.01735
293.0331
293.05456
293.06575
293.07482
293.08578
293.09302
293.10282
293.13933
292.67601
292.61228
292.5553
292.55673
292.55976
292.54609
292.56009
292.58627
292.61536
292.65734
292.69404
292.72437
292.78077
292.8268
292.85453
292.87707
292.89619
292.92758
292.95705
292.97782
292.99527
293.01247
293.02463
293.0389
293.05917
293.06958
293.07815
293.08839
293.09606
293.10398
293.13988
292.75991
292.68711
292.64994
292.64894
292.63039
292.61548
292.62867
292.63422
292.65976
292.68981
292.71554
292.75237
292.80748
292.84443
292.86708
292.88735
292.90461
292.93492
292.96295
292.984
293.00098
293.01781
293.02911
293.04339
293.06188
293.07181
293.08005
293.09031
293.09808
293.1054
293.14076
292.93459
292.88194
292.82272
292.7858
292.74701
292.72615
292.70671
292.70645
292.71877
292.73153
292.73934
292.77587
292.82278
292.85487
292.87125
292.89207
292.9127
292.94002
292.96588
292.98724
293.00417
293.02093
293.03159
293.0463
293.06378
293.0736
293.08191
293.09201
293.09986
293.10702
293.14229
293.00602
292.94632
292.87475
292.83449
292.80235
292.77686
292.75702
292.76601
292.76704
292.76468
292.76774
292.79774
292.8492
292.8699
292.87914
292.90033
292.92027
292.94454
292.96916
292.99032
293.00721
293.0238
293.03455
293.04861
293.06523
293.07479
293.08353
293.09421
293.10167
293.10882
293.14398
293.12214
293.06749
293.02253
292.97951
292.93688
292.89572
292.85768
292.84381
292.8262
292.80269
292.80008
292.83451
292.86128
292.87091
292.87948
292.90951
292.92925
292.95046
292.96968
292.99149
293.00835
293.02529
293.0365
293.05009
293.06638
293.07577
293.08556
293.09607
293.10362
293.11077
293.14508
293.16081
293.10455
293.05864
293.01773
292.97571
292.93554
292.89737
292.88291
292.85159
292.83114
292.84562
292.8815
292.89394
292.88989
292.8968
292.91923
292.9349
292.95594
292.97483
292.99568
293.01097
293.02763
293.03946
293.05179
293.06735
293.07674
293.08775
293.09777
293.10595
293.11282
293.1457
293.24305
293.19683
293.16205
293.11521
293.07541
293.03765
293.00073
292.96726
292.92127
292.88884
292.9031
292.92499
292.91322
292.90435
292.91192
292.92879
292.94882
292.96068
292.97821
292.99823
293.01234
293.02884
293.04146
293.05316
293.06816
293.07786
293.0902
293.1
293.10872
293.11493
293.14848
293.27533
293.23611
293.18761
293.1306
293.09794
293.06667
293.02732
292.98716
292.93813
292.94439
292.96117
292.96114
292.94473
292.929
292.92819
292.94389
292.95762
292.96482
292.98485
293.00473
293.01676
293.03182
293.04405
293.05481
293.06943
293.07912
293.0926
293.10245
293.11178
293.11719
293.15069
293.30536
293.27877
293.24791
293.21611
293.18439
293.13848
293.09739
293.0652
293.04348
293.02078
293.0102
292.99241
292.96183
292.92912
292.94536
292.96491
292.96335
292.96673
292.98708
293.00829
293.01951
293.03331
293.04592
293.05626
293.07078
293.08089
293.09492
293.10529
293.11546
293.11971
293.15216
293.29964
293.28578
293.26215
293.23212
293.19474
293.14689
293.10792
293.09945
293.07945
293.05858
293.03555
293.00403
292.96271
292.93503
292.96794
292.98371
292.98501
292.98444
292.99599
293.01405
293.02502
293.03772
293.04928
293.05863
293.07287
293.08384
293.09803
293.10861
293.12002
293.12268
293.15915
293.29576
293.2774
293.26887
293.25537
293.24204
293.21498
293.17753
293.14702
293.12333
293.09816
293.0544
293.01078
293.00011
293.01437
293.00546
292.9998
293.0032
293.00632
293.00451
293.01395
293.02675
293.04031
293.0519
293.0619
293.07576
293.08731
293.10262
293.11369
293.12442
293.12656
293.17969
293.28863
293.27656
293.26
293.24678
293.2247
293.19388
293.17037
293.14646
293.12416
293.09316
293.05651
293.04577
293.04889
293.05059
293.04018
293.02918
293.02589
293.02339
293.01862
293.02387
293.03335
293.04628
293.05825
293.06765
293.08023
293.0903
293.10722
293.11923
293.12972
293.13157
293.18376
293.27342
293.26013
293.24904
293.23851
293.23033
293.2269
293.20981
293.18479
293.15687
293.12903
293.1065
293.10289
293.08686
293.07429
293.06022
293.04548
293.0359
293.02979
293.02621
293.02955
293.03907
293.05161
293.06445
293.07343
293.08503
293.09381
293.11162
293.12484
293.1347
293.13757
293.18478
293.26124
293.25938
293.24894
293.23723
293.22263
293.20411
293.18685
293.17159
293.15887
293.15068
293.14349
293.12667
293.10466
293.09703
293.07271
293.04698
293.05322
293.05161
293.04088
293.0392
293.04828
293.05838
293.06996
293.08049
293.09121
293.09723
293.1154
293.13054
293.14003
293.14292
293.18341
293.23351
293.2303
293.22739
293.22513
293.22491
293.22255
293.21635
293.20478
293.19038
293.17709
293.15667
293.13128
293.11735
293.10476
293.09268
293.08133
293.06417
293.06682
293.06241
293.05313
293.05619
293.06436
293.07523
293.0878
293.09671
293.10068
293.11844
293.13569
293.14486
293.14668
293.18167
293.22468
293.21771
293.21266
293.20789
293.2048
293.19731
293.18688
293.17707
293.15989
293.14008
293.13241
293.12801
293.12261
293.1081
293.09802
293.08936
293.07918
293.08125
293.08138
293.07296
293.06893
293.07447
293.08431
293.09619
293.10174
293.10724
293.12094
293.13797
293.14831
293.14868
293.18097
293.21269
293.21221
293.20814
293.20452
293.20143
293.19751
293.1904
293.18558
293.18393
293.17865
293.15879
293.14036
293.1245
293.1062
293.11265
293.10533
293.09875
293.09383
293.09292
293.0821
293.08014
293.08576
293.09173
293.10175
293.10672
293.1103
293.12322
293.13914
293.15039
293.14967
293.18237
293.19567
293.19403
293.19124
293.18861
293.18689
293.18322
293.17628
293.17252
293.16827
293.16668
293.16118
293.14472
293.13481
293.12911
293.12746
293.12137
293.10784
293.09546
293.09327
293.09691
293.09272
293.09129
293.09728
293.10402
293.11085
293.11254
293.12403
293.13934
293.15118
293.15006
293.18155
293.19053
293.18797
293.18727
293.18387
293.17747
293.17269
293.17192
293.1699
293.16637
293.15901
293.15506
293.15563
293.15427
293.14728
293.13466
293.12896
293.12264
293.11416
293.10992
293.10742
293.10095
293.09479
293.09816
293.10325
293.11115
293.11391
293.12301
293.14058
293.14922
293.14948
293.17231
293.16736
293.16744
293.16725
293.16749
293.16426
293.16154
293.15941
293.1562
293.15351
293.15006
293.14542
293.14086
293.13804
293.1335
293.12801
293.12462
293.12213
293.12017
293.11413
293.10681
293.1005
293.09919
293.10143
293.10261
293.10904
293.11447
293.12579
293.13985
293.14589
293.14636
293.16961
293.15273
293.1521
293.14864
293.14629
293.14804
293.15051
293.1497
293.14606
293.1441
293.13959
293.14068
293.13928
293.13339
293.13073
293.12319
293.11431
293.10814
293.10027
293.09253
293.09081
293.0932
293.09496
293.09883
293.09925
293.10343
293.11346
293.12439
293.13221
293.14077
293.14076
293.15427
293.12254
293.12265
293.12449
293.12535
293.12473
293.12229
293.12046
293.11786
293.116
293.11505
293.11408
293.10951
293.10283
293.09796
293.09598
293.09448
293.09059
293.08492
293.07896
293.07919
293.0788
293.07881
293.08014
293.08362
293.08793
293.09896
293.11036
293.11607
293.1273
293.1265
293.14349
293.09118
293.09124
293.09024
293.08888
293.08747
293.08754
293.08728
293.08784
293.08642
293.08454
293.08117
293.07853
293.07868
293.07584
293.07313
293.07393
293.07277
293.0696
293.06798
293.06791
293.06701
293.0669
293.06522
293.06761
293.07265
293.08073
293.09003
293.09348
293.1063
293.10257
293.13401
293.06754
293.06754
293.06749
293.06735
293.06705
293.06674
293.06638
293.06602
293.06574
293.06527
293.06474
293.06491
293.06401
293.06521
293.06662
293.06553
293.06292
293.05808
293.0569
293.05539
293.05512
293.05577
293.05747
293.06126
293.06293
293.06545
293.0705
293.07174
293.08233
293.08179
293.11886
293.06641
293.06635
293.06624
293.0661
293.06595
293.06571
293.06553
293.06536
293.06531
293.0653
293.06506
293.06464
293.06428
293.06316
293.06205
293.06187
293.06345
293.06322
293.06062
293.05983
293.05565
293.05056
293.0505
293.05498
293.05578
293.05521
293.05629
293.05984
293.06419
293.06565
293.07116
293.06946
293.0692
293.06896
293.06867
293.06836
293.06808
293.06767
293.06723
293.06691
293.0665
293.06642
293.06623
293.06623
293.06612
293.06599
293.06637
293.06618
293.06507
293.0654
293.06224
293.05913
293.05786
293.0558
293.05392
293.05173
293.04908
293.0484
293.05035
293.05106
293.04828
293.0597
293.06629
293.06621
293.06593
293.06571
293.06533
293.0651
293.06484
293.06461
293.06444
293.06381
293.06372
293.06308
293.06363
293.06386
293.06335
293.06574
293.0655
293.06319
293.06639
293.06424
293.06005
293.05898
293.05669
293.05416
293.05067
293.04883
293.04809
293.04729
293.04102
293.03516
293.06482
293.01506
293.01524
293.01518
293.01512
293.01512
293.01514
293.01514
293.01523
293.01527
293.0155
293.01574
293.01654
293.01831
293.02
293.02283
293.02407
293.02376
293.02521
293.02574
293.02526
293.02442
293.02861
293.03123
293.03011
293.02771
293.02998
293.03267
293.03365
293.02799
293.0222
293.05882
292.97266
292.97274
292.97273
292.97279
292.97286
292.97309
292.97332
292.97369
292.97414
292.97441
292.97518
292.97575
292.97726
292.97849
292.97956
292.98181
292.98439
292.98685
292.99172
292.99468
293.00267
293.00509
293.00383
293.00097
293.00194
293.00488
293.00968
293.01445
293.01791
293.01609
293.02537
293.80036
293.41427
292.96017
292.72464
292.61814
292.5674
292.53032
292.50067
292.4836
292.4721
292.49552
292.53307
292.58169
292.62856
292.67512
292.71889
292.76163
292.80445
292.84436
292.87653
292.90617
292.93042
292.95371
292.97601
293.00194
293.02383
293.03493
293.04434
293.06231
293.07717
293.12468
293.07073
292.7792
292.53436
292.50497
292.51611
292.51779
292.48603
292.47151
292.46056
292.46132
292.49863
292.54323
292.5928
292.63835
292.68465
292.72747
292.76994
292.81202
292.85017
292.88104
292.90978
292.93348
292.95628
292.97809
293.00369
293.02571
293.03598
293.04543
293.06341
293.07766
293.12844
292.7736
292.6081
292.52074
292.50716
292.5153
292.48829
292.45449
292.43817
292.43726
292.44479
292.4883
292.54026
292.59062
292.63624
292.6834
292.72823
292.77159
292.81402
292.85208
292.88279
292.91136
292.93527
292.95755
292.97911
293.00461
293.02719
293.03707
293.04649
293.06416
293.07795
293.13089
292.62405
292.50274
292.47113
292.4863
292.46933
292.42917
292.40802
292.40908
292.42388
292.43823
292.49242
292.55077
292.59872
292.64514
292.69293
292.73746
292.77959
292.82127
292.85776
292.88714
292.91462
292.93818
292.96001
292.98106
293.00666
293.02848
293.03817
293.04762
293.06506
293.07832
293.13136
292.50007
292.42302
292.4313
292.43974
292.40384
292.37806
292.36883
292.37851
292.4086
292.43055
292.48485
292.54806
292.59622
292.64343
292.69296
292.73845
292.78112
292.82314
292.85936
292.88867
292.91601
292.93972
292.96124
292.9821
293.00824
293.02965
293.03936
293.04882
293.0659
293.0787
293.1297
292.35153
292.3483
292.38225
292.36827
292.33257
292.33076
292.33203
292.35134
292.39489
292.43423
292.49158
292.55572
292.6015
292.65175
292.70178
292.74768
292.7892
292.8297
292.86459
292.89298
292.91913
292.94255
292.96356
292.98411
293.01063
293.03089
293.04043
293.05025
293.0669
293.07911
293.12654
292.24081
292.27702
292.29958
292.27824
292.25885
292.27077
292.30056
292.32441
292.37673
292.42948
292.49409
292.55231
292.59733
292.64969
292.70159
292.74918
292.79102
292.83143
292.86624
292.8945
292.92048
292.94401
292.96474
292.98532
293.0126
293.03206
293.04173
293.05171
293.06801
293.07956
293.12435
292.1322
292.17052
292.19578
292.19756
292.20441
292.21712
292.26043
292.30858
292.36141
292.42395
292.49992
292.55753
292.60166
292.65745
292.7102
292.75767
292.79895
292.83748
292.871
292.89868
292.92346
292.94678
292.96698
292.98754
293.01496
293.03322
293.04305
293.05329
293.06913
293.08008
293.125
291.99366
292.05794
292.08117
292.09845
292.14163
292.1784
292.23219
292.29182
292.35548
292.41713
292.49654
292.55281
292.59932
292.65599
292.71032
292.75888
292.80066
292.839
292.8725
292.90021
292.92478
292.94812
292.96812
292.98906
293.0166
293.03429
293.04456
293.05477
293.0702
293.08067
293.1245
291.83882
291.96245
291.98493
292.01542
292.08916
292.14693
292.20769
292.28049
292.35762
292.41974
292.49816
292.55972
292.6078
292.66519
292.71852
292.76566
292.80743
292.84445
292.87665
292.90397
292.92759
292.95067
292.97027
292.99141
293.01869
293.03551
293.04606
293.05607
293.07121
293.08136
293.12368
291.70543
291.83785
291.90699
291.94612
292.02496
292.10947
292.18547
292.26574
292.35077
292.43342
292.50042
292.55616
292.60672
292.66428
292.71859
292.76588
292.80862
292.84576
292.87776
292.9053
292.92884
292.95185
292.97138
292.99302
293.02009
293.03673
293.04759
293.05711
293.07218
293.08217
293.12561
291.56363
291.74459
291.82881
291.90059
291.99547
292.06705
292.15797
292.24857
292.33835
292.43552
292.50456
292.56219
292.61608
292.67388
292.72678
292.77208
292.81397
292.85064
292.88144
292.90867
292.93153
292.95421
292.97337
292.99531
293.02188
293.03823
293.04909
293.05798
293.07307
293.08312
293.12789
291.48409
291.6388
291.73551
291.84774
291.97704
292.06029
292.16165
292.24636
292.33203
292.43162
292.50112
292.55848
292.61724
292.67384
292.72661
292.77214
292.81441
292.85168
292.88281
292.90999
292.93277
292.95551
292.97458
292.99689
293.02332
293.03959
293.05036
293.05884
293.07391
293.08422
293.12927
291.43417
291.58783
291.67889
291.79616
291.92302
292.03765
292.15464
292.24803
292.33679
292.43177
292.50411
292.56712
292.62848
292.68612
292.73544
292.77869
292.81954
292.85632
292.88683
292.91338
292.93553
292.95798
292.97667
292.99912
293.02519
293.04097
293.05165
293.05985
293.07484
293.08543
293.12839
291.31124
291.53954
291.68544
291.7997
291.90166
292.00976
292.13317
292.23884
292.33261
292.4372
292.50482
292.56678
292.62866
292.68795
292.73626
292.77906
292.82037
292.85765
292.88816
292.91469
292.93707
292.9595
292.97813
293.0007
293.02659
293.04229
293.05277
293.0609
293.07579
293.0868
293.1275
291.28082
291.45029
291.62109
291.77325
291.90185
292.01568
292.12076
292.22429
292.33241
292.43488
292.50738
292.57352
292.63826
292.69699
292.74415
292.78575
292.82523
292.8622
292.89169
292.91788
292.93986
292.96207
292.98023
293.0028
293.02842
293.04363
293.05407
293.06213
293.07674
293.08829
293.12718
291.36457
291.5116
291.60497
291.72598
291.87483
292.01814
292.13312
292.22823
292.33485
292.43091
292.50645
292.57162
292.63706
292.69763
292.74539
292.78685
292.82545
292.86327
292.89312
292.91906
292.94153
292.96376
292.98164
293.00429
293.02987
293.04483
293.05529
293.06377
293.07776
293.08987
293.13142
291.36547
291.55777
291.68392
291.78382
291.88822
292.00891
292.13074
292.2301
292.33891
292.43345
292.49956
292.57021
292.64024
292.70027
292.74797
292.78993
292.82814
292.8666
292.89665
292.92205
292.94433
292.96627
292.98369
293.00616
293.03158
293.04598
293.05678
293.06591
293.07879
293.09149
293.13631
291.45932
291.58059
291.69577
291.81391
291.92538
292.03338
292.14355
292.23394
292.34518
292.43368
292.50136
292.56762
292.63464
292.69877
292.74628
292.78916
292.82744
292.86717
292.89836
292.92332
292.94598
292.96793
292.9851
293.00741
293.033
293.04718
293.05813
293.06823
293.07991
293.09307
293.13868
291.59759
291.70561
291.78104
291.86652
291.96423
292.06372
292.1623
292.25333
292.35841
292.44313
292.50431
292.5689
292.63839
292.70276
292.745
292.78701
292.82721
292.86793
292.89985
292.92464
292.9474
292.96928
292.98638
293.0086
293.03424
293.0483
293.05944
293.07009
293.08105
293.09454
293.13717
291.67248
291.77453
291.85679
291.93641
292.0145
292.10305
292.19952
292.28156
292.37924
292.45908
292.51458
292.57951
292.64537
292.70604
292.74912
292.78608
292.82407
292.86585
292.89854
292.92454
292.94743
292.96937
292.98624
293.00831
293.03468
293.0492
293.06053
293.07134
293.08214
293.09603
293.13769
291.83654
291.91909
291.9813
292.03557
292.09727
292.16814
292.24479
292.32187
292.41074
292.4832
292.54005
292.59159
292.65728
292.71889
292.75656
292.79099
292.82419
292.86319
292.8965
292.92196
292.94537
292.9676
292.98497
293.00729
293.03447
293.05043
293.06108
293.07369
293.08271
293.09747
293.13832
291.9358
292.00635
292.06568
292.1285
292.17614
292.23649
292.3034
292.3664
292.44249
292.51536
292.56619
292.61577
292.67732
292.73325
292.77153
292.8018
292.83294
292.872
292.90556
292.92805
292.95037
292.9714
292.98692
293.00851
293.03555
293.05236
293.06359
293.07716
293.08371
293.09893
293.13875
292.1333
292.18902
292.22081
292.25022
292.28277
292.32399
292.37001
292.41945
292.49109
292.55028
292.60183
292.64204
292.69921
292.7563
292.79492
292.82165
292.8473
292.88383
292.91584
292.93972
292.96113
292.9813
292.99571
293.0158
293.04114
293.05644
293.06708
293.08046
293.08583
293.10044
293.13965
293.63227
293.45617
293.03162
292.79085
292.6522
292.59422
292.55348
292.51926
292.50056
292.48663
292.50643
292.53954
292.58461
292.63099
292.67603
292.71759
292.76006
292.8023
292.84245
292.87467
292.90458
292.92864
292.95231
292.97473
293.00082
293.02206
293.03393
293.04314
293.06127
293.07701
293.12273
293.59587
293.41089
293.02657
292.80885
292.68105
292.61782
292.56959
292.53535
292.51154
292.49763
292.51492
292.54568
292.58925
292.63502
292.67908
292.71913
292.76111
292.80267
292.84238
292.87439
292.9042
292.92757
292.95104
292.97333
292.99949
293.01993
293.03281
293.04173
293.05989
293.07693
293.12106
293.59966
293.37213
293.01167
292.80293
292.68669
292.63325
292.5858
292.54653
292.52346
292.51045
292.52469
292.55454
292.59592
292.63984
292.68249
292.72087
292.76184
292.80264
292.84192
292.8738
292.90356
292.92691
292.94977
292.97194
292.99797
293.01759
293.03149
293.0401
293.0582
293.07689
293.11944
293.64407
293.3794
293.00286
292.79951
292.69237
292.64052
292.5947
292.5597
292.53175
292.51732
292.53672
292.56015
292.59936
292.64492
292.6861
292.72269
292.76366
292.80343
292.84216
292.87351
292.90299
292.9261
292.94898
292.97067
292.99626
293.01536
293.03016
293.03854
293.05652
293.07688
293.11883
293.639
293.3369
292.97145
292.77808
292.69016
292.64623
292.60239
292.56749
292.54205
292.53097
292.54451
292.5695
292.60743
292.64931
292.68842
292.72408
292.76443
292.80343
292.84153
292.87296
292.9023
292.92509
292.94802
292.96966
292.99496
293.01385
293.0289
293.03746
293.05529
293.07697
293.11866
293.66493
293.33923
292.97123
292.7816
292.69343
292.64734
292.60617
292.57554
292.54881
292.53908
292.5584
292.57824
292.61144
292.65599
292.69313
292.72747
292.76679
292.80459
292.84194
292.87253
292.90153
292.92401
292.94702
292.96843
292.99363
293.01317
293.02773
293.0366
293.05431
293.07715
293.11899
293.64813
293.3295
292.93752
292.74519
292.66792
292.63491
292.60652
292.57819
292.55465
292.54994
292.56391
292.58596
292.62315
292.66191
292.69657
292.72945
292.76839
292.80526
292.84154
292.87226
292.90089
292.92278
292.94585
292.96744
292.99322
293.01291
293.02672
293.03629
293.0539
293.07743
293.12027
293.568
293.20726
292.85363
292.69112
292.65227
292.62781
292.59205
292.57626
292.56012
292.55747
292.57811
292.60152
292.62753
292.67163
292.70476
292.73621
292.7726
292.80783
292.84237
292.87183
292.90006
292.92165
292.94476
292.96642
292.99264
293.0123
293.02575
293.03621
293.05349
293.07785
293.12197
293.50308
293.15153
292.79523
292.66631
292.61698
292.58999
292.57177
292.57308
292.55959
292.55926
292.58068
292.60425
292.63804
292.67965
292.70766
292.73824
292.7759
292.8091
292.84292
292.87192
292.89943
292.92044
292.94351
292.96526
292.99178
293.01138
293.0248
293.03594
293.05298
293.07845
293.12414
293.32415
292.94172
292.6203
292.53088
292.53766
292.5628
292.56443
292.55164
292.54902
292.56824
292.59325
292.61862
292.64707
292.68613
292.71472
292.74494
292.77976
292.81131
292.84341
292.87158
292.89857
292.9193
292.9425
292.96403
292.99066
293.01021
293.02395
293.0357
293.05247
293.07908
293.1259
293.05295
292.72265
292.53536
292.50612
292.5257
292.52883
292.51122
292.52903
292.54425
292.5656
292.59083
292.61947
292.64999
292.6936
292.71655
292.74919
292.78409
292.81302
292.84427
292.87169
292.89795
292.9181
292.94133
292.96275
292.98941
293.00856
293.0232
293.03568
293.05206
293.07962
293.12685
292.90909
292.61957
292.45183
292.41738
292.40189
292.43333
292.49905
292.52538
292.53851
292.5652
292.60118
292.63022
292.66497
292.6944
292.72325
292.75486
292.78667
292.81397
292.84383
292.87161
292.89711
292.91695
292.94024
292.96146
292.98783
293.00658
293.02254
293.03543
293.0516
293.08005
293.12632
292.55474
292.28637
292.20938
292.2937
292.38977
292.46346
292.49122
292.50123
292.53565
292.57427
292.60012
292.63403
292.66216
292.70352
292.73122
292.76316
292.79209
292.81689
292.84605
292.87217
292.89674
292.91595
292.93914
292.95997
292.98591
293.00447
293.02174
293.03509
293.05121
293.08042
293.12461
292.30946
292.23364
292.2575
292.34806
292.40399
292.43085
292.46128
292.49867
292.54211
292.56824
292.61399
292.64559
292.67716
292.71162
292.73492
292.76799
292.79527
292.81804
292.84736
292.87353
292.89622
292.91493
292.93781
292.95856
292.98404
293.00197
293.02046
293.03442
293.05095
293.08071
293.12348
292.29285
292.24998
292.28164
292.32111
292.38206
292.43733
292.4765
292.51893
292.55764
292.60637
292.6346
292.65404
292.68601
292.71943
292.74984
292.7794
292.80143
292.82353
292.85082
292.87478
292.89605
292.91411
292.93685
292.95705
292.98169
292.99978
293.01889
293.03389
293.05072
293.08076
293.12332
292.18714
292.18532
292.27899
292.31516
292.38102
292.42359
292.49046
292.51028
292.55384
292.6041
292.62816
292.67717
292.69855
292.73652
292.75867
292.78732
292.80928
292.82849
292.85543
292.87758
292.89603
292.91338
292.9356
292.95546
292.97905
292.99792
293.0172
293.03303
293.0505
293.08049
293.12114
292.21178
292.29297
292.33541
292.39446
292.45233
292.50219
292.54013
292.57296
292.63369
292.66118
292.69672
292.69813
292.72483
292.75158
292.77176
292.79706
292.81556
292.83306
292.85811
292.87901
292.89602
292.91283
292.93443
292.95372
292.97619
292.99636
293.01555
293.03207
293.05035
293.0803
293.11796
292.33631
292.39607
292.41563
292.4759
292.49497
292.54877
292.57292
292.61199
292.64646
292.66591
292.68724
292.71037
292.74697
292.76902
292.79028
292.81153
292.82715
292.84196
292.86482
292.88212
292.89664
292.9122
292.93278
292.9516
292.97354
292.99467
293.01399
293.03087
293.05031
293.08035
293.11912
292.41933
292.46706
292.48091
292.52931
292.54639
292.59776
292.62136
292.65833
292.67009
292.7232
292.74529
292.77658
292.78547
292.78733
292.80493
292.82071
292.83462
292.84704
292.86926
292.88513
292.89658
292.9117
292.93114
292.94951
292.97072
292.99283
293.01244
293.02962
293.05033
293.0802
293.11469
292.52223
292.56757
292.58743
292.6303
292.65321
292.69582
292.69899
292.72889
292.75625
292.78741
292.80424
292.79777
292.79371
292.80668
292.82057
292.83404
292.84379
292.85463
292.87434
292.88625
292.89736
292.9111
292.9293
292.94709
292.96795
292.99113
293.01057
293.02849
293.05045
293.07962
293.11748
292.56812
292.60619
292.62271
292.6524
292.67492
292.69423
292.70971
292.7211
292.74727
292.77225
292.79328
292.80598
292.82416
292.83601
292.84333
292.8563
292.86081
292.86749
292.88477
292.89006
292.89732
292.91046
292.9275
292.94499
292.96547
292.98856
293.00852
293.0271
293.05022
293.07865
293.12448
292.62478
292.66145
292.6831
292.70809
292.72268
292.74012
292.76126
292.79839
292.83016
292.85642
292.87064
292.88569
292.889
292.86929
292.86904
292.87196
292.86857
292.87311
292.88658
292.89098
292.89722
292.90981
292.92573
292.94293
292.96288
292.98554
293.00635
293.02533
293.04955
293.07739
293.13348
292.6821
292.7202
292.73949
292.76603
292.78093
292.80674
292.82646
292.86325
292.87042
292.89097
292.88084
292.88591
292.88321
292.88067
292.88479
292.8834
292.87523
292.87961
292.88818
292.89066
292.89802
292.90872
292.92399
292.94088
292.95988
292.98275
293.00451
293.02318
293.04839
293.07577
293.13215
292.69444
292.73349
292.73582
292.76117
292.76739
292.80059
292.81215
292.84006
292.83445
292.85891
292.86026
292.87237
292.89324
292.91559
292.91525
292.90827
292.89624
292.89605
292.89716
292.89389
292.89852
292.90839
292.92255
292.93934
292.95693
292.98009
293.00308
293.02077
293.04614
293.07397
293.13066
292.70541
292.74544
292.75485
292.78324
292.79793
292.82671
292.83568
292.8683
292.86753
292.91527
292.91386
292.93932
292.95151
292.94929
292.93698
292.91916
292.90466
292.89831
292.89535
292.89397
292.9003
292.9083
292.92118
292.93812
292.95422
292.97734
293.00136
293.01873
293.04401
293.07198
293.13544
292.73748
292.76095
292.78428
292.81456
292.84408
292.87311
292.89613
292.92009
292.92544
292.94205
292.93636
292.91971
292.90869
292.90054
292.904
292.89955
292.89576
292.89237
292.89023
292.89156
292.90224
292.90846
292.92056
292.93687
292.95148
292.97435
292.99908
293.01664
293.04098
293.06947
293.12935
292.72921
292.7347
292.74203
292.75227
292.76746
292.78945
292.81361
292.85154
292.88811
292.89403
292.88041
292.88352
292.88241
292.88662
292.88572
292.8859
292.8895
292.88954
292.88868
292.89125
292.90162
292.90877
292.92026
292.93535
292.94897
292.97123
292.99598
293.01395
293.03759
293.06654
293.13559
292.6161
292.62151
292.62571
292.62899
292.62748
292.62464
292.62866
292.65541
292.71864
292.8016
292.84875
292.86787
292.87052
292.88004
292.88688
292.89082
292.89422
292.89145
292.88817
292.88893
292.90049
292.90853
292.91996
292.93414
292.94671
292.96752
292.99245
293.01086
293.03434
293.06314
293.14611
292.49818
292.50524
292.51764
292.52972
292.5515
292.56865
292.55106
292.51364
292.49076
292.56822
292.72858
292.84247
292.86847
292.87434
292.878
292.88142
292.88384
292.88318
292.88419
292.88754
292.89947
292.90724
292.91944
292.9327
292.94462
292.96367
292.98775
293.00707
293.03073
293.05948
293.14459
292.55697
292.56857
292.56907
292.56403
292.56656
292.56124
292.54098
292.50586
292.43588
292.41551
292.49035
292.64513
292.787
292.84106
292.85027
292.85566
292.85838
292.86256
292.87215
292.88142
292.89652
292.90529
292.91785
292.93097
292.94253
292.96022
292.98267
293.00275
293.02651
293.05517
293.13334
293.0815
293.06274
293.0459
293.04091
292.98339
292.90402
292.87653
292.87255
292.76313
292.61106
292.44728
292.42312
292.53075
292.65179
292.71979
292.76557
292.79833
292.82488
292.85342
292.87473
292.89337
292.90198
292.91496
292.92915
292.94024
292.95646
292.97751
292.99798
293.02126
293.04971
293.11808
294.19274
294.10024
293.97731
293.83705
293.6585
293.44687
293.24467
293.03099
292.79219
292.56798
292.43231
292.45245
292.56402
292.70919
292.77222
292.80358
292.82972
292.84562
292.86539
292.87893
292.89186
292.89829
292.91094
292.9259
292.9369
292.95203
292.97177
292.99249
293.01498
293.04275
293.08926
294.2065
294.07436
293.91521
293.7315
293.50531
293.269
293.07722
292.9305
292.82666
292.71839
292.67723
292.73473
292.7789
292.84185
292.85455
292.85405
292.85407
292.85652
292.86456
292.87531
292.88789
292.89298
292.90537
292.92073
292.93157
292.94677
292.96571
292.98639
293.00799
293.03448
293.08691
293.76282
293.64481
293.53835
293.42469
293.30875
293.19798
293.09201
292.98172
292.88416
292.82773
292.78828
292.78718
292.81708
292.83329
292.8299
292.83141
292.83659
292.84783
292.86005
292.87229
292.88452
292.88639
292.89866
292.91445
292.925
292.94013
292.9592
292.97987
293.0003
293.02454
293.07415
293.03576
292.98714
292.95154
292.90999
292.86811
292.82671
292.79472
292.78106
292.77163
292.76743
292.78421
292.81978
292.83347
292.83418
292.83951
292.84654
292.84893
292.85861
292.8662
292.87649
292.8837
292.8843
292.89448
292.9075
292.91609
292.93182
292.95172
292.97202
292.99252
293.01361
293.06437
292.61476
292.63032
292.64439
292.66373
292.68676
292.70898
292.73179
292.75141
292.78199
292.82246
292.85292
292.8843
292.90032
292.91417
292.92062
292.91805
292.90587
292.89295
292.8836
292.87615
292.87596
292.87713
292.88545
292.89695
292.90411
292.92087
292.94194
292.9629
292.98363
293.00174
293.05461
292.70949
292.71052
292.70284
292.70068
292.69801
292.69387
292.68981
292.69101
292.70128
292.7295
292.76948
292.81172
292.84186
292.85837
292.85244
292.85148
292.85036
292.85038
292.85048
292.85028
292.85985
292.86321
292.87237
292.88359
292.88928
292.90722
292.9291
292.95195
292.97491
292.98984
293.05911
293.0891
293.0458
293.00032
292.95156
292.89428
292.83562
292.78893
292.75638
292.72801
292.70229
292.68007
292.6711
292.66168
292.68674
292.72953
292.76237
292.78551
292.8072
292.82378
292.83058
292.84033
292.84589
292.85515
292.86705
292.87173
292.89044
292.91378
292.93925
292.96527
292.97801
293.06566
293.49893
293.5066
293.51277
293.51466
293.51456
293.50606
293.47282
293.41278
293.32606
293.21481
293.08476
292.94654
292.78584
292.64126
292.6091
292.65608
292.69826
292.73347
292.76089
292.77862
292.801
292.81793
292.83123
292.84719
292.853
292.87215
292.89779
292.9251
292.95198
292.96231
293.05657
294.11425
294.14905
294.17849
294.20199
294.21294
294.20114
294.1598
294.08198
293.94765
293.74621
293.45511
293.08194
292.73581
292.58365
292.60451
292.65018
292.69008
292.72334
292.74833
292.76913
292.79025
292.80469
292.81694
292.83128
292.83648
292.85588