/*--------------------------------*- C++ -*----------------------------------*\
| =========                 |                                                 |
| \\      /  F ield         | OpenFOAM: The Open Source CFD Toolbox           |
|  \\    /   O peration     | Version:  2406                                  |
|   \\  /    A nd           | Website:  www.openfoam.com                      |
|    \\/     M anipulation  |                                                 |
\*---------------------------------------------------------------------------*/
FoamFile
{
    version     2.0;
    format      ascii;
    arch        "LSB;label=32;scalar=64";
    class       volScalarField;
    location    "0.006";
    object      nutMean;
}
// * * * * * * * * * * * * * * * * * * * * * * * * * * * * * * * * * * * * * //

dimensions      [0 2 -1 0 0 0 0];

internalField   nonuniform List<scalar> 
92813
(
0.034549933
0.037334197
0.040214984
0.043137772
0.046073032
0.049000602
0.051904723
0.054772696
0.057593838
0.060359069
0.063060372
0.065690253
0.068241141
0.070704818
0.073072137
0.075333524
0.077480243
0.079498402
0.081374285
0.083098333
0.084657947
0.086038394
0.087226464
0.088208716
0.08897127
0.089499841
0.0897798
0.089796274
0.089534268
0.08897884
0.088115326
0.086929628
0.085408577
0.083540389
0.081315222
0.07872584
0.07576847
0.072443846
0.068757807
0.064722252
0.060361189
0.055707209
0.05080272
0.045706013
0.040491363
0.035246317
0.030100843
0.025218653
0.020807362
0.017104435
0.014303624
0.012416731
0.011220012
0.010438446
0.0098731559
0.0094183168
0.0090254891
0.0086734328
0.0083523824
0.0080573001
0.0077851104
0.0075334796
0.0073005866
0.0070848531
0.0068847236
0.0066989824
0.0065266477
0.0063665637
0.0062177981
0.0060795385
0.0059509701
0.0058313093
0.0057196605
0.005615428
0.0055179262
0.0054265637
0.0053410146
0.0052609141
0.005185942
0.0051158468
0.0050504025
0.0049892627
0.0049321568
0.0048788251
0.0048289384
0.0047822585
0.0047385666
0.0046975574
0.0046590472
0.0046228619
0.0045888223
0.0045568536
0.0045268301
0.0044986937
0.0044723364
0.0044476356
0.0044245496
0.0044029091
0.0043825792
0.0043634932
0.0043455684
0.0043287191
0.0043128829
0.0042979999
0.0042840122
0.0042708678
0.0042585355
0.004246991
0.0042361983
0.0042261234
0.0042167535
0.0042080909
0.004200125
0.004192827
0.0041861321
0.0041799592
0.0041742177
0.0041688104
0.004163658
0.0041587276
0.0041540532
0.0041496524
0.0041456364
0.0041418781
0.0041388327
0.004135858
0.0041339649
0.038736769
0.041542001
0.044346697
0.047156458
0.049962701
0.052753773
0.055518352
0.05824608
0.060927506
0.06355396
0.066117317
0.068609677
0.071022999
0.073348754
0.075577679
0.077699889
0.079704826
0.081579837
0.083311577
0.084889202
0.086300483
0.087530107
0.088564759
0.089390975
0.089994894
0.090362271
0.090478545
0.09032895
0.089898659
0.089172977
0.088137587
0.086778854
0.085084215
0.083042661
0.080645324
0.077886189
0.074762965
0.071278201
0.067440063
0.063261839
0.058770449
0.054003901
0.049007754
0.043844631
0.038594811
0.033359516
0.028276126
0.02352331
0.019326038
0.015926728
0.013473691
0.011883418
0.01088543
0.010214005
0.0097054387
0.009280975
0.0089065964
0.0085676876
0.0082571759
0.0079710898
0.0077068329
0.0074622976
0.0072357833
0.0070257874
0.0068308408
0.0066498081
0.0064817495
0.0063255537
0.0061803469
0.0060453466
0.0059197522
0.0058028229
0.0056936715
0.0055917229
0.0054963211
0.0054068645
0.0053230373
0.0052445114
0.0051709846
0.0051022004
0.0050379563
0.004977906
0.0049217827
0.0048693538
0.0048202858
0.0047743477
0.0047313372
0.0046909468
0.0046530005
0.004617334
0.0045837656
0.0045522274
0.004522597
0.0044948148
0.0044687798
0.0044443745
0.0044215571
0.0044001656
0.0043800659
0.0043611915
0.0043434623
0.0043267935
0.0043111238
0.004296394
0.0042825464
0.00426953
0.0042573149
0.0042458767
0.0042351743
0.0042251823
0.0042158858
0.0042072869
0.0041993749
0.0041921219
0.0041854643
0.0041793223
0.0041736071
0.004168223
0.0041630928
0.0041581849
0.0041535338
0.0041491568
0.0041451635
0.0041414286
0.0041384054
0.0041354488
0.0041335753
0.043074939
0.045800009
0.048507642
0.051203473
0.053883809
0.056541423
0.059168174
0.061755771
0.064295985
0.066780738
0.069202063
0.071551954
0.073822137
0.076003836
0.078087571
0.0800631
0.081919278
0.083643725
0.085223311
0.086646994
0.087902603
0.088974454
0.089849061
0.090512855
0.090951945
0.091152113
0.091098879
0.090777616
0.090173716
0.08927279
0.088060936
0.086525071
0.084653344
0.082435646
0.079864239
0.076934509
0.073645842
0.070002836
0.066015983
0.061701354
0.057089536
0.05222298
0.047151566
0.041944111
0.036688523
0.031498104
0.026522912
0.02195784
0.018039412
0.014989992
0.012879405
0.011537632
0.010679155
0.010075641
0.0096001372
0.0091939096
0.0088315528
0.0085017976
0.0081988455
0.0079192267
0.007660605
0.0074210232
0.0071988696
0.0069927095
0.0068011497
0.0066231165
0.006457704
0.0063038432
0.0061607024
0.0060275271
0.0059035519
0.0057880916
0.0056802592
0.0055795025
0.0054851851
0.0053967099
0.0053137715
0.0052360558
0.005163262
0.0050951352
0.0050314937
0.0049719875
0.0049163531
0.0048643709
0.0048157071
0.0047701331
0.0047274611
0.0046873783
0.0046497116
0.0046143069
0.0045809758
0.0045496499
0.0045202118
0.0044925994
0.0044667192
0.0044424552
0.0044197659
0.0043984954
0.004378511
0.0043597446
0.0043421174
0.0043255446
0.0043099642
0.0042953174
0.0042815466
0.0042686011
0.0042564493
0.0042450693
0.0042344257
0.0042244831
0.0042152277
0.004206662
0.0041987765
0.0041915437
0.0041849018
0.0041787724
0.0041730682
0.0041676947
0.0041625757
0.0041576802
0.0041530426
0.0041486804
0.004144702
0.0041409826
0.0041379749
0.0041350334
0.0041331727
0.047529913
0.050128398
0.052710821
0.055277733
0.057824355
0.06034411
0.062829911
0.065274427
0.06767012
0.070009305
0.07228415
0.074486593
0.076608203
0.078640009
0.08057234
0.082394736
0.08409584
0.085663342
0.087084232
0.088347491
0.089440921
0.090348629
0.09105699
0.091552327
0.091820716
0.091847972
0.091619719
0.091121515
0.09033902
0.089258216
0.087865699
0.086149028
0.084097175
0.081701067
0.078954249
0.07585369
0.07240065
0.068602065
0.064470764
0.060026714
0.055304751
0.050351079
0.045220974
0.039990355
0.034755597
0.029641814
0.024812888
0.020477699
0.01687327
0.014179073
0.012376962
0.011237695
0.010487519
0.0099373504
0.0094892406
0.0090991235
0.0087479098
0.0084268952
0.0081313072
0.0078580857
0.007605126
0.0073706042
0.007152981
0.0069508753
0.0067629653
0.0065882315
0.0064258007
0.0062746399
0.0061339635
0.0060030411
0.0058811149
0.0057675345
0.0056614281
0.0055622529
0.0054693946
0.0053822572
0.0053005319
0.0052239274
0.0051521538
0.0050849449
0.0050221481
0.0049634117
0.0049084718
0.0048571346
0.0048090594
0.0047640182
0.0047218417
0.0046822149
0.0046449642
0.004609947
0.00457697
0.0045459655
0.0045168222
0.0044894745
0.0044638352
0.0044397921
0.0044173029
0.0043962207
0.004376413
0.0043578104
0.0043403361
0.004323906
0.0043084581
0.0042939336
0.0042802761
0.0042674342
0.0042553769
0.0042440825
0.0042335126
0.004223636
0.0042144382
0.0042059218
0.0041980775
0.0041908789
0.0041842644
0.0041781575
0.0041724728
0.0041671171
0.0041620159
0.0041571385
0.00415252
0.0041481778
0.0041442188
0.0041405193
0.0041375313
0.0041346066
0.0041327633
0.052067167
0.054517429
0.056956208
0.059380442
0.061783482
0.064158118
0.066497215
0.068793598
0.071039911
0.073228571
0.075351744
0.077401269
0.079368559
0.081244467
0.083019169
0.08468207
0.086221743
0.087625922
0.088881684
0.089978073
0.09090287
0.091640067
0.092175945
0.092496751
0.092588541
0.092437183
0.092028437
0.091348083
0.090382102
0.089116919
0.087539705
0.085638763
0.083404003
0.080827521
0.077904308
0.074633097
0.071017228
0.067066288
0.062795476
0.058229472
0.053407906
0.048380252
0.043208176
0.037975202
0.032786911
0.027780627
0.023134324
0.0190676
0.015805365
0.013465103
0.011942295
0.010973733
0.010312053
0.0098058843
0.0093813741
0.0090060171
0.0086655815
0.0083533111
0.0080652182
0.0077985512
0.0075514037
0.0073220747
0.0071090886
0.0069111172
0.0067269149
0.0065555143
0.006396074
0.0062475992
0.0061093493
0.0059806213
0.0058606651
0.0057488799
0.0056444085
0.0055467174
0.005455219
0.0053693233
0.0052887203
0.0052131385
0.0051423001
0.0050759294
0.0050138993
0.0049558591
0.0049015441
0.0048507811
0.0048032291
0.0047586589
0.0047169185
0.0046776925
0.0046408052
0.0046061273
0.0045734604
0.0045427344
0.0045138457
0.0044867252
0.0044612922
0.0044374377
0.0044151181
0.0043941949
0.0043745376
0.0043560752
0.0043387319
0.0043224246
0.0043070906
0.0042926716
0.0042791117
0.0042663596
0.0042543833
0.0042431621
0.004232659
0.0042228412
0.004213694
0.0042052198
0.0041974103
0.0041902394
0.0041836471
0.0041775584
0.0041718892
0.004166548
0.0041614615
0.0041565996
0.0041519976
0.0041476728
0.0041437311
0.0041400495
0.0041370794
0.0041341707
0.0041323428
0.056650064
0.058937524
0.061223493
0.063496025
0.065747431
0.067969971
0.07015622
0.072298839
0.074390367
0.076423121
0.078389143
0.080280118
0.082087289
0.083801343
0.085412325
0.086909552
0.088281574
0.089516175
0.090600516
0.091523709
0.092273543
0.092833966
0.093191213
0.093331497
0.093240886
0.092905333
0.092310766
0.091443233
0.090289099
0.088835298
0.087069666
0.084981353
0.082561333
0.079803015
0.076703
0.073261967
0.06948558
0.065386361
0.060982104
0.056302699
0.051392943
0.046305618
0.04110969
0.035896735
0.030782529
0.025917453
0.021493419
0.017735342
0.014839348
0.012843668
0.01156776
0.01073995
0.010149264
0.0096790105
0.0092747745
0.0089128736
0.0085826927
0.0082789297
0.0079982042
0.0077380017
0.0074965959
0.007272406
0.0070640132
0.0068701403
0.0066896226
0.0065215428
0.0063650916
0.0062193115
0.0060835079
0.0059570071
0.005839057
0.0057291062
0.0056263154
0.0055301544
0.0054400648
0.0053554629
0.0052760325
0.0052015208
0.0051316666
0.0050661812
0.0050049614
0.00494766
0.0048940106
0.0048438608
0.0047968705
0.0047528077
0.0047115368
0.0046727451
0.0046362528
0.0046019438
0.0045696162
0.0045391956
0.0045105876
0.0044837192
0.0044585147
0.0044348695
0.0044127383
0.0043919915
0.0043725009
0.0043541938
0.0043369952
0.0043208235
0.0043056156
0.0042913131
0.0042778609
0.0042652077
0.0042533214
0.0042421812
0.0042317497
0.0042219956
0.0042129037
0.0042044764
0.004196706
0.0041895671
0.0041830005
0.0041769325
0.0041712814
0.0041659569
0.004160887
0.0041560424
0.0041514584
0.0041471526
0.0041432295
0.004139567
0.0041366159
0.0041337238
0.0041319125
0.061244012
0.063357691
0.065486649
0.067601888
0.069695715
0.071760309
0.073788064
0.075771435
0.077702761
0.079574177
0.08137754
0.083104353
0.084745681
0.08629206
0.087733417
0.089059009
0.09025738
0.091316369
0.092223218
0.092967113
0.093535871
0.093913455
0.094086106
0.094040053
0.093761421
0.09323629
0.092450805
0.091391335
0.090044691
0.088398399
0.086441055
0.084162772
0.081555719
0.078614778
0.07533834
0.071729219
0.067795674
0.063553397
0.05902324
0.054240656
0.049255694
0.044125062
0.038925892
0.033758436
0.028749933
0.024064754
0.019907327
0.016498139
0.013983095
0.012310477
0.011245071
0.010530482
0.0099963348
0.0095557108
0.0091692641
0.0088198934
0.0084996392
0.0082042802
0.0079309076
0.0076771844
0.0074415492
0.0072225381
0.0070187799
0.006829044
0.0066522527
0.0064875344
0.0063341091
0.006191058
0.0060577291
0.0059334809
0.0058175534
0.0057094497
0.0056083501
0.0055137235
0.0054250454
0.0053417405
0.0052634853
0.0051900424
0.0051211716
0.0050565714
0.0049961577
0.0049395908
0.0048866033
0.0048370593
0.0047906245
0.0047470635
0.0047062542
0.0046678906
0.0046317872
0.0045978407
0.0045658474
0.0045357269
0.0045073941
0.0044807729
0.0044557919
0.004432351
0.0044104032
0.0043898272
0.0043704984
0.0043523425
0.0043352846
0.0043192448
0.0043041598
0.0042899706
0.0042766234
0.0042640664
0.004252267
0.0042412053
0.0042308443
0.0042211524
0.0042121143
0.0042037326
0.0041960001
0.004188892
0.00418235
0.004176302
0.0041706681
0.0041653596
0.0041603057
0.0041554779
0.0041509114
0.0041466238
0.0041427188
0.0041390749
0.0041361422
0.0041332668
0.0041314715
0.065810675
0.067751148
0.069719078
0.07167267
0.073604285
0.075506119
0.07737045
0.079189549
0.08095556
0.082660422
0.084295803
0.085853025
0.087322987
0.088696088
0.089962159
0.091110409
0.09212939
0.093006994
0.093730548
0.094289313
0.094671153
0.094860099
0.094842449
0.0946045
0.094132491
0.093412682
0.092431493
0.09117568
0.089632576
0.087790388
0.085638581
0.083168356
0.080373226
0.077249722
0.073798226
0.070023891
0.065937897
0.061559176
0.056912466
0.052039116
0.04699415
0.041839429
0.036661045
0.0315689
0.02670311
0.022242463
0.018399721
0.015374909
0.013240694
0.011857699
0.010965348
0.010340057
0.0098508894
0.0094350442
0.0090644833
0.00872692
0.0084163149
0.0081292497
0.0078631845
0.0076159145
0.0073860341
0.0071721975
0.0069730722
0.00678747
0.0066144093
0.0064530604
0.0063026688
0.006162358
0.0060315156
0.0059095346
0.0057956434
0.0056894003
0.0055900075
0.0054969287
0.0054096769
0.0053276866
0.0052506249
0.0051782657
0.0051103942
0.0050466969
0.004987103
0.0049312841
0.0048789733
0.0048300471
0.0047841802
0.0047411342
0.0047007966
0.0046628727
0.0046271696
0.0045935959
0.0045619478
0.0045321375
0.0045040895
0.0044777252
0.0044529762
0.0044297469
0.0044079893
0.00438759
0.0043684288
0.0043504296
0.0043335173
0.0043176142
0.0043026565
0.0042885849
0.0042753463
0.0042628888
0.0042511797
0.0042401992
0.0042299105
0.0042202827
0.0042113004
0.0042029661
0.0041952732
0.0041881975
0.0041816815
0.0041756548
0.0041700391
0.0041647474
0.0041597103
0.0041549
0.0041503514
0.0041460826
0.004142196
0.004138571
0.0041356573
0.0041327986
0.0041310198
0.070315967
0.072087794
0.073891717
0.07568043
0.077446265
0.079181436
0.080878144
0.082528524
0.084124563
0.085658036
0.087120448
0.088502963
0.089796341
0.090990868
0.092076298
0.093041808
0.093875966
0.094566722
0.095101492
0.095469615
0.095659025
0.095653867
0.095440544
0.095005481
0.094335092
0.093415882
0.092234615
0.090778514
0.089035519
0.086994624
0.084646283
0.081982925
0.078999577
0.07569461
0.07207063
0.068135371
0.063903315
0.059396472
0.054644682
0.049695721
0.044608868
0.039452877
0.03432366
0.029342097
0.024662446
0.020476891
0.016997533
0.014381237
0.01260981
0.011474569
0.010719918
0.010164166
0.0097110279
0.0093163066
0.0089602109
0.0086339145
0.0083327477
0.0080538952
0.0077951063
0.0075542755
0.0073301466
0.0071214948
0.0069270162
0.0067455587
0.0065762495
0.0064182945
0.0062709568
0.0061334103
0.0060050763
0.0058853829
0.0057735466
0.0056691807
0.0055715107
0.0054799918
0.0053941781
0.0053135154
0.0052376611
0.0051663951
0.0050995319
0.005036749
0.0049779815
0.0049229163
0.0048712898
0.004822985
0.0047776897
0.004735164
0.0046953001
0.0046578187
0.0046225199
0.0045893212
0.0045580215
0.0045285243
0.0045007634
0.0044746587
0.0044501434
0.004427127
0.0044055606
0.0043853383
0.0043663448
0.0043485029
0.0043317365
0.0043159705
0.0043011405
0.0042871869
0.0042740571
0.0042616992
0.0042500804
0.0042391811
0.0042289649
0.0042194011
0.0042104748
0.0042021881
0.004194535
0.0041874919
0.0041810023
0.0041749968
0.0041693994
0.0041641247
0.0041591045
0.0041543117
0.004149781
0.0041455309
0.0041416625
0.0041380566
0.0041351615
0.0041323195
0.0041305571
0.074728659
0.076334274
0.077972953
0.079594774
0.081192237
0.08275766
0.084283243
0.085761057
0.087182992
0.088540711
0.089825596
0.091028695
0.092140661
0.093151695
0.0940515
0.094829238
0.095473504
0.095972312
0.096313175
0.096485523
0.096477382
0.096273056
0.095859103
0.095222138
0.094348817
0.093225967
0.091840775
0.09018102
0.088235357
0.085993682
0.083447574
0.080590855
0.07742025
0.073936189
0.070143754
0.066053567
0.061683838
0.057059413
0.052216681
0.047210416
0.042103378
0.036973427
0.031927183
0.027098053
0.022655014
0.018799673
0.015727433
0.013525644
0.012081674
0.011148935
0.010500987
0.0099991476
0.0095752893
0.0091989766
0.0088562896
0.0085408495
0.008248949
0.007978237
0.0077266876
0.0074922738
0.0072738837
0.007070417
0.0068805891
0.0067032767
0.0065377308
0.0063831862
0.0062389119
0.0061041461
0.0059783354
0.005860942
0.0057511755
0.0056486999
0.0055527652
0.0054628173
0.005378453
0.0052991304
0.0052244982
0.0051543363
0.0050884912
0.0050266364
0.0049687044
0.0049144005
0.0048634694
0.004815793
0.0047710759
0.0047290798
0.0046896953
0.0046526629
0.0046177763
0.0045849587
0.0045540137
0.0045248365
0.0044973687
0.0044715298
0.0044472533
0.004424454
0.0044030829
0.0043830408
0.004364218
0.0043465365
0.0043299188
0.0043142924
0.0042995928
0.0042857594
0.0042727404
0.004260484
0.0042489571
0.0042381402
0.0042279975
0.004218499
0.0042096297
0.0042013917
0.0041937795
0.0041867701
0.0041803078
0.0041743244
0.0041687461
0.0041634888
0.0041584861
0.0041537111
0.0041491986
0.0041449673
0.0041411174
0.0041375305
0.0041346542
0.0041318293
0.0041300833
0.07901573
0.080456904
0.081929635
0.083383246
0.084810453
0.086203722
0.087555321
0.088857322
0.090101582
0.091279706
0.092383005
0.093402452
0.094328632
0.095151697
0.095861323
0.09644668
0.096896403
0.097198584
0.097340844
0.097312727
0.097102373
0.096694293
0.096075255
0.095232125
0.094151877
0.092821744
0.091229431
0.089363376
0.087213069
0.084769442
0.082025363
0.078976224
0.075620662
0.071961416
0.068006303
0.063769204
0.059272442
0.054544021
0.049627886
0.044585932
0.039484907
0.034413862
0.029491024
0.024863773
0.020714738
0.017245704
0.014611315
0.01280722
0.011642597
0.010868709
0.01030196
0.0098421321
0.009442578
0.0090826821
0.0087526213
0.008447725
0.008164948
0.0079023115
0.0076579618
0.0074299415
0.0072172771
0.0070189945
0.0068338215
0.0066606555
0.0064988876
0.0063477727
0.0062065721
0.0060746059
0.0059513361
0.005836255
0.005728576
0.0056280053
0.0055338184
0.0054454539
0.0053625503
0.0052845794
0.0052111838
0.0051421373
0.0050773182
0.0050164044
0.0049593161
0.0049057796
0.0048555536
0.0048085115
0.0047643772
0.0047229185
0.0046840175
0.0046474382
0.0046129704
0.0045805382
0.0045499522
0.0045211002
0.0044939298
0.004468361
0.0044443267
0.0044217472
0.0044005741
0.0043807139
0.0043620635
0.0043445439
0.0043280764
0.004312591
0.0042980231
0.0042843112
0.0042714041
0.0042592498
0.0042478155
0.0042370817
0.004227013
0.0042175802
0.0042087683
0.0042005799
0.0041930092
0.0041860343
0.0041795999
0.0041736392
0.0041680804
0.0041628411
0.004157856
0.0041530992
0.004148605
0.0041443924
0.0041405609
0.0041369931
0.0041341354
0.004131328
0.0041295978
0.083141768
0.084420103
0.085726576
0.08701118
0.088266824
0.089486141
0.090661503
0.091785043
0.092848639
0.093843889
0.094762085
0.09559417
0.096330704
0.096961821
0.097477205
0.097866052
0.098117062
0.098218419
0.098157876
0.097925113
0.097508422
0.096892565
0.096064576
0.095011647
0.09372115
0.092180817
0.090378978
0.088304853
0.085948902
0.083303253
0.080362239
0.077123036
0.073586436
0.06975777
0.065647877
0.061274353
0.056663809
0.051848546
0.046880735
0.041828781
0.036765604
0.031793022
0.027041874
0.022674171
0.018881714
0.015849222
0.013661398
0.012215445
0.011276336
0.010622967
0.01011754
0.0096909419
0.0093120992
0.0089671696
0.0086491527
0.008354559
0.008080781
0.0078261549
0.0075889571
0.0073673027
0.0071603498
0.0069672443
0.0067867252
0.0066177054
0.0064597265
0.0063120569
0.0061739364
0.0060447855
0.005924072
0.005811311
0.0057057362
0.0056070829
0.0055146532
0.0054278844
0.0053464521
0.0052698421
0.0051976969
0.0051297773
0.0050659914
0.0050060306
0.0049497952
0.0048970321
0.0048475211
0.0048011198
0.0047575733
0.0047166603
0.0046782481
0.0046421267
0.0046080852
0.0045760435
0.0045458214
0.0045173009
0.0044904331
0.0044651397
0.0044413517
0.0044189955
0.0043980238
0.0043783484
0.0043598725
0.0043425171
0.0043262021
0.0043108598
0.0042964255
0.0042828368
0.004270043
0.0042579921
0.0042466517
0.0042360017
0.0042260079
0.0042166415
0.0042078881
0.0041997501
0.004192222
0.0041852825
0.004178877
0.0041729399
0.0041674014
0.0041621804
0.0041572136
0.0041524752
0.0041479994
0.0041438057
0.0041399927
0.0041364442
0.0041336052
0.0041308154
0.0041291006
0.087068892
0.088186048
0.089326387
0.090441664
0.091524966
0.092569092
0.093566551
0.094509572
0.095390103
0.096199786
0.096929939
0.09757152
0.098115104
0.098550848
0.098868469
0.099057222
0.099105892
0.099002781
0.098735798
0.098294798
0.097668266
0.096841264
0.095801158
0.094535539
0.093032271
0.091279692
0.089266879
0.08698397
0.084422554
0.081576138
0.078440727
0.075015517
0.071303738
0.067313654
0.063059459
0.058563054
0.053855098
0.048974099
0.043981402
0.038950634
0.033963997
0.029137369
0.024615152
0.020572495
0.017199687
0.014637765
0.01287669
0.011732381
0.010966529
0.010402567
0.0099436592
0.0095439774
0.0091832959
0.0088522777
0.008545865
0.0082613849
0.0079964939
0.0077498067
0.0075197032
0.0073043839
0.0071031313
0.0069151902
0.0067393193
0.0065744483
0.0064202673
0.0062760547
0.0061410215
0.006014701
0.0058965584
0.005786124
0.0056826712
0.0055859473
0.0054952828
0.005410123
0.0053301723
0.0052549314
0.0051840496
0.0051172697
0.0050545231
0.0049955264
0.0049401532
0.0048881694
0.0048393824
0.0047936287
0.0047506744
0.0047103147
0.0046723967
0.0046367374
0.0046031293
0.004571483
0.0045416287
0.0045134459
0.0044868857
0.0044618721
0.0044383343
0.0044162043
0.0043954373
0.004375949
0.0043576496
0.0043404602
0.0043242994
0.0043091017
0.0042948025
0.0042813386
0.0042686592
0.0042567127
0.0042454669
0.0042349015
0.0042249831
0.0042156838
0.0042069895
0.0041989028
0.0041914181
0.0041845152
0.0041781396
0.0041722268
0.0041667092
0.0041615073
0.004156559
0.0041518394
0.0041473821
0.0041432074
0.0041394127
0.0041358835
0.0041330631
0.0041302912
0.0041285914
0.090757192
0.091714922
0.092689635
0.093635684
0.09454633
0.095414536
0.096232964
0.096993975
0.097689623
0.098311638
0.098851404
0.099299942
0.099647876
0.099885421
0.10000236
0.099988041
0.099831356
0.099520759
0.099044342
0.098392192
0.097553033
0.096512279
0.095257701
0.093777378
0.092059769
0.090093936
0.087869842
0.085378704
0.082613422
0.079569089
0.076243623
0.072638516
0.068759752
0.064618905
0.060233999
0.055631926
0.050846832
0.045926191
0.040941322
0.035969642
0.031106598
0.026482798
0.022256238
0.018609284
0.015710534
0.013625253
0.01224272
0.011336412
0.01069853
0.010200348
0.0097773205
0.0094000975
0.0090557921
0.0087379139
0.0084427656
0.0081682492
0.007912141
0.0076733073
0.0074502276
0.0072412093
0.0070456533
0.0068628564
0.0066916188
0.0065309054
0.0063805265
0.0062397749
0.0061078382
0.005984361
0.005868801
0.0057606985
0.0056593845
0.0055646001
0.0054757065
0.0053921693
0.0053137097
0.0052398445
0.0051702375
0.0051046103
0.005042909
0.0049848858
0.0049303848
0.0048791862
0.0048311313
0.0047860323
0.0047436749
0.0047038757
0.0046664582
0.0046312651
0.0045980975
0.0045668517
0.0045373695
0.0045095308
0.0044832833
0.004458554
0.0044352704
0.00441337
0.0043928112
0.0043735126
0.0043553917
0.0043383702
0.0043223658
0.0043073144
0.004293152
0.0042798144
0.0042672508
0.0042554095
0.0042442595
0.0042337794
0.0042239369
0.0042147055
0.004206071
0.0041980367
0.0041905967
0.0041837313
0.0041773867
0.0041714993
0.0041660033
0.0041608212
0.0041558919
0.0041511915
0.0041467529
0.0041425971
0.0041388208
0.004135311
0.0041325091
0.0041297553
0.0041280702
0.094164858
0.094965009
0.095774924
0.096552206
0.097290284
0.097982291
0.098621058
0.099199104
0.099708621
0.10014146
0.10048912
0.1007427
0.10089293
0.10093011
0.10084411
0.10062441
0.10026004
0.099739648
0.099051541
0.0981861
0.097132355
0.095876127
0.094405674
0.092709663
0.090777265
0.088598403
0.086164084
0.083466791
0.080500944
0.077263467
0.073754466
0.069978044
0.065943315
0.06166556
0.057167231
0.052480799
0.047644461
0.042716808
0.037778573
0.032912346
0.028230064
0.023876554
0.020020722
0.016838329
0.014445525
0.012807186
0.011735096
0.011006055
0.010460412
0.010010985
0.009616369
0.009258509
0.0089293465
0.0086240374
0.0083398863
0.0080752062
0.0078277797
0.0075966971
0.0073805556
0.0071778048
0.006987952
0.0068102687
0.0066436377
0.006487102
0.0063405252
0.0062032274
0.0060744018
0.005953779
0.0058408097
0.0057350453
0.0056358851
0.0055430486
0.0054559313
0.0053740302
0.00529707
0.0052245867
0.0051562647
0.0050918036
0.0050311536
0.0049741116
0.0049204932
0.0048700866
0.0048227701
0.0047783333
0.0047365783
0.0046973456
0.0046604355
0.0046257128
0.004592992
0.0045621521
0.0045330458
0.0045055574
0.0044796277
0.004455187
0.0044321613
0.004410494
0.0043901467
0.0043710406
0.0043531001
0.0043362482
0.004320402
0.0043054987
0.0042914744
0.0042782646
0.0042658178
0.0042540828
0.0042430294
0.0042326351
0.0042228694
0.0042137063
0.0042051326
0.0041971517
0.0041897574
0.0041829307
0.0041766184
0.0041707574
0.004165284
0.0041601221
0.0041552125
0.0041505316
0.0041461119
0.004141975
0.0041382169
0.0041347265
0.004131943
0.0041292074
0.0041275369
0.097248121
0.097892642
0.098538863
0.099148152
0.09971411
0.10023005
0.100689
0.10108364
0.10140635
0.10164913
0.1018036
0.10186099
0.10181215
0.10164749
0.10135703
0.10093039
0.10035678
0.099625077
0.098723859
0.097643878
0.096374542
0.094902144
0.093215525
0.091304052
0.089157742
0.086767542
0.084125685
0.08122613
0.078065067
0.074641533
0.070958147
0.067021996
0.062845766
0.058448878
0.053859037
0.04911443
0.044259476
0.039365427
0.034520485
0.029816747
0.025383821
0.021378557
0.017972039
0.01530797
0.013415724
0.012161215
0.011325364
0.010722723
0.010243181
0.0098306192
0.009459262
0.0091186932
0.008803826
0.0085106571
0.0082372889
0.0079823076
0.0077434602
0.0075200143
0.0073107126
0.0071142052
0.0069300646
0.0067574491
0.0065953894
0.006443065
0.0063002851
0.0061664205
0.0060407273
0.0059229678
0.0058125918
0.0057091739
0.005612179
0.0055212971
0.0054359618
0.0053557094
0.0052802549
0.0052091602
0.0051421313
0.0050788485
0.0050192575
0.0049632025
0.0049104767
0.0048608697
0.0048142963
0.0047705299
0.0047293833
0.004690722
0.0046543269
0.0046200794
0.0045878108
0.0045573825
0.0045286563
0.0045015241
0.0044759172
0.0044517691
0.0044290055
0.0044075748
0.0043874425
0.0043685316
0.0043507737
0.0043340931
0.0043184068
0.0043036533
0.0042897686
0.004276688
0.0042643591
0.0042527314
0.0042417754
0.0042314676
0.0042217792
0.0042126853
0.0042041732
0.0041962468
0.0041888995
0.0041821128
0.004175834
0.0041700007
0.0041645508
0.0041594101
0.0041545206
0.0041498595
0.0041454588
0.0041413408
0.004137601
0.0041341301
0.0041313647
0.0041286474
0.0041269913
0.099961121
0.10045209
0.10093597
0.10137833
0.10177296
0.10211338
0.10239282
0.10260417
0.10273999
0.10279245
0.10275333
0.10261402
0.10236549
0.10199831
0.10150266
0.10086834
0.10008481
0.099141188
0.098026395
0.096731646
0.09524682
0.093558752
0.091656977
0.089531696
0.087173931
0.084575829
0.081731068
0.078635333
0.075286873
0.071687174
0.067841747
0.0637611
0.059462023
0.054968661
0.050315047
0.045544442
0.040711463
0.035901408
0.031206987
0.026735291
0.02263218
0.019060505
0.01617395
0.014048144
0.012606882
0.01165353
0.010986552
0.010472195
0.010040308
0.0096561403
0.0093049407
0.0089804516
0.0086792045
0.0083978703
0.0081350618
0.0078895389
0.0076592152
0.0074433211
0.0072407384
0.0070504683
0.0068720196
0.0067044128
0.0065468972
0.0063988214
0.0062598258
0.006129366
0.0060068325
0.0058919411
0.0057841552
0.0056830952
0.0055882735
0.0054993516
0.0054158053
0.0053372118
0.0052632673
0.0051935693
0.0051278404
0.005065746
0.0050072237
0.0049521598
0.0049003355
0.0048515374
0.0048057103
0.0047626224
0.0047220917
0.004684005
0.0046481335
0.0046143661
0.0045825541
0.0045525435
0.0045242019
0.0044974313
0.004472152
0.0044483004
0.0044258029
0.0044046126
0.0043846988
0.0043659858
0.0043484124
0.0043319048
0.0043163802
0.0043017782
0.0042880344
0.0042750843
0.0042628744
0.0042513548
0.0042404968
0.0042302762
0.0042206659
0.0042116417
0.0042031923
0.0041953216
0.0041880225
0.0041812773
0.0041750334
0.004169229
0.0041638036
0.0041586848
0.0041538162
0.0041491753
0.0041447938
0.0041406947
0.0041369731
0.0041335217
0.0041307743
0.004128075
0.0041264336
0.10225578
0.10259543
0.10291858
0.10319538
0.10341985
0.10358573
0.10368648
0.10371523
0.10366472
0.10352732
0.10329497
0.10295921
0.10251119
0.10194165
0.10124097
0.10039918
0.099406001
0.098250886
0.096923151
0.095414591
0.093715661
0.091813826
0.089699441
0.087363703
0.084798814
0.081998342
0.07895766
0.075674473
0.072149435
0.068386877
0.064395662
0.06019024
0.0557921
0.051230951
0.046548267
0.041792101
0.037032482
0.032367521
0.027893625
0.023737389
0.020054715
0.016999926
0.01467608
0.013058412
0.011983688
0.011247662
0.010696124
0.010244136
0.0098474047
0.0094855243
0.0091525828
0.0088437647
0.0085555203
0.0082857668
0.0080334147
0.00779696
0.0075749081
0.0073665807
0.0071707642
0.0069866818
0.0068138159
0.0066511769
0.0064982225
0.0063543925
0.0062191566
0.0060920865
0.0059727379
0.0058607098
0.0057555082
0.0056568198
0.0055641756
0.0054772173
0.0053954681
0.0053185411
0.0052461093
0.0051778172
0.005113394
0.0050524953
0.0049950539
0.0049409845
0.0048900681
0.0048420898
0.0047970114
0.0047546102
0.0047147035
0.0046771939
0.0046418548
0.0046085732
0.004577221
0.0045476346
0.0045196821
0.0044932778
0.0044683311
0.0044447798
0.0044225527
0.0044016065
0.0043819146
0.0043634024
0.0043460155
0.0043296825
0.0043143214
0.0042998725
0.0042862711
0.0042734525
0.0042613625
0.0042499521
0.0042391927
0.00422906
0.0042195284
0.0042105749
0.0042021889
0.0041943751
0.0041871258
0.0041804236
0.0041742162
0.0041684421
0.0041630424
0.0041579464
0.0041530992
0.0041484789
0.0041441167
0.0041400366
0.004136333
0.0041329011
0.0041301716
0.0041274905
0.0041258634
0.10408173
0.1042725
0.1044368
0.10454977
0.10460566
0.1045985
0.104522
0.1043695
0.10413396
0.10380791
0.10338349
0.10285241
0.102206
0.1014352
0.10053064
0.099482617
0.098281182
0.096916182
0.095377409
0.093657371
0.091747234
0.089635187
0.087312569
0.084771748
0.082006329
0.079011552
0.075784784
0.0723261
0.068638973
0.064731064
0.060615153
0.056310288
0.051843312
0.047250682
0.042581676
0.03789242
0.033271024
0.028823485
0.024655709
0.020911073
0.017741913
0.01526551
0.013495808
0.012306105
0.011500026
0.010911708
0.010439796
0.010030132
0.0096587829
0.0093184558
0.0090030259
0.0087084749