/*--------------------------------*- C++ -*----------------------------------*\
| =========                 |                                                 |
| \\      /  F ield         | OpenFOAM: The Open Source CFD Toolbox           |
|  \\    /   O peration     | Version:  2406                                  |
|   \\  /    A nd           | Website:  www.openfoam.com                      |
|    \\/     M anipulation  |                                                 |
\*---------------------------------------------------------------------------*/
FoamFile
{
    version     2.0;
    format      ascii;
    arch        "LSB;label=32;scalar=64";
    class       surfaceScalarField;
    location    "0.003";
    object      phi;
}
// * * * * * * * * * * * * * * * * * * * * * * * * * * * * * * * * * * * * * //

dimensions      [1 0 -1 0 0 0 0];

oriented        oriented;

internalField   nonuniform List<scalar> 
17667
(
0.92226767
0.00043010019
0.58002951
0.00035922955
0.65797433
0.00028061217
0.74994989
0.00012574977
0.85096899
0.92245234
-0.0024733751
0.07094177
-0.0022054021
0.084861417
-0.0019184734
0.10121683
-0.0016124357
0.12037863
-0.0012864398
0.14274026
-0.0009404613
0.16868466
-0.00057938067
0.19850631
-0.00022103329
0.2322979
9.1847216e-05
0.26976351
0.00027119363
0.30885696
0.00035629852
0.34881614
0.00044163431
0.39513661
0.00047761653
0.44907187
0.00047024328
0.51094651
0.00042287716
0.58007408
0.00035509022
0.65804359
0.00027871153
0.75004273
0.00012465181
0.85114834
0.92264148
-0.0037280956
0.0075535593
0.0037096329
-0.0037409071
0.0090127187
-0.0037448823
0.01079156
-0.0037363562
0.012965052
-0.0037106622
0.015624493
-0.0036629782
0.018877442
-0.0035887232
0.022848479
-0.0034843564
0.027677959
-0.0033481131
0.033520511
-0.003180392
0.040544917
-0.0029835018
0.048937238
-0.0027607861
0.058907807
-0.0025155379
0.070700458
-0.0022500836
0.084600364
-0.0019653777
0.1009371
-0.0016610784
0.12007999
-0.0013361831
0.14242182
-0.0009905801
0.16834624
-0.00062918387
0.19815258
-0.00027005783
0.23194694
5.079458e-05
0.2694516
0.00024123349
0.30867556
0.000330538
0.34873472
0.0004208834
0.39505207
0.00046198383
0.44903454
0.00045928885
0.51094988
0.00041532569
0.58011574
0.00035071517
0.65811015
0.00027646856
0.75013291
0.00012340668
0.85132685
0.92283419
-0.0037672121
0.0075700589
0.0037517572
-0.0037769903
0.0090236816
-0.0037782105
0.010794119
-0.0037673627
0.012955731
-0.0037398198
0.015598686
-0.0036909344
0.018830532
-0.0036162995
0.022776076
-0.0035124272
0.027576589
-0.0033774951
0.033388366
-0.0032117574
0.040382268
-0.0030173345
0.04874623
-0.0027973853
0.058691634
-0.0025550274
0.070462294
-0.0022924193
0.084342449
-0.0020103155
0.10066029
-0.0017081704
0.11978386
-0.0013848121
0.14210527
-0.0010400366
0.168009
-0.00067878182
0.19779934
-0.00032000604
0.23159672
7.8208502e-06
0.26913303
0.00021038445
0.30848236
0.00030426046
0.34864902
0.00039949015
0.39496299
0.00044364513
0.4489945
0.00044541669
0.51094912
0.00040741601
0.58015193
0.00034610234
0.65817391
0.00027385417
0.75022059
0.00012201952
0.85150451
0.92302905
-0.0037995703
0.0075841798
0.0037865464
-0.0038070559
0.0090324188
-0.0038060249
0.010794506
-0.003792908
0.01294422
-0.0037637203
0.015571336
-0.0037139851
0.018782885
-0.0036393464
0.022703794
-0.0035363175
0.027476203
-0.003403004
0.033257999
-0.0032395216
0.040222055
-0.003047827
0.048558155
-0.0028309237
0.058478742
-0.0025917639
0.070227596
-0.0023323431
0.084088023
-0.0020532209
0.1003868
-0.0017536456
0.11949066
-0.0014322587
0.14179106
-0.0010887529
0.16767337
-0.00072801296
0.19744698
-0.00036965579
0.23124731
-3.6925689e-05
0.26880987
0.00017725321
0.30827786
0.0002774544
0.34855729
0.00037729524
0.39486966
0.00042943249
0.44894685
0.00043667442
0.51094323
0.00039917885
0.58018811
0.00034125749
0.65823479
0.00027084372
0.750306
0.00012048231
0.85168134
0.92322445
-0.0038236613
0.0075961311
0.0038128568
-0.003829003
0.0090390649
-0.0038260903
0.010793092
-0.0038116229
0.012931469
-0.0037815884
0.015543247
-0.0037316198
0.018735117
-0.0036574826
0.022632138
-0.003555731
0.027377236
-0.0034244147
0.03312979
-0.0032635258
0.04006462
-0.0030748707
0.048373331
-0.002861314
0.058269439
-0.0026256751
0.069996694
-0.0023697888
0.083837444
-0.0020940328
0.10011702
-0.0017974404
0.11920081
-0.0014784556
0.14147962
-0.0011366421
0.16733979
-0.00077673176
0.1970958
-0.00041824803
0.23089815
-8.1334306e-05
0.26848288
0.00014296111
0.30806354
0.00025007821
0.34845896
0.00035411643
0.39477254
0.00040417114
0.44890169
0.00041457937
0.51093454
0.00039053406
0.58021134
0.00033617232
0.65829266
0.0002674036
0.75038946
0.00011878741
0.85185729
0.9234189
-0.003839336
0.0076062056
0.0038304739
-0.003842962
0.0090440654
-0.003838905
0.0107906
-0.0038236476
0.012917998
-0.0037932574
0.015514892
-0.0037435418
0.018687709
-0.0036703855
0.022561587
-0.0035703706
0.027280146
-0.0034414824
0.033004172
-0.0032835827
0.039910362
-0.0030983315
0.048192129
-0.0028884645
0.058064075
-0.002656686
0.069769938
-0.0024046945
0.083591079
-0.0021326916
0.099851345
-0.0018394962
0.11891471
-0.0015233411
0.14117137
-0.0011836289
0.16700866
-0.00082484223
0.1967461
-0.00046587223
0.2305489
-0.0001245684
0.26815192
0.00010852087
0.30784071
0.00022205472
0.34835456
0.000329992
0.39467196
0.0003874099
0.44884962
0.00040359645
0.51092049
0.00038150842
0.58023311
0.00033083833
0.65834738
0.00026350722
0.75047135
0.00011693153
0.85203231
0.92361135
-0.0038477971
0.0076153543
0.0038399353
-0.0038503303
0.0090480362
-0.003845065
0.01078695
-0.0038290003
0.012903793
-0.0037984771
0.015486497
-0.0037494012
0.01864105
-0.0036776936
0.02249261
-0.003579911
0.027185434
-0.0034539388
0.032881637
-0.0032994878
0.039759746
-0.003118062
0.048014975
-0.0029122717
0.057863043
-0.0026847214
0.069547701
-0.0024370008
0.083349308
-0.0021691439
0.099590163
-0.0018797595
0.11863279
-0.0015668575
0.14086672
-0.001229649
0.16668037
-0.00087230301
0.1963982
-0.00051274739
0.23019944
-0.00016640888
0.26781637
7.4703695e-05
0.30761024
0.00019332793
0.34824544
0.00030507426
0.39456806
0.00036857638
0.44879195
0.00039156196
0.51090009
0.00037210653
0.58025274
0.0003252416
0.65839886
0.00025912638
0.7505521
0.00011489788
0.85220634
0.92380109
-0.003845587
0.0076237077
0.0038385343
-0.003847575
0.0090515262
-0.0038420568
0.010783171
-0.0038261399
0.012889851
-0.0037962931
0.015458888
-0.0037485575
0.018595847
-0.0036789379
0.022425849
-0.0035839875
0.027093701
-0.0034614966
0.032762754
-0.0033110195
0.039613302
-0.0031338982
0.047842352
-0.0029326207
0.057666785
-0.0027097088
0.069330397
-0.002466655
0.083112531
-0.0022033454
0.099333876
-0.0019181854
0.11835545
-0.0016089556
0.14056609
-0.0012746442
0.1663553
-0.00091908142
0.19605243
-0.00055903997
0.22984989
-0.00020761625
0.26747616
4.1063677e-05
0.30737261
0.00016392997
0.34813243
0.00027962122
0.39446072
0.00034823422
0.44872971
0.00037735085
0.51087404
0.00036217183
0.58026861
0.00031934736
0.65844688
0.00025422866
0.75063212
0.00011264714
0.85237934
0.92398773
-0.0038331946
0.0076317512
0.0038265264
-0.0038351013
0.0090550022
-0.0038299465
0.010779811
-0.0038148334
0.012876786
-0.0037863334
0.015432716
-0.0037406078
0.018552763
-0.0036737352
0.022361964
-0.0035822603
0.027005594
-0.0034638719
0.032648147
-0.0033179556
0.039471619
-0.0031456798
0.047674806
-0.002949404
0.057475792
-0.0027315779
0.069118474
-0.0024936091
0.082881162
-0.0022352592
0.09908289
-0.0019547373
0.11808309
-0.0016495922
0.14026987
-0.0013185658
0.16603384
-0.00096514959
0.19570915
-0.00060512317
0.22950074
-0.00024977283
0.26713242
6.2081195e-06
0.30712804
0.00013402454
0.34801487
0.00025386739
0.39434978
0.00032766668
0.44866284
0.00036227523
0.51084301
0.00035183982
0.58028027
0.00031310967
0.65849139
0.00024880185
0.75071182
0.0001102035
0.85255126
0.92417107
-0.0038106105
0.0076400546
0.003803739
-0.0038129746
0.0090589965
-0.0038086393
0.010777338
-0.0037948436
0.012865116
-0.0037682767
0.015408571
-0.0037251979
0.018512434
-0.0036617373
0.022301619
-0.0035744135
0.026921787
-0.0034607966
0.032538487
-0.0033200857
0.039335342
-0.0031532548
0.047512936
-0.0029625251
0.057290607
-0.0027502651
0.06891241
-0.0025178234
0.082655636
-0.002264854
0.098837614
-0.001989384
0.11781611
-0.0016887315
0.13997847
-0.0013613677
0.16571636
-0.0010104592
0.19536873
-0.00065084004
0.22915238
-0.00029262016
0.26678617
-2.9584082e-05
0.30687679
0.00010368089
0.3478923
0.0002278727
0.39423508
0.00030681155
0.44859144
0.00034655536
0.51080741
0.00034120779
0.58028742
0.00030646312
0.65853252
0.00024282123
0.75079153
0.00010752403
0.85272209
0.92435102
-0.0037770591
0.0076491253
0.0037694753
-0.0037804491
0.0090640791
-0.0037775286
0.010776351
-0.0037656692
0.012855464
-0.0037416923
0.015387109
-0.0037019488
0.01847555
-0.003642608
0.022245521
-0.0035601523
0.026842998
-0.003452022
0.032434486
-0.0033172124
0.039205167
-0.0031564819
0.047357394
-0.0029718876
0.057111814
-0.0027657177
0.068712719
-0.0025392716
0.082436409
-0.0022921131
0.098598461
-0.0020221092
0.11755491
-0.0017263456
0.13969224
-0.001403004
0.1654032
-0.0010549308
0.19503147
-0.00069592975
0.22880501
-0.00033540656
0.26643799
-6.5980786e-05
0.30661951
7.2944035e-05
0.34776453
0.00020152566
0.39411661
0.00028524238
0.44851592
0.00032908155
0.51076833
0.0003292836
0.58028963
0.00029932651
0.65856954
0.00023629559
0.75087146
0.00010463162
0.85289184
0.92452735
-0.0037319692
0.0076594626
0.0037231658
-0.003737015
0.0090708761
-0.0037360982
0.010777439
-0.0037268532
0.012848511
-0.0037061946
0.015369061
-0.0036705284
0.018442852
-0.0036160561
0.022194418
-0.0035392222
0.026769978
-0.0034373321
0.032336896
-0.0033091625
0.039081827
-0.0031552311
0.047208872
-0.002977412
0.056940043
-0.0027778945
0.068519951
-0.0025579337
0.082223954
-0.0023170307
0.098365856
-0.0020529026
0.11729987
-0.0017624146
0.13941158
-0.001443437
0.16509468
-0.0010984747
0.19469765
-0.00074011024
0.22845864
-0.00037769484
0.26608828
-0.00010271642
0.30635706
4.1915958e-05
0.34763154
0.00017461839
0.3939947
0.00026285861
0.44843655
0.00031316601
0.51072344
0.00031965395
0.58028617
0.00029160088
0.65860537
0.00022918226
0.75095174
0.00010160739
0.85306039
0.92469975
-0.0036743809
0.0076710711
0.0036643639
-0.0036812965
0.0090796039
-0.0036835193
0.010781731
-0.0036779946
0.012845348
-0.0036615492
0.01535531
-0.003630748
0.018415121
-0.0035819007
0.022149061
-0.003511446
0.026703479
-0.0034165632
0.032246476
-0.0032957997
0.038966079
-0.0031494055
0.047068097
-0.0029790374
0.056775956
-0.0027867663
0.06833468
-0.0025738097
0.082018766
-0.0023396125
0.098140221
-0.0020817718
0.11705137
-0.0017969312
0.13913681
-0.0014826344
0.16479112
-0.0011409765
0.19436745
-0.00078285073
0.22811286
-0.00041901836
0.2657375
-0.00013977361
0.30609075
1.1007353e-05
0.34749295
0.00014695887
0.39387025
0.00023980863
0.44835329
0.00028923867
0.51068014
0.00030282583
0.58027629
0.00028316995
0.6586336
0.00022131393
0.75103253
9.7917164e-05
0.85322796
0.92486718
-0.0036092797
0.0076853833
0.0035965933
-0.0036188242
0.009090997
-0.0036234791
0.010788499
-0.0036209111
0.012845211
-0.0036084979
0.015345684
-0.003582826
0.018392629
-0.0035401283
0.022109979
-0.00347673
0.026644173
-0.0033896093
0.032163971
-0.003277031
0.038858687
-0.003138937
0.046935814
-0.0029767281
0.056620239
-0.0027923323
0.068157511
-0.0025869141
0.081821351
-0.0023598856
0.09792199
-0.0021087334
0.1168098
-0.001829902
0.13886829
-0.0015205779
0.16449278
-0.0011823301
0.19404098
-0.00082368565
0.22776691
-0.00045911372
0.26538631
-0.0001771967
0.30582218
-2.153704e-05
0.34735014
0.00011842129
0.39374254
0.00021636366
0.44826569
0.00027375246
0.5106296
0.00029412938
0.58026034
0.0002739107
0.65866331
0.00021269912
0.75111386
9.4049891e-05
0.85339424
0.92502916
-0.003528972
0.0077017349
0.0035142935
-0.003540995
0.009104931
-0.0035492848
0.010798972
-0.0035521229
0.012850537
-0.0035454384
0.015341853
-0.003526077
0.018376548
-0.0034904658
0.022078101
-0.0034349596
0.026592886
-0.0033564067
0.032090171
-0.0032528133
0.038760435
-0.0031238007
0.046812783
-0.0029704817
0.056473598
-0.002794609
0.067989062
-0.0025972847
0.08163223
-0.0023778877
0.097711592
-0.0021338239
0.11657551
-0.0018613465
0.13860633
-0.0015572743
0.16419995
-0.0012225064
0.19371828
-0.00086300973
0.22742045
-0.00049852362
0.26503556
-0.0002150158
0.30555247
-5.4991085e-05
0.3472036
8.8995516e-05
0.39361158
0.00019260401
0.44817323
0.00025708113
0.51057277
0.00028135072
0.58024124
0.00026373113
0.65869139
0.00020377829
0.7511952
9.0586963e-05
0.85355868
0.92518588
-0.0034398634
0.0077213336
0.0034219788
-0.0034557021
0.0091227339
-0.0034673387
0.010812821
-0.0034736988
0.012859392
-0.0034730345
0.015344095
-0.0034607446
0.018367654
-0.0034330025
0.022054215
-0.0033861759
0.02655039
-0.003316981
0.032025846
-0.0032231678
0.038672093
-0.003104023
0.046699765
-0.0029603371
0.056336745
-0.0027936498
0.067829959
-0.0026049808
0.081451929
-0.0023936831
0.097509457
-0.0021570984
0.11634887
-0.0018913079
0.13835124
-0.0015927631
0.16391287
-0.0012616453
0.19339954
-0.00090139251
0.22707359
-0.000537233
0.26468555
-0.00025314972
0.30528267
-8.8573307e-05
0.34705316
5.8715702e-05
0.39347813
0.00016842189
0.4480755
0.00023952033
0.51051013
0.00026700919
0.58021973
0.00025251688
0.65871741
0.0001949964
0.7512755
8.8076893e-05
0.85372056
0.92533837
-0.0033400398
0.0077445231
0.0033185583
-0.0033600573
0.0091446889
-0.003377055
0.01083203
-0.0033886865
0.012873543
-0.0033932412
0.015351641
-0.0033875836
0.018365561
-0.0033680883
0.022038718
-0.0033305878
0.026517315
-0.0032714706
0.031971689
-0.0031881962
0.038594392
-0.0030796873
0.046597496
-0.0029463717
0.056210382
-0.0027895369
0.067680832
-0.0026100909
0.081280974
-0.0024073572
0.097316013
-0.0021786298
0.11613023
-0.0019198435
0.13810333
-0.0016271104
0.16363183
-0.0012999258
0.19308501
-0.00093975676
0.22672715
-0.00057569511
0.26433608
-0.00029144858
0.30501323
-0.00012254338
0.34689909
2.7583514e-05
0.39334268
0.00014360927
0.44797232
0.00022159054
0.51044145
0.00025245402
0.58019571
0.00024020973
0.65874236
0.00018641028
0.75135358
8.6625847e-05
0.85387899
0.92548781
-0.0032300868
0.0077717046
0.00320472
-0.0032545515
0.0091712509
-0.0032765727
0.010856502
-0.003293508
0.012893312
-0.0033040321
0.01536526
-0.0033068904
0.018371753
-0.0032962867
0.022031908
-0.0032685891
0.026494002
-0.0032201403
0.031928233
-0.0031480872
0.03852798
-0.003050944
0.046506672
-0.0029287211
0.056095193
-0.0027824031
0.067542301
-0.0026127399
0.081119884
-0.0024190182
0.09713167
-0.0021985094
0.11591992
-0.0019470323
0.13786287
-0.001660393
0.16335709
-0.0013374805
0.19277504
-0.00097844882
0.22638219
-0.00061424135
0.26398685
-0.00032953662
0.30474387
-0.00015701763
0.34674213
-4.6423087e-06
0.39320585
0.00011796243
0.44786345
0.00020220677
0.51036736
0.00023676311
0.58016891
0.00022679509
0.65876628
0.00017774671
0.75142855
8.5668382e-05
0.85403317
0.92563462
-0.003110752
0.007803186
0.003081078
-0.0031401948
0.0092027646
-0.0031680302
0.010886719
-0.0031924222
0.012920459
-0.0032093868
0.015385305
-0.0032180593
0.01838381
-0.0032175132
0.022035215
-0.0032004618
0.026481357
-0.0031633216
0.031896112
-0.0031031419
0.038473486
-0.0030180505
0.046427948
-0.0029076084
0.055991825
-0.0027724344
0.067414952
-0.0026130847
0.080969148
-0.0024288051
0.096956824
-0.0022168572
0.11571825
-0.0019729697
0.13763014
-0.0016926954
0.16308892
-0.0013743792
0.19246996
-0.0010176625
0.2260399
-0.00065346618
0.26363796
-0.00036679783
0.30447316
-0.00019208184
0.34658371
-3.6306297e-05
0.39306652
9.1385903e-05
0.44775039
0.00018139291
0.51028839
0.00021983108
0.58013922
0.00021221325
0.65878915
0.0001686268
0.7514998
8.5158859e-05
0.8541817
0.92577916
-0.0029829748
0.0078392581
0.0029486959
-0.0030177225
0.0092395641
-0.0030516615
0.010923003
-0.0030830147
0.012954496
-0.0031092489
0.015414632
-0.0031254663
0.018403527
-0.0031315143
0.022045153
-0.0031262386
0.026480477
-0.0031013268
0.031876213
-0.0030537947
0.03843166
-0.0029814085
0.046361946
-0.0028833494
0.055900844
-0.0027598741
0.067299298
-0.0026113238
0.080829215
-0.0024368815
0.096791836
-0.0022338057
0.11552551
-0.0019977646
0.13740538
-0.0017241087
0.16282758
-0.0014106761
0.19217004
-0.0010567667
0.22570075
-0.0006935209
0.26329037
-0.00040377711
0.30419992
-0.00022778706
0.34642481
-6.9039092e-05
0.39292513
6.3898499e-05
0.44763302
0.00015972972
0.51020447
0.0002022834
0.58010646
0.00019658284
0.65881143
0.00015868388
0.75156715
8.3838078e-05
0.85432375
0.92592056
-0.0028479055
0.0078801555
0.0028087854
-0.0028882229
0.0092819156
-0.0029285637
0.010965667
-0.0029672801
0.012995861
-0.0030021516
0.015452528
-0.0030294569
0.018434333
-0.0030437574
0.022063409
-0.0030460047
0.026487075
-0.0030344886
0.031869664
-0.0030005118
0.03840339
-0.0029414445
0.046309255
-0.0028562853
0.055822735
-0.0027450008
0.067195802
-0.0026076888
0.080700493
-0.0024434422
0.096637042
-0.002249518
0.11534197
-0.0020215495
0.1371888
-0.0017547358
0.16257328
-0.0014464519
0.19187555
-0.0010960074
0.22536541
-0.00073498964
0.26294544
-0.00044162154
0.30392365
-0.00026409381
0.34626519
-0.00010249421
0.39278182
3.5635418e-05
0.44751136
0.00013763298
0.51011527
0.00018453015
0.58007042
0.00018000503
0.65883389
0.00014778729
0.75163056
8.20299e-05
0.85445797
0.92605812
-0.0027069184
0.0079260239
0.0026628009
-0.0027529816
0.009329984
-0.0027999246
0.011014902
-0.002846212
0.01304476
-0.0028897631
0.015499048
-0.0029279281
0.018475873
-0.0029557169
0.022095092
-0.0029684021
0.026504177
-0.0029659634
0.031872137
-0.0029442613
0.038387275
-0.0028986741
0.046269965
-0.0028268107
0.055757864
-0.0027281412
0.067104862
-0.0026024527
0.080583347
-0.0024487115
0.096492733
-0.0022641765
0.11516785
-0.0020444718
0.1369806
-0.0017847007
0.16232623
-0.001481853
0.19158679
-0.0011359817
0.225035
-0.00077860302
0.26260462
-0.00048187112
0.30364463
-0.00030101716
0.34610308
-0.00013663517
0.39263666
6.9715525e-06
0.44738513
0.00011514589
0.51002076
0.00016655395
0.58003096
0.00016254771
0.6588572
0.00013590427
0.75169004
7.9232705e-05
0.85458361
0.92619078
-0.0025615705
0.007976915
0.0025123952
-0.0026134372
0.0093838193
-0.0026670249
0.011070744
-0.0027208858
0.0131012
-0.002772995
0.015554101
-0.0028206504
0.01852689
-0.0028603778
0.022138678
-0.0028848586
0.026533049
-0.0028929048
0.0318851
-0.0028855221
0.03838529
-0.0028536575
0.046244136
-0.0027953938
0.055706491
-0.0027096827
0.067026798
-0.0025959269
0.080478069
-0.0024529448
0.096359155
-0.0022779864
0.11500334
-0.0020666997
0.13678093
-0.0018141366
0.1620866
-0.0015170304
0.19130407
-0.0011765675
0.22471037
-0.00082237194
0.26226748
-0.00052262223
0.30336323
-0.00033849476
0.34593858
-0.00017148438
0.39248982
-2.3074183e-05
0.44725497
9.2113901e-05
0.50992014
0.00014819156
0.57998792
0.00014421378
0.65888183
0.00012274278
0.75174586
7.5260737e-05
0.85470014
0.92631854
-0.0024136675
0.0080327982
0.0023594474
-0.0024713237
0.0094433855
-0.0025315421
0.01113315
-0.0025929729
0.013165135
-0.0026536828
0.015617673
-0.0027110653
0.018587537
-0.0027617517
0.022193096
-0.0028015258
0.026577143
-0.002821589
0.031909947
-0.0028228495
0.038391606
-0.0028064329
0.046233565
-0.002762478
0.055669424
-0.0026900624
0.066961955
-0.0025884704
0.080384886
-0.0024564282
0.096236489
-0.0022911831
0.11484857
-0.0020884178
0.1365899
-0.0018431918
0.16185452
-0.0015520761
0.19102765
-0.0012171781
0.22439169
-0.00086619969
0.26193407
-0.00056393036
0.30307997
-0.00037671301
0.34577189
-0.00020706139
0.39234128
-5.3871314e-05
0.4471209
6.8323505e-05
0.50981342
0.00012913543
0.57994124
0.00012487039
0.6589081
0.0001086335
0.75179777
7.0597746e-05
0.85480721
0.92644345
-0.0022652235
0.0080935764
0.0022060436
-0.0023285776
0.0095085763
-0.0023953288
0.011202006
-0.0024642295
0.013236444
-0.0025334421
0.015689639
-0.0026004437
0.018657679
-0.0026619713
0.022258194
-0.0027140579
0.02663328
-0.002750973
0.031951418
-0.0027657402
0.038411298
-0.0027590399
0.04623263
-0.0027288332
0.055646149
-0.0026698095
0.066910422
-0.0025804883
0.080303901
-0.0024594826
0.096124837
-0.0023040195
0.11470364
-0.0021098299
0.13640759
-0.0018720215
0.1616301
-0.0015870799
0.19075772
-0.0012577665
0.224079
-0.00091009559
0.2616045
-0.00060575565
0.3027953
-0.00041571611
0.34560316
-0.000243384
0.39219098
-8.5189538e-05
0.44698271
4.3537087e-05
0.50970106
0.00010927162
0.57989068
0.00010547225
0.65893526
9.4262931e-05
0.7518458
6.4991042e-05
0.85490548
0.92656846
-0.0021183594
0.0081590809
0.0020543806
-0.0021872365
0.0095792081
-0.0022603315
0.011277113
-0.0023365003
0.013314916
-0.0024140029
0.015769776
-0.0024903976
0.018737086
-0.0025624767
0.022333712
-0.0026262666
0.026700994
-0.0026770968
0.032006776
-0.0027061893
0.038445737
-0.0027117168
0.046244034
-0.0026955582
0.05563614
-0.0026495279
0.066871592
-0.0025724299
0.080235053
-0.0024624576
0.096024209
-0.0023167716
0.11456855
-0.0021311561
0.136234
-0.0019007931
0.16141337
-0.0016221524
0.19049443
-0.001298425
0.22377231
-0.00095414002
0.26127887
-0.00064815008
0.30250972
-0.00045552999
0.34543252
-0.00028047667
0.39203888
-0.00011716519
0.44684025
1.7432969e-05
0.50958372
8.8126906e-05
0.57983617
8.3444198e-05
0.65896469
7.8039905e-05
0.75188908
5.9224784e-05
0.85499347
0.92669604
-0.0019752495
0.0082290676
0.0019067119
-0.0020493849
0.009655012
-0.0021285338
0.011358176
-0.0022116524
0.013400227
-0.002297099
0.015857734
-0.0023825163
0.018825379
-0.0024647462
0.022419234
-0.0025397941
0.026779814
-0.0026029256
0.032074259
-0.0026489322
0.038496877
-0.0026677763
0.046268545
-0.0026607586
0.055635206
-0.0026294919
0.066847412
-0.0025647408
0.0801785
-0.0024657237
0.095934549
-0.0023297387
0.11444325
-0.0021526343
0.1360691
-0.0019296965
0.16120433
-0.001657422
0.19023786
-0.0013392567
0.22347162
-0.0009984069
0.26095727
-0.00069116863
0.30222367
-0.00049617158
0.34526046
-0.0003183642
0.39188493
-0.00014985094
0.44669345
-9.820179e-06
0.50946185
6.6178212e-05
0.5797773
6.0825783e-05
0.65899619
6.0532416e-05
0.75192831
5.1943157e-05
0.85507184
0.92682329
-0.0018380938
0.008303223
0.0017653106
-0.0019171415
0.0097356418
-0.0020019635
0.011444815
-0.002091615
0.013491962
-0.0021845531
0.015953062
-0.0022785079
0.018922074
-0.0023703786
0.022514249
-0.0024561815
0.026869226
-0.0025311596
0.032153383
-0.0025899537
0.038560447
-0.0026257475
0.046309837
-0.0026328858
0.055648519
-0.0026114135
0.066832928
-0.0025579515
0.080133284
-0.0024696809
0.095855683
-0.0023432437
0.11432761
-0.0021745226
0.13591278
-0.0019589279
0.16100292
-0.0016930284
0.18998802
-0.0013803789
0.22317692
-0.0010429883
0.26063975
-0.00073486674
0.30193756
-0.00053766302
0.34508717
-0.0003570635
0.39172908
-0.00018327822
0.44654223
-3.6317647e-05
0.50933393
4.2714669e-05
0.57971634
3.9187986e-05
0.65902725
4.5923809e-05
0.75196173
4.4635357e-05
0.8551439
0.92694475
-0.0017090594
0.0083811723
0.0016324088
-0.0017926
0.0098206825
-0.0018826328
0.011536573
-0.0019783105
0.013589622
-0.0020781909
0.016055218
-0.0021800932
0.019026592
-0.0022809786
0.022618143
-0.0023768813
0.026968594
-0.0024629697
0.032243463
-0.0025338159
0.038635888
-0.0025840236
0.046365303
-0.0026042416
0.055674522
-0.0025932475
0.066829058
-0.0025523549
0.080101008
-0.0024747353
0.095787559
-0.0023576147
0.11422143
-0.002197081
0.13576486
-0.0019886973
0.16080901
-0.0017291252
0.18974489
-0.0014219231
0.22288814
-0.0010879928
0.26032633
-0.00077929554
0.3016517
-0.00058001027
0.34491276
-0.00039657922
0.39157129
-0.00021749939
0.44638656
-6.4247965e-05
0.5092006
1.8983831e-05
0.57965211
1.49194e-05
0.65906022
3.0360986e-05
0.7519879
3.8235468e-05
0.85520793
0.92705588
-0.0015902237
0.0084624874
0.001510141
-0.001677773
0.0099096582
-0.0017724815
0.011632925
-0.0018735979
0.01369263
-0.0019797811
0.01616358
-0.0020889416
0.019138263
-0.0021981093
0.022730208
-0.0023033509
0.027077184
-0.0023997795
0.032343768
-0.0024817605
0.03872236
-0.0025431975
0.046431963
-0.002577148
0.055714937
-0.0025793883
0.0668386
-0.0025492225
0.080078648
-0.0024813575
0.095729228
-0.0023731919
0.11412437
-0.0022205825
0.13562511
-0.0020192194
0.16062244
-0.0017658785
0.1895084
-0.0014640413
0.22260524
-0.001133564
0.26001703
-0.00082454655
0.30136636
-0.00062322356
0.34473725
-0.00043691064
0.39141147
-0.00025254623
0.44622646
-9.3250657e-05
0.5090621
-4.8063136e-06
0.57958359
-1.2105247e-05
0.65909779
1.0438739e-05
0.75200854
3.1479076e-05
0.85525992
0.92715533
-0.0014835224
0.0085466965
0.0014004901
-0.0015745427
0.010002043
-0.0016733299
0.011733289
-0.0017792279
0.013800346
-0.0018909952
0.016277445
-0.0020066375
0.019256331
-0.0021232636
0.022849643
-0.0022369887
0.027194168
-0.002342917
0.032453486
-0.0024353387
0.038819201
-0.0025082418
0.046510035
-0.0025561373
0.055769013
-0.002570489
0.066860054
-0.0025482988
0.080064649
-0.0024898551
0.095680463
-0.0023903082
0.11403612
-0.0022453012
0.13549322
-0.0020507192
0.16044298
-0.0018034721
0.18927841
-0.0015069134
0.22232814
-0.0011799752
0.25971195
-0.00087081989
0.30108174
-0.00066732219
0.34456046
-0.00047806217
0.39124954
-0.00028843927
0.44606195
-0.0001231852
0.50891853
-3.5473314e-05
0.57951674
-4.0849623e-05
0.65913457
-1.0715871e-05
0.75202266
2.5559551e-05
0.85529812
0.92724758
-0.001390701
0.0086332955
0.0013052368
-0.0014846124
0.010097273
-0.001586833
0.011837036
-0.0016967985
0.013912076
-0.0018133649
0.016396053
-0.0019346352
0.019379968
-0.0020578033
0.02297556
-0.0021790389
0.027318605
-0.0022934466
0.032571633
-0.0023952173
0.038925351
-0.0024779867
0.046597947
-0.0025351417
0.055832221
-0.0025594163
0.066891502
-0.0025481919
0.080061928
-0.0025005496
0.095642638
-0.0024093144
0.1139564
-0.0022715267
0.13536883
-0.0020834369
0.16027036
-0.0018420965
0.18905474
-0.0015507545
0.22205679
-0.0012277423
0.25941149
-0.0009184502
0.30079785
-0.00071230678
0.34438186
-0.00052002707
0.39108542
-0.00032516983
0.44589307
-0.00015387737
0.50876984
-6.2199234e-05
0.57944686
-6.0872813e-05
0.65916554
-2.408465e-05
0.75203065
2.1120861e-05
0.85532927
0.92733927
-0.0013132731
0.0087217592
0.0012259174
-0.0014094686
0.010194758
-0.0015144438
0.011943506
-0.0016277228
0.014027086
-0.0017482566
0.016518594
-0.0018742471
0.019508292
-0.0020029782
0.02310701
-0.002130685
0.027449488
-0.002252493
0.032697165
-0.0023625333
0.03903977
-0.0024542654
0.046694844
-0.0025210011
0.055905069
-0.0025566256
0.066934429
-0.0025551197
0.080069011
-0.0025144814
0.095611967
-0.0024305901
0.11388424
-0.0022995503
0.13525147
-0.0021176033
0.16010423
-0.0018819433
0.18883719
-0.0015957942
0.22179118
-0.0012769795
0.25911591
-0.00096716773
0.30051429
-0.00075804336
0.34420105
-0.00056278919
0.39091911
-0.00036270601
0.44571981
-0.00018520406
0.50861584
-8.7923746e-05
0.57937231
-7.5376378e-05
0.65918606
-3.2608919e-05
0.75203324
1.7322447e-05
0.8553579
0.92743599
-0.0012524831
0.0088115541
0.0011637855
-0.0013503428
0.010293897
-0.0014573775
0.012052026
-0.0015731938
0.014144624
-0.0016968358
0.016644236
-0.0018266032
0.019640388
-0.0019598748
0.023243001
-0.0020929612
0.027585759
-0.0022210311
0.032828976
-0.0023382016
0.039161352
-0.0024378543
0.046799713
-0.0025132365
0.055986631
-0.0025582744
0.066986787
-0.002565379
0.080084801
-0.002531511
0.095588366
-0.0024544194
0.11381914
-0.0023296458
0.13514068
-0.0021534532
0.15994422
-0.0019231975
0.18862549
-0.0016421325
0.22153121
-0.0013274928
0.2588252
-0.0010166247
0.30023044
-0.00080425019
0.34401766
-0.00060633442
0.3907509
-0.00040101439
0.44554216
-0.00021718799
0.50845645
-0.00011758855
0.5792964
-9.9710459e-05
0.65920206
-4.7058712e-05
0.75202657
1.5005776e-05
0.85537594
0.92754049
-0.0012092769
0.0089021505
0.0011197822
-0.0013081843
0.010394089
-0.0014165831
0.012161918
-0.0015341576
0.014263932
-0.0016600394
0.016772133
-0.0017926251
0.019775323
-0.001929389
0.023382511
-0.0020667253
0.027726317
-0.0021998589
0.0329659
-0.0023229124
0.03928888
-0.0024291924
0.046911291
-0.0025117009
0.056075423
-0.0025636321
0.06704617
-0.0025783013
0.080108342
-0.0025517758
0.095572349
-0.0024810399
0.11376067
-0.0023620704
0.135036
-0.0021912074
0.15978989
-0.0019660251
0.18841929
-0.001689852
0.22127668
-0.0013800327
0.25853998
-0.0010681631
0.29994623
-0.00085069259
0.34382979
-0.00065064297
0.39058129
-0.00044005605
0.44536009
-0.0002498792
0.50829162
-0.0001504638
0.57922165
-0.00012859342
0.65921457
-5.9053714e-05
0.75200306
1.396549e-05
0.85538489
0.92765038
-0.0011842881
0.0089930359
0.0010945227
-0.0012836444
0.010494751
-0.0013927289
0.01227252
-0.0015112965
0.014384263
-0.0016385614
0.016901449
-0.0017730123
0.019912166
-0.0019122197
0.023524517
-0.0020526652
0.027870044
-0.00218964
0.033106738
-0.0023172885
0.039421091
-0.0024288681
0.047028274
-0.0025172416
0.056170205
-0.0025753824
0.067111918
-0.0025966729
0.080138643
-0.0025760385
0.095562443
-0.0025108394
0.113708
-0.0023971032
0.13493685
-0.0022310794
0.15964076
-0.0020105861
0.18821823
-0.0017389778
0.22102727
-0.0014339668
0.25826021
-0.0011218553
0.29966235
-0.00089775537
0.34363602
-0.00069572029
0.39041039
-0.00047977876
0.4451735
-0.00028327734
0.50812139
-0.00018176305
0.57914574
-0.00015285267
0.65922022
-6.6634414e-05
0.75196317
1.3529472e-05
0.85538841
0.92776033
-0.0011778357
0.0090837245
0.0010882964
-0.0012770729
0.010595327
-0.0013861963
0.012383201
-0.0015050238
0.014504898
-0.001632845
0.017031373
-0.0017682363
0.020050009
-0.001908862
0.023668009
-0.0020512934
0.028015839
-0.0021908953
0.033250297
-0.0023218461
0.039556712
-0.0024373723
0.047149326
-0.0025302457
0.056269625
-0.0025934611
0.067182887
-0.0026207432
0.080175078
-0.0026049017
0.095557506
-0.0025442694
0.11366012
-0.0024350482
0.1348425
-0.0022732989
0.15949625
-0.0020570288
0.18802181
-0.0017895212
0.22078249
-0.0014883256
0.25798488
-0.0011764059
0.29937935
-0.00094583139
0.34343689
-0.00074161164
0.39023797
-0.00052015627
0.44498221
-0.00031729761
0.50794573
-0.00020778037
0.5790627
-0.00017339081
0.65922056
-7.679104e-05
0.75191333
1.3570588e-05
0.85538209
0.92786598
-0.0011899306
0.0091737667
0.0011010756
-0.0012885226
0.010695302
-0.0013970824
0.012493366