/*--------------------------------*- C++ -*----------------------------------*\
| =========                 |                                                 |
| \\      /  F ield         | OpenFOAM: The Open Source CFD Toolbox           |
|  \\    /   O peration     | Version:  2406                                  |
|   \\  /    A nd           | Website:  www.openfoam.com                      |
|    \\/     M anipulation  |                                                 |
\*---------------------------------------------------------------------------*/
FoamFile
{
    version     2.0;
    format      ascii;
    arch        "LSB;label=32;scalar=64";
    class       volScalarField;
    location    "0.003";
    object      T;
}
// * * * * * * * * * * * * * * * * * * * * * * * * * * * * * * * * * * * * * //

dimensions      [0 0 0 1 0 0 0];

internalField   nonuniform List<scalar> 
8951
(
293.16866
292.92478
293.01678
293.07549
293.13623
293.1696
293.30967
293.22475
293.13903
293.05376
292.96948
292.88607
292.80273
292.71806
292.63211
292.56841
292.61681
292.70764
292.78147
292.85229
292.92994
293.02056
293.07767
293.13751
293.1707
293.77267
293.7689
293.76253
293.75259
293.73787
293.71688
293.68808
293.65008
293.60195
293.54355
293.47574
293.40025
293.31935
293.23536
293.15024
293.06531
292.98121
292.89786
292.81449
292.72974
292.64364
292.57857
292.62396
292.71441
292.78754
292.85794
292.93492
293.02411
293.07972
293.13867
293.17194
293.76272
293.75955
293.75399
293.74509
293.73163
293.71221
293.68531
293.64947
293.60366
293.54759
293.48191
293.40823
293.32872
293.24573
293.16125
293.07672
292.99283
292.90958
292.8262
292.74137
292.65526
292.58884
292.63115
292.72116
292.79354
292.86348
292.93975
293.02742
293.08164
293.1397
293.17329
293.75259
293.75
293.74518
293.73724
293.72503
293.70717
293.68213
293.64843
293.60493
293.55118
293.48767
293.41584
293.33779
293.25584
293.17207
293.08797
293.00434
292.92121
292.83784
292.75297
292.66695
292.59926
292.63838
292.72788
292.79947
292.8689
292.9444
293.03047
293.08343
293.1406
293.17476
293.74226
293.74023
293.73614
293.72915
293.71816
293.7018
293.67858
293.64698
293.60577
293.55435
293.49303
293.42309
293.34655
293.2657
293.18268
293.09907
293.01572
292.93274
292.84942
292.76455
292.6787
292.60985
292.64568
292.73456
292.80532
292.87423
292.94889
293.03328
293.08506
293.14134
293.17635
293.73178
293.73032
293.72696
293.7209
293.71107
293.69617
293.67471
293.64516
293.6062
293.5571
293.49799
293.42998
293.35499
293.27531
293.19309
293.10999
293.02697
292.94416
292.86092
292.77609
292.69047
292.62068
292.65302
292.74119
292.81106
292.87942
292.95323
293.03586
293.08654
293.14192
293.1781
293.72126
293.72034
293.71769
293.7125
293.70378
293.69028
293.67053
293.64298
293.60625
293.55946
293.50256
293.43652
293.36313
293.28465
293.20327
293.12074
293.03807
292.95546
292.87233
292.7876
292.70222
292.63166
292.66038
292.74777
292.81673
292.88449
292.95738
293.03821
293.08782
293.14233
293.18002
293.71077
293.71033
293.7083
293.70395
293.69632
293.68418
293.66609
293.64049
293.60593
293.56142
293.50676
293.44271
293.37096
293.29372
293.21324
293.1313
293.04901
292.96663
292.88364
292.79905
292.71393
292.6426
292.6679
292.75428
292.82233
292.88944
292.96136
293.04035
293.08888
293.14256
293.18214
293.70032
293.70036
293.69895
293.69541
293.6888
293.67795
293.66144
293.63772
293.60529
293.56304
293.51059
293.44855
293.37848
293.30253
293.22297
293.14166
293.05978
292.97766
292.89484
292.81043
292.72557
292.65349
292.6755
292.76073
292.82782
292.89427
292.96515
293.04231
293.08971
293.14259
293.18447
293.69001
293.69051
293.68969
293.6869
293.68126
293.67163
293.65664
293.63473
293.60436
293.56431
293.51407
293.45405
293.38569
293.31107
293.23247
293.15182
293.07038
292.98854
292.90592
292.82173
292.73713
292.66441
292.68312
292.76709
292.83321
292.89894
292.96877
293.04409
293.09028
293.1424
293.18701
293.67992
293.68084
293.68057
293.67849
293.67376
293.66529
293.65173
293.63155
293.60317
293.56528
293.51722
293.45923
293.3926
293.31934
293.24174
293.16178
293.08079
292.99926
292.91688
292.83294
292.7486
292.67535
292.69076
292.77335
292.83848
292.90346
292.97221
293.04572
293.09059
293.14196
293.18976
293.67013
293.67143
293.67166
293.67023
293.66635
293.65897
293.64678
293.62824
293.60177
293.56598
293.52006
293.46409
293.39921
293.32734
293.25076
293.17151
293.09101
293.00982
292.9277
292.84406
292.75999
292.68624
292.69841
292.7795
292.84362
292.90781
292.97546
293.04718
293.09065
293.14124
293.19273
293.66068
293.66232
293.663
293.66219
293.65911
293.65275
293.64183
293.62485
293.6002
293.56644
293.52262
293.46866
293.40552
293.33506
293.25953
293.18102
293.10103
293.02021
292.93839
292.85509
292.77131
292.69706
292.706
292.78552
292.84864
292.91197
292.97855
293.04848
293.09048
293.14022
293.19593
293.65161
293.65363
293.65477
293.6545
293.65212
293.64669
293.63695
293.62143
293.59851
293.56669
293.52491
293.47293
293.41155
293.34251
293.26805
293.1903
293.11085
293.03042
292.94893
292.86603
292.78261
292.70778
292.71329
292.7914
292.85353
292.91594
292.98145
293.04961
293.0901
293.13886
293.19931
293.64302
293.64533
293.64686
293.64712
293.64544
293.64086
293.63219
293.61802
293.59674
293.56677
293.52697
293.47692
293.41729
293.34969
293.27632
293.19935
293.12046
293.04045
292.95933
292.87687
292.79392
292.71836
292.72034
292.79714
292.85827
292.91973
292.98415
293.05055
293.08953
293.13718
293.20282
293.63501
293.63758
293.6395
293.64024
293.63908
293.63521
293.62756
293.61466
293.59491
293.56671
293.52881
293.48066
293.42276
293.3566
293.28433
293.20817
293.12985
293.05028
292.96957
292.88758
292.80501
292.72879
292.72728
292.80273
292.86286
292.92333
292.98664
293.05129
293.08881
293.13519
293.20639
293.62762
293.63039
293.6326
293.63378
293.63309
293.62981
293.6231
293.61139
293.59309
293.56656
293.53047
293.48416
293.42796
293.36324
293.29208
293.21674
293.13902
293.05992
292.97964
292.89814
292.81585
292.73904
292.73412
292.80817
292.8673
292.92673
292.98892
293.05183
293.08794
293.13291
293.20995
293.62076
293.62366
293.62601
293.62742
293.62743
293.62507
293.61907
293.60834
293.59133
293.56634
293.53198
293.48744
293.43291
293.36961
293.29958
293.22508
293.14797
293.06936
292.98954
292.90853
292.82643
292.74911
292.74087
292.81345
292.87157
292.92993
292.99097
293.05217
293.08693
293.13039
293.21343
293.61458
293.61761
293.62017
293.62188
293.62225
293.6204
293.61521
293.60551
293.58968
293.56611
293.53336
293.49052
293.43761
293.37573
293.30683
293.23317
293.1567
293.0786
292.99925
292.91872
292.83687
292.75885
292.74751
292.81858
292.87567
292.93292
292.99277
293.05229
293.08579
293.12772
293.21681
293.60913
293.61226
293.61497
293.61689
293.61753
293.6162
293.61176
293.60287
293.58813
293.56586
293.53464
293.49342
293.44208
293.38159
293.31382
293.24102
293.1652
293.08763
293.00878
292.92872
292.84716
292.76836
292.75403
292.82355
292.87961
292.93572
292.99431
293.05222
293.08451
293.12505
293.22003
293.60442
293.6076
293.61042
293.61252
293.6134
293.61241
293.60859
293.60055
293.58669
293.56558
293.53582
293.49615
293.44634
293.38721
293.32057
293.24864
293.17348
293.09646
293.01811
292.93852
292.85726
292.77777
292.76042
292.82837
292.88339
292.93833
292.99556
293.05195
293.0831
293.12254
293.22313
293.60042
293.60363
293.60651
293.60873
293.60982
293.60909
293.60569
293.59839
293.58544
293.56538
293.53695
293.49874
293.45039
293.3926
293.32707
293.25602
293.18154
293.10508
293.02724
292.9481
292.86711
292.78713
292.76669
292.83305
292.88703
292.94077
292.99656
293.05151
293.08158
293.12031
293.22614
293.59713
293.60032
293.60323
293.60552
293.60673
293.60621
293.60307
293.59622
293.58429
293.56551
293.53816
293.50123
293.45425
293.39776
293.33334
293.26317
293.18938
293.11348
293.03616
292.95747
292.8767
292.79624
292.77283
292.83757
292.89054
292.94304
292.99732
293.0509
293.07993
293.1184
293.229
293.59453
293.59769
293.60058
293.6029
293.60421
293.60388
293.60104
293.59461
293.58338
293.56556
293.53925
293.50357
293.45794
293.40271
293.33939
293.2701
293.19701
293.12169
293.04488
292.96661
292.88607
292.80532
292.77884
292.84196
292.89392
292.94515
292.99786
293.05014
293.07818
293.11677
293.23166
293.5926
293.59569
293.59854
293.60085
293.60221
293.60201
293.59943
293.59338
293.58262
293.5656
293.54039
293.5058
293.46146
293.40746
293.34522
293.27681
293.20442
293.12969
293.0534
292.97555
292.89525
292.81442
292.78478
292.84622
292.89718
292.94712
292.99819
293.04923
293.07631
293.1154
293.234
293.5913
293.59431
293.59708
293.59935
293.60071
293.60058
293.59817
293.59244
293.58206
293.56557
293.54145
293.50818
293.46489
293.41203
293.35084
293.28332
293.21164
293.13748
293.06171
292.98427
292.90424
292.82346
292.79098
292.85035
292.90033
292.94895
292.99833
293.04816
293.07436
293.11426
293.23593
293.59058
293.59348
293.59617
293.59836
293.59968
293.59958
293.59729
293.5918
293.58184
293.56592
293.54262
293.51032
293.46813
293.41643
293.35627
293.28962
293.21865
293.14508
293.06982
292.99279
292.91305
292.83234
292.79719
292.85437
292.90338
292.95065
292.99834
293.04691
293.07233
293.11333
293.23746
293.5904
293.59318
293.59575
293.59785
293.59911
293.59899
293.59677
293.59146
293.58184
293.56645
293.54375
293.51233
293.47132
293.42067
293.36151
293.29574
293.22547
293.15249
293.07773
293.0011
292.92167
292.84105
292.8033
292.85828
292.90634
292.95224
292.99823
293.04548
293.07024
293.11256
293.23874
293.5907
293.59335
293.59578
293.59776
293.59893
293.59877
293.59657
293.59139
293.58204
293.56708
293.54499
293.51443
293.47439
293.42475
293.36659
293.30167
293.23211
293.15971
293.08544
293.00922
292.93011
292.84959
292.80927
292.86208
292.90922
292.95372
292.99803
293.04385
293.06814
293.11193
293.23994
293.59141
293.59392
293.59621
293.59806
293.59912
293.59889
293.59668
293.59158
293.58243
293.56785
293.54632
293.51646
293.47732
293.42873
293.37151
293.30742
293.23857
293.16675
293.09296
293.01715
292.93836
292.85796
292.81514
292.86579
292.912
292.95512
292.99776
293.04201
293.06601
293.11153
293.24108
293.59247
293.59483
293.59698
293.59869
293.59962
293.59929
293.59705
293.592
293.58302
293.56875
293.54772
293.51853
293.48024
293.43258
293.37628
293.31301
293.24486
293.1736
293.1003
293.02488
292.94644
292.86615
292.82091
292.86939
292.9147
292.95643
292.99741
293.04
293.06391
293.1114
293.24199
293.59381
293.59602
293.59802
293.59958
293.60038
293.59995
293.59765
293.59262
293.58376
293.56976
293.54918
293.52062
293.4831
293.43629
293.38089
293.31844
293.25097
293.18029
293.10746
293.03244
292.95432
292.87413
292.82662
292.8729
292.91732
292.95765
292.99698
293.03794
293.06189
293.11147
293.24243
293.59535
293.59742
293.59927
293.60068
293.60135
293.6008
293.59843
293.5934
293.58464
293.57088
293.55068
293.52269
293.48587
293.43989
293.38539
293.32373
293.25693
293.18681
293.11444
293.03981
292.96203
292.88182
292.83231
292.87631
292.91985
292.95878
292.99651
293.03591
293.05983
293.11169
293.2422
293.59702
293.59895
293.60065
293.60192
293.60245
293.60179
293.59935
293.5943
293.58562
293.57206
293.55222
293.52474
293.4886
293.44343
293.38974
293.32886
293.26273
293.19317
293.12125
293.047
292.96954
292.88934
292.83802
292.87962
292.92229
292.95983
292.99597
293.03391
293.05771
293.11202
293.24126
293.59875
293.60054
293.6021
293.60323
293.60363
293.60286
293.60034
293.59528
293.58667
293.57328
293.55377
293.52678
293.49128
293.44686
293.39395
293.33384
293.26839
293.19937
293.12791
293.05403
292.97688
292.89678
292.84377
292.88282
292.92463
292.96081
292.99535
293.03197
293.05574
293.11245
293.23972
293.60044
293.60211
293.60354
293.60454
293.60482
293.60395
293.60136
293.59628
293.58773
293.57452
293.55531
293.52879
293.4939
293.45021
293.39803
293.33868
293.2739
293.20542
293.1344
293.06089
292.98405
292.9041
292.84954
292.88592
292.92689
292.9617
292.99468
293.03014
293.05389
293.11281
293.23775
293.60203
293.60358
293.60489
293.60578
293.60594
293.60498
293.60233
293.59724
293.58876
293.57572
293.55681
293.53073
293.49645
293.45346
293.40203
293.34342
293.27927
293.21134
293.14075
293.06761
292.99106
292.91131
292.85508
292.88889
292.92906
292.96252
292.99403
293.02845
293.05218
293.11257
293.23563
293.60344
293.60488
293.60609
293.60687
293.60694
293.6059
293.6032
293.59812
293.58971
293.57684
293.55822
293.53259
293.49888
293.45659
293.40593
293.34803
293.28451
293.21711
293.14696
293.07418
292.99793
292.91835
292.86023
292.89175
292.93114
292.96327
292.99339
293.02685
293.05055
293.11141
293.23355
293.6046
293.60595
293.60706
293.60775
293.60774
293.60664
293.60391
293.59885
293.59053
293.57784
293.55953
293.53432
293.50117
293.45955
293.40968
293.35248
293.28962
293.22275
293.15304
293.08062
293.00467
292.92521
292.86522
292.8945
292.93313
292.96396
292.99273
293.02534
293.04913
293.11
293.23172
293.60545
293.60671
293.60774
293.60836
293.60829
293.60714
293.6044
293.59938
293.59117
293.57868
293.56068
293.53592
293.50334
293.46239
293.41327
293.3568
293.2946
293.22827
293.15899
293.08692
293.01127
292.93188
292.87013
292.89717
292.93505
292.9646
292.99209
293.02403
293.04795
293.10934
293.23046
293.60592
293.60711
293.60807
293.60862
293.6085
293.60734
293.60462
293.59966
293.59158
293.57932
293.56166
293.53736
293.50538
293.46512
293.41672
293.361
293.29945
293.23367
293.16482
293.09311
293.01774
292.93837
292.87502
292.89977
292.9369
292.9652
292.99152
293.02293
293.047
293.10935
293.22976
293.60597
293.60711
293.60802
293.60853
293.60838
293.60721
293.60452
293.59965
293.59173
293.57972
293.56243
293.53862
293.50725
293.4677
293.42004
293.36506
293.30418
293.23896
293.17054
293.09918
293.02409
292.94473
292.87994
292.90231
292.93868
292.96577
292.99104
293.02191
293.04628
293.10955
293.22932
293.60556
293.60666
293.60753
293.60802
293.60786
293.6067
293.60407
293.59931
293.59158
293.57985
293.56295
293.53967
293.50893
293.47011
293.42322
293.36901
293.3088
293.24413
293.17616
293.10515
293.03033
292.95098
292.88483
292.90479
292.94041
292.96632
292.99063
293.02096
293.04582
293.10982
293.22909
293.60467
293.60573
293.60658
293.60705
293.6069
293.60578
293.60323
293.5986
293.59109
293.57968
293.56321
293.54047
293.51041
293.47234
293.42625
293.37283
293.31331
293.24921
293.18168
293.11101
293.03645
292.95712
292.8897
292.90718
292.94209
292.96687
292.99031
293.02014
293.0456
293.11027
293.23064
293.60328
293.60432
293.60516
293.60563
293.6055
293.60444
293.60199
293.59752
293.59025
293.57919
293.56318
293.54103
293.51167
293.47438
293.42914
293.37653
293.31771
293.25419
293.18711
293.11678
293.04246
292.96315
292.89454
292.90952
292.94372
292.96742
292.9901
293.01953
293.04558
293.11094
293.23506
293.60139
293.60242
293.60325
293.60374
293.60365
293.60266
293.60033
293.59606
293.58906
293.57836
293.56285
293.54133
293.51271
293.47626
293.43188
293.38008
293.322
293.25909
293.19246
293.12246
293.04836
292.96906
292.89942
292.91179
292.94532
292.96799
292.98999
293.01912
293.04572
293.11156
293.2402
293.59901
293.60003
293.60088
293.60139
293.60135
293.60045
293.59826
293.5942
293.58749
293.5772
293.56222
293.54136
293.51355
293.47799
293.43447
293.38347
293.32618
293.26389
293.19772
293.12805
293.05416
292.97487
292.90429
292.9141
292.9469
292.96858
292.98997
293.01888
293.04595
293.1115
293.24692
293.59615
293.59718
293.59804
293.59859
293.59862
293.59782
293.59579
293.59195
293.58556
293.5757
293.56128
293.54112
293.51413
293.47953
293.43689
293.38672
293.33027
293.26861
293.2029
293.13355
293.05986
292.98056
292.90913
292.91644
292.94846
292.96922
292.99002
293.0188
293.04624
293.11036
293.25407
293.59284
293.59388
293.59477
293.59536
293.59547
293.59479
293.59292
293.58932
293.58328
293.57387
293.56003
293.54058
293.51443
293.48075
293.43913
293.38996
293.33428
293.27325
293.208
293.13897
293.06546
292.98615
292.91394
292.91871
292.94999
292.9699
292.99013
293.01882
293.04659
293.10824
293.26134
293.58911
293.59017
293.59108
293.59173
293.59192
293.59136
293.58968
293.58634
293.58065
293.57171
293.55848
293.53978
293.5145
293.48178
293.44123
293.39307
293.33818
293.2778
293.21302
293.1443
293.07096
292.99162
292.91869
292.92083
292.95152
292.97064
292.9903
293.01893
293.04695
293.10593
293.26969
293.585
293.58607
293.58703
293.58774
293.58801
293.58759
293.58609
293.58302
293.57769
293.56925
293.55664
293.53872
293.51436
293.48265
293.44316
293.396
293.34196
293.28226
293.21797
293.14955
293.07638
292.99698
292.92337
292.92272
292.95303
292.97145
292.99058
293.01909
293.04732
293.1042
293.27602
293.58054
293.58164
293.58263
293.5834
293.58377
293.58348
293.58218
293.57939
293.57443
293.56649
293.55453
293.53741
293.51399
293.48332
293.4449
293.39876
293.34562
293.28662
293.22283
293.15472
293.0817
293.00225
292.92795
292.92462
292.95454
292.97233
292.99099
293.01932
293.04764
293.10288
293.28119
293.57578
293.5769
293.57794
293.57877
293.57923
293.57908
293.57798
293.57546
293.57089
293.56345
293.55215
293.53584
293.51338
293.48377
293.44643
293.40135
293.34915
293.29089
293.2276
293.15982
293.08695
293.00749
292.93237
292.92658
292.95605
292.97328
292.99158
293.01963
293.04783
293.10154
293.28563
293.57075
293.5719
293.57298
293.57387
293.57443
293.57442
293.57351
293.57126
293.56707
293.56014
293.5495
293.53402
293.51252
293.48399
293.44777
293.40377
293.35254
293.29504
293.23228
293.16482
293.09213
293.0127
292.93673
292.9286
292.95756
292.97431
292.99236
293.02004
293.04786
293.09976
293.28936
293.5655
293.56667
293.56778
293.56874
293.56939
293.56951
293.5688
293.56682
293.56299
293.55656
293.54658
293.53194
293.51146
293.48396
293.44882
293.40601
293.35579
293.29907
293.23687
293.16975
293.09724
293.01784
292.94111
292.93067
292.95909
292.97541
292.99334
293.02055
293.04768
293.09735
293.29216
293.56005
293.56124
293.56239
293.5634
293.56414
293.56439
293.56386
293.56214
293.55868
293.55273
293.54338
293.52954
293.51002
293.48367
293.44976
293.40809
293.35888
293.30297
293.24135
293.17459
293.10227
293.0229
292.94543
292.93277
292.96063
292.97657
292.99443
293.02116
293.04732
293.0943
293.29373
293.55443
293.55564
293.55683
293.55789
293.5587
293.55907
293.55872
293.55725
293.55414
293.54866
293.53993
293.52687
293.50831
293.48314
293.45049
293.40996
293.36179
293.30673
293.2457
293.17933
293.10722
293.02786
292.94968
292.93487
292.9622
292.97779
292.99556
293.02187
293.04679
293.09079
293.29386
293.54868
293.5499
293.55111
293.55223
293.55311
293.5536
293.55341
293.55218
293.5494
293.54438
293.53625
293.52397
293.50638
293.48235
293.45093
293.41159
293.3645
293.31032
293.24993
293.18396
293.11207
293.03269
292.95384
292.93699
292.96379
292.97907
292.99665
293.02261
293.04614
293.08716
293.29245
293.54281
293.54404
293.54528
293.54643
293.54738
293.54797
293.54794
293.54693
293.54447
293.53989
293.53236
293.52085
293.50421
293.48128
293.45107
293.41296
293.36699
293.31374
293.25402
293.18847
293.1168
293.03738
292.95789
292.9392
292.9654
292.98039
292.99765
293.02328
293.0454
293.08362
293.2896
293.53684
293.53808
293.53933
293.54052
293.54153
293.54221
293.54232
293.54153
293.53937
293.53521
293.52825
293.51748
293.50177
293.47993
293.45092
293.41406
293.36925
293.31697
293.25796
293.19285
293.1214
293.04195
292.96185
292.94138
292.96703
292.98173
292.99852
293.02383
293.04453
293.08022
293.2855
293.5308
293.53204
293.5333
293.53451
293.53557
293.53633
293.53657
293.53597
293.5341
293.53034
293.52392
293.51387
293.49906
293.4783
293.4505
293.41489
293.37128
293.31999
293.26172
293.19709
293.12586
293.04638
292.9659
292.94349
292.96868
292.98309
292.99923
293.0242
293.04353
293.07695
293.28039
293.52469
293.52593
293.52719
293.52842
293.52952
293.53035
293.53071
293.53029
293.52867
293.52529
293.51939
293.51003
293.4961
293.47639
293.44979
293.41545
293.37304
293.32279
293.26531
293.20118
293.1302
293.05075
292.96986
292.94555
292.97034
292.98444
292.9998
293.02439
293.04233
293.07383
293.27463
293.51855
293.51977
293.52103
293.52227
293.5234
293.52429
293.52475
293.52449
293.52312
293.52009
293.51468
293.50597
293.49288
293.47421
293.44879
293.41572
293.37455
293.32537
293.26872
293.20513
293.13442
293.05504
292.97369
292.94759
292.972
292.9858
293.00026
293.02435
293.04088
293.07084
293.26853
293.51238
293.51359
293.51484
293.51608
293.51723
293.51817
293.51871
293.51859
293.51744
293.51473
293.50978
293.50171
293.48943
293.47176
293.44751
293.41571
293.37578
293.32771
293.27192
293.20892
293.1385
293.05923
292.97747
292.94964
292.97366
292.98715
293.00064
293.02407
293.03919
293.06798
293.26251
293.5062
293.50739
293.50862
293.50986
293.51102
293.51199
293.51261
293.51261
293.51166
293.50925
293.50473
293.49724
293.48574
293.46905
293.44595
293.4154
293.37673
293.32979
293.27491
293.21253
293.14244
293.06328
292.98118
292.95175
292.97531
292.98848
293.00095
293.02357
293.03726
293.06525
293.2568
293.50003
293.50119
293.50241
293.50363
293.50479
293.50579
293.50646
293.50658
293.5058
293.50366
293.49954
293.4926
293.48185
293.46609
293.44411
293.41479
293.37739
293.33161
293.27768
293.21596
293.14623
293.06717
292.9848
292.95384
292.97695
292.98979
293.00122
293.02287
293.03525
293.0627
293.25132
293.49389
293.49502
293.4962
293.49741
293.49856
293.49957
293.50029
293.50049
293.49987
293.49798
293.49422
293.4878
293.47774
293.46288
293.44198
293.41388
293.37774
293.33315
293.2802
293.21919
293.14985
293.07091
292.9883
292.95587
292.97857
292.99107
293.00144
293.02199
293.03345
293.06039
293.24588
293.48777
293.48887
293.49002
293.4912
293.49234
293.49335
293.4941
293.49438
293.49389
293.49222
293.48879
293.48285
293.47344
293.45942
293.43956
293.41266
293.37778
293.3344
293.28247
293.2222
293.15329
293.0745
292.99169
292.95791
292.98016
292.9923
293.00163
293.02091
293.03203
293.05842
293.24033
293.48168
293.48274
293.48386
293.485
293.48612
293.48713
293.4879
293.48823
293.48786
293.48638
293.48326
293.47775
293.46894
293.45572
293.43686
293.41113
293.3775
293.33534
293.28446
293.22498
293.15655
293.07792
292.99497
292.95999
292.98171
292.99346
293.00179
293.01966
293.03102
293.05686
293.23459
293.47562
293.47664
293.47771
293.47882
293.47991
293.4809
293.48167
293.48206
293.48178
293.48047
293.47761
293.4725
293.46425
293.45179
293.43389
293.40929
293.37689
293.33595
293.28616
293.22751
293.15959
293.08117
292.99814
292.96208
292.98321
292.99453
293.00192
293.01827
293.03036
293.05571
293.22866
293.46957
293.47054
293.47157
293.47263
293.47368
293.47465
293.47542
293.47583
293.47563
293.47447
293.47185
293.4671
293.45938
293.44763
293.43063
293.40713
293.37595
293.33623
293.28755
293.22978
293.16242
293.08425
293.00118
292.96416
292.98462
292.99547
293.002
293.01689
293.02991
293.05494
293.22249
293.46351
293.46442
293.4654
293.46642
293.46742
293.46836
293.46912
293.46954
293.4694
293.46836
293.46596
293.46155
293.45431
293.44323
293.4271
293.40465
293.37465
293.33615
293.28861
293.23175
293.16502
293.08715
293.0041
292.9662
292.98593
292.99626
293.00202
293.01548
293.02974
293.05442
293.21607
293.4574
293.45826
293.45919
293.46015
293.46111
293.46201
293.46274
293.46317
293.46308
293.46214
293.45992
293.45582
293.44904
293.43858
293.42328
293.40183
293.37298
293.33571
293.28931
293.23341
293.16735
293.08986
293.00688
292.96818
292.98711
292.9969
293.00198
293.01439
293.02967
293.05401
293.20936
293.45121
293.45202
293.4529
293.4538
293.45471
293.45557
293.45627
293.4567
293.45663
293.45578
293.45373
293.4499
293.44354
293.43367
293.41914
293.39866
293.37094
293.33487
293.28964
293.23474
293.16942
293.09235
293.00952
292.97009
292.98815
292.99739
293.00187
293.01328
293.02949
293.05348
293.20232
293.4449
293.44566
293.44648
293.44733
293.44819
293.449
293.44967
293.45008
293.45004
293.44926
293.44736
293.44378
293.43779
293.42847
293.41467
293.39512
293.3685
293.33363
293.28958
293.23572
293.1712
293.09463
293.012
292.97191
292.98902
292.99771
293.0017
293.01222
293.02906
293.05267
293.19495
293.43842
293.43913
293.4399
293.4407
293.4415
293.44226
293.4429
293.44329
293.44326
293.44255
293.44077
293.43741
293.43178
293.42296
293.40987
293.39121
293.36566
293.33196
293.28911
293.23633
293.17267
293.09668
293.01433
292.97363
292.98974
292.99786
293.00142
293.01126
293.02829
293.05145
293.18733
293.43171
293.43238
293.43309
293.43384
293.4346
293.43531
293.43591
293.43629
293.43627
293.43561
293.43395
293.4308
293.42548
293.41715
293.40471
293.38691
293.3624
293.32987
293.28823
293.23656
293.17383
293.09848
293.01648
292.97524
292.99028
292.99784
293.00104
293.01031
293.02719
293.04988
293.17965
293.42473
293.42535
293.42602
293.42673
293.42743
293.42811
293.42867
293.42903
293.42902
293.4284
293.42685
293.42389
293.41889
293.411
293.39919
293.38221
293.35872
293.32735
293.28692
293.2364
293.17466
293.10003
293.01845
292.97674
292.99067
292.99766
293.00053
293.00936
293.02579
293.04811
293.17217
293.41742
293.41801
293.41864
293.4193
293.41997
293.4206
293.42114
293.42148
293.42148
293.42091
293.41945
293.41668
293.41197
293.40452
293.39331
293.37713
293.35462
293.3244
293.28518
293.23585
293.17516
293.10133
293.02024
292.97814
292.99092
292.99734
292.99983
293.00842
293.02418
293.04633
293.16525
293.40975
293.41031
293.41091
293.41153
293.41217
293.41277
293.41329
293.41362
293.41363
293.4131
293.41175
293.40915
293.40471
293.39768
293.38706
293.37165
293.35011
293.32102
293.28303
293.23492
293.17534
293.10238
293.02185
292.97945
292.99107
292.99698
292.99909
293.00744
293.02247
293.04469
293.15923
293.40168
293.40221
293.40279
293.40339
293.404
293.40459
293.40509
293.40542
293.40545
293.40498
293.40374
293.40132
293.39716
293.39051
293.38044
293.3658
293.3452
293.31723
293.28048
293.23362
293.17519
293.10318
293.02328
292.98067
292.99112
292.99637
292.99828
293.00644
293.02069
293.04323
293.15449
293.39319
293.39371
293.39426
293.39485
293.39545
293.39603
293.39653
293.39687
293.39694
293.39654
293.3954
293.39316
293.38927
293.38303
293.37353
293.35959
293.33993
293.31307
293.27755
293.23196
293.17474
293.10374
293.02454
292.98181
292.99115
292.99576
292.99712
293.00537
293.01885
293.04201
293.15135
293.38425
293.38477
293.38532
293.38591
293.38651
293.38709
293.3876
293.38797
293.38808
293.38776
293.38675
293.38469
293.38107
293.37524
293.36629
293.35306
293.33431
293.30854
293.27426
293.22996
293.174
293.10407
293.02564
292.98288
292.99109
292.99513
292.99607
293.00423
293.01698
293.04116
293.14973
293.37488
293.3754
293.37597
293.37657
293.37718
293.37778
293.37832
293.37873
293.3789
293.37867
293.3778
293.37595
293.37265
293.36716
293.35867
293.34621
293.32837
293.3037
293.27065
293.22766
293.17299
293.10419
293.0266
292.98388
292.99116
292.99445
292.99562
293.00298
293.01511
293.04089
293.14945
293.36509
293.36562
293.36621
293.36683
293.36747
293.3681
293.36868
293.36915
293.3694
293.36927
293.36854
293.36689
293.36386
293.3588
293.35091
293.33913
293.32217
293.29857
293.26676
293.2251
293.17175
293.10412
293.02741
292.98481
292.99093
292.99366
292.9951
293.00162
293.01328
293.04135
293.15035
293.35488
293.35545
293.35606
293.35672
293.3574
293.35808
293.35873
293.35927
293.35961
293.35961
293.35904
293.3576
293.35486
293.35025
293.34294
293.33185
293.31576
293.29322
293.26263
293.2223
293.1703
293.10388
293.02812
292.98568
292.9906
292.99283
292.99422
293.00013
293.01148
293.04248
293.15209
293.3443
293.34491
293.34557
293.34627
293.34701
293.34776
293.34849
293.34913
293.34958
293.34973
293.34935
293.34816
293.34574
293.34154
293.33476
293.32437
293.30916
293.28769
293.25832
293.21931
293.16867
293.10353
293.02868
292.98646
292.9902
292.99198
292.99307
292.99857
293.00974
293.04395
293.15407
293.33339
293.33404
293.33475
293.33552
293.33634
293.33717
293.33799
293.33874
293.33934
293.33965
293.33948
293.33855
293.33647
293.33269
293.32644
293.31676
293.30244
293.28202
293.25387
293.21617
293.1669
293.10307
293.02908
292.98711
292.98973
292.99109
292.99181
292.99698
293.00806
293.04529
293.15587
293.32219
293.3229
293.32369
293.32453
293.32542
293.32634
293.32727
293.32815
293.32889
293.32939
293.32944
293.3288
293.32708
293.32373
293.31805
293.30909
293.29564
293.27628
293.24933
293.21294
293.16502
293.10248
293.02934
292.98766
292.98927
292.99017
292.99056
292.99536
293.00643
293.04603
293.15711
293.31073
293.3115
293.31234
293.31325
293.31424
293.31527
293.31633
293.31735
293.31827
293.31896
293.31927
293.31893
293.31758
293.31471
293.30961
293.30138
293.28882
293.27051
293.24476
293.20968
293.16308
293.10178
293.0294
292.98815
292.98873
292.98919
292.98936
292.99376
293.00484
293.0459
293.15749
293.29906
293.29986
293.30074
293.30173
293.3028
293.30395
293.30514
293.30633
293.30745
293.30837
293.30895
293.30894
293.30799
293.30562
293.30114
293.29365
293.282
293.26475
293.24021
293.20644
293.16113
293.10106
293.02933
292.98855
292.98806
292.98818
292.98823
292.99221
293.00328
293.04484
293.15674
293.28724
293.28811
293.28907
293.29013
293.29129
293.29254
293.29385
293.2952
293.2965
293.29766
293.29852
293.29886
293.29834
293.29648
293.29264
293.28593
293.27521
293.25904
293.23572
293.20325
293.15926
293.10043
293.02973
292.98882
292.98729
292.98718
292.98714
292.99076
293.00177
293.04297
293.15459
293.27531
293.27625
293.27729
293.27844
293.2797
293.28106
293.28251
293.284
293.28549
293.28688
293.28803
293.28871
293.28863
293.28731
293.28413
293.27822
293.26846
293.2534
293.23132
293.20017
293.15751
293.09995
293.03043
292.98899
292.98646
292.98618
292.98607
292.98943
293.00029
293.04046
293.1509
293.26331
293.26432
293.26544
293.26668
293.26804
293.26952
293.27111
293.27277
293.27445
293.27607
293.2775
293.27854
293.2789
293.27812
293.2756
293.27051
293.26174
293.24784
293.22703
293.19724
293.15594
293.09963
293.03089
292.98906
292.98558
292.98518
292.98501
292.98819
292.99886
293.03755
293.14575
293.25129
293.25236
293.25355
293.25488
293.25634
293.25794
293.25966
293.26148
293.26336
293.26521
293.26693
293.26832
293.26912
293.26892
293.26705
293.26276
293.25506
293.24235
293.22287
293.19449
293.15459
293.09953
293.0313
292.98905
292.98467
292.98417
292.98395
292.98708
292.99749
293.03457
293.13917
293.23929