/*--------------------------------*- C++ -*----------------------------------*\
| =========                 |                                                 |
| \\      /  F ield         | OpenFOAM: The Open Source CFD Toolbox           |
|  \\    /   O peration     | Version:  2406                                  |
|   \\  /    A nd           | Website:  www.openfoam.com                      |
|    \\/     M anipulation  |                                                 |
\*---------------------------------------------------------------------------*/
FoamFile
{
    version     2.0;
    format      ascii;
    arch        "LSB;label=32;scalar=64";
    class       volScalarField;
    location    "0.013";
    object      rho;
}
// * * * * * * * * * * * * * * * * * * * * * * * * * * * * * * * * * * * * * //

dimensions      [1 -3 0 0 0 0 0];

internalField   nonuniform List<scalar> 
35803
(
1.2022841
1.2013052
1.200729
1.1999976
1.1992527
1.198607
1.1981039
1.197764
1.1975919
1.1975493
1.1976475
1.1979682
1.1984487
1.1991171
1.199868
1.2007993
1.2017234
1.2026202
1.2027607
1.202783
1.2029235
1.2030836
1.2032218
1.2032989
1.2034154
1.2034039
1.2035693
1.2035422
1.2037419
1.2036835
1.2026205
1.2040056
1.203166
1.202328
1.2014028
1.2005256
1.1997645
1.1991518
1.1987108
1.1984612
1.1983145
1.198311
1.1985354
1.1989367
1.1995263
1.2002081
1.201057
1.2018831
1.2027101
1.2028027
1.2028298
1.2029641
1.2031169
1.2032481
1.2033201
1.2034536
1.2034282
1.2035914
1.2035612
1.2037456
1.2036966
1.2026545
1.204875
1.2041985
1.2033383
1.2023689
1.2014491
1.2006361
1.1999621
1.1994635
1.1991291
1.1989112
1.1988066
1.1989536
1.1992909
1.1998211
1.2004671
1.2012801
1.2020579
1.2028103
1.2028628
1.2028887
1.2030134
1.2031571
1.2032799
1.2033467
1.2034962
1.2034553
1.2036139
1.2035806
1.2037512
1.2037095
1.202693
1.2056283
1.2050225
1.2041968
1.2032284
1.2022887
1.2014398
1.200711
1.2001356
1.1997143
1.1994298
1.1992755
1.1993553
1.1996327
1.2001076
1.200725
1.2015104
1.2022522
1.202915
1.2029377
1.2029566
1.2030702
1.2032032
1.2033161
1.2033777
1.2035403
1.2034835
1.2036363
1.2036004
1.2037599
1.2037223
1.2027335
1.2063536
1.2057922
1.2050118
1.2040668
1.2031264
1.2022578
1.2014884
1.2008478
1.2003521
1.2000019
1.1998008
1.1998144
1.2000298
1.2004456
1.2010296
1.2017761
1.2024715
1.2030233
1.2030262
1.2030351
1.2031355
1.2032563
1.2033576
1.2034143
1.2035862
1.2035139
1.2036583
1.2036206
1.2037735
1.2037354
1.2027712
1.206966
1.2064533
1.2057312
1.2048336
1.2039192
1.203056
1.2022705
1.2015905
1.2010401
1.2006327
1.2003814
1.2003309
1.2004837
1.2008387
1.2013866
1.2020821
1.2027178
1.2031385
1.2031291
1.2031259
1.2032107
1.2033175
1.2034051
1.2034568
1.2036332
1.2035486
1.2036795
1.2036419
1.2037911
1.2037487
1.2028062
1.2074187
1.2069533
1.2063023
1.2054785
1.2046215
1.2037942
1.203022
1.2023315
1.2017506
1.2013017
1.2010055
1.2008977
1.2009907
1.2012862
1.2017982
1.2024291
1.2029903
1.2032661
1.2032473
1.2032316
1.2032971
1.2033877
1.2034594
1.2035055
1.2036808
1.2035888
1.2036996
1.2036652
1.2038092
1.2037625
1.2028354
1.2077154
1.2072618
1.2066804
1.2059646
1.2052033
1.2044468
1.2037202
1.2030501
1.202466
1.2019963
1.2016678
1.2015131
1.2015522
1.2017924
1.2022689
1.2028179
1.203287
1.2034188
1.203382
1.2033544
1.2033962
1.2034679
1.2035214
1.203561
1.2037284
1.2036344
1.203718
1.2036904
1.2038252
1.2037769
1.2028552
1.2078553
1.2074425
1.2069338
1.2063285
1.2056766
1.2050122
1.204357
1.203735
1.2031751
1.2027079
1.2023641
1.2021764
1.2021705
1.202362
1.2027992
1.203257
1.2035988
1.2036049
1.2035357
1.2034958
1.2035099
1.2035592
1.2035924
1.2036239
1.2037757
1.2036841
1.2037349
1.2037158
1.2038392
1.203792
1.2028744
1.2079407
1.2075513
1.2071179
1.2066149
1.2060703
1.2055064
1.2049383
1.2043855
1.2038734
1.2034313
1.2030911
1.2028865
1.2028476
1.2029996
1.2033949
1.2037465
1.203915
1.2038195
1.2037137
1.2036575
1.2036404
1.2036628
1.2036737
1.2036944
1.2038256
1.2037365
1.2037524
1.2037392
1.2038533
1.2038076
1.2028991
1.2079729
1.2076318
1.2072576
1.2068393
1.2064023
1.2059495
1.205482
1.2050138
1.204567
1.2041688
1.20385
1.2036445
1.2035865
1.203711
1.2040579
1.2042728
1.2042386
1.2040539
1.2039216
1.2038406
1.2037896
1.2037801
1.2037671
1.2037726
1.2038809
1.2037908
1.2037731
1.2037653
1.20387
1.2038244
1.2029354
1.2078737
1.2077711
1.2075245
1.2071706
1.2068018
1.2064316
1.2060487
1.2056597
1.2052812
1.2049356
1.2046502
1.2044577
1.2043959
1.2045038
1.2047755
1.2048073
1.2045626
1.2043147
1.2041607
1.2040459
1.203958
1.2039128
1.2038744
1.2038585
1.2039414
1.2038497
1.2038033
1.2037951
1.2038924
1.2038435
1.2029854
1.2080085
1.2079573
1.2078336
1.207626
1.2073432
1.2070226
1.2066935
1.2063656
1.2060483
1.2057568
1.2055138
1.2053488
1.2052976
1.2053813
1.2054968
1.2052846
1.2048861
1.2046097
1.2044242
1.2042706
1.204144
1.2040629
1.2039973
1.2039526
1.2040062
1.2039162
1.2038509
1.2038355
1.203923
1.2038665
1.2030507
1.2083904
1.2083402
1.2081774
1.2079642
1.2077646
1.2075566
1.2073359
1.2071057
1.206874
1.2066574
1.2064783
1.2063569
1.2063033
1.2062695
1.2060865
1.2056501
1.2052327
1.2049347
1.2047027
1.2045123
1.2043459
1.2042303
1.2041359
1.2040567
1.2040747
1.2039919
1.2039235
1.2038916
1.2039635
1.2038964
1.2031337
1.208895
1.2089198
1.2088604
1.2086816
1.2084499
1.208262
1.2081211
1.207982
1.2078253
1.2076598
1.2075007
1.2073474
1.2071707
1.2068863
1.2064464
1.205985
1.2055974
1.2052685
1.204996
1.2047667
1.2045626
1.2044104
1.2042885
1.2041744
1.2041512
1.2040743
1.2040248
1.2039623
1.2040132
1.2039397
1.2032355
1.2097348
1.2098216
1.2098803
1.2098879
1.2097927
1.2095766
1.2093186
1.2090668
1.2088104
1.2085468
1.2082722
1.2079584
1.2075867
1.2071545
1.2067247
1.2063256
1.2059447
1.2055975
1.2052914
1.2050286
1.2047892
1.2046041
1.2044549
1.2043069
1.2042412
1.2041603
1.2041379
1.2040409
1.2040733
1.2040025
1.2033587
1.2096821
1.2096446
1.2095568
1.2094371
1.2093614
1.2093478
1.2093453
1.2093314
1.2092143
1.2089562
1.2086353
1.208298
1.207907
1.2074582
1.2070343
1.2066306
1.2062507
1.2059009
1.2055818
1.2052928
1.2050244
1.20481
1.2046342
1.2044561
1.2043473
1.2042479
1.2042405
1.2041234
1.2041484
1.204077
1.2035106
1.2097468
1.2096883
1.2096099
1.2095086
1.2093905
1.2092439
1.2090591
1.2088399
1.2086597
1.2085425
1.2084157
1.2082992
1.2081079
1.2077541
1.2073372
1.2069206
1.2065268
1.2061722
1.205848
1.2055469
1.2052622
1.2050289
1.2048261
1.2046252
1.2044735
1.2043407
1.2043257
1.2042094
1.204243
1.2041451
1.2036351
1.2093754
1.2093348
1.2092838
1.2092241
1.2091556
1.2090767
1.2089843
1.2088736
1.2087469
1.2086032
1.2084199
1.2081513
1.2078727
1.2077271
1.207537
1.2071839
1.206785
1.2064113
1.206083
1.2057773
1.2054908
1.205251
1.2050283
1.2048179
1.204632
1.2044479
1.2043886
1.204288
1.2043475
1.2041986
1.2037636
1.2090643
1.2090275
1.2089814
1.2089272
1.2088639
1.2087896
1.208703
1.2086037
1.2084909
1.2083643
1.208228
1.2080791
1.2079029
1.2076549
1.2074332
1.2072808
1.20698
1.2066178
1.2062829
1.2059741
1.2056925
1.2054566
1.205224
1.2050192
1.2048215
1.2045794
1.2044327
1.2043586
1.2044424
1.2042539
1.2039353
1.2086628
1.2086365
1.208604
1.2085666
1.2085239
1.208475
1.2084187
1.2083533
1.2082763
1.2081839
1.2080699
1.2079337
1.2077894
1.2076447
1.2074274
1.2071807
1.2070353
1.206769
1.206447
1.2061395
1.205861
1.2056273
1.2053961
1.2052034
1.2050077
1.2047406
1.2045269
1.2044549
1.2045177
1.204336
1.2038938
1.2083715
1.2083497
1.2083226
1.2082909
1.2082539
1.2082103
1.2081589
1.2080985
1.2080281
1.207947
1.2078564
1.207756
1.2076378
1.2074929
1.2073512
1.2071739
1.2069689
1.2068263
1.2065738
1.2062783
1.2060043
1.2057652
1.2055474
1.2053684
1.2051645
1.2049103
1.2046933
1.2045815
1.2045772
1.2044149
1.2039743
1.2080206
1.2080041
1.2079838
1.2079606
1.2079341
1.2079037
1.2078688
1.2078288
1.2077822
1.2077271
1.2076602
1.2075783
1.2074806
1.2073668
1.2072266
1.2070974
1.2069428
1.20674
1.2066109
1.2063855
1.2061189
1.2058916
1.2056947
1.2055066
1.2052925
1.2050531
1.2048558
1.2047117
1.2046493
1.2044426
1.2041707
1.2077227
1.2077092
1.2076924
1.2076731
1.2076508
1.2076246
1.2075936
1.2075568
1.2075134
1.207463
1.2074054
1.2073409
1.2072681
1.2071843
1.20709
1.2069622
1.2068225
1.2066964
1.2065403
1.2064012
1.2061908
1.2060065
1.2058203
1.2055964
1.2053852
1.2051544
1.2049624
1.2048135
1.2047248
1.2044356
1.2043972
1.2073843
1.2073747
1.207363
1.2073499
1.2073352
1.2073186
1.2072999
1.2072787
1.2072544
1.2072261
1.2071917
1.2071487
1.2070947
1.2070279
1.2069463
1.2068594
1.2067601
1.206639
1.2065138
1.2063199
1.2061902
1.2060647
1.2058801
1.2056517
1.2054518
1.2052301
1.2050399
1.2048923
1.2047789
1.2044476
1.2044057
1.2071935
1.207186
1.2071768
1.2071661
1.2071536
1.2071387
1.2071209
1.2070997
1.2070743
1.2070445
1.2070099
1.2069707
1.2069274
1.2068799
1.2068262
1.2067572
1.2066752
1.206578
1.2064595
1.2063658
1.2062126
1.2060537
1.2058866
1.2056804
1.2054874
1.2052888
1.2051006
1.2049401
1.2048213
1.204499
1.2044525
1.2069426
1.2069371
1.2069304
1.206923
1.2069146
1.2069049
1.2068939
1.2068813
1.206867
1.2068506
1.206832
1.2068102
1.2067832
1.2067487
1.2067052
1.2066563
1.2065958
1.2065208
1.2064258
1.2063252
1.2061937
1.2060119
1.205879
1.2057114
1.2055401
1.205366
1.2051811
1.2049944
1.2048877
1.2045835
1.2046389
1.2067891
1.2067842
1.2067783
1.2067716
1.206764
1.2067551
1.2067447
1.2067325
1.206718
1.2067006
1.2066795
1.2066533
1.2066208
1.2065815
1.2065353
1.2064803
1.2064188
1.2063502
1.2062578
1.2061946
1.2061609
1.2060521
1.205943
1.2058172
1.2056681
1.2054907
1.205278
1.2050756
1.2049274
1.2045627
1.2047303
1.2066242
1.2066194
1.2066138
1.2066073
1.2065997
1.206591
1.2065808
1.206569
1.2065553
1.2065395
1.2065214
1.2065002
1.206476
1.2064482
1.2064157
1.2063784
1.2063358
1.2062822
1.2062167
1.2061316
1.2060671
1.20602
1.2059485
1.2058448
1.2056989
1.2055626
1.2053873
1.2052369
1.2051009
1.204796
1.2047258
1.2065585
1.2065551
1.2065512
1.2065468
1.2065416
1.2065356
1.2065286
1.2065203
1.2065107
1.2064993
1.2064858
1.2064698
1.2064507
1.206428
1.2064004
1.2063667
1.2063259
1.206277
1.2062131
1.2061142
1.2060065
1.2059292
1.2058918
1.2058239
1.2057204
1.2056339
1.205508
1.2053997
1.2052804
1.2050753
1.2050048
1.2064573
1.2064513
1.2064451
1.2064385
1.2064315
1.206424
1.2064156
1.2064061
1.2063952
1.2063824
1.2063675
1.2063499
1.2063298
1.2063067
1.20628
1.2062487
1.2062098
1.2061669
1.2061111
1.2060526
1.2059287
1.2057938
1.205675
1.2056417
1.2056099
1.2054435
1.2054104
1.2053264
1.2052787
1.2051836
1.205183
1.1874231
1.1871741
1.1869048
1.1868198
1.1871415
1.187704
1.1883734
1.1890108
1.1896338
1.1902971
1.1910425
1.1918904
1.192846
1.1939014
1.1950665
1.1962839
1.197607
1.1989156
1.2002444
1.2012119
1.201565
1.2018661
1.2021825
1.2024555
1.2026676
1.2027576
1.2029515
1.2030532
1.2031137
1.2030878
1.2021829
1.1873625
1.1871965
1.1871873
1.1873736
1.187774
1.1882822
1.1888093
1.1893375
1.1899113
1.1905602
1.1913077
1.1921599
1.1931172
1.1941693
1.1953229
1.1965156
1.1978114
1.1990383
1.2003608
1.2012273
1.2015772
1.201884
1.202201
1.2024707
1.2026788
1.2027679
1.2029626
1.2030622
1.2031202
1.2030926
1.2021971
1.1872806
1.1871754
1.1872152
1.1874264
1.187856
1.1883934
1.1889239
1.1894562
1.1900387
1.1906982
1.1914579
1.1923177
1.1932788
1.1943299
1.1954781
1.1966593
1.1979528
1.199153
1.2004653
1.2012557
1.2015991
1.2019061
1.2022218
1.2024874
1.2026913
1.202779
1.202974
1.2030714
1.2031268
1.2030966
1.202211
1.1871219
1.1871271
1.1872235
1.1875308
1.1880066
1.1885202
1.1890204
1.1895431
1.1901275
1.1907958
1.1915657
1.192433
1.1933989
1.1944519
1.1955986
1.196775
1.198074
1.1992724
1.2005603
1.2012862
1.2016235
1.2019284
1.2022427
1.2025042
1.2027039
1.2027902
1.2029855
1.2030806
1.2031335
1.2031004
1.2022247
1.186928
1.187068
1.1872689
1.1876542
1.1881346
1.1886161
1.1890979
1.1896201
1.1902114
1.1908923
1.1916734
1.1925496
1.1935216
1.1945773
1.195723
1.1968951
1.1981973
1.1993976
1.2006422
1.2013141
1.2016481
1.201951
1.2022636
1.2025209
1.2027166
1.2028016
1.2029972
1.2030899
1.2031402
1.2031045
1.2022381
1.1868137
1.187039
1.1873526
1.1877787
1.1882376
1.1886911
1.1891645
1.1896918
1.1902944
1.1909906
1.1917838
1.1926696
1.1936477
1.1947059
1.19585
1.1970177
1.1983208
1.199519
1.2007154
1.2013401
1.2016731
1.2019738
1.2022847
1.2025377
1.2027295
1.2028132
1.2030088
1.2030992
1.2031469
1.203109
1.2022507
1.1867952
1.1870865
1.187456
1.1878815
1.1883093
1.1887447
1.1892189
1.1897565
1.1903746
1.1910872
1.191893
1.1927889
1.1937729
1.1948334
1.1959754
1.197139
1.1984405
1.1996362
1.2007913
1.2013643
1.2016984
1.2019969
1.202306
1.2025546
1.2027425
1.202825
1.2030205
1.2031085
1.2031534
1.2031137
1.2022626
1.1868561
1.1871802
1.1875482
1.1879467
1.1883508
1.1887807
1.1892631
1.1898152
1.1904519
1.1911815
1.1920006
1.1929068
1.1938965
1.1949592
1.1960989
1.1972586
1.1985549
1.1997528
1.2008759
1.2013869
1.2017242
1.2020203
1.2023273
1.2025715
1.2027557
1.2028369
1.2030321
1.2031177
1.2031597
1.2031189
1.2022737
1.186936
1.1872549
1.1875997
1.1879741
1.1883682
1.1888028
1.1892991
1.1898696
1.190527
1.1912738
1.1921071
1.1930236
1.194019
1.1950837
1.1962209
1.1973766
1.1986671
1.1998681
1.2009622
1.2014092
1.2017505
1.2020441
1.2023488
1.2025885
1.2027691
1.2028489
1.2030437
1.2031268
1.2031659
1.2031245
1.2022837
1.1869927
1.1872871
1.1876097
1.1879712
1.1883666
1.1888137
1.1893285
1.1899208
1.1906
1.1913649
1.1922128
1.1931397
1.1941404
1.1952071
1.1963415
1.1974931
1.1987801
1.1999735
1.2010416
1.2014342
1.2017773
1.2020682
1.2023704
1.2026055
1.2027826
1.2028611
1.203055
1.2031357
1.2031731
1.2031306
1.2022923
1.1869996
1.1872712
1.1875826
1.1879435
1.1883495
1.1888153
1.1893524
1.1899696
1.1906713
1.191455
1.1923178
1.1932549
1.1942609
1.1953293
1.1964604
1.1976084
1.1988921
1.2000691
1.201113
1.2014632
1.2018043
1.2020925
1.202392
1.2026226
1.2027963
1.2028734
1.2030662
1.2031445
1.2031828
1.2031373
1.202299
1.1869507
1.1872123
1.1875244
1.187895
1.1883194
1.188809
1.1893724
1.1900165
1.1907414
1.1915447
1.1924225
1.1933695
1.1943804
1.1954503
1.1965779
1.1977237
1.1990008
1.2001616
1.2011771
1.2014948
1.2018315
1.2021172
1.2024137
1.2026397
1.20281
1.2028858
1.2030771
1.2031531
1.2031956
1.2031445
1.2023037
1.1868511
1.1871153
1.1874391
1.1878286
1.1882783
1.1887964
1.1893897
1.1900619
1.190811
1.1916343
1.1925268
1.1934834
1.1944989
1.1955701
1.1966939
1.1978384
1.1991011
1.2002543
1.2012356
1.2015271
1.2018587
1.2021421
1.2024355
1.2026568
1.202824
1.2028983
1.2030878
1.2031614
1.2032109
1.2031525
1.2023063
1.1867065
1.1869849
1.1873305
1.187747
1.1882281
1.188779
1.1894051
1.1901064
1.1908806
1.1917239
1.192631
1.1935969
1.1946167
1.1956887
1.1968084
1.1979509
1.1991981
1.2003485
1.20129
1.2015598
1.201886
1.2021673
1.2024573
1.202674
1.202838
1.2029109
1.2030981
1.2031695
1.2032279
1.2031616
1.2023069
1.1865224
1.1868254
1.1872019
1.187653
1.1881708
1.1887584
1.1894193
1.190151
1.1909507
1.191814
1.1927353
1.1937099
1.1947335
1.1958062
1.1969216
1.1980659
1.199293
1.200439
1.2013409
1.2015928
1.2019135
1.2021927
1.2024792
1.2026912
1.2028522
1.2029235
1.2031082
1.2031775
1.2032458
1.2031718
1.2023058
1.1863033
1.1866407
1.1870566
1.1875491
1.1881085
1.1887364
1.1894335
1.1901964
1.1910219
1.1919049
1.1928398
1.1938227
1.1948496
1.1959224
1.1970337
1.1981818
1.199381
1.2005268
1.201389
1.2016261
1.2019412
1.2022184
1.2025011
1.2027085
1.2028665
1.2029363
1.203118
1.2031852
1.2032639
1.2031836
1.2023033
1.1860534
1.1864348
1.1868982
1.1874382
1.1880435
1.1887143
1.1894488
1.1902436
1.1910947
1.1919968
1.1929447
1.1939352
1.194965
1.1960375
1.1971456
1.1982984
1.1994689
1.2006123
1.2014351
1.2016593
1.2019691
1.2022443
1.2025231
1.2027259
1.202881
1.2029491
1.2031276
1.2031928
1.2032822
1.2031971
1.2023002
1.1857773
1.1862123
1.1867307
1.1873236
1.1879785
1.188694
1.1894668
1.1902935
1.1911696
1.19209
1.1930502
1.1940475
1.1950796
1.1961514
1.1972581
1.1984098
1.1995609
1.2006958
1.2014799
1.2016922
1.2019972
1.2022704
1.2025451
1.2027432
1.2028955
1.2029619
1.2031371
1.2032004
1.2033008
1.2032121
1.2022968
1.1854815
1.185979
1.1865591
1.1872091
1.1879162
1.1886773
1.1894888
1.1903469
1.1912472
1.192185
1.1931564
1.1941598
1.1951935
1.1962641
1.1973673
1.1985153
1.199655
1.2007776
1.2015236
1.2017249
1.2020256
1.2022966
1.2025671
1.2027607
1.2029102
1.2029749
1.2031465
1.2032079
1.2033196
1.2032286
1.2022926
1.1851747
1.1857426
1.186389
1.1870989
1.1878596
1.1886665
1.1895161
1.1904046
1.1913279
1.1922819
1.1932636
1.1942721
1.1953066
1.1963759
1.1974766
1.1986174
1.1997473
1.2008567
1.2015664
1.2017575
1.2020542
1.202323
1.2025891
1.2027781
1.2029251
1.2029879
1.2031558
1.2032154
1.2033384
1.2032457
1.2022876
1.1848681
1.1855117
1.1862268
1.1869977
1.1878116
1.1886639
1.1895503
1.1904677
1.1914124
1.1923811
1.1933719
1.1943845
1.1954189
1.1964883
1.1975876
1.1987137
1.1998434
1.2009301
1.2016085
1.2017902
1.202083
1.2023494
1.2026111
1.2027957
1.2029401
1.203001
1.2031654
1.2032229
1.2033573
1.2032619
1.2022824
1.1845747
1.1852967
1.1860793
1.1869099
1.1877757
1.1886719
1.1895928
1.1905368
1.1915012
1.192483
1.1934814
1.1944969
1.1955311
1.1966039
1.1976909
1.1988043
1.1999389
1.2009997
1.2016499
1.201823
1.202112
1.202376
1.2026331
1.2028132
1.2029552
1.2030141
1.2031752
1.2032304
1.203376
1.2032752
1.2022774
1.1843085
1.1851087
1.1859526
1.1868399
1.1877555
1.1886929
1.1896449
1.190613
1.1915948
1.1925878
1.1935922
1.1946096
1.1956449
1.1967166
1.1977872
1.1988963
1.200026
1.2010711
1.2016908
1.2018561
1.2021412
1.2024026
1.2026551
1.2028308
1.2029704
1.2030273
1.2031851
1.2032379
1.2033946
1.2032859
1.2022731
1.1840827
1.1849557
1.1858533
1.1867929
1.1877545
1.1887293
1.1897081
1.190697
1.1916937
1.1926957
1.1937044
1.1947239
1.1957639
1.1968217
1.1978841
1.1989867
1.2001054
1.2011462
1.2017313
1.2018896
1.2021705
1.2024292
1.2026772
1.2028485
1.2029856
1.2030404
1.2031952
1.2032455
1.203413
1.2032951
1.2022695
1.1838997
1.1848358
1.185794
1.1867755
1.1877759
1.1887825
1.1897842
1.1907899
1.1917982
1.1928068
1.1938189
1.1948436
1.1958811
1.1969194
1.1979841
1.1990751
1.2001824
1.2012247
1.2017715
1.2019234
1.2022
1.2024558
1.2026991
1.2028662
1.2030008
1.2030535
1.2032056
1.2032529
1.2034312
1.2033031
1.2022665
1.1837785
1.1847712
1.1857746
1.1867918
1.1878206
1.1888522
1.1898754
1.1908928
1.1919088
1.192922
1.1939394
1.1949714
1.195986
1.1970171
1.1980824
1.1991618
1.2002596
1.201303
1.2018115
1.2019576
1.2022296
1.2024824
1.2027211
1.2028839
1.203016
1.2030664
1.2032163
1.2032605
1.2034493
1.2033101
1.2022644
1.1837272
1.1847656
1.1858002
1.1868434
1.1878938
1.1889431
1.1899796
1.1910055
1.192027
1.1930453
1.1940722
1.1950839
1.1960805
1.1971214
1.1981788
1.1992466
1.2003364
1.201378
1.2018518
1.2019922
1.2022594
1.2025089
1.202743
1.2029016
1.2030311
1.203079
1.2032273
1.2032681
1.2034671
1.2033165
1.202263
1.1837519
1.1848236
1.1858759
1.1869336
1.1879967
1.1890564
1.1900985
1.1911281
1.1921579
1.1931858
1.1942018
1.195184
1.1961894
1.1972251
1.1982737
1.1993295
1.2004123
1.20145
1.2018926
1.2020271
1.2022892
1.2025354
1.2027649
1.2029193
1.2030462
1.2030914
1.2032386
1.203276
1.2034846
1.2033228
1.2022625
1.1838579
1.1849494
1.1860051
1.1870648
1.1881308
1.1891926
1.1902364
1.1912711
1.1923119
1.1933377
1.1943094
1.1952875
1.196299
1.1973271
1.1983673
1.1994105
1.2004871
1.2015194
1.2019337
1.2020623
1.202319
1.2025618
1.2027867
1.202937
1.2030611
1.2031037
1.2032502
1.2032841
1.2035018
1.2033292
1.202263
1.184051
1.1851474
1.1861909
1.1872396
1.1882992
1.1893599
1.1904075
1.1914506
1.1924794
1.1934537
1.1944069
1.1954051
1.1964073
1.1974282
1.1984596
1.1994895
1.2005604
1.2015865
1.2019749
1.2020979
1.2023489
1.2025881
1.2028084
1.2029547
1.203076
1.2031158
1.203262
1.2032926
1.2035187
1.2033358
1.2022648
1.1843387
1.1854246
1.1864404
1.1874668
1.1885141
1.1895762
1.1906307
1.1916429
1.192595
1.1935546
1.1945342
1.1955242
1.1965152
1.1975287
1.1985506
1.1995665
1.2006322
1.2016518
1.2020164
1.2021337
1.2023787
1.2026143
1.20283
1.2029723
1.2030908
1.2031278
1.203274
1.2033015
1.2035352
1.2033426
1.2022676
1.1847252
1.1857904
1.1867666
1.1877671
1.1887978
1.189838
1.1908463
1.1917787
1.1927086
1.1936923
1.1946661
1.1956429
1.1966231
1.1976284
1.1986405
1.1996417
1.2007022
1.2017154
1.2020579
1.2021697
1.2024084
1.2026404
1.2028516
1.2029899
1.2031057
1.2031398
1.2032861
1.2033106
1.2035514
1.2033498
1.2022714
1.1851711
1.186211
1.1871422
1.1881082
1.1891048
1.1900828
1.1909897
1.1919071
1.1928722
1.1938451
1.1947992
1.1957625
1.1967308
1.1977276
1.1987288
1.1997158
1.2007706
1.2017772
1.2020992
1.2022056
1.202438
1.2026664
1.202873
1.2030074
1.2031207
1.2031518
1.2032985
1.2033201
1.2035672
1.2033573
1.2022758
1.185604
1.1866226
1.1875126
1.1884201
1.1893578
1.1902521
1.1911498
1.1921031
1.193052
1.1940031
1.1949357
1.1958836
1.1968386
1.197826
1.1988156
1.1997883
1.2008374
1.2018374
1.2021402
1.2022414
1.2024675
1.2026921
1.2028943
1.2030249
1.2031358
1.2031639
1.203311
1.20333
1.2035826
1.2033653
1.2022808
1.1860575
1.1870265
1.1878537
1.1887072
1.1895757
1.1904614
1.1914006
1.1923203
1.1932396
1.1941672
1.1950765
1.1960062
1.1969463
1.1979237
1.1989007
1.1998574
1.2009025
1.2018958
1.2021811
1.2022769
1.2024968
1.2027177
1.2029154
1.2030423
1.2031511
1.2031762
1.2033237
1.2033401
1.2035976
1.2033741
1.2022863
1.1866817
1.1876225
1.188372
1.1891497
1.1899619
1.1908116
1.1916866
1.1925516
1.1934372
1.1943386
1.1952217
1.1961303
1.197054
1.1980207
1.1989838
1.199925
1.2009662
1.2019525
1.2022218
1.2023121
1.2025259
1.2027431
1.2029364
1.2030597
1.2031667
1.2031888
1.2033368
1.2033507
1.2036122
1.2033839
1.2022922
1.1875368
1.1883752
1.1890212
1.1897038
1.1904337
1.1912024
1.1919971
1.1927998
1.1936468
1.1945176
1.1953713
1.1962561
1.1971617
1.1981167
1.1990654
1.199993
1.2010286
1.2020075
1.2022622
1.2023471
1.2025549
1.2027684
1.2029573
1.2030769
1.2031825
1.2032017
1.2033502
1.2033616
1.2036263
1.203395
1.2022985
1.1884165
1.1891774
1.1897204
1.1903022
1.190939
1.1916186
1.1923317
1.193066
1.1938689
1.1947041
1.1955256
1.1963837
1.1972694
1.1982118
1.1991454
1.2000603
1.201089
1.2020607
1.2023023
1.2023818
1.2025838
1.2027935
1.2029781
1.2030942
1.2031985
1.203215
1.2033639
1.2033728
1.2036399
1.203408
1.2023056
1.1893629
1.1900427
1.1904735
1.1909447
1.191479
1.1920642
1.1926903
1.1933497
1.1941041
1.1948979
1.1956849
1.1965132
1.1973772
1.1983059
1.1992237
1.2001266
1.2011465
1.2021122
1.2023422
1.2024161
1.2026124
1.2028183
1.2029988
1.2031113
1.2032145
1.2032287
1.2033782
1.2033845
1.2036529
1.2034232
1.2023135
1.1903987
1.1909812
1.1912848
1.1916337
1.1920562
1.1925402
1.1930718
1.1936502
1.194353
1.195099
1.1958494
1.1966448
1.197485
1.1983988
1.1993002
1.2001924
1.2012015
1.2021617
1.2023818
1.2024501
1.2026409
1.202843
1.2030193
1.2031283
1.2032305
1.2032428
1.2033932
1.2033967
1.2036652
1.2034413
1.2023228
1.1915151
1.1919845
1.1921475
1.1923646
1.1926683
1.1930451
1.1934746
1.1939677
1.1946165
1.1953074
1.1960192
1.1967787
1.1975929
1.1984904
1.1993747
1.2002577
1.2012552
1.2022093
1.202421
1.2024836
1.2026692
1.2028675
1.2030397
1.2031453
1.2032463
1.2032572
1.2034092
1.2034093
1.2036768
1.2034627
1.2023341
1.1926802
1.1930316
1.1930489
1.1931302
1.193312
1.1935773
1.1938975
1.1943041
1.1948941
1.1955229
1.1961944
1.1969153
1.1977011
1.1985805
1.1994472
1.200323
1.201308
1.202255
1.2024597
1.2025167
1.2026973
1.2028918
1.20306
1.2031622
1.2032619
1.2032718
1.203426
1.2034226
1.2036875
1.2034876
1.2023482
1.1938548
1.1940982
1.1939761
1.1939244
1.1939849
1.1941347
1.1943408
1.1946659
1.1951807
1.1957454
1.1963752
1.1970546
1.1978094
1.1986688
1.1995171
1.2003883
1.2013594
1.2022986
1.2024979
1.2025495
1.2027251
1.2029158
1.2030801
1.203179
1.2032771
1.2032867
1.2034433
1.2034362
1.2036974
1.2035154
1.2023658
1.1950133
1.1951672
1.1949219
1.1947445
1.1946852
1.1947147
1.1948118
1.1950519
1.1954696
1.1959762
1.1965615
1.1971966
1.1979178
1.198755
1.1995839
1.2004539
1.2014096
1.2023402
1.2025356
1.2025818
1.2027527
1.2029396
1.2031002
1.2031957
1.2032919
1.2033017
1.2034608
1.2034498
1.2037063
1.2035447
1.2023876
1.1961612
1.1962379
1.1958879
1.1955914
1.1954111
1.1953164
1.1953166
1.1954567
1.1957626
1.1962121
1.1967534
1.1973419
1.1980268
1.1988391
1.1996474
1.2005195
1.2014585
1.2023795
1.2025726
1.2026139
1.2027801
1.2029631
1.2031201
1.2032124
1.2033064
1.2033166
1.2034781
1.2034636
1.2037143
1.2035734
1.2024135
1.1973449
1.1973292
1.1968857
1.1964721
1.196161
1.1959618
1.1958645
1.1958771
1.1960668
1.1964552
1.1969542
1.1974945
1.19814
1.1989241
1.1997099
1.2005858
1.2015063
1.2024156
1.2026085
1.2026452
1.2028071
1.2029861
1.2031396
1.203229
1.2033207
1.2033314
1.203495
1.2034776
1.2037213
1.2036
1.2024438
1.198664
1.198501
1.1979627
1.1974263
1.1969962
1.1966873
1.1964612
1.1963456
1.1964286
1.1967312
1.1971799
1.1976682
1.1982695
1.1990197
1.1997805
1.2006551
1.2015535
1.2024456
1.2026411
1.2026749
1.2028331
1.2030084
1.2031586
1.2032452
1.2033359
1.2033463
1.2035116
1.203492
1.2037276
1.2036242
1.2024795
1.20024
1.1998828
1.1992614
1.1985923
1.198014
1.1975546
1.1971936
1.1969511
1.1969396
1.1971073
1.1974636
1.197888
1.1984359
1.1991433
1.199874
1.2007343
1.2016022
1.2024684
1.2026675
1.2027025
1.2028583
1.2030301
1.2031774
1.2032613
1.2033545
1.2033624
1.2035285
1.2035071
1.2037332
1.2036462
1.2025222
1.2018599
1.2014066
1.2008238
1.2000391
1.1992709
1.1986163
1.1980975
1.1977391
1.1976028
1.1976312
1.1978132
1.1981547
1.1986384
1.1992945
1.1999918
1.2008285
1.201659
1.2025017
1.2026936
1.2027332
1.2028857
1.2030533
1.2031973
1.2032785
1.2033806
1.2033812
1.2035472
1.2035236
1.2037381
1.2036662
1.2025725
1.1879251
1.1878433
1.1876301
1.1874714
1.1876149
1.1880551
1.1886501
1.1892558
1.1898687
1.1905263
1.1912602
1.1920898
1.1930245
1.1940561
1.1951911
1.1963764
1.1976409
1.1989314
1.2001177
1.2011301
1.2015159
1.2018357
1.2021592
1.2024368
1.2026532
1.2027457
1.2029394
1.2030436
1.2031069
1.2030833
1.2021799
1.1878555
1.1877752
1.1876333
1.1875516
1.1876808
1.188086
1.1886429
1.1892343
1.1898422
1.1904945
1.1912208
1.192043
1.1929713
1.1939985
1.1951303
1.1963183
1.1975806
1.1989054
1.2000594
1.2011171
1.2015051
1.2018204
1.2021442
1.202424
1.202643
1.202737
1.2029301
1.2030358
1.2031016
1.2030801
1.2021716
1.1878302
1.187742
1.1876129
1.1875305
1.1876428
1.1880385
1.188603
1.1892058
1.1898223
1.1904771
1.1912005
1.1920163
1.1929373
1.1939581
1.195084
1.1962718
1.1975302
1.1988694
1.2000243
1.2011011
1.2014959
1.2018087
1.2021318
1.2024132
1.202634
1.2027292
1.2029215
1.2030282
1.2030964
1.2030767
1.2021608
1.1878602
1.1877859
1.1876653
1.187553
1.1876361
1.1880252
1.1885961
1.1892084
1.1898324
1.1904895
1.1912095
1.1920177
1.1929292
1.1939408
1.1950574
1.196241
1.1974915
1.1988329
1.1999893
1.2010774
1.2014822
1.2017952
1.2021186
1.2024017
1.2026247
1.202721
1.2029126
1.2030205
1.2030911
1.2030722
1.2021496
1.1878944
1.1878354
1.1877274
1.1876022
1.1876589
1.1880355
1.188603
1.18922
1.1898496
1.1905089
1.1912262
1.1920275
1.1929301
1.1939323
1.1950391
1.1962169
1.1974583
1.1987978
1.1999516
1.2010509
1.2014667
1.2017804
1.2021046
1.2023896
1.2026148
1.2027124
1.2029035
1.2030126
1.2030857
1.203067
1.2021387
1.1879184
1.1878719
1.1877751
1.1876519
1.1876884
1.1880483
1.1886082
1.1892282
1.1898632
1.1905254
1.1912412
1.192037
1.1929317
1.1939254
1.1950227
1.1961947
1.1974273
1.1987637
1.199913
1.2010235
1.2014515
1.2017655
1.2020904
1.2023773
1.2026048
1.2027036
1.2028942
1.2030045
1.2030801
1.2030619
1.2021285
1.187936
1.1878993
1.1878127
1.1876951
1.1877173
1.1880581
1.1886093
1.1892322
1.1898728
1.1905386
1.1912538
1.1920453
1.192933
1.1939188
1.1950071
1.1961732
1.1973976
1.1987302
1.1998746
1.2009949
1.2014369
1.2017509
1.2020763
1.2023651
1.2025949
1.2026948
1.202885
1.2029965
1.2030745
1.203057
1.2021192
1.1879497
1.1879215
1.187845
1.1877339
1.1877456
1.188067
1.1886085
1.1892339
1.18988
1.1905497
1.1912652
1.1920531
1.1929345
1.1939129
1.1949925
1.1961526
1.1973689
1.1986973
1.1998368
1.200965
1.2014224
1.2017364
1.2020623
1.2023529
1.202585
1.2026861
1.2028757
1.2029884
1.2030689
1.2030521
1.2021114
1.1879602
1.1879401
1.1878734
1.1877702
1.1877748
1.1880769
1.1886073
1.1892345
1.1898857
1.1905595
1.1912758
1.192061
1.1929366
1.1939079
1.194979
1.1961329
1.1973413
1.1986649
1.1997998
1.2009344
1.2014079
1.2017221
1.2020484
1.2023408
1.2025752
1.2026773
1.2028664
1.2029802
1.2030632
1.2030469
1.2021049
1.1879686
1.1879557
1.1878983
1.1878041
1.1878049
1.1880882
1.1886065
1.1892344
1.1898903
1.1905683
1.1912859
1.1920689
1.1929393
1.1939039
1.1949667
1.1961144
1.1973149
1.198633
1.1997635
1.2009032
1.2013932
1.201708
1.2020346
1.2023286
1.2025653
1.2026685
1.202857
1.2029719
1.2030574
1.2030411
1.2020999
1.1879756
1.1879685
1.1879199
1.1878355
1.1878347
1.1881006
1.1886063
1.1892338
1.189894
1.1905763
1.1912956
1.192077
1.1929428
1.1939009
1.1949558
1.1960969
1.1972898
1.1986017
1.1997285
1.2008711
1.2013784
1.201694
1.2020208
1.2023165
1.2025555
1.2026597
1.2028475
1.2029636
1.2030515
1.2030348
1.2020961
1.1879816
1.1879794
1.1879392
1.1878652
1.1878638
1.1881133
1.1886068
1.1892332
1.1898972
1.1905837
1.1913051
1.1920853
1.1929469
1.193899
1.194946
1.1960806
1.1972659
1.1985708
1.1996954
1.2008383
1.2013634
1.2016802
1.2020072
1.2023044
1.2025456
1.2026509
1.202838
1.2029552
1.2030455
1.2030281
1.2020928
1.1879876
1.1879896
1.1879573
1.1878938
1.1878928
1.188127
1.1886086
1.1892327
1.1899001
1.1905908
1.1913144
1.1920939
1.1929518
1.1938981
1.1949375
1.1960653
1.1972432
1.1985407
1.1996624
1.2008046
1.2013483
1.2016665
1.2019936
1.2022922
1.2025357
1.2026421
1.2028284
1.2029467
1.2030393
1.2030208
1.2020896
1.187994
1.1879997
1.1879747
1.1879216
1.1879227
1.1881428
1.1886122
1.189233
1.1899031
1.1905977
1.1913238
1.1921029
1.1929574
1.1938983
1.1949303
1.1960513
1.1972218
1.1985137
1.1996302
1.2007702
1.2013328
1.2016531
1.2019802
1.2022801
1.2025258
1.2026333
1.2028187
1.2029381
1.203033
1.2030131
1.202086
1.1880015
1.1880106
1.187992
1.1879491
1.1879533
1.1881611
1.1886182
1.1892344
1.1899066
1.1906048
1.1913334
1.1921125
1.1929639
1.1938995
1.1949243
1.1960383
1.1972016
1.1984883
1.1996016
1.2007389
1.2013171
1.2016399
1.2019668
1.202268
1.2025158
1.2026244
1.202809