/*--------------------------------*- C++ -*----------------------------------*\
| =========                 |                                                 |
| \\      /  F ield         | OpenFOAM: The Open Source CFD Toolbox           |
|  \\    /   O peration     | Version:  2406                                  |
|   \\  /    A nd           | Website:  www.openfoam.com                      |
|    \\/     M anipulation  |                                                 |
\*---------------------------------------------------------------------------*/
FoamFile
{
    version     2.0;
    format      ascii;
    arch        "LSB;label=32;scalar=64";
    class       volScalarField;
    location    "0.022";
    object      T;
}
// * * * * * * * * * * * * * * * * * * * * * * * * * * * * * * * * * * * * * //

dimensions      [0 0 0 1 0 0 0];

internalField   nonuniform List<scalar> 
92813
(
292.85021
292.85051
292.84979
292.85026
292.85181
292.85399
292.85659
292.85946
292.86247
292.8655
292.86846
292.87128
292.87389
292.87623
292.87823
292.87986
292.88106
292.88181
292.88211
292.8819
292.8812
292.88003
292.8784
292.8763
292.87374
292.87073
292.86729
292.86341
292.85913
292.85446
292.84943
292.84406
292.8384
292.83249
292.82638
292.82014
292.81384
292.80759
292.80155
292.79588
292.79069
292.78616
292.78281
292.78105
292.7814
292.78454
292.79125
292.80225
292.81785
292.83721
292.85791
292.87682
292.8919
292.90299
292.91103
292.91714
292.92214
292.92652
292.93053
292.93429
292.93787
292.94128
292.94453
292.94765
292.95065
292.95355
292.95635
292.95907
292.9617
292.96425
292.96672
292.96913
292.97147
292.97374
292.97594
292.97807
292.98013
292.98211
292.98403
292.98588
292.98767
292.9894
292.99108
292.99271
292.99431
292.99586
292.99739
292.99888
293.00031
293.0017
293.00303
293.00431
293.00554
293.00671
293.00784
293.00893
293.00997
293.01099
293.01197
293.01291
293.01381
293.01467
293.01549
293.01628
293.01703
293.01776
293.01847
293.01916
293.01983
293.02047
293.02109
293.02168
293.02225
293.02278
293.02328
293.02374
293.02416
293.02455
293.0249
293.02522
293.0255
293.02576
293.02598
293.02617
293.02633
293.02643
293.02653
292.89089
292.88729
292.88469
292.88358
292.88329
292.88353
292.88418
292.88513
292.88629
292.88756
292.88885
292.89008
292.8912
292.89215
292.89288
292.89333
292.89349
292.89331
292.89276
292.89181
292.89045
292.88867
292.88647
292.88384
292.8808
292.87735
292.8735
292.86926
292.86464
292.85967
292.85437
292.84877
292.84291
292.83683
292.83058
292.82424
292.81789
292.81162
292.80561
292.80009
292.79508
292.79085
292.78795
292.78679
292.78794
292.79211
292.80006
292.81243
292.82921
292.84906
292.86918
292.88662
292.90003
292.90974
292.91681
292.92229
292.92687
292.93096
292.93474
292.9383
292.94169
292.94493
292.94802
292.95099
292.95384
292.9566
292.95928
292.96186
292.96438
292.96681
292.96917
292.97148
292.97372
292.97589
292.97801
292.98005
292.98204
292.98395
292.98579
292.98757
292.9893
292.99096
292.99258
292.99416
292.99569
292.99719
292.99867
293.00011
293.0015
293.00284
293.00413
293.00537
293.00656
293.00769
293.00879
293.00984
293.01086
293.01185
293.0128
293.01371
293.01459
293.01542
293.01622
293.01699
293.01772
293.01843
293.01912
293.01979
293.02044
293.02107
293.02168
293.02226
293.02281
293.02333
293.02382
293.02427
293.02469
293.02506
293.02541
293.02572
293.026
293.02624
293.02647
293.02665
293.02681
293.02691
293.027
292.93488
292.92915
292.92467
292.92158
292.91922
292.9174
292.91602
292.91501
292.91429
292.91375
292.91331
292.9129
292.91245
292.91191
292.91122
292.91035
292.90927
292.90796
292.90637
292.90448
292.90225
292.89968
292.89675
292.89347
292.88982
292.88581
292.88144
292.87673
292.87168
292.86631
292.86064
292.85472
292.84856
292.84222
292.83575
292.82923
292.82274
292.81639
292.81038
292.80493
292.80004
292.79611
292.79365
292.79311
292.79509
292.80035
292.8096
292.82333
292.84112
292.8611
292.88025
292.89607
292.90787
292.91633
292.92256
292.92749
292.9317
292.9355
292.93905
292.9424
292.9456
292.94866
292.95158
292.95439
292.95709
292.95971
292.96224
292.9647
292.96709
292.9694
292.97166
292.97386
292.97599
292.97807
292.9801
292.98206
292.98396
292.98579
292.98756
292.98928
292.99093
292.99253
292.99409
292.99561
292.99709
292.99853
292.99996
293.00135
293.00269
293.00399
293.00524
293.00644
293.00759
293.00868
293.00974
293.01077
293.01175
293.01271
293.01364
293.01452
293.01537
293.01619
293.01696
293.0177
293.01842
293.01911
293.01978
293.02043
293.02107
293.02168
293.02228
293.02284
293.02338
293.02389
293.02436
293.02481
293.02521
293.02558
293.02592
293.02622
293.0265
293.02674
293.02696
293.02714
293.02729
293.02739
293.02749
292.97787
292.97037
292.96406
292.95907
292.95483
292.95115
292.94795
292.94517
292.94271
292.94049
292.93844
292.93648
292.93454
292.93258
292.93053
292.92838
292.92608
292.92362
292.92097
292.91809
292.91496
292.91156
292.90787
292.90389
292.8996
292.895
292.89009
292.88487
292.87936
292.87357
292.86752
292.86124
292.85477
292.84815
292.84144
292.83473
292.8281
292.82167
292.81568
292.81029
292.80554
292.80194
292.79997
292.80011
292.80302
292.80945
292.82005
292.83506
292.85359
292.87327
292.8911
292.9052
292.91547
292.92282
292.92831
292.93275
292.93661
292.94014
292.94346
292.9466
292.9496
292.95247
292.95523
292.95787
292.96041
292.96288
292.96528
292.9676
292.96986
292.97206
292.97419
292.97629
292.97832
292.9803
292.98224
292.98411
292.98593
292.98768
292.98937
292.99102
292.99261
292.99414
292.99564
292.9971
292.99851
292.99991
293.00128
293.00262
293.00391
293.00517
293.00637
293.00753
293.00864
293.0097
293.01073
293.01172
293.01267
293.0136
293.01449
293.01535
293.01618
293.01696
293.01771
293.01844
293.01913
293.0198
293.02045
293.02109
293.02171
293.02231
293.02288
293.02344
293.02396
293.02445
293.02492
293.02535
293.02575
293.02611
293.02644
293.02674
293.02701
293.02724
293.02746
293.02763
293.02778
293.02788
293.02798
293.019
293.01
293.00211
292.99544
292.98951
292.98414
292.97928
292.97485
292.97079
292.967
292.96344
292.96001
292.95667
292.95336
292.95004
292.94667
292.94323
292.93968
292.936
292.93216
292.92813
292.9239
292.91945
292.91475
292.90981
292.90461
292.89914
292.8934
292.88742
292.88119
292.87474
292.86811
292.86132
292.85442
292.84749
292.84059
292.83383
292.82734
292.82139
292.81608
292.81155
292.80835
292.80695
292.80788
292.81183
292.81952
292.8315
292.84766
292.86656
292.88549
292.90172
292.91406
292.9229
292.92924
292.93407
292.93807
292.9416
292.94486
292.94794
292.95088
292.95368
292.95636
292.95894
292.96141
292.9638
292.96612
292.96837
292.97056
292.97269
292.97476
292.97678
292.97877
292.9807
292.98258
292.98442
292.9862
292.98793
292.98961
292.99123
292.9928
292.99432
292.99578
292.99722
292.99861
292.99997
293.00131
293.00263
293.00391
293.00516
293.00637
293.00753
293.00865
293.00972
293.01074
293.01173
293.01268
293.0136
293.0145
293.01536
293.01619
293.01699
293.01776
293.01848
293.01919
293.01986
293.0205
293.02114
293.02175
293.02236
293.02294
293.0235
293.02404
293.02455
293.02503
293.02549
293.02591
293.0263
293.02665
293.02697
293.02726
293.02752
293.02776
293.02797
293.02814
293.02829
293.02838
293.02848
293.0582
293.04802
293.03883
293.03071
293.02327
293.0164
293.01002
293.0041
292.99855
292.99332
292.98834
292.98355
292.97889
292.97432
292.96979
292.96526
292.96072
292.95612
292.95145
292.94668
292.94177
292.93671
292.93149
292.92608
292.92047
292.91465
292.90861
292.90235
292.89587
292.8892
292.88235
292.87535
292.86823
292.86106
292.8539
292.84683
292.83996
292.83343
292.82754
292.82236
292.81811
292.81538
292.81464
292.81647
292.82157
292.83062
292.84396
292.86102
292.87986
292.89759
292.91203
292.92264
292.93016
292.93561
292.93985
292.94343
292.94665
292.94965
292.95251
292.95522
292.95782
292.96032
292.96272
292.96502
292.96724
292.96941
292.97152
292.97357
292.97557
292.97752
292.97942
292.98129
292.98312
292.98489
292.98664
292.98834
292.98998
292.99158
292.99312
292.99462
292.99606
292.99746
292.99883
293.00016
293.00146
293.00274
293.004
293.00523
293.00643
293.00759
293.0087
293.00978
293.01081
293.01179
293.01274
293.01367
293.01455
293.01542
293.01625
293.01705
293.01783
293.01856
293.01927
293.01995
293.0206
293.02122
293.02184
293.02243
293.02302
293.02358
293.02413
293.02466
293.02515
293.02562
293.02607
293.02648
293.02686
293.0272
293.02751
293.0278
293.02805
293.02828
293.02848
293.02865
293.0288
293.02889
293.02898
293.09542
293.08431
293.07407
293.06472
293.05598
293.04778
293.04006
293.03279
293.0259
293.01935
293.01307
293.00701
293.00113
292.99537
292.9897
292.98408
292.97849
292.97289
292.96728
292.96159
292.95582
292.94996
292.94397
292.93785
292.93157
292.92512
292.9185
292.9117
292.90473
292.8976
292.89034
292.88297
292.87553
292.86808
292.86069
292.85346
292.84649
292.83996
292.83417
292.82916
292.82526
292.82309
292.82312
292.82596
292.83233
292.84278
292.85736
292.875
292.89327
292.90944
292.92198
292.93095
292.93728
292.94195
292.94566
292.94886
292.95178
292.95452
292.95714
292.95965
292.96204
292.96435
292.96656
292.96869
292.97075
292.97276
292.97473
292.97663
292.97851
292.98033
292.9821
292.98387
292.98558
292.98725
292.98891
292.99051
292.99207
292.99359
292.99504
292.99647
292.99784
292.99916
293.00046
293.00173
293.00297
293.00419
293.0054
293.00658
293.00772
293.00884
293.0099
293.01094
293.01193
293.01287
293.01378
293.01467
293.01552
293.01635
293.01715
293.01793
293.01867
293.01939
293.02006
293.02072
293.02135
293.02195
293.02255
293.02313
293.02369
293.02424
293.02478
293.02528
293.02577
293.02622
293.02666
293.02706
293.02743
293.02776
293.02806
293.02834
293.02859
293.02881
293.02901
293.02917
293.02932
293.02941
293.0295
293.13063
293.11881
293.10771
293.09733
293.08749
293.07814
293.06925
293.06078
293.0527
293.04495
293.03749
293.03028
293.02326
293.0164
293.00967
293.00302
292.99644
292.9899
292.98337
292.97681
292.97021
292.96355
292.95681
292.94998
292.94304
292.93596
292.92876
292.92142
292.91396
292.90637
292.89869
292.89095
292.88319
292.87547
292.86787
292.86049
292.85345
292.84696
292.84131
292.83652
292.83306
292.83154
292.83245
292.83644
292.84416
292.85602
292.87164
292.88939
292.90659
292.92092
292.93156
292.93902
292.94429
292.94827
292.95151
292.95435
292.95697
292.95946
292.96185
292.96414
292.96632
292.96844
292.97047
292.97242
292.97431
292.97617
292.97799
292.97975
292.98149
292.98318
292.98484
292.98648
292.98809
292.98966
292.99122
292.99272
292.99419
292.99563
292.997
292.99835
292.99965
293.0009
293.00213
293.00333
293.00451
293.00567
293.00682
293.00794
293.00904
293.01011
293.01113
293.01211
293.01306
293.01396
293.01484
293.01569
293.0165
293.0173
293.01807
293.01882
293.01954
293.02022
293.02088
293.02151
293.02211
293.0227
293.02327
293.02383
293.02438
293.02491
293.02543
293.02592
293.02639
293.02684
293.02726
293.02764
293.028
293.02833
293.02862
293.02889
293.02913
293.02935
293.02955
293.0297
293.02985
293.02994
293.03003
293.16387
293.15148
293.13968
293.12845
293.1177
293.10738
293.09748
293.08797
293.07883
293.07002
293.06151
293.05324
293.04519
293.03732
293.0296
293.02199
293.01448
293.00704
292.99964
292.99225
292.98485
292.97742
292.96995
292.96243
292.95483
292.94714
292.93936
292.93149
292.92352
292.91549
292.9074
292.89929
292.89122
292.88324
292.87544
292.86793
292.86085
292.85448
292.849
292.84448
292.84157
292.84082
292.84274
292.84799
292.85714
292.87032
292.88664
292.90396
292.91963
292.93195
292.94078
292.94687
292.95122
292.95459
292.9574
292.9599
292.96224
292.96447
292.96663
292.9687
292.97066
292.97259
292.97444
292.97621
292.97793
292.97964
292.98131
292.98292
292.98452
292.98609
292.98761
292.98915
292.99064
292.9921
292.99357
292.99498
292.99636
292.9977
292.999
293.00027
293.00149
293.00266
293.00383
293.00496
293.00607
293.00718
293.00827
293.00934
293.01038
293.0114
293.01237
293.01331
293.01422
293.01508
293.01591
293.01673
293.01751
293.01827
293.01901
293.01973
293.02042
293.02107
293.0217
293.02231
293.02289
293.02346
293.02401
293.02455
293.02508
293.02559
293.02609
293.02657
293.02703
293.02746
293.02787
293.02824
293.02859
293.02891
293.02919
293.02945
293.02969
293.0299
293.03009
293.03025
293.03038
293.03047
293.03056
293.19521
293.18235
293.16999
293.15807
293.14656
293.13543
293.12467
293.11428
293.10422
293.09448
293.08502
293.07581
293.06682
293.05803
293.0494
293.0409
293.03252
293.02423
293.01602
293.00783
292.99967
292.9915
292.98333
292.97513
292.96689
292.9586
292.95026
292.94186
292.93341
292.92492
292.91643
292.90798
292.8996
292.89138
292.88341
292.87581
292.86873
292.86251
292.85724
292.85313
292.85088
292.85101
292.85408
292.86071
292.87131
292.8856
292.90214
292.91845
292.93223
292.94251
292.94965
292.95455
292.95809
292.96093
292.96334
292.96551
292.96757
292.96956
292.97149
292.97333
292.97508
292.97681
292.97847
292.98005
292.98161
292.98316
292.98468
292.98614
292.98761
292.98904
292.99044
292.99186
292.99324
292.99459
292.99596
292.99727
292.99856
292.99982
293.00103
293.00222
293.00336
293.00446
293.00556
293.00663
293.00767
293.00872
293.00975
293.01076
293.01175
293.01272
293.01364
293.01453
293.0154
293.01622
293.01701
293.01778
293.01853
293.01926
293.01997
293.02065
293.02131
293.02194
293.02254
293.02313
293.02369
293.02423
293.02476
293.02528
293.02579
293.02628
293.02677
293.02723
293.02767
293.02809
293.02848
293.02885
293.02919
293.0295
293.02977
293.03002
293.03025
293.03046
293.03064
293.0308
293.03093
293.03102
293.03111
293.22471
293.21149
293.19865
293.18619
293.17406
293.16226
293.15079
293.13964
293.12879
293.11824
293.10795
293.0979
293.08808
293.07844
293.06898
293.05967
293.05048
293.04141
293.03242
293.02349
293.0146
293.00573
292.99689
292.98804
292.97918
292.97031
292.96142
292.9525
292.94358
292.93466
292.92579
292.91699
292.90834
292.89991
292.89179
292.88414
292.87712
292.8711
292.86613
292.86254
292.86108
292.86224
292.86659
292.87468
292.88664
292.90168
292.91785
292.93262
292.94428
292.95259
292.95823
292.96208
292.96493
292.9673
292.96934
292.97119
292.97298
292.97471
292.97641
292.97802
292.97955
292.98109
292.98256
292.98396
292.98535
292.98674
292.9881
292.98941
292.99075
292.99204
292.99331
292.99462
292.99588
292.99713
292.99839
292.9996
293.0008
293.00197
293.00309
293.0042
293.00527
293.00629
293.00732
293.00832
293.0093
293.01028
293.01125
293.0122
293.01314
293.01406
293.01493
293.01578
293.0166
293.01738
293.01813
293.01886
293.01957
293.02026
293.02094
293.02159
293.02222
293.02282
293.0234
293.02396
293.0245
293.02501
293.02552
293.02602
293.02651
293.02699
293.02746
293.0279
293.02833
293.02873
293.02912
293.02947
293.02979
293.03009
293.03036
293.03061
293.03083
293.03103
293.03121
293.03136
293.03149
293.03157
293.03166
293.25244
293.23893
293.22573
293.21283
293.20021
293.18786
293.1758
293.16401
293.1525
293.14125
293.13024
293.11945
293.10888
293.09849
293.08828
293.07822
293.0683
293.05849
293.04879
293.03916
293.02958
293.02005
293.01056
293.0011
292.99166
292.98222
292.9728
292.96339
292.95401
292.94469
292.93545
292.92634
292.91743
292.90881
292.9006
292.89294
292.88607
292.88032
292.87573
292.87281
292.87227
292.87461
292.88038
292.88995
292.90304
292.91831
292.93345
292.94626
292.95574
292.96221
292.96656
292.96952
292.97175
292.9737
292.97539
292.97693
292.97845
292.97993
292.98139
292.98278
292.98409
292.98543
292.98671
292.98793
292.98914
292.99037
292.99158
292.99274
292.99394
292.99509
292.99624
292.99742
292.99857
292.9997
293.00086
293.00198
293.00308
293.00417
293.0052
293.00622
293.00721
293.00815
293.00911
293.01004
293.01095
293.01187
293.01278
293.01367
293.01456
293.01542
293.01625
293.01704
293.01782
293.01855
293.01926
293.01995
293.02063
293.02129
293.02193
293.02255
293.02315
293.02372
293.02427
293.02481
293.02532
293.02581
293.0263
293.02678
293.02724
293.0277
293.02816
293.02859
293.029
293.02939
293.02976
293.0301
293.03041
293.0307
293.03096
293.0312
293.03141
293.03161
293.03178
293.03192
293.03205
293.03214
293.03222
293.27844
293.26474
293.25126
293.23802
293.22502
293.21224
293.19969
293.18738
293.1753
293.16345
293.15182
293.1404
293.12916
293.11811
293.10722
293.09648
293.08589
293.07541
293.06505
293.05477
293.04455
293.0344
293.02431
293.01427
293.00426
292.9943
292.98437
292.9745
292.96469
292.95498
292.9454
292.93601
292.92688
292.91813
292.90986
292.90225
292.89564
292.89024
292.88612
292.88403
292.88459
292.88827
292.89554
292.90647
292.92029
292.93512
292.94863
292.95922
292.96659
292.97144
292.97469
292.97688
292.97857
292.98015
292.9815
292.98273
292.98399
292.98521
292.98644
292.9876
292.98868
292.98984
292.99092
292.99195
292.99299
292.99406
292.99511
292.99611
292.99717
292.99819
292.9992
293.00027
293.0013
293.00232
293.00338
293.00439
293.00539
293.00639
293.00734
293.00828
293.00918
293.01005
293.01093
293.01179
293.01263
293.01349
293.01434
293.01517
293.016
293.01681
293.01759
293.01833
293.01906
293.01975
293.02042
293.02107
293.02171
293.02233
293.02293
293.02352
293.02409
293.02464
293.02516
293.02567
293.02616
293.02662
293.02709
293.02754
293.02799
293.02843
293.02887
293.02928
293.02968
293.03005
293.03041
293.03074
293.03104
293.03132
293.03157
293.0318
293.03201
293.03219
293.03236
293.0325
293.03263
293.03271
293.03279
293.30278
293.28895
293.27529
293.26181
293.24851
293.23538
293.22245
293.20971
293.19717
293.18482
293.17266
293.16068
293.14887
293.13723
293.12574
293.1144
293.1032
293.09212
293.08115
293.07027
293.05946
293.04873
293.03808
293.02749
293.01696
293.00649
292.9961
292.98579
292.97558
292.96551
292.95563
292.946
292.93671
292.92786
292.91961
292.91215
292.90587
292.9009
292.89746
292.89638
292.89819
292.90333
292.91209
292.92412
292.93805
292.95171
292.96313
292.97145
292.97688
292.98033
292.98268
292.98419
292.98541
292.98664
292.98766
292.98859
292.98959
292.99055
292.99155
292.99248
292.99334
292.9943
292.99518
292.99602
292.99689
292.9978
292.99869
292.99954
293.00046
293.00134
293.00222
293.00316
293.00407
293.00498
293.00594
293.00684
293.00775
293.00866
293.00951
293.01036
293.01118
293.01198
293.01278
293.01357
293.01434
293.01514
293.01592
293.0167
293.01747
293.01823
293.01895
293.01965
293.02032
293.02097
293.0216
293.02221
293.0228
293.02339
293.02396
293.02451
293.02505
293.02557
293.02606
293.02655
293.02701
293.02745
293.02789
293.02833
293.02875
293.02918
293.02959
293.02999
293.03037
293.03073
293.03107
293.03139
293.03168
293.03195
293.03219
293.03241
293.03261
293.03279
293.03296
293.03309
293.03321
293.03329
293.03337
293.32551
293.31162
293.29785
293.28421
293.27069
293.25732
293.24408
293.23101
293.21808
293.20532
293.19272
293.18026
293.16796
293.15581
293.1438
293.13192
293.12017
293.10854
293.09702
293.08559
293.07425
293.06299
293.05182
293.04072
293.02971
293.01879
293.00796
292.99725
292.98668
292.9763
292.96615
292.95633
292.94692
292.93806
292.92991
292.9227
292.91685
292.91244
292.90989
292.90999
292.91321
292.91989
292.92998
292.9426
292.95588
292.96771
292.9768
292.98296
292.98668
292.98896
292.99053
292.99147
292.99228
292.99316
292.99385
292.99452
292.99525
292.99596
292.99672
292.99741
292.99805
292.99881
292.9995
293.00015
293.00085
293.00159
293.00232
293.00302
293.0038
293.00454
293.00528
293.0061
293.00689
293.00768
293.00853
293.00934
293.01014
293.01096
293.01172
293.01249
293.01322
293.01393
293.01467
293.01538
293.01608
293.01682
293.01754
293.01825
293.01897
293.01967
293.02034
293.02098
293.02161
293.02222
293.0228
293.02336
293.02392
293.02447
293.025
293.02552
293.02603
293.02651
293.02698
293.02744
293.02787
293.02829
293.02871
293.02912
293.02953
293.02993
293.03033
293.03071
293.03108
293.03142
293.03175
293.03205
293.03233
293.03259
293.03282
293.03303
293.03323
293.0334
293.03356
293.03369
293.03381
293.03388
293.03396
293.3467
293.3328
293.31899
293.30525
293.2916
293.27804
293.26459
293.25125
293.23803
293.22493
293.21196
293.19911
293.18639
293.1738
293.16133
293.14898
293.13675
293.12463
293.11262
293.10071
293.08887
293.07713
293.06549
293.05393
293.04248
293.03114
293.01992
293.00885
292.99797
292.98732
292.97697
292.96701
292.95755
292.94875
292.9408
292.93399
292.92871
292.92502
292.92355
292.92502
292.92977
292.93793
292.94898
292.96145
292.97329
292.98285
292.98959
292.99377
292.99607
292.99739
292.99826
292.99876
292.99921
292.99968
293.00009
293.00053
293.00099
293.00143
293.00192
293.00238
293.00282
293.00338
293.00387
293.00434
293.00486
293.00544
293.006
293.00654
293.00718
293.00778
293.00839
293.00909
293.00975
293.01043
293.01117
293.01187
293.01258
293.0133
293.01397
293.01465
293.0153
293.01593
293.01658
293.01722
293.01785
293.01852
293.01918
293.01983
293.02049
293.02113
293.02175
293.02234
293.02292
293.02348
293.02402
293.02454
293.02506
293.02556
293.02606
293.02655
293.02702
293.02748
293.02792
293.02834
293.02875
293.02915
293.02954
293.02993
293.03032
293.0307
293.03108
293.03145
293.03179
293.03212
293.03244
293.03273
293.03299
293.03324
293.03346
293.03367
293.03385
293.03402
293.03417
293.0343
293.03441
293.03449
293.03457
293.3664
293.35256
293.33875
293.32498
293.31126
293.29759
293.28398
293.27045
293.257
293.24364
293.23037
293.2172
293.20413
293.19116
293.1783
293.16555
293.1529
293.14035
293.12791
293.11556
293.10329
293.09112
293.07905
293.06709
293.05524
293.04353
293.03197
293.02059
293.00944
292.99858
292.98809
292.97807
292.96865
292.96001
292.95238
292.94616
292.94157
292.93878
292.93864
292.94164
292.94794
292.9573
292.96865
292.98012
292.98987
292.997
293.00148
293.00392
293.00515
293.00568
293.0059
293.00609
293.00619
293.00621
293.00639
293.00661
293.0068
293.00693
293.00715
293.00741
293.00767
293.00799
293.00828
293.00858
293.00893
293.00934
293.00973
293.01012
293.01061
293.01106
293.01154
293.01211
293.01266
293.01322
293.01385
293.01444
293.01505
293.01568
293.01625
293.01684
293.0174
293.01795
293.01853
293.01909
293.01965
293.02025
293.02085
293.02143
293.02203
293.02262
293.02318
293.02373
293.02425
293.02477
293.02526
293.02573
293.02621
293.02668
293.02714
293.02759
293.02804
293.02846
293.02887
293.02927
293.02965
293.03002
293.03039
293.03076
293.03112
293.03149
293.03185
293.03219
293.03252
293.03284
293.03314
293.03341
293.03367
293.0339
293.03412
293.03431
293.03449
293.03465
293.0348
293.03492
293.03503
293.0351
293.03518
293.3847
293.37095
293.3572
293.34345
293.3297
293.31597
293.30227
293.2886
293.27499
293.26142
293.24792
293.2345
293.22114
293.20787
293.19469
293.18159
293.16858
293.15567
293.14285
293.13012
293.11747
293.10492
293.09248
293.08016
293.06797
293.05594
293.04409
293.03246
293.02111
293.01011
292.99955
292.98956
292.98029
292.97195
292.9648
292.95931
292.95558
292.95399
292.95537
292.95995
292.96762
292.97762
292.9884
292.99805
293.00534
293.01007
293.01249
293.01354
293.01396
293.01391
293.01364
293.01341
293.01314
293.01287
293.01275
293.01267
293.0126
293.0125
293.01244
293.01249
293.01257
293.01262
293.01273
293.0129
293.01306
293.01328
293.01349
293.01375
293.01408
293.01439
293.01474
293.01518
293.0156
293.01605
293.01657
293.01705
293.01755
293.01809
293.01857
293.01906
293.01954
293.02
293.02051
293.02099
293.02149
293.02202
293.02254
293.02307
293.02361
293.02413
293.02464
293.02513
293.02561
293.02607
293.02652
293.02695
293.02739
293.02782
293.02823
293.02865
293.02906
293.02945
293.02984
293.03021
293.03056
293.03091
293.03125
293.0316
293.03194
293.03228
293.03262
293.03295
293.03326
293.03356
293.03385
293.03411
293.03435
293.03458
293.03478
293.03496
293.03513
293.03529
293.03543
293.03555
293.03565
293.03572
293.0358
293.40165
293.38803
293.37438
293.36068
293.34696
293.33322
293.31947
293.30572
293.29199
293.27829
293.26462
293.25099
293.23742
293.2239
293.21045
293.19707
293.18376
293.17054
293.15741
293.14435
293.13137
293.1185
293.10575
293.09312
293.08065
293.06836
293.05628
293.04447
293.03299
293.02193
293.01141
293.00155
292.99256
292.98467
292.97823
292.97365
292.97098
292.97086
292.97386
292.97993
292.98849
292.99826
293.00755
293.01481
293.01953
293.02196
293.02286
293.02301
293.02266
293.02205
293.02135
293.02071
293.02011
293.01956
293.01913
293.01876
293.01842
293.0181
293.01782
293.01765
293.01748
293.01729
293.01725
293.01726
293.01724
293.01725
293.0173
293.01744
293.01759
293.01776
293.018
293.0183
293.01859
293.01893
293.01933
293.0197
293.0201
293.02054
293.02093
293.02132
293.02171
293.02209
293.02251
293.02293
293.02335
293.02381
293.02427
293.02473
293.02521
293.02567
293.02613
293.02657
293.02699
293.0274
293.0278
293.02819
293.02858
293.02897
293.02935
293.02973
293.03011
293.03047
293.03082
293.03116
293.03149
293.03181
293.03213
293.03245
293.03277
293.03309
293.03341
293.03372
293.03402
293.0343
293.03457
293.03482
293.03505
293.03526
293.03545
293.03563
293.03579
293.03594
293.03607
293.03619
293.03629
293.03636
293.03643
293.41731
293.40386
293.39033
293.37672
293.36306
293.34934
293.33559
293.32182
293.30803
293.29423
293.28045
293.26668
293.25294
293.23924
293.22557
293.21197
293.19842
293.18495
293.17155
293.15822
293.14498
293.13185
293.11883
293.10597
293.09327
293.08079
293.06856
293.05665
293.04513
293.03411
293.02373
293.01416
293.0056
292.99835
292.99288
292.98938
292.988
292.98955
292.99414
293.00129
293.00991
293.01848
293.02547
293.03006
293.03236
293.03307
293.03294
293.03221
293.0312
293.0301
293.02902
293.02802
293.0271
293.02627
293.02554
293.02489
293.02429
293.02373
293.02323
293.02281
293.02242
293.02207
293.02182
293.02163
293.02145
293.02127
293.02117
293.02116
293.02113
293.02118
293.0213
293.02144
293.02161
293.02185
293.02212
293.02239
293.02269
293.02302
293.02332
293.02361
293.02391
293.02421
293.02455
293.02489
293.02524
293.02563
293.02602
293.02642
293.02683
293.02724
293.02764
293.02802
293.02839
293.02876
293.02911
293.02945
293.0298
293.03015
293.03049
293.03083
293.03117
293.0315
293.03182
293.03213
293.03243
293.03273
293.03302
293.03332
293.03361
293.03392
293.03421
293.0345
293.03478
293.03505
293.0353
293.03554
293.03576
293.03596
293.03614
293.0363
293.03646
293.0366
293.03673
293.03684
293.03694
293.037
293.03707
293.43175
293.41846
293.40508
293.3916
293.37802
293.36437
293.35066
293.33689
293.32309
293.30926
293.29541
293.28155
293.2677
293.25386
293.24005
293.22627
293.21254
293.19887
293.18527
293.17173
293.15828
293.14494
293.13174
293.11869
293.10585
293.09325
293.08095
293.06903
293.05759
293.04674
293.03665
293.02752
293.01961
293.01324
293.00893
293.00673
293.00693
293.01014
293.01597
293.02341
293.03104
293.0375
293.04167
293.04372
293.04426
293.04376
293.04263
293.04117
293.03962
293.0381
293.03666
293.03533
293.0341
293.03298
293.03197
293.03104
293.03019
293.0294
293.02867
293.02802
293.02742
293.02688
293.02643
293.02604
293.02569
293.02535
293.02511
293.02491
293.02471
293.02466
293.02464
293.02461
293.02468
293.02482
293.02494
293.02511
293.02532
293.02553
293.02574
293.02594
293.02615
293.02637
293.02662
293.02688
293.02716
293.02748
293.0278
293.02813
293.02849
293.02883
293.02917
293.0295
293.02981
293.03013
293.03044
293.03073
293.03104
293.03134
293.03164
293.03195
293.03226
293.03255
293.03284
293.03312
293.03339
293.03366
293.03393
293.0342
293.03447
293.03475
293.03503
293.0353
293.03557
293.03582
293.03605
293.03627
293.03648
293.03667
293.03684
293.03699
293.03714
293.03727
293.03739
293.0375
293.03759
293.03765
293.03772
293.445
293.43183
293.41862
293.40529
293.39185
293.3783
293.36467
293.35097
293.33719
293.32337
293.3095
293.2956
293.28169
293.26777
293.25386
293.23997
293.22611
293.2123
293.19855
293.18487
293.17127
293.15779
293.14446
293.13132
293.1184
293.10578
293.09351
293.0817
293.07046
293.05994
293.05032
293.04185
293.03481
293.02961
293.0267
293.02597
293.02784
293.0324
293.0387
293.04531
293.05091
293.05458
293.05619
293.05638
293.05548
293.0539
293.05197
293.04995
293.04795
293.04605
293.04427
293.04263
293.04111
293.0397
293.03841
293.03722
293.03612
293.03509
293.03413
293.03326
293.03246
293.03173
293.03108
293.0305
293.02997
293.02948
293.02906
293.0287
293.02838
293.02817
293.02799
293.02783
293.0278
293.02781
293.0278
293.02787
293.02798
293.02808
293.02819
293.0283
293.02842
293.02856
293.02873
293.0289
293.02911
293.02935
293.02961
293.02988
293.03017
293.03045
293.03073
293.03101
293.03126
293.03153
293.03178
293.03203
293.03229
293.03255
293.03282
293.03309
293.03336
293.03362
293.03387
293.03412
293.03437
293.03461
293.03485
293.03509
293.03535
293.03561
293.03586
293.03611
293.03636
293.03659
293.03681
293.03702
293.03721
293.03739
293.03754
293.03769
293.03783
293.03795
293.03807
293.03817
293.03826
293.03832
293.03839
293.4571
293.44409
293.43101
293.41786
293.40459
293.39119
293.37768
293.36406
293.35036
293.33658
293.32274
293.30885
293.29492
293.28097
293.26701
293.25305
293.23912
293.22523
293.21139
293.19763
293.18395
293.17041
293.15703
293.14388
293.13099
293.11844
293.10633
293.09477
293.0839
293.0739
293.06498
293.05741
293.05151
293.04781
293.04641
293.04719
293.05054
293.05566
293.06121
293.06583
293.06873
293.06982
293.06952
293.06811
293.06603
293.0636
293.06107
293.05858
293.0562
293.05396
293.05187
293.04992
293.04811
293.04643
293.04487
293.04342
293.04207
293.0408
293.03963
293.03854
293.03753
293.0366
293.03576
293.035
293.03429
293.03364
293.03306
293.03253
293.03207
293.0317
293.03138
293.03111
293.03095
293.03083
293.0307
293.03066
293.03067
293.03067
293.03067
293.03069
293.03072
293.03078
293.03086
293.03096
293.03109
293.03126
293.03145
293.03165
293.03187
293.03209
293.03231
293.03253
293.03274
293.03295
293.03315
293.03336
293.03357
293.03379
293.03401
293.03424
293.03448
293.0347
293.03492
293.03514
293.03536
293.03557
293.03579
293.03601
293.03624
293.03647
293.03671
293.03694
293.03717
293.03738
293.03758
293.03778
293.03795
293.03812
293.03827
293.0384
293.03853
293.03865
293.03876
293.03885
293.03894
293.039
293.03906
293.46806
293.45528
293.44242
293.42946
293.41635
293.40309
293.38971
293.37622
293.36261
293.34892
293.33514
293.3213
293.3074
293.29346
293.2795
293.26554
293.25159
293.23768
293.22382
293.21004
293.19636