/*--------------------------------*- C++ -*----------------------------------*\
| =========                 |                                                 |
| \\      /  F ield         | OpenFOAM: The Open Source CFD Toolbox           |
|  \\    /   O peration     | Version:  2406                                  |
|   \\  /    A nd           | Website:  www.openfoam.com                      |
|    \\/     M anipulation  |                                                 |
\*---------------------------------------------------------------------------*/
FoamFile
{
    version     2.0;
    format      ascii;
    arch        "LSB;label=32;scalar=64";
    class       volScalarField;
    location    "0.08";
    object      nut;
}
// * * * * * * * * * * * * * * * * * * * * * * * * * * * * * * * * * * * * * //

dimensions      [0 2 -1 0 0 0 0];

internalField   nonuniform List<scalar> 
8260
(
0.033375184
0.037880101
0.043164415
0.049140901
0.055668588
0.062596556
0.069736007
0.076833683
0.083547742
0.089392157
0.093680239
0.09546341
0.093452653
0.086033724
0.071507315
0.049320438
0.025889909
0.012237705
0.0080338025
0.0066351008
0.0058437374
0.0053113626
0.004945622
0.0046681989
0.004482694
0.0043501612
0.0042662577
0.0042026805
0.0041592326
0.0041280946
0.0041119807
0.039452336
0.044084653
0.049171888
0.054775917
0.060855513
0.067296699
0.073921675
0.080476956
0.086615218
0.091843355
0.095450985
0.096470846
0.093598509
0.085228163
0.069703824
0.046953711
0.023655839
0.011514601
0.0077883576
0.0065377687
0.0057886022
0.005277687
0.0049257121
0.0046559527
0.0044758767
0.0043461038
0.0042639369
0.0042012221
0.0041582976
0.0041274522
0.004111547
0.046427208
0.050883298
0.055719413
0.060966565
0.066597603
0.072521028
0.078574673
0.084512227
0.089983017
0.094484465
0.097293314
0.097422466
0.093552959
0.084094403
0.067464759
0.044088211
0.021487593
0.010774001
0.0076316882
0.0064852227
0.005758739
0.0052591784
0.0049148293
0.0046492305
0.0044721312
0.0043438347
0.0042626184
0.0042002636
0.0041575835
0.0041268708
0.0041110731
0.054381899
0.058478175
0.062945012
0.067763312
0.072892356
0.078241104
0.083652725
0.088884824
0.09358355
0.097236987
0.09911156
0.098202683
0.093179765
0.082477551
0.064632015
0.040658651
0.019251725
0.010129077
0.007471244
0.006402972
0.0057087949
0.0052270302
0.0048956095
0.0046371593
0.00446523
0.0043396304
0.0042601404
0.0041986502
0.0041565031
0.0041260936
0.0041105036
0.06331147
0.066910024
0.070903046
0.075195238
0.07973422
0.084421999
0.089098498
0.09351882
0.097323094
0.099989776
0.10077488
0.098659311
0.092306467
0.080190322
0.06102492
0.036602575
0.017045552
0.0095059458
0.0073089946
0.0063293662
0.005665462
0.0051995298
0.0048794622
0.0046271274
0.0044594481
0.0043361779
0.004258103
0.0041972228
0.0041554803
0.0041252969
0.0041098576
0.073046066
0.076089417
0.079512852
0.083179481
0.087027305
0.090949793
0.094779338
0.098263535
0.10103296
0.102555
0.10207515
0.098562965
0.090685608
0.076977116
0.056417635
0.031895371
0.015025972
0.0089257851
0.0071425659
0.0062396277
0.0056098123
0.0051630535
0.0048575987
0.0046132893
0.0044513614
0.0043313033
0.0042552144
0.004195286
0.0041541538
0.0041243191
0.0041091178
0.083282912
0.085736869
0.088516957
0.091470701
0.094528327
0.097575138
0.10043456
0.10284407
0.10442239
0.10462454
0.10268584
0.097568844
0.087961607
0.072488901
0.050539527
0.026616198
0.013104172
0.0083983548
0.0069772695
0.0061520666
0.0055564332
0.0051281437
0.0048368581
0.0046002148
0.004443606
0.0043267216
0.0042524705
0.0041933627
0.0041527859
0.0041232643
0.0041082773
0.093523024
0.095361496
0.097439635
0.099605791
0.10178195
0.10384462
0.10560726
0.10679594
0.1070165
0.10571147
0.10210755
0.095167064
0.083630357
0.066258779
0.043111099
0.021057635
0.011339923
0.0079868426
0.0068099267
0.0060537101
0.0054940498
0.005086278
0.0048113919
0.0045838845
0.0044338513
0.0043209045
0.0042489749
0.0041909628
0.0041511135
0.0041220101
0.0041073204
0.10297331
0.10417423
0.10550165
0.10681598
0.10802908
0.10900664
0.10955056
0.1093741
0.10806988
0.10506937
0.099594474
0.090617653
0.076991466
0.057693242
0.034001011
0.016556703
0.0098728116
0.0076334199
0.006643719
0.0059569664
0.0054330048
0.0050452312
0.0047862342
0.004567691
0.0044240443
0.0043151467
0.0042454463
0.00418846
0.0041493196
0.0041206224
0.0041062325
0.11039178
0.11094471
0.11148263
0.11189331
0.11207594
0.11188297
0.11110196
0.10943149
0.10645148
0.10158662
0.094062292
0.082874872
0.067102823
0.046151032
0.023730819
0.012936029
0.008748036
0.0073495923
0.0064800762
0.0058535112
0.0053650479
0.0049987782
0.0047567689
0.0045483603
0.004412342
0.0043081998
0.0042411487
0.0041854489
0.0041471767
0.0041189925
0.0041049937
0.11390853
0.11381329
0.11354567
0.11302429
0.1121338
0.11071168
0.10852897
0.105269
0.10050324
0.093661559
0.083992747
0.070525951
0.052838948
0.03131064
0.016434363
0.010351987
0.0081239315
0.0070767852
0.0063174478
0.0057533065
0.0052991205
0.0049536951
0.0047272066
0.0045287064
0.0044003737
0.0043011676
0.0042366659
0.0041822286
0.0041448225
0.0041171669
0.0041035802
0.11077753
0.11002347
0.10896766
0.10752995
0.10557548
0.10292174
0.099321104
0.094446038
0.087875808
0.079081429
0.067395834
0.051809172
0.033334783
0.019157945
0.01179794
0.0087300666
0.0077222069
0.0068164222
0.0061685406
0.0056450884
0.0052276263
0.0049058059
0.0046933854
0.00450585
0.0043863609
0.0042928922
0.0042313258
0.0041784423
0.0041420376
0.0041150484
0.0041015617
0.097125497
0.095816899
0.094054556
0.091761914
0.088796764
0.084963404
0.079996556
0.073585519
0.065381924
0.055037272
0.042536446
0.030301016
0.019523104
0.012372742
0.0091263878
0.0080615487
0.0072543633
0.0065683008
0.0060080491
0.0055513108
0.0051565995
0.0048570501
0.0046600831
0.004482887
0.004371823
0.0042844412
0.0042256997
0.0041743919
0.0041389465
0.0041126873
0.004099285
0.068380567
0.066555524
0.064328862
0.061724295
0.058616161
0.054849183
0.050259899
0.044797442
0.038439298
0.031272895
0.023744129
0.016811301
0.011856722
0.00914954
0.0080088103
0.0074148657
0.006881497
0.0062900757
0.0058542781
0.0054377638
0.0050839009
0.0048093304
0.0046211303
0.0044583208
0.0043551207
0.0042746887
0.0042191522
0.004169756
0.004135352
0.00411
0.0040967686
0.038456895
0.037292639
0.035858083
0.03415068
0.032051934
0.029508556
0.026696849
0.023560257
0.020127282
0.016532292
0.013043699
0.010251227
0.0085881977
0.007803049
0.0075144463
0.0069910904
0.0064865377
0.0060388845
0.0056598336
0.0053334832
0.005002917
0.00475823
0.0045875229
0.0044347179
0.0043384888
0.0042646882
0.0042122822
0.0041648737
0.0041314214
0.0041070349
0.0040940613
0.019020993
0.018609026
0.01799994
0.017226908
0.016264061
0.015112895
0.013834722
0.012450677
0.011005864
0.0096422992
0.0084088055
0.0076392915
0.0072601683
0.0072918147
0.0067337834
0.0063083385
0.0060651099
0.0057091718
0.0054571175
0.0051874355
0.0049168909
0.0047121642
0.0045471068
0.0044097465
0.0043215051
0.0042537504
0.0042039817
0.0041594371
0.0041270221
0.0041036808
0.0040912536
0.01010838
0.010009011
0.0098044197
0.0095211807
0.0091723569
0.008773819
0.0083498732
0.0078963346
0.0073864493
0.0070148402
0.0068149033
0.0067187739
0.0068628743
0.0064771952
0.0061586409
0.0060565636
0.0058317356
0.0055689763
0.0052579534
0.0050513726
0.0048144306
0.0046529118
0.0045130469
0.0043875242
0.0043046278
0.0042422638
0.0041953538
0.0041539532
0.0041222494
0.0040999598
0.0040880759
0.006851978
0.0068253375
0.0067614652
0.0066761422
0.0065755518
0.0064610905
0.0063606035
0.0062775408
0.0062404215
0.0062218264
0.0062395234
0.0061990265
0.0058746603
0.0058311339
0.0057427903
0.0054893292
0.0053901904
0.0051765504
0.0049984664
0.0048561989
0.0047134694
0.0045973839
0.0044652906
0.0043609751
0.0042871243
0.0042302308
0.0041852101
0.0041475164
0.0041170325
0.0040957723
0.0040844356
0.0057857314
0.005745169
0.0057184956
0.0057043282
0.0057018916
0.005698749
0.0057229566
0.005695636
0.0056682423
0.0056331753
0.0055335224
0.0053921527
0.0053716561
0.0052711696
0.0052273836
0.0051660321
0.0050174861
0.0049208108
0.004788696
0.0047272389
0.0046054476
0.004519196
0.0044185005
0.0043378649
0.0042685199
0.0042168263
0.0041756007
0.0041406337
0.004111311
0.0040911993
0.0040805682
0.0053063186
0.0053020516
0.0052942721
0.0052835316
0.0052851466
0.0053022748
0.0053016734
0.0052834304
0.0052505832
0.0051658506
0.0051066188
0.0050504244
0.0050113379
0.0049695506
0.0048908635
0.0048274394
0.0048020985
0.0047578181
0.0046618875
0.0045551697
0.0045057582
0.0044628405
0.0043613905
0.0043048992
0.004250186
0.0042039188
0.0041641793
0.0041319703
0.0041050382
0.004086174
0.0040763724
0.0049553523
0.0049521767
0.0049464869
0.0049326979
0.0049088995
0.0048753575
0.0048465269
0.0048400529
0.0048285554
0.0048183133
0.0048237384
0.004824165
0.0047433785
0.0047485702
0.0047004255
0.0046763109
0.004612101
0.004572919
0.0045319241
0.0044657237
0.0044186704
0.0043933473
0.0043237481
0.0042719581
0.0042309863
0.0041901368
0.0041532774
0.0041232744
0.0040979738
0.0040806888
0.0040717307
0.0046192714
0.0046193392
0.0046172483
0.0046124278
0.0046071358
0.0046041725
0.0046150901
0.0046150023
0.0046100874
0.0045945654
0.0045739206
0.0045582741
0.0045731567
0.0045279195
0.0045283562
0.0044435574
0.0044569663
0.0044169877
0.0044046286
0.0043718212
0.0043319518
0.004334382
0.0042821635
0.0042452539
0.0042069533
0.0041747593
0.0041403269
0.0041126328
0.0040900098
0.004074851
0.004066907
0.00443947
0.0044405237
0.0044395572
0.0044362662
0.0044310477
0.0044231552
0.0044068975
0.0044000565
0.0043968216
0.0043950195
0.004393446
0.0044004259
0.0044120854
0.0044096937
0.0043932742
0.0043561377
0.0043593363
0.0043354381
0.0043102441
0.0042845958
0.0042817534
0.0042489083
0.0042415421
0.0042156933
0.0041846324
0.0041566859
0.0041254695
0.0041014201
0.0040822605
0.0040685045
0.0040616948
0.0042687519
0.0042701082
0.0042699235
0.0042688875
0.0042678345
0.0042681325
0.0042739419
0.0042796683
0.004283281
0.0042850175
0.004284208
0.0042784577
0.0042685658
0.0042782954
0.0042717995
0.0042754401
0.00424189
0.0042173747
0.0042361001
0.0042132448
0.0042162122
0.0041934119
0.0041856356
0.0041778574
0.0041578629
0.0041321081
0.0041079304
0.0040888443
0.00407355
0.0040622967
0.0040562528
0.0041813038
0.0041825292
0.0041825702
0.0041818963
0.0041807236
0.0041787802
0.0041751109
0.004173118
0.0041731601
0.004174209
0.0041762789
0.0041786456
0.0041799507
0.0041778192
0.0041819929
0.0041724939
0.0041762599
0.0041644592
0.0041629365
0.0041740976
0.0041764477
0.0041595146
0.004146133
0.0041344791
0.0041207619
0.0041087718
0.0040904953
0.0040778046
0.0040654233
0.004056027
0.0040509768
0.0041117165
0.0041125847
0.0041128528
0.0041128724
0.0041130583
0.0041136093
0.0041144981
0.0041169224
0.0041198277
0.0041227451
0.0041249969
0.0041265332
0.0041255603
0.0041218608
0.0041169288
0.0041193207
0.0041196294
0.0041303285
0.0041251572
0.0041304108
0.0041267283
0.0041205547
0.0041146992
0.0040973966
0.0040922366
0.0040849686
0.0040751689
0.0040676097
0.0040573976
0.0040501832
0.0040454372
0.0040786378
0.0040793874
0.0040796381
0.00407959
0.0040794186
0.0040790888
0.0040788378
0.0040788682
0.0040790159
0.00407913
0.0040791187
0.0040789086
0.004079867
0.0040812922
0.0040830298
0.0040842992
0.004086788
0.0040875418
0.0040884904
0.0040850421
0.004081942
0.0040810506
0.0040799531
0.004078988
0.0040739619
0.0040692214
0.0040663774
0.0040572419
0.0040508662
0.004045283
0.0040420405
0.0040570775
0.004057359
0.0040574434
0.0040574781
0.0040575824
0.0040577888
0.0040581095
0.0040586111
0.0040592152
0.004059917
0.0040607352
0.0040618885
0.0040639371
0.0040662012
0.0040672798
0.0040672823
0.0040675055
0.0040690868
0.0040682392
0.0040671457
0.0040656703
0.0040663441
0.0040644735
0.0040650473
0.0040635475
0.0040606758
0.0040559008
0.0040512118
0.0040462979
0.0040422865
0.0040402678
0.0040462996
0.0040464749
0.0040465798
0.0040466979
0.0040468898
0.0040471644
0.0040475178
0.0040479869
0.0040484916
0.004049078
0.0040499224
0.0040511593
0.0040525975
0.0040530473
0.0040535327
0.0040553713
0.0040579004
0.0040588593
0.0040586095
0.0040583375
0.0040590345
0.0040599489
0.0040575222
0.0040555737
0.0040556619
0.004052876
0.0040500417
0.0040467705
0.0040434424
0.0040401175
0.0040368353
0.0040408256
0.0040409865
0.0040411345
0.0040413074
0.0040415231
0.0040417772
0.0040420483
0.0040421879
0.0040423207
0.0040425148
0.0040429445
0.0040440115
0.0040449826
0.004045069
0.0040450159
0.0040452009
0.0040455911
0.0040461128
0.0040461245
0.0040475113
0.004049295
0.0040479212
0.0040500079
0.0040486838
0.0040484874
0.0040475745
0.0040463688
0.0040444176
0.0040399558
0.0040367913
0.0040369929
0.0040354746
0.0040356035
0.004035757
0.0040359447
0.0040361922
0.0040365145
0.0040369241
0.0040374347
0.0040380646
0.0040388377
0.004039736
0.0040408722
0.0040416135
0.0040419167
0.004041753
0.0040416033
0.0040415015
0.0040415199
0.0040414812
0.0040416562
0.0040431484
0.0040420533
0.0040433623
0.0040447331
0.0040444566
0.0040441871
0.0040435099
0.0040412142
0.0040398818
0.0040393111
0.0040379685
0.00075063008
0.001620224
0.0032359546
0.0056283308
0.0087854687
0.012790788
0.017725285
0.02363169
0.030576427
0.038116201
0.046367094
0.054948073
0.063198074
0.070086811
0.074070843
0.072958767
0.064067706
0.046580302
0.026353467
0.012914578
0.0077162046
0.0061155926
0.0054067501
0.0049582784
0.0046491763
0.0044553184
0.0043272903
0.0042437809
0.0041853889
0.0041480925
0.0041286019
0.0018441649
0.0036875131
0.0060755402
0.0089440945
0.012452012
0.016697446
0.021738799
0.027854395
0.034604489
0.042084008
0.050160396
0.058399202
0.066095635
0.072166976
0.075021016
0.072444233
0.061856131
0.043164512
0.02320723
0.01149557
0.0073064632
0.0059880547
0.0053496452
0.00492508
0.0046299304
0.0044449496
0.0043217899
0.0042406917
0.0041836744
0.0041470807
0.0041280932
0.0033757751
0.005339611
0.0077704517
0.010821279
0.014603476
0.019193809
0.024681564
0.030961198
0.037896301
0.045480537
0.053480727
0.061438292
0.068617131
0.073893102
0.075636821
0.071632791
0.059460893
0.039894664
0.020788956
0.010536053
0.007026457
0.0059310001
0.0053226478
0.004908871
0.0046204051
0.0044391384
0.0043185781
0.0042386463
0.0041824286
0.0041462291
0.0041274547
0.0048626301
0.0070326146
0.0097750677
0.013158363
0.017218861
0.022065259
0.027765757
0.034087675
0.041115364
0.048711831
0.056581404
0.064226851
0.07086911
0.075339578
0.075975444
0.070573766
0.056923743
0.036781465
0.018680362
0.009675449
0.0068536055
0.0058577373
0.005281024
0.0048830506
0.0046050315
0.0044305863
0.0043139637
0.0042359415
0.0041808999
0.0041452704
0.0041267711
0.0063404168
0.0088113917
0.011840178
0.015472313
0.019787469
0.024891126
0.030664102
0.037132705
0.044243536
0.051813221
0.059514542
0.066815895
0.072896544
0.076546084
0.076073898
0.069300808
0.054282075
0.033801857
0.016819338
0.0090792423
0.0066887472
0.0058050405
0.0052530081
0.004865902
0.0045949689
0.0044246251
0.0043106616
0.0042338329
0.0041796406
0.004144399
0.0041261547
0.0078947042
0.010617845
0.013879812
0.017744363
0.022346484
0.027623576
0.033546321
0.040139194
0.047293811
0.054799307
0.062299583
0.06922819
0.07472442
0.077539696
0.075961468
0.067841678
0.05157455
0.030961769
0.015197236
0.0085226009
0.0065718783
0.0057497301
0.0052193565
0.0048446275
0.0045822288
0.0044173492
0.0043066695
0.0042313901
0.0041782424
0.0041434711
0.0041255442
0.0094076006
0.012373749
0.015887722
0.020033663
0.024853898
0.030295082
0.036386957
0.043082845
0.050254386
0.057669024
0.064942827
0.071475779
0.076369924
0.078342462
0.075664462
0.066230443
0.048837454
0.028304342
0.013818827
0.008127288
0.0064650979
0.0057032072
0.0051927586
0.0048281243
0.004572523
0.0044116035
0.0043034527
0.0042293018
0.0041770068
0.0041425939
0.0041249114
0.010874448
0.014107458
0.017884629
0.022317657
0.027314021
0.032938622
0.039174821
0.04595032
0.053117173
0.060419895
0.067447279
0.073567406
0.07784783
0.078975203
0.075209213
0.064505451
0.046109738
0.025865866
0.012675648
0.007806854
0.0063814235
0.0056578858
0.0051645868
0.0048101724
0.0045617899
0.0044053168
0.0042999388
0.0042270651
0.0041757126
0.004141689
0.0041242507
0.01233971
0.015823676
0.019869698
0.024522734
0.0297226
0.035525458
0.041891676
0.048730573
0.055875647
0.063049675
0.069815646
0.075511543
0.079173093
0.079459887
0.074629409
0.062700567
0.043456685
0.023672066
0.011749111
0.0075771033
0.0063049003
0.0056173345
0.0051404534
0.0047950618
0.0045529262
0.0043999817
0.0042969063
0.0042250527
0.0041745214
0.0041408149
0.004123574
0.01375964
0.01749861
0.021814474
0.026661586
0.032072684
0.038045797
0.044528523
0.05141605
0.058524838
0.065557149
0.072051563
0.077317659
0.080361856
0.079819769
0.073958084
0.060853676
0.04088601
0.021733897
0.011006613
0.007385154
0.0062396869
0.0055790141
0.0051164943
0.0047797778
0.0045438818
0.0043945091
0.0042937868
0.0042229965
0.004173314
0.0041399295
0.0041228897
0.015165723
0.019152622
0.023700031
0.028751027
0.034364081
0.04049214
0.04707711
0.054000003
0.061060803
0.06794226
0.074159929
0.078996586
0.081431619
0.080079636
0.073223753
0.059002733
0.038442252
0.020056401
0.010399217
0.007237947
0.0061803819
0.0055440598
0.0050951692
0.0047663679
0.0045361121
0.0043896733
0.0042909906
0.0042210976
0.0041721757
0.0041390648
0.0041222001
0.016532317
0.020767726
0.025521419
0.03078573
0.036585501
0.042854018
0.049529194
0.056476343
0.063480512
0.070206011
0.07614683
0.080560361
0.082400951
0.080269402
0.072457415
0.057187109
0.036160941
0.0186354
0.0099260209
0.0071169273
0.0061278888
0.005511562
0.0050747433
0.0047533715
0.004528585
0.0043849063
0.0042882192
0.0042192146
0.0041710423
0.0041381986
0.0041215054
0.01787548
0.022337109
0.027292831
0.032757216
0.038718184
0.045122579
0.051877411
0.058839682
0.065781693
0.072350212
0.078019211
0.082021919
0.083290767
0.080411355
0.071686536
0.055441505
0.034068982
0.017454448
0.0095641984
0.0070201985
0.006080176
0.0054818866
0.005056289
0.0047417473
0.0045220148
0.0043806049
0.0042856871
0.0042174558
0.0041699583
0.004137348
0.0041208061
0.019191333
0.023856094
0.029010045
0.034657173
0.040758554
0.047292277
0.054113984
0.061084798
0.067963015
0.074378703
0.079786194
0.08339905
0.084120989
0.080527592
0.070941797
0.053789395
0.032185408
0.016495486
0.0092992927
0.0069403591
0.0060375893
0.0054546884
0.0050390353
0.0047307888
0.0045158764
0.0043764773
0.0042832395
0.0042157472
0.0041688893
0.0041365013
0.0041201025
0.02048664
0.025330478
0.030667134
0.036480936
0.042727377
0.049335153
0.056234583
0.063210861
0.07002614
0.076299871
0.081460867
0.084704683
0.084911841
0.080651179
0.070263139
0.052250455
0.030521181
0.015740832
0.0091023414
0.0068755726
0.0059993116
0.0054300738
0.0050234563
0.0047209324
0.0045105007
0.0043727245
0.0042809874
0.004214146
0.0041678594
0.0041356688
0.0041193941
0.021741122
0.026756245
0.03225773
0.03821911
0.04459096
0.051295425
0.058216579
0.065209682
0.071971618
0.07810956
0.083045024
0.085948258
0.085684764
0.080810622
0.069685764
0.050858506
0.029084401
0.015180379
0.0089560258
0.0068204916
0.00596555
0.0054078962
0.00500922
0.0047118388
0.0045056098
0.0043691993
0.0042788512
0.0042126135
0.0041668514
0.0041348446
0.0041186798
0.022899014
0.028087084
0.033747527
0.039847536
0.046332163
0.053120277
0.060084527
0.067052015
0.073760835
0.079799337
0.084537722
0.087143287
0.086458453
0.081031766
0.069240985
0.049666888
0.027910631
0.014705898
0.0088064775
0.0067718767
0.0059359691
0.0053881682
0.004996536
0.0047037018
0.0045013392
0.0043660016
0.0042768867
0.0042111788
0.004165877
0.0041340335
0.0041179598
0.023943901
0.029267267
0.035065338
0.041292898
0.047889991
0.054765308
0.061787605
0.068768846
0.07542918
0.081349837
0.08593285
0.088299256
0.087249754
0.081337672
0.068955821
0.048718048
0.026975708
0.014312369
0.0086802713
0.0067314933
0.0059106455
0.0053708065
0.0049852625
0.0046963644
0.0044975343
0.0043630588
0.0042750534
0.0042098212
0.0041649277
0.0041332327
0.0041172346
0.025043128
0.030426422
0.036296347
0.042605508
0.049282176
0.056227998
0.063303847
0.070312334
0.076960355
0.082817984
0.087266146
0.089405915
0.088068241
0.081748157
0.068853305
0.048043492
0.026260545
0.013983004
0.0085648343
0.0066980837
0.0058894406
0.0053557977
0.0049754948
0.0046899182
0.0044942417
0.0043604203
0.0042733793
0.0042085552
0.0041640107
0.0041324449
0.0041165044
0.026132074
0.031553571
0.03746005
0.043810575
0.050533383
0.057526868
0.064644237
0.071681023
0.07833255
0.084156683
0.08851962
0.090514515
0.088935792
0.082254399
0.068951139
0.04766636
0.025752966
0.013705564
0.0084626026
0.0066721868
0.0058724204
0.0053431278
0.0049671934
0.0046843122
0.0044913835
0.0043580543
0.0042718456
0.00420737
0.0041631224
0.0041316689
0.0041157701
0.027188786
0.032618601
0.038531538
0.044893247
0.05163426
0.058656105
0.065804382
0.072870808
0.079541443
0.085362943
0.089687211
0.091594335
0.089855109
0.082929121
0.069265024
0.047603925
0.025450774
0.013462325
0.00836856
0.00665351
0.0058596827
0.0053328682
0.0049604369
0.0046796148
0.0044889817
0.0043559863
0.0042704655
0.0042062709
0.0041622661
0.0041309051
0.0041150339
0.028203534
0.033608612
0.039495013
0.045838411
0.052570486
0.059606829
0.066801249
0.07392225
0.080644273
0.086484263
0.090792636
0.092655506
0.090825735
0.083740356
0.069810121
0.047868224
0.025366795
0.013229718
0.0082800673
0.0066424432
0.0058514307
0.0053250999
0.0049552284
0.0046758165
0.0044869953
0.0043541945
0.0042692232
0.004205247
0.0041614367
0.0041301508
0.0041142957
0.029182361
0.034504136
0.040315265
0.046608323
0.053341224
0.060406298
0.067642153
0.074802526
0.081553614
0.087435314
0.091786139
0.093676626
0.091843757
0.084693172
0.070587334
0.048481714
0.025493527
0.012966783
0.0081949751
0.0066388579
0.0058476613
0.0053197845
0.0049515062
0.0046728906
0.0044853959
0.0043526644
0.0042681086
0.0042042919
0.0041606309
0.0041294042
0.0041135468
0.030127255
0.035276075
0.040921177
0.047085062
0.053745572
0.060786872
0.068036818
0.075250235
0.082085425
0.088063719
0.092515461
0.094499663
0.092735856
0.085602707
0.071402742
0.049211234
0.025847798
0.012615932
0.008114382
0.0066406324
0.0058477876
0.0053165323
0.0049489782
0.004670673
0.0044840835
0.0043513404
0.0042670919
0.0042033931
0.0041598452
0.004128666
0.004112769
0.00076997037
0.0015695757
0.0030922002
0.0053587929
0.0083647773
0.012132112
0.016790691
0.022430069
0.029148489
0.036531445
0.044688145
0.053264604
0.061630206
0.068808962
0.073303029
0.072952212
0.065010763
0.048213453
0.027770982
0.013372521
0.0078313028
0.0061516632
0.0054247878
0.0049698762
0.0046564282
0.0044599872
0.0043298527
0.004245398
0.0041863821
0.0041487599
0.0041288471
0.00081683656
0.0016151314
0.0031128851
0.0053180627
0.0082419233
0.011947698
0.016535003
0.022086557
0.028689609
0.035997696
0.044028686
0.052502804
0.060848582
0.06809407
0.072770395
0.072747953
0.065308742
0.048972226
0.028527271
0.01368
0.0079026518
0.0061724883
0.0054359015
0.0049776068
0.0046615468
0.004462914
0.0043315007
0.0042464586
0.0041870633
0.0041492643
0.0041290925
0.00087423927
0.0016643865
0.0031432162
0.0053096765
0.0081779281
0.011810507
0.016302619
0.021741422
0.028196637
0.035396369
0.043323754
0.051720976
0.060039313
0.067345502
0.072201627
0.072511955
0.065587967
0.049744408
0.029334256
0.014026798
0.0079808238
0.0061949947
0.0054476427
0.0049853695
0.004666471
0.0044666002
0.0043334917
0.0042477197
0.0041878456
0.0041497699
0.0041294205
0.00094074964
0.0017178338
0.003174804
0.0053014899
0.0081132816
0.011671799
0.016068145
0.02138685
0.027700708
0.034785809
0.042604276
0.050916345
0.059202141
0.066562412
0.07159492
0.07224151
0.065844528
0.050531196
0.030190997
0.014412673
0.0080683777
0.0062178529
0.0054597086
0.0049942741
0.0046726055
0.0044695131
0.0043352196
0.0042488417
0.0041885978
0.0041503466
0.004129816
0.0010196395
0.0017793479
0.0032096107
0.0052956194
0.0080504478
0.011534014
0.015833821
0.021031875
0.027203215
0.034168679
0.041872046
0.050092409
0.058337945
0.065744902
0.070949348
0.071934637
0.066076342
0.051333669
0.031096703
0.014839197
0.0081642768
0.0062444278
0.0054729051
0.0050025804
0.0046777565
0.0044739301
0.0043375855
0.0042503293
0.0041895151
0.0041509479
0.0041301857
0.0011121906
0.0018487224
0.0032497007
0.0052940279
0.0079916943
0.011399868
0.015602734
0.020682051
0.026707138
0.03354744
0.041129221
0.049250848
0.057447879
0.064893506
0.070264601
0.071590153
0.066275677
0.052144411
0.032045985
0.015312953
0.0082763372
0.006270475
0.0054864638
0.0050128928
0.0046849631
0.0044780655
0.0043399006
0.0042517935
0.0041904503
0.0041515879
0.0041304652
0.0012234531
0.0019358848
0.0033006554
0.005301682
0.0079413542
0.011273085
0.015377956
0.020336967
0.02621498
0.03292542
0.040378853
0.048394561
0.056534258
0.064009758
0.069540256
0.071204222
0.066427622
0.052935206
0.033026708
0.015831827
0.0084006814
0.0062988873
0.0055004953
0.0050229611
0.0046918379
0.0044824581
0.0043423738
0.0042533528
0.0041914491
0.0041522712
0.0041307904
0.0013575903
0.002042432
0.0033676754
0.0053222336
0.0079026922
0.011157283
0.015163668
0.020002287
0.025740379
0.032307895
0.039626692
0.047528845
0.055600343
0.06309577
0.068774612
0.070768882
0.066541381
0.053716617
0.034074628
0.016404062
0.0085411295
0.0063290245
0.0055147345
0.0050333306
0.0046990881
0.0044871467
0.0043450242
0.0042550141
0.0041925103
0.004152993
0.0041312956
0.0015181696
0.002168669
0.0034539734
0.0053607639
0.0078809382
0.011057359
0.01496412
0.019680154
0.025264641
0.031695663
0.038874667
0.046655362
0.054647847
0.062153067
0.067969661
0.070287001
0.066611335
0.054483893
0.035173686
0.017034539
0.0086996134
0.0063614163
0.005529649
0.005044322
0.0047068547
0.0044920957
0.0043478455
0.0042567756
0.004193642
0.0041537607
0.0041320187
0.0017117351
0.0023271072
0.0035690319
0.0054242106
0.0078817739
0.010978429
0.014783992
0.019375096
0.024805563
0.031093165
0.038126845
0.045778578
0.05369038
0.061184871
0.06712633
0.069756967
0.066632518
0.055234335
0.036315498
0.017728363
0.0088785779
0.0063956912
0.0055444749
0.005055391
0.0047149696
0.0044974033
0.0043508934
0.0042586585
0.0041948433
0.0041545656
0.0041327027
0.0019405971
0.002520138
0.0037138014
0.0055172444
0.0079107096
0.010925861
0.014628366
0.01909283
0.024374772
0.030506109
0.0373879
0.044902408
0.05271898
0.060193632
0.066246025
0.069177896
0.066600291
0.055953279
0.037497415
0.018492122
0.0090813274
0.0064335806
0.0055600589
0.0050671971
0.0047237225
0.0045029542
0.0043541127
0.0042606354
0.00419612
0.0041554265
0.0041333293
0.0022105079
0.0027592843
0.0039093811
0.0056501641
0.007974811
0.01090547
0.014502515
0.018838137
0.02397227
0.029949948
0.036664307
0.044031385
0.051739035
0.059182462
0.065330688
0.068549504
0.066510815
0.056627936
0.038684664
0.019324913
0.0093105085
0.00647304
0.0055754143
0.0050788444
0.0047327599
0.0045089709
0.0043576447
0.0042627617
0.0041974768
0.0041563251
0.0041339717
0.0025274545
0.0030522498
0.0041501063
0.0058289662
0.0080801029
0.010922562
0.014412228
0.018614626
0.023598635
0.029399291
0.035956659
0.043169719
0.05075753
0.058155106
0.064382815
0.067872165
0.066361133
0.057251825
0.039865731
0.020231347
0.0095712293
0.006519049
0.0055912172
0.0050910236
0.0047424593
0.0045151456
0.0043613035
0.0042649457
0.004198906
0.0041572911
0.0041346974
0.0028946377
0.0033978067
0.0044404585
0.006057848
0.0082308181
0.010980916
0.014360183
0.018426789
0.023256476
0.028877815
0.035270262
0.042321804
0.049778827
0.057114748
0.063405317
0.067146965
0.066149122
0.057818102
0.041051299
0.021215127
0.009866014
0.0065655114
0.0056073508
0.0051033397
0.0047525027
0.0045220013
0.0043654246
0.004267327
0.0042004388
0.0041582891
0.004135484
0.0033207931
0.0038022265
0.0047906467
0.0063325094
0.0084253926
0.011080988
0.014347376
0.018276986
0.022948661
0.028397775
0.03461025
0.041491936
0.048806721
0.056058214
0.062401126
0.066375762
0.065873323
0.058318675
0.042230091
0.022273284
0.010202626
0.0066235632
0.005623158
0.0051149963
0.0047628081
0.0045287876
0.0043695452
0.0042696871
0.0042020247
0.0041593655
0.0041363182
0.0038263149
0.0042814672
0.0052106594
0.0066777856
0.008670773
0.011223742
0.014373496
0.018165651
0.022676794
0.027953878
0.033994206
0.040687385
0.047848285
0.055018148
0.061377225
0.06556167
0.065533826
0.058744979
0.043401799
0.023410583
0.010581145
0.0066812118
0.0056399425
0.0051283751
0.0047740546
0.0045366647
0.0043743538
0.0042723295
0.0042037628
0.0041604645
0.0041371917
0.0044195859
0.0048367724
0.0056919062
0.0070591314
0.008958802
0.011405428
0.014435587
0.018090608
0.022439802
0.027542153
0.033386503
0.039905536
0.046906518
0.053978462
0.060337703
0.064708662
0.065133197
0.059093516
0.044554852
0.024608299
0.011014978
0.0067556115
0.0056575983
0.0051387687
0.0047842727
0.0045439958
0.0043789214
0.0042748404
0.0042055029
0.0041616485
0.0041380996
0.0050882336
0.0054595435
0.0062290374
0.0074882408
0.0092825424
0.011618257
0.014527126
0.018046528
0.022234403
0.027161603
0.03281277
0.039149482
0.045983421
0.052937482
0.059286049
0.063821014
0.064675031
0.059371533
0.045694917
0.025912233
0.011500136
0.0068421217
0.0056727188
0.0051528809
0.0047968831
0.0045530076
0.0043844149
0.0042777615
0.0042074718
0.0041628429
0.0041390392
0.0058343869
0.0061526084
0.0068277091
0.0079702032
0.0096398677
0.011855409
0.014640761
0.018026543
0.022056147
0.026811152
0.032277874
0.038420764
0.045081487
0.05190751
0.058227321
0.06290275
0.064158782
0.059578692
0.04679738
0.027269855
0.01205681
0.0069460021
0.0056971428
0.005163214
0.0048065766
0.0045607911
0.0043893893
0.0042804848
0.0042093423
0.0041641175
0.0041400089
0.006621713
0.0068953233
0.0074752957
0.0084939678
0.010031565
0.012114094
0.01477076
0.018024181
0.021900431
0.026488155
0.031775584
0.037742509
0.044209512
0.050892229
0.057155074
0.061956261
0.063585512
0.059702982
0.047838122
0.028657232
0.012667805
0.0070656817
0.0057107852
0.0051755319
0.0048198491
0.0045706115
0.0043953238
0.0042837215
0.0042115212
0.0041654005
0.0041410056
0.0074166458
0.007646793
0.0081526934
0.0090467183
0.01043818
0.012387965
0.014913194
0.018035237
0.021763797
0.02618928
0.031298476
0.037065608