/*--------------------------------*- C++ -*----------------------------------*\
| =========                 |                                                 |
| \\      /  F ield         | OpenFOAM: The Open Source CFD Toolbox           |
|  \\    /   O peration     | Version:  2406                                  |
|   \\  /    A nd           | Website:  www.openfoam.com                      |
|    \\/     M anipulation  |                                                 |
\*---------------------------------------------------------------------------*/
FoamFile
{
    version     2.0;
    format      ascii;
    arch        "LSB;label=32;scalar=64";
    class       volScalarField;
    location    "0.09";
    object      Ma;
}
// * * * * * * * * * * * * * * * * * * * * * * * * * * * * * * * * * * * * * //

dimensions      [0 0 0 0 0 0 0];

internalField   nonuniform List<scalar> 
2065
(
0.11549354
0.11683327
0.11801276
0.11902976
0.1198735
0.12049543
0.12089353
0.1209089
0.12066928
0.12003061
0.11893355
0.11747976
0.11563187
0.11352363
0.11121018
0.10880411
0.10639172
0.10406254
0.10188478
0.09990322
0.098147165
0.096614322
0.095308434
0.094240723
0.093355747
0.092664723
0.092182704
0.091877783
0.091727398
0.091726969
0.091815678
0.092003378
0.092272815
0.092613981
0.093060136
0.093598551
0.0942537
0.09500852
0.095869853
0.096844367
0.09792225
0.099138658
0.10043115
0.10187046
0.10332875
0.10495179
0.10651231
0.10828253
0.1098975
0.11175647
0.1133359
0.11528546
0.11678081
0.11882445
0.12003622
0.12219286
0.12273485
0.12447373
0.089814215
0.093100126
0.095971725
0.098449619
0.10061877
0.10249084
0.10405347
0.10521417
0.10596833
0.10621356
0.10600024
0.10533363
0.10414055
0.10269263
0.10098393
0.09917614
0.097354003
0.095614791
0.094036229
0.092655664
0.091492989
0.090541297
0.089795579
0.089248618
0.088853029
0.088621848
0.08855573
0.088619879
0.088811723
0.08912263
0.089513454
0.08998311
0.090521342
0.091120773
0.091808131
0.092580529
0.093453578
0.094419772
0.09548124
0.096644898
0.097893296
0.099258563
0.10067715
0.10221784
0.1037571
0.10543743
0.10703831
0.10882871
0.11045634
0.11231097
0.113887
0.11581685
0.11729436
0.119309
0.12049621
0.12262145
0.12315832
0.12487113
0.050067166
0.055139218
0.060166498
0.065009824
0.069607229
0.073919954
0.077851928
0.081377961
0.084389601
0.086787137
0.088585534
0.089730137
0.09025439
0.090176372
0.08978204
0.089000421
0.088082753
0.087116108
0.086204981
0.085428735
0.08482273
0.084398413
0.084148185
0.084054213
0.084100752
0.084258336
0.084534688
0.084913515
0.085380925
0.085942919
0.08658632
0.087297928
0.088068139
0.088890882
0.0897616
0.090701617
0.091715142
0.092810603
0.093987688
0.095244882
0.096587354
0.097992707
0.099491056
0.10101898
0.10264451
0.10425005
0.1059746
0.10760574
0.10940788
0.11104159
0.1128869
0.11445517
0.11636195
0.11781923
0.11980244
0.12096342
0.12305433
0.12358593
0.12527123
0.021746709
0.025233369
0.029162838
0.033637667
0.03831558
0.04315528
0.048074299
0.05290928
0.057540741
0.061820455
0.065587279
0.068817317
0.071354846
0.073226742
0.074473646
0.07527908
0.075702661
0.075892289
0.075999638
0.07611402
0.076306796
0.076614892
0.077045783
0.077592085
0.078219536
0.078922891
0.079684282
0.080495831
0.081346419
0.082239976
0.083190373
0.084185976
0.08523296
0.086317495
0.087435437
0.088585058
0.089782744
0.091037473
0.092351988
0.093731455
0.095171941
0.096676125
0.098220505
0.099832341
0.10145144
0.10314496
0.10480234
0.10655879
0.1082107
0.11001684
0.11165054
0.11348199
0.1150385
0.11691928
0.11835407
0.12030369
0.1214369
0.12349075
0.12401726
0.12567369
0.011928666
0.013683837
0.015751233
0.018237839
0.021181784
0.024617929
0.028461938
0.032590494
0.036876247
0.041185488
0.045360917
0.049283279
0.052740979
0.055705924
0.058143854
0.060134942
0.061802904
0.063201441
0.064489463
0.065735098
0.06699879
0.068309517
0.069670294
0.071070795
0.072467187
0.073863032
0.075249368
0.076614236
0.077954338
0.079288485
0.080639183
0.08199949
0.083389736
0.084794808
0.086210924
0.087638817
0.089090074
0.090576806
0.092097738
0.093662621
0.095266288
0.096910588
0.098572133
0.10027635
0.10196799
0.10371306
0.10540853
0.10718547
0.1088494
0.1106525
0.11228063
0.11409403
0.11563521
0.11748735
0.11889764
0.12081175
0.12191582
0.12393026
0.12445185
0.1260782
0.0073870543
0.0074492789
0.0076990785
0.0081747799
0.0089632419
0.010166224
0.011811903
0.014041615
0.016915227
0.020218284
0.023878236
0.027740048
0.031674378
0.035492951
0.039074972
0.042374582
0.045373429
0.048142271
0.050692285
0.053148086
0.055532522
0.057890796
0.060230647
0.062542275
0.064809844
0.066986837
0.069081668
0.071095033
0.073017054
0.074852278
0.076631065
0.078384564
0.080111652
0.081842862
0.083563677
0.085269977
0.086964265
0.088653708
0.0903528
0.092058212
0.093783726
0.095525551
0.097284816
0.099039876
0.10081518
0.10256115
0.10434228
0.10606306
0.1078501
0.10951806
0.11131177
0.11292932
0.11472086
0.11624357
0.11806468
0.11944871
0.12132558
0.12239939
0.12437245
0.12488926
0.12648455
0.0080434394
0.0073640476
0.0067712225
0.0062094716
0.0055965142
0.0049193886
0.0041206187
0.003406146
0.0033523457
0.0045586093
0.0068583318
0.0098076276
0.013117686
0.016773531
0.020610582
0.024403373
0.028178474
0.03186849
0.035496344
0.03902715
0.042536405
0.045980803
0.049382698
0.052713341
0.055943436
0.059049204
0.061984617
0.064758534
0.06738107
0.069846962
0.072167549
0.074381071
0.076526151
0.078607537
0.080663056
0.0826804
0.084655009
0.086590644
0.088491006
0.090372963
0.092232866
0.094090018
0.09594123
0.097788952
0.099613905
0.1014398
0.10322297
0.10502593
0.10676039
0.10854817
0.11021296
0.11199161
0.11359412
0.11536038
0.11686182
0.11864983
0.12000607
0.12184423
0.122887
0.12481679
0.12532904
0.12689251
0.0094503831
0.0091556786
0.0089513609
0.0087939871
0.0086183934
0.0083596794
0.0079504877
0.0073437745
0.0065105852
0.0054879599
0.0044135386
0.0038220222
0.0044785502
0.0063906938
0.00927247
0.012558892
0.01627383
0.020243124
0.024435261
0.028719242
0.033121426
0.037502759
0.041850645
0.046088745
0.050164742
0.054043906
0.057682825
0.061088718
0.064279785
0.067255356
0.070031591
0.072650735
0.075157213
0.07756142
0.079906932
0.082185096
0.084391232
0.086530467
0.088603964
0.09063205
0.092613122
0.094569489
0.096500386
0.098410804
0.10028309
0.10214058
0.10394531
0.10575732
0.10749501
0.10927523
0.11093045
0.112689
0.11427255
0.11601054
0.11748827
0.11924136
0.12056853
0.12236671
0.12337782
0.12526287
0.12577076
0.12730187
0.011009058
0.011306521
0.011706064
0.01216497
0.012637793
0.013078408
0.01343898
0.013650471
0.013688746
0.01345705
0.01285456
0.011858109
0.010502106
0.0089073943
0.0073947878
0.0065646788
0.007815757
0.011007885
0.015342709
0.02014111
0.025292114
0.0304866
0.035661343
0.040691646
0.045504578
0.05005703
0.054311098
0.058271556
0.061962596
0.065386871
0.06856303
0.071534025
0.074348654
0.077023295
0.079606423
0.082094105
0.084482062
0.086777402
0.088981328
0.091116121
0.093181992
0.09520541
0.097187665
0.099136827
0.10103572
0.10290776
0.10472008
0.10652983
0.10826154
0.11002693
0.1116669
0.11340098
0.1149621
0.11666927
0.11812118
0.11983783
0.12113491
0.12289206
0.12387105
0.1257105
0.12621397
0.12771237
0.011551668
0.012333092
0.013175558
0.014083958
0.015035199
0.01600398
0.01695846
0.017849984
0.018615667
0.019206855
0.019484012
0.019371123
0.01869941
0.017423503
0.015374582
0.012746427
0.0094403896
0.0062115043
0.0051135319
0.008473983
0.013596401
0.019417403
0.025315086
0.031177329
0.036850927
0.042252417
0.047338804
0.052081605
0.05648337
0.060572063
0.064352168
0.06784279
0.071085813
0.074133426
0.077007943
0.079761584
0.082396615
0.084910742
0.087312195
0.089600933
0.091802063
0.093918221
0.095978704
0.09798652
0.099952959
0.10186
0.10373165
0.10553934
0.107337
0.10905472
0.11079897
0.11241877
0.1141246
0.11566036
0.11733454
0.11875887
0.12043785
0.12170404
0.1234193
0.12436604
0.12615973
0.12665822
0.12812374
0.01199577
0.013228527
0.014464833
0.015727181
0.017015867
0.018320757
0.019618329
0.020861949
0.021980809
0.022912589
0.023499661
0.023679277
0.023241959
0.022084494
0.020054714
0.017146544
0.013337461
0.0087070521
0.0040792179
0.0038968146
0.0094342889
0.015905795
0.022367344
0.02872814
0.034845233
0.040638693
0.046075901
0.051140506
0.055833246
0.060183876
0.064197355
0.067891945
0.071307119
0.074497875
0.077491576
0.080344489
0.083063053
0.085645989
0.088102655
0.090432945
0.092663457
0.094798611
0.09686945
0.098880237
0.1008452
0.10274441
0.1046029
0.10639542
0.10817258
0.10986943
0.11158718
0.11318259
0.114857
0.11636493
0.11800432
0.11939965
0.12104003
0.12227475
0.12394751
0.12486201
0.12661035
0.12710305
0.12853573
0.012122917
0.013577728
0.015007481
0.016445512
0.017904094
0.019381235
0.020854971
0.022279156
0.023575791
0.024673458
0.025348094
0.025636957
0.025277784
0.02411856
0.022020803
0.018931408
0.014892873
0.009861179
0.0045042642
0.0019308075
0.0083217435
0.015179676
0.0219254
0.028508377
0.034810394
0.040755209
0.046325241
0.051514995
0.05632346
0.06078015
0.064889107
0.06866709
0.072149991
0.075392165
0.078424881
0.081306347
0.084046634
0.086645252
0.089111657
0.091445149
0.093672679
0.095799711
0.097857987
0.099852563
0.10179998
0.1036779
0.1055125
0.10728096
0.10903054
0.11070071
0.11238749
0.11395495
0.11559535
0.11707347
0.11867664
0.12004186
0.12164298
0.1228459
0.12447577
0.12535822
0.12706184
0.12754798
0.12894805
0.011845412
0.013318547
0.014758311
0.016201735
0.017663385
0.019140716
0.02061056
0.022023294
0.023298741
0.024365559
0.024977501
0.025197836
0.024695007
0.023357552
0.021092423
0.01782566
0.013672311
0.0086588044
0.0037296793
0.0045983644
0.01058223
0.017345866
0.023986101
0.030467252
0.036669304
0.042513172
0.047991895
0.053107421
0.057855929
0.062264362
0.066334185
0.070079051
0.073529957
0.076738895
0.079738441
0.082586478
0.085295073
0.087863715
0.090301067
0.092605315
0.094802687
0.096898928
0.098925563
0.10088805
0.10280444
0.10465005
0.10645192
0.10818893
0.1099051
0.1115438
0.11319596
0.11473257
0.11633691
0.11778364
0.11934956
0.12068383
0.12224537
0.12341639
0.12500319
0.12585401
0.12751376
0.1279926
0.12936045
0.011267064
0.012492822
0.013728632
0.014995953
0.016291497
0.017599818
0.018888962
0.020103742
0.021164258
0.021989202
0.022380348
0.022285811
0.021455019
0.019828977
0.017325904
0.01393781
0.009995593
0.006161193
0.0053847297
0.0097742273
0.015650554
0.021984929
0.028231716
0.034326119
0.040168604
0.045681735
0.050866106
0.055728654
0.060261251
0.064486195
0.06840054
0.072012994
0.075348114
0.078453165
0.081359614
0.084123106
0.086756187
0.089257516
0.091634203
0.09388284
0.09602802
0.098075102
0.10005466
0.10197225
0.10384651
0.10565105
0.10741308
0.10911267
0.11079074
0.11239412
0.11400878
0.11551226
0.117079
0.1184932
0.12002118
0.12132399
0.12284587
0.12398512
0.12552889
0.12634868
0.12796557
0.1284365
0.12977265
0.010443503
0.011180001
0.012002134
0.012908763
0.01386554
0.014833078
0.015763474
0.016591611
0.017246689
0.017582819
0.017544024
0.016927763
0.0156478
0.01372582
0.011181282
0.0085304941
0.0067592072
0.0079205096
0.011904573
0.017186755
0.022810034
0.028584976
0.034227622
0.039710801
0.044981225
0.049973976
0.054697291
0.059161281
0.063351972
0.067285121
0.070951472
0.074353016
0.077506431
0.080452241
0.083218727
0.08585775
0.088381084
0.090785884
0.093077162
0.095249527
0.097325247
0.099308756
0.10122914
0.10309173
0.10491511
0.10667179
0.10838839
0.11004586
0.11168222
0.1132473
0.11482232
0.11629094
0.11781905
0.11919996
0.12068968
0.12196084
0.12344319
0.12455101
0.12605202
0.12684156
0.12841666
0.12887925
0.13018441
0.0095029776
0.0097658537
0.010159146
0.01062084
0.011081859
0.011476945
0.011703131
0.011699749
0.011365315
0.010605457
0.0093207611
0.0077952166
0.0064378687
0.0061888862
0.008120991
0.011905906
0.016452921
0.021441062
0.026581491
0.031678756
0.036710941
0.041557406
0.04624788
0.050778524
0.055103839
0.059238745
0.063194133
0.06694849
0.070509262
0.073859105
0.076991716
0.079914801
0.082660582
0.085252478
0.087737446
0.090125567
0.092411992
0.094599295
0.096679843
0.098673092
0.10058214
0.10243421
0.10423418
0.10600004
0.10770377
0.10937075
0.11098257
0.11257457
0.11409918
0.11563308
0.11706568
0.11855458
0.11990182
0.12135329
0.1225929
0.12403608
0.12511303
0.12657174
0.127332
0.12886645
0.12932046
0.13059547
0.0077961306
0.007463611
0.0072589532
0.0071075627
0.0069141294
0.0065664946
0.0059690286
0.0049330695
0.0035156523
0.0016413143
0.0018244293
0.0049928383
0.0091562796
0.013631761
0.018477245
0.023469154
0.028355318
0.033082532
0.037596455
0.041862909
0.045941618
0.04981804
0.053577314
0.057246599
0.060802231
0.064262028
0.067634228
0.070888403
0.074022342
0.077009378
0.079833769
0.082493485
0.085011387
0.08740489
0.089715317
0.09195044
0.094103091
0.096173251
0.09815091
0.1000524
0.10187921
0.10365644
0.10538831
0.10709192
0.10873915
0.11035355
0.11191726
0.11346312
0.11494583
0.11643776
0.11783367
0.11928323
0.12059675
0.12201029
0.12321872
0.12462335
0.12567017
0.12708726
0.1278194
0.12931433
0.12975976
0.13100559
0.0066998174
0.0062444781
0.0059093276
0.0056345045
0.0053876643
0.005147656
0.0051501596
0.0055508673
0.0069735748
0.0096302641
0.013161393
0.017577104
0.022655857
0.02783532
0.032983991
0.037826013
0.042210402
0.046124155
0.04964446
0.052824659
0.055789158
0.058585085
0.061335461
0.064083115
0.06681755
0.069558504
0.072308644
0.075028234
0.077705092
0.080303012
0.08279637
0.085173193
0.087446538
0.089627184
0.091750407
0.093821335
0.095830348
0.097774835
0.099642385
0.10144606
0.10318554
0.10488368
0.10654388
0.10818215
0.10977068
0.11133065
0.11284475
0.11434349
0.11578357
0.11723324
0.11859227
0.12000275
0.12128285
0.12265909
0.12383693
0.12520387
0.12622146
0.12759778
0.12830317
0.12975973
0.13019678
0.13141452
0.0077718037
0.0084180842
0.0092402872
0.010286381
0.011647676
0.01356212
0.016132756
0.01956831
0.023801254
0.028704909
0.034073677
0.039591815
0.044832252
0.049575742
0.053624848
0.056956261
0.059685302
0.061976224
0.063939284
0.065733712
0.067434221
0.069173236
0.07100519
0.072922082
0.074942359
0.0770658
0.079243637
0.081454857
0.083654779
0.085808427
0.087894382
0.089916034
0.091877281
0.093807261
0.095708374
0.097568573
0.099382798
0.10113631
0.10283887
0.10448824
0.10610502
0.10769163
0.10926293
0.11079172
0.11229641
0.11376025
0.11521164
0.11660894
0.11801659
0.11933898
0.12071103
0.1219583
0.12329813
0.12444624
0.12577657
0.126766
0.12810258
0.12878272
0.13020208
0.13063117
0.13182203
0.1073107
0.10882325
0.1103272
0.11179624
0.11324567
0.1146594
0.11606383
0.11741877
0.1187851
0.12007149
0.12140608
0.12262141
0.123926
0.12504542
0.12634044
0.12730292
0.12860103
0.12925754
0.13064086
0.13106262
0.13222791
0.17634916
0.17915298
0.13955363
0.14796795
0.15537719
0.16183773
0.16728931
0.17171987
0.17521037
0.17790372
0.13025377
0.13994915
0.14810212
0.15519221
0.16134016
0.16652349
0.17074331
0.1740779
0.17666044
0.13084513
0.14025634
0.14815827
0.15496793
0.16082022
0.16574566
0.16976048
0.17294311
0.1754168
0.13132811
0.1404554
0.14812172
0.15467364
0.16025091
0.16493522
0.16875719
0.1717944
0.17416366
0.13167422
0.14049483
0.14796991
0.15426197
0.15959695
0.16406459
0.1677112
0.17061507
0.17288662
0.13181459
0.14037991
0.14762004
0.15369915
0.15882886
0.16310923
0.16660112
0.16938546
0.17156752
0.13172884
0.14002947
0.1470527
0.15295957
0.15791889
0.16204136
0.16540118
0.16808207
0.1701844
0.13136346
0.13935973
0.14623102
0.15200584
0.15683353
0.16083128
0.16408308
0.1666777
0.16871203
0.13061486
0.13837418
0.14512194
0.15080412
0.15554147
0.15944968
0.16261961
0.16514562
0.16712385
0.1295562
0.1370724
0.14370922
0.14933184
0.15401793
0.15787128
0.16098592
0.16346164
0.165396
0.12807781
0.13538752
0.141955
0.14756349
0.1522409
0.1560749
0.15916081
0.1616044
0.16350671
0.12624371
0.133357
0.13987663
0.14550427
0.15020874
0.15405463
0.15713605
0.15956479
0.16144697
0.12406523
0.13101128
0.13750508
0.14317794
0.14793722
0.15181977
0.15491623
0.15734394
0.15921514
0.12163558
0.1284232
0.13489756
0.14062901
0.14546058
0.14939715
0.15252383
0.15496238
0.15683183
0.11901486
0.12565377
0.13211176
0.13790828
0.1428223
0.14682344
0.14998996
0.1524466
0.15431929
0.11629719
0.1227833
0.12921685
0.1350753
0.14007517
0.14414709
0.1473603
0.14984154
0.15172352
0.1135656
0.11988743
0.12628052
0.13218917
0.13727001
0.14141369
0.14467512
0.14718122
0.14907109
0.11090253
0.11703969
0.12336471
0.12930349
0.13445772
0.13867399
0.14198872
0.14452752
0.14643582
0.10836842
0.1142951
0.12051922
0.12646369
0.13168223
0.13597356
0.13934951
0.14193013
0.14386453
0.10600709
0.11169107
0.1177749
0.12369336
0.1289616
0.13332806
0.13677331
0.13940741
0.14138112
0.10385396
0.10926396
0.11516487
0.12101849
0.12631412
0.13075012
0.13426834
0.13696149
0.13897728
0.101912
0.10702041
0.11269667
0.11844227
0.1237353
0.12822808
0.13181842
0.13457536
0.13664026
0.10019108
0.10497619
0.11038945
0.11598238
0.12123793
0.12577054
0.12943117
0.13225831
0.13438135
0.098719212
0.10317096
0.10829119
0.11368732
0.11886349
0.12340956
0.12713038
0.13002777
0.13221257
0.097445113
0.10156255
0.10637138
0.11153509
0.11659
0.1211152
0.12487487
0.12783185
0.13007418
0.096379543
0.1001659
0.10465093
0.10955206
0.11444541
0.11891229
0.12268539
0.12568933
0.12798586
0.095547472
0.099014316
0.10317256
0.10778923
0.11248436
0.11685319
0.12060833
0.12364041
0.125983
0.094926341
0.098096256
0.10193978
0.10626633
0.11073899
0.11497483
0.11867804
0.12171265
0.12408541
0.094481772
0.097371157
0.10091099
0.10494675
0.10918134
0.1132569
0.11687739
0.11988762
0.12227066
0.094205744
0.096826811
0.10006977
0.10381133
0.10779147
0.11167958
0.11518566
0.1181419
0.12051143
0.094036597
0.096401755
0.099356455
0.10280445
0.10651982
0.11019996
0.11356559
0.11644191
0.1187759
0.093970817
0.09608214
0.098747749
0.10189563
0.10533196
0.10878264
0.11198247
0.11475414
0.11703169
0.094000432
0.095869972
0.098255573
0.10110646
0.10425836
0.10746553
0.11047969
0.11312524
0.11532684
0.094110647
0.095750229
0.097867362
0.10043009
0.10330081
0.1062606
0.10907888
0.11158449
0.11369569
0.094342237
0.095763604
0.097621723
0.099904696
0.10249948
0.10521203
0.10782923
0.1101858
0.11219582
0.094670238
0.095877601
0.097492175
0.099507216
0.101834
0.10430254
0.10671722
0.10891975
0.11082168
0.095129497
0.096138384
0.097514585
0.099265861
0.1013278
0.10355328
0.1057637
0.10780816
0.10959654
0.095691279
0.096502069
0.097637963
0.099132924
0.10093479
0.1029194
0.1049252
0.10680916
0.10848042
0.096368409
0.096990862
0.097900014
0.099137903
0.10066853
0.10240262
0.10419664
0.10591482
0.10746446
0.097164265
0.097599867
0.098275978
0.099245014
0.10051024
0.10199196
0.10356803
0.10511245
0.10653319
0.098078635
0.098342866
0.098803019
0.099522464
0.10052811
0.10175047
0.1031035
0.10447107
0.10576057
0.099147794
0.0992545
0.099508816
0.099979509
0.10070689
0.10168892
0.1028181
0.10400515
0.10515862
0.10031404
0.10028487
0.10035767
0.10060409
0.10108221
0.10180204
0.1027111
0.10371081
0.10472409
0.10164851
0.101504
0.10141668
0.10145379
0.10168252
0.10213642
0.10280579
0.10361222
0.10446916
0.10302233
0.10278513
0.10256607
0.10242727
0.10243957
0.10265636
0.1030856
0.10369511
0.10439689
0.10458334
0.10427679
0.1039549
0.10367008
0.10349038
0.10347739
0.10366232
0.10403232
0.10455423
0.10610037
0.1057464
0.10535331
0.10496609
0.10464837
0.10446568
0.10446125
0.10464183
0.10497892
0.10784652
0.10746543
0.1070279
0.10657116
0.10615174
0.10583275
0.10566447
0.10566794
0.10583111
0.10944637
0.10904918
0.10858396
0.10808226
0.10759506
0.10718234
0.1068962
0.10676631
0.1067939
0.11130669
0.11091037
0.11044041
0.10992341
0.10940481
0.10893997
0.10857908
0.10835401
0.1082723
0.11288745
0.11249339
0.1120224
0.11149809
0.11096235
0.11046748
0.11006241
0.10978004
0.10963095
0.11485285
0.11447471
0.1140202
0.11351019
0.11298261
0.11248557
0.11206507
0.11175303
0.11156122
0.11636389
0.1160028
0.11556754
0.11507727
0.11456754
0.11408389
0.11367014
0.11335722
0.11315694
0.11843224
0.11809572
0.11768906
0.11722892
0.11674714
0.11628538
0.11588427
0.1155725
0.11536189
0.1196657
0.11935194
0.11897265
0.11854322
0.11809297
0.11766066
0.11728449
0.11699227
0.11679548
0.12184919
0.12156
0.12120941
0.12081088
0.12039106
0.11998519
0.11962822
0.1193455
0.11914768
0.12239787
0.12211862
0.12177996
0.12139503
0.12098955
0.12059752
0.12025276
0.11997997
0.11978962
0.12416121
0.12390605
0.12359703
0.12324593
0.12287581
0.12251709
0.12220006
0.1219471
0.12176788
0.18147395
0.18364233
0.1857132
0.18772778
0.18966001
0.19045602
0.18013762
0.18222677
0.18422647
0.18617661
0.18805441
0.18884753
0.17880734
0.18081768
0.18274584
0.18463003
0.18645043
0.18723804
0.17747844
0.17941164
0.18126922
0.18308721
0.18484895
0.18562739
0.17614335
0.17800198
0.17979039
0.18154269
0.18324443
0.18400917
0.17478912
0.17657696
0.1782986
0.17998615
0.1816271
0.18237402
0.17339879
0.17512083
0.17677925
0.17840425
0.17998448
0.18070887
0.17195119
0.17361288
0.17521196
0.17677687
0.17829719
0.17899693
0.17042252
0.17203041
0.17357516
0.17508374
0.17654625
0.17721938
0.16878643
0.17034706
0.17184224
0.17329782
0.17470513
0.17535627
0.16701962
0.16854046
0.16999233
0.17140035
0.17275731
0.17339042
0.16509943
0.16658665
0.16799995
0.16936433
0.17067566
0.17130788
0.16301745
0.16447846
0.16586033
0.16718851
0.16846261
0.16910542
0.1607692
0.16220794
0.16356142
0.16485635
0.16609954
0.16678799
0.15837681
0.15980042
0.16113411
0.16240709
0.16363489
0.16438027
0.15585794
0.15726768
0.15858202
0.15983252
0.16104553
0.16189899
0.1532614
0.15466359
0.15596755
0.15721022
0.15844281
0.15958728
0.15060483
0.15199434
0.15328308
0.15451897
0.15580141
0.15742422
0.14797883
0.14937462
0.15067792
0.15195348
0.15334772
0.15529005
0.14542152
0.14682349
0.14813091
0.1494096
0.15079828
0.15258062
0.14296712
0.14439446
0.14573219
0.14705363
0.14851368
0.15043577
0.14059053
0.14203396
0.14337799
0.14468961
0.14610296
0.14791206
0.1382902
0.13976433
0.14114125
0.1425003
0.14401911
0.14624748
0.13607701
0.13758945
0.13900094
0.14038894
0.14191253
0.1438879
0.1339579
0.13551124
0.13695585
0.13836589
0.13989277
0.14185594
0.13186893
0.13346666
0.13495391
0.13641134
0.13802199
0.14036807
0.1298325
0.13148209
0.13302574
0.13455391
0.13628827
0.13903819
0.12788031
0.12958585
0.13119469
0.13280668
0.13467888
0.1377946
0.12602469
0.12778268
0.12945723
0.13115636
0.13316903
0.1366248
0.12423819
0.12603935
0.12777368
0.12955691
0.13170884
0.13549929
0.12248899
0.12431905
0.12610221
0.1279624
0.13025209
0.13439194
0.12074575
0.12258993
0.12440991
0.12633891
0.12876583
0.13328285
0.11897685
0.12082107
0.12266713
0.12465934
0.12722875
0.13216717
0.11723024
0.11905903
0.12091775
0.1229631
0.12567162
0.1310514
0.11554333
0.11734267
0.11920036
0.12128617
0.12412314
0.12994583
0.11397623
0.11573351
0.11757627
0.11968717
0.12263515
0.12888028
0.11252705
0.11423349
0.11605146
0.11817661
0.12122281
0.12786868
0.1112206
0.11286881
0.11465314
0.11678188
0.11991287
0.12693333
0.11001905
0.11160445
0.11335023
0.11547818
0.11869148
0.12608672
0.10891378
0.11043294
0.11213701
0.11426147
0.11755645
0.12532634
0.10788629
0.10933245
0.11098926
0.11310786
0.11648835
0.12465305
0.10701506
0.10838528
0.10999089
0.11209804
0.11555574
0.12408414
0.10630921
0.1075979
0.10914686
0.11123805
0.11476968
0.12364464
0.10576855
0.10697509
0.10846823
0.11054566
0.11415309
0.12334474
0.10539239
0.10650313
0.1079297
0.10998717
0.11367002
0.12316285
0.10518495
0.10618299
0.10752787
0.10955444
0.11330768
0.12310518
0.10521074
0.10608634
0.10732343
0.10928662
0.11308893
0.12317378
0.1054714
0.10622183
0.10737338
0.10929615
0.11313016
0.12340899
0.10614422
0.10670124
0.10766959
0.10945865
0.11328022
0.12371102
0.10697089
0.10737798
0.10818207
0.10980851
0.11352749
0.12401578
0.1083232
0.10857096
0.10917275
0.11054227
0.1139753
0.12434124
0.10960156
0.10974227
0.1101957
0.11135183
0.11450817
0.12468647
0.11147306
0.11152351
0.11183033
0.11271893
0.11537552
0.12507003
0.11305195
0.11307173
0.11332107
0.11408977
0.11646539
0.12553522
0.11523385
0.11520842
0.11537274
0.11596255
0.11790629
0.12617183
0.11667659
0.11665612
0.11681698
0.11738335
0.11923788
0.12687988
0.11901608
0.11896466
0.11906219
0.11948887
0.12096564
0.12775105
0.11966366
0.11961851
0.11972544
0.12017392
0.12173623
0.1283761
0.12164364
0.1215885
0.12166302
0.12202345
0.12329237
0.12940997
)
;

boundaryField
{
    Side1
    {
        type            empty;
    }
    Inlet
    {
        type            calculated;
        value           nonuniform List<scalar> 0();
    }
    Side2
    {
        type            empty;
    }
    Outlet
    {
        type            calculated;
        value           nonuniform List<scalar> 
35
(
0.12447373
0.12487113
0.12527123
0.12567369
0.1260782
0.12648455
0.12689251
0.12730187
0.12771237
0.12812374
0.12853573
0.12894805
0.12936045
0.12977265
0.13018441
0.13059547
0.13100559
0.13141452
0.13182203
0.13222791
0.12416121
0.12390605
0.12359703
0.12324593
0.12287581
0.12251709
0.12220006
0.1219471
0.12176788
0.12164364
0.1215885
0.12166302
0.12202345
0.12329237
0.12940997
)
;
    }
    Botwall
    {
        type            calculated;
        value           nonuniform List<scalar> 
59
(
0.15002469
0.15001368
0.15000276
0.14999191
0.14998111
0.14997031
0.14995945
0.14994845
0.14993725
0.14992574
0.14991386
0.14990154
0.14988881
0.14987563
0.1498623
0.1498485
0.14983567
0.14982378
0.14981148
0.14979775
0.14978797
0.14977643
0.1497688
0.14976056
0.14975236
0.14974518
0.14973779
0.14972966
0.14972073
0.14971126
0.14970186
0.14969335
0.14968641
0.14968064
0.14967483
0.14966792
0.14966029
0.14965359
0.14964909
0.14964614
0.14964394
0.14964266
0.14964307
0.14964486
0.14964852
0.14965344
0.14965983
0.14966585
0.14967298
0.14968012
0.14968945
0.14969846
0.14970917
0.14971897
0.14973378
0.14974933
0.14976431
0.14976487
0.14978192
)
;
    }
    Cyli
    {
        type            calculated;
        value           nonuniform List<scalar> 0();
    }
    procBoundary1to0
    {
        type            processor;
        value           nonuniform List<scalar> 
44
(
0.1140274
0.12960034
0.08622864
0.08622864
0.044996236
0.044996236
0.018625276
0.010410354
0.010410354
0.007493483
0.007493483
0.0088140329
0.009853943
0.010816705
0.010816705
0.010964553
0.010847989
0.010689313
0.010397267
0.010163127
0.0093892619
0.0099622235
0.0093892619
0.0082931833
0.0073778362
0.0072694226
0.0072694226
0.17750163
0.18041293
0.13913788
0.14780455
0.15554613
0.16233406
0.16806033
0.17270331
0.17270331
0.12960034
0.12960034
0.18281918
0.18506457
0.18720302
0.18927652
0.19125501
0.19205545
)
;
    }
    procBoundary1to3
    {
        type            processor;
        value           nonuniform List<scalar> 
62
(
0.012915369
0.014932741
0.017210096
0.019861486
0.022999775
0.026899229
0.031500866
0.036648437
0.042270577
0.048041113
0.053696703
0.058872868
0.063266336
0.066811551
0.06949494
0.071427214
0.07279835
0.073804096
0.074571795
0.075263748
0.075961478
0.076774057
0.077755097
0.078915347
0.080252516
0.081775597
0.083428813
0.085184732
0.086992727
0.088810007
0.090606802
0.092377519
0.094119369
0.095855557
0.097585888
0.09929604
0.10097873
0.10261702
0.10421749
0.10577595
0.10577595
0.10849214
0.10993137
0.11136868
0.11277881
0.1141738
0.11553822
0.11689666
0.11821015
0.11953629
0.12078766
0.1220861
0.12327063
0.12454137
0.12563332
0.12689454
0.12783141
0.12909251
0.12972715
0.13107559
0.13149084
0.13263191
)
;
    }
}


// ************************************************************************* //
