/*--------------------------------*- C++ -*----------------------------------*\
| =========                 |                                                 |
| \\      /  F ield         | OpenFOAM: The Open Source CFD Toolbox           |
|  \\    /   O peration     | Version:  2406                                  |
|   \\  /    A nd           | Website:  www.openfoam.com                      |
|    \\/     M anipulation  |                                                 |
\*---------------------------------------------------------------------------*/
FoamFile
{
    version     2.0;
    format      ascii;
    arch        "LSB;label=32;scalar=64";
    class       volScalarField;
    location    "0.09";
    object      rho;
}
// * * * * * * * * * * * * * * * * * * * * * * * * * * * * * * * * * * * * * //

dimensions      [1 -3 0 0 0 0 0];

internalField   nonuniform List<scalar> 
2065
(
1.1914831
1.1916141
1.1917223
1.1918222
1.1919197
1.1920247
1.1921468
1.192299
1.1925144
1.1927804
1.193121
1.1935219
1.1939753
1.194461
1.1949576
1.1954458
1.1959064
1.196325
1.1966977
1.1970268
1.1973156
1.197567
1.1977926
1.1979768
1.1981363
1.1982712
1.198386
1.1984779
1.1985667
1.1986561
1.1987465
1.198833
1.1989139
1.1989818
1.1990475
1.1991133
1.1991833
1.199254
1.1993232
1.1993932
1.1994608
1.1995317
1.1995887
1.1996423
1.1996708
1.1997017
1.1997131
1.1997584
1.19978
1.1998506
1.199909
1.2001071
1.2002682
1.2005084
1.2005204
1.2006928
1.20104
1.2013984
1.190758
1.190918
1.1910501
1.1911741
1.1913023
1.1914456
1.1916131
1.191825
1.1920883
1.1924159
1.1928134
1.1932756
1.1937837
1.194313
1.1948459
1.1953619
1.1958428
1.1962758
1.1966596
1.1969981
1.1972945
1.1975532
1.1977844
1.1979732
1.1981384
1.1982795
1.1983982
1.198501
1.1985961
1.1986914
1.1987881
1.1988773
1.1989613
1.199033
1.1991033
1.1991736
1.1992469
1.1993198
1.1993902
1.1994603
1.1995267
1.1995954
1.1996491
1.1996985
1.1997227
1.1997492
1.1997568
1.1997978
1.1998157
1.1998843
1.1999392
1.2001311
1.2002878
1.2005239
1.2005362
1.2007039
1.201044
1.2013944
1.1899545
1.1901026
1.1902478
1.1903954
1.1905485
1.1907126
1.1908969
1.1911145
1.1913803
1.1917013
1.1920946
1.1925448
1.1930625
1.1936188
1.1941888
1.1947537
1.1952941
1.1957918
1.1962375
1.1966315
1.1969785
1.1972816
1.1975467
1.1977791
1.1979778
1.1981475
1.198293
1.1984154
1.1985288
1.1986297
1.198731
1.1988319
1.1989242
1.1990108
1.1990861
1.1991605
1.1992346
1.1993103
1.1993846
1.1994555
1.1995248
1.1995895
1.1996554
1.1997057
1.199751
1.1997711
1.1997935
1.1997976
1.1998349
1.1998495
1.1999164
1.1999682
1.2001542
1.2003066
1.2005388
1.2005511
1.2007173
1.201048
1.2013906
1.1895616
1.1896296
1.189716
1.1898249
1.1899548
1.1901041
1.190278
1.1904848
1.1907346
1.1910378
1.191402
1.1918374
1.1923327
1.1928921
1.1934827
1.1940844
1.1946735
1.1952325
1.1957434
1.1962009
1.196605
1.1969602
1.19727
1.1975414
1.1977748
1.1979842
1.1981583
1.1983083
1.1984369
1.1985571
1.1986647
1.1987718
1.1988765
1.1989717
1.1990608
1.1991394
1.1992173
1.1992945
1.1993719
1.199447
1.1995177
1.1995858
1.1996484
1.1997114
1.1997583
1.1997997
1.1998161
1.1998349
1.1998359
1.1998697
1.1998815
1.1999468
1.1999962
1.2001764
1.2003246
1.2005532
1.2005651
1.2007335
1.201052
1.2013872
1.1894247
1.1894587
1.1895132
1.1895934
1.1897005
1.1898345
1.190004
1.1902173
1.1904827
1.1908068
1.1911965
1.1916575
1.1921828
1.1927671
1.1933808
1.1940037
1.1946092
1.1951806
1.1957006
1.1961678
1.1965807
1.1969432
1.1972592
1.1975364
1.1977749
1.1979892
1.1981685
1.1983241
1.1984592
1.1985855
1.1986996
1.1988121
1.1989203
1.1990181
1.1991096
1.1991911
1.199272
1.1993516
1.1994301
1.1995055
1.1995756
1.1996424
1.1997027
1.199763
1.1998068
1.1998446
1.1998578
1.1998734
1.1998718
1.1999026
1.1999119
1.1999754
1.200023
1.2001977
1.2003419
1.2005671
1.2005782
1.2007522
1.2010558
1.201384
1.1893387
1.189351
1.1893763
1.1894194
1.189485
1.1895758
1.1896965
1.1898555
1.1900638
1.1903322
1.1906645
1.1910665
1.1915397
1.192081
1.1926787
1.1933039
1.1939373
1.1945523
1.1951317
1.1956582
1.1961337
1.1965542
1.1969237
1.197246
1.197529
1.1977734
1.1979918
1.1981764
1.1983381
1.1984795
1.1986118
1.1987322
1.1988496
1.1989611
1.1990615
1.1991553
1.1992395
1.1993228
1.1994042
1.1994835
1.199559
1.1996285
1.1996939
1.1997522
1.19981
1.199851
1.1998858
1.1998963
1.1999091
1.1999053
1.1999334
1.1999406
1.2000023
1.2000489
1.2002182
1.2003586
1.2005806
1.2005905
1.2007728
1.2010596
1.2013811
1.1892922
1.189301
1.189318
1.1893454
1.1893866
1.1894457
1.1895273
1.1896398
1.1897901
1.1899906
1.1902521
1.1905822
1.1909825
1.1914566
1.1920042
1.1926072
1.1932361
1.1938725
1.1944913
1.1950754
1.1956073
1.1960908
1.1965188
1.1968957
1.1972249
1.1975145
1.197765
1.1979883
1.1981788
1.1983467
1.1984945
1.1986331
1.1987596
1.1988819
1.1989968
1.1990998
1.1991959
1.1992826
1.1993681
1.1994511
1.1995312
1.1996069
1.1996758
1.1997402
1.1997967
1.1998524
1.1998912
1.1999235
1.1999317
1.1999423
1.1999366
1.1999625
1.1999679
1.2000279
1.2000737
1.2002381
1.2003748
1.2005936
1.2006022
1.2007943
1.2010631
1.2013785
1.1892832
1.1892942
1.1893121
1.1893396
1.1893791
1.1894343
1.1895103
1.1896155
1.1897592
1.1899518
1.1902043
1.1905241
1.1909168
1.1913877
1.1919354
1.1925342
1.1931612
1.1937965
1.1944151
1.1950024
1.1955393
1.1960313
1.1964676
1.1968531
1.1971904
1.1974876
1.1977453
1.1979745
1.1981717
1.1983463
1.198501
1.1986462
1.1987791
1.1989065
1.1990251
1.1991312
1.1992298
1.1993192
1.1994069
1.1994916
1.1995725
1.1996487
1.1997174
1.1997813
1.1998364
1.1998905
1.1999276
1.1999578
1.1999642
1.199973
1.1999659
1.1999899
1.1999938
1.2000522
1.2000976
1.2002572
1.2003905
1.2006063
1.2006134
1.2008151
1.2010665
1.2013761
1.1892868
1.1892966
1.1893135
1.1893399
1.1893775
1.1894296
1.1895007
1.189598
1.1897315
1.1899151
1.1901557
1.1904638
1.1908508
1.1913219
1.1918611
1.1924451
1.1930715
1.1937013
1.1943162
1.1949061
1.1954478
1.1959491
1.196395
1.1967905
1.1971374
1.1974438
1.1977099
1.1979466
1.1981515
1.1983337
1.1984962
1.1986487
1.1987886
1.1989216
1.1990446
1.1991544
1.1992561
1.1993485
1.1994387
1.1995252
1.1996075
1.1996845
1.1997535
1.1998174
1.1998716
1.1999246
1.1999603
1.199989
1.1999941
1.2000016
1.1999934
1.2000157
1.2000185
1.2000753
1.2001207
1.2002758
1.2004058
1.2006186
1.2006245
1.2008342
1.2010696
1.201374
1.1892916
1.1892924
1.1892989
1.1893134
1.1893367
1.1893703
1.1894176
1.1894838
1.1895738
1.1896944
1.1898654
1.1901003
1.1903972
1.1907708
1.1912302
1.1917581
1.1923406
1.1929634
1.1935816
1.1941911
1.1947828
1.1953288
1.1958404
1.196297
1.196704
1.1970623
1.1973796
1.1976559
1.1979019
1.198116
1.1983072
1.1984784
1.1986392
1.1987869
1.1989265
1.1990549
1.1991691
1.1992747
1.1993705
1.1994635
1.1995523
1.1996363
1.1997147
1.1997845
1.1998489
1.1999025
1.1999549
1.1999898
1.2000173
1.2000216
1.200028
1.2000191
1.2000402
1.200042
1.2000974
1.2001429
1.2002938
1.2004207
1.2006306
1.2006354
1.200851
1.2010725
1.2013722
1.1892982
1.1892933
1.1892956
1.1893056
1.1893237
1.1893511
1.1893912
1.1894493
1.1895318
1.1896432
1.189797
1.1900214
1.1903081
1.1906687
1.1911163
1.1916334
1.1922055
1.1928229
1.1934359
1.1940378
1.1946328
1.1951823
1.1957047
1.1961734
1.1965933
1.1969644
1.1972946
1.1975831
1.1978402
1.1980652
1.1982669
1.1984482
1.1986184
1.1987748
1.1989217
1.1990564
1.199176
1.199286
1.1993857
1.1994819
1.1995734
1.1996596
1.1997398
1.1998108
1.1998763
1.1999297
1.1999819
1.2000163
1.2000432
1.2000469
1.2000527
1.2000432
1.2000633
1.2000645
1.2001187
1.2001644
1.2003114
1.2004353
1.2006423
1.2006464
1.2008654
1.2010752
1.2013707
1.1892874
1.1892789
1.1892771
1.1892821
1.189294
1.1893143
1.1893462
1.1893953
1.189469
1.1895714
1.1897138
1.1899176
1.1901895
1.1905398
1.1909756
1.1914817
1.1920442
1.1926561
1.1932619
1.1938609
1.1944592
1.1950143
1.1955473
1.1960288
1.1964626
1.1968482
1.1971928
1.1974949
1.1977648
1.198002
1.1982153
1.1984079
1.198588
1.1987537
1.1989086
1.1990503
1.1991758
1.1992909
1.199395
1.1994948
1.1995893
1.199678
1.1997605
1.1998331
1.1998998
1.1999536
1.2000059
1.2000402
1.2000667
1.2000703
1.2000756
1.200066
1.2000852
1.200086
1.200139
1.2001851
1.2003284
1.2004495
1.2006539
1.2006575
1.2008777
1.2010777
1.2013695
1.1892652
1.189251
1.1892439
1.189243
1.1892482
1.1892605
1.1892832
1.1893215
1.1893823
1.1894696
1.1896015
1.1897954
1.1900551
1.1903951
1.1908149
1.1913107
1.1918663
1.1924674
1.1930708
1.1936706
1.1942728
1.1948356
1.1953787
1.1958731
1.1963209
1.1967215
1.1970811
1.1973975
1.1976808
1.1979308
1.1981562
1.1983602
1.1985506
1.1987259
1.1988892
1.1990382
1.1991702
1.1992907
1.1993994
1.1995031
1.1996009
1.1996924
1.1997773
1.1998518
1.1999201
1.1999746
1.2000273
1.2000618
1.2000883
1.2000919
1.2000971
1.2000875
1.2001061
1.2001067
1.2001587
1.2002052
1.2003451
1.2004634
1.2006653
1.2006689
1.2008883
1.2010801
1.2013686
1.1892302
1.1892131
1.1892009
1.1891936
1.1891912
1.1891948
1.1892073
1.1892334
1.1892795
1.1893496
1.1894729
1.1896585
1.1899092
1.1902377
1.1906423
1.1911285
1.1916806
1.1922736
1.1928741
1.1934816
1.1940869
1.1946602
1.1952113
1.1957179
1.1961789
1.1965932
1.1969672
1.1972974
1.197594
1.1978566
1.1980937
1.1983088
1.1985093
1.1986939
1.1988655
1.199022
1.1991605
1.1992867
1.1994002
1.1995077
1.1996089
1.1997034
1.1997909
1.1998677
1.1999377
1.1999931
1.2000465
1.2000815
1.2001081
1.200112
1.2001173
1.2001078
1.2001261
1.2001267
1.2001776
1.2002245
1.2003614
1.2004771
1.2006767
1.2006805
1.2008977
1.2010823
1.2013681
1.1891843
1.1891666
1.18915
1.1891362
1.1891262
1.1891211
1.1891234
1.1891373
1.1891707
1.1892332
1.1893447
1.1895119
1.1897525
1.1900719
1.1904696
1.1909513
1.1914952
1.192083
1.1926909
1.1933053
1.1939167
1.1944988
1.1950564
1.1955738
1.1960462
1.196472
1.1968587
1.1972013
1.1975098
1.1977839
1.1980318
1.1982571
1.1984668
1.1986601
1.1988396
1.1990033
1.1991483
1.19928
1.1993982
1.1995097
1.1996143
1.1997119
1.1998021
1.1998812
1.199953
1.2000097
1.2000638
1.2000994
1.2001264
1.2001308
1.2001363
1.2001272
1.2001452
1.2001459
1.200196
1.2002432
1.2003773
1.2004905
1.200688
1.2006923
1.2009063
1.2010844
1.2013679
1.1891234
1.1891012
1.1890799
1.1890614
1.1890469
1.1890377
1.1890405
1.1890647
1.1891202
1.1892164
1.1893722
1.1896064
1.1899213
1.1903108
1.1907789
1.1913227
1.1919159
1.1925298
1.1931531
1.1937706
1.1943601
1.194923
1.1954492
1.1959303
1.1963647
1.1967617
1.1971144
1.1974328
1.1977166
1.1979738
1.1982078
1.1984256
1.1986267
1.1988132
1.1989837
1.1991348
1.1992718
1.1993946
1.1995099
1.1996178
1.1997183
1.1998112
1.1998927
1.1999664
1.2000245
1.2000795
1.2001159
1.2001435
1.2001485
1.2001544
1.2001456
1.2001635
1.2001644
1.2002138
1.2002612
1.200393
1.2005038
1.2006994
1.2007043
1.2009145
1.2010864
1.201368
1.1890918
1.1890622
1.1890316
1.1890031
1.188978
1.1889582
1.1889504
1.1889659
1.1890145
1.1891039
1.189248
1.189467
1.1897769
1.1901717
1.1906392
1.1911807
1.1917788
1.1924006
1.193032
1.1936556
1.1942512
1.1948173
1.1953498
1.1958365
1.1962761
1.1966804
1.1970402
1.1973661
1.1976575
1.197922
1.1981631
1.1983876
1.1985952
1.1987879
1.1989644
1.1991211
1.1992631
1.1993902
1.199509
1.1996201
1.1997234
1.1998189
1.1999028
1.1999785
1.200038
1.200094
1.2001313
1.2001595
1.2001652
1.2001716
1.2001633
1.2001811
1.2001824
1.2002311
1.2002786
1.2004083
1.2005168
1.2007108
1.2007165
1.2009225
1.2010883
1.2013684
1.1890709
1.1890336
1.1889932
1.188954
1.1889186
1.1888907
1.1888767
1.1888817
1.1889191
1.1890029
1.189146
1.1893583
1.1896604
1.1900559
1.1905299
1.191076
1.1916811
1.1923113
1.192951
1.1935791
1.1941775
1.1947438
1.1952795
1.1957682
1.1962092
1.1966173
1.1969811
1.1973118
1.1976084
1.1978781
1.1981245
1.1983541
1.1985668
1.1987646
1.1989463
1.199108
1.1992545
1.1993855
1.1995075
1.1996216
1.1997275
1.1998255
1.1999118
1.1999894
1.2000504
1.2001074
1.2001456
1.2001746
1.2001811
1.200188
1.2001803
1.2001982
1.2001998
1.2002479
1.2002956
1.2004233
1.2005296
1.2007223
1.200729
1.2009304
1.2010902
1.2013692
1.1890183
1.1889666
1.1889168
1.1888728
1.1888375
1.1888179
1.1888187
1.1888499
1.188931
1.189072
1.1892836
1.1895845
1.1899821
1.1904672
1.1910228
1.1916358
1.1922703
1.1929131
1.1935446
1.1941432
1.194705
1.1952402
1.1957269
1.1961652
1.196574
1.1969384
1.197271
1.1975703
1.1978431
1.1980929
1.198326
1.1985425
1.1987442
1.1989302
1.1990962
1.1992467
1.1993812
1.1995061
1.1996228
1.1997311
1.1998315
1.1999199
1.1999995
1.2000619
1.20012
1.2001592
1.2001889
1.2001962
1.2002038
1.2001967
1.2002147
1.2002168
1.2002643
1.2003121
1.2004381
1.2005423
1.200734
1.2007417
1.2009382
1.2010921
1.2013704
1.199837
1.1999275
1.200009
1.2000729
1.2001319
1.2001721
1.2002027
1.2002108
1.200219
1.2002125
1.2002307
1.2002333
1.2002803
1.2003283
1.2004527
1.2005549
1.2007457
1.2007547
1.2009461
1.2010939
1.2013719
1.1935552
1.1935528
1.1925907
1.1930015
1.1932934
1.1934918
1.1936178
1.1936847
1.1937091
1.1937094
1.1921953
1.1926985
1.1931152
1.1934189
1.193626
1.1937566
1.1938272
1.193856
1.193861
1.1922873
1.1927833
1.1932091
1.1935297
1.1937469
1.1938857
1.1939633
1.1939989
1.1940099
1.1923694
1.1928617
1.1932886
1.1936192
1.1938555
1.1940086
1.1940966
1.1941404
1.1941581
1.1924455
1.1929297
1.193361
1.193708
1.1939625
1.1941308
1.1942306
1.1942834
1.1943079
1.1925201
1.1929948
1.1934417
1.1938061
1.1940758
1.1942581
1.1943695
1.1944313
1.1944626
1.1926142
1.1930912
1.1935439
1.1939183
1.1942009
1.1943959
1.1945182
1.1945886
1.194626
1.1927373
1.1932123
1.1936671
1.1940496
1.1943437
1.1945499
1.1946817
1.1947595
1.194802
1.1929282
1.1933805
1.1938271
1.1942118
1.1945125
1.1947263
1.1948649
1.1949482
1.1949946
1.1931567
1.1935892
1.1940274
1.19441
1.1947123
1.1949296
1.195072
1.1951587
1.1952075
1.1934526
1.1938575
1.1942782
1.1946504
1.1949475
1.1951632
1.1953058
1.1953934
1.1954432
1.1938126
1.1941846
1.1945796
1.1949332
1.1952185
1.1954277
1.1955672
1.1956535
1.195703
1.1942267
1.1945614
1.1949242
1.1952529
1.1955212
1.1957197
1.1958532
1.1959366
1.1959848
1.1946768
1.194972
1.1952987
1.1955991
1.1958473
1.196033
1.1961591
1.1962388
1.1962855
1.1951416
1.1953977
1.1956874
1.1959584
1.1961858
1.1963579
1.1964761
1.1965519
1.1965972
1.1956017
1.1958203
1.196074
1.1963167
1.1965243
1.1966841
1.1967959
1.1968691
1.196914
1.196038
1.1962226
1.1964431
1.1966599
1.1968502
1.1969999
1.1971072
1.1971794
1.1972252
1.1964362
1.1965915
1.1967827
1.1969772
1.1971533
1.1972963
1.1974023
1.1974765
1.197526
1.196791
1.1969211
1.1970866
1.1972614
1.1974259
1.1975643
1.1976707
1.1977477
1.1978011
1.1971038
1.197212
1.1973541
1.1975107
1.1976645
1.1977995
1.1979074
1.1979884
1.1980465
1.1973782
1.1974674
1.1975886
1.1977281
1.1978716
1.1980035
1.1981131
1.1981983
1.1982611
1.1976167
1.197689
1.197791
1.1979136
1.1980461
1.1981737
1.1982844
1.1983734
1.1984409
1.1978305
1.1978873
1.1979707
1.198076
1.1981959
1.1983175
1.1984279
1.19852
1.198592
1.198006
1.1980502
1.1981175
1.1982065
1.1983129
1.1984262
1.1985337
1.1986265
1.198701
1.1981563
1.1981884
1.19824
1.1983122
1.1984034
1.1985059
1.1986078
1.1986992
1.1987748
1.198282
1.1983022
1.1983386
1.1983935
1.1984682
1.1985573
1.1986508
1.1987383
1.1988134
1.1983882
1.198397
1.1984183
1.1984557
1.1985121
1.1985851
1.1986667
1.1987471
1.1988189
1.1984707
1.1984697
1.1984774
1.1984982
1.1985365
1.1985921
1.1986593
1.1987294
1.1987948
1.1985509
1.1985403
1.1985349
1.1985393
1.198559
1.1985958
1.1986462
1.198703
1.198759
1.1986324
1.1986127
1.1985952
1.1985847
1.1985868
1.198605
1.1986378
1.1986796
1.1987241
1.1987154
1.1986892
1.1986626
1.1986398
1.1986271
1.1986288
1.1986451
1.1986723
1.1987047
1.198799
1.1987683
1.1987344
1.1987019
1.1986772
1.1986653
1.1986677
1.198682
1.1987036
1.1988755
1.1988394
1.1987992
1.1987588
1.1987244
1.1987014
1.1986922
1.1986956
1.1987078
1.1989394
1.1988991
1.1988531
1.1988046
1.1987602
1.1987263
1.198706
1.198699
1.1987021
1.1990004
1.1989541
1.1988998
1.1988417
1.1987863
1.1987401
1.1987073
1.1986885
1.1986812
1.1990612
1.1990094
1.1989481
1.1988812
1.1988143
1.1987552
1.1987091
1.1986776
1.198659
1.1991276
1.1990721
1.1990046
1.1989289
1.1988521
1.1987818
1.1987239
1.1986807
1.1986514
1.1991955
1.1991368
1.1990646
1.1989829
1.1988985
1.1988191
1.1987515
1.1986989
1.1986611
1.1992628
1.1992021
1.1991267
1.1990399
1.1989484
1.1988608
1.1987846
1.1987235
1.1986778
1.1993321
1.1992701
1.1991919
1.1991001
1.199002
1.1989064
1.1988213
1.1987514
1.1986978
1.1994002
1.1993383
1.1992593
1.1991651
1.199062
1.1989594
1.1988662
1.1987881
1.1987266
1.1994726
1.199412
1.1993335
1.1992383
1.1991318
1.1990238
1.1989237
1.198838
1.1987692
1.1995323
1.1994741
1.199398
1.1993043
1.1991973
1.1990858
1.19898
1.1988876
1.198812
1.1995895
1.199535
1.1994629
1.1993729
1.1992681
1.1991559
1.1990465
1.1989487
1.1988671
1.1996221
1.1995719
1.1995052
1.199421
1.1993213
1.1992122
1.1991028
1.1990021
1.1989159
1.1996574
1.1996119
1.1995513
1.1994745
1.1993823
1.1992794
1.1991733
1.1990724
1.1989835
1.1996727
1.1996317
1.1995772
1.199508
1.1994244
1.1993298
1.1992302
1.199133
1.1990443
1.1997222
1.1996859
1.1996379
1.1995768
1.1995029
1.1994183
1.1993279
1.1992374
1.1991526
1.1997475
1.1997156
1.1996735
1.1996202
1.1995558
1.1994822
1.1994028
1.1993222
1.199245
1.19982
1.1997912
1.1997547
1.1997095
1.1996555
1.1995939
1.1995272
1.1994588
1.199392
1.1998812
1.1998551
1.1998227
1.1997834
1.1997369
1.1996842
1.1996274
1.1995695
1.1995129
1.2000861
1.2000672
1.2000429
1.2000123
1.1999759
1.1999343
1.1998893
1.1998427
1.1997965
1.2002512
1.2002363
1.2002171
1.200193
1.2001642
1.2001314
1.2000958
1.200059
1.2000227
1.2004939
1.2004807
1.2004647
1.2004454
1.2004226
1.2003968
1.200369
1.2003401
1.2003115
1.2005064
1.200494
1.2004778
1.2004579
1.2004343
1.200408
1.2003805
1.2003534
1.2003278
1.2006835
1.2006762
1.2006689
1.200661
1.2006521
1.2006418
1.2006302
1.2006174
1.200604
1.201036
1.2010336
1.2010303
1.2010259
1.2010203
1.2010136
1.2010057
1.2009969
1.2009877
1.2014005
1.2014034
1.2014064
1.2014093
1.2014118
1.2014134
1.2014139
1.2014131
1.2014112
1.193527
1.1934958
1.1934727
1.1934754
1.1935404
1.1937481
1.193689
1.1936637
1.1936461
1.1936524
1.1937163
1.1939144
1.1938472
1.1938281
1.193816
1.1938257
1.1938883
1.1940761
1.1940028
1.1939898
1.1939827
1.1939952
1.1940557
1.1942327
1.1941575
1.1941503
1.1941476
1.1941621
1.1942199
1.1943855
1.1943137
1.1943115
1.1943125
1.1943282
1.1943826
1.1945365
1.1944741
1.1944762
1.19448
1.1944962
1.1945468
1.1946887
1.1946423
1.1946477
1.1946534
1.1946694
1.1947157
1.1948458
1.1948221
1.19483
1.1948369
1.1948521
1.194894
1.1950124
1.1950174
1.1950269
1.1950343
1.1950482
1.1950855
1.1951934
1.1952321
1.1952425
1.1952498
1.1952622
1.1952954
1.1953934
1.1954684
1.195479
1.1954859
1.1954968
1.1955262
1.1956159
1.1957283
1.1957388
1.1957454
1.1957552
1.1957816
1.1958639
1.1960095
1.1960198
1.196026
1.1960349
1.1960591
1.196136
1.1963098
1.1963205
1.1963272
1.1963364
1.1963598
1.196432
1.1966212
1.1966323
1.1966396
1.196649
1.1966711
1.1967377
1.196939
1.196952
1.1969615
1.1969734
1.1969983
1.1970709
1.1972524
1.1972686
1.1972818
1.1972984
1.1973307
1.1974225
1.1975582
1.1975807
1.1976014
1.1976264
1.1976667
1.1977524
1.1978378
1.1978653
1.1978905
1.1979177
1.1979546
1.1980177
1.1980885
1.198122
1.1981532
1.1981863
1.1982292
1.1983035
1.1983078
1.1983459
1.1983806
1.1984154
1.198457
1.198522
1.198493
1.1985371
1.1985785
1.1986211
1.1986742
1.1987605
1.1986493
1.1986992
1.1987464
1.1987945
1.1988519
1.1989448
1.1987616
1.1988157
1.1988672
1.1989195
1.1989813
1.1990778
1.1988382
1.1988962
1.1989526
1.1990113
1.1990825
1.1991946
1.1988784
1.1989399
1.1990012
1.1990666
1.1991476
1.1992753
1.1988832
1.1989461
1.1990107
1.1990812
1.19917
1.1993104
1.1988556
1.1989172
1.1989823
1.1990552
1.1991492
1.1993
1.1988132
1.1988702
1.1989324
1.1990044
1.1991002
1.1992587
1.1987694
1.198819
1.1988754
1.1989434
1.1990375
1.1991994
1.19874
1.1987809
1.1988296
1.1988911
1.1989803
1.1991414
1.1987297
1.1987622
1.1988032
1.1988579
1.1989412
1.1990984
1.1987258
1.1987507
1.1987845
1.1988324
1.1989095
1.199062
1.1987123
1.1987299
1.1987568
1.1987979
1.1988683
1.1990138
1.1986822
1.1986908
1.1987088
1.1987407
1.1988011
1.1989357
1.1986496
1.198648
1.1986553
1.1986759
1.1987225
1.1988372
1.1986319
1.1986198
1.1986159
1.1986234
1.1986536
1.1987441
1.1986334
1.1986129
1.1985996
1.1985965
1.1986122
1.1986779
1.1986427
1.1986142
1.1985924
1.198579
1.1985819
1.1986282
1.1986554
1.1986193
1.1985894
1.1985671
1.1985564
1.1985837
1.1986766
1.1986325
1.1985936
1.1985606
1.198538
1.1985407
1.198712
1.1986601
1.1986126
1.1985692
1.1985309
1.1985146
1.1987478
1.1986882
1.1986319
1.1985782
1.1985269
1.198491
1.1987963
1.1987291
1.1986644
1.1986005
1.1985364
1.1984814
1.1988394
1.198765
1.1986913
1.1986164
1.1985386
1.1984685
1.1989026
1.1988219
1.1987401
1.1986545
1.1985629
1.1984755
1.1989607
1.1988744
1.198784
1.1986868
1.1985793
1.1984727
1.19907
1.1989807
1.1988824
1.1987706
1.1986423
1.1985122
1.1991678
1.1990814
1.1989821
1.1988628
1.198715
1.1985532
1.1993233
1.1992434
1.199147
1.1990229
1.198856
1.198659
1.1994546
1.1993861
1.1993014
1.1991884
1.1990188
1.1987841
1.1997479
1.1996887
1.199614
1.1995084
1.1993422
1.199095
1.1999846
1.1999386
1.1998799
1.1997987
1.1996595
1.1994067
1.200281
1.200243
1.2001943
1.2001227
1.2000026
1.1997838
1.2003023
1.2002729
1.2002368
1.2001878
1.2001009
1.1999158
1.200589
1.200569
1.2005426
1.2005021
1.2004307
1.2002839
1.2009776
1.2009641
1.2009465
1.2009208
1.2008752
1.2007799
1.2014088
1.2014041
1.2013967
1.2013845
1.2013611
1.2013054
)
;

boundaryField
{
    Side1
    {
        type            empty;
    }
    Inlet
    {
        type            calculated;
        value           nonuniform List<scalar> 0();
    }
    Side2
    {
        type            empty;
    }
    Outlet
    {
        type            calculated;
        value           nonuniform List<scalar> 
35
(
1.2022513
1.2022473
1.2022429
1.2022383
1.2022335
1.2022286
1.2022235
1.2022183
1.202213
1.2022076
1.2022022
1.2021966
1.2021911
1.2021855
1.20218
1.2021744
1.2021688
1.2021632
1.2021576
1.202152
1.2022542
1.2022565
1.2022589
1.2022613
1.2022632
1.2022641
1.2022637
1.2022621
1.2022597
1.2022563
1.2022512
1.2022437
1.2022312
1.2022076
1.2021518
)
;
    }
    Botwall
    {
        type            calculated;
        value           nonuniform List<scalar> 
59
(
1.1937481
1.1939144
1.1940761
1.1942327
1.1943855
1.1945365
1.1946887
1.1948458
1.1950124
1.1951934
1.1953934
1.1956159
1.1958639
1.196136
1.196432
1.1967377
1.1970709
1.1974225
1.1977524
1.1980177
1.1983035
1.198522
1.1987605
1.1989448
1.1990778
1.1991946
1.1992753
1.1993104
1.1993
1.1992587
1.1991994
1.1991414
1.1990984
1.199062
1.1990138
1.1989357
1.1988372
1.1987441
1.1986779
1.1986282
1.1985837
1.1985407
1.1985146
1.198491
1.1984814
1.1984685
1.1984755
1.1984727
1.1985122
1.1985532
1.198659
1.1987841
1.199095
1.1994067
1.1997838
1.1999158
1.2002839
1.2007799
1.2013054
)
;
    }
    Cyli
    {
        type            calculated;
        value           nonuniform List<scalar> 0();
    }
    procBoundary1to0
    {
        type            processor;
        value           nonuniform List<scalar> 
44
(
1.1913205
1.192082
1.1905631
1.1905631
1.1897996
1.1897996
1.1895047
1.1894043
1.1894043
1.1893292
1.1893292
1.1892833
1.1892742
1.1892791
1.1892791
1.1893092
1.1893176
1.1893078
1.1892927
1.1892627
1.189143
1.1892193
1.189143
1.1891166
1.1891016
1.1890658
1.1890658
1.1933922
1.1933897
1.1924541
1.1928584
1.1931423
1.1933373
1.1934643
1.193532
1.193532
1.192082
1.192082
1.19336
1.1933242
1.1932967
1.1932968
1.1933634
1.1935808
)
;
    }
    procBoundary1to3
    {
        type            processor;
        value           nonuniform List<scalar> 
62
(
1.188966
1.1889166
1.1888667
1.1888247
1.1887925
1.1887747
1.1887779
1.1888097
1.1888897
1.1890339
1.189254
1.1895683
1.1899771
1.190475
1.1910377
1.1916539
1.1922884
1.1929294
1.193553
1.1941467
1.1947013
1.1952306
1.1957106
1.1961432
1.19655
1.1969122
1.197244
1.1975436
1.1978175
1.1980689
1.1983038
1.1985227
1.1987272
1.1989166
1.1990861
1.19924
1.1993776
1.1995051
1.199624
1.1997345
1.1997345
1.1998423
1.1999348
1.200018
1.2000833
1.2001432
1.2001845
1.2002159
1.2002249
1.2002337
1.2002279
1.2002462
1.2002494
1.200296
1.2003442
1.2004669
1.2005673
1.2007575
1.2007677
1.2009541
1.2010958
1.2013737
)
;
    }
}


// ************************************************************************* //
