/*--------------------------------*- C++ -*----------------------------------*\
| =========                 |                                                 |
| \\      /  F ield         | OpenFOAM: The Open Source CFD Toolbox           |
|  \\    /   O peration     | Version:  2406                                  |
|   \\  /    A nd           | Website:  www.openfoam.com                      |
|    \\/     M anipulation  |                                                 |
\*---------------------------------------------------------------------------*/
FoamFile
{
    version     2.0;
    format      ascii;
    arch        "LSB;label=32;scalar=64";
    class       volScalarField;
    location    "0.09";
    object      T;
}
// * * * * * * * * * * * * * * * * * * * * * * * * * * * * * * * * * * * * * //

dimensions      [0 0 0 1 0 0 0];

internalField   nonuniform List<scalar> 
2065
(
293.06216
293.03206
293.00594
292.98431
292.96786
292.95727
292.95342
292.9572
292.96686
292.9848
293.00989
293.0407
293.07655
293.11514
293.15529
293.19511
293.23329
293.26871
293.30051
293.32808
293.35128
293.37063
293.38609
293.39908
293.41034
293.41998
293.42759
293.43305
293.43535
293.434
293.4296
293.42327
293.41618
293.40892
293.40008
293.38885
293.37473
293.35863
293.34105
293.3207
293.29783
293.27202
293.24477
293.21462
293.18478
293.15352
293.12603
293.09651
293.07339
293.04589
293.02997
293.01171
293.00793
292.98721
292.97677
292.93947
292.97228
292.944
293.23281
293.19013
293.15378
293.12323
293.09802
293.07866
293.06624
293.06173
293.06445
293.07548
293.09373
293.11833
293.14821
293.18048
293.21442
293.24784
293.27963
293.30878
293.33446
293.35627
293.37422
293.38883
293.40023
293.4097
293.41774
293.42434
293.42917
293.43182
293.43157
293.42807
293.42198
293.41445
293.40629
293.39783
293.38766
293.37516
293.36017
293.34347
293.32552
293.30503
293.28238
293.25707
293.23053
293.20134
293.17257
293.14247
293.11605
293.08769
293.06562
293.03949
293.02458
293.00737
293.00438
292.98485
292.97576
292.93898
292.97181
292.94499
293.40126
293.35742
293.31487
293.27513
293.23922
293.20801
293.18262
293.16396
293.15322
293.15038
293.15539
293.16835
293.18764
293.21177
293.23828
293.26648
293.29398
293.3199
293.34328
293.36346
293.3801
293.3934
293.40381
293.4117
293.41795
293.42305
293.42686
293.42912
293.42914
293.42658
293.42114
293.41356
293.40495
293.3958
293.38621
293.37485
293.36129
293.34562
293.32853
293.31043
293.29002
293.26775
293.24306
293.2173
293.18909
293.16134
293.13231
293.10687
293.07959
293.05848
293.03363
293.01965
293.00341
293.00115
292.98276
292.97491
292.93885
292.97144
292.94606
293.47004
293.44339
293.41321
293.38037
293.34688
293.31405
293.28335
293.25669
293.23575
293.22199
293.21597
293.21775
293.22744
293.24313
293.26326
293.28575
293.30938
293.33231
293.35348
293.37212
293.38769
293.39999
293.40933
293.41612
293.42099
293.42433
293.42676
293.42804
293.42784
293.42548
293.42077
293.4136
293.40469
293.39511
293.38505
293.37444
293.36205
293.34765
293.33152
293.31422
293.29612
293.27595
293.25418
293.23017
293.20518
293.1779
293.15108
293.12303
293.09848
293.07218
293.05193
293.02827
293.01515
292.99982
292.99823
292.98091
292.9742
292.93912
292.97117
292.94718
293.47757
293.45995
293.439
293.4149
293.38848
293.36087
293.33355
293.30842
293.28758
293.27278
293.26512
293.26517
293.2728
293.28623
293.30388
293.32372
293.34426
293.36395
293.38162
293.39656
293.4084
293.41709
293.42304
293.4267
293.42884
293.42959
293.42954
293.42843
293.42594
293.42136
293.41465
293.40593
293.39583
293.38535
293.37446
293.36294
293.3497
293.33466
293.31824
293.30088
293.28288
293.26305
293.24182
293.21848
293.19423
293.16779
293.14181
293.11463
293.09085
293.06545
293.04597
293.02336
293.01107
292.99656
292.99559
292.97928
292.97361
292.93978
292.97098
292.94834
293.49353
293.48251
293.46926
293.45323
293.43448
293.41341
293.3908
293.36776
293.34571
293.32666
293.31243
293.30446
293.30373
293.31007
293.32206
293.33808
293.35617
293.37467
293.392
293.40697
293.41887
293.42752
293.43302
293.43593
293.43675
293.43631
293.43462
293.43219
293.42878
293.42407
293.41738
293.40882
293.39866
293.38747
293.37616
293.36449
293.35217
293.33824
293.32273
293.30614
293.28879
293.27095
293.25147
293.23075
293.20803
293.18444
293.15875
293.1335
293.10707
293.08397
293.05935
293.04056
293.0189
293.00736
292.99362
292.99322
292.97785
292.97311
292.94084
292.97087
292.94954
293.50357
293.49669
293.48801
293.47698
293.46381
293.44854
293.43138
293.41287
293.39379
293.37524
293.35884
293.34631
293.33919
293.33865
293.34449
293.35562
293.37065
293.38756
293.40457
293.41994
293.43249
293.44156
293.44716
293.44958
293.44954
293.44756
293.44451
293.44038
293.43557
293.42986
293.42295
293.41422
293.4039
293.39237
293.38014
293.368
293.35561
293.34257
293.32806
293.31218
293.29546
293.27814
293.26044
293.24128
293.22102
293.19884
293.1758
293.15075
293.12611
293.10032
293.0778
293.05386
293.03567
293.01485
293.00402
292.99097
292.99109
292.97659
292.9727
292.94223
292.97083
292.95078
293.50773
293.50192
293.49454
293.48538
293.47452
293.46198
293.44797
293.43288
293.41734
293.40227
293.38896
293.37883
293.37321
293.37348
293.3795
293.39032
293.40502
293.42116
293.43702
293.45053
293.4606
293.46672
293.46915
293.46836
293.46521
293.46029
293.4545
293.4478
293.44051
293.43242
293.42328
293.41254
293.40048
293.38759
293.3743
293.36132
293.34818
293.33446
293.31943
293.30321
293.28635
293.26902
293.2514
293.23248
293.2126
293.19086
293.16826
293.14373
293.11959
293.09435
293.0723
293.04896
293.03127
293.01121
293.00102
292.98861
292.98919
292.9755
292.97236
292.94385
292.97086
292.95205
293.5141
293.50927
293.50317
293.49571
293.4869
293.47682
293.46565
293.45375
293.4416
293.42994
293.4198
293.41244
293.40903
293.41052
293.41701
293.42783
293.44273
293.45854
293.47365
293.48532
293.49272
293.49566
293.49469
293.49044
293.48394
293.47584
293.46706
293.45759
293.44766
293.43708
293.42564
293.41284
293.39902
293.38471
293.3703
293.35639
293.34246
293.32804
293.31248
293.2959
293.27885
293.26143
293.24382
293.22503
293.20543
293.18402
293.16177
293.13765
293.11391
293.0891
293.06743
293.0446
293.02735
293.00794
292.99834
292.98652
292.98751
292.97457
292.97211
292.94557
292.97096
292.95334
293.52528
293.52239
293.51859
293.5138
293.50799
293.50119
293.49347
293.48501
293.47613
293.46728
293.45902
293.45211
293.44777
293.44687
293.45012
293.45776
293.46932
293.4839
293.49967
293.51466
293.52451
293.52915
293.52874
293.52416
293.51624
293.50615
293.49463
293.48262
293.47015
293.45739
293.44418
293.43032
293.41539
293.39974
293.38392
293.36827
293.35333
293.33852
293.32336
293.30721
293.29022
293.2729
293.2553
293.2376
293.21885
293.19944
293.17826
293.15624
293.13244
293.10899
293.08453
293.06316
293.04076
293.02387
293.00503
292.99595
292.98467
292.98603
292.97378
292.97193
292.94723
292.97112
292.95466
293.53397
293.53193
293.52921
293.52577
293.52163
293.5168
293.51138
293.50552
293.49952
293.49378
293.48887
293.48523
293.48405
293.48598
293.49155
293.50098
293.51368
293.52849
293.54405
293.55903
293.56715
293.56906
293.56526
293.55703
293.54532
293.53151
293.5164
293.50097
293.48533
293.46961
293.45365
293.43729
293.42016
293.4026
293.38517
293.36817
293.35207
293.33629
293.32032
293.30354
293.28606
293.26838
293.25052
293.23264
293.21384
293.19451
293.17346
293.1516
293.12803
293.10479
293.08059
293.05944
293.03739
293.0208
293.00246
292.99385
292.98306
292.98473
292.97314
292.97185
292.94874
292.97135
292.95599
293.54311
293.54193
293.5403
293.5382
293.53564
293.53267
293.5294
293.52597
293.52265
293.5198
293.51793
293.51765
293.5197
293.52467
293.53302
293.54477
293.55913
293.57479
293.59049
293.60489
293.61129
293.61061
293.60363
293.59185
293.57643
293.55894
293.54023
293.52135
293.50248
293.48376
293.46504
293.44616
293.42681
293.40731
293.3882
293.36975
293.35241
293.33558
293.31874
293.30127
293.28325
293.26514
293.24693
293.2288
293.20989
293.19053
293.16955
293.14776
293.12434
293.10123
293.07722
293.05624
293.03448
293.01812
293.00021
292.992
292.98166
292.98362
292.97264
292.97185
292.95006
292.97164
292.95733
293.5519
293.55161
293.55101
293.55012
293.54898
293.54765
293.54624
293.54493
293.54401
293.54377
293.54468
293.54743
293.55276
293.56087
293.57234
293.58683
293.60332
293.6204
293.63657
293.65005
293.65455
293.65154
293.64171
293.62671
293.60784
293.58689
293.56478
293.54261
293.52064
293.49903
293.47764
293.45634
293.43484
293.41342
293.39262
293.37268
293.35406
293.33613
293.31838
293.30019
293.28159
293.26299
293.24439
293.22594
293.20685
293.18741
293.16642
293.14465
293.1213
293.09827
293.07439
293.0535
293.03197
293.0158
292.99826
292.99039
292.98046
292.98266
292.97225
292.97195
292.95121
292.972
292.95868
293.55994
293.56048
293.56081
293.56095
293.56096
293.56092
293.56099
293.56137
293.56237
293.56437
293.56774
293.5732
293.58145
293.59284
293.60764
293.62525
293.64428
293.6633
293.68017
293.69193
293.69483
293.6898
293.67756
293.65976
293.63785
293.61384
293.58867
293.56353
293.53875
293.51451
293.49069
293.46716
293.44365
293.42042
293.39799
293.3766
293.35668
293.33766
293.31901
293.30008
293.28088
293.26176
293.24272
293.22392
293.20462
293.18502
293.16398
293.14217
293.11885
293.09584
293.07204
293.0512
293.02985
293.01381
292.99658
292.989
292.97944
292.98185
292.97199
292.97214
292.95223
292.9724
292.96003
293.56745
293.56867
293.56972
293.57063
293.57147
293.57235
293.57344
293.57501
293.57737
293.58098
293.58632
293.59417
293.60521
293.61981
293.63799
293.65904
293.68073
293.70186
293.71864
293.72894
293.73044
293.72372
293.70951
293.6894
293.66497
293.63841
293.61069
293.58303
293.55586
293.52936
293.50344
293.47796
293.45268
293.42784
293.4039
293.38113
293.35998
293.33989
293.32036
293.30072
293.28092
293.26127
293.24178
293.2226
293.20306
293.18326
293.16213
293.14025
293.11692
293.09389
293.07012
293.04929
293.02807
293.01212
292.99515
292.98781
292.97859
292.98118
292.97184
292.97242
292.95318
292.97287
292.96139
293.57665
293.5782
293.57962
293.58096
293.58236
293.58402
293.58623
293.58938
293.59403
293.60086
293.6107
293.6244
293.64213
293.66335
293.68779
293.71207
293.73385
293.75034
293.75953
293.75979
293.7517
293.736
293.71417
293.68789
293.65944
293.62977
293.60018
293.57113
293.54285
293.51524
293.48819
293.46144
293.43521
293.40996
293.38595
293.36365
293.34257
293.32221
293.30188
293.28151
293.26136
293.24142
293.22186
293.20205
293.18204
293.1608
293.13881
293.11543
293.09236
293.06858
293.04772
293.0266
293.01071
292.99396
292.98681
292.9779
292.98064
292.97179
292.97277
292.95408
292.97339
292.96275
293.58528
293.58712
293.58881
293.5904
293.59199
293.59381
293.59617
293.59961
293.60479
293.61258
293.62408
293.64012
293.6606
293.68465
293.71101
293.73644
293.75817
293.77386
293.7819
293.78098
293.77193
293.75538
293.73263
293.70536
293.67586
293.64502
293.6142
293.5839
293.55438
293.52557
293.49735
293.4695
293.44217
293.41584
293.39075
293.36744
293.34546
293.32435
293.30341
293.28251
293.26188
293.2415
293.22157
293.2015
293.18125
293.15989
293.13779
293.11435
293.0912
293.06739
293.04648
293.02542
293.00955
292.99298
292.98598
292.97735
292.9802
292.97185
292.97319
292.95497
292.97396
292.96411
293.59622
293.59818
293.59994
293.60154
293.60307
293.60477
293.60696
293.61022
293.61546
293.62376
293.63642
293.65418
293.67653
293.70184
293.72818
293.75285
293.77308
293.78706
293.79347
293.79162
293.78248
293.76602
293.74341
293.7163
293.6868
293.65572
293.62449
293.59364
293.5635
293.53402
293.50509
293.47651
293.44842
293.42126
293.39531
293.37114
293.34838
293.32661
293.30512
293.28376
293.2627
293.24192
293.22163
293.20131
293.18082
293.15934
293.13712
293.11359
293.09036
293.0665
293.04551
293.02448
293.00862
292.9922
292.9853
292.97693
292.97987
292.97201
292.97368
292.95587
292.97456
292.96548
293.61511
293.61664
293.61787
293.61882
293.61972
293.621
293.62353
293.62831
293.63674
293.64988
293.66804
293.69002
293.71381
293.73725
293.75852
293.77554
293.78736
293.79292
293.79017
293.78165
293.76665
293.74554
293.71994
293.69163
293.66138
293.63064
293.60002
293.5699
293.5403
293.51115
293.48224
293.45372
293.42602
293.39943
293.37458
293.35118
293.32885
293.30691
293.28514
293.2637
293.24257
293.22196
293.20139
293.18068
293.15907
293.13674
293.11312
293.0898
293.06587
293.04479
293.02378
293.0079
292.9916
292.98477
292.97663
292.97964
292.97227
292.97422
292.95678
292.97521
292.96684
293.24336
293.22247
293.20168
293.18075
293.15904
293.13659
293.1129
293.08947
293.06547
293.04429
293.02327
293.00735
292.99115
292.98435
292.97645
292.9795
292.97262
292.9748
292.9577
292.97589
292.9682
292.24464
292.21672
292.74715
292.6144
292.50619
292.42089
292.3557
292.30741
292.27233
292.24679
292.88037
292.73969
292.61537
292.51432
292.43547
292.37581
292.33187
292.29996
292.27667
292.86527
292.73525
292.61894
292.52429
292.45137
292.39672
292.35672
292.32771
292.30649
292.85391
292.73385
292.62539
292.53703
292.46924
292.41887
292.38228
292.35585
292.3365
292.84697
292.73645
292.63548
292.55292
292.48953
292.44276
292.40901
292.38476
292.36704
292.84558
292.7439
292.64997
292.57227
292.5126
292.46876
292.43733
292.41486
292.39852
292.85042
292.75667
292.66885
292.59544
292.53885
292.49734
292.46771
292.44663
292.4314
292.86157
292.77514
292.6927
292.62296
292.56878
292.52897
292.50062
292.48055
292.46615
292.87874
292.79919
292.72179
292.65515
292.60275
292.56405
292.5365
292.51708
292.50326
292.90309
292.8296
292.75649
292.6923
292.64107
292.60291
292.5757
292.55658
292.54307
292.93435
292.8662
292.79672
292.73439
292.68379
292.6457
292.61842
292.5993
292.58588
292.97089
292.90769
292.8416
292.78085
292.73056
292.6922
292.66456
292.64515
292.63161
293.01194
292.95318
292.89023
292.83092
292.78078
292.74197
292.71375
292.6939
292.6801
293.0557
293.0012
292.94138
292.88355
292.83357
292.79424
292.76533
292.74488
292.73065
293.10096
293.05058
292.99392
292.93769
292.88798
292.84818
292.81855
292.79746
292.78274
293.14601
293.09981
293.04652
292.99215
292.94292
292.90274
292.8724
292.85059
292.8353
293.18948
293.14754
293.0979
293.0458
292.99738
292.95703
292.9261
292.90364
292.88781
293.23019
293.1926
293.14693
293.09752
293.05028
293.00994
292.97838
292.9551
292.93844
293.26723
293.23404
293.19263
293.14637
293.1007
293.06058
293.02845
293.0043
292.98676
293.2999
293.27115
293.23427
293.19165
293.14805
293.10849
293.07593
293.05088
293.03233
293.32786
293.30343
293.27121
293.23264
293.19166
293.15313
293.12044
293.0947
293.07536
293.35163
293.33132
293.30377
293.26956
293.23173
293.19476
293.16235
293.13615
293.11607
293.37103
293.35458
293.33161
293.30198
293.26778
293.2329
293.20114
293.17468
293.15393
293.38743
293.37448
293.3558
293.33076
293.30053
293.26831
293.23777
293.21148
293.19035
293.40182
293.39212
293.37754
293.35708
293.33117
293.3022
293.27356
293.24803
293.22695
293.41443
293.40783
293.39723
293.38138
293.36008
293.33495
293.3089
293.28473
293.26413
293.42476
293.42106
293.41427
293.40301
293.38659
293.36587
293.34316
293.32111
293.30161
293.43287
293.43188
293.42866
293.4218
293.41027
293.3943
293.37556
293.35638
293.33869
293.4376
293.43912
293.43925
293.43658
293.42986
293.4188
293.40447
293.38878
293.37359
293.43837
293.44206
293.44515
293.44622
293.44397
293.43769
293.42788
293.41604
293.40381
293.43561
293.44103
293.44643
293.45067
293.45222
293.45014
293.44452
293.4364
293.42722
293.4305
293.43724
293.44452
293.45118
293.45578
293.45715
293.45507
293.45022
293.44379
293.42446
293.43236
293.44121
293.4499
293.457
293.46123
293.46211
293.46004
293.456
293.41835
293.42747
293.43793
293.4487
293.45828
293.46529
293.469
293.46959
293.46786
293.41079
293.42128
293.43359
293.44671
293.45909
293.46919
293.47605
293.47962
293.48052
293.40081
293.41261
293.4267
293.44213
293.45735
293.47065
293.48084
293.48761
293.49136
293.38763
293.40041
293.41593
293.43332
293.45096
293.46705
293.4802
293.48988
293.4963
293.37221
293.38574
293.40238
293.42129
293.44088
293.4592
293.47472
293.48672
293.49529
293.35508
293.36913
293.38661
293.4068
293.42809
293.44847
293.46616
293.48028
293.49078
293.335
293.34939
293.36756
293.38891
293.41185
293.43423
293.45413
293.47043
293.48293
293.31206
293.32643
293.34483
293.36685
293.39101
293.41513
293.43708
293.45548
293.46996
293.28591
293.29997
293.31825
293.34053
293.36553
293.39101
293.41471
293.43503
293.45134
293.25805
293.27151
293.28921
293.31117
293.33636
293.36274
293.38784
293.40983
293.42787
293.22704
293.23961
293.25633
293.2774
293.30211
293.32867
293.35466
293.37799
293.39755
293.1962
293.20772
293.22313
293.24278
293.26626
293.29212
293.31818
293.34226
293.36295
293.16385
293.17421
293.18812
293.20601
293.22768
293.2521
293.27742
293.3016
293.32297
293.13534
293.14459
293.15704
293.1731
293.19272
293.21514
293.23891
293.26227
293.28367
293.10469
293.11277
293.12364
293.1377
293.15498
293.17497
293.19657
293.21831
293.23879
293.08056
293.08755
293.09694
293.10907
293.12398
293.1413
293.1602
293.17955
293.19818
293.0518
293.05754
293.0653
293.0754
293.08787
293.10243
293.11842
293.13499
293.15123
293.0349
293.03963
293.04601
293.05429
293.06454
293.07652
293.08976
293.10354
293.11716
293.0157
293.01952
293.02462
293.03121
293.03934
293.04888
293.05946
293.07062
293.08177
293.01119
293.01425
293.01835
293.02364
293.03017
293.03782
293.04631
293.0552
293.06406
292.98941
292.99142
292.99415
292.99774
293.00228
293.00777
293.01401
293.02073
293.02757
292.97783
292.97875
292.98001
292.9817
292.98399
292.98695
292.99059
292.99472
292.99911
292.94016
292.94089
292.94199
292.94353
292.94555
292.9481
292.95109
292.95445
292.95795
292.97275
292.97321
292.97387
292.9748
292.97606
292.97766
292.97959
292.98177
292.98407
292.9433
292.94276
292.94215
292.94157
292.94111
292.9409
292.941
292.94138
292.94197
292.19342
292.17047
292.14723
292.12104
292.08531
292.02088
292.22535
292.20414
292.18254
292.15808
292.12455
292.06372
292.25701
292.23746
292.21746
292.19471
292.1634
292.10627
292.28849
292.27052
292.25206
292.23099
292.20189
292.14852
292.32002
292.30351
292.28651
292.26708
292.2402
292.19061
292.35191
292.33672
292.3211
292.30324
292.27855
292.2327
292.38456
292.37054
292.35617
292.33979
292.3172
292.27503
292.4184
292.4054
292.39215
292.37715
292.35656
292.31789
292.45392
292.44174
292.42946
292.41569
292.39694
292.36159
292.49158
292.48006
292.46859
292.45592
292.43884
292.40647
292.53175
292.5207
292.50986
292.49808
292.48245
292.4528
292.57475
292.56401
292.55367
292.54264
292.52825
292.50087
292.62049
292.6099
292.59985
292.58934
292.57592
292.55057
292.66888
292.65834
292.64851
292.63842
292.62579
292.60202
292.71918
292.70853
292.69868
292.68871
292.6765
292.65409
292.77098
292.7602
292.75034
292.74054
292.72886
292.70799
292.82314
292.81209
292.80202
292.79203
292.78013
292.7581
292.8753
292.86403
292.85373
292.84338
292.83049
292.80459
292.92518
292.91316
292.90194
292.89041
292.87629
292.85268
292.97278
292.96017
292.94853
292.93702
292.92416
292.90634
293.01743
293.00396
292.99143
292.979
292.96501
292.94461
293.0598
293.04585
293.03306
293.02076
293.00756
292.98973
293.09976
293.08502
293.07128
293.0577
293.04225
293.01961
293.13683
293.12126
293.10664
293.09218
293.07596
293.05186
293.1727
293.15647
293.14112
293.12591
293.10884
293.08392
293.20898
293.19218
293.176
293.15958
293.14054
293.11204
293.24612
293.2289
293.21188
293.19416
293.17304
293.14099
293.28407
293.26681
293.24932
293.23061
293.20778
293.1728
293.32225
293.3056
293.28823
293.26913
293.2452
293.20778
293.35895
293.34363
293.32713
293.3084
293.28413
293.24489
293.3915
293.37811
293.36315
293.34552
293.32175
293.28172
293.41743
293.4063
293.39332
293.37735
293.35482
293.31504
293.43634
293.42735
293.41632
293.4021
293.38107
293.34227
293.45065
293.44362
293.43445
293.42196
293.40251
293.36489
293.46451
293.45937
293.45201
293.44125
293.42352
293.38764
293.47952
293.47667
293.47159
293.46318
293.44795
293.41476
293.49297
293.49272
293.49031
293.48476
293.47296
293.44467
293.50045
293.50285
293.50327
293.50096
293.49325
293.47092
293.50146
293.50595
293.5087
293.50902
293.50488
293.4886
293.49878
293.50519
293.51001
293.51284
293.51175
293.50016
293.49281
293.50118
293.5081
293.51324
293.51562
293.5088
293.48177
293.49221
293.50141
293.5092
293.51456
293.5138
293.46495
293.47732
293.48867
293.49908
293.50829
293.51221
293.44322
293.45753
293.47106
293.48402
293.49645
293.50518
293.41454
293.43074
293.44636
293.46183
293.47741
293.49082
293.38137
293.39937
293.41725
293.43543
293.45437
293.47151
293.34248
293.36203
293.38192
293.40275
293.42508
293.44647
293.30389
293.32484
293.34685
293.37054
293.39679
293.42284
293.25881
293.28053
293.30447
293.33173
293.36307
293.39489
293.2169
293.23791
293.2621
293.29121
293.32734
293.36691
293.16797
293.18747
293.21104
293.24137
293.28217
293.33035
293.13133
293.14805
293.16878
293.1964
293.23775
293.29505
293.09359
293.10801
293.12623
293.15204
293.19264
293.25307
293.0734
293.08465
293.09901
293.11888
293.15292
293.2147
293.03498
293.04431
293.05627
293.07384
293.10321
293.15667
293.00395
293.01009
293.01822
293.02975
293.05073
293.09581
292.96188
292.96701
292.97368
292.98378
293.00131
293.03719
292.98664
292.98993
292.99427
293.00057
293.01172
293.03497
292.94279
292.94403
292.94588
292.94891
292.95467
292.96827
)
;

boundaryField
{
    Side1
    {
        type            empty;
    }
    Inlet
    {
        type            totalTemperature;
        gamma           1.4;
        T0              nonuniform List<scalar> 0();
        value           nonuniform List<scalar> 0();
    }
    Side2
    {
        type            empty;
    }
    Outlet
    {
        type            zeroGradient;
    }
    Botwall
    {
        type            zeroGradient;
    }
    Cyli
    {
        type            zeroGradient;
    }
    procBoundary1to0
    {
        type            processor;
        value           nonuniform List<scalar> 
44
(
293.09521
292.89869
293.28025
293.28025
293.44558
293.44558
293.49286
293.49211
293.49211
293.50231
293.50231
293.50909
293.51225
293.51783
293.51783
293.52756
293.53554
293.54389
293.55176
293.55888
293.57495
293.56559
293.57495
293.58323
293.59401
293.6133
293.6133
292.21664
292.18626
292.75641
292.61547
292.49969
292.40727
292.33603
292.28307
292.28307
292.89869
292.89869
292.16102
292.13629
292.11138
292.08351
292.04573
291.97786
)
;
    }
    procBoundary1to3
    {
        type            processor;
        value           nonuniform List<scalar> 
62
(
293.64956
293.6494
293.64878
293.64747
293.64597
293.64463
293.6448
293.64819
293.65511
293.66597
293.68061
293.69753
293.71549
293.7329
293.74892
293.76214
293.77169
293.77672
293.77572
293.76916
293.75689
293.73875
293.71606
293.69013
293.66182
293.6325
293.60288
293.57344
293.54428
293.51536
293.48654
293.45793
293.42997
293.40297
293.37763
293.35373
293.33096
293.30865
293.28656
293.26481
293.26481
293.24424
293.22311
293.20212
293.181
293.1592
293.13665
293.11287
293.08934
293.06527
293.04398
293.02293
293.00697
292.99084
292.98406
292.97636
292.97944
292.97305
292.97543
292.95864
292.9766
292.96956
)
;
    }
}


// ************************************************************************* //
