/*--------------------------------*- C++ -*----------------------------------*\
| =========                 |                                                 |
| \\      /  F ield         | OpenFOAM: The Open Source CFD Toolbox           |
|  \\    /   O peration     | Version:  2406                                  |
|   \\  /    A nd           | Website:  www.openfoam.com                      |
|    \\/     M anipulation  |                                                 |
\*---------------------------------------------------------------------------*/
FoamFile
{
    version     2.0;
    format      ascii;
    arch        "LSB;label=32;scalar=64";
    class       volScalarField;
    location    "0.019";
    object      alphat;
}
// * * * * * * * * * * * * * * * * * * * * * * * * * * * * * * * * * * * * * //

dimensions      [1 -1 -1 0 0 0 0];

internalField   nonuniform List<scalar> 
23204
(
0.0048288668
0.0048276933
0.0048260525
0.0048235421
0.0048269996
0.0048418439
0.0048401008
0.004838485
0.004837064
0.0048358663
0.00483484
0.0048339054
0.0048330174
0.0048322496
0.0048316716
0.0048313871
0.0048310384
0.0048303807
0.0048294428
0.0048282644
0.0048266491
0.0048241937
0.0048278406
0.0047071588
0.0047157118
0.0047251325
0.0047342668
0.004746476
0.0047710083
0.0048100834
0.0048444762
0.004859413
0.0048617969
0.004860482
0.0048584986
0.0048564551
0.0048544403
0.0048524683
0.0048505408
0.0048486515
0.0048467783
0.0048449032
0.0048430441
0.0048412358
0.0048395548
0.0048380718
0.0048368182
0.0048357431
0.0048347653
0.004833836
0.0048330232
0.0048323949
0.0048320594
0.0048316707
0.0048309848
0.0048300285
0.0048288458
0.0048272579
0.0048248605
0.0048287003
0.0028993119
0.0029851212
0.0030719116
0.0031605915
0.003249536
0.0033391973
0.0034285773
0.0035172949
0.0036052945
0.0036911656
0.0037748049
0.0038565595
0.0039346948
0.0040105638
0.0040841859
0.0041542284
0.0042209144
0.0042833655
0.0043383608
0.0043902379
0.0044357927
0.0044796728
0.0045168707
0.0045522545
0.0045829117
0.0046095601
0.0046319735
0.0046487145
0.0046639386
0.0046778807
0.0046887313
0.0046971523
0.0047044156
0.0047115652
0.004719752
0.0047289533
0.0047378621
0.004748917
0.0047710456
0.0048085179
0.0048440196
0.0048605643
0.004863526
0.0048622577
0.0048602073
0.0048580907
0.0048560125
0.0048539851
0.004852005
0.0048500618
0.0048481306
0.0048461931
0.0048442695
0.0048423939
0.0048406458
0.0048390991
0.0048377882
0.0048366626
0.0048356403
0.0048346686
0.0048338097
0.0048331302
0.0048327426
0.004832313
0.0048315986
0.004830624
0.0048294378
0.0048278789
0.0048255424
0.0048295783
0.0020751182
0.00204568
0.0020138601
0.0019811796
0.0019490337
0.0019186791
0.0018911906
0.0018673779
0.0018478386
0.0018328626
0.0018225577
0.001817043
0.0018163587
0.0018205888
0.0018297151
0.001843679
0.0018623312
0.0018855781
0.0019134079
0.0019456893
0.0019823499
0.0020231257
0.0020680244
0.0021170135
0.0021700357
0.0022270711
0.0022878922
0.0023521795
0.0024198858
0.0024906961
0.0025647633
0.0026414488
0.0027208525
0.0028023174
0.0028862302
0.0029721267
0.0030590936
0.0031479854
0.0032371913
0.0033274225
0.0034173085
0.0035069319
0.0035954812
0.0036823184
0.0037669533
0.003849363
0.0039286875
0.0040052225
0.0040797379
0.0041505042
0.0042180933
0.0042813439
0.004338001
0.0043903653
0.0044372248
0.004481264
0.0045186813
0.004554684
0.0045852968
0.0046125664
0.0046348141
0.0046530344
0.0046691651
0.0046824111
0.0046931172
0.0047021672
0.004709413
0.0047161439
0.0047239245
0.0047328621
0.0047415866
0.0047516615
0.0047714708
0.0048070507
0.0048434073
0.0048616324
0.0048652656
0.0048640704
0.0048619573
0.0048597675
0.0048576249
0.0048555406
0.0048535058
0.0048515058
0.0048495137
0.0048475109
0.0048455194
0.0048435744
0.0048417574
0.0048401456
0.0048387757
0.0048375982
0.0048365301
0.0048355149
0.004834609
0.0048338775
0.0048334366
0.0048329653
0.004832222
0.0048312297
0.0048300407
0.0048285126
0.0048262398
0.0048304741
0.0020616802
0.0020329134
0.0020017172
0.0019696183
0.0019380044
0.0019081252
0.0018810518
0.0018575935
0.0018383445
0.0018236135
0.0018135106
0.0018081229
0.0018074772
0.0018116802
0.0018207326
0.0018345673
0.0018530537
0.001876111
0.0019037323
0.0019357856
0.0019721839
0.0020126564
0.0020572778
0.0021059659
0.0021586635
0.0022153684
0.0022758539
0.0023398299
0.002407284
0.0024778422
0.0025517322
0.002628297
0.0027076545
0.0027892061
0.0028732932
0.0029592527
0.0030464846
0.0031355543
0.0032250985
0.0033157642
0.0034062022
0.0034966532
0.0035857847
0.0036736009
0.0037592436
0.0038424619
0.0039228801
0.0040002811
0.0040755444
0.004147218
0.0042155591
0.0042792626
0.0043376627
0.0043906188
0.0044387614
0.0044827434
0.0045213087
0.0045564254
0.0045882996
0.0046157018
0.0046390684
0.0046575014
0.0046737888
0.0046863776
0.00469784
0.0047076751
0.0047146662
0.0047208152
0.0047282505
0.0047368696
0.0047454322
0.0047546869
0.0047722971
0.004805737
0.0048426551
0.0048626062
0.0048670104
0.0048659192
0.0048637486
0.0048614858
0.0048592777
0.0048571347
0.0048550428
0.0048529831
0.0048509269
0.0048488558
0.0048467937
0.0048447771
0.0048428895
0.0048412112
0.0048397809
0.00483855
0.0048374349
0.0048363751
0.0048354213
0.0048346367
0.0048341416
0.0048336279
0.0048328556
0.0048318461
0.0048306551
0.0048291594
0.0048269526
0.0048313872
0.0020480812
0.0020200235
0.0019894995
0.0019580288
0.0019269902
0.0018976251
0.0018709971
0.0018479118
0.0018289595
0.0018144691
0.0018045651
0.0017993178
0.0017987419
0.0018029498
0.0018119462
0.0018256687
0.0018440053
0.0018668898
0.0018943086
0.0019261313
0.0019622466
0.002002414
0.002046751
0.0020951627
0.0021475746
0.0022039701
0.002264111
0.0023277696
0.0023949513
0.0024652548
0.0025389296
0.0026153596
0.0026946285
0.0027762718
0.0028604947
0.0029465127
0.003034039
0.0031232717
0.0032132485
0.0033042387
0.0033952597
0.003486397
0.0035762038
0.0036649632
0.0037516113
0.0038358004
0.0039172661
0.003995643
0.0040716211
0.0041442566
0.0042133909
0.0042775069
0.0043373723
0.0043909758
0.0044403352
0.0044843795
0.0045243423
0.0045590503
0.0045918042
0.0046195603
0.0046431993
0.004661701
0.0046779837
0.0046912326
0.0047034559
0.0047130443
0.0047194827
0.0047257972
0.0047326869
0.0047410003
0.0047493915
0.0047579727
0.0047735324
0.0048046335
0.0048417866
0.0048634766
0.004868756
0.0048678041
0.0048655824
0.0048632466
0.0048609718
0.0048587681
0.0048566163
0.0048544938
0.0048523702
0.0048502278
0.0048480922
0.0048460019
0.0048440421
0.0048422957
0.0048408036
0.0048395179
0.0048383545
0.0048372492
0.0048362465
0.0048354082
0.0048348579
0.0048343011
0.0048334996
0.0048324733
0.0048312813
0.0048298195
0.0048276811
0.004832317
0.0020343725
0.0020070431
0.0019772228
0.0019464137
0.0019159843
0.0018871657
0.001861011
0.0018383186
0.0018196726
0.0018054196
0.0017957054
0.0017905985
0.0017901081
0.0017943418
0.0018033006
0.001816931
0.0018351384
0.0018578699
0.0018851001
0.0019166926
0.0019525138
0.0019923766
0.0020364139
0.0020845516
0.0021366974
0.0021928034
0.0022526036
0.0023159598
0.0023828639
0.0024529286
0.0025263697
0.002602661
0.0026818117
0.0027635235
0.0028478139
0.0029338789
0.0030216866
0.0031110867
0.0032015059
0.0032927985
0.0033844035
0.0034760898
0.0035666619
0.0036563012
0.0037439559
0.003829209
0.0039117378
0.0039911247
0.0040678704
0.0041414411
0.0042115232
0.0042762634
0.0043371974
0.0043915401
0.0044419299
0.0044862908
0.004527453
0.004562708
0.0045951267
0.0046233871
0.0046472126
0.004666758
0.0046826697
0.0046967392
0.0047088166
0.0047176868
0.0047246118
0.0047311638
0.0047376331
0.0047452605
0.0047534758
0.0047615011
0.0047751791
0.0048037965
0.0048408327
0.0048642364
0.0048704975
0.0048697257
0.0048674604
0.0048650516
0.0048627085
0.0048604417
0.004858227
0.0048560382
0.0048538435
0.0048516266
0.0048494149
0.0048472487
0.0048452151
0.0048433993
0.004841844
0.0048405021
0.0048392892
0.0048381373
0.0048370849
0.004836192
0.0048355856
0.0048349851
0.0048341544
0.0048331118
0.0048319194
0.0048304932
0.0048284251
0.0048332627
0.0020429857
0.0020206945
0.0019940738
0.0019649663
0.0019348342
0.0019050319
0.0018767793
0.001851116
0.0018288311
0.0018105012
0.0017964859
0.0017869523
0.001781977
0.0017815707
0.0017858325
0.0017947605
0.0018083122
0.0018264088
0.0018490054
0.0018760612
0.0019074269
0.0019429553
0.001982521
0.0020262433
0.0020740927
0.0021259705
0.002181792
0.0022412554
0.0023043254
0.0023709554
0.002440804
0.0025140082
0.0025901597
0.0026691803
0.0027509176
0.0028352016
0.0029212929
0.0030093389
0.0030989013
0.0031897337
0.0032813132
0.0033734897
0.0034656508
0.0035570233
0.0036474758
0.0037361447
0.0038224789
0.0039061184
0.0039865166
0.0040641176
0.0041385828
0.0042097268
0.0042754037
0.0043371623
0.0043923633
0.0044436002
0.0044885293
0.0045304733
0.0045665918
0.0045987537
0.004627658
0.0046517162
0.0046724567
0.0046870215
0.004701673
0.0047134047
0.0047227466
0.0047303243
0.0047368679
0.0047425839
0.0047496983
0.004757692
0.0047652624
0.0047772366
0.004803279
0.0048398309
0.0048648806
0.0048722301
0.0048716846
0.0048693843
0.0048669026
0.0048644893
0.0048621565
0.0048598756
0.0048576165
0.0048553471
0.0048530523
0.0048507617
0.0048485176
0.0048464084
0.004844522
0.0048429021
0.0048415026
0.004840239
0.0048390394
0.0048379363
0.0048369881
0.0048363248
0.0048356801
0.00483482
0.0048337616
0.0048325697
0.0048311805
0.0048291846
0.0048342233
0.0020291201
0.0020071998
0.0019812529
0.0019528461
0.001923388
0.0018942147
0.0018665329
0.0018413671
0.001819496
0.0018014887
0.0017877126
0.0017783537
0.0017734993
0.0017731657
0.0017774429
0.001786331
0.0017998036
0.0018177982
0.0018402697
0.0018671576
0.0018983002
0.0019335482
0.0019728309
0.0020162314
0.0020637737
0.0021153648
0.0021708883
0.0022300129
0.0022927988
0.0023591556
0.0024287998
0.0025017695
0.0025777755
0.0026566644
0.0027383731
0.0028225904
0.0029086825
0.0029969079
0.0030866195
0.0031777964
0.0032696678
0.0033623665
0.0034549649
0.0035471529
0.0036383525
0.003728034
0.0038154217
0.0039002095
0.0039816252
0.0040601656
0.0041355104
0.0042077221
0.0042746062
0.0043371815
0.0043933526
0.0044453552
0.0044910656
0.0045334641
0.0045703153
0.0046027382
0.0046321422
0.0046563273
0.0046776785
0.0046922975
0.0047070583
0.0047188214
0.0047287308
0.0047364006
0.0047422132
0.0047475731
0.0047545282
0.0047619841
0.004769211
0.0047796936
0.0048031299
0.0048388251
0.0048654073
0.0048739486
0.0048736812
0.0048713563
0.0048688014
0.0048663157
0.0048639136
0.0048615626
0.0048592292
0.004856881
0.0048545048
0.0048521326
0.0048498084
0.0048476221
0.0048456636
0.0048439778
0.0048425193
0.0048412037
0.0048399555
0.0048388008
0.0048377965
0.0048370755
0.0048363861
0.0048354967
0.0048344228
0.0048332324
0.0048318815
0.0048299592
0.004835198
0.0020155711
0.0019940367
0.001968721
0.0019409851
0.001912182
0.0018836254
0.001856506
0.0018318326
0.001810373
0.0017926888
0.0017791523
0.0017699639
0.0017652218
0.0017649481
0.0017692228
0.0017780527
0.0017914324
0.0018093192
0.0018316609
0.0018583755
0.0018892961
0.0019242812
0.0019632989
0.0020063831
0.0020536043
0.0021048822
0.0021600817
0.0022188615
0.0022813492
0.0023474213
0.0024168506
0.0024895847
0.0025654299
0.0026441845
0.0027258051
0.0028099168
0.0028959858
0.0029843257
0.0030741688
0.0031656092
0.0032577756
0.0033509202
0.0034439662
0.0035369054
0.0036288479
0.0037195065
0.0038079039
0.0038938401
0.0039762964
0.0040558359
0.0041320804
0.0042052953
0.0042735361
0.0043370632
0.0043943016
0.0044470819
0.0044937327
0.0045364785
0.0045738934
0.0046069284
0.0046366126
0.0046612174
0.0046828772
0.0046987163
0.0047128976
0.0047245429
0.0047343206
0.004741971
0.0047474007
0.0047531704
0.0047595899
0.004766682
0.0047735066
0.0047825632
0.0048033923
0.0048378646
0.004865818
0.0048756473
0.004875716
0.0048733783
0.0048707502
0.0048681893
0.0048657142
0.0048632887
0.0048608765
0.0048584452
0.004855984
0.0048535274
0.0048511209
0.004848856
0.0048468241
0.0048450711
0.0048435522
0.0048421834
0.0048408854
0.0048396783
0.0048386171
0.0048378377
0.0048371032
0.0048361845
0.0048350956
0.0048339076
0.0048325963
0.0048307488
0.0048361857
0.0020024711
0.0019813398
0.0019566043
0.0019294952
0.0019013147
0.0018733509
0.0018467754
0.0018225797
0.001801521
0.0017841537
0.0017708529
0.0017618306
0.0017571941
0.0017569705
0.0017612281
0.0017699822
0.0017832497
0.001801009
0.0018231993
0.0018497215
0.0018804157
0.0019151532
0.0019539226
0.0019967051
0.0020435994
0.0020945392
0.0021493868
0.002207816
0.0022699808
0.002335744
0.0024049255
0.0024774149
0.0025530717
0.00263168
0.0027131558
0.002797139
0.0028831644
0.0029715555
0.0030615078
0.0031531398
0.0032455971
0.0033391052
0.0034326145
0.003526226
0.0036188923
0.0037104859
0.0037998663
0.003886901
0.0039704288
0.0040509951
0.0041281809
0.0042023306
0.0042719445
0.0043365743
0.0043949701
0.0044485721
0.0044962537
0.004539429
0.0045773913
0.0046111585
0.0046410433
0.0046664309
0.0046879867
0.0047050481
0.0047183435
0.0047302404
0.0047398544
0.0047476727
0.0047533906
0.0047588797
0.0047643966
0.0047716252
0.0047781643
0.0047857785
0.0048040974
0.0048370035
0.0048661187
0.0048773201
0.004877789
0.0048754523
0.0048727507
0.0048701114
0.004867559
0.0048650542
0.0048625584
0.0048600396
0.0048574897
0.0048549458
0.004852455
0.0048501099
0.0048480034
0.0048461818
0.0048446012
0.004843178
0.004841829
0.0048405685
0.0048394498
0.0048386113
0.0048378313
0.0048368834
0.00483578
0.0048345951
0.0048333247
0.0048315529
0.004837185
0.001989965
0.0019692261
0.0019450105
0.0019184725
0.0018908712
0.0018634662
0.0018374073
0.0018136673
0.0017929919
0.0017759287
0.0017628543
0.0017539905
0.0017494528
0.0017492725
0.0017535051
0.0017621732
0.001775312
0.0017929173
0.0018149217
0.0018412203
0.001871675
0.0019061714
0.0019447014
0.0019871982
0.002033766
0.0020843501
0.0021388243
0.0021968978
0.0022587136
0.0023241375
0.0023930255
0.0024652513
0.0025406826
0.0026191202
0.0027004057
0.0027842437
0.002870205
0.0029585901
0.0030486257
0.0031403945
0.0032331304
0.003326932
0.0034209075
0.0035151028
0.0036084808
0.0037009365
0.0037912771
0.0038793642
0.0039639769
0.0040455667
0.0041237344
0.0041987797
0.0042696878
0.0043355143
0.0043951502
0.004449617
0.0044983582
0.004542133
0.0045807427
0.0046152165
0.0046453567
0.0046717273
0.0046930099
0.0047109322
0.0047239123
0.0047363666
0.0047459519
0.0047540709
0.0047592778
0.0047646743
0.0047696934
0.004776713
0.0047825624
0.0047893752
0.0048052575
0.0048362938
0.0048663194
0.0048789605
0.0048798995
0.0048775801
0.0048748048
0.0048720834
0.0048694488
0.0048668596
0.0048642749
0.004861664
0.0048590217
0.0048563875
0.0048538103
0.0048513836
0.0048492011
0.0048473097
0.0048456661
0.004844187
0.0048427861
0.0048414713
0.0048402943
0.0048393961
0.0048385704
0.0048375934
0.0048364758
0.0048352949
0.0048340665
0.0048323709
0.0048381947
0.0019781851
0.0019577947
0.0019340287
0.0019079976
0.0018809226
0.0018540338
0.0018284565
0.0018051434
0.0017848282
0.0017680512
0.001755189
0.0017464724
0.0017420247
0.0017418814
0.0017460861
0.0017546656
0.0017676661
0.0017850922
0.0018068734
0.0018329118
0.0018631035
0.0018973509
0.0019356378
0.0019778577
0.0020241012
0.0020743197
0.0021284076
0.0021861204
0.0022475658
0.0023126219
0.0023811709
0.0024531053
0.0025282693
0.0026065028
0.0026875645
0.0027712399
0.0028571157
0.0029454453
0.0030355352
0.0031274014
0.0032203932
0.0033144386
0.0034088629
0.0035035608
0.0035976297
0.0036908637
0.0037821489
0.0038712198
0.0039569548
0.0040395313
0.0041187005
0.0041946275
0.0042667117
0.0043337563
0.0043946961
0.004450078
0.0044998726
0.0045444069
0.0045837847
0.0046189055
0.0046494036
0.0046767508
0.0046980252
0.0047165181
0.0047298172
0.004742309
0.0047521359
0.0047599412
0.0047651492
0.0047704706
0.0047752098
0.0047814799
0.0047871875
0.0047935018
0.0048070402
0.004835805
0.0048664368
0.0048805616
0.0048820463
0.004879763
0.0048769139
0.0048741062
0.0048713841
0.0048687048
0.0048660259
0.0048633181
0.0048605795
0.0048578521
0.0048551864
0.0048526766
0.004850417
0.0048484545
0.0048467465
0.0048452103
0.0048437562
0.0048423862
0.0048411504
0.0048401918
0.0048393202
0.0048383143
0.0048371828
0.0048360068
0.0048348214
0.0048332022
0.0048392131
0.0019672393
0.0019471278
0.0019237335
0.0018981372
0.0018715276
0.0018451045
0.0018199671
0.0017970467
0.001777064
0.0017605516
0.0017478843
0.0017393004
0.0017349309
0.0017348164
0.0017389915
0.0017474843
0.0017603422
0.0017775702
0.0017990977
0.0018248433
0.0018547425
0.0018887178
0.0019267417
0.001968681
0.0020145986
0.0020644453
0.00211814
0.0021754877
0.002236548
0.0023012143
0.0023693876
0.0024409974
0.0025158539
0.0025938444
0.0026746585
0.0027581505
0.0028439198
0.002932153
0.0030222632
0.0031141967
0.0032074109
0.0033016675
0.0033965057
0.0034916425
0.0035863667
0.0036803005
0.0037725023
0.0038625091
0.0039493597
0.0040329258
0.0041130776
0.0041898761
0.0042630246
0.0043312535
0.00439353
0.0044498969
0.004500734
0.004546131
0.0045863671
0.0046221188
0.0046530802
0.0046812067
0.0047029732
0.0047218114
0.0047357542
0.0047479106
0.0047580514
0.0047657625
0.0047715502
0.0047757981
0.0047804331
0.0047860565
0.004792271
0.0047979306
0.0048091159
0.0048355252
0.004866479
0.0048821146
0.0048842267
0.0048820021
0.0048790793
0.0048761806
0.0048733652
0.0048705896
0.0048678108
0.0048650013
0.0048621627
0.004859339
0.0048565829
0.0048539886
0.0048516507
0.0048496157
0.004847842
0.0048462475
0.004844739
0.0048433129
0.0048420174
0.004840998
0.0048400804
0.0048390459
0.0048379008
0.0048367306
0.0048355891
0.0048340459
0.0048402388
0.0019572109
0.0019372929
0.0019141858
0.0018889466
0.0018627349
0.00183672
0.0018119748
0.0017894079
0.0017697267
0.0017534547
0.0017409635
0.0017324957
0.00172819
0.0017280933
0.0017322349
0.0017406418
0.0017533546
0.0017703721
0.0017916273
0.001817059
0.0018466388
0.0018803093
0.0019180355
0.0019596748
0.0020052565
0.002054725
0.0021080221
0.0021649999
0.0022256661
0.002289928
0.0023577012
0.0024289532
0.002503467
0.0025811732
0.0026617215
0.0027450075
0.0028306479
0.0029187527
0.0030088462
0.0031008176
0.0031942129
0.003288659
0.0033838658
0.0034793968
0.0035747265
0.0036692953
0.0037623715
0.0038532736
0.0039412267
0.0040257641
0.0041069044
0.0041845507
0.0042586724
0.0043280231
0.0043916349
0.0044490707
0.0045009545
0.0045472649
0.0045884163
0.0046248311
0.0046563679
0.0046849957
0.0047076665
0.0047267692
0.0047414591
0.0047533373
0.0047637975
0.0047715947
0.0047778979
0.0047810351
0.0047860525
0.0047911587
0.0047973526
0.0048021043
0.0048116261
0.0048356709
0.0048664889
0.0048836136
0.0048864376
0.0048842978
0.0048813019
0.004878307
0.0048753919
0.0048725138
0.0048696291
0.0048667128
0.0048637704
0.0048608475
0.0048579991
0.004855319
0.0048529015
0.004850793
0.0048489522
0.0048472979
0.0048457339
0.0048442507
0.0048428951
0.0048418143
0.0048408506
0.0048397879
0.0048386296
0.004837466
0.0048363692
0.0048349014
0.00484127
0.0019481629
0.0019283445
0.0019054353
0.0018804713
0.0018545846
0.0018289153
0.0018045091
0.0017822528
0.0017628389
0.0017467813
0.001734446
0.0017260771
0.001721819
0.0017217262
0.0017258263
0.0017341434
0.0017467067
0.001763506
0.0017844814
0.001809592
0.0018388345
0.0018721679
0.0019095542
0.0019508597
0.0019960842
0.0020451646
0.0020980595
0.0021546607
0.0022149265
0.0022787757
0.0023461355
0.0024170015
0.0024911439
0.0025685259
0.002648791
0.0027318464
0.002817334
0.0029052858
0.0029953284
0.0030873071
0.0031808359
0.0032754541
0.0033709822
0.0034668744
0.0035627519
0.0036579068
0.0037517993
0.0038435619
0.0039325838
0.0040180936
0.0041002042
0.0041786949
0.0042537262
0.0043241238
0.004389043
0.0044476275
0.0045005805
0.0045478299
0.004589935
0.0046270585
0.0046592995
0.0046882113
0.0047119569
0.0047313667
0.0047467734
0.0047586298
0.0047693831
0.0047772005
0.004783863
0.004786835
0.0047917253
0.0047960898
0.0048022036
0.0048063724
0.0048147661
0.0048362974
0.004866461
0.0048850445
0.0048886731
0.0048866499
0.0048835823
0.0048804856
0.0048774641
0.0048744765
0.0048714799
0.004868452
0.0048654019
0.004862377
0.0048594345
0.0048566673
0.0048541692
0.0048519858
0.0048500766
0.0048483612
0.0048467404
0.0048451993
0.0048437828
0.0048426403
0.0048416307
0.00484054
0.0048393689
0.0048382127
0.0048371612
0.0048357679
0.0048423052
0.0019401416
0.0019203244
0.0018975217
0.0018727485
0.0018471107
0.0018217203
0.0017975965
0.001775604
0.0017564205
0.0017405491
0.0017283484
0.0017200606
0.0017158334
0.0017157288
0.001719775
0.0017279925
0.0017403973
0.0017569722
0.0017776679
0.0018024605
0.0018313595
0.0018643318
0.0019013386
0.0019422684
0.0019871039
0.0020357807
0.0020882663
0.0021444805
0.0022043393
0.0022677717
0.0023347121
0.002405171
0.0024789196
0.0025559426
0.0026359044
0.0027187035
0.0028040151
0.0028917961
0.0029817578
0.0030737136
0.0031673285
0.0032620988
0.0033579029
0.0034541304
0.0035504955
0.0036461989
0.0037408394
0.0038334258
0.0039234664
0.0040099551
0.0040930272
0.0041723518
0.0042482556
0.0043196462
0.0043858226
0.0044456149
0.0044996698
0.0045478815
0.0045909687
0.0046288395
0.0046619072
0.0046910343
0.0047158136
0.0047356261
0.0047516608
0.0047637828
0.0047747664
0.0047826826
0.0047893888
0.0047928074
0.0047969893
0.004800982
0.004806996
0.0048113563
0.0048183597
0.0048369421
0.0048664245
0.0048863893
0.0048909262
0.0048890579
0.0048859207
0.0048827161
0.0048795811
0.004876477
0.0048733623
0.0048702178
0.0048670565
0.0048639267
0.0048608885
0.004858033
0.0048554531
0.0048531936
0.0048512147
0.0048494368
0.004847758
0.0048461579
0.0048446802
0.0048434757
0.0048424201
0.004841302
0.0048401187
0.0048389706
0.0048379648
0.0048366445
0.0048433429
0.0019331808
0.0019132643
0.0018904759
0.0018658082
0.0018403421
0.0018151621
0.0017912616
0.0017694835
0.0017504905
0.0017347744
0.0017226848
0.0017144595
0.0017102463
0.0017101132
0.0017140901
0.0017221928
0.0017344263
0.0017507702
0.0017711891
0.0017956717
0.0018242291
0.0018568272
0.0018934254
0.0019339394
0.0019783488
0.0020265998
0.002078664
0.002134476
0.0021939195
0.0022569319
0.0023234498
0.0023934855
0.0024668247
0.0025434622
0.0026230966
0.0027056144
0.0027907295
0.0028783263
0.0029681824
0.0030600871
0.0031537468
0.0032486462
0.0033446831
0.0034412214
0.0035380193
0.0036342373
0.0037295527
0.0038229231
0.0039139201
0.0040013929
0.0040854245
0.0041655868
0.0042423296
0.0043146767
0.0043820716
0.0044430973
0.0044982856
0.0045474893
0.004591575
0.0046302306
0.0046642001
0.0046936208
0.0047192842
0.0047396117
0.0047561858
0.0047687639
0.0047799102
0.0047880746
0.0047946174
0.0047985227
0.0048021847
0.0048062849
0.0048118753
0.0048163242
0.0048219621
0.0048379121
0.0048666539
0.0048877258
0.0048931966
0.0048915204
0.0048883169
0.0048849981
0.004881742
0.0048785142
0.0048752751
0.0048720092
0.0048687333
0.0048654961
0.0048623605
0.0048594157
0.0048567529
0.0048544161
0.0048523661
0.0048505242
0.0048487862
0.0048471263
0.0048455867
0.00484432
0.0048432188
0.0048420737
0.0048408789
0.0048397395
0.0048387799
0.0048375309
0.0048443819
0.001927302
0.0019071869
0.0018843211
0.0018596742
0.001834303
0.0018092647
0.0017855275
0.0017639128
0.0017450677
0.0017294728
0.0017174679
0.0017092844
0.0017050679
0.0017048896
0.0017087798
0.0017167499
0.0017287968
0.0017449026
0.0017650467
0.001789227
0.0018174472
0.0018496664
0.0018858396
0.0019259081
0.0019698578
0.0020176568
0.0020692802
0.0021246688
0.0021836858
0.0022462735
0.0023123644
0.0023819643
0.0024548836
0.0025311179
0.0026104004
0.0026926123
0.0027775118
0.0028649128
0.0029546443
0.0030464752
0.0031401467
0.0032351513
0.0033313813
0.0034282053
0.0035253855
0.0036220853
0.003718005
0.0038121173
0.0039040028
0.0039924567
0.0040774505
0.0041584706
0.004236029
0.0043093058
0.0043778767
0.0044401609
0.0044964964
0.0045467272
0.0045918136
0.0046313005
0.00466618
0.0046960585
0.0047224437
0.0047434093
0.004760469
0.0047735534
0.0047848094
0.0047933674
0.0047997482
0.0048040593
0.0048074507
0.0048116554
0.0048163613
0.0048208952
0.0048255504
0.0048396348
0.0048668441
0.0048888567
0.0048954321
0.0048940321
0.00489077
0.0048873307
0.0048839458
0.0048805868
0.0048772172
0.0048738254
0.0048704315
0.0048670846
0.0048638502
0.0048608151
0.0048580683
0.004855653
0.0048535305
0.0048516233
0.0048498248
0.0048481042
0.0048465022
0.0048451731
0.0048440267
0.0048428552
0.0048416496
0.0048405198
0.0048396065
0.0048384266
0.0048454211
0.0019225166
0.0019021061
0.0018790726
0.0018543641
0.0018290126
0.0018040486
0.0017804151
0.001758912
0.0017401706
0.0017246596
0.0017127093
0.0017045439
0.0017003053
0.0017000644
0.0017038504
0.0017116696
0.0017235148
0.001739375
0.0017592447
0.0017831265
0.001811012
0.0018428512
0.0018785937
0.0019182003
0.0019616678
0.0020089899
0.0020601472
0.0021150848
0.0021736597
0.002235814
0.0023014707
0.0023706241
0.0024431158
0.0025189347
0.0025978439
0.0026797271
0.0027643875
0.0028515833
0.0029411753
0.0030329168
0.0031265745
0.0032216631
0.0033180492
0.0034151344
0.0035126514
0.0036097988
0.0037062612
0.0038010742
0.0038937817
0.0039832027
0.0040691615
0.0041510744
0.0042294386
0.0043036264
0.0043733266
0.0044368766
0.0044943834
0.0045456685
0.0045917468
0.0046321223
0.0046678671
0.0046983772
0.0047253601
0.0047470752
0.0047646061
0.004778159
0.0047894826
0.0047985077
0.0048048396
0.004809468
0.0048125571
0.0048167913
0.0048209292
0.0048256851
0.0048294824
0.0048415645
0.0048667637
0.0048899306
0.004897772
0.0048965971
0.0048932801
0.0048897129
0.0048861913
0.0048826938
0.0048791876
0.0048756652
0.0048721505
0.0048686918
0.0048653576
0.0048622311
0.0048593992
0.0048569042
0.0048547079
0.0048527339
0.0048508736
0.0048490914
0.0048474267
0.0048460353
0.0048448441
0.0048436468
0.0048424315
0.0048413116
0.0048404448
0.0048393314
0.0048464597
0.001918832
0.0018980296
0.0018747395
0.0018498892
0.0018244847
0.0017995299
0.0017759417
0.0017544988
0.0017358158
0.0017203492
0.0017084201
0.0017002455
0.0016959628
0.0016956409
0.0016993051
0.0017069565
0.0017185869
0.0017341949
0.0017537884
0.0017773705
0.0018049201
0.0018363784
0.0018716909
0.0019108314
0.0019538071
0.0020006344
0.0020512992
0.0021057542
0.0021638654
0.0022255721
0.0022907838
0.0023594811
0.0024315375
0.0025069299
0.0025854485
0.002666983
0.0027513756
0.0028383553
0.0029277945
0.0030194351
0.0031130603
0.0032082154
0.0033047266
0.0034020496
0.0034998633
0.0035974272
0.0036943811
0.0037898553
0.0038833261
0.0039736913
0.004060614
0.0041434628
0.0042226409
0.0042977265
0.0043685059
0.0044333161
0.0044920075
0.0045443911
0.0045914411
0.004632762
0.0046693094
0.00470058
0.0047280849
0.0047506149
0.0047686435
0.0047826122
0.0047939938
0.0048034424
0.0048098775
0.0048147545
0.0048176098
0.0048216976
0.0048258559
0.0048305049
0.0048334503
0.0048436947
0.0048670714
0.0048911378
0.0049001631
0.0048991996
0.004895844
0.0048921434
0.0048884773
0.0048848339
0.0048811851
0.0048775282
0.0048738898
0.0048703177
0.0048668825
0.0048636638
0.0048607459
0.0048581699
0.0048558984
0.0048538562
0.0048519328
0.004850088
0.0048483604
0.0048469066
0.0048456712
0.0048444489
0.0048432249
0.0048421156
0.004841295
0.0048402453
0.0048474972
0.0019162412
0.0018949553
0.0018713238
0.0018462542
0.001820727
0.0017957185
0.0017721198
0.0017506868
0.0017320171
0.0017165544
0.0017046106
0.0016963962
0.0016920443
0.0016916204
0.0016951447
0.0017026129
0.0017140182
0.0017293687
0.0017486822
0.0017719597
0.001799168
0.0018302434
0.0018651293
0.0019038075
0.0019462931
0.001992617
0.0020427682
0.0020967102
0.0021543307
0.0022155684
0.00228032
0.002348552
0.0024201635
0.0024951176
0.0025732301
0.0026543983
0.0027384938
0.0028252398
0.0029145099
0.0030060393
0.0030996183
0.0031948259
0.0032914383
0.0033889786
0.0034870581
0.0035850115
0.0036824176
0.0037785157
0.0038726998
0.0039639817
0.004051863
0.0041356887
0.0042157065
0.004291684
0.0043634904
0.0044295435
0.0044894275
0.004542948
0.0045909712
0.0046332725
0.0046705755
0.0047026704
0.0047306659
0.0047540147
0.0047725924
0.0047869621
0.0047984319
0.0048081785
0.0048148437
0.0048199121
0.004822715
0.0048264871
0.0048306824
0.0048351726
0.0048376841
0.0048461659
0.004867543
0.0048921052
0.0049022516
0.0049018486
0.0048984547
0.0048946212
0.0048908024
0.0048870059
0.004883209
0.0048794136
0.0048756493
0.0048719625
0.0048684254
0.0048651137
0.0048621086
0.0048594505
0.0048571024
0.0048549904
0.0048530026
0.0048510945
0.0048493035
0.0048477876
0.0048465087
0.0048452621
0.0048440306
0.0048429322
0.0048421577
0.0048411686
0.0048485333
0.0019147313
0.0018928734
0.0018688202
0.0018434569
0.0018177406
0.0017926188
0.001768956
0.0017474848
0.0017287846
0.0017132857
0.0017012909
0.0016930043
0.0016885549
0.0016880051
0.0016913697
0.0016986401
0.0017098114
0.0017248998
0.0017439282
0.0017668935
0.0017937529
0.0018244423
0.0018589057
0.0018971293
0.001939133
0.0019849531
0.0020345784
0.0020879844
0.0021450864
0.002205827
0.0022700982
0.0023378538
0.0024090093
0.0024835123
0.0025612035
0.0026419883
0.0027257592
0.0028122471
0.002901326
0.0029927316
0.0030862526
0.0031814989
0.0032781973
0.0033759365
0.0034742634
0.0035725856
0.0036704154
0.0037671006
0.0038619612
0.0039541279
0.0040429582
0.0041277923
0.0042086879
0.0042855607
0.0043583442
0.0044256119
0.004486696
0.0045413831
0.0045903914
0.0046336997
0.0046717381
0.0047046654
0.0047331571
0.0047572766
0.004776451
0.0047912558
0.0048028608
0.0048127863
0.0048197444
0.0048249653
0.0048278956
0.0048313176
0.0048353004
0.0048398422
0.0048422885
0.0048486597
0.0048680667
0.0048927757
0.0049042216
0.0049044839
0.0049011121
0.0048971443
0.0048931655
0.004889209
0.0048852587
0.0048813213
0.004877429
0.0048736266
0.0048699869
0.0048665814
0.0048634881
0.0048607466
0.0048583203
0.004856137
0.0048540835
0.0048521113
0.0048502568
0.004848679
0.0048473573
0.0048460873
0.0048448493
0.0048437623
0.0048430333
0.0048421014
0.004849568
0.0019142828
0.0018917686
0.0018672175
0.0018414904
0.0018155213
0.0017902294
0.0017664515
0.0017448965
0.0017261244
0.0017105512
0.0016984701
0.001690079
0.0016855025
0.0016848
0.0016879828
0.0016950397
0.0017059682
0.0017207892
0.0017395261
0.00176217
0.0017886727
0.0018189726
0.001853017
0.001890794
0.0019323261
0.0019776473
0.0020267438
0.0020796011
0.0021361612
0.002196375