/*--------------------------------*- C++ -*----------------------------------*\
| =========                 |                                                 |
| \\      /  F ield         | OpenFOAM: The Open Source CFD Toolbox           |
|  \\    /   O peration     | Version:  2406                                  |
|   \\  /    A nd           | Website:  www.openfoam.com                      |
|    \\/     M anipulation  |                                                 |
\*---------------------------------------------------------------------------*/
FoamFile
{
    version     2.0;
    format      ascii;
    arch        "LSB;label=32;scalar=64";
    class       volScalarField;
    location    "0.019";
    object      nutMean;
}
// * * * * * * * * * * * * * * * * * * * * * * * * * * * * * * * * * * * * * //

dimensions      [0 2 -1 0 0 0 0];

internalField   nonuniform List<scalar> 
23204
(
0.0041828342
0.00417827
0.0041747216
0.0041705795
0.0041747795
0.0042992098
0.0042849616
0.0042718024
0.0042597543
0.0042488118
0.0042388965
0.0042298551
0.0042215431
0.0042138144
0.0042066716
0.0042000922
0.004194228
0.0041887855
0.0041837386
0.004179163
0.0041756196
0.0041715079
0.004175751
0.058846998
0.048448162
0.038702574
0.029792447
0.021900613
0.01520943
0.0099382729
0.0064031988
0.0048710118
0.0045514862
0.0044919082
0.0044617339
0.0044360703
0.0044124327
0.0043904407
0.0043699453
0.0043508438
0.0043330374
0.0043164388
0.0043009805
0.0042866285
0.0042733722
0.0042612334
0.0042502064
0.0042402134
0.0042311013
0.0042227252
0.0042149358
0.0042077356
0.0042011007
0.0041951921
0.0041897202
0.0041846493
0.0041800626
0.0041765241
0.0041724424
0.0041767257
0.17816323
0.18382146
0.1894297
0.19492916
0.20025428
0.20532826
0.21006219
0.21435615
0.21810168
0.22118557
0.22349472
0.22492282
0.22537789
0.22478902
0.22311099
0.22032751
0.21645123
0.21152334
0.20562223
0.19887996
0.19152042
0.18386284
0.17588187
0.16730064
0.15807459
0.14826382
0.13794926
0.12722227
0.11617892
0.10492194
0.093557997
0.082203222
0.070986039
0.060039888
0.049558451
0.039713307
0.030686763
0.022662622
0.015823254
0.010384292
0.0066532063
0.0049408011
0.0045624614
0.0044957885
0.0044648236
0.004438903
0.0044150693
0.0043929014
0.0043722455
0.004352998
0.0043350586
0.004318338
0.004302766
0.0042883091
0.0042749547
0.004262724
0.0042516113
0.0042415396
0.0042323558
0.0042239148
0.0042160641
0.0042088061
0.0042021154
0.0041961622
0.0041906609
0.0041855664
0.0041809688
0.0041774354
0.0041733829
0.0041777031
0.039811585
0.042188903
0.044658098
0.047217438
0.049866859
0.05260686
0.055438255
0.058362086
0.0613796
0.064492239
0.067701628
0.071009585
0.074418105
0.077929354
0.081545637
0.085269362
0.089102983
0.09304894
0.097109567
0.10128701
0.10558316
0.10999953
0.11453719
0.1191967
0.123978
0.12888031
0.13390194
0.13904012
0.1442907
0.14964778
0.15510333
0.16064668
0.16626368
0.17193253
0.17756818
0.18322375
0.18883873
0.19435592
0.19971068
0.20482746
0.20961868
0.21398541
0.21781968
0.22100806
0.22343638
0.22499628
0.22559276
0.22515098
0.22362125
0.22098227
0.2172415
0.21243437
0.20663183
0.19995529
0.19260889
0.18492113
0.17697072
0.16846037
0.15930028
0.14954285
0.13926853
0.12856852
0.11753873
0.1062815
0.094903208
0.083519141
0.072255973
0.061250654
0.050688286
0.040744486
0.031602168
0.023446126
0.016458964
0.010852756
0.0069263341
0.0050233705
0.0045754121
0.0044998609
0.0044679566
0.0044417654
0.0044177323
0.004395386
0.0043745673
0.0043551718
0.0043370974
0.0043202535
0.0043045664
0.0042900032
0.0042765495
0.0042642258
0.0042530264
0.0042428749
0.0042336185
0.0042251117
0.0042171992
0.0042098829
0.0042031363
0.0041971384
0.0041916077
0.00418649
0.0041818817
0.0041783533
0.0041743292
0.0041786828
0.040097214
0.042450794
0.044896224
0.047432115
0.050058109
0.052774468
0.055581868
0.058481276
0.061473904
0.064561176
0.067744714
0.071026337
0.074408048
0.077892022
0.081480583
0.085176157
0.08898122
0.092898236
0.096929577
0.10107744
0.10534376
0.10973015
0.11423777
0.1188673
0.12361885
0.12849177
0.13348463
0.13859493
0.14381882
0.14915074
0.15458294
0.16010484
0.16570151
0.17134883
0.17699669
0.18265306
0.18827473
0.19380831
0.19919092
0.20434848
0.20919487
0.2136323
0.21755339
0.22084456
0.2233907
0.22508152
0.22581904
0.22552454
0.22414384
0.22165067
0.21804727
0.2133636
0.2076635
0.20105833
0.19373375
0.18601018
0.17807004
0.16962657
0.16053336
0.15083064
0.14059779
0.12992597
0.11891091
0.10765466
0.09626322
0.08485113
0.073543808
0.062479807
0.051838002
0.041796493
0.032539062
0.024251514
0.01711692
0.011344005
0.0072231327
0.0051205844
0.0045908531
0.0045041709
0.0044711368
0.0044446576
0.0044204213
0.0043978941
0.0043769105
0.0043573649
0.0043391539
0.0043221848
0.0043063814
0.0042917107
0.0042781566
0.0042657388
0.0042544515
0.0042442192
0.0042348893
0.0042263159
0.0042183409
0.0042109661
0.0042041632
0.0041981207
0.0041925607
0.00418742
0.0041828012
0.0041792779
0.0041752812
0.0041796643
0.040419176
0.042749566
0.045171523
0.047683881
0.050286178
0.052978557
0.055761608
0.058636252
0.061603671
0.064665281
0.067822706
0.07107777
0.074432484
0.077889036
0.081449762
0.08511711
0.08889358
0.092781661
0.096783758
0.10090211
0.10513871
0.10949524
0.11397295
0.11857265
0.12329455
0.1281382
0.13310236
0.13818477
0.14338186
0.1486884
0.15409693
0.15959701
0.16517373
0.17080428
0.17645382
0.18211094
0.18773875
0.19328729
0.19869586
0.20389204
0.20879129
0.21329711
0.21730283
0.22069486
0.22335728
0.22517797
0.22605604
0.22590897
0.2246781
0.22233214
0.21886811
0.21431064
0.20871688
0.20218867
0.19489493
0.18713595
0.17918334
0.17079971
0.161774
0.15212739
0.14193737
0.13129499
0.1202959
0.10904182
0.097638452
0.086199594
0.074849707
0.063727751
0.053007894
0.042869665
0.033497807
0.025079151
0.017797465
0.011858368
0.0075440583
0.0052343634
0.0046094303
0.004508778
0.0044743683
0.0044475799
0.0044231364
0.0044004257
0.004379275
0.0043595772
0.0043412277
0.004324132
0.0043082108
0.0042934313
0.0042797757
0.0042672626
0.0042558866
0.0042455725
0.0042361681
0.0042275272
0.0042194892
0.0042120555
0.0042051962
0.0041991089
0.0041935198
0.0041883564
0.0041837274
0.004180209
0.0041762386
0.0041806474
0.040778971
0.043085572
0.045484624
0.047973733
0.050552312
0.053220516
0.055978943
0.058828514
0.061770419
0.064806077
0.067937121
0.071165387
0.074492903
0.077921871
0.081454642
0.085093679
0.088841509
0.092700648
0.096673532
0.10076244
0.10496942
0.1092962
0.11374413
0.11831413
0.12300652
0.12782103
0.13275656
0.13781109
0.14298132
0.1482623
0.15364689
0.15912494
0.16468203
0.17029735
0.17594326
0.18159994
0.18723294
0.19279505
0.1982277
0.20346037
0.20841015
0.21298198
0.21707005
0.22056089
0.22333788
0.22528723
0.22630524
0.22630562
0.22522528
0.22302789
0.21970517
0.21527652
0.20979282
0.2033469
0.19609269
0.18830407
0.1803162
0.17198096
0.16302273
0.15343352
0.14328767
0.13267599
0.12169407
0.11044338
0.099029272
0.087564882
0.076173858
0.064994828
0.054198239
0.043964314
0.034478743
0.025929398
0.018500944
0.012396181
0.0078894973
0.0053666513
0.0046319389
0.0045137602
0.0044776554
0.0044505332
0.0044258774
0.0044029807
0.0043816606
0.0043618086
0.0043433187
0.0043260947
0.0043100545
0.004295165
0.0042814067
0.0042687972
0.0042573313
0.0042469345
0.0042374546
0.0042287456
0.004220644
0.004213151
0.0042062353
0.0042001032
0.004194485
0.0041892993
0.0041846602
0.0041811467
0.0041772013
0.0041816314
0.03895726
0.041166065
0.043457592
0.045836272
0.048302954
0.050858016
0.053501969
0.056235563
0.059059797
0.061975901
0.064985323
0.06808972
0.071290948
0.074591057
0.077992267
0.08149695
0.085107588
0.088826723
0.092656903
0.096600598
0.10066012
0.10483756
0.10913472
0.11355303
0.11809346
0.12275649
0.12754197
0.13244899
0.1374757
0.14261904
0.14787436
0.15323483
0.15869074
0.16422836
0.16982873
0.17546789
0.18112268
0.18675969
0.19233395
0.19778887
0.20305593
0.20805394
0.21268937
0.21685743
0.22044492
0.22333466
0.22541132
0.22656851
0.22671623
0.22578698
0.2237394
0.22055985
0.21626253
0.21089239
0.20453377
0.19732722
0.18951869
0.181476
0.17317205
0.16428006
0.15474945
0.14464909
0.13406934
0.12310579
0.11185966
0.100436
0.088947283
0.077516459
0.066281347
0.055409306
0.045080743
0.035482207
0.026802623
0.019227701
0.012957776
0.0082597816
0.0055193392
0.0046593466
0.004519219
0.0044810058
0.004453517
0.0044286449
0.004405559
0.0043840672
0.0043640589
0.0043454268
0.004328073
0.0043119124
0.0042969115
0.0042830494
0.0042703425
0.0042587856
0.004248305
0.0042387488
0.0042299708
0.0042218051
0.0042142525
0.0042072803
0.0042011035
0.0041954564
0.0041902487
0.0041855997
0.0041820908
0.0041781691
0.004182616
0.03940185
0.041595788
0.043870255
0.046228869
0.048673464
0.051205125
0.05382476
0.056533342
0.059331994
0.062222023
0.06520493
0.068282411
0.071456355
0.074728837
0.078102105
0.081578551
0.085160682
0.088851061
0.092652258
0.096566773
0.10059696
0.10474496
0.10901261
0.11340142
0.11791244
0.12254627
0.12730286
0.13218147
0.13718044
0.14229694
0.14752656
0.15286283
0.1582965
0.16381467
0.16939987
0.17503031
0.1806817
0.18632147
0.19190642
0.19738189
0.20268125
0.20772522
0.21242182
0.21666746
0.22034936
0.22334992
0.2255524
0.22684783
0.22714265
0.22636491
0.22446826
0.22143362
0.21726998
0.21201668
0.20575011
0.19859871
0.19078218
0.18267171
0.17437558
0.16554661
0.15607559
0.14602198
0.13547539
0.12453138
0.11329097
0.10185891
0.090347059
0.078877711
0.067587581
0.056641351
0.046219242
0.036508521
0.02769918
0.019978077
0.013543478
0.0086552118
0.0056941812
0.0046928198
0.0045252879
0.0044844285
0.0044565319
0.0044314383
0.004408161
0.0043864947
0.0043663281
0.0043475519
0.0043300664
0.0043137841
0.0042986707
0.0042847036
0.0042718981
0.0042602492
0.0042496839
0.0042400505
0.0042312028
0.0042229724
0.0042153601
0.0042083313
0.0042021099
0.0041964338
0.0041912044
0.0041865456
0.0041830412
0.0041791418
0.004183601
0.039897451
0.04207213
0.044327386
0.0466653
0.049087657
0.05159583
0.05419101
0.056874377
0.059647197
0.062510877
0.065466988
0.068517277
0.071663678
0.074908301
0.078253424
0.08170147
0.085254968
0.088916507
0.092688682
0.096574016
0.1005749
0.10469352
0.10893177
0.11329121
0.11777298
0.12237775
0.12710561
0.13195595
0.13692729
0.142017
0.14722093
0.15253296
0.15794435
0.16344297
0.16901261
0.17463292
0.18027957
0.18592079
0.19151497
0.19700928
0.20233894
0.20742662
0.21218199
0.21650273
0.22027671
0.22338602
0.22571267
0.22714529
0.22758677
0.22696083
0.22521607
0.22232796
0.21830025
0.21316687
0.20699679
0.19990742
0.19209538
0.18391284
0.17559555
0.16682307
0.1574123
0.14740669
0.13689447
0.12597113
0.11473757
0.10329826
0.091764458
0.080257819
0.068913784
0.057894624
0.047380084
0.037558004
0.02861941
0.020752415
0.014153619
0.0090760758
0.0058927665
0.0047337448
0.0045321404
0.004487936
0.0044595791
0.0044342576
0.0044107862
0.004388943
0.0043686159
0.0043496936
0.004332075
0.0043156696
0.0043004423
0.0042863691
0.0042734639
0.0042617219
0.004251071
0.0042413594
0.0042324413
0.0042241458
0.0042164733
0.004209388
0.0042031222
0.0041974173
0.0041921666
0.0041874981
0.0041839978
0.0041801192
0.0041845857
0.040443436
0.04259751
0.04483214
0.047148539
0.049548226
0.052032637
0.05460312
0.057261018
0.060007731
0.06284477
0.065773787
0.068796594
0.071915178
0.07513169
0.078448448
0.081867906
0.085392622
0.089025214
0.092768301
0.096624435
0.10059604
0.10468533
0.10889426
0.11322444
0.11767709
0.12225296
0.12695225
0.13177447
0.1367183
0.14178129
0.14695958
0.15224738
0.15763643
0.16311535
0.16866899
0.17427811
0.17991884
0.18556025
0.19116219
0.19667367
0.20203169
0.20716083
0.21197256
0.21636589
0.22022951
0.22344542
0.22589447
0.22746303
0.22805059
0.22757656
0.22598451
0.22324442
0.21935474
0.21434415
0.20827473
0.20125371
0.1934581
0.18520801
0.17683809
0.16811049
0.15875993
0.14880351
0.13832684
0.12742531
0.11619973
0.1047543
0.093199704
0.081656974
0.070260183
0.059169363
0.048563538
0.038630968
0.029563656
0.021551062
0.014788528
0.0095226603
0.0061164876
0.0047837352
0.004540004
0.0044915447
0.0044626593
0.0044371023
0.0044134338
0.0043914124
0.0043709222
0.0043518521
0.0043340983
0.0043175685
0.0043022261
0.0042880454
0.0042750395
0.0042632035
0.004252466
0.0042426755
0.0042336862
0.0042253251
0.0042175923
0.0042104504
0.0042041404
0.0041984068
0.004193135
0.0041884569
0.0041849605
0.0041811009
0.0041855699
0.041041739
0.043174516
0.04538755
0.047681642
0.050058103
0.052518339
0.055063782
0.057695887
0.060416169
0.063226242
0.066127842
0.069122855
0.072213322
0.075401448
0.078689594
0.08208025
0.085576008
0.089179516
0.09289342
0.096720302
0.10066261
0.1047226
0.10890227
0.11320329
0.11762694
0.12217405
0.12684491
0.13163915
0.1365556
0.141592
0.14674471
0.1520083
0.15737497
0.16283403
0.16837124
0.17396831
0.17960204
0.18524246
0.19085076
0.19637771
0.20176221
0.20693061
0.21179629
0.21625968
0.22021043
0.22353065
0.22610018
0.22780327
0.22853614
0.22821396
0.22677527
0.22418456
0.22043489
0.21554976
0.2095849
0.20263811
0.19486973
0.18656352
0.17811204
0.16941043
0.16011894
0.1502127
0.13977279
0.1288942
0.11767769
0.10622725
0.094653011
0.083075372
0.071627003
0.060465801
0.049769862
0.039727712
0.030532265
0.022374381
0.015448545
0.0099952574
0.0063665103
0.0048446373
0.0045491739
0.0044952767
0.0044657734
0.0044399723
0.0044161045
0.0043939024
0.004373247
0.0043540267
0.0043361363
0.0043194806
0.0043040217
0.0042897326
0.0042766248
0.0042646937
0.0042538686
0.0042439984
0.0042349372
0.0042265101
0.0042187167
0.0042115184
0.0042051643
0.0041994022
0.0041941096
0.0041894219
0.004185929
0.0041820868
0.004186553
0.041695273
0.043806151
0.0459968
0.048267839
0.050620449
0.053056002
0.055575967
0.058181882
0.060875355
0.063658091
0.066531914
0.069498783
0.072560804
0.075720237
0.078979491
0.082341099
0.08580769
0.089381942
0.093066532
0.096864073
0.10077704
0.10480773
0.10895817
0.11323009
0.11762483
0.12214329
0.12678586
0.13155227
0.13644146
0.14145137
0.14657859
0.15181799
0.15716226
0.1626013
0.16812167
0.17370596
0.17933175
0.18497007
0.19058342
0.19612418
0.20153325
0.20673879
0.21165598
0.21618691
0.2202222
0.22364432
0.22633227
0.22816831
0.22904555
0.22887495
0.22759012
0.22514999
0.22154218
0.21678502
0.21092832
0.20406121
0.19632961
0.18798282
0.17942896
0.17072556
0.16148984
0.15163459
0.14123258
0.13037803
0.11917169
0.10771733
0.096124586
0.084513206
0.073014459
0.061784161
0.050999298
0.04084853
0.031525576
0.023222748
0.016134013
0.010494171
0.006643774
0.0049185197
0.0045600391
0.0044991625
0.0044689234
0.0044428681
0.0044187975
0.0043964122
0.0043755901
0.0043562175
0.0043381886
0.0043214055
0.0043058289
0.0042914301
0.0042782194
0.0042661922
0.0042552788
0.0042453279
0.0042361942
0.0042277006
0.0042198465
0.0042125918
0.004206194
0.0042004034
0.0041950904
0.004190393
0.0041869032
0.0041830764
0.0041875348
0.042407502
0.044495831
0.046663351
0.048910599
0.051238691
0.053648973
0.056142941
0.058722191
0.061388409
0.064143386
0.066989024
0.069927356
0.072960559
0.076090953
0.079320996
0.082653269
0.086090439
0.089635224
0.09329033
0.0970584
0.10094195
0.10494329
0.1090645
0.11330735
0.11767323
0.12216313
0.1267775
0.13151617
0.13637824
0.14136176
0.14646357
0.15167884
0.15700067
0.16241954
0.16792272
0.17349359
0.17911061
0.18474576
0.19036289
0.19591595
0.20134766
0.20658823
0.21155453
0.21615042
0.22026763
0.22378911
0.22659328
0.22856053
0.229581
0.22956157
0.22843086
0.22614236
0.22267815
0.21805131
0.21230607
0.20552371
0.19783735
0.18946666
0.18080176
0.17206036
0.16287328
0.15306951
0.14270643
0.13187705
0.12068194
0.10922476
0.097614627
0.085970643
0.074422742
0.063124636
0.05225208
0.041993715
0.032543919
0.024096541
0.016845279
0.011019717
0.0069490162
0.0050076644
0.0045731047
0.0045032406
0.0044721111
0.0044457887
0.004421512
0.0043989417
0.0043779508
0.0043584244
0.0043402549
0.004323343
0.0043076473
0.0042931377
0.004279823
0.0042676987
0.004256696
0.0042466638
0.0042374569
0.0042288964
0.0042209815
0.0042136705
0.0042072292
0.0042014104
0.0041960771
0.00419137
0.0041878827
0.0041840698
0.0041885148
0.043182312
0.045247362
0.047390986
0.04961368
0.051916535
0.054300892
0.056768266
0.0593203
0.06195875
0.064685478
0.067502464
0.070411818
0.073415782
0.076516739
0.079717205
0.083019808
0.08642726
0.089942316
0.093567717
0.097306139
0.10116012
0.10513202
0.10922395
0.11343771
0.11777476
0.12223614
0.12682238
0.13153341
0.13636843
0.14132566
0.14640214
0.15159331
0.15689267
0.16229122
0.16777689
0.17333381
0.17894126
0.18457229
0.19019198
0.19575586
0.20120842
0.20648184
0.2114949
0.21615312
0.2203496
0.22396781
0.22688584
0.22898241
0.23014479
0.23027586
0.22929937
0.22716335
0.22384434
0.21935004
0.21371933
0.20702637
0.19939284
0.191014
0.18224233
0.17342219
0.16427033
0.15451785
0.14419464
0.1333915
0.12220866
0.11074974
0.099123312
0.087447863
0.075852025
0.064487418
0.05352844
0.04316354
0.033587629
0.024996127
0.017582702
0.011572219
0.0072828134
0.0051145172
0.0045890161
0.0045075647
0.0044753396
0.0044487343
0.0044242482
0.0044014906
0.0043803287
0.0043606466
0.0043423351
0.0043252925
0.0043094765
0.0042948549
0.0042814351
0.0042692129
0.0042581201
0.0042480058
0.004238725
0.0042300973
0.0042221213
0.0042147544
0.00420827
0.0042024229
0.0041970696
0.0041923527
0.0041888673
0.0041850664
0.0041894926
0.044023967
0.046064919
0.048183822
0.050381153
0.052657997
0.055015702
0.057455808
0.059979999
0.06259009
0.065288012
0.068075817
0.070955686
0.073929932
0.077001001
0.080171467
0.083444011
0.08682139
0.090306401
0.093901822
0.097610359
0.10143459
0.1053769
0.10943943
0.11362404
0.11793222
0.12236507
0.1269232
0.13160664
0.13641467
0.14134567
0.14639685
0.15156396
0.15684082
0.16221891
0.16768678
0.17322926
0.17882645
0.18445242
0.19007353
0.19564681
0.20111847
0.20642265
0.21148008
0.216198
0.22047103
0.22418326
0.22721264
0.22943648
0.23073925
0.23101998
0.23019758
0.22821474
0.22504237
0.22068268
0.21516935
0.20857004
0.20099617
0.1926231
0.18375913
0.17482234
0.16568274
0.15597998
0.1456975
0.13492162
0.12375212
0.11229247
0.10065082
0.088945042
0.077302472
0.065872694
0.054828598
0.044358266
0.034657036
0.025921868
0.018346633
0.012152017
0.0076456188
0.0052415869
0.0046085963
0.0045122065
0.0044786149
0.0044517054
0.0044270063
0.0044040581
0.0043827234
0.0043628837
0.0043444286
0.004327254
0.0043113162
0.0042965813
0.0042830555
0.0042707344
0.0042595506
0.0042493535
0.0042399983
0.004231303
0.004223266
0.0042158432
0.004209316
0.004203441
0.0041980679
0.0041933409
0.0041898569
0.004186066
0.0041904679
0.044937089
0.046953033
0.049046322
0.051217416
0.053467408
0.055797664
0.058209748
0.060705389
0.063286453
0.065954935
0.068712957
0.071562768
0.074506749
0.077547414
0.080687394
0.083929426
0.087276316
0.090730902
0.094296002
0.097974357
0.10176858
0.10568108
0.10971405
0.11386937
0.11814859
0.12255286
0.12708285
0.13173867
0.13651972
0.14142451
0.14645043
0.15159345
0.15684776
0.16220527
0.16765507
0.17318266
0.17876897
0.18438902
0.19001044
0.19559174
0.20108084
0.20641372
0.21151314
0.21628813
0.22063491
0.22443841
0.2275765
0.22992536
0.23136683
0.23179615
0.23112751
0.2292983
0.22627386
0.22205076
0.21665744
0.21015569
0.20264769
0.19429223
0.1853561
0.1762761
0.16711371
0.15745641
0.14721535
0.13646769
0.12531253
0.11385318
0.10219737
0.090462364
0.078774262
0.067280639
0.056152753
0.045578143
0.035752455
0.026874113
0.019137426
0.012759461
0.0080378043
0.0053913831
0.004632884
0.0045172632
0.0044819432
0.0044547014
0.0044297856
0.0044066442
0.0043851343
0.0043651354
0.0043465347
0.0043292268
0.0043131657
0.0042983166
0.0042846837
0.0042722629
0.0042609873
0.0042507067
0.0042412765
0.0042325133
0.0042244153
0.0042169367
0.0042103672
0.0042044643
0.0041990715
0.0041943344
0.0041908509
0.0041870683
0.0041914401
0.045926646
0.047916583
0.049983285
0.052127195
0.054349422
0.056651353
0.059034584
0.061500885
0.064052172
0.066690501
0.069418058
0.072237162
0.075150261
0.078159932
0.081268871
0.084479867
0.08779578
0.091219492
0.094753859
0.09840166
0.10216554
0.10604795
0.11005111
0.11417693
0.11842703
0.12280259
0.12730435
0.13193249
0.13668652
0.14156506
0.14656568
0.15168459
0.15691627
0.16225305
0.16768452
0.17319683
0.17877164
0.18438498
0.19000566
0.19559366
0.20109855
0.20645814
0.2115972
0.21642667
0.22084431
0.22473624
0.22798028
0.23045173
0.23203003
0.23260668
0.23209124
0.23041594
0.22754053
0.22345582
0.218185
0.21178436
0.20434785
0.19602008
0.1870332
0.17780054
0.16856903
0.15894788
0.14874851
0.13802994
0.12689015
0.1154321
0.10376316
0.092000015
0.080267577
0.068711429
0.057501098
0.04682341
0.036874196
0.027853211
0.019955454
0.013394917
0.0084596902
0.0055663337
0.00466317
0.0045228639
0.0044853318
0.0044577221
0.0044325845
0.0044092482
0.0043875609
0.0043674007
0.0043486531
0.0043312106
0.004315025
0.0043000603
0.0042863193
0.0042737979
0.0042624299
0.0042520651
0.0042425593
0.004233728
0.0042255688
0.0042180348
0.0042114234
0.0042054927
0.0042000805
0.0041953329
0.0041918491
0.004188073
0.0041924092
0.046997939
0.048960785
0.050999844
0.053115544
0.055309013
0.057581665
0.059935128
0.062371214
0.064891889
0.067499268
0.070195598
0.072983264
0.075864782
0.078842794
0.081920056
0.085099417
0.088383788
0.091776096
0.095279242
0.098896044
0.10262917
0.10648112
0.11045414
0.1145502
0.11877092
0.12311757
0.12759093
0.13219125
0.13691814
0.14177034
0.14674558
0.15184028
0.15704922
0.16236509
0.16777798
0.17327461
0.17883739
0.18444326
0.19006219
0.1956556
0.2011747
0.20655906
0.21173543
0.21661677
0.22110239
0.22507976
0.22842694
0.2310184
0.23273144
0.23345394
0.23309093
0.23156958
0.22884409
0.22489947
0.21975348
0.2134572
0.20609728
0.19780593
0.18878791
0.17941053
0.17005878
0.16045567
0.15029727
0.13960865
0.12848522
0.11702945
0.10534838
0.093558163
0.081782565
0.070165219
0.05887381
0.048094297
0.038022548
0.02885951
0.020801111
0.014058745
0.0089115642
0.0057686497
0.0047010281
0.0045291794
0.0044887925
0.0044607689
0.0044354037
0.0044118704
0.0043900033
0.0043696796
0.0043507832
0.0043332043
0.0043168933
0.0043018118
0.0042879619
0.004275339
0.0042638778
0.0042534282
0.0042438465
0.0042349468
0.0042267264
0.0042191373
0.0042124843
0.0042065262
0.0042010945
0.0041963361
0.0041928512
0.0041890797
0.0041933747
0.048156585
0.05009117
0.05210145
0.054187834
0.056351473
0.058593808
0.060916505
0.063321416
0.065810558
0.0683861
0.071050353
0.073805766
0.07665492
0.079600521
0.08264539
0.085792432
0.089044611
0.092404903
0.095876252
0.099461512
0.1031634
0.10698443
0.1109269
0.11499281
0.11918383
0.12350127
0.12794598
0.13251828
0.13721784
0.14204354
0.14699324
0.15206359
0.15724962
0.16254438
0.1679384
0.17341896
0.17896916
0.18456684
0.19018309
0.19578067
0.20131239
0.20671962
0.21193103
0.21686161
0.22141239
0.2254721
0.22891948
0.23162821
0.23347371
0.23434039
0.23412883
0.23276124
0.23018638
0.22638335
0.2213644
0.21517547
0.2078967
0.19964947
0.1906169
0.18111527
0.17159875
0.16198213
0.15186205
0.14120413
0.13009793
0.11864541
0.10695323
0.09513698
0.083319387
0.07164217
0.060271074
0.049391031
0.039197807
0.029893361
0.021674806
0.014751313
0.0093937086
0.0060002483
0.0047483467
0.0045364427
0.0044923408
0.0044638429
0.0044382427
0.00441451
0.0043924605
0.0043719713
0.004352924
0.0043352076
0.00431877
0.0043035708
0.0042896108
0.0042768858
0.0042653307
0.0042547958
0.0042451376
0.0042361693
0.0042278878
0.0042202439
0.0042135498
0.0042075643
0.0042021134
0.0041973437
0.0041938567
0.0041900882
0.0041943365
0.049408499
0.05131357
0.053293855
0.055349738
0.057482394
0.059693294
0.06198414
0.064356829
0.066813428
0.06935616
0.071987397
0.074709652
0.07752557
0.080437922
0.083449591
0.086563541
0.089782789
0.093110362
0.09654925
0.10010234
0.10377239
0.10756197
0.11147337
0.11550866
0.11966955
0.1239574
0.12837311
0.13291707
0.13758903
0.14238798
0.14731193
0.1523577
0.1575206
0.16279399
0.16816883
0.17363291
0.17917
0.18475879
0.19037141
0.19597197
0.2015148
0.20694303
0.21218724
0.21716444
0.22177753
0.22591649
0.22946096
0.23228411
0.23425957
0.23526856
0.23520724
0.23399301
0.23156924
0.22790917
0.2230193
0.2169405
0.209747
0.2015507
0.19251719
0.18291733
0.17320983
0.16353193
0.15344343
0.14281661
0.13172849
0.1202802
0.1085779
0.096736674
0.084878222
0.073142447
0.06169307
0.050713833
0.040400246
0.030955127
0.022576916
0.015473003
0.0099064094
0.0062627439
0.0048073405
0.004544965
0.0044959983
0.0044669427
0.0044411006
0.004417165
0.0043949314
0.0043742747
0.0043550753
0.0043372201
0.0043206545
0.0043053366
0.0042912658
0.004278438
0.0042667883
0.0042561675
0.0042464325
0.0042373955
0.0042290529
0.0042213544
0.0042146197
0.0042086071
0.0042031368
0.0041983555
0.0041948653
0.0041910981
0.0041952945
0.050759865
0.052634095
0.054583093
0.056607213
0.058707652
0.060885917
0.063143747
0.065483082
0.06790604
0.0704149
0.073012092
0.075700192
0.078481911
0.081360084
0.084337654
0.087417645
0.090603129
0.093897185
0.097302846
0.10082304
0.10446057
0.10821803
0.11209776
0.11610186
0.12023209
0.12448985
0.12887611
0.13339131
0.13803531
0.14280717
0.14770505
0.15272595
0.15786542
0.16311714
0.16847242
0.17391958
0.17944302
0.1850222
0.19063031
0.19623267
0.20178513
0.20723252
0.21250733
0.21752857
0.22220107
0.2264162
0.23005453
0.23298909
0.23509185
0.23624103
0.23632856
0.23526706
0.23299461
0.22947863
0.2247198
0.21875371
0.21164915
0.20350984
0.19448668
0.18481439
0.17491318
0.16511398
0.15504239
0.14444639
0.13337715
0.12193404
0.1102226
0.098357425
0.086459244
0.074666202
0.063139966
0.052062912
0.04163014
0.032045155
0.023507825
0.016224172
0.010449967
0.0065574277
0.0048805413
0.004555159
0.0044997937
0.0044700706
0.004443978
0.0044198359
0.0043974158
0.0043765902
0.0043572368
0.0043392411
0.0043225461
0.0043071088
0.0042929265
0.0042799949
0.0042682501
0.0042575429
0.0042477307
0.0042386249
0.0042302213
0.0042224686
0.0042156938
0.0042096541
0.0042041644
0.0041993712
0.0041958766
0.0041921091
0.0041962482
0.052217112
0.054059105
0.055975453
0.057966474
0.060033392
0.062177744
0.064401311
0.066706077
0.069094211
0.071568047
0.074130075
0.076782934
0.079529398
0.082372366
0.085314843
0.088359913
0.091510703
0.094770342
0.098141907
0.10162838
0.10523259
0.10895717
0.11280451
0.11677674
0.12087567
0.12510273
0.12945897
0.13394491
0.13856044
0.14330477
0.14817618
0.15317183
0.15828749
0.16351714
0.16885246
0.17428221
0.1797914
0.18536027
0.19096295
0.19656596
0.2021266
0.20759135
0.21289457
0.21795727
0.22268627
0.2269745
0.23070341
0.23374622
0.23597341
0.23726046
0.23749524
0.23658563
0.23446448
0.23109352
0.22646751
0.22061658
0.2136043
0.2055273
0.19652405
0.18680167
0.17672431
0.16674391
0.15666085
0.14609381
0.13504422
0.12360713
0.11188752
0.099999403
0.088062619
0.076213603
0.064611939
0.053438479
0.042887759
0.033163794
0.024467904
0.01700517
0.011024757
0.0068852721
0.0049707907
0.0045675797
0.0045037675
0.0044732317
0.0044468736
0.0044225214
0.0043999137
0.0043789163
0.0043594073
0.0043412694
0.0043244442
0.0043088867
0.0042945921
0.0042815563
0.0042697158
0.0042589217
0.004249032
0.0042398573
0.0042313929
0.0042235862
0.0042167717
0.0042107051
0.0042051962
0.0042003902
0.0041968902
0.0041931207
0.0041971977
0.053786878
0.055595173
0.057477448
0.059433973
0.061465991
0.063575082
0.065763062
0.068031966
0.07038401
0.072821587
0.075347246
0.077963686
0.080673747
0.083480392
0.086386686
0.089395774
0.092510839
0.095735056
0.09907156
0.10252337
0.10609335
0.10978418
0.11359829
0.11753786
0.12160472
0.12580038
0.13012592
0.13458193
0.13916841
0.14388465
0.14872906
0.15369897
0.15879036
0.16399746
0.16931231
0.17472412
0.18021844
0.18577623
0.19137255
0.19697507
0.20254244
0.20802278
0.21335227
0.21845389
0.22323647
0.22759467
0.23141084
0.23455859
0.23690722
0.23832958
0.2387098
0.23795102
0.23598094
0.23275567
0.22826409
0.22253063
0.21561369
0.20760369
0.19862858
0.18887415
0.17864975
0.1684452
0.15830278
0.1477594
0.13672992
0.12529968
0.11357286
0.1016628
0.089688518
0.077784823
0.066109162
0.05484074
0.044173355
0.034311375
0.025457532
0.017816389
0.011631104
0.0072469832
0.0050811911
0.0045829634
0.0045079765
0.0044764266
0.004449787
0.0044252217
0.0044024234
0.0043812524
0.004361586
0.0043433048
0.0043263485
0.0043106697
0.0042962624
0.0042831217
0.004271185
0.0042603036
0.0042503362
0.0042410924
0.0042325673
0.0042247071
0.0042178533
0.00421176
0.0042062316
0.0042014125
0.0041979056
0.0041941328
0.0041981427
0.055475971
0.057249066
0.059095783
0.061016352
0.063012039
0.065084454
0.067235458
0.069467131
0.071781745
0.074181745
0.076669744
0.079248502
0.081920923
0.084690032
0.087558958
0.090530905
0.093609107
0.096796805
0.10009716
0.10351325
0.10704799
0.11070408
0.11448402
0.11838999
0.1224239
0.12658731
0.13088134
0.13530667
0.13986337
0.14455084
0.14936762
0.15431118
0.15937771
0.1645617
0.16985551
0.17524874
0.18072749
0.18627341
0.19186242
0.19746327
0.20303593
0.2085301
0.21388376
0.21902179
0.22385503
0.22827998
0.23218012
0.23542937
0.23789627
0.23945119
0.23997479
0.23936559
0.23754611
0.23446698
0.23011123
0.22449741
0.21767865
0.20973979
0.20079994
0.19102785
0.18068802
0.17024478
0.15997638
0.14944399
0.13843452
0.12701194
0.1152788
0.10334783
0.091337121
0.079380019
0.0676318
0.056269884
0.045487179
0.035488233
0.026477103
0.018658234
0.012269336
0.0076430603
0.0052149785
0.0046022723
0.0045124966
0.0044796586
0.0044527187
0.0044279363
0.0044049445
0.0043835985
0.0043637728
0.0043453473
0.0043282587
0.0043124573
0.0042979364
0.0042846907
0.0042726573
0.0042616883
0.0042516428
0.00424233
0.0042337444
0.0042258309
0.0042189382
0.0042128185
0.0042072704
0.0042024374
0.0041989224
0.0041951449
0.0041990833
0.057291336
0.059027683
0.060837321
0.06272043
0.064678296
0.066712565
0.068825143
0.071018155
0.073293926
0.07565496
0.078103931
0.080643661
0.083277117
0.08600739
0.088837669
0.091771216
0.094811332
0.09796129
0.10122432
0.10460353
0.10810189
0.11172214
0.11546681
0.11933815
0.1233381
0.12746827
0.13172986
0.13612361
0.14064968
0.14530756
0.15009592
0.15501242
0.1600534
0.1652136
0.17048567
0.17585961
0.18132204
0.18685523
0.19243591
0.19803387
0.20361037