/*--------------------------------*- C++ -*----------------------------------*\
| =========                 |                                                 |
| \\      /  F ield         | OpenFOAM: The Open Source CFD Toolbox           |
|  \\    /   O peration     | Version:  2406                                  |
|   \\  /    A nd           | Website:  www.openfoam.com                      |
|    \\/     M anipulation  |                                                 |
\*---------------------------------------------------------------------------*/
FoamFile
{
    version     2.0;
    format      ascii;
    arch        "LSB;label=32;scalar=64";
    class       volScalarField;
    location    "0.019";
    object      rho;
}
// * * * * * * * * * * * * * * * * * * * * * * * * * * * * * * * * * * * * * //

dimensions      [1 -3 0 0 0 0 0];

internalField   nonuniform List<scalar> 
23204
(
1.2023874
1.2023915
1.2023945
1.2023964
1.2023972
1.2022542
1.2022694
1.2022837
1.2022971
1.2023096
1.2023212
1.2023321
1.2023421
1.2023514
1.20236
1.2023678
1.2023748
1.2023809
1.202386
1.2023901
1.2023931
1.202395
1.2023958
1.2017889
1.2018229
1.2018557
1.2018873
1.2019178
1.2019473
1.2019755
1.2020027
1.2020287
1.2020538
1.2020778
1.2021008
1.2021228
1.2021439
1.2021641
1.2021835
1.202202
1.2022197
1.2022366
1.2022527
1.2022678
1.2022821
1.2022955
1.2023081
1.2023197
1.2023306
1.2023407
1.20235
1.2023586
1.2023664
1.2023734
1.2023795
1.2023846
1.2023886
1.2023916
1.2023936
1.2023944
1.1998354
1.199922
1.2000068
1.2000899
1.2001713
1.2002509
1.2003284
1.2004039
1.2004776
1.2005496
1.2006201
1.200689
1.2007559
1.2008207
1.2008838
1.2009454
1.2010053
1.2010631
1.2011197
1.2011747
1.2012276
1.2012795
1.2013302
1.201379
1.2014267
1.2014721
1.2015167
1.2015592
1.2015995
1.2016404
1.2016792
1.2017163
1.2017526
1.2017876
1.2018215
1.2018543
1.2018859
1.2019163
1.2019458
1.201974
1.2020011
1.2020272
1.2020522
1.2020762
1.2020992
1.2021212
1.2021423
1.2021626
1.2021819
1.2022005
1.2022182
1.2022351
1.2022511
1.2022663
1.2022806
1.202294
1.2023066
1.2023183
1.2023291
1.2023392
1.2023485
1.2023571
1.2023649
1.2023719
1.202378
1.2023832
1.2023872
1.2023902
1.2023922
1.202393
1.196078
1.1962158
1.1963498
1.1964805
1.1966085
1.1967343
1.1968583
1.1969809
1.1971022
1.1972225
1.1973417
1.19746
1.1975773
1.1976936
1.1978091
1.1979236
1.198037
1.1981493
1.1982605
1.1983705
1.1984792
1.1985868
1.1986929
1.1987977
1.198901
1.1990028
1.1991031
1.1992018
1.199299
1.1993946
1.1994887
1.1995811
1.199672
1.1997611
1.1998483
1.1999339
1.2000177
1.2000998
1.2001802
1.2002588
1.2003356
1.2004104
1.2004835
1.2005549
1.2006248
1.200693
1.2007593
1.2008237
1.2008864
1.2009476
1.2010073
1.2010648
1.201121
1.2011753
1.2012283
1.20128
1.2013303
1.2013792
1.2014259
1.2014709
1.2015155
1.2015591
1.2015998
1.2016398
1.2016783
1.2017149
1.2017515
1.2017865
1.2018202
1.2018529
1.2018845
1.2019149
1.2019443
1.2019726
1.2019996
1.2020256
1.2020507
1.2020747
1.2020976
1.2021197
1.2021408
1.202161
1.2021804
1.2021989
1.2022166
1.2022335
1.2022496
1.2022648
1.2022791
1.2022925
1.2023051
1.2023168
1.2023277
1.2023378
1.2023471
1.2023557
1.2023635
1.2023705
1.2023766
1.2023817
1.2023858
1.2023888
1.2023908
1.2023916
1.1961794
1.196313
1.1964429
1.1965696
1.1966938
1.1968159
1.1969363
1.1970554
1.1971733
1.1972903
1.1974063
1.1975215
1.1976358
1.1977492
1.1978618
1.1979736
1.1980843
1.1981941
1.1983028
1.1984103
1.1985167
1.198622
1.198726
1.1988288
1.1989301
1.19903
1.1991285
1.1992256
1.1993211
1.1994152
1.1995077
1.1995987
1.1996882
1.1997761
1.1998622
1.1999466
1.2000293
1.2001104
1.2001898
1.2002676
1.2003435
1.2004176
1.2004901
1.2005608
1.20063
1.2006975
1.2007633
1.2008272
1.2008894
1.2009502
1.2010095
1.2010667
1.2011225
1.2011765
1.2012293
1.2012806
1.2013307
1.2013791
1.2014249
1.2014705
1.201516
1.2015586
1.2015995
1.2016393
1.2016773
1.2017146
1.2017505
1.2017855
1.2018191
1.2018517
1.2018832
1.2019136
1.201943
1.2019712
1.2019982
1.2020242
1.2020492
1.2020732
1.2020961
1.2021181
1.2021393
1.2021595
1.2021789
1.2021974
1.2022151
1.202232
1.2022481
1.2022633
1.2022776
1.202291
1.2023036
1.2023153
1.2023262
1.2023363
1.2023456
1.2023542
1.2023621
1.2023691
1.2023752
1.2023803
1.2023844
1.2023874
1.2023894
1.2023902
1.1962845
1.1964138
1.1965394
1.196662
1.1967822
1.1969005
1.1970172
1.1971326
1.197247
1.1973605
1.1974733
1.1975853
1.1976965
1.197807
1.1979166
1.1980255
1.1981336
1.1982407
1.1983468
1.1984519
1.1985559
1.1986589
1.1987606
1.1988613
1.1989606
1.1990586
1.1991553
1.1992506
1.1993444
1.1994369
1.1995279
1.1996174
1.1997055
1.199792
1.1998769
1.1999602
1.2000418
1.2001218
1.2002002
1.200277
1.2003521
1.2004255
1.2004972
1.2005672
1.2006357
1.2007026
1.2007677
1.2008312
1.2008929
1.2009532
1.2010121
1.201069
1.2011243
1.2011781
1.2012306
1.2012815
1.2013313
1.2013794
1.2014251
1.2014709
1.2015157
1.2015575
1.2015985
1.2016391
1.2016771
1.2017141
1.2017501
1.2017843
1.2018181
1.2018505
1.201882
1.2019124
1.2019417
1.2019698
1.2019968
1.2020228
1.2020478
1.2020718
1.2020947
1.2021167
1.2021378
1.202158
1.2021774
1.2021959
1.2022136
1.2022305
1.2022466
1.2022618
1.2022761
1.2022896
1.2023022
1.2023139
1.2023248
1.2023349
1.2023442
1.2023528
1.2023606
1.2023676
1.2023737
1.2023789
1.202383
1.202386
1.202388
1.2023888
1.1963933
1.1965179
1.1966391
1.1967575
1.1968737
1.196988
1.1971008
1.1972125
1.1973233
1.1974333
1.1975427
1.1976514
1.1977595
1.1978668
1.1979735
1.1980795
1.1981847
1.1982891
1.1983926
1.1984952
1.1985968
1.1986973
1.1987968
1.1988953
1.1989926
1.1990886
1.1991834
1.1992768
1.199369
1.1994598
1.1995492
1.1996372
1.1997239
1.199809
1.1998926
1.1999747
1.2000551
1.2001341
1.2002114
1.2002872
1.2003614
1.200434
1.200505
1.2005743
1.200642
1.2007082
1.2007727
1.2008356
1.2008968
1.2009567
1.2010151
1.2010716
1.2011265
1.2011799
1.2012322
1.2012828
1.201332
1.20138
1.201426
1.201471
1.2015147
1.2015574
1.2015988
1.2016381
1.201677
1.2017138
1.2017491
1.201784
1.2018172
1.2018495
1.201881
1.2019113
1.2019405
1.2019686
1.2019955
1.2020215
1.2020464
1.2020704
1.2020933
1.2021153
1.2021363
1.2021566
1.2021759
1.2021944
1.2022121
1.202229
1.2022451
1.2022603
1.2022747
1.2022881
1.2023007
1.2023125
1.2023234
1.2023335
1.2023428
1.2023514
1.2023592
1.2023662
1.2023723
1.2023775
1.2023816
1.2023846
1.2023866
1.2023875
1.1963816
1.1965055
1.1966254
1.1967421
1.1968561
1.196968
1.1970782
1.1971872
1.197295
1.1974021
1.1975086
1.1976145
1.1977198
1.1978246
1.1979288
1.1980324
1.1981354
1.1982377
1.1983393
1.1984402
1.1985402
1.1986393
1.1987374
1.1988346
1.1989308
1.1990259
1.1991199
1.1992127
1.1993043
1.1993947
1.1994839
1.1995716
1.1996581
1.1997432
1.1998269
1.1999092
1.19999
1.2000693
1.2001471
1.2002234
1.2002982
1.2003714
1.2004432
1.2005134
1.2005819
1.2006489
1.2007143
1.2007782
1.2008405
1.2009012
1.2009606
1.2010184
1.2010745
1.2011291
1.2011822
1.2012341
1.2012844
1.2013332
1.2013809
1.2014269
1.2014715
1.2015148
1.201558
1.2015989
1.2016375
1.2016758
1.2017131
1.2017487
1.2017836
1.2018168
1.2018484
1.20188
1.2019103
1.2019394
1.2019674
1.2019943
1.2020202
1.2020451
1.2020691
1.202092
1.2021139
1.2021349
1.2021551
1.2021745
1.202193
1.2022107
1.2022276
1.2022437
1.2022589
1.2022732
1.2022867
1.2022993
1.202311
1.2023219
1.202332
1.2023414
1.20235
1.2023578
1.2023648
1.2023709
1.2023761
1.2023802
1.2023832
1.2023852
1.2023861
1.1965021
1.196621
1.1967361
1.1968482
1.1969577
1.1970653
1.1971713
1.1972761
1.1973801
1.1974834
1.1975862
1.1976885
1.1977905
1.1978919
1.1979929
1.1980933
1.1981932
1.1982926
1.1983914
1.1984895
1.1985868
1.1986834
1.1987791
1.1988739
1.1989678
1.1990607
1.1991526
1.1992434
1.1993331
1.1994217
1.1995091
1.1995952
1.1996801
1.1997636
1.1998459
1.1999268
1.2000063
1.2000844
1.200161
1.2002362
1.2003099
1.2003822
1.2004531
1.2005224
1.2005902
1.2006564
1.200721
1.2007842
1.2008459
1.2009061
1.2009649
1.2010222
1.2010779
1.201132
1.2011848
1.2012363
1.2012863
1.2013348
1.201382
1.2014279
1.2014724
1.2015156
1.2015579
1.2015984
1.2016371
1.2016752
1.201713
1.2017489
1.2017835
1.2018159
1.2018476
1.2018792
1.2019093
1.2019383
1.2019663
1.2019931
1.2020191
1.2020439
1.2020678
1.2020907
1.2021126
1.2021336
1.2021538
1.2021731
1.2021916
1.2022093
1.2022262
1.2022422
1.2022574
1.2022718
1.2022853
1.2022979
1.2023096
1.2023205
1.2023306
1.20234
1.2023486
1.2023564
1.2023634
1.2023695
1.2023747
1.2023788
1.2023818
1.2023838
1.2023847
1.196626
1.1967397
1.1968498
1.1969571
1.197062
1.1971652
1.1972669
1.1973677
1.1974676
1.1975671
1.1976661
1.1977648
1.1978632
1.1979613
1.1980589
1.1981562
1.198253
1.1983493
1.1984452
1.1985405
1.1986351
1.1987292
1.1988224
1.1989148
1.1990063
1.199097
1.1991867
1.1992755
1.1993632
1.1994499
1.1995355
1.1996199
1.1997031
1.1997851
1.1998658
1.1999453
1.2000235
1.2001003
1.2001757
1.2002498
1.2003225
1.2003938
1.2004636
1.2005321
1.200599
1.2006644
1.2007283
1.2007908
1.2008519
1.2009114
1.2009696
1.2010263
1.2010816
1.2011353
1.2011877
1.2012388
1.2012885
1.2013366
1.2013835
1.2014292
1.2014734
1.2015164
1.2015578
1.2015985
1.2016378
1.2016757
1.2017129
1.2017483
1.2017822
1.2018152
1.2018475
1.2018785
1.2019084
1.2019373
1.2019652
1.2019921
1.202018
1.2020428
1.2020666
1.2020894
1.2021113
1.2021323
1.2021524
1.2021717
1.2021902
1.2022079
1.2022248
1.2022408
1.202256
1.2022704
1.2022839
1.2022965
1.2023082
1.2023191
1.2023292
1.2023386
1.2023472
1.202355
1.202362
1.2023681
1.2023733
1.2023774
1.2023804
1.2023824
1.2023833
1.1967529
1.1968613
1.1969664
1.1970688
1.197169
1.1972677
1.1973651
1.1974616
1.1975575
1.197653
1.1977482
1.1978432
1.197938
1.1980326
1.1981269
1.1982209
1.1983146
1.1984079
1.1985008
1.1985932
1.1986851
1.1987764
1.1988671
1.1989571
1.1990462
1.1991346
1.1992222
1.1993088
1.1993945
1.1994793
1.199563
1.1996456
1.1997272
1.1998076
1.1998868
1.1999648
1.2000416
1.2001171
1.2001913
1.2002642
1.2003358
1.200406
1.2004749
1.2005424
1.2006085
1.200673
1.2007362
1.2007979
1.2008583
1.2009172
1.2009748
1.2010309
1.2010856
1.201139
1.201191
1.2012417
1.201291
1.2013388
1.2013853
1.2014307
1.2014746
1.2015174
1.2015586
1.2015992
1.2016383
1.2016757
1.2017122
1.2017476
1.201782
1.2018155
1.2018476
1.2018776
1.2019074
1.2019365
1.2019643
1.2019911
1.2020169
1.2020417
1.2020654
1.2020882
1.2021101
1.202131
1.2021511
1.2021704
1.2021889
1.2022065
1.2022234
1.2022395
1.2022547
1.202269
1.2022825
1.2022951
1.2023068
1.2023178
1.2023279
1.2023372
1.2023458
1.2023536
1.2023606
1.2023667
1.2023719
1.202376
1.202379
1.2023811
1.2023819
1.1968825
1.1969856
1.1970855
1.197183
1.1972785
1.1973726
1.1974656
1.1975579
1.1976497
1.1977412
1.1978325
1.1979237
1.1980149
1.1981059
1.1981968
1.1982875
1.198378
1.1984682
1.198558
1.1986475
1.1987366
1.1988253
1.1989134
1.1990008
1.1990876
1.1991736
1.1992589
1.1993435
1.1994271
1.1995099
1.1995917
1.1996725
1.1997524
1.1998311
1.1999087
1.1999853
1.2000606
1.2001348
1.2002077
1.2002794
1.2003499
1.200419
1.2004869
1.2005534
1.2006185
1.2006822
1.2007446
1.2008055
1.2008652
1.2009235
1.2009804
1.201036
1.2010902
1.201143
1.2011946
1.2012449
1.2012938
1.2013413
1.2013874
1.2014324
1.201476
1.2015186
1.2015596
1.2015997
1.2016384
1.201676
1.2017124
1.2017476
1.2017821
1.2018149
1.2018467
1.2018777
1.2019069
1.2019355
1.2019634
1.2019902
1.202016
1.2020407
1.2020643
1.2020871
1.2021089
1.2021298
1.2021499
1.2021692
1.2021876
1.2022052
1.2022221
1.2022381
1.2022533
1.2022676
1.2022811
1.2022937
1.2023055
1.2023164
1.2023265
1.2023358
1.2023444
1.2023522
1.2023592
1.2023653
1.2023705
1.2023746
1.2023776
1.2023797
1.2023806
1.1970148
1.1971124
1.1972071
1.1972996
1.1973904
1.1974798
1.1975684
1.1976563
1.1977439
1.1978314
1.1979187
1.1980062
1.1980936
1.1981811
1.1982686
1.198356
1.1984432
1.1985302
1.198617
1.1987035
1.1987897
1.1988756
1.1989611
1.199046
1.1991303
1.199214
1.199297
1.1993794
1.1994609
1.1995417
1.1996216
1.1997006
1.1997786
1.1998556
1.1999317
1.2000067
1.2000806
1.2001533
1.200225
1.2002955
1.2003647
1.2004328
1.2004995
1.2005651
1.2006292
1.2006921
1.2007536
1.2008138
1.2008727
1.2009303
1.2009866
1.2010415
1.2010951
1.2011475
1.2011986
1.2012484
1.2012969
1.2013441
1.2013898
1.2014344
1.2014777
1.2015199
1.2015608
1.2016005
1.2016391
1.2016764
1.2017128
1.2017474
1.2017813
1.2018151
1.2018472
1.201877
1.201906
1.201935
1.2019627
1.2019893
1.2020151
1.2020397
1.2020633
1.2020861
1.2021079
1.2021287
1.2021487
1.2021679
1.2021863
1.2022039
1.2022208
1.2022368
1.202252
1.2022663
1.2022798
1.2022924
1.2023041
1.202315
1.2023251
1.2023345
1.202343
1.2023508
1.2023578
1.2023639
1.2023691
1.2023732
1.2023763
1.2023783
1.2023792
1.1971493
1.1972414
1.1973309
1.1974184
1.1975043
1.1975891
1.1976732
1.1977568
1.1978402
1.1979235
1.198007
1.1980905
1.1981743
1.1982581
1.1983421
1.1984261
1.19851
1.1985939
1.1986776
1.1987611
1.1988444
1.1989275
1.1990102
1.1990926
1.1991744
1.1992557
1.1993364
1.1994166
1.199496
1.1995747
1.1996526
1.1997297
1.1998059
1.1998812
1.1999556
1.200029
1.2001014
1.2001727
1.2002431
1.2003123
1.2003803
1.2004472
1.2005129
1.2005774
1.2006406
1.2007025
1.2007631
1.2008225
1.2008807
1.2009376
1.2009931
1.2010474
1.2011005
1.2011523
1.201203
1.2012523
1.2013004
1.2013471
1.2013925
1.2014368
1.2014797
1.2015215
1.2015621
1.2016016
1.20164
1.2016771
1.201713
1.2017476
1.2017819
1.2018148
1.2018462
1.2018766
1.201906
1.201935
1.2019622
1.2019884
1.2020143
1.2020388
1.2020623
1.2020851
1.2021068
1.2021276
1.2021476
1.2021668
1.2021851
1.2022027
1.2022195
1.2022355
1.2022507
1.202265
1.2022785
1.2022911
1.2023028
1.2023137
1.2023238
1.2023331
1.2023417
1.2023495
1.2023565
1.2023626
1.2023677
1.2023718
1.2023749
1.202377
1.2023778
1.1972859
1.1973725
1.1974568
1.1975392
1.1976202
1.1977003
1.1977799
1.1978591
1.1979383
1.1980175
1.198097
1.1981767
1.1982566
1.1983369
1.1984173
1.1984979
1.1985785
1.1986591
1.1987397
1.1988202
1.1989006
1.1989808
1.1990608
1.1991405
1.1992198
1.1992987
1.1993771
1.199455
1.1995322
1.1996088
1.1996847
1.1997599
1.1998342
1.1999078
1.1999805
1.2000523
1.2001231
1.200193
1.200262
1.2003299
1.2003967
1.2004624
1.200527
1.2005904
1.2006526
1.2007135
1.2007733
1.2008318
1.2008892
1.2009453
1.2010002
1.2010539
1.2011063
1.2011576
1.2012077
1.2012566
1.2013042
1.2013505
1.2013955
1.2014394
1.201482
1.2015234
1.2015637
1.2016029
1.201641
1.2016779
1.2017136
1.2017483
1.201782
1.201814
1.201846
1.2018768
1.2019063
1.2019347
1.2019614
1.2019879
1.2020136
1.202038
1.2020614
1.2020842
1.2021059
1.2021266
1.2021465
1.2021656
1.2021839
1.2022015
1.2022183
1.2022343
1.2022494
1.2022637
1.2022772
1.2022897
1.2023015
1.2023124
1.2023225
1.2023318
1.2023403
1.2023481
1.2023551
1.2023612
1.2023663
1.2023705
1.2023735
1.2023756
1.2023765
1.1974242
1.1975053
1.1975843
1.1976617
1.1977379
1.1978133
1.1978883
1.1979632
1.1980381
1.1981133
1.1981887
1.1982645
1.1983407
1.1984172
1.1984941
1.1985712
1.1986485
1.1987258
1.1988033
1.1988808
1.1989582
1.1990356
1.1991128
1.1991898
1.1992666
1.199343
1.199419
1.1994946
1.1995696
1.1996441
1.199718
1.1997912
1.1998636
1.1999354
1.2000063
1.2000765
1.2001458
1.2002142
1.2002817
1.2003483
1.2004139
1.2004784
1.2005418
1.2006041
1.2006652
1.2007252
1.200784
1.2008417
1.2008982
1.2009536
1.2010078
1.2010608
1.2011126
1.2011633
1.2012128
1.2012612
1.2013083
1.2013542
1.2013988
1.2014423
1.2014845
1.2015255
1.2015655
1.2016045
1.2016422
1.2016789
1.2017144
1.2017489
1.2017821
1.2018143
1.2018461
1.2018767
1.2019058
1.2019339
1.2019613
1.2019877
1.202013
1.2020373
1.2020606
1.2020833
1.2021049
1.2021256
1.2021455
1.2021645
1.2021828
1.2022003
1.2022171
1.202233
1.2022482
1.2022625
1.2022759
1.2022885
1.2023002
1.2023111
1.2023212
1.2023305
1.202339
1.2023468
1.2023538
1.2023598
1.202365
1.2023691
1.2023722
1.2023742
1.2023751
1.1975639
1.1976397
1.1977134
1.1977858
1.1978571
1.1979279
1.1979983
1.1980688
1.1981395
1.1982105
1.198282
1.1983539
1.1984263
1.1984991
1.1985724
1.198646
1.1987199
1.198794
1.1988684
1.1989428
1.1990173
1.1990917
1.1991662
1.1992405
1.1993146
1.1993885
1.1994621
1.1995354
1.1996082
1.1996805
1.1997523
1.1998235
1.1998941
1.199964
1.2000332
1.2001016
1.2001693
1.2002363
1.2003023
1.2003675
1.2004318
1.200495
1.2005572
1.2006184
1.2006785
1.2007375
1.2007953
1.2008521
1.2009078
1.2009624
1.2010158
1.2010681
1.2011193
1.2011694
1.2012183
1.2012661
1.2013128
1.2013582
1.2014024
1.2014455
1.2014873
1.201528
1.2015676
1.2016062
1.2016437
1.2016801
1.2017154
1.2017497
1.2017826
1.2018148
1.201846
1.2018762
1.2019056
1.2019335
1.2019616
1.2019875
1.2020124
1.2020366
1.2020599
1.2020825
1.2021041
1.2021247
1.2021445
1.2021635
1.2021817
1.2021992
1.2022159
1.2022318
1.202247
1.2022612
1.2022746
1.2022872
1.2022989
1.2023098
1.2023199
1.2023292
1.2023377
1.2023454
1.2023524
1.2023585
1.2023636
1.2023678
1.2023708
1.2023729
1.2023738
1.1977049
1.1977752
1.1978438
1.1979111
1.1979777
1.1980438
1.1981097
1.1981759
1.1982423
1.1983092
1.1983767
1.1984447
1.1985133
1.1985824
1.1986521
1.1987222
1.1987928
1.1988636
1.1989348
1.1990061
1.1990776
1.1991492
1.1992209
1.1992925
1.199364
1.1994353
1.1995065
1.1995773
1.1996479
1.199718
1.1997877
1.1998569
1.1999255
1.1999935
1.2000609
1.2001277
1.2001938
1.2002592
1.2003237
1.2003875
1.2004504
1.2005124
1.2005734
1.2006334
1.2006924
1.2007504
1.2008073
1.2008631
1.2009179
1.2009717
1.2010244
1.2010759
1.2011265
1.2011759
1.2012242
1.2012715
1.2013176
1.2013625
1.2014063
1.2014489
1.2014904
1.2015307
1.2015699
1.2016082
1.2016454
1.2016816
1.2017166
1.2017506
1.2017833
1.2018154
1.2018461
1.2018764
1.2019059
1.2019336
1.2019611
1.2019869
1.2020119
1.2020361
1.2020592
1.2020818
1.2021033
1.2021239
1.2021436
1.2021625
1.2021807
1.2021981
1.2022148
1.2022307
1.2022458
1.20226
1.2022734
1.202286
1.2022977
1.2023085
1.2023186
1.2023279
1.2023364
1.2023441
1.2023511
1.2023572
1.2023623
1.2023664
1.2023695
1.2023716
1.2023725
1.1978466
1.1979117
1.1979752
1.1980376
1.1980993
1.1981608
1.1982223
1.1982841
1.1983463
1.1984092
1.1984726
1.1985368
1.1986016
1.1986671
1.1987332
1.1987998
1.1988669
1.1989345
1.1990025
1.1990708
1.1991393
1.199208
1.1992768
1.1993456
1.1994145
1.1994833
1.199552
1.1996204
1.1996887
1.1997566
1.1998241
1.1998913
1.1999579
1.200024
1.2000897
1.2001547
1.2002191
1.2002829
1.200346
1.2004083
1.2004698
1.2005305
1.2005903
1.2006491
1.200707
1.2007639
1.2008198
1.2008747
1.2009286
1.2009815
1.2010334
1.2010842
1.201134
1.2011828
1.2012305
1.2012772
1.2013227
1.2013672
1.2014105
1.2014527
1.2014937
1.2015337
1.2015726
1.2016105
1.2016474
1.2016832
1.2017179
1.2017517
1.2017843
1.201816
1.2018466
1.201877
1.201906
1.2019332
1.2019602
1.2019866
1.2020122
1.202036
1.2020586
1.2020811
1.2021026
1.2021231
1.2021427
1.2021616
1.2021797
1.2021971
1.2022137
1.2022296
1.2022446
1.2022589
1.2022722
1.2022848
1.2022964
1.2023073
1.2023173
1.2023266
1.2023351
1.2023428
1.2023498
1.2023558
1.202361
1.2023651
1.2023682
1.2023703
1.2023712
1.1979889
1.1980488
1.1981073
1.1981648
1.1982219
1.1982788
1.1983359
1.1983934
1.1984515
1.1985102
1.1985697
1.19863
1.1986911
1.1987529
1.1988154
1.1988786
1.1989423
1.1990066
1.1990714
1.1991366
1.1992021
1.1992679
1.1993339
1.1994
1.1994662
1.1995324
1.1995986
1.1996646
1.1997305
1.1997962
1.1998616
1.1999266
1.1999913
1.2000555
1.2001193
1.2001826
1.2002453
1.2003075
1.200369
1.2004298
1.20049
1.2005493
1.2006078
1.2006655
1.2007222
1.200778
1.2008329
1.2008868
1.2009398
1.2009918
1.2010429
1.201093
1.2011421
1.2011902
1.2012372
1.2012832
1.2013282
1.2013721
1.201415
1.2014567
1.2014974
1.2015369
1.2015755
1.201613
1.2016496
1.2016851
1.2017195
1.201753
1.2017853
1.2018169
1.2018474
1.2018773
1.2019058
1.2019334
1.2019605
1.2019867
1.2020115
1.2020353
1.2020583
1.2020806
1.2021019
1.2021223
1.2021419
1.2021607
1.2021788
1.2021961
1.2022127
1.2022285
1.2022435
1.2022577
1.2022711
1.2022836
1.2022952
1.2023061
1.2023161
1.2023254
1.2023338
1.2023416
1.2023485
1.2023545
1.2023597
1.2023638
1.2023669
1.202369
1.2023699
1.1981315
1.1981863
1.1982399
1.1982927
1.1983451
1.1983976
1.1984503
1.1985036
1.1985575
1.1986122
1.1986678
1.1987242
1.1987816
1.1988398
1.1988987
1.1989585
1.1990188
1.1990799
1.1991415
1.1992036
1.1992661
1.1993289
1.1993921
1.1994555
1.199519
1.1995826
1.1996463
1.1997099
1.1997735
1.1998369
1.1999001
1.199963
1.2000257
1.2000879
1.2001499
1.2002114
1.2002724
1.2003329
1.2003928
1.2004522
1.2005109
1.2005689
1.2006261
1.2006825
1.2007381
1.2007928
1.2008466
1.2008995
1.2009516
1.2010027
1.2010529
1.2011022
1.2011506
1.2011979
1.2012443
1.2012897
1.2013341
1.2013775
1.2014198
1.2014611
1.2015013
1.2015405
1.2015786
1.2016158
1.201652
1.2016872
1.2017213
1.2017544
1.2017866
1.2018179
1.2018483
1.2018775
1.2019061
1.201934
1.2019605
1.2019862
1.2020114
1.2020354
1.202058
1.2020801
1.2021013
1.2021217
1.2021412
1.2021599
1.2021779
1.2021952
1.2022117
1.2022274
1.2022424
1.2022566
1.2022699
1.2022824
1.2022941
1.2023049
1.2023149
1.2023241
1.2023326
1.2023403
1.2023472
1.2023532
1.2023584
1.2023625
1.2023656
1.2023677
1.2023686
1.198274
1.1983239
1.1983727
1.1984208
1.1984688
1.1985169
1.1985653
1.1986144
1.1986643
1.198715
1.1987667
1.1988194
1.198873
1.1989276
1.1989831
1.1990394
1.1990964
1.1991542
1.1992126
1.1992716
1.1993311
1.199391
1.1994514
1.199512
1.1995729
1.1996339
1.199695
1.1997562
1.1998174
1.1998785
1.1999395
1.2000003
1.2000609
1.2001213
1.2001813
1.200241
1.2003003
1.2003591
1.2004175
1.2004753
1.2005325
1.2005891
1.200645
1.2007002
1.2007546
1.2008081
1.2008609
1.2009128
1.2009639
1.2010141
1.2010635
1.2011119
1.2011595
1.2012061
1.2012518
1.2012965
1.2013403
1.2013831
1.201425
1.2014658
1.2015055
1.2015443
1.201582
1.2016188
1.2016546
1.2016895
1.2017233
1.2017561
1.201788
1.201819
1.2018492
1.2018782
1.2019068
1.2019342
1.2019605
1.2019863
1.202011
1.2020354
1.202058
1.2020796
1.2021008
1.2021211
1.2021405
1.2021591
1.2021771
1.2021943
1.2022107
1.2022264
1.2022414
1.2022555
1.2022688
1.2022813
1.2022929
1.2023037
1.2023137
1.2023229
1.2023314
1.202339
1.2023459
1.202352
1.2023571
1.2023612
1.2023643
1.2023664
1.2023673
1.1984163
1.1984614
1.1985055
1.1985491
1.1985927
1.1986365
1.1986808
1.1987258
1.1987716
1.1988185
1.1988663
1.1989152
1.1989652
1.1990163
1.1990683
1.1991212
1.1991749
1.1992294
1.1992847
1.1993406
1.1993971
1.1994541
1.1995116
1.1995695
1.1996277
1.1996861
1.1997448
1.1998035
1.1998623
1.1999211
1.1999799
1.2000386
1.2000971
1.2001555
1.2002136
1.2002715
1.200329
1.2003862
1.2004429
1.2004992
1.2005549
1.2006101
1.2006646
1.2007185
1.2007717
1.2008241
1.2008758
1.2009267
1.2009767
1.201026
1.2010745
1.2011221
1.2011689
1.2012147
1.2012597
1.2013038
1.201347
1.2013892
1.2014304
1.2014707
1.20151
1.2015483
1.2015857
1.2016221
1.2016575
1.201692
1.2017255
1.201758
1.2017897
1.2018204
1.2018503
1.2018791
1.2019072
1.2019345
1.2019611
1.2019867
1.2020111
1.2020351
1.2020577
1.2020792
1.2021004
1.2021206
1.2021399
1.2021584
1.2021763
1.2021935
1.2022098
1.2022255
1.2022404
1.2022545
1.2022678
1.2022802
1.2022918
1.2023026
1.2023125
1.2023217
1.2023302
1.2023378
1.2023447
1.2023507
1.2023558
1.2023599
1.202363
1.2023651
1.202366
1.198558
1.1985984
1.198638
1.1986772
1.1987165
1.1987562
1.1987964
1.1988374
1.1988794
1.1989224
1.1989665
1.1990118
1.1990582
1.1991057
1.1991542
1.1992038
1.1992542
1.1993055
1.1993576
1.1994105
1.199464
1.1995181
1.1995728
1.1996279
1.1996835
1.1997393
1.1997954
1.1998517
1.1999081
1.1999646
1.2000212
1.2000777
1.2001342
1.2001906
1.2002468
1.2003028
1.2003586
1.200414
1.2004691
1.2005238
1.200578
1.2006318
1.2006849
1.2007375
1.2007895
1.2008407
1.2008913
1.2009411
1.2009901
1.2010384
1.201086
1.2011328
1.2011787
1.2012238
1.2012681
1.2013114
1.2013539
1.2013956
1.2014363
1.201476
1.2015148
1.2015527
1.2015896
1.2016256
1.2016606
1.2016948
1.2017279
1.2017601
1.2017914
1.2018218
1.2018515
1.2018801
1.201908
1.2019351
1.2019616
1.2019868
1.2020109
1.2020349
1.2020578
1.2020793
1.2021001
1.2021201
1.2021394
1.2021578
1.2021756
1.2021927
1.202209
1.2022246
1.2022394
1.2022535
1.2022667
1.2022791
1.2022907
1.2023014
1.2023114
1.2023206
1.202329
1.2023366
1.2023435
1.2023495
1.2023546
1.2023587
1.2023617
1.2023638
1.2023648
1.1986989
1.1987348
1.19877
1.198805
1.1988402
1.1988758
1.1989121
1.1989492
1.1989874
1.1990267
1.1990671
1.1991088
1.1991516
1.1991957
1.1992408
1.199287
1.1993343
1.1993824
1.1994314
1.1994812
1.1995317
1.199583
1.1996348
1.1996872
1.1997401
1.1997933
1.1998469
1.1999007
1.1999548
1.200009
1.2000634
1.2001178
1.2001722
1.2002265
1.2002808
1.200335
1.2003889
1.2004426
1.2004961
1.2005492
1.2006019
1.2006541
1.2007059
1.2007572
1.2008078
1.2008579
1.2009073
1.200956
1.2010041
1.2010514
1.201098
1.2011439
1.201189
1.2012333
1.2012768
1.2013195
1.2013613
1.2014023
1.2014424
1.2014816
1.2015199
1.2015573
1.2015938
1.2016293
1.201664
1.2016977
1.2017305
1.2017624
1.2017934
1.2018235
1.2018528
1.2018812
1.2019089
1.2019359
1.2019619
1.2019872
1.2020114
1.2020351
1.2020579
1.202079
1.2020998
1.2021198
1.2021389
1.2021573
1.2021749
1.2021919
1.2022082
1.2022237
1.2022385
1.2022525
1.2022657
1.2022781
1.2022896
1.2023004
1.2023103
1.2023194
1.2023278
1.2023354
1.2023423
1.2023482
1.2023533
1.2023574
1.2023605
1.2023626
1.2023635
1.1988386
1.1988702
1.1989013
1.1989322
1.1989634
1.1989951
1.1990275
1.1990609
1.1990954
1.1991311
1.199168
1.1992061
1.1992455
1.1992862
1.199328
1.1993709
1.1994149
1.1994599
1.1995058
1.1995526
1.1996002
1.1996486
1.1996976
1.1997473
1.1997975
1.1998482
1.1998992
1.1999506
1.2000023
1.2000543
1.2001064
1.2001586
1.2002109
1.2002633
1.2003156
1.2003679
1.2004201
1.200472
1.2005238
1.2005753
1.2006264
1.2006772
1.2007276
1.2007775
1.2008268
1.2008757
1.2009239
1.2009715
1.2010185
1.2010649
1.2011105
1.2011555
1.2011998
1.2012433
1.201286
1.2013279
1.2013691
1.2014094
1.2014489
1.2014875
1.2015253
1.2015622
1.2015982
1.2016334
1.2016676
1.2017009
1.2017334
1.2017649
1.2017956
1.2018254
1.2018544
1.2018826
1.20191
1.2019368
1.2019626
1.2019878
1.2020117
1.2020352
1.2020578
1.2020789
1.2020997
1.2021195
1.2021386
1.2021568
1.2021743
1.2021913
1.2022075
1.2022229
1.2022376
1.2022516
1.2022648
1.2022771
1.2022886
1.2022993
1.2023092
1.2023183
1.2023267
1.2023343
1.2023411
1.202347
1.2023521
1.2023562
1.2023593
1.2023614
1.2023623
1.198977
1.1990046
1.1990316
1.1990586
1.199086
1.1991139
1.1991427
1.1991725
1.1992034
1.1992355
1.1992689
1.1993037
1.1993397
1.199377
1.1994155
1.1994552
1.1994961
1.1995379
1.1995808
1.1996246
1.1996693
1.1997149
1.1997611
1.1998081
1.1998556
1.1999037
1.1999523
1.2000013
1.2000506
1.2001003
1.2001502
1.2002003
1.2002505
1.2003008
1.2003512
1.2004016
1.2004519
1.2005022
1.2005522
1.2006021
1.2006517
1.2007009
1.2007499
1.2007984
1.2008465
1.2008941
1.2009411
1.2009876
1.2010335
1.2010788
1.2011235
1.2011676
1.201211
1.2012536
1.2012956
1.2013368
1.2013772
1.2014169
1.2014557
1.2014938
1.201531
1.2015674
1.201603
1.2016376
1.2016714
1.2017043
1.2017364
1.2017676
1.2017979
1.2018274
1.2018561
1.201884
1.2019113
1.2019378
1.2019635
1.2019883
1.202012
1.2020353
1.2020578
1.2020793
1.2020997
1.2021193
1.2021382
1.2021564
1.2021738
1.2021907
1.2022068
1.2022221
1.2022368
1.2022507
1.2022638
1.2022761
1.2022876
1.2022983
1.2023081
1.2023172
1.2023255
1.2023331
1.2023399
1.2023458
1.2023509
1.202355
1.2023581
1.2023602
1.2023611
1.1991138
1.1991375
1.1991608
1.199184
1.1992077
1.1992321
1.1992573
1.1992836
1.199311
1.1993398
1.1993698
1.1994012
1.199434
1.199468
1.1995033
1.1995399
1.1995776
1.1996165
1.1996564
1.1996972
1.1997391
1.1997818
1.1998253
1.1998695
1.1999145
1.19996
1.2000061
1.2000527
1.2000997
1.200147
1.2001947
1.2002426
1.2002908
1.2003391
1.2003875
1.200436
1.2004845
1.200533
1.2005814
1.2006296
1.2006776
1.2007253
1.2007728
1.20082
1.2008667
1.200913
1.2009589
1.2010042
1.201049
1.2010933
1.201137
1.2011801
1.2012226
1.2012645
1.2013056
1.201346
1.2013857
1.2014247
1.2014629
1.2015003
1.201537
1.2015729
1.201608
1.2016422
1.2016755
1.201708
1.2017397
1.2017705
1.2018005
1.2018296
1.201858
1.2018857
1.2019127
1.201939
1.2019644
1.201989
1.2020127
1.2020357
1.202058
1.2020795
1.2020997
1.2021191
1.202138
1.202156
1.2021734
1.2021901
1.2022061
1.2022214
1.202236
1.2022499
1.2022629
1.2022752
1.2022866
1.2022973
1.2023071
1.2023162
1.2023245
1.202332
1.2023388
1.2023447
1.2023497
1.2023538
1.2023569
1.202359
1.2023599
1.1992492
1.199269
1.1992886
1.1993083
1.1993285
1.1993494
1.1993712
1.1993941
1.1994182
1.1994437
1.1994705
1.1994987
1.1995282
1.1995591
1.1995913
1.1996248
1.1996595
1.1996954
1.1997323
1.1997703
1.1998093
1.1998492
1.19989
1.1999316
1.1999739
1.2000169
1.2000606
1.2001047
1.2001494
1.2001945
1.2002399
1.2002857
1.2003318
1.2003781
1.2004246
1.2004712
1.2005178
1.2005645
1.2006112
1.2006577
1.2007041
1.2007504
1.2007964
1.2008421
1.2008875
1.2009326
1.2009772
1.2010214
1.2010651
1.2011083
1.201151
1.2011932
1.2012347
1.2012757
1.201316
1.2013557
1.2013946
1.2014329
1.2014704
1.2015073
1.2015434
1.2015787
1.2016132
1.201647
1.2016798
1.2017119
1.2017431
1.2017736
1.2018032
1.201832
1.2018601
1.2018875
1.2019142
1.2019403
1.2019655
1.2019899
1.2020135
1.2020362
1.2020583
1.2020795
1.2020998
1.2021193
1.2021379
1.2021558
1.202173
1.2021896
1.2022055
1.2022208
1.2022353
1.2022491
1.2022621
1.2022743
1.2022857
1.2022963
1.2023061
1.2023151
1.2023234
1.2023309
1.2023376
1.2023435
1.2023485
1.2023526
1.2023557
1.2023578
1.2023587
1.1993821
1.1993987
1.1994149
1.1994312
1.1994481
1.1994657
1.1994842
1.1995039
1.1995249
1.1995471
1.1995708
1.1995958
1.1996223
1.1996502
1.1996794
1.1997099
1.1997416
1.1997745
1.1998086
1.1998438
1.19988
1.1999171
1.1999552
1.1999942
1.2000339
1.2000744
1.2001156
1.2001574
1.2001997
1.2002425
1.2002858
1.2003295
1.2003735
1.2004178
1.2004623
1.200507
1.2005518
1.2005967
1.2006416
1.2006865
1.2007314
1.2007761
1.2008206
1.2008649
1.2009089
1.2009527
1.2009961
1.2010391
1.2010817
1.2011238
1.2011655
1.2012066
1.2012473
1.2012874
1.2013269
1.2013657
1.2014039
1.2014414
1.2014783
1.2015145
1.20155
1.2015848
1.2016188
1.201652
1.2016844
1.201716
1.2017469
1.2017769
1.2018062
1.2018347
1.2018624
1.2018895
1.2019159
1.2019417
1.2019667
1.2019909
1.2020143
1.2020367
1.2020588
1.2020799
1.2021001
1.2021193
1.2021376
1.2021556