/*--------------------------------*- C++ -*----------------------------------*\
| =========                 |                                                 |
| \\      /  F ield         | OpenFOAM: The Open Source CFD Toolbox           |
|  \\    /   O peration     | Version:  2406                                  |
|   \\  /    A nd           | Website:  www.openfoam.com                      |
|    \\/     M anipulation  |                                                 |
\*---------------------------------------------------------------------------*/
FoamFile
{
    version     2.0;
    format      ascii;
    arch        "LSB;label=32;scalar=64";
    class       volVectorField;
    location    "0.019";
    object      U;
}
// * * * * * * * * * * * * * * * * * * * * * * * * * * * * * * * * * * * * * //

dimensions      [0 1 -1 0 0 0 0];

internalField   nonuniform List<vector> 
23204
(
(51.067044 0.11737696 6.7947025e-23)
(51.060919 0.092076113 -6.6396274e-23)
(51.056428 0.066428643 -1.3332999e-19)
(51.053315 0.04019164 0)
(51.052092 0.0133722 1.2807854e-19)
(51.277036 0.39836277 6.2893136e-27)
(51.252561 0.3795022 1.7342255e-19)
(51.229603 0.3601722 1.7037861e-19)
(51.208133 0.34037587 -3.2629251e-22)
(51.188118 0.32009956 3.2021893e-22)
(51.169532 0.29935392 -1.6061478e-19)
(51.15235 0.27811475 0)
(51.136551 0.25642116 -3.0159464e-22)
(51.122117 0.23422456 1.5170166e-19)
(51.109049 0.21160801 -1.4830904e-19)
(51.097339 0.18846644 1.4555943e-19)
(51.087021 0.16495254 -1.4286036e-19)
(51.078068 0.14085532 0)
(51.070577 0.11642142 2.2789655e-25)
(51.064451 0.091338543 0)
(51.059958 0.065898785 -1.3191331e-19)
(51.056843 0.03987873 1.5789042e-23)
(51.055611 0.013262437 1.2670174e-19)
(52.076676 0.64964852 9.964611e-22)
(52.016644 0.64133628 6.2529565e-20)
(51.959009 0.63238787 -1.2357297e-19)
(51.903632 0.62279695 1.8784163e-21)
(51.850472 0.61259732 -1.1878457e-19)
(51.799428 0.60178505 -1.1553706e-19)
(51.75046 0.59037156 -1.1323607e-19)
(51.703516 0.57836975 1.1098721e-19)
(51.658488 0.56579505 -1.0880798e-19)
(51.615324 0.55266274 -1.9902545e-25)
(51.57402 0.53898649 1.046134e-19)
(51.534541 0.52478648 1.0258001e-19)
(51.496837 0.51009254 -7.8583444e-22)
(51.460873 0.49491843 1.5410877e-21)
(51.426633 0.47926582 -1.511115e-21)
(51.394097 0.46313968 7.4085177e-22)
(51.363237 0.44654112 -9.2985017e-20)
(51.334028 0.42946517 0)
(51.306445 0.41190955 8.9401418e-20)
(51.280447 0.39387277 0)
(51.255995 0.37535739 -1.7190965e-19)
(51.233055 0.35635682 -1.6889172e-19)
(51.2116 0.33687521 3.2280923e-22)
(51.191598 0.31689959 1.6174369e-19)
(51.173024 0.29644116 1.5952319e-19)
(51.155852 0.27547688 -3.0430706e-22)
(51.140062 0.2540465 0)
(51.125637 0.23210303 -1.4979206e-19)
(51.112576 0.20973005 1.4701562e-19)
(51.100872 0.18682552 -1.4063235e-22)
(51.09056 0.16354099 0)
(51.081611 0.13967033 0)
(51.074123 0.1154548 1.3574817e-19)
(51.067998 0.09059245 0)
(51.063502 0.065362965 1.3050792e-19)
(51.060387 0.039562139 0)
(51.059146 0.013151629 -2.0367363e-25)
(55.555875 0.166314 -5.768388e-20)
(55.404471 0.21290369 -1.243087e-19)
(55.255713 0.25650457 7.2937818e-25)
(55.109913 0.2974158 5.4214105e-20)
(54.967437 0.33521748 3.5401261e-21)
(54.827796 0.37146404 -5.8952796e-20)
(54.691226 0.40415751 5.7745107e-20)
(54.556652 0.4354937 -1.0980092e-19)
(54.425153 0.46367431 3.2587775e-21)
(54.297281 0.48922711 -1.0216754e-19)
(54.171638 0.51303784 2.6122661e-25)
(54.049782 0.53387395 0)
(53.931199 0.55390197 4.8028526e-20)
(53.814759 0.57121991 -1.5604476e-25)
(53.702016 0.58804215 0)
(53.590824 0.60138627 0)
(53.482008 0.61362576 4.4259728e-20)
(53.379435 0.62491566 4.4725186e-20)
(53.27844 0.63771217 -1.3281303e-21)
(53.180336 0.64315148 -1.301677e-21)
(53.084716 0.65258452 8.0769759e-20)
(52.990163 0.65642686 0)
(52.89995 0.65705654 1.2256184e-21)
(52.811654 0.6613665 7.5683825e-20)
(52.726858 0.66029582 5.8853295e-26)
(52.644125 0.65900509 7.5037654e-20)
(52.564782 0.65480349 -1.3078289e-19)
(52.488201 0.65309963 -6.7299695e-20)
(52.41269 0.65740908 -6.7018351e-20)
(52.340868 0.65479492 -6.6285126e-20)
(52.272535 0.64777754 6.5882116e-20)
(52.205403 0.64608774 -6.5622215e-20)
(52.140714 0.64006586 0)
(52.078607 0.63364711 0)
(52.018749 0.62620035 6.2822816e-20)
(51.961269 0.61809004 1.2034826e-19)
(51.906002 0.60931103 1.1892573e-19)
(51.852961 0.59988865 1.1659855e-19)
(51.802025 0.58981651 1.1519396e-19)
(51.75315 0.57911685 1.1202796e-19)
(51.706301 0.56779993 -1.1066003e-19)
(51.661361 0.55587766 2.1528977e-19)
(51.618271 0.5433702 -1.9083267e-25)
(51.577028 0.53029273 -1.0268594e-19)
(51.537607 0.51666207 -1.030682e-19)
(51.499954 0.50250738 1.0028701e-19)
(51.464036 0.48784529 0)
(51.429837 0.47267739 -9.5676944e-20)
(51.397343 0.45700801 0)
(51.366524 0.4408401 9.1990751e-20)
(51.337353 0.4241715 9.0200608e-20)
(51.309803 0.40700194 0)
(51.283836 0.38933108 0)
(51.25941 0.37116466 1.7007121e-19)
(51.236493 0.35249724 1.6675996e-19)
(51.215056 0.33333401 -1.638318e-19)
(51.195072 0.31366269 -4.4202564e-27)
(51.176512 0.29349493 -1.5689701e-19)
(51.159354 0.27280881 -3.0105779e-22)
(51.143576 0.25164466 5.9037809e-22)
(51.12916 0.22995722 1.4804652e-19)
(51.11611 0.20783059 1.3563193e-27)
(51.104414 0.18516582 -1.4260814e-19)
(51.094109 0.16211327 1.3641759e-22)
(51.085165 0.13847177 1.3683372e-19)
(51.07768 0.11447752 0)
(51.071558 0.089838085 -6.429676e-23)
(51.06706 0.064821321 6.3043404e-23)
(51.063944 0.039241919 0)
(51.062695 0.013039782 -1.2402658e-19)
(61.840927 -3.6457588 0)
(61.64025 -3.4777776 0)
(61.436267 -3.3130724 0)
(61.230256 -3.1517231 -2.8023661e-20)
(61.023297 -2.9937918 3.4395198e-20)
(60.81626 -2.8393213 -6.7529579e-21)
(60.609818 -2.6883305 -6.6303314e-21)
(60.40441 -2.5408162 5.856895e-20)
(60.2002 -2.3967757 -3.1934553e-20)
(59.997113 -2.2562855 -1.8804821e-20)
(59.795105 -2.1194472 1.8448742e-20)
(59.594454 -1.986266 -4.8270906e-20)
(59.395749 -1.8566155 1.1837988e-20)
(59.199318 -1.730406 4.0640893e-20)
(59.004902 -1.6076084 -2.2775796e-20)
(58.812228 -1.4882937 1.6751117e-20)
(58.621543 -1.3727146 -2.1902423e-20)
(58.432751 -1.2608164 1.0737442e-20)
(58.245605 -1.152667 -5.2631686e-21)
(58.060255 -1.0483019 3.6120307e-20)
(57.87654 -0.94729987 -3.5405758e-20)
(57.694848 -0.84997 -7.9324762e-20)
(57.515198 -0.75630506 3.8872949e-20)
(57.336971 -0.66674623 -3.8097531e-20)
(57.160772 -0.58148664 1.2479918e-24)
(56.987145 -0.49969321 0)
(56.815916 -0.42076289 0)
(56.646813 -0.34564758 4.3911703e-21)
(56.479643 -0.27357166 -4.3019173e-21)
(56.314946 -0.2052287 -4.2152521e-21)
(56.153081 -0.13973334 3.7164707e-20)
(55.993386 -0.077785597 2.8318852e-20)
(55.836071 -0.018763863 3.9629548e-21)
(55.681654 0.036408577 -5.3503371e-25)
(55.529303 0.08916628 1.2170127e-19)
(55.379968 0.13860715 5.9606953e-20)
(55.233213 0.1852928 -5.4739079e-20)
(55.0893 0.22863969 -3.5744736e-21)
(54.948381 0.26933812 0)
(54.810315 0.30787511 5.4877292e-20)
(54.675202 0.34344634 0)
(54.542121 0.37740223 1.0531127e-19)
(54.412206 0.40770389 -3.8442087e-25)
(54.285531 0.43587859 5.0527137e-20)
(54.161201 0.4620091 -4.9497693e-20)
(54.040364 0.48491277 0)
(53.922646 0.50704247 -4.7506274e-20)
(53.807055 0.52687003 4.9452533e-20)
(53.695231 0.54533818 -5.1301753e-20)
(53.585211 0.56155717 4.1887502e-21)
(53.477134 0.57477062 9.3421285e-26)
(53.37437 0.58642262 -1.3405799e-21)
(53.274378 0.60140162 0)
(53.177094 0.60900528 8.2402458e-20)
(53.081524 0.61993569 -1.2619387e-21)
(52.988801 0.62488843 1.2367803e-21)
(52.898866 0.62993553 -7.6376168e-20)
(52.810851 0.630943 -1.1883e-21)
(52.72687 0.63234466 6.5991677e-26)
(52.644359 0.63171337 6.9598657e-20)
(52.564874 0.63593017 1.9931044e-26)
(52.487681 0.63644105 -6.660945e-20)
(52.412718 0.63632459 0)
(52.342242 0.63025535 -1.0409461e-21)
(52.273165 0.62552728 -6.1810214e-20)
(52.206009 0.62892412 6.4912639e-20)
(52.142227 0.62434803 0)
(52.080381 0.61751215 -9.7511847e-22)
(52.020659 0.61087689 -1.2306672e-25)
(51.963341 0.60365085 9.3738183e-22)
(51.908198 0.59568318 -1.7970467e-25)
(51.855287 0.58705105 0)
(51.804475 0.57772503 -1.1395708e-19)
(51.755706 0.56774579 1.1169442e-19)
(51.708963 0.55712116 1.0862703e-19)
(51.664121 0.54585752 -1.0565912e-19)
(51.621115 0.5339808 -1.0441465e-19)
(51.579944 0.52150829 -7.9986523e-22)
(51.540589 0.50845302 1.0039413e-19)
(51.502997 0.49484266 -9.767332e-20)
(51.467133 0.48069698 -1.5082519e-21)
(51.432984 0.46601814 1.5150069e-25)
(51.400539 0.45080969 7.2506763e-22)
(51.369768 0.43507621 -9.13595e-20)
(51.340641 0.41881858 3.48405e-22)
(51.313131 0.40203882 0)
(51.287199 0.38473883 0)
(51.262805 0.36692509 -3.3616686e-19)
(51.239915 0.34859445 -1.6529442e-19)
(51.218501 0.32975322 1.6144366e-19)
(51.198536 0.31038975 -1.5829875e-19)
(51.179995 0.29051607 -3.0374916e-22)
(51.162852 0.27011135 -1.5189251e-19)
(51.147089 0.24921642 1.4951659e-19)
(51.132687 0.22778789 -1.4688884e-19)
(51.119648 0.20591037 -1.4374476e-19)
(51.107962 0.18348801 1.4080467e-19)
(51.097666 0.16067 1.3495456e-22)
(51.088729 0.13726021 -2.7099949e-19)
(51.08125 0.11348955 0)
(51.07513 0.089075379 -6.3607715e-23)
(51.070631 0.064273817 3.118379e-23)
(51.067516 0.038918055 3.0576339e-23)
(51.066259 0.012926893 -1.2269677e-19)
(61.660733 -3.8449316 -2.9266088e-20)
(61.466918 -3.6725 0)
(61.269685 -3.5034337 0)
(61.070294 -3.3378011 2.7706652e-20)
(60.869808 -3.1756544 -2.7204195e-20)
(60.669079 -3.0170258 0)
(60.46876 -2.8619235 3.2777127e-20)
(60.269286 -2.7103335 -3.2169458e-20)
(60.070854 -2.5622462 2.5260259e-20)
(59.873448 -2.4177242 2.4786312e-20)
(59.677014 -2.2768785 6.0807478e-21)
(59.48176 -2.1397785 2.3861287e-20)
(59.288215 -2.0063749 7.9562267e-25)
(59.096708 -1.8765358 -2.86984e-20)
(58.907062 -1.7501803 0)
(58.719104 -1.6273459 0)
(58.533045 -1.5082197 -5.4138366e-21)
(58.348757 -1.3926938 5.3075438e-21)
(58.166038 -1.2810484 0)
(57.984836 -1.1732018 -3.5709735e-20)
(57.805069 -1.0688611 -5.0005556e-21)
(57.627272 -0.96818792 3.9213764e-20)
(57.451518 -0.87107537 0)
(57.277311 -0.77794035 -3.7669884e-20)
(57.104848 -0.68917765 -7.3832103e-20)
(56.934429 -0.60402435 4.0698703e-20)
(56.766309 -0.52198817 -3.9879992e-20)
(56.600314 -0.44367738 4.3420296e-21)
(56.436112 -0.36850992 -4.2538659e-21)
(56.274222 -0.2971597 0)
(56.114998 -0.22878438 0)
(55.957871 -0.16375132 -6.4009295e-20)
(55.803106 -0.10188421 0)
(55.65103 -0.043553171 -5.6384874e-25)
(55.500874 0.012146714 -1.2411623e-19)
(55.353675 0.064397422 -5.5265456e-20)
(55.209047 0.11400371 0)
(55.067098 0.15993959 0)
(54.927845 0.20356017 0)
(54.791422 0.24437639 5.4275609e-20)
(54.657772 0.28271927 0)
(54.526342 0.31894382 -5.2078894e-20)
(54.398027 0.35162011 -4.1633805e-25)
(54.272586 0.38228686 0)
(54.14966 0.41068616 0)
(54.029924 0.43598527 -2.997732e-21)
(53.913062 0.46019823 2.9366622e-21)
(53.798438 0.48235778 4.6036562e-20)
(53.687534 0.50249948 9.021016e-20)
(53.578755 0.52126223 0)
(53.471798 0.53608892 0)
(53.36894 0.54881822 -2.6522097e-21)
(53.269586 0.56468352 2.5989151e-21)
(53.172966 0.57458815 -8.150723e-20)
(53.078164 0.58695238 0)
(52.986497 0.59331096 -1.2234277e-21)
(52.897365 0.60217999 7.794521e-20)
(52.809825 0.60340842 0)
(52.725945 0.61182256 1.4291628e-19)
(52.643958 0.61576605 1.0730101e-21)
(52.564585 0.61584694 6.9235193e-20)
(52.487644 0.61116123 6.9482935e-20)
(52.413556 0.60969442 6.149297e-20)
(52.342896 0.60569717 6.2389e-20)
(52.272981 0.61142561 1.9420434e-21)
(52.206369 0.60764573 -1.2500478e-19)
(52.143582 0.6043845 -9.8373045e-22)
(52.08193 0.60084382 -3.8527898e-26)
(52.022313 0.59551481 -5.9580736e-20)
(51.965236 0.58905805 0)
(51.910205 0.58193192 -9.0933211e-22)
(51.857449 0.57408861 8.9136808e-22)
(51.806775 0.56551457 2.2371202e-19)
(51.758123 0.55626216 -1.7241974e-25)
(51.711498 0.54633682 0)
(51.666763 0.53573764 0)
(51.623852 0.5244974 0)
(51.582764 0.51263569 0)
(51.543484 0.50016152 0)
(51.505963 0.48710038 0)
(51.470162 0.47347526 9.5489858e-20)
(51.436072 0.45928959 9.4364456e-20)
(51.403684 0.44454611 -1.4345551e-21)
(51.372967 0.42925075 7.0347344e-22)
(51.343892 0.41340763 -8.8273803e-20)
(51.316427 0.39702138 0)
(51.290536 0.38009565 3.3153164e-22)
(51.266178 0.36263837 2.9516434e-25)
(51.243319 0.34464824 -1.6319815e-19)
(51.221932 0.32613262 4.7380736e-27)
(51.201991 0.30708056 1.5659716e-19)
(51.183471 0.28750442 3.0048376e-22)
(51.166347 0.26738436 1.5084919e-19)
(51.150601 0.24676165 -1.481985e-19)
(51.136215 0.22559492 1.4502694e-19)
(51.123191 0.20396925 2.8453861e-19)
(51.111517 0.18179196 -2.7231907e-22)
(51.101231 0.15921104 1.3350421e-22)
(51.092303 0.13603548 1.340437e-19)
(51.084831 0.1124909 0)
(51.078715 0.088304372 1.2886833e-19)
(51.074216 0.063720481 0)
(51.071101 0.038590559 0)
(51.069837 0.012812966 1.2137795e-19)
(61.473871 -4.0392271 5.7876432e-20)
(61.287181 -3.8626009 2.841718e-20)
(61.09694 -3.6894093 3.48797e-20)
(60.904395 -3.5197123 -6.8487509e-21)
(60.71059 -3.3535526 2.017552e-20)
(60.516364 -3.1909532 -1.9808279e-20)
(60.322351 -3.0319174 -3.2404359e-20)
(60.128989 -2.8764333 -8.8146292e-25)
(59.936508 -2.7245008 -4.3703178e-20)
(59.74495 -2.5761842 2.4507197e-20)
(59.55427 -2.4315913 2.4046193e-20)
(59.364622 -2.2908146 -1.7693219e-20)
(59.176447 -2.1538245 -5.7849579e-21)
(58.990043 -2.02047 5.6750258e-21)
(58.805319 -1.89065 -5.5651561e-21)
(58.622188 -1.7643801 -2.1832517e-20)
(58.440836 -1.6417924 0)
(58.26118 -1.5227968 5.247942e-21)
(58.083037 -1.4077474 -4.6304521e-20)
(57.906143 -1.2964991 -4.0350833e-20)
(57.730492 -1.1889484 0)
(57.556674 -1.085141 3.877172e-20)
(57.384825 -0.98488694 -4.7503918e-21)
(57.214658 -0.88843801 4.1898447e-20)
(57.046043 -0.79624558 4.5614024e-21)
(56.879029 -0.70774142 -4.0238865e-20)
(56.714155 -0.62260233 7.0100483e-20)
(56.551345 -0.54105515 0)
(56.390249 -0.46279607 0)
(56.231299 -0.38840927 2.8850138e-20)
(56.07477 -0.31712103 4.037713e-21)
(55.920297 -0.24907222 3.1647658e-20)
(55.768134 -0.18442248 -3.1005199e-20)
(55.61844 -0.12307393 -5.9210258e-25)
(55.470614 -0.064579414 6.3229219e-20)
(55.325622 -0.0095980819 -3.6443258e-21)
(55.183205 0.042747199 0)
(55.043259 0.091353736 -5.5941004e-20)
(54.9058 0.1377747 0)
(54.771107 0.18094288 -5.367784e-20)
(54.639 0.22192537 5.2581797e-20)
(54.509306 0.26025664 5.4727122e-20)
(54.382576 0.29545134 4.4149201e-20)
(54.258461 0.32847443 6.1784669e-21)
(54.136962 0.35912076 -3.0262213e-21)
(54.018386 0.38688528 0)
(53.902469 0.41324624 4.9379641e-20)
(53.788915 0.43750614 -9.3912745e-20)
(53.678935 0.45944149 -4.4612615e-20)
(53.571344 0.48040578 0)
(53.465736 0.49741293 0)
(53.363128 0.51192227 2.6233167e-21)
(53.264241 0.52805197 1.6322918e-25)
(53.168281 0.54025483 -8.3138995e-20)
(53.074338 0.55363842 -7.9014121e-20)
(52.983183 0.56195488 -7.7445055e-20)
(52.894977 0.57295568 1.1861344e-21)
(52.808014 0.57839789 7.3247873e-20)
(52.723701 0.58313747 -7.2879466e-20)
(52.643037 0.58897444 2.1843593e-26)
(52.564716 0.58620649 6.7277091e-20)
(52.487762 0.58906085 1.028821e-21)
(52.413616 0.59207069 -6.2692292e-20)
(52.342807 0.59409811 -6.2908643e-20)
(52.272935 0.59164998 -6.1504048e-20)
(52.207295 0.58945627 9.5886561e-22)
(52.144362 0.58108851 0)
(52.082652 0.58526666 -6.2014226e-20)
(52.023724 0.57958113 5.9869505e-20)
(51.966885 0.57441208 9.1718638e-22)
(51.912028 0.56801315 -1.4922213e-25)
(51.859436 0.56100712 1.1286139e-19)
(51.808919 0.55318953 -1.584389e-25)
(51.760396 0.54466853 -1.084582e-19)
(51.713901 0.53544902 -8.3051667e-22)
(51.669283 0.52551958 8.1413813e-22)
(51.626477 0.51492148 7.9827379e-22)
(51.585483 0.50367608 -7.8272674e-22)
(51.546289 0.49178832 9.8242905e-20)
(51.508847 0.47928104 0)
(51.47312 0.46618039 -1.8892022e-19)
(51.439098 0.4524917 0)
(51.406774 0.43821703 -7.0955025e-22)
(51.37612 0.42336342 1.7950066e-19)
(51.347102 0.40793831 -6.8219491e-22)
(51.319689 0.39194924 -3.3446652e-22)
(51.293844 0.37540164 3.2795105e-22)
(51.269528 0.35830469 1.6464431e-19)
(51.246705 0.34065879 2.762638e-25)
(51.225349 0.32247243 0)
(51.205434 0.30373534 0)
(51.186939 0.28446016 0)
(51.169837 0.264628 1.4922294e-19)
(51.154112 0.24428055 2.8577349e-22)
(51.139744 0.22337847 -2.8020103e-22)
(51.126737 0.20200739 -1.4066744e-19)
(51.115077 0.18007778 0)
(51.104804 0.15773649 0)
(51.095887 0.13479766 1.3259903e-19)
(51.088422 0.11148162 1.300141e-19)
(51.082312 0.087525112 -1.2747989e-19)
(51.077813 0.063161351 0)
(51.0747 0.038259455 0)
(51.073428 0.01269801 -1.2006938e-19)
(61.280513 -4.2282775 -2.8613432e-20)
(61.101183 -4.0477277 -2.8095794e-20)
(60.918159 -3.8706665 3.2833964e-24)
(60.732667 -3.6971451 0)
(60.545739 -3.5272005 -2.65948e-20)
(60.3582 -3.3608501 5.8748763e-20)
(60.170676 -3.1980967 -3.2039352e-20)
(59.983611 -3.0389356 -1.8868744e-20)
(59.797272 -2.883381 1.8516504e-20)
(59.611748 -2.7315015 2.106446e-24)
(59.427002 -2.583396 -1.7827516e-20)
(59.243137 -2.4391588 1.7490877e-20)
(59.060494 -2.298751 2.2878853e-20)
(58.879346 -2.1620233 0)
(58.69968 -2.0288656 5.5024989e-21)
(58.521487 -1.8992858 1.0790973e-20)
(58.34495 -1.7733846 2.1164314e-20)
(58.170047 -1.6510992 -6.3656357e-25)
(57.996588 -1.5327357 5.083828e-21)
(57.824171 -1.4181502 3.9890458e-20)
(57.652843 -1.3074601 -4.8883996e-21)
(57.483149 -1.2006351 -7.6663261e-20)
(57.315251 -1.0974454 4.6960525e-21)
(57.1491 -0.99793593 4.603102e-21)
(56.984374 -0.90247759 6.3153383e-20)
(56.820924 -0.81072694 4.420402e-21)
(56.659403 -0.72251755 -3.4654942e-20)
(56.499851 -0.63777129 -3.3959e-20)
(56.34199 -0.55643985 0)
(56.186103 -0.47897496 -3.2601385e-20)
(56.03236 -0.40473648 0)
(55.880652 -0.33375188 -2.7382915e-20)
(55.731163 -0.26633168 2.6826638e-20)
(55.583919 -0.20210897 2.6280884e-20)
(55.438538 -0.14092725 3.677868e-21)
(55.295831 -0.083297336 1.1890278e-19)
(55.155677 -0.028352175 -6.0004142e-20)
(55.017777 0.022941914 5.5321438e-20)
(54.882233 0.071968867 0)
(54.74935 0.1175652 3.3180245e-21)
(54.618899 0.16104346 -5.2001742e-20)
(54.490985 0.2014906 -5.0940338e-20)
(54.365834 0.23922075 -3.1187427e-21)
(54.243149 0.27451114 3.0554352e-21)
(54.123083 0.30741116 -2.9930183e-21)
(54.005718 0.33757063 0)
(53.89087 0.36610667 -4.5965267e-20)
(53.778479 0.39231713 -2.5115917e-25)
(53.669439 0.41615372 -4.4124584e-20)
(53.562964 0.43904651 0)
(53.45875 0.4584006 0)
(53.35677 0.47518714 4.1513252e-20)
(53.258367 0.49168425 2.5426813e-21)
(53.163025 0.50607076 7.9739402e-20)
(53.069936 0.52027521 -1.7893031e-26)
(52.979199 0.53084535 1.5080617e-19)
(52.891435 0.54265905 -7.6255201e-20)
(52.805737 0.55162038 -7.2448588e-20)
(52.721779 0.5559776 0)
(52.64187 0.56297138 -1.4034763e-19)
(52.563916 0.56629803 -6.7355418e-20)
(52.487356 0.5754577 -1.0180693e-21)
(52.41322 0.5674474 0)
(52.342198 0.57129289 0)
(52.273775 0.57167677 6.086751e-20)
(52.208328 0.56312187 5.9683765e-20)
(52.144417 0.56998015 0)
(52.082909 0.5658299 5.9470743e-20)
(52.024889 0.56588377 -6.1068725e-20)
(51.968461 0.55936873 1.8144618e-21)
(51.913641 0.55405447 -1.1563794e-19)
(51.861246 0.54780874 -1.1076377e-19)
(51.810904 0.54074921 -1.4709796e-25)
(51.762518 0.53296766 0)
(51.716167 0.52446053 1.0515744e-19)
(51.671674 0.51520568 -8.0536697e-22)
(51.628986 0.50525521 7.8962022e-22)
(51.588098 0.49463122 0)
(51.548999 0.48333473 -1.5444596e-25)
(51.511646 0.47138569 7.4447362e-22)
(51.476003 0.45881322 -1.4598253e-21)
(51.442059 0.44562503 7.1578499e-22)
(51.409808 0.43182278 -8.9839383e-20)
(51.379224 0.41741445 -8.7403585e-20)
(51.350271 0.40241081 -1.3496523e-21)
(51.322915 0.38682254 3.3083786e-22)
(51.297122 0.37065695 3.2440572e-22)
(51.272851 0.35392423 0)
(51.250069 0.33662637 1.5969391e-19)
(51.228749 0.3187729 3.0583076e-22)
(51.208866 0.30035431 -2.9986978e-22)
(51.190398 0.28138351 1.508374e-19)
(51.173322 0.2618425 -1.4818707e-19)
(51.15762 0.24177329 2.8268193e-22)
(51.143273 0.22113873 -1.4219042e-19)
(51.130285 0.20002493 2.7177064e-22)
(51.118642 0.17834561 0)
(51.108384 0.15624646 0)
(51.099478 0.13354683 -2.6233297e-19)
(51.092022 0.11046179 -6.3009145e-23)
(51.085919 0.086737655 1.2314688e-22)
(51.081421 0.062596467 -6.0373165e-23)
(51.078311 0.037924764 -1.2126459e-19)
(51.077032 0.012582033 1.1880087e-19)
(61.247345 -4.5993067 -2.8816583e-20)
(61.080828 -4.411682 0)
(60.909079 -4.2275083 0)
(60.733476 -4.0468556 3.3457003e-24)
(60.555233 -3.8697765 0)
(60.37537 -3.6963059 2.6297517e-20)
(60.194699 -3.5264596 2.7796217e-24)
(60.013842 -3.3602413 2.5339061e-20)
(59.833256 -3.1976522 2.4870525e-20)
(59.653245 -3.0387123 -6.1026414e-21)
(59.473931 -2.8834867 -1.7963431e-20)
(59.295285 -2.7320631 0)
(59.117358 -2.5845361 0)
(58.940396 -2.4408645 -4.5234424e-20)
(58.764649 -2.3009231 0)
(58.59018 -2.164597 -5.4397496e-21)
(58.417052 -2.031896 -6.4945744e-25)
(58.24545 -1.9028939 1.0462866e-20)
(58.075386 -1.7775238 6.1287935e-25)
(57.906675 -1.655975 3.0169644e-20)
(57.738887 -1.538149 4.9294084e-21)
(57.572094 -1.4243632 0)
(57.406702 -1.3145542 7.1054875e-20)
(57.242856 -1.2085118 4.6427926e-21)
(57.08071 -1.1061097 0)
(56.919885 -1.0075521 1.4313327e-24)
(56.760117 -0.91269823 -3.9337211e-20)
(56.602044 -0.82149466 -4.6104706e-25)
(56.445819 -0.73368914 3.3574898e-20)
(56.291286 -0.64936778 -2.8787919e-20)
(56.138562 -0.56884445 0)
(55.98773 -0.49166839 0)
(55.83891 -0.41784392 3.4812111e-20)
(55.692181 -0.34765376 -3.4106333e-20)
(55.547481 -0.2806814 -3.7127703e-21)
(55.404651 -0.21688579 3.6369069e-21)
(55.264313 -0.15667019 -6.057139e-20)
(55.126457 -0.099206325 5.9336985e-20)
(54.990669 -0.045247895 -5.1289592e-20)
(54.857146 0.00621419 -3.3493925e-21)
(54.726145 0.054280313 3.2813472e-21)
(54.59746 0.10012022 -3.2141259e-21)
(54.471344 0.14277907 5.0379532e-20)
(54.347792 0.18297458 -5.2437238e-20)
(54.226631 0.22050154 3.0215747e-21)
(54.108017 0.25565915 -4.7363808e-20)
(53.991921 0.28811541 0)
(53.878265 0.3187869 -4.546071e-20)
(53.767113 0.34690267 8.9080891e-20)
(53.659059 0.37269572 8.4553288e-20)
(53.553657 0.39734767 -4.0087923e-20)
(53.450751 0.41890141 0)
(53.349707 0.43813441 -4.105836e-20)
(53.251913 0.45553098 2.5148389e-21)
(53.157156 0.47193851 -2.4644996e-21)
(53.064916 0.48709293 1.5459204e-19)
(52.97474 0.49995959 1.5757156e-25)
(52.887286 0.51200501 2.3205858e-21)
(52.802846 0.52290777 1.2405318e-25)
(52.719561 0.52955279 7.0243264e-20)
(52.639879 0.5374247 -2.6193368e-27)
(52.561717 0.54211232 -1.0672995e-21)
(52.486776 0.54902917 1.0505739e-21)
(52.41335 0.54492209 -6.4636709e-20)
(52.34153 0.54862096 0)
(52.274295 0.54954888 0)
(52.208452 0.55180113 0)
(52.14414 0.54890052 -5.6078725e-20)
(52.083273 0.55146798 -1.8094229e-21)
(52.02587 0.54273104 5.9487346e-20)
(51.969563 0.54478729 -8.9735834e-22)
(51.915008 0.53985296 -3.1643298e-26)
(51.862891 0.53452803 -2.9798858e-26)
(51.812734 0.52821075 -1.0741382e-19)
(51.764487 0.52116171 -1.0612451e-19)
(51.718289 0.51337408 -1.0401999e-19)
(51.673932 0.50479838 0)
(51.631374 0.49550097 0)
(51.590603 0.48550309 0)
(51.55161 0.47480216 -1.9225392e-19)
(51.514357 0.46341548 7.3640244e-22)
(51.478808 0.45137471 9.1703725e-20)
(51.444951 0.43869024 9.0628261e-20)
(51.412783 0.42536377 8.8865653e-20)
(51.382276 0.41140414 0)
(51.353395 0.39682538 0)
(51.326104 0.3816415 8.3778879e-20)
(51.300367 0.3658618 0)
(51.276148 0.34949729 -3.1464962e-22)
(51.253411 0.3325513 3.0851913e-22)
(51.23213 0.31503435 0)
(51.212283 0.29693778 -1.5157397e-19)
(51.193847 0.27827474 -1.492032e-19)
(51.1768 0.2590281 0)
(51.161124 0.23924011 -1.4316571e-19)
(51.146801 0.21887589 2.3018427e-25)
(51.133835 0.19802206 -1.3750524e-19)
(51.122211 0.17659559 -1.3179284e-22)
(51.11197 0.15474107 -1.3232523e-19)
(51.103078 0.13228309 2.5949127e-19)
(51.095632 0.10943148 -2.543085e-19)
(51.089537 0.085942059 -1.2181266e-22)
(51.085041 0.06202587 1.2230495e-19)
(51.081934 0.037586508 2.9471587e-23)
(51.080648 0.012465038 1.1745603e-19)
(61.033652 -4.7800001 7.1236618e-21)
(60.875048 -4.5890325 2.7980494e-20)
(60.71107 -4.4015503 0)
(60.543077 -4.2176084 -2.022696e-20)
(60.372268 -4.0372637 -6.6199923e-21)
(60.199649 -3.8605521 -2.5997223e-20)
(60.026021 -3.6874906 -5.7426168e-20)
(59.852003 -3.5180839 6.2627869e-21)
(59.678065 -3.3523335 2.4590268e-20)
(59.50454 -3.1902538 2.4132367e-20)
(59.331583 -3.0318956 2.3680338e-20)
(59.159179 -2.8773346 -5.8086453e-21)
(58.987332 -2.7266735 1.1396529e-20)
(58.816205 -2.5798928 1.1178632e-20)
(58.646023 -2.4369109 -1.6449473e-20)
(58.476908 -2.2976154 5.3776268e-21)
(58.30899 -2.1620193 -5.2730919e-21)
(58.14244 -2.0301546 -2.0683608e-20)
(57.977271 -1.901916 0)
(57.813334 -1.7773667 0)
(57.650287 -1.6564609 4.3863112e-20)
(57.488199 -1.539641 3.3444002e-20)
(57.327286 -1.4268486 -7.4930064e-20)
(57.167633 -1.3179491 0)
(57.009519 -1.2127242 0)
(56.852618 -1.1111951 -3.527417e-20)
(56.696638 -1.0133756 -1.3584987e-24)
(56.542113 -0.9192794 0)
(56.389291 -0.82860931 -4.1498312e-21)
(56.238143 -0.741439 3.6594274e-20)
(56.088663 -0.6579681 0)
(55.940879 -0.57793952 -3.9038335e-21)
(55.795056 -0.50138526 3.8244617e-21)
(55.65118 -0.42844836 2.6229449e-20)
(55.509132 -0.35882696 3.6709132e-21)
(55.368947 -0.2924728 -3.5966556e-21)
(55.231059 -0.22971042 3.5231799e-21)
(55.095533 -0.16976815 5.8678148e-20)
(54.961945 -0.11319002 4.733784e-20)
(54.830538 -0.059386959 -2.8656684e-25)
(54.701483 -0.0088424166 -2.7526148e-25)
(54.574661 0.039261172 -2.6423398e-25)
(54.450356 0.084227422 -9.6531621e-20)
(54.328448 0.12678476 -5.4097971e-25)
(54.208881 0.16655479 -2.9884945e-21)
(54.091759 0.20394725 5.2696778e-20)
(53.977005 0.2386283 -2.8680543e-21)
(53.864646 0.27135321 4.2149975e-20)
(53.754796 0.30139306 -4.1297348e-20)
(53.64779 0.32914625 -4.046299e-20)
(53.543463 0.35549918 -2.6432927e-21)
(53.441753 0.37903616 4.1439418e-20)
(53.341827 0.40060864 0)
(53.244792 0.41945301 0)
(53.150646 0.43771572 -7.8001184e-20)
(53.059221 0.45404146 -1.528962e-19)
(52.969804 0.46906326 1.8199504e-25)
(52.882877 0.48149238 7.3446407e-20)
(52.799194 0.49364706 0)
(52.716618 0.50293426 -1.4115236e-19)
(52.63742 0.51146465 7.0268024e-20)
(52.559434 0.51804051 -2.1196404e-21)
(52.485594 0.52414846 1.0390153e-21)
(52.412992 0.53126638 6.2628923e-20)
(52.340798 0.53195609 6.2925669e-20)
(52.273836 0.53594396 -9.3141066e-22)
(52.208257 0.5331414 -5.7137845e-20)
(52.144429 0.53619357 5.5522459e-20)
(52.084105 0.52743771 9.2258995e-22)
(52.026112 0.52994544 -5.5108116e-20)
(51.970117 0.52990622 0)
(51.916253 0.52535601 8.7023618e-22)
(51.864314 0.52092376 -8.5322742e-22)
(51.814376 0.51552451 -1.070798e-19)
(51.766286 0.50925659 2.099434e-19)
(51.720261 0.50219451 0)
(51.676052 0.4943009 7.8799715e-22)
(51.633635 0.48566152 9.8118302e-20)
(51.592996 0.47629395 7.5756419e-22)
(51.55412 0.46619219 -1.485519e-21)
(51.516975 0.45537163 7.2838049e-22)
(51.481531 0.44386592 -9.1421143e-20)
(51.447773 0.4316881 -7.0048754e-22)
(51.415696 0.41884051 8.8586474e-20)
(51.385275 0.4053329 6.7336559e-22)
(51.356473 0.39118239 -1.3205159e-21)
(51.329252 0.37640646 -8.2868685e-20)
(51.303578 0.3610165 3.173973e-22)
(51.279415 0.34502422 3.1122559e-22)
(51.256729 0.32843396 -1.5624681e-19)
(51.235493 0.31125718 0)
(51.215684 0.29348611 2.9364815e-22)
(51.197284 0.27513419 3.7957106e-27)
(51.180269 0.25618508 -2.8207803e-22)
(51.164623 0.23668127 2.8349806e-19)
(51.150328 0.21659018 2.77431e-19)
(51.137386 0.19599897 2.7228969e-19)
(51.125783 0.17482791 1.3349068e-19)
(51.115561 0.15322047 1.3088839e-19)
(51.106684 0.13100655 -1.2833675e-19)
(51.099251 0.10839081 1.2571207e-19)
(51.093164 0.085138393 1.2350225e-19)
(51.088672 0.061449603 -1.2097688e-19)
(51.085568 0.03724471 2.3723831e-19)
(51.084276 0.012347037 -1.1620867e-19)
(60.813958 -4.9537905 -3.5224209e-20)
(60.663435 -4.7598678 -2.0746908e-20)
(60.507394 -4.5694318 0)
(60.34718 -4.3825336 3.3337117e-20)
(60.183976 -4.1992407 -2.6183238e-20)
(60.01877 -4.0195932 -2.570501e-20)
(59.852351 -3.8436114 1.2615043e-20)
(59.685332 -3.6713015 6.1916052e-21)
(59.518192 -3.5026628 -5.4695746e-20)
(59.351286 -3.3376983 -4.1748544e-20)
(59.184802 -3.1764392 -2.3407911e-20)
(59.018752 -3.018949 1.7226591e-20)
(58.853117 -2.865341 5.6328161e-21)
(58.687988 -2.7156345 -2.2104331e-20)
(58.523554 -2.5698016 2.1679442e-20)
(58.359972 -2.4277437 -2.6580217e-20)
(58.197419 -2.289472 -5.9779665e-25)
(58.036029 -2.1549596 3.0672462e-20)
(57.875798 -2.0240554 3.5088185e-20)
(57.716652 -1.8967301 0)
(57.558408 -1.7729675 -4.3360347e-20)
(57.401126 -1.6532313 1.5453473e-24)
(57.244831 -1.5374879 4.1666784e-20)
(57.089524 -1.4257097 -3.1767128e-20)
(56.935518 -1.3176777 3.1136454e-20)
(56.782596 -1.2132737 -3.4875186e-20)
(56.630509 -1.1126062 3.4177183e-20)
(56.47966 -1.015721 -3.3494323e-20)
(56.330334 -0.92236762 0)
(56.182611 -0.83250882 -4.0204096e-21)
(56.036439 -0.74626709 3.9390203e-21)
(55.891829 -0.66352682 3.4738052e-20)
(55.749091 -0.5843588 -7.5633485e-21)
(55.608153 -0.5087362 7.4102026e-21)
(55.468872 -0.43654657 3.381087e-25)
(55.331411 -0.36768346 -3.556111e-21)
(55.19605 -0.30239932 5.5744786e-20)
(55.062893 -0.24000448 -5.4609792e-20)
(54.931597 -0.18086474 -5.3499304e-20)
(54.802388 -0.12474184 5.2409722e-20)
(54.675352 -0.071732629 0)
(54.55047 -0.021412976 0)
(54.427997 0.02590948 4.9270964e-20)
(54.307795 0.070727402 -5.7152556e-25)
(54.189877 0.11275143 -4.7286221e-20)
(54.074302 0.15232972 0)
(53.960976 0.18919244 -4.5384645e-20)
(53.850002 0.22388822 -4.4464778e-20)
(53.741502 0.25588753 2.7229173e-21)
(53.635616 0.28557099 -2.6677476e-21)
(53.532403 0.31364124 8.3650134e-20)
(53.431822 0.33902365 -4.3544887e-20)
(53.333077 0.36270122 4.0160863e-20)
(53.236927 0.38333183 2.4597324e-21)
(53.143478 0.40331151 1.5428667e-19)
(53.052834 0.42094998 1.5121538e-19)
(52.964303 0.4378599 -1.4821449e-19)
(52.878117 0.4512151 0)
(52.794885 0.46464797 -2.2252026e-21)
(52.71307 0.47599332 2.1811092e-21)
(52.634488 0.4854593 -7.0565777e-20)
(52.556984 0.49435675 2.0963169e-21)
(52.482965 0.49977418 0)
(52.411369 0.51173558 0)
(52.3403 0.51031759 -1.2644583e-19)
(52.273494 0.51117197 0)
(52.20819 0.51119206 2.5883447e-26)
(52.144996 0.51103888 5.6715306e-20)
(52.084407 0.51114816 8.6898154e-22)
(52.025794 0.512517 -8.1285761e-22)
(51.970375 0.51264118 -1.1236008e-19)
(51.91721 0.51254632 0)
(51.865606 0.50823257 0)
(51.815863 0.50290762 1.0590996e-19)