/*--------------------------------*- C++ -*----------------------------------*\
| =========                 |                                                 |
| \\      /  F ield         | OpenFOAM: The Open Source CFD Toolbox           |
|  \\    /   O peration     | Version:  2406                                  |
|   \\  /    A nd           | Website:  www.openfoam.com                      |
|    \\/     M anipulation  |                                                 |
\*---------------------------------------------------------------------------*/
FoamFile
{
    version     2.0;
    format      ascii;
    arch        "LSB;label=32;scalar=64";
    class       volScalarField;
    location    "0.08";
    object      k;
}
// * * * * * * * * * * * * * * * * * * * * * * * * * * * * * * * * * * * * * //

dimensions      [0 2 -2 0 0 0 0];

internalField   nonuniform List<scalar> 
2065
(
227.89669
233.96381
239.18754
243.80766
248.04895
251.94465
255.60803
259.07097
261.973
264.43315
266.32249
267.50243
267.74511
267.3002
265.86825
263.10225
259.21451
253.74883
247.02472
238.98653
229.67198
219.17207
207.59884
195.10137
181.95819
168.47025
154.98427
141.86796
129.35955
117.66975
106.94659
97.161992
88.207619
80.078952
72.872724
66.4666
60.863637
56.115635
52.249432
49.149423
46.792983
45.090044
43.961637
43.279249
42.959792
42.921671
43.010455
43.13842
43.334182
43.345101
43.369369
43.022638
42.704298
41.902852
41.277442
39.80805
38.842106
35.939939
159.73221
172.07536
183.68957
194.70808
205.18953
215.05437
224.31727
232.87361
240.52277
247.27678
253.10111
257.69859
261.24064
263.59096
264.35006
263.49451
260.92425
256.52733
250.30913
242.32643
232.70455
221.64492
209.3703
196.15968
182.36896
168.37633
154.589
141.32927
128.82246
117.23761
106.67383
97.078145
88.363879
80.536124
73.671441
67.627429
62.40904
58.054889
54.575941
51.832529
49.790056
48.330819
47.379974
46.785961
46.502311
46.404301
46.429333
46.427836
46.483597
46.331288
46.214473
45.681785
45.256528
44.272507
43.578371
41.94937
40.930014
37.872593
94.365519
111.22941
128.84948
146.64318
164.08383
180.19497
195.02682
208.52348
220.48696
231.11139
240.39508
248.58377
255.45655
261.2052
264.80323
266.63883
266.32614
264.60311
260.36593
253.72063
245.07288
234.60623
222.64401
209.50713
195.60105
181.27469
166.95192
153.03405
139.81917
127.50972
116.21398
105.98585
96.752771
88.435738
81.057348
74.660401
69.084109
64.329634
60.419256
57.347744
54.953343
53.192558
51.927699
51.096359
50.532114
50.228859
50.025882
49.94463
49.779077
49.678224
49.33056
49.065923
48.322547
47.781319
46.604158
45.830153
44.032051
42.9501
39.733336
62.851237
75.660381
91.217673
108.68573
126.83435
145.13411
163.08727
180.55752
196.84109
211.81203
225.47171
237.54805
248.01085
256.61118
263.44819
268.14441
270.64425
270.08648
268.09184
263.09799
255.44648
245.72239
234.23054
221.41184
207.5523
193.0775
178.38729
163.98538
150.23456
137.36734
125.51805
114.73762
105.04982
96.369954
88.628276
81.845339
76.029194
71.003129
66.760973
63.308478
60.627906
58.542016
57.004825
55.868014
55.088781
54.492749
54.114669
53.765137
53.537008
53.179391
52.902232
52.335037
51.912813
50.94358
50.274989
48.898605
48.034567
46.059275
44.908195
41.528459
57.881372
67.679558
79.44973
93.367524
109.27787
126.94481
145.522
164.33774
182.84949
200.57445
217.2168
232.09994
245.10219
255.70486
263.75134
269.27175
271.83541
271.03764
268.31774
262.34447
253.81834
243.19387
230.87516
217.29846
202.90594
188.20233
173.63327
159.60535
146.41466
134.22892
123.12018
113.09566
104.15997
96.221625
89.211585
83.143716
77.984908
73.548242
69.820691
66.795513
64.450467
62.602567
61.2109
60.125127
59.32665
58.637979
58.132597
57.598284
57.187496
56.613238
56.138402
55.33929
54.744524
53.542576
52.734487
51.154826
50.192108
48.033464
46.808529
43.263072
51.59389
58.290531
66.357767
75.838654
86.853889
99.767844
114.67501
131.4217
149.46358
168.11325
186.86488
205.18508
222.15408
237.22523
249.92315
259.36767
265.45911
267.9856
266.99303
263.70984
256.96717
247.67418
236.34549
223.5418
209.79425
195.54759
181.27185
167.38305
154.21668
142.00107
130.83909
120.74616
111.7042
103.70837
96.657351
90.497035
85.204712
80.719451
76.851939
73.587297
70.913986
68.815406
67.112902
65.776915
64.661246
63.773064
62.934549
62.25398
61.500902
60.876672
60.064864
59.374358
58.333343
57.552154
56.115292
55.156669
53.371052
52.302359
49.956494
48.65422
44.941304
49.528293
54.795415
60.758798
67.606446
75.486947
84.604148
95.198491
107.55631
121.76574
137.74296
154.92288
172.83933
190.88127
208.24727
223.88454
237.30518
247.54001
254.19891
256.87428
255.8318
252.31511
245.36394
236.03842
224.94003
212.58981
199.52895
186.16687
172.98657
160.35979
148.54207
137.69001
127.8464
118.98814
111.09205
104.14576
98.065062
92.781452
88.24321
84.37285
80.990259
78.086397
75.653579
73.689818
72.028581
70.655151
69.430691
68.387053
67.347251
66.449419
65.448407
64.58501
63.51854
62.59772
61.307216
60.328607
58.655752
57.53806
55.545223
54.364231
51.829849
50.447554
46.566473
53.212527
57.906955
63.145726
69.033482
75.706953
83.365234
92.245562
102.55857
114.47019
127.98875
142.84718
158.65741
174.92254
191.08417
206.2483
219.22038
229.13488
235.81605
238.69657
237.99277
235.00506
228.82789
220.44297
210.45782
199.40494
187.81053
176.04768
164.5781
153.71274
143.62787
134.41073
126.05704
118.53023
111.81149
105.9206
100.77825
96.288752
92.391681
89.005222
85.969548
83.288195
80.963674
79.013889
77.288665
75.78864
74.383066
73.125577
71.840152
70.689478
69.416487
68.293203
66.958761
65.796267
64.251063
63.066766
61.158069
59.875009
57.675078
56.376107
53.654746
52.190178
48.141256
56.428086
60.417676
64.834861
69.786637
75.386918
81.801146
89.211842
97.774074
107.65649
118.89
131.33021
144.70666
158.65987
172.60458
186.01732
197.74135
207.111
213.6333
216.84128
216.90304
214.94826
210.28448
203.54011
195.38159
186.28795
176.74557
167.08951
157.72771
148.89791
140.7046
133.1778
126.28357
119.99104
114.34545
109.37227
104.99485
101.11811
97.673374
94.587881
91.728962
89.11561
86.762786
84.70922
82.822022
81.115466
79.465999
77.945186
76.377599
74.945282
73.381487
71.982453
70.37045
68.958103
67.155306
65.75962
63.616512
62.163807
59.758223
58.337167
55.431148
53.883228
49.667813
55.744445
58.820726
62.117375
65.779688
69.898301
74.577845
79.914515
86.042094
93.098627
101.22011
110.41943
120.66494
131.81886
143.56557
155.3785
166.7076
177.00626
185.53754
192.15061
195.90387
197.19299
196.55
193.81611
189.10854
183.10529
176.22498
168.91486
161.47312
154.23275
147.35536
140.88779
134.81595
129.12291
123.81249
118.95867
114.62049
110.74249
107.22751
104.00403
101.01496
98.155512
95.458615
92.950169
90.687268
88.552994
86.572348
84.62733
82.803342
80.925032
79.189018
77.320741
75.634733
73.739149
72.071808
70.010759
68.400371
66.025579
64.400791
61.792225
60.246416
57.158848
55.527471
51.147877
57.640657
60.202613
62.959813
66.048184
69.544756
73.502269
77.993791
83.117688
88.981573
95.706477
103.3471
111.90649
121.32909
131.38205
141.68965
151.79871
161.32401
169.47143
176.47871
181.23553
183.89917
184.8511
183.7879
181.09375
177.02864
172.05694
166.6226
160.99667
155.42576
150.02569
144.81214
139.74596
134.81301
130.06317
125.61813
121.56943
117.88045
114.45433
111.21748
108.12789
105.10447
102.1897
99.41665
96.856487
94.40589
92.097389
89.816782
87.659435
85.449639
83.394367
81.212863
79.233015
77.051195
75.126582
72.808737
70.98254
68.38006
66.582427
63.774679
62.102764
58.837528
57.123413
52.582831
58.256198
60.564643
63.0476
65.824167
68.961296
72.504393
76.507537
81.042955
86.200752
92.094911
98.851601
106.51777
115.08769
124.43871
134.23369
144.17085
153.90072
162.71042
170.68222
176.79621
180.90719
183.23664
183.20232
181.96632
179.16627
175.31471
170.95761
166.35416
161.69777
157.06215
152.4425
147.79283
143.11129
138.47729
134.0485
129.94513
126.14754
122.55895
119.10111
115.74227
112.41864
109.17694
106.05314
103.12767
100.30825
97.632057
94.987171
92.475538
89.920852
87.536847
85.037996
82.761461
80.293876
78.112368
75.541161
73.500054
70.6751
68.705379
65.703274
63.905097
60.4668
58.671371
53.97377
57.586438
59.912868
62.39986
65.166207
68.27349
71.765367
75.696152
80.136502
85.180352
90.931306
97.634447
105.36259
114.1172
123.97044
134.36155
145.16633
156.02123
166.18808
175.71092
183.16218
188.58687
191.78232
192.25586
191.47964
189.1602
185.52108
181.34448
176.89739
172.35128
167.76127
163.11083
158.3457
153.46603
148.56451
143.81995
139.3749
135.22421
131.27067
127.42842
123.67015
119.94303
116.29349
112.75656
109.41756
106.19307
103.12253
100.09526
97.216964
94.310732
91.594082
88.778006
86.205595
83.455561
81.01996
78.200633
75.947332
72.906247
70.766563
67.575842
65.652329
62.046255
60.171538
55.321551
55.507269
58.138143
60.928332
63.995108
67.399931
71.20085
75.478574
80.344276
85.925961
92.372578
99.841413
108.50243
118.33153
129.24477
141.02131
153.26824
165.75346
177.79926
188.7644
197.35783
203.74965
207.37479
207.98269
207.10824
204.60223
200.58963
195.96693
191.05339
186.03309
180.96755
175.83728
170.57854
165.18412
159.74617
154.45241
149.46247
144.78491
140.32314
135.98241
131.73512
127.53449
123.42346
119.43347
115.65111
112.00013
108.52056
105.10231
101.85266
98.594257
95.54602
92.416648
89.552434
86.525811
83.841094
80.780515
78.31935
75.0695
72.763201
69.3904
67.343453
63.575489
61.624026
56.626834
52.116889
55.250235
58.559775
62.158588
66.113958
70.50733
75.458023
81.119478
87.691974
95.326999
104.14276
114.28572
125.60658
138.05281
151.41216
165.38982
179.78609
193.18682
204.92714
214.42781
221.4043
225.44946
226.24744
225.19332
222.38141
217.8769
212.61655
206.99443
201.23873
195.44587
189.60855
183.65979
177.58323
171.4639
165.49123
159.8393
154.53189
149.47612
144.56938
139.78096
135.06698
130.46528
126.00211
121.7627
117.67681
113.78398
109.97446
106.35544
102.74952
99.37509
95.939683
92.790589
89.495461
86.568515
83.274981
80.611695
77.161346
74.692852
71.145194
68.97757
65.054135
63.028905
57.890119
51.347196
55.245646
59.483846
64.13777
69.313904
75.180374
81.924576
89.779557
98.928205
109.42896
121.30322
134.44929
148.81109
163.59467
179.00928
194.1116
207.50279
219.53222
229.49872
237.0879
241.84988
243.3489
242.43857
239.72885
235.04242
229.34858
223.12176
216.66169
210.13052
203.55416
196.87675
190.0792
183.24003
176.54797
170.19131
164.2122
158.52608
153.02545
147.67559
142.43402
137.33307
132.39325
127.69668
123.17843
118.87693
114.68286
110.70217
106.75782
103.0663
99.334958
95.91034
92.356679
89.196036
85.679059
82.820609
79.178783
76.553443
72.838728
70.553925
66.481888
64.386238
59.111768
46.607651
51.01776
55.87926
61.28919
67.374438
74.33729
82.422745
91.829099
102.80897
115.27912
129.09712
144.19381
159.93521
175.42585
190.75286
204.83341
217.76057
229.3696
239.63697
248.04925
253.98015
256.89154
256.73956
254.7419
250.46003
244.78111
238.27659
231.33917
224.2248
217.01511
209.6833
202.21929
194.70017
187.31528
180.26828
173.62335
167.30943
161.21839
155.31211
149.54912
143.95691
138.55026
133.40742
128.46827
123.76992
119.20377
114.87376
110.60376
106.60729
102.59245
98.903673
95.103004
91.718557
87.988652
84.943008
81.119345
78.343286
74.469774
72.071922
67.858525
65.696106
60.292033
41.386826
46.058224
51.381988
57.52371
64.657011
72.98452
82.785708
94.162111
107.22497
121.78504
137.45331
153.59004
169.33113
184.34591
198.38462
210.98876
222.85458
233.87709
244.39478
253.8145
261.28609
266.04135
267.52276
266.47064
263.31273
258.15375
251.77509
244.67239
237.2129
229.55068
221.70386
213.68378
205.57372
197.56684
189.88327
182.61239
175.70155
169.04672
162.60794
156.34517
150.28229
144.42878
138.85902
133.51738
128.43967
123.51843
118.85516
114.27517
109.98833
105.70426
101.76429
97.729354
94.132087
90.200547
86.976501
82.981101
80.061087
76.03739
73.531142
69.183917
66.958627
61.431082
41.311663
47.086973
54.094068
62.574712
72.737268
84.750271
98.320108
113.12629
129.08328
145.51944
161.32262
176.32713
189.93751
202.35763
213.68773
224.69282
235.34156
246.07715
256.27734
265.08397
271.6103
275.08371
275.23291
273.42113
269.26136
263.35853
256.38773
248.82995
240.91427
232.71388
224.27162
215.68373
207.14989
198.9071
191.07177
183.61363
176.43732
169.50308
162.7731
156.26914
149.99595
144.02482
138.30422
132.86889
127.6129
122.63523
117.76306
113.20223
108.66459
104.4876
100.23202
96.433734
92.312408
88.919374
84.76266
81.705956
77.540929
74.931354
70.458051
68.17397
62.528962
155.22944
148.88666
142.81416
137.04584
131.47778
126.20651
121.06147
116.24429
111.46964
107.07064
102.6086
98.621663
94.322732
90.770573
86.463154
83.277396
78.980034
76.272521
71.68103
69.342372
63.585507
518.59893
483.02825
385.65207
460.76297
516.0042
543.4199
547.72755
532.68115
504.41609
469.42621
305.64018
378.81592
448.98607
501.36162
527.73046
531.91017
517.18721
489.49144
455.1244
304.21977
371.55794
436.76798
486.19345
511.39575
515.37326
500.96851
473.85591
440.1607
302.56345
364.02074
424.23838
470.58743
494.45754
498.13112
484.04923
457.54163
424.56397
300.70075
356.30554
411.54381
454.64192
477.01648
480.30608
466.49895
440.60256
408.38591
298.75045
348.54553
398.72819
438.45398
459.1693
461.98105
448.3882
423.10408
391.6959
296.70666
340.73381
385.8814
422.11154
441.00209
443.2253
429.77292
405.10421
374.55541
294.60408
332.99237
373.1019
405.70336
422.60117
424.12094
410.75144
386.69266
357.04384
292.26772
325.26647
360.39981
389.28621
404.04725
404.76128
391.42142
367.96516
339.25125
289.77944
317.57161
347.81196
372.91138
385.41832
385.23651
371.87268
349.01497
321.26992
287.06179
309.91155
335.3562
356.60594
366.85633
365.63106
352.19966
329.94082
303.19692
283.98851
302.20499
323.01203
340.41991
348.41006
346.04305
332.50361
310.84634
285.13287
280.3948
294.34712
310.73792
324.37442
330.12692
326.56171
312.88832
291.84015
267.18416
276.30384
286.2975
298.50781
308.49068
312.0577
307.27265
293.45681
273.03039
249.4554
271.62146
278.00894
286.31302
292.80034
294.26392
288.26891
274.31872
254.53197
232.05862
266.14292
269.38521
274.11548
277.35835
276.78989
269.63908
255.57972
236.45347
215.09747
259.88261
260.3692
261.79931
262.3655
259.69616
251.47602
237.35034
218.90864
198.68026
252.72951
250.94441
249.64629
247.69934
243.07758
233.87581
219.72622
201.98534
182.88263
244.6065
241.13238
237.60348
233.4048
227.03335
216.95323
202.82437
185.79446
167.80433
235.69877
231.00606
225.71921
219.60067
211.68645
200.82911
186.75544
170.43135
153.52352
225.98098
220.56059
214.02544
206.38706
197.17437
185.65428
171.66845
156.03618
140.16985
215.47016
209.77694
202.50919
193.79477
183.5655
171.50957
157.63623
142.66413
127.77943
204.18989
198.61871
191.12086
181.81683
170.9122
158.48408
144.75609
130.40409
116.42764
192.16892
187.00564
179.70457
170.29553
159.11179
146.53779
133.02761
119.2721
106.1339
179.58885
175.01512
168.22858
159.12961
148.06036
135.6029
122.41982
109.2591
96.898384
166.65665
162.7493
156.67323
148.19622
137.59097
125.52508
112.81407
100.27892
88.656572
153.62957
150.35772
145.05425
137.38047
127.50178
116.07635
103.99782
92.148028
81.25188
140.85137
138.12392
133.54794
126.71926
117.69815
107.07842
95.763192
84.663429
74.499852
128.5623
126.27379
122.33735
116.31654
108.18401
98.447326
87.972811
77.66763
68.243481
116.98786
115.0332
111.63109
106.34022
99.066379
90.225546
80.619081
71.124171
62.434783
106.31579
104.61593
101.65763
97.013416
90.541856
82.571034
73.821861
65.122865
57.142537
96.545475
95.049728
92.478998
88.42956
82.724763
75.608057
67.709318
59.793774
52.49766
87.550876
86.189608
83.927768
80.39864
75.40535
69.113489
62.055106
54.918292
48.297033
79.319737
78.018345
75.970676
72.857343
68.47811
62.935502
56.667646
50.279057
44.312533
71.9555
70.640625
68.711464
65.904127
62.028266
57.137715
51.584811
45.890071
40.53996
65.356041
63.978286
62.101593
59.51802
56.057144
51.735473
46.827488
41.771913
36.997005
59.521013
58.025133
56.120455
53.662075
50.511839
46.661847
42.317933
37.839921
33.595916
54.511837
52.85267
50.851912
48.430848
45.491462
42.014725
38.147427
34.175267
30.40683
50.366479
48.5078
46.348802
43.877273
41.045779
37.838517
34.35472
30.811917
27.459775
46.989716
44.913853
42.551746
39.957811
37.14685
34.119727
30.938449
27.7564
24.765408
44.370431
42.071596
39.472803
36.689159
33.802794
30.848907
27.872392
24.971562
22.281368
42.447054
39.949176
37.113341
34.100493
31.06381
28.09079
25.225482
22.52502
20.07128
41.143535
38.47847
35.420151
32.158095
28.908147
25.823129
22.972231
20.389437
18.108609
40.359001
37.591035
34.370126
30.890971
27.409882
24.146245
21.215758
18.652446
16.461625
39.98377
37.157786
33.822165
30.164057
26.463
22.993117
19.926348
17.315109
15.147163
39.977221
37.177639
33.829022
30.086092
26.21065
22.503575
19.209029
16.445249
14.2096
40.108707
37.355668
34.031534
30.280961
26.359318
22.564147
19.132073
16.199021
13.815114
40.338856
37.688679
34.456371
30.753124
26.807555
22.919272
19.376136
16.345786
13.875503
40.652482
38.125607
35.022258
31.433098
27.557675
23.667458
20.029836
16.853191
14.234639
40.805233
38.426963
35.489954
32.06707
28.333081
24.535851
20.931982
17.721213
15.011761
40.96287
38.729759
35.960814
32.713321
29.140361
25.46708
21.934819
18.740755
16.003574
40.766104
38.684962
36.092802
33.037095
29.651931
26.141046
22.729117
19.606941
16.897566
40.553136
38.592695
36.148514
33.263292
30.051962
26.695218
23.40348
20.361807
17.696251
39.91223
38.114986
35.856465
33.159737
30.131935
26.950299
23.802785
20.866306
18.268091
39.354266
37.640273
35.484951
32.911177
30.013721
26.948572
23.91411
21.076416
18.556344
38.028029
36.463359
34.489891
32.122274
29.438006
26.57175
23.688763
20.958692
18.511446
37.117077
35.622479
33.733226
31.46083
28.877987
26.115027
23.335255
20.699712
18.334923
34.356017
33.011043
31.313276
29.270807
26.94484
24.449019
21.92928
19.530577
17.367571
444.22726
399.34117
344.1512
274.18757
179.6389
59.71178
431.20638
386.98891
332.69527
264.1222
172.12613
56.9229
417.55248
374.08939
320.82686
253.84365
164.63678
54.111201
403.30192
360.6811
308.58806
243.384
157.17012
51.305001
388.48478
346.81196
296.03438
232.79001
149.75248
48.51813
373.16091
332.54116
283.21647
222.09473
142.3819
45.767308
357.3981
317.93076
270.18828
211.33685
135.07285
43.058063
341.25994
303.04316
257.00256
200.54683
127.82197
40.396754
324.81889
287.94366
243.71209
189.75717
120.6359
37.783052
308.15684
272.70308
230.37168
178.99952
113.51924
35.21761
291.35966
257.3951
217.03641
168.30509
106.47961
32.699181
274.51817
242.09896
203.76838
157.71468
99.537109
30.229
257.72511
226.89385
190.62713
147.26403
92.705854
27.809398
241.07998
211.86809
177.68611
137.0103
86.028081
25.447522
224.67847
197.10346
165.00825
126.99376
79.520253
23.151824
208.62525
182.69402
152.67499
117.28413
73.248026
20.937444
193.01525
168.72353
140.75756
107.94248
67.269164
18.832253
177.94789
155.28121
129.33553
99.039775
61.631886
16.857835
163.4852
142.41413
118.4367
90.571446
56.263199
15.007798
149.71234
130.18778
108.09838
82.535473
51.122584
13.249542
136.69012
118.64566
98.34946
74.958678
46.274102
11.609712
124.53872
107.9003
89.298378
67.952706
41.844414
10.259818
113.27763
97.95775
80.941986
61.509222
37.808815
9.1475358
102.96805
88.863313
73.304687
55.617565
34.087986
8.2202793
93.627769
80.631379
66.398856
50.298781
30.756353
7.424248
85.259854
73.265254
60.228248
45.559491
27.816194
6.731874
77.813831
66.723696
54.757009
41.36402
25.216927
6.1277713
71.155253
60.891156
49.886039
37.62811
22.892298
5.5965692
65.121154
55.62755
45.499508
34.262931
20.789333
5.1258842
59.564121
50.800801
41.486301
31.18463
18.86238
4.7074849
54.434311
46.365759
37.81239
28.376258
17.117004
4.3414189
49.784927
42.362478
34.506537
25.855953
15.559849
4.0307419
45.747091
38.920114
31.691767
23.734564
14.278918
3.78715
42.138162
35.881302
29.239398
21.914449
13.209523
3.6002774
38.729969
33.028009
26.95293
20.233815
12.243087
3.4499616
35.504899
30.333032
24.800391
18.661453
11.356305
3.3272062
32.47718
27.806977
22.789026
17.201999
10.552863
3.2285825
29.558874
25.364795
20.840158
15.787119
9.7791473
3.1446772
26.809019
23.05405
18.990279
14.443149
9.0532579
3.0748276
24.254148
20.897735
17.258258
13.183946
8.3810442
3.0174675
21.906744
18.908548
15.655844
12.018702
7.7668708
2.9695032
19.722565
17.042796
14.141639
10.909752
7.1758682
2.923344
17.760229
15.353473
12.76348
9.9010102
6.652506
2.8808796
15.994769
13.817134
11.497832
8.9645578
6.1507622
2.8354079
14.477132
12.470204
10.371745
8.1260769
5.7117958
2.7895812
13.230833
11.337586
9.405593
7.3931485
5.3133017
2.742615
12.280969
10.427166
8.5990428
6.7692538
4.9819018
2.6889595
11.772692
9.8487628
8.0132966
6.2672191
4.6948728
2.6300415
11.741102
9.7076325
7.7786321
5.9967179
4.4935033
2.5746764
11.968412
9.8208185
7.7939341
5.9244201
4.4337392
2.5340339
12.597124
10.251057
8.0136245
5.9660966
4.2876543
2.4840874
13.520518
11.042153
8.5884926
6.2295607
4.2036437
2.4303191
14.400144
11.855549
9.2737497
6.6621131
4.1418662
2.373447
15.207108
12.629946
9.9691309
7.1884714
4.2900288
2.3301141
15.810027
13.223759
10.507336
7.5798021
4.3568783
2.2638838
16.151085
13.590442
10.873828
7.8982828
4.5166398
2.1933444
16.152755
13.619982
10.917052
7.9328505
4.6132142
2.0882695
16.037489
13.544016
10.870797
7.9026683
4.4686791
1.9730854
15.243893
12.908349
10.379351
7.5494085
4.3613954
1.8120324
)
;

boundaryField
{
    Side1
    {
        type            empty;
    }
    Inlet
    {
        type            inletOutlet;
        inletValue      nonuniform List<scalar> 0();
        value           nonuniform List<scalar> 0();
    }
    Side2
    {
        type            empty;
    }
    Outlet
    {
        type            zeroGradient;
    }
    Botwall
    {
        type            kqRWallFunction;
        value           nonuniform List<scalar> 
59
(
59.71178
56.9229
54.111201
51.305001
48.51813
45.767308
43.058063
40.396754
37.783052
35.21761
32.699181
30.229
27.809398
25.447522
23.151824
20.937444
18.832253
16.857835
15.007798
13.249542
11.609712
10.259818
9.1475358
8.2202793
7.424248
6.731874
6.1277713
5.5965692
5.1258842
4.7074849
4.3414189
4.0307419
3.78715
3.6002774
3.4499616
3.3272062
3.2285825
3.1446772
3.0748276
3.0174675
2.9695032
2.923344
2.8808796
2.8354079
2.7895812
2.742615
2.6889595
2.6300415
2.5746764
2.5340339
2.4840874
2.4303191
2.373447
2.3301141
2.2638838
2.1933444
2.0882695
1.9730854
1.8120324
)
;
    }
    Cyli
    {
        type            kqRWallFunction;
        value           nonuniform List<scalar> 0();
    }
    procBoundary1to0
    {
        type            processor;
        value           nonuniform List<scalar> 
44
(
220.74738
306.68317
146.55661
146.55661
78.824848
78.824848
52.856226
49.942604
49.942604
45.985167
45.985167
44.853222
48.937199
52.727145
52.727145
52.965943
55.207461
55.972069
55.315119
53.058681
47.70119
49.365132
47.70119
42.584964
37.30152
36.509564
36.509564
531.97842
495.86942
392.00595
472.03725
530.00143
558.3561
562.72347
547.37473
547.37473
306.68317
306.68317
456.54799
411.08488
355.12294
283.96217
187.12571
62.449126
)
;
    }
    procBoundary1to3
    {
        type            processor;
        value           nonuniform List<scalar> 
62
(
39.141903
45.709607
54.168208
64.595374
76.994192
90.974674
105.64798
120.832
136.55792
152.13682
166.80315
180.67444
193.43376
204.98785
215.69224
226.50504
237.16161
248.00103
258.47285
267.89545
275.48193
280.42615
282.04098
281.16212
278.28666
273.09382
266.46511
259.00662
251.01272
242.61457
233.88936
224.94638
215.98935
207.27071
198.9378
190.9891
183.34218
175.95826
168.80147
161.89245
161.89245
160.11801
153.4349
147.039
140.96378
135.10759
129.5646
124.16684
119.11168
114.11707
109.51142
104.85729
100.69455
96.23016
92.529319
88.082253
84.774863
80.354018
77.554275
72.853097
70.46412
64.599206
)
;
    }
}


// ************************************************************************* //
