/*--------------------------------*- C++ -*----------------------------------*\
| =========                 |                                                 |
| \\      /  F ield         | OpenFOAM: The Open Source CFD Toolbox           |
|  \\    /   O peration     | Version:  2406                                  |
|   \\  /    A nd           | Website:  www.openfoam.com                      |
|    \\/     M anipulation  |                                                 |
\*---------------------------------------------------------------------------*/
FoamFile
{
    version     2.0;
    format      ascii;
    arch        "LSB;label=32;scalar=64";
    class       volScalarField;
    location    "0.08";
    object      Ma;
}
// * * * * * * * * * * * * * * * * * * * * * * * * * * * * * * * * * * * * * //

dimensions      [0 0 0 0 0 0 0];

internalField   nonuniform List<scalar> 
2065
(
0.11550379
0.11689762
0.11813161
0.11916567
0.11997315
0.12052816
0.12080514
0.12073096
0.12039636
0.11965585
0.11855362
0.11713262
0.11536961
0.11336566
0.11115984
0.10883762
0.10647779
0.10415872
0.10194265
0.099887027
0.098031367
0.096399919
0.095014147
0.093909639
0.093023916
0.092362261
0.091927046
0.091644069
0.091498319
0.091459659
0.091505989
0.09163247
0.091856555
0.092156191
0.092570768
0.093077132
0.093691138
0.094405399
0.095219788
0.096157666
0.097201576
0.098390641
0.099657263
0.10108221
0.10251602
0.10411542
0.10565868
0.10738794
0.10899818
0.11084565
0.11249346
0.11451026
0.11616398
0.11838722
0.11989092
0.12231208
0.12325726
0.12561464
0.089733958
0.093127983
0.096108613
0.098660123
0.10083684
0.10263456
0.10407068
0.10507733
0.10568394
0.10580879
0.10556749
0.10489851
0.10377558
0.10242753
0.10082338
0.099100363
0.097336564
0.095619368
0.094016689
0.092580287
0.091339284
0.090309891
0.089499614
0.088923944
0.088524441
0.088314623
0.088285525
0.088366392
0.088569956
0.088852934
0.089203971
0.089618377
0.090106124
0.090662394
0.091319547
0.092060056
0.092896243
0.093824229
0.094842621
0.095968311
0.097182937
0.098520434
0.099913053
0.10143759
0.10295093
0.10460327
0.10618826
0.10793823
0.10956045
0.11140506
0.11304607
0.11504502
0.11668109
0.11887491
0.1203551
0.12274714
0.12368831
0.12601429
0.049382809
0.054708809
0.059945355
0.065009534
0.069758702
0.074115415
0.078004752
0.08141582
0.084246123
0.086476407
0.08813599
0.089204221
0.089713709
0.089676171
0.08936527
0.088684699
0.087861349
0.086965861
0.086096785
0.085323224
0.084690916
0.084216828
0.083912008
0.083765927
0.083787468
0.083932606
0.084221401
0.084626216
0.085111151
0.08568906
0.08631568
0.086991308
0.087710257
0.088478298
0.089304946
0.09021574
0.091198002
0.092260334
0.093401644
0.094618384
0.095922056
0.097293348
0.098762984
0.10026462
0.10187194
0.1034501
0.10514317
0.10675943
0.10852161
0.11014928
0.11198579
0.11361602
0.11559385
0.11720973
0.11937138
0.12082691
0.12318719
0.12412239
0.12641549
0.021164564
0.02462388
0.028511574
0.033057632
0.037907384
0.042915129
0.04793387
0.052809326
0.057404216
0.06157544
0.065210536
0.068309291
0.070748274
0.072576992
0.073840962
0.074700262
0.075209302
0.075503506
0.075702963
0.075887139
0.076119781
0.076438582
0.07685034
0.077363665
0.077948846
0.078619982
0.079364283
0.080176116
0.081042817
0.081955861
0.082927256
0.083916546
0.084931891
0.085967693
0.087027865
0.088133024
0.089302025
0.090526246
0.091810674
0.09315657
0.094558157
0.096023188
0.097532333
0.099114532
0.10070669
0.10237984
0.10400833
0.10573053
0.10736824
0.10913481
0.11076185
0.11258555
0.11420131
0.1161551
0.11774849
0.1198755
0.12130535
0.1236315
0.12455879
0.12681778
0.011639713
0.013253229
0.015225717
0.017690723
0.020583868
0.024077614
0.028050258
0.032270948
0.036589756
0.040873699
0.044963962
0.04876574
0.052105919
0.054981552
0.057390101
0.059410215
0.061138873
0.062647665
0.064052284
0.06540158
0.066746312
0.068106094
0.06947631
0.070860771
0.0722191
0.073574383
0.074936101
0.076289084
0.077637522
0.078993545
0.080370185
0.081733525
0.083096619
0.084454804
0.085811319
0.087194576
0.088617161
0.090073968
0.091567094
0.093100152
0.094665892
0.096270443
0.097895188
0.099568871
0.10123268
0.10295522
0.10462029
0.10636079
0.10801088
0.10977474
0.1113956
0.11320226
0.1148002
0.11672725
0.11829611
0.12038628
0.12178958
0.12407949
0.12499713
0.12722092
0.0077746091
0.0076417168
0.0077069935
0.0080160243
0.0086034776
0.0096438322
0.011297078
0.013583643
0.016566125
0.019932488
0.0235944
0.027383724
0.031193684
0.034866491
0.038317344
0.04153456
0.044522192
0.047335013
0.049999987
0.052596799
0.055120207
0.057597976
0.060019836
0.06236399
0.064626212
0.066765354
0.068811521
0.070791778
0.072691041
0.074528257
0.076330412
0.07811359
0.079851518
0.08156003
0.083235776
0.084881742
0.086531111
0.088191265
0.089860619
0.091539706
0.093234862
0.094938811
0.096657519
0.098374154
0.10011802
0.1018351
0.1035916
0.10528053
0.10702936
0.10868358
0.11043829
0.11204797
0.11383374
0.1154109
0.11730878
0.11885132
0.12090275
0.12227877
0.12453054
0.12543702
0.12762469
0.008902052
0.0081753664
0.0074824642
0.0068295515
0.0061718269
0.0053368617
0.0043612392
0.0034391423
0.0031704055
0.0043226835
0.0066427972
0.0095659053
0.012779249
0.016301381
0.019964622
0.023607275
0.02726875
0.030924628
0.03458877
0.038239003
0.041912575
0.045527262
0.04907746
0.052513065
0.055790653
0.058896947
0.061793642
0.064512897
0.067094743
0.06952869
0.071845119
0.074081201
0.076257512
0.078355678
0.080392869
0.082367238
0.08428157
0.086171636
0.088041432
0.089893369
0.091728075
0.093555059
0.095368157
0.097174433
0.0989593
0.10075287
0.10250601
0.10428234
0.10598356
0.10773171
0.1093826
0.11112242
0.11271647
0.11447792
0.11603169
0.11789816
0.11941288
0.12142398
0.12277212
0.12498411
0.12587811
0.12802888
0.010309017
0.0099925634
0.0097566712
0.0095605966
0.0093352871
0.0089981325
0.0084954864
0.0077772443
0.0068037425
0.0056379897
0.0043502289
0.0034706016
0.0038869075
0.0057040875
0.0084815811
0.011672689
0.01528561
0.019232184
0.023469557
0.027882879
0.032471001
0.037044142
0.041555904
0.045910861
0.050042636
0.053926627
0.057527938
0.060876847
0.064021588
0.066957119
0.069721694
0.072359149
0.074895571
0.077320463
0.07965175
0.081889249
0.084035611
0.08612815
0.088169586
0.090167015
0.092122309
0.094048391
0.095941002
0.097808766
0.099639437
0.10146377
0.10323727
0.10502074
0.10672393
0.10846334
0.11010426
0.11182413
0.1133986
0.11513269
0.11666085
0.11849392
0.11997957
0.12194902
0.12326881
0.12543966
0.12632009
0.12843332
0.011755185
0.012026845
0.012391507
0.01280351
0.013214181
0.013573238
0.013827179
0.013928818
0.013834722
0.013474664
0.012767451
0.011676129
0.010254832
0.0085669546
0.0069079932
0.0057922963
0.006786346
0.0099495701
0.014353883
0.019303736
0.024658936
0.030054691
0.035395296
0.040544071
0.045416853
0.049979484
0.054201001
0.058106243
0.061746992
0.06512296
0.068277375
0.071258563
0.074098935
0.076796009
0.079368416
0.081817761
0.084146923
0.086394505
0.088563522
0.090665843
0.092705364
0.094698081
0.096641851
0.098546809
0.10040283
0.10224093
0.10402081
0.10580021
0.10749623
0.10921985
0.11084495
0.11254044
0.11409191
0.11579599
0.11729666
0.11909462
0.12055017
0.12247695
0.12376805
0.12589665
0.12676262
0.1288378
0.012203832
0.012951639
0.013759152
0.014625399
0.015525194
0.016429363
0.017300814
0.018091082
0.018753738
0.01921281
0.019382275
0.019171556
0.018442091
0.017170652
0.015188466
0.012617207
0.0093438558
0.0058413191
0.0041083631
0.0075074762
0.012812823
0.018852471
0.024943638
0.030958661
0.03674225
0.042204986
0.047308835
0.052027795
0.056378832
0.060413631
0.06413586
0.067591934
0.070833746
0.073900354
0.076797031
0.07954314
0.082142436
0.084597974
0.086949028
0.089200007
0.091366973
0.093455826
0.095484931
0.097454045
0.099374434
0.1012377
0.10307464
0.1048487
0.10661431
0.10829522
0.10999691
0.1116011
0.11326843
0.11479394
0.11646577
0.11793739
0.1196988
0.12112349
0.12300685
0.12426909
0.12635456
0.12720537
0.12924217
0.012480996
0.013682567
0.014887594
0.016115256
0.017359415
0.018604967
0.019824343
0.02097221
0.0219841
0.022796804
0.023270126
0.023371614
0.022886782
0.021756955
0.019821491
0.017042256
0.013375061
0.0087948987
0.0039388143
0.0029843417
0.0088432099
0.015484189
0.022098793
0.028580866
0.034788902
0.040641971
0.046104042
0.051154373
0.05580098
0.060093181
0.064037965
0.067683675
0.071084892
0.074286529
0.077300536
0.08014694
0.082830766
0.085355291
0.087759524
0.090049257
0.092243705
0.094350327
0.096388946
0.098360772
0.10027768
0.10213257
0.10395554
0.10571327
0.10745678
0.10911579
0.11079031
0.11236923
0.1140052
0.11550229
0.11713999
0.11858136
0.12030505
0.12169833
0.12353782
0.12477119
0.12681288
0.12764797
0.12964622
0.012406584
0.013862215
0.015280032
0.016693286
0.018113018
0.019533002
0.020930223
0.022258442
0.023446163
0.024419725
0.024993389
0.025219498
0.024825567
0.023708557
0.02171958
0.018790769
0.014935556
0.010069456
0.0048634259
0.0019009039
0.0081038029
0.014984686
0.021800331
0.028457873
0.034823691
0.040822571
0.046422034
0.051604898
0.056370009
0.06076254
0.064791575
0.068505692
0.071960349
0.075204196
0.078253932
0.081129444
0.083836083
0.086376586
0.088788608
0.091078782
0.093268222
0.095365314
0.097390428
0.099345711
0.10124313
0.10307642
0.10487461
0.10660716
0.10832159
0.10995298
0.11159593
0.11314594
0.11474794
0.11621458
0.11781668
0.11922687
0.12091199
0.12227354
0.12406895
0.12527361
0.12727108
0.12809009
0.13004977
0.011950661
0.013445952
0.014892737
0.016326247
0.017758655
0.019184931
0.020581148
0.021899764
0.023087618
0.023988832
0.024533263
0.02467718
0.024156212
0.022883468
0.020744966
0.017669222
0.01373675
0.0089880412
0.0045157761
0.005088669
0.010709535
0.017383291
0.024016217
0.030525703
0.036764718
0.042653076
0.048160736
0.053272211
0.057977319
0.062315363
0.066295352
0.069963593
0.073373883
0.076575733
0.079588262
0.082430112
0.085105804
0.087616649
0.089997864
0.092256167
0.094413359
0.09647814
0.098470615
0.10039339
0.10225806
0.10405883
0.10582331
0.10752334
0.10920297
0.11080202
0.1124098
0.11392792
0.11549388
0.11692849
0.11849389
0.11987228
0.12151826
0.12284798
0.12459935
0.12577563
0.12772868
0.12853136
0.13045266
0.011202833
0.012473876
0.013731694
0.014999098
0.016271353
0.017531463
0.018745996
0.019863568
0.020823129
0.021524501
0.021828091
0.021673167
0.020856882
0.019326797
0.016973937
0.0138354
0.01019237
0.0067974231
0.0062338613
0.010271789
0.015950632
0.022190731
0.028396777
0.034487048
0.040345983
0.045894289
0.051104327
0.055962635
0.06045038
0.064599419
0.068416036
0.071941523
0.075225383
0.078315147
0.081230157
0.083986701
0.086587408
0.08903136
0.091350432
0.093550688
0.095653591
0.097667631
0.099611995
0.10148936
0.10331057
0.10506999
0.10679357
0.10845517
0.11009538
0.11165833
0.11322811
0.11471199
0.11624036
0.11764178
0.11916971
0.12051599
0.12212253
0.12342053
0.12512817
0.12627653
0.12818517
0.12897144
0.13085475
0.010232839
0.011028535
0.011884395
0.012800897
0.013742807
0.014669264
0.015528295
0.016265264
0.016809176
0.017051361
0.016917015
0.016259985
0.015019196
0.013256062
0.010916436
0.0086512443
0.0072679747
0.0085979302
0.012487995
0.017656367
0.023190073
0.028896494
0.03449441
0.039954405
0.045228757
0.050250431
0.054995835
0.05945449
0.063599038
0.067452424
0.071015609
0.074322404
0.077415736
0.080338825
0.083109364
0.085740378
0.088231779
0.09057979
0.092812294
0.09493408
0.096965459
0.098914317
0.10079843
0.10262026
0.10438961
0.10610074
0.10777779
0.10939633
0.11099361
0.11251754
0.11404719
0.11549507
0.1169848
0.11835227
0.11984232
0.12115641
0.12272354
0.12399012
0.12565456
0.12677563
0.12864006
0.12941002
0.13125589
0.009215767
0.0095043768
0.0099060349
0.010355119
0.010781492
0.011105863
0.011250466
0.011158499
0.010744916
0.009927172
0.0087059418
0.0073743917
0.0063521316
0.0064647952
0.0085413481
0.012362703
0.016920954
0.021917753
0.027048026
0.032107669
0.037089034
0.04189487
0.046550321
0.051077335
0.055429256
0.059584078
0.06353395
0.067242358
0.070721842
0.073965677
0.076998236
0.079854191
0.082570643
0.085162181
0.087637947
0.08999458
0.092225018
0.094352735
0.096380775
0.098327687
0.10020048
0.10201518
0.10377382
0.10548497
0.10714257
0.1087689
0.11034091
0.11189268
0.1133755
0.11486355
0.11627425
0.11772474
0.11905786
0.12050996
0.12179205
0.12332004
0.12455572
0.12617772
0.12727225
0.12909288
0.12984675
0.13165589
0.0073157801
0.0069539014
0.0067078656
0.0065007499
0.0062368928
0.0057869642
0.0050804167
0.0039951669
0.0026198223
0.0015627054
0.0030976374
0.006084651
0.0099941503
0.014243107
0.018945324
0.023895205
0.028812782
0.033587591
0.038113484
0.04234854
0.046371616
0.050204311
0.053918183
0.057576106
0.06115885
0.064638171
0.068006509
0.07121721
0.074271071
0.077152005
0.079873448
0.082460684
0.084943471
0.087332403
0.089632405
0.091836549
0.093934248
0.095944369
0.097867881
0.099721137
0.1015101
0.10324883
0.10493879
0.10658724
0.10818763
0.10976029
0.11128338
0.11278796
0.1142283
0.1156739
0.11704673
0.11845782
0.11975657
0.12117093
0.12242145
0.12391085
0.12511633
0.12669686
0.12776572
0.12954316
0.13028133
0.13205459
0.005975597
0.0053748942
0.0048757799
0.0044069439
0.004075405
0.0038635281
0.0041778353
0.0053654111
0.0076518934
0.010713151
0.014414598
0.018784374
0.023582307
0.028531222
0.033539576
0.038364995
0.042808388
0.046766536
0.050280763
0.053398964
0.056276458
0.059009953
0.061702321
0.064427295
0.067188026
0.069949479
0.072699164
0.075380138
0.077980938
0.080475377
0.082865183
0.085165767
0.087399013
0.089571129
0.091682731
0.093723277
0.095678613
0.097562967
0.099375037
0.1011287
0.10282878
0.10448727
0.106105
0.10768785
0.10922866
0.11074587
0.1122186
0.1136751
0.11507226
0.11647512
0.11780987
0.11918181
0.12044648
0.12182364
0.12304323
0.12449483
0.125671
0.12721122
0.12825543
0.12999045
0.13071345
0.13245181
0.0070259306
0.0076880977
0.0085906256
0.0098661651
0.011567563
0.013895684
0.017000882
0.020852962
0.025310373
0.030195642
0.035356771
0.040577675
0.045586696
0.050241044
0.054328205
0.057754108
0.060513968
0.062772442
0.064630073
0.066292971
0.067897348
0.069562429
0.071357293
0.0732928
0.075334637
0.077461793
0.079607652
0.081749289
0.083850769
0.085902378
0.087909844
0.089887193
0.091836226
0.093753441
0.095624861
0.097432884
0.099187228
0.10088423
0.10253514
0.10414362
0.1057196
0.10726322
0.10877897
0.11025904
0.11172001
0.11314181
0.11455004
0.11590394
0.11726429
0.11856119
0.11989459
0.12112577
0.12246654
0.12365608
0.12507091
0.12621882
0.12772008
0.12874076
0.13043432
0.13114283
0.13284733
0.1069361
0.10840513
0.10985354
0.11127275
0.1126776
0.11404863
0.11540908
0.11672018
0.11803872
0.11929842
0.12059425
0.12179283
0.12309827
0.12425879
0.1256381
0.12675897
0.12822275
0.12922115
0.13087438
0.13156921
0.13324103
0.17659845
0.1794147
0.13971889
0.14814712
0.15556351
0.16203249
0.16749626
0.17194074
0.17544459
0.17815011
0.13038385
0.14010707
0.14826598
0.1553588
0.16151426
0.16671001
0.17094385
0.17429229
0.17688654
0.13097508
0.14038713
0.1482785
0.15509967
0.16096342
0.165904
0.16993466
0.17313194
0.17561786
0.13143044
0.14053392
0.14820523
0.15475824
0.16035223
0.16505691
0.16889828
0.17195215
0.17433465
0.13172045
0.14051068
0.14798372
0.1542872
0.15964797
0.16414274
0.16781341
0.17073676
0.17302305
0.13176708
0.14032578
0.14755534
0.15366177
0.15882629
0.1631407
0.16666148
0.16946824
0.17166666
0.13160592
0.13986729
0.14691162
0.15285872
0.15786289
0.16202662
0.16541997
0.16812604
0.1702462
0.13112032
0.1391148
0.14602222
0.15184967
0.15673169
0.16077671
0.16406547
0.16668708
0.16874012
0.13032429
0.13808878
0.14487656
0.15061626
0.15541174
0.15936925
0.16257689
0.16512996
0.16712667
0.12921299
0.13676428
0.14345565
0.14914042
0.15388424
0.15778473
0.16093467
0.16343528
0.1653864
0.1277413
0.13510331
0.14173297
0.14740237
0.15213173
0.1560062
0.15912166
0.16158571
0.16350156
0.12595974
0.13313908
0.13972325
0.14540547
0.15015163
0.15402761
0.15712996
0.15957263
0.16146364
0.12387874
0.13089617
0.1374499
0.14316629
0.14795386
0.15185392
0.15496115
0.15739528
0.15927006
0.12155707
0.12841796
0.13494727
0.14071164
0.14555868
0.14950058
0.15262797
0.15506528
0.15693269
0.11904264
0.12575033
0.132256
0.13807574
0.14299476
0.14699177
0.15015124
0.15260083
0.15446736
0.1164075
0.1229555
0.12942836
0.13530178
0.14029894
0.14435991
0.14756028
0.15002968
0.15190155
0.11372177
0.12009677
0.12652112
0.13243834
0.13751219
0.14164202
0.14488891
0.14738251
0.14926243
0.11105936
0.11723948
0.12358882
0.12953199
0.13467712
0.13887864
0.14217798
0.14470264
0.1465981
0.10847718
0.11443731
0.12068031
0.12662699
0.13183605
0.13611296
0.13947392
0.14204083
0.14396325
0.10603103
0.11174027
0.11783995
0.12376165
0.12902314
0.1333778
0.13680978
0.13943054
0.14139117
0.10376537
0.10919252
0.1151071
0.12096713
0.12626151
0.13069089
0.1341998
0.13688283
0.13888891
0.10171117
0.10682879
0.11251637
0.11827251
0.12357263
0.12806802
0.13165712
0.13441024
0.13646989
0.099899272
0.10468734
0.11010886
0.11571456
0.1209845
0.12552958
0.12919855
0.13202968
0.13415316
0.098384263
0.1028357
0.10796113
0.11336888
0.11856151
0.12312498
0.1268604
0.12976806
0.13195918
0.097110808
0.10123013
0.10604493
0.11122032
0.11629255
0.12083807
0.12461743
0.12759108
0.12984638
0.096081881
0.099877609
0.10437505
0.10929214
0.11420504
0.11869372
0.12248852
0.12551189
0.12782434
0.09530549
0.098789359
0.10296723
0.10760491
0.11232134
0.11671081
0.12048506
0.12353376
0.12588973
0.094711106
0.097901016
0.10176707
0.10611665
0.11061082
0.11486512
0.11858321
0.12162912
0.12400973
0.094265126
0.097167438
0.10072277
0.104775
0.10902494
0.1131128
0.11674163
0.11975639
0.12214079
0.093941845
0.096565262
0.099811671
0.10355749
0.10754195
0.11143323
0.1149404
0.11789538
0.12026167
0.093721934
0.096080338
0.099026979
0.10246611
0.10617275
0.1098449
0.11320336
0.11607321
0.11840125
0.09359314
0.095696978
0.098353528
0.10149087
0.10491591
0.10835548
0.11154523
0.1143083
0.11657878
0.093582365
0.095447188
0.097828167
0.10067423
0.10382113
0.10702313
0.11003204
0.11267248
0.11486928
0.093653576
0.095292437
0.09741063
0.099975716
0.10284972
0.10581284
0.10863361
0.11114036
0.11325126
0.09385229
0.095274919
0.097135336
0.099422176
0.10202189
0.10473972
0.10736164
0.10972164
0.11173347
0.094148722
0.095356027
0.096969475
0.098986533
0.10131705
0.10379029
0.10620955
0.10841568
0.11031972
0.094562545
0.095566682
0.096940156
0.098688765
0.10074997
0.10297597
0.1051874
0.10723262
0.10902111
0.095082032
0.095886652
0.097016647
0.098501731
0.10029399
0.10227074
0.1042708
0.1061506
0.10781851
0.095707734
0.096318304
0.09721311
0.098438569
0.099960383
0.10168641
0.1034723
0.10518263
0.10672545
0.096469023
0.096896262
0.097563836
0.098524784
0.099778081
0.10124998
0.1028177
0.10435517
0.10576979
0.09734871
0.097603343
0.098052319
0.098759905
0.099756205
0.10097202
0.10232052
0.10368366
0.10496839
0.098391234
0.098489289
0.098733708
0.099193877
0.09991024
0.10087625
0.10199543
0.10317421
0.10432038
0.099531208
0.099492764
0.099554364
0.099788059
0.10025315
0.10096387
0.10185522
0.10284265
0.10384607
0.10085259
0.10069986
0.10060183
0.10062626
0.10084169
0.1012827
0.10194337
0.1027368
0.10358434
0.10220325
0.10195927
0.10173145
0.10158102
0.10157938
0.10178155
0.10219958
0.10279753
0.10348394
0.10374529
0.10343722
0.10311397
0.10282799
0.10264666
0.10263124
0.10281121
0.10317758
0.10369383
0.1052435
0.10488616
0.10448895
0.10409675
0.10377323
0.1035843
0.10357496
0.10375333
0.10409189
0.10694831
0.10656368
0.10612186
0.10565983
0.10523379
0.10490665
0.10472854
0.10472094
0.10487283
0.10854417
0.10814443
0.10767627
0.10717102
0.10667931
0.10626076
0.10596728
0.10582834
0.1058455
0.11039136
0.10999112
0.10951651
0.10899425
0.10846966
0.10799806
0.10762984
0.10739707
0.10730722
0.11204401
0.11164981
0.11117899
0.11065523
0.11012013
0.10962564
0.10922044
0.10893715
0.10878616
0.11407535
0.11369625
0.11324096
0.11273034
0.1122022
0.11170461
0.11128342
0.11097044
0.11077735
0.11574443
0.11538226
0.11494609
0.11445504
0.11394449
0.1134598
0.1130447
0.11273002
0.11252763
0.11799229
0.11765451
0.11724636
0.11678456
0.11630076
0.1158364
0.11543213
0.11511715
0.11490342
0.1195171
0.11920172
0.11882061
0.11838946
0.11793801
0.11750504
0.11712862
0.11683619
0.11663869
0.12196261
0.12167057
0.12131657
0.12091445
0.12049095
0.12008131
0.11972039
0.11943354
0.11923153
0.12291279
0.12262843
0.1222831
0.12188988
0.12147448
0.12107131
0.120715
0.12043125
0.1202313
0.12529912
0.12504097
0.12472746
0.12437069
0.1239939
0.12362816
0.1233048
0.12304677
0.12286378
0.18174739
0.18392725
0.18600866
0.18803182
0.18996586
0.19073905
0.18039518
0.18249542
0.18450522
0.18646332
0.18834124
0.18910844
0.17904439
0.1810655
0.18300321
0.18489458
0.18671428
0.1874744
0.17769068
0.17963464
0.18150141
0.18332592
0.18508572
0.18583517
0.17632606
0.17819566
0.17999311
0.18175141
0.18345048
0.18418522
0.17493807
0.17673723
0.17846788
0.18016105
0.18179855
0.18251542
0.17351125
0.17524492
0.17691225
0.17854241
0.18011874
0.18081427
0.17202692
0.17370035
0.17530817
0.17687785
0.17839397
0.17906709
0.17046466
0.17208391
0.17363684
0.17514953
0.17660771
0.17725777
0.16880263
0.17037364
0.17187607
0.173335
0.17473791
0.17536958
0.1670216
0.1685509
0.17000832
0.17141828
0.17277034
0.1733881
0.16510311
0.16659624
0.168013
0.16937771
0.17068387
0.17130171
0.16303911
0.16450252
0.16588484
0.1672108
0.16847809
0.16910676
0.16082514
0.162263
0.16361429
0.16490491
0.16613918
0.16680622
0.15847437
0.1598933
0.16122119
0.16248612
0.16370044
0.16441776
0.15599989
0.1574028
0.15870949
0.15995014
0.16114671
0.16195377
0.15343017
0.15482261
0.15611564
0.15734419
0.15855221
0.15961939
0.15078799
0.15216949
0.15344859
0.15466942
0.15591818
0.15742528
0.14812909
0.14951125
0.15079589
0.15204301
0.15338723
0.15523612
0.14551036
0.14690308
0.14820014
0.14946676
0.15084054
0.15260907
0.14296477
0.14437813
0.14569682
0.14699017
0.14840207
0.15022122
0.1404941
0.14193037
0.14326759
0.14457431
0.14598932
0.14783007
0.13811427
0.13958145
0.14094791
0.14228947
0.14377229
0.14589598
0.13584714
0.13735547
0.13875954
0.14013568
0.14164034
0.14357721
0.13370842
0.13526416
0.13671092
0.13812511
0.13966512
0.14169237
0.13165123
0.13325735
0.13475256
0.13621807
0.13783721
0.1401959
0.12968357
0.13134339
0.13289522
0.13442775
0.136156
0.13885572
0.12779734
0.12951062
0.13112391
0.13273358
0.13458496
0.13760296
0.12595422
0.12771491
0.12938801
0.13107742
0.13305844
0.13639542
0.12410782
0.1259063
0.12763369
0.12940188
0.13151805
0.13519799
0.12223506
0.12405929
0.12583296
0.12767717
0.12993587
0.13400278
0.12036577
0.12220421
0.12401656
0.1259342
0.1283408
0.13281844
0.11851801
0.12035634
0.12219558
0.12417848
0.12673161
0.13164251
0.11676799
0.11859127
0.12044274
0.12247669
0.1251618
0.13048818
0.11509728
0.116893
0.11874371
0.12081572
0.1236211
0.129361
0.11351428
0.11527004
0.11710785
0.11920651
0.12212268
0.12827249
0.11202596
0.11373156
0.1155453
0.11765921
0.12067513
0.12723134
0.11064474
0.11229142
0.11407168
0.11619049
0.11929591
0.12625
0.10935422
0.1109363
0.11267679
0.11479475
0.11798469
0.12533308
0.10816849
0.10968081
0.11137658
0.11348862
0.11675984
0.12449704
0.1071168
0.10855561
0.11020201
0.11230387
0.11565134
0.12376409
0.10621756
0.10758083
0.10917631
0.11126606
0.11468875
0.12315731
0.10546387
0.10674434
0.10828211
0.11035584
0.11385381
0.12268252
0.10488148
0.10607804
0.1075587
0.10961711
0.11318994
0.12234172
0.10449803
0.105597
0.10700736
0.10904088
0.11268499
0.12215634
0.10425986
0.10524576
0.10657526
0.10857543
0.11228424
0.12204381
0.10434146
0.10520637
0.10643054
0.10837787
0.11213818
0.12217433
0.10458283
0.10532294
0.10645078
0.10832718
0.11211722
0.12237968
0.10517584
0.10572465
0.10668564
0.10846143
0.11223394
0.12264955
0.10601003
0.10640032
0.1071811
0.10877737
0.11244938
0.12293246
0.10734874
0.10758329
0.10816391
0.1094964
0.11288523
0.12327556
0.10875328
0.10888671
0.10932557
0.11044973
0.11354534
0.12371076
0.11068734
0.11073451
0.11103473
0.11191062
0.11454489
0.1242259
0.11241993
0.11243522
0.11267729
0.11343207
0.11578479
0.12484865
0.11477228
0.11474313
0.11490267
0.11548588
0.11741651
0.12567892
0.11651834
0.11649422
0.11664793
0.11719897
0.11901893
0.12662504
0.11909576
0.11903868
0.11912916
0.11954752
0.1210174
0.12783173
0.12009663
0.12004202
0.12014019
0.12058201
0.1221546
0.12877773
0.1227364
0.12267781
0.12274684
0.12309489
0.12431437
0.13027054
)
;

boundaryField
{
    Side1
    {
        type            empty;
    }
    Inlet
    {
        type            calculated;
        value           nonuniform List<scalar> 0();
    }
    Side2
    {
        type            empty;
    }
    Outlet
    {
        type            calculated;
        value           nonuniform List<scalar> 
35
(
0.12561464
0.12601429
0.12641549
0.12681778
0.12722092
0.12762469
0.12802888
0.12843332
0.1288378
0.12924217
0.12964622
0.13004977
0.13045266
0.13085475
0.13125589
0.13165589
0.13205459
0.13245181
0.13284733
0.13324103
0.12529912
0.12504097
0.12472746
0.12437069
0.1239939
0.12362816
0.1233048
0.12304677
0.12286378
0.1227364
0.12267781
0.12274684
0.12309489
0.12431437
0.13027054
)
;
    }
    Botwall
    {
        type            calculated;
        value           nonuniform List<scalar> 
59
(
0.14999749
0.14998623
0.14997504
0.14996393
0.14995287
0.14994184
0.14993077
0.14991961
0.14990827
0.14989666
0.14988474
0.14987243
0.14985974
0.14984666
0.14983341
0.14981976
0.14980687
0.1497948
0.14978229
0.14976898
0.14975736
0.14974546
0.14973528
0.1497241
0.14971263
0.1497014
0.14969003
0.14967855
0.14966716
0.14965623
0.1496461
0.14963671
0.14962717
0.14961663
0.14960487
0.1495932
0.14958302
0.14957478
0.14956703
0.14955919
0.14955214
0.14954715
0.14954404
0.14954244
0.14954241
0.1495439
0.14954968
0.14955751
0.1495691
0.14958276
0.14960016
0.14961801
0.14963951
0.14966048
0.14968273
0.14970166
0.14972334
0.14973662
0.14976519
)
;
    }
    Cyli
    {
        type            calculated;
        value           nonuniform List<scalar> 0();
    }
    procBoundary1to0
    {
        type            processor;
        value           nonuniform List<scalar> 
44
(
0.11396594
0.1297169
0.085942995
0.085942995
0.04411743
0.04411743
0.018097575
0.010291961
0.010291961
0.0080597761
0.0080597761
0.0097088028
0.010729156
0.011590595
0.011590595
0.011644668
0.011359793
0.010963416
0.010471692
0.01004729
0.0090603175
0.0096942238
0.0090603175
0.0078295986
0.0067734044
0.0065476744
0.0065476744
0.17776126
0.18068601
0.13929598
0.14798729
0.15574152
0.16254111
0.16828099
0.1729383
0.1729383
0.1297169
0.1297169
0.18310443
0.18536184
0.18751172
0.18959533
0.19157819
0.19235696
)
;
    }
    procBoundary1to3
    {
        type            processor;
        value           nonuniform List<scalar> 
62
(
0.013004804
0.015191009
0.017717763
0.020754347
0.024419697
0.028856759
0.03371419
0.039026934
0.044522669
0.049944558
0.055137884
0.059887739
0.064026847
0.067544173
0.070310952
0.072384603
0.07377699
0.074741126
0.07537622
0.07590341
0.076463966
0.07718746
0.078116363
0.079278886
0.08063586
0.082166222
0.083794904
0.085489533
0.087206174
0.088924832
0.090642327
0.092365355
0.094091678
0.095814089
0.097515527
0.099175209
0.10079859
0.10237967
0.10392701
0.10544317
0.10544317
0.10812809
0.10952334
0.1109052
0.11226434
0.11361395
0.11493507
0.11624876
0.11751801
0.11879587
0.12001936
0.12127888
0.12244601
0.12371743
0.12485019
0.12619543
0.12729064
0.12871857
0.12969603
0.13131021
0.13199232
0.1336327
)
;
    }
}


// ************************************************************************* //
