/*--------------------------------*- C++ -*----------------------------------*\
| =========                 |                                                 |
| \\      /  F ield         | OpenFOAM: The Open Source CFD Toolbox           |
|  \\    /   O peration     | Version:  2406                                  |
|   \\  /    A nd           | Website:  www.openfoam.com                      |
|    \\/     M anipulation  |                                                 |
\*---------------------------------------------------------------------------*/
FoamFile
{
    version     2.0;
    format      ascii;
    arch        "LSB;label=32;scalar=64";
    class       volScalarField;
    location    "0.031";
    object      nut;
}
// * * * * * * * * * * * * * * * * * * * * * * * * * * * * * * * * * * * * * //

dimensions      [0 2 -1 0 0 0 0];

internalField   nonuniform List<scalar> 
92813
(
0.032742868
0.035373396
0.038094032
0.040853223
0.043622722
0.046383255
0.049119817
0.051820428
0.054475061
0.05707516
0.059613127
0.062081848
0.064474136
0.066782142
0.068997018
0.071109535
0.073112208
0.074990886
0.076732884
0.078326048
0.079758322
0.081017783
0.082092182
0.082968723
0.083634223
0.084075161
0.084277733
0.084227939
0.083911713
0.083315092
0.082424444
0.081226753
0.079709985
0.077863538
0.0756788
0.073149781
0.070274079
0.06705384
0.06349591
0.059613652
0.055433302
0.050989322
0.046326378
0.041505063
0.036601144
0.031702689
0.026955218
0.02252708
0.018630815
0.015479568
0.013197278
0.011689031
0.010714476
0.010046739
0.0095400559
0.0091204122
0.008753094
0.0084221611
0.0081194967
0.0078409073
0.0075841613
0.0073464283
0.0071263443
0.0069225975
0.0067339961
0.0065588715
0.0063962314
0.0062457278
0.0061053453
0.0059747074
0.0058534072
0.0057395531
0.0056334569
0.0055347814
0.0054419361
0.0053554054
0.005274863
0.0051990118
0.0051287
0.0050631371
0.0050012369
0.0049438334
0.0048899705
0.0048393201
0.0047923926
0.0047482575
0.0047071421
0.0046690473
0.0046331196
0.0045996549
0.0045682783
0.0045384211
0.004510365
0.0044839327
0.004458779
0.0044351415
0.0044129389
0.0043917808
0.0043719312
0.0043533563
0.0043357861
0.0043192037
0.0043035788
0.0042889729
0.0042751663
0.0042622292
0.0042501437
0.0042387465
0.0042279683
0.0042177835
0.0042081378
0.0041991172
0.0041907928
0.0041829698
0.0041757269
0.004169074
0.0041629823
0.0041574123
0.0041523867
0.004147893
0.0041438996
0.0041404234
0.0041375159
0.0041350563
0.004133338
0.0041317151
0.0041315424
0.036714285
0.039364552
0.042012408
0.044663651
0.047309952
0.049940215
0.052543676
0.055110547
0.057631925
0.060099621
0.062505939
0.064843391
0.067104348
0.069280662
0.071363405
0.073343136
0.075209957
0.076951624
0.078555497
0.08000896
0.081299496
0.082414774
0.083342472
0.084069863
0.084583813
0.084870844
0.084917217
0.084709043
0.084232431
0.08347367
0.082419481
0.081057315
0.079375747
0.077364949
0.07501728
0.072327971
0.069296083
0.065925707
0.062225845
0.058211172
0.053911246
0.049365838
0.044622028
0.039745491
0.034819106
0.029948379
0.025281048
0.021004461
0.017344696
0.014504477
0.0125336
0.011264993
0.010439712
0.0098530726
0.0093897962
0.0089948573
0.0086433224
0.0083239892
0.0080306401
0.007760039
0.0075104709
0.0072790812
0.0070648309
0.0068664846
0.0066828562
0.0065122349
0.0063537197
0.006207046
0.0060699847
0.0059426113
0.0058241417
0.0057127795
0.0056090574
0.0055125308
0.0054216124
0.0053369352
0.0052580716
0.0051837507
0.0051148598
0.0050506017
0.0049898899
0.0049335244
0.0048805993
0.0048307679
0.0047846116
0.004741161
0.0047006896
0.0046631727
0.004627753
0.0045947688
0.0045638013
0.0045343056
0.004506599
0.0044804689
0.0044555841
0.0044322083
0.0044102309
0.0043892842
0.0043696416
0.0043512447
0.0043338247
0.0043173981
0.0043018921
0.0042873897
0.0042736937
0.0042608544
0.00424887
0.0042375672
0.0042268808
0.0042167744
0.0042072031
0.0041982541
0.0041899938
0.0041822337
0.0041750431
0.0041684329
0.0041623772
0.0041568382
0.0041518408
0.0041473719
0.0041434009
0.0041399449
0.0041370531
0.0041346082
0.004132899
0.004131284
0.0041311141
0.040828596
0.043402218
0.045957254
0.048499606
0.051025666
0.05352853
0.056000462
0.05843362
0.060820233
0.063152665
0.065423373
0.067624768
0.069748991
0.071787653
0.073731651
0.075571189
0.077295667
0.07889328
0.080351616
0.081657982
0.082799692
0.083764235
0.084539039
0.085111298
0.085467875
0.085595337
0.085480039
0.085108241
0.084466273
0.083540741
0.082318782
0.080788405
0.078938894
0.076761322
0.074249175
0.071399092
0.068211832
0.064693584
0.060855236
0.056714974
0.05230614
0.047672229
0.042865107
0.037957059
0.033039498
0.028231684
0.023693236
0.019627601
0.01626198
0.013755211
0.012071351
0.010990884
0.010266769
0.0097304449
0.0092932767
0.0089137401
0.0085728036
0.0082617154
0.0079751587
0.0077104365
0.0074661132
0.0072392933
0.0070291948
0.0068346116
0.0066543536
0.0064867061
0.006330853
0.0061865756
0.0060515403
0.0059258974
0.0058090018
0.0056989885
0.0055965339
0.0055011789
0.0054112818
0.0053275737
0.0052496091
0.005176074
0.0051079003
0.0050443587
0.0049842159
0.0049283562
0.0048759241
0.0048264632
0.0047806728
0.0047375512
0.0046973757
0.0046601332
0.0046249513
0.0045921943
0.0045614216
0.0045320945
0.0045045521
0.0044785628
0.0044537988
0.0044305409
0.0044086651
0.0043878184
0.0043682725
0.0043499566
0.004332602
0.0043162551
0.0043007941
0.0042863257
0.0042726832
0.0042598877
0.004247956
0.0042367064
0.0042260751
0.0042160131
0.004206484
0.0041975756
0.0041893521
0.0041816315
0.0041744715
0.0041678844
0.0041618473
0.0041563236
0.0041513406
0.0041468846
0.0041429257
0.004139481
0.0041365979
0.0041341617
0.0041324586
0.0041308458
0.004130678
0.045052757
0.047505564
0.049940982
0.052360168
0.054758524
0.057129766
0.059467156
0.061763748
0.06401241
0.06620587
0.068336707
0.070397273
0.072379547
0.074274956
0.076074235
0.077767371
0.079343547
0.080791083
0.082097721
0.08325078
0.084237511
0.085045293
0.085661366
0.086072816
0.086266493
0.08622902
0.085946871
0.085406504
0.084594523
0.083497912
0.08210431
0.080402368
0.078382196
0.076035899
0.073358246
0.070347464
0.067006232
0.06334315
0.059370789
0.055112299
0.050605527
0.045896343
0.041043337
0.036126018
0.031245039
0.026532511
0.02216184
0.018346873
0.01529926
0.013114015
0.011678006
0.010748019
0.010102849
0.0096067381
0.0091916099
0.0088258184
0.0084947214
0.0081914977
0.0079115169
0.0076525865
0.0074135354
0.0071913511
0.0069855558
0.006794946
0.0066183035
0.0064538937
0.0063009848
0.0061594168
0.0060266941
0.0059031971
0.005788233
0.0056799017
0.0055790681
0.0054852096
0.0053966444
0.0053142312
0.0052374587
0.0051649947
0.0050978084
0.0050352102
0.0049758934
0.0049207604
0.0048690102
0.0048201002
0.0047748471
0.0047322188
0.0046924959
0.0046556665
0.0046208447
0.004588432
0.0045579512
0.0045288811
0.0045015897
0.0044758187
0.004451248
0.0044281777
0.0044064661
0.0043857765
0.004366384
0.0043482011
0.004330957
0.0043147338
0.0042993595
0.0042849581
0.0042714016
0.004258681
0.0042468283
0.0042356546
0.0042250991
0.0042151008
0.004205631
0.0041967796
0.0041886075
0.0041809393
0.0041738225
0.0041672702
0.0041612618
0.0041557622
0.0041508012
0.0041463649
0.0041424238
0.004138995
0.0041361248
0.0041337005
0.0041320053
0.0041303978
0.0041302327
0.049353735
0.051665002
0.053963177
0.056246048
0.058507257
0.060739919
0.062937239
0.065092412
0.067198461
0.069248202
0.071234198
0.0731487
0.074983526
0.07672994
0.078378541
0.079919203
0.081341044
0.082632463
0.083781313
0.084774952
0.085600618
0.086245622
0.086697089
0.086942024
0.086967268
0.086759517
0.086305397
0.085591599
0.084605062
0.083333212
0.081764273
0.079887639
0.077694359
0.075177707
0.072333892
0.069162898
0.065669546
0.061865096
0.057764413
0.053395637
0.048801512
0.044030801
0.039149477
0.034244636
0.029426931
0.0248415
0.020675275
0.017145496
0.014431541
0.012553204
0.011334764
0.01053027
0.0099500127
0.0094877179
0.0090920408
0.0087390371
0.0084175156
0.0081221826
0.0078488964
0.0075959356
0.0073623488
0.0071449562
0.0069436265
0.0067571215
0.0065841786
0.0064230543
0.0062731099
0.0061342427
0.0060038012
0.0058823718
0.0057692666
0.0056625456
0.0055632618
0.0054708295
0.0053835221
0.0053023265
0.0052266672
0.0051551918
0.0050889128
0.0050271717
0.0049685949
0.0049141183
0.0048629851
0.0048145514
0.0047697655
0.004727576
0.0046882452
0.0046517751
0.0046172631
0.0045851462
0.0045549135
0.0045260612
0.0044989825
0.004473396
0.0044489886
0.004426076
0.0044045035
0.0043839482
0.0043646856
0.0043466158
0.0043294647
0.00431335
0.0042980485
0.0042836979
0.0042702153
0.0042575592
0.0042457749
0.0042346685
0.0042241809
0.0042142392
0.004204821
0.004196019
0.0041878919
0.0041802707
0.0041731924
0.0041666706
0.004160687
0.0041552079
0.0041502657
0.0041458463
0.0041419206
0.0041385056
0.0041356466
0.0041332327
0.0041315447
0.0041299411
0.0041297786
0.053695846
0.055852049
0.058004143
0.060142059
0.062258423
0.064345828
0.066397198
0.068405559
0.070363823
0.072264697
0.074100618
0.075863676
0.077545521
0.079137263
0.080629384
0.08201169
0.083273294
0.084402668
0.085387761
0.086215993
0.086874623
0.087350942
0.087632019
0.087704818
0.087556199
0.087172956
0.086541899
0.085650001
0.084484591
0.083033614
0.081285962
0.07923188
0.07686348
0.074175349
0.071165303
0.067835264
0.064192438
0.060250933
0.056028607
0.051558737
0.046888818
0.042071613
0.037180904
0.032311877
0.027586245
0.02316284
0.019240463
0.016029484
0.013658341
0.012066447
0.011035104
0.010333431
0.0098058193
0.0093717814
0.00899323
0.0086520282
0.0083396631
0.0080520434
0.0077853512
0.0075383296
0.0073102109
0.0070975909
0.0069007443
0.0067183595
0.0065491129
0.0063912635
0.0062442722
0.0061080985
0.0059799227
0.0058605738
0.0057493474
0.0056442587
0.0055465617
0.005455592
0.0053695792
0.0052896486
0.0052151442
0.0051446986
0.0050793729
0.0050185133
0.0049607136
0.004906932
0.0048564488
0.0048085231
0.0047642322
0.0047225188
0.0046836103
0.0046475283
0.0046133508
0.0045815529
0.0045515871
0.0045229704
0.0044961225
0.0044707371
0.0044465105
0.004423772
0.0044023552
0.0043819489
0.0043628303
0.0043448883
0.0043278431
0.0043118494
0.0042966344
0.0042823432
0.0042689433
0.0042563613
0.0042446527
0.0042336204
0.0042232068
0.0042133275
0.0042039656
0.0041952171
0.0041871389
0.0041795683
0.0041725323
0.004166045
0.0041600892
0.0041546334
0.0041497122
0.0041453118
0.0041414031
0.0041380032
0.0041351566
0.0041327541
0.0041310737
0.0041294751
0.0041293152
0.058046337
0.060036474
0.062038572
0.064026252
0.065992125
0.067928705
0.069828743
0.07168506
0.073490373
0.075237202
0.076917798
0.078524067
0.080047487
0.081479025
0.082809063
0.08402736
0.085123047
0.086084663
0.086900249
0.087557303
0.088043136
0.08834506
0.088450142
0.088345357
0.088017626
0.087453879
0.086641155
0.08556676
0.084218478
0.082584854
0.080655545
0.078421761
0.075876812
0.073016761
0.069841211
0.066354236
0.0625657
0.058492556
0.054156552
0.049596503
0.044864298
0.040017765
0.035139095
0.030332474
0.02573197
0.021510561
0.017874567
0.015011923
0.012981526
0.011647426
0.010772206
0.01015336
0.0096683597
0.0092582506
0.0088950765
0.0085649562
0.0082614835
0.007981515
0.0077214151
0.0074804026
0.0072578465
0.0070500593
0.0068577885
0.0066796011
0.0065140956
0.00635955
0.006215532
0.0060820627
0.0059561513
0.0058388874
0.0057295443
0.0056260922
0.0055299935
0.0054404957
0.0053557836
0.005277125
0.0052037763
0.0051343571
0.0050699899
0.0050099913
0.0049529556
0.0048998627
0.0048500238
0.0048026018
0.0047587928
0.0047175546
0.0046790588
0.0046433581
0.0046095075
0.004578019
0.0045483114
0.0045199231
0.0044932986
0.0044681073
0.0044440575
0.0044214889
0.0044002252
0.0043799654
0.0043609871
0.0043431711
0.0043262309
0.0043103562
0.0042952289
0.0042809953
0.0042676758
0.0042551676
0.0042435331
0.0042325744
0.0042222339
0.0042124166
0.0042031095
0.0041944125
0.004186382
0.0041788608
0.0041718667
0.0041654134
0.0041594852
0.0041540522
0.0041491514
0.0041447697
0.0041408776
0.0041374922
0.004134658
0.0041322665
0.0041305936
0.0041289997
0.0041288426
0.062368294
0.064192287
0.066040749
0.067874113
0.069685113
0.071466303
0.073210327
0.07490983
0.076557332
0.078145158
0.07966537
0.081109694
0.08246945
0.083735475
0.084898071
0.085946967
0.086871313
0.087659718
0.088300314
0.088780686
0.089088226
0.089210305
0.08913404
0.088846474
0.088334641
0.087585659
0.086586849
0.085325914
0.08379117
0.081971849
0.079858481
0.07744337
0.074721176
0.071689614
0.068350279
0.06470965
0.060780608
0.056582548
0.052142599
0.047505695
0.042727071
0.037871276
0.033029629
0.028316602
0.023879934
0.019905925
0.016599354
0.014104881
0.012399118
0.011287867
0.010539312
0.009986431
0.009536026
0.009146489
0.0087973377
0.0084777123
0.0081829123
0.0079105369
0.0076570101
0.0074220573
0.0072051286
0.0070021954
0.0068145539
0.0066405978
0.006478835
0.0063275837
0.006186526
0.0060557427
0.0059320715
0.0058168884
0.0057094293
0.0056076182
0.0055131326
0.0054251204
0.0053417215
0.0052643517
0.0051921711
0.0051237886
0.0050604014
0.0050012584
0.0049449891
0.0048925912
0.0048434053
0.0047965066
0.0047531839
0.0047124357
0.0046743604
0.0046390504
0.0046055342
0.0045743597
0.0045449148
0.0045167597
0.0044903636
0.0044653707
0.0044415042
0.0044191124
0.0043980089
0.0043779016
0.0043590691
0.0043413857
0.0043245572
0.0043088057
0.0042937738
0.0042796031
0.0042663669
0.004253937
0.0042423793
0.0042314976
0.0042212326
0.0042114801
0.0042022294
0.0041935849
0.0041856036
0.0041781329
0.0041711823
0.0041647651
0.0041588658
0.004153457
0.0041485775
0.0041442153
0.0041403405
0.0041369701
0.0041341489
0.0041317688
0.0041301036
0.0041285148
0.0041283605
0.066628158
0.068291129
0.069982877
0.071658787
0.073311517
0.074933621
0.07651766
0.078056137
0.079541415
0.080965655
0.082320755
0.083598289
0.084789442
0.08588495
0.08687505
0.087749454
0.088497341
0.089107388
0.08956782
0.089866324
0.089990397
0.089927506
0.089664871
0.08918966
0.088489082
0.087550503
0.086361597
0.084910537
0.083186257
0.081178779
0.07887963
0.07628235
0.073383119
0.070181497
0.066681302
0.062891713
0.058829097
0.054514721
0.049982827
0.045285136
0.040478778
0.035637574
0.030862582
0.026280129
0.022052481
0.018375533
0.015436911
0.013315208
0.011904383
0.010978312
0.010330166
0.009829594
0.0094075334
0.0090360243
0.0086998693
0.0083902761
0.0081039914
0.0078391825
0.0075922283
0.0073634076
0.0071521828
0.0069541313
0.0067711776
0.0066014864
0.006443468
0.0062955043
0.0061573996
0.0060292857
0.0059078368
0.005794738
0.0056891685
0.0055890075
0.0054961511
0.0054096389
0.005327566
0.0052514975
0.0051804938
0.0051131526
0.0050507613
0.0049924639
0.0049369567
0.0048852488
0.0048367178
0.0047903626
0.004747524
0.0047072721
0.004669618
0.0046347011
0.0046015209
0.0045706576
0.0045414748
0.0045135531
0.0044873849
0.0044625898
0.0044389084
0.0044166962
0.0043957556
0.004375803
0.0043571181
0.0043395701
0.0043228571
0.0043072289
0.0042922972
0.004278193
0.00426504
0.0042526904
0.00424121
0.0042304067
0.0042202181
0.0042105313
0.0042013373
0.0041927448
0.0041848124
0.0041773921
0.0041704856
0.0041641051
0.0041582352
0.0041528511
0.0041479932
0.0041436508
0.0041397933
0.004136438
0.0041336299
0.0041312613
0.0041296038
0.0041280201
0.0041278687
0.070796112
0.072300463
0.073834449
0.075351049
0.076843084
0.078303204
0.079723958
0.081097778
0.082416926
0.083673449
0.084859126
0.085965418
0.08698341
0.087903764
0.088716676
0.089411855
0.089978519
0.090405417
0.090680876
0.090792699
0.090728513
0.090475922
0.090022301
0.089355002
0.088461477
0.087329416
0.085946919
0.084302723
0.082386479
0.080189119
0.077703304
0.074923974
0.071849021
0.068480074
0.064823416
0.060891237
0.056703644
0.052284778
0.047676005
0.042935548
0.038124161
0.033326228
0.028653298
0.02424527
0.020278341
0.016949112
0.014405596
0.012642568
0.011486835
0.010709202
0.010139338
0.0096803946
0.0092818938
0.0089265124
0.0086025718
0.0083026378
0.008024757
0.0077675062
0.0075271295
0.0073045174
0.0070990624
0.0069059073
0.006727682
0.0065622646
0.0064079721
0.0062632726
0.0061281008
0.0060026254
0.005883372
0.0057723585
0.0056686807
0.0055701787
0.0054789669
0.0053939677
0.0053132333
0.0052384773
0.0051686594
0.0051023649
0.0050409842
0.0049835272
0.004928782
0.0048777553
0.0048298813
0.0047841011
0.0047417487
0.0047019996
0.0046647726
0.0046302543
0.0045974151
0.0045668628
0.0045379452
0.0045102601
0.004484322
0.0044597279
0.004436236
0.0044142095
0.0043934363
0.0043736431
0.0043551106
0.0043377028
0.0043211116
0.004305608
0.0042907827
0.0042767514
0.0042636828
0.0042514167
0.004240015
0.0042292926
0.0042191822
0.0042095629
0.0042004266
0.0041918863
0.0041840034
0.0041766339
0.0041697726
0.0041634302
0.0041575908
0.0041522323
0.0041473967
0.0041430747
0.0041392351
0.0041358951
0.0041331004
0.0041307436
0.0041290939
0.0041275155
0.0041273671
0.074840647
0.076188144
0.077563771
0.078919857
0.080249442
0.081545319
0.082800091
0.084006186
0.085155827
0.086241002
0.087253422
0.088184476
0.089025189
0.089766181
0.090397631
0.090909264
0.09129035
0.091529721
0.091615818
0.091536581
0.091279796
0.090833244
0.090184508
0.089321192
0.088231063
0.086902219
0.085323279
0.083483643
0.081373802
0.078985733
0.07631339
0.073353301
0.070105292
0.066573318
0.062766426
0.058700182
0.054398433
0.049889588
0.045222632
0.040461285
0.03567235
0.030951998
0.026423464
0.022241354
0.018591918
0.015656043
0.01351616
0.012079252
0.011133862
0.010471673
0.00996233
0.0095369106
0.0091583691
0.0088177164
0.0085053863
0.008214811
0.007945264
0.0076955799
0.007461798
0.0072454746
0.0070458402
0.0068575906
0.0066841213
0.0065229664
0.0063723704
0.0062309052
0.0060986426
0.0059757701
0.0058586888
0.0057497657
0.0056479839
0.0055511548
0.0054616064
0.0053781338
0.0052987523
0.0052253193
0.0051566957
0.0050914525
0.0050310916
0.0049744737
0.0049204929
0.0048701327
0.0048229146
0.0047777464
0.0047358831
0.0046966383
0.0046598453
0.0046257293
0.004593235
0.0045629917
0.0045343418
0.0045068959
0.0044811892
0.0044567988
0.0044335003
0.0044116646
0.0043910627
0.0043714326
0.004353057
0.0043357936
0.0043193299
0.0043039511
0.0042892372
0.0042752852
0.0042623019
0.0042501216
0.0042387994
0.0042281598
0.0042181289
0.0042085783
0.0041995005
0.0041910123
0.0041831789
0.0041758603
0.0041690448
0.0041627415
0.0041569335
0.0041516015
0.0041467887
0.0041424874
0.0041386659
0.0041353415
0.0041325605
0.0041302156
0.0041285737
0.0041270009
0.0041268554
0.078728092
0.079920267
0.081137254
0.082332093
0.083498009
0.084627948
0.085714611
0.086750476
0.087727784
0.088638517
0.089474364
0.09022669
0.090886498
0.091444399
0.091890586
0.092214822
0.092406443
0.092454385
0.092347216
0.092073042
0.09161984
0.090975615
0.090128216
0.089065567
0.087775837
0.08624762
0.084470164
0.082433652
0.080129549
0.077551037
0.074693547
0.071555409
0.068138635
0.064449811
0.06050113
0.056312027
0.051909488
0.047328378
0.042626348
0.037870863
0.033137662
0.028536017
0.024202365
0.020305239
0.017031085
0.01452043
0.012769055
0.011611682
0.010832435
0.010258057
0.0097955652
0.0093976719
0.0090364331
0.0087094901
0.0084082813
0.0081268269
0.0078655774
0.0076234812
0.0073963275
0.0071863658
0.0069925723
0.006809232
0.0066405284
0.0064835976
0.0063366547
0.0061983849
0.0060690014
0.0059486896
0.0058337599
0.0057269325
0.0056270498
0.0055319116
0.0054440472
0.0053621134
0.0052841004
0.0052119992
0.0051445776
0.0050803901
0.0050210513
0.004965276
0.0049120668
0.0048623562
0.0048157905
0.0047712758
0.0047299081
0.0046911654
0.0046548175
0.0046211074
0.0045889624
0.0045590271
0.0045306485
0.0045034459
0.0044779723
0.0044537907
0.0044306907
0.0044090517
0.0043886254
0.0043691631
0.0043509502
0.0043338356
0.004317506
0.004302253
0.0042876555
0.0042737903
0.0042608938
0.0042488021
0.0042375604
0.0042270057
0.0042170558
0.0042075754
0.0041985569
0.0041901211
0.0041823374
0.0041750697
0.0041683009
0.0041620378
0.0041562622
0.0041509576
0.0041461684
0.0041418881
0.0041380853
0.004134777
0.0041320097
0.004129677
0.0041280432
0.0041264759
0.0041263335
0.082422094
0.083460582
0.084519099
0.085552427
0.086553965
0.087516812
0.088433799
0.089297496
0.09010021
0.090833964
0.091490477
0.092061131
0.092536949
0.092908566
0.093166218
0.093299731
0.093298532
0.093151678
0.092847897
0.092375484
0.091722655
0.090877686
0.089828755
0.088564188
0.087072644
0.085343321
0.083366217
0.081132438
0.078634582
0.075867218
0.072827465
0.069515702
0.06593641
0.062099152
0.058019726
0.053722182
0.049235508
0.044604136
0.039895255
0.035177807
0.030540799
0.026107397
0.022028126
0.01848056
0.015632638
0.013555677
0.01215412
0.011223012
0.010570472
0.0100621
0.0096363168
0.0092615651
0.0089157506
0.0086017693
0.0083112384
0.0080387333
0.0077857736
0.0075512908
0.0073308249
0.0071272812
0.0069392996
0.0067608776
0.00659693
0.0064441569
0.0063008127
0.0061656948
0.0060391556
0.0059213603
0.0058085734
0.0057038471
0.0056058664
0.0055124445
0.005426289
0.0053459047
0.0052692782
0.0051985178
0.0051323041
0.0050691776
0.0050108557
0.0049559299
0.0049035037
0.0048544283
0.0048085087
0.0047646891
0.0047238267
0.0046855794
0.0046496915
0.0046163897
0.0045845974
0.0045549692
0.0045268659
0.0044999109
0.0044746718
0.0044507056
0.0044278099
0.0044063726
0.0043861265
0.0043668368
0.0043487928
0.0043318311
0.004315642
0.0043005162
0.0042860395
0.0042722685
0.0042594607
0.0042474598
0.0042362994
0.0042258313
0.004215964
0.0042065548
0.0041975968
0.0041892135
0.0041814793
0.0041742626
0.004167541
0.0041613192
0.0041555771
0.0041503008
0.0041455359
0.0041412769
0.0041374933
0.0041342015
0.004131448
0.0041291277
0.004127502
0.0041259405
0.0041258012
0.085884449
0.08677097
0.087671556
0.088543518
0.089380416
0.090175508
0.090921772
0.091611907
0.092238326
0.092793139
0.093268135
0.093654755
0.093944079
0.094126802
0.094193231
0.094133284
0.093936508
0.093592108
0.093088999
0.092415712
0.091560743
0.090512702
0.089260167
0.087791955
0.086097316
0.084166179
0.081989426
0.079559248
0.076869563
0.073916542
0.070699234
0.067220345
0.063487154
0.059512577
0.055316518
0.050928089
0.046379643
0.041725736
0.037042051
0.032402219
0.027910887
0.023705153
0.019948258
0.016814503
0.014425299
0.012760679
0.011652966
0.010895921
0.010337641
0.0098789584
0.0094826011
0.0091277165
0.0087961931
0.0084945678
0.0082142183
0.0079505891
0.0077059395
0.0074790816
0.0072654055
0.0070683119
0.0068860369
0.0067125665
0.0065533398
0.0064046259
0.006264816
0.0061328046
0.0060090714
0.0058937471
0.0057831105
0.005680489
0.0055844127
0.005492742
0.0054083225
0.0053294947
0.0052542755
0.0051848646
0.0051198622
0.0050578034
0.0050004866
0.0049464179
0.0048947881
0.0048463424
0.0048010617
0.0047579727
0.0047176303
0.0046798692
0.0046444589
0.004611567
0.0045801304
0.0045508099
0.0045229855
0.0044962835
0.004471281
0.0044475384
0.0044248541
0.0044036232
0.0043835625
0.0043644509
0.0043465824
0.0043297775
0.0043137355
0.0042987396
0.0042843876
0.004270718
0.0042580016
0.0042460938
0.0042350157
0.0042246356
0.0042148524
0.0042055158
0.0041966193
0.0041882888
0.0041806041
0.0041734383
0.0041667644
0.004160585
0.0041548776
0.0041496306
0.004144891
0.0041406533
0.0041368894
0.0041336148
0.004130875
0.0041285675
0.0041269501
0.0041253945
0.0041252583
0.089075147
0.089811515
0.090555016
0.091266098
0.091938478
0.092565582
0.093140554
0.093656252
0.094105229
0.094479718
0.094771614
0.094972455
0.095073407
0.09506526
0.094938423
0.094682937
0.094288496
0.093744491
0.093040063
0.092164026
0.091105213
0.089852635
0.088395357
0.086722782
0.084824877
0.082692433
0.080317384
0.077693193
0.074815314
0.071681766
0.068293818
0.064656831
0.060781262
0.056683854
0.052389203
0.04793161
0.043348795
0.038706557
0.034087511
0.029574102
0.025288095
0.021379839
0.018018062
0.015350837
0.013422083
0.012119772
0.011243114
0.010614847
0.010125612
0.0097050912
0.0093330404
0.0089953588
0.0086778905
0.0083879325
0.0081171082
0.0078624684
0.0076261739
0.0074069024
0.007200195
0.0070095508
0.0068327627
0.0066643425
0.0065097607
0.0063649658
0.0062286207
0.0060996768
0.0059787142
0.0058658107
0.0057573535
0.0056568409
0.0055626727
0.0054728013
0.0053901441
0.0053128756
0.0052390884
0.0051710361
0.0051072442
0.0050462624
0.0049899351
0.0049367284
0.0048859077
0.0048381008
0.0047934527
0.0047511178
0.004711316
0.0046740317
0.0046391173
0.0046066356
0.0045755568
0.0045465463
0.0045190037
0.0044925606
0.0044677978
0.0044442885
0.0044218236
0.004400803
0.0043809338
0.0043620062
0.0043443193
0.0043276752
0.0043117862
0.0042969244
0.004282701
0.0042691393
0.0042565173
0.0042447047
0.0042337097
0.004223419
0.0042137212
0.0042044585
0.0041956245
0.0041873472
0.0041797118
0.0041725969
0.0041659711
0.0041598349
0.0041541635
0.0041489468
0.0041442333
0.0041400172
0.0041362736
0.0041330168
0.0041302907
0.0041279962
0.0041263873
0.0041248377
0.0041247047
0.091952313
0.09254045
0.093127968
0.093678946
0.094187268
0.094646545
0.09505011
0.095391005
0.09566195
0.09585533
0.095963174
0.095977143
0.095888522
0.095688221
0.095366784
0.094914406
0.094320967
0.093576083
0.092669171
0.091589379
0.090325952
0.088868379
0.087206309
0.08532985
0.083229818
0.080898032
0.078327664
0.075513669
0.072453295
0.0691467
0.065597709
0.061814719
0.057811819
0.053610186
0.049239908
0.044739624
0.04015607
0.035568225
0.031062424
0.02673535
0.022725764
0.019193379
0.016294763
0.014119552
0.012615746
0.011606904
0.010902324
0.01036733
0.0099278833
0.0095381464
0.009186588
0.0088637896
0.0085612049
0.008281765
0.0080197371
0.0077745115
0.0075465961
0.0073347709
0.0071353408
0.0069510689
0.0067794084
0.006616273
0.0064661839
0.0063251037
0.0061921618
0.0060662693
0.005948056
0.005837504
0.0057312794
0.0056328861
0.0055406324
0.0054526249
0.005371749
0.005296038
0.0052237127
0.0051570267
0.0050944391
0.0050345469
0.0049791934
0.0049268484
0.0048768458
0.0048297042
0.0047856854
0.0047441108
0.0047048772
0.0046680647
0.004633661
0.0046015889
0.0045708699
0.0045421733
0.0045149147
0.0044887369
0.0044642187
0.0044409531
0.0044187167
0.00439791
0.0043782396
0.0043595024
0.0043420028
0.0043255234
0.0043097931
0.0042950708
0.0042809797
0.0042675317
0.0042550076
0.0042432921
0.0042323811
0.0042221809
0.0042125699
0.0042033824
0.0041946123
0.0041863884
0.0041788023
0.004171738
0.0041651606
0.0041590685
0.0041534345
0.004148249
0.0041435626
0.0041393683
0.0041356455
0.0041324073
0.0041296948
0.0041274136
0.0041258134
0.00412427
0.0041241401
0.094472108
0.09491403
0.095346886
0.095738803
0.096083855
0.096375858
0.096608365
0.096774619
0.09686753
0.096879651
0.096803165
0.096629875
0.096351209
0.095958228
0.095441639
0.094791828
0.093998905
0.093052758
0.091943136
0.090659595
0.089191866
0.087530018
0.085664393
0.083585941
0.081286488
0.078759068
0.075998314
0.073000933
0.069766264
0.066296959
0.06259979
0.058686631
0.054575721
0.050293441
0.045876568
0.041366044
0.036824444
0.032343583
0.028010146
0.023942366
0.020291594
0.017214854
0.014826057
0.013127
0.011980697
0.011192211
0.010611787
0.010144219
0.0097394507
0.0093764628
0.0090422974
0.0087325999
0.0084463086
0.0081757983
0.0079222397
0.0076870205
0.0074673516
0.007262714
0.007071013
0.0068928202
0.0067258782
0.0065684598
0.0064225764
0.0062849276
0.0061553561
0.006032545
0.0059170844
0.0058087714
0.0057048648
0.0056086139
0.0055182823
0.005432225
0.0053531347
0.0052789754
0.0052081496
0.0051428333
0.0050814373
0.0050226508
0.0049682592
0.0049167698
0.0048675899
0.0048211549
0.0047777667
0.0047369392
0.0046983088
0.0046619721
0.0046280858
0.0045964216
0.0045660653
0.0045376883
0.0045107143
0.0044848088
0.0044605427
0.0044375313
0.0044155331
0.004394944
0.0043754806
0.0043569405
0.004339633
0.0043233222
0.0043077559
0.0042931795
0.0042792248
0.0042658954
0.0042534731
0.0042418561
0.00423103
0.0042209214
0.0042113981
0.0042022876
0.0041935824
0.0041854125
0.0041778754
0.0041708614
0.0041643326
0.0041582856
0.0041526903
0.004147537
0.0041428786
0.0041387063
0.004135005
0.0041317861
0.0041290872
0.0041268196
0.0041252282
0.0041236911
0.0041235644
0.09658844
0.096886335
0.097166096
0.097400293
0.097583226
0.097708956
0.097771271
0.097763634
0.097679152
0.097510556
0.097250191
0.096890022
0.09642164
0.095836281
0.095124853
0.094277977
0.093286038
0.092139257
0.090827786
0.089341667
0.08767122
0.0858072
0.083740783
0.081463917
0.078969627
0.076252386
0.073308547
0.070136876
0.066739169
0.063120988
0.059292532
0.055269669
0.051075381
0.046742104
0.042313822
0.037836816
0.033391109
0.029077534
0.024990692
0.02126874
0.018065279
0.015509155
0.013635347
0.012352889
0.011480976
0.010848552
0.010357033
0.0099378156
0.0095593821
0.0092160912
0.0088991071
0.0086043756
0.0083289566
0.0080696913
0.0078269529
0.0076003896
0.0073885795
0.0071908679
0.0070072284
0.0068346011
0.0066722062
0.0065209835
0.0063788357
0.0062443277
0.0061181261
0.0059984809
0.0058857865
0.0057795517
0.0056781052
0.0055840199
0.0054956108
0.0054116206
0.0053343008
0.0052616836
0.0051924061
0.0051284526
0.0050682288
0.005010568
0.004957132
0.004906488
0.0048581328
0.0048124528
0.0047697008
0.004729591
0.0046916046
0.0046557605
0.0046223869
0.004591128
0.0045611389
0.004533088
0.0045063982
0.0044807729
0.0044567692
0.0044340218
0.0044122719
0.0043919048
0.0043726573
0.0043543215
0.0043372094
0.0043210721
0.0043056749
0.0042912507
0.0042774368
0.0042642305
0.0042519139
0.0042403964
0.0042296564
0.0042196401
0.0042102055
0.0042011738
0.0041925346
0.0041844192
0.0041769309
0.0041699671
0.0041634869
0.0041574859
0.0041519304
0.0041468105
0.0041421811
0.0041380312
0.0041343518
0.0041311529
0.0041284675
0.0041262138
0.0041246315
0.004123101
0.0041229775
0.098253063
0.098409331
0.098537839
0.098616006
0.098638412
0.098599391
0.098492984
0.098312873
0.098052359
0.097704349
0.097261359
0.096715526
0.096058627
0.095282108
0.094377118
0.093334561
0.09214516
0.090799539
0.089288335
0.087602177
0.085732088
0.08366965
0.081407029
0.078937361
0.076255095
0.073356403
0.070239673
0.066906097
0.06336036
0.059611453
0.055673596
0.051567318
0.047321125
0.042974578
0.038578137
0.034189452
0.029907619
0.025836142
0.022085305
0.01880457
0.016128046
0.014118085
0.012711827
0.011757407
0.011079607