/*--------------------------------*- C++ -*----------------------------------*\
| =========                 |                                                 |
| \\      /  F ield         | OpenFOAM: The Open Source CFD Toolbox           |
|  \\    /   O peration     | Version:  2406                                  |
|   \\  /    A nd           | Website:  www.openfoam.com                      |
|    \\/     M anipulation  |                                                 |
\*---------------------------------------------------------------------------*/
FoamFile
{
    version     2.0;
    format      ascii;
    arch        "LSB;label=32;scalar=64";
    class       volScalarField;
    location    "0.08";
    object      k;
}
// * * * * * * * * * * * * * * * * * * * * * * * * * * * * * * * * * * * * * //

dimensions      [0 2 -2 0 0 0 0];

internalField   nonuniform List<scalar> 
8260
(
787.95443
762.88748
728.42835
686.02063
636.67728
581.34698
521.41159
458.61178
394.88696
332.02481
271.61423
214.98662
163.12989
116.73731
76.194445
42.215812
16.868749
4.8642604
1.9023387
1.2228869
0.9037068
0.73101134
0.63071214
0.55383552
0.50370881
0.47309749
0.45669831
0.43614863
0.43061104
0.40573811
0.39587058
769.47213
741.20355
705.15546
662.54081
614.00409
560.26735
502.45148
442.0331
380.74281
320.24876
261.96972
207.18918
156.88781
111.80136
72.315306
39.334181
15.086142
4.2961823
1.793317
1.1851256
0.8835393
0.72069847
0.62501181
0.55063773
0.50175258
0.47193373
0.45589751
0.43577411
0.4302895
0.40552022
0.39579441
742.12657
712.54115
676.40836
634.56265
587.52218
535.91231
480.6734
423.06889
364.60589
306.79235
250.95107
198.29209
149.78051
106.19479
67.93835
36.090337
13.216241
3.8112641
1.7036292
1.1652721
0.87264569
0.71507865
0.62188087
0.54891464
0.5006557
0.47110159
0.45542183
0.43544942
0.42996281
0.40530136
0.39573838
704.84085
675.35297
640.40217
600.47728
555.92166
507.25586
455.27908
401.07728
345.95865
291.27245
238.25922
188.06133
141.62659
99.778704
62.961852
32.435045
11.269762
3.3650536
1.6204943
1.1339889
0.85397309
0.70508152
0.61607805
0.54566266
0.49856593
0.46972722
0.45451955
0.43501611
0.42958175
0.40507666
0.39566705
658.13563
630.03013
597.21897
560.11691
518.89777
473.94772
425.91887
375.727
324.49668
273.42754
223.67206
176.31092
132.27456
92.43426
57.297562
28.334102
9.2848247
2.9484193
1.5462733
1.1059121
0.83776765
0.69665496
0.61114859
0.54295405
0.49688128
0.46849117
0.45378303
0.43455138
0.42912395
0.40492051
0.39555094
602.62135
576.93257
547.1116
513.5873
476.41481
435.85088
392.39587
346.79367
299.98973
253.03503
206.98658
162.86227
121.57406
84.043768
50.863067
23.787519
7.3431989
2.5665942
1.4685108
1.0716535
0.81680578
0.6853495
0.60432711
0.53909276
0.49446294
0.46679698
0.45271598
0.4339769
0.42856803
0.40475358
0.39541338
539.30047
516.80759
490.6657
461.31554
428.73849
393.08442
354.71133
314.19485
272.30317
229.93321
188.03441
147.55461
109.38385
74.497346
43.591726
18.867662
5.7367844
2.233736
1.3947595
1.0376755
0.79644542
0.67455707
0.59766996
0.53535969
0.49221658
0.46511322
0.45172376
0.4333192
0.42789589
0.40460537
0.395249
469.91789
451.05445
429.00066
404.17958
376.52489
346.10138
313.14193
278.0642
241.46248
204.0727
166.72161
130.2752
95.595898
63.713098
35.459702
13.79377
4.3553359
1.9476629
1.3197955
0.99923818
0.77257094
0.66148144
0.58938999
0.5305543
0.48931944
0.46298676
0.4504302
0.43252048
0.42708212
0.4044722
0.39506228
396.73132
381.58781
363.71125
343.48828
320.82255
295.71183
268.28215
238.80668
207.71241
175.57144
143.07628
110.99967
80.172047
51.671921
26.551362
9.0136376
3.2334875
1.713595
1.2466043
0.96018265
0.74879581
0.64844409
0.58091459
0.52561135
0.48644092
0.46079979
0.44914719
0.43157613
0.42610941
0.40439673
0.39487101
322.17945
310.57251
296.6943
280.88235
263.02596
243.07379
221.0614
197.1332
171.56249
144.76522
117.30004
89.84348
63.198695
38.481348
17.238854
5.7906236
2.4470842
1.5517384
1.1722685
0.91770994
0.7224399
0.63336953
0.57094614
0.51957293
0.48290261
0.45817878
0.44754405
0.43042777
0.42496019
0.4043264
0.39467905
248.84038
240.35589
230.11927
218.33383
204.8881
189.70571
172.75578
154.0779
133.81555
112.25035
89.826033
67.137009
44.972179
24.525608
9.0923369
3.5585651
1.9079201
1.394356
1.0967917
0.87492998
0.69654031
0.61804731
0.56068335
0.51326801
0.47925364
0.45548303
0.44587825
0.42905885
0.42361942
0.40428726
0.39454746
179.13596
173.23052
166.08064
157.77965
148.20508
137.2508
124.8341
110.91334
95.539496
78.906627
61.400369
43.576516
26.141394
11.879101
4.7053849
2.3341906
1.5990573
1.2711936
1.0239855
0.83047227
0.66938585
0.60088855
0.54909211
0.50593782
0.47487529
0.45239
0.4438522
0.42744393
0.42206536
0.4041564
0.39438557
115.18621
111.37346
106.7317
101.28033
94.90722
87.505124
78.961856
69.136496
58.062453
45.948099
33.281917
20.885918
11.327978
5.1921501
2.6060943
1.7278556
1.3895234
1.1331655
0.9512824
0.78617439
0.64475994
0.58376988
0.5371768
0.49850219
0.47023171
0.44923261
0.44172871
0.4256251
0.42031967
0.404091
0.39424551
59.127639
56.852162
54.069426
50.805817
46.966474
42.490016
37.36956
31.740521
25.677191
19.399338
13.374855
8.13924
4.5443782
2.5730412
1.7835144
1.4411463
1.204953
1.0314242
0.88172024
0.74380451
0.61878559
0.56595252
0.52383883
0.4904836
0.46485885
0.44569518
0.43927683
0.4236681
0.41847868
0.40388345
0.39414898
22.530881
21.587967
20.481415
19.182089
17.603808
15.732495
13.609036
11.319388
9.0419675
6.8715377
4.9063046
3.2813918
2.2227941
1.6789693
1.4289728
1.1972805
1.040133
0.9066563
0.8094908
0.70056012
0.59869697
0.5472911
0.51064443
0.48279534
0.45948973
0.44202229
0.43672928
0.42168174
0.41675985
0.40374193
0.39402031
7.3545897
7.1083512
6.7885932
6.399212
5.9251453
5.3759213
4.7346309
4.0513148
3.3551193
2.7084278
2.1411868
1.6987855
1.4509138
1.3180048
1.1785141
1.0365864
0.90753212
0.82297172
0.74617779
0.66018377
0.57291355
0.52889172
0.49751312
0.47479844
0.45392256
0.43799183
0.43384055
0.41968739
0.41533008
0.40346297
0.39394923
2.6052333
2.5585071
2.4818372
2.381571
2.2566627
2.1099313
1.9375021
1.7579585
1.576703
1.4086437
1.2592611
1.1674551
1.1216509
1.0656468
0.98284235
0.87662556
0.79801752
0.73617979
0.68813892
0.61586976
0.55271958
0.5098454
0.48679807
0.46692853
0.44866225
0.43403892
0.43083754
0.41763828
0.41413158
0.40306428
0.39387848
1.2589232
1.2484877
1.2296935
1.2046757
1.1747564
1.1392037
1.0957702
1.0450694
1.0103283
0.97745615
0.95019784
0.93407765
0.87799609
0.83415521
0.80518946
0.76085087
0.68673374
0.65373157
0.62483329
0.58032257
0.52794183
0.49152546
0.47613264
0.45998746
0.442522
0.43018004
0.42762835
0.41573853
0.41286294
0.40258379
0.39379477
0.86053535
0.85558022
0.84931403
0.84188152
0.83374638
0.82319689
0.80993907
0.79807898
0.79101063
0.78460649
0.77485152
0.72706446
0.72800708
0.70002684
0.66072578
0.64410117
0.62407701
0.57200265
0.56875848
0.54924756
0.50799227
0.47494159
0.46890622
0.45195165
0.43635936
0.4267727
0.42447993
0.41375351
0.41133035
0.40240744
0.39375054
0.68705549
0.68569916
0.68526482
0.68535585
0.68607223
0.68575254
0.68530732
0.68200241
0.66885742
0.64921279
0.63038108
0.62673098
0.60555975
0.5950334
0.58641382
0.57099999
0.55078794
0.52745206
0.51605787
0.50628096
0.48745172
0.46431732
0.45565909
0.44432498
0.4304643
0.42300333
0.42114368
0.41145975
0.40974741
0.40222878
0.39385668
0.59102937
0.58935975
0.58550437
0.57905095
0.57120273
0.56511194
0.56097624
0.55733843
0.55465528
0.55144785
0.55285382
0.54865635
0.53712835
0.52389587
0.52790451
0.51416677
0.51031332
0.50011992
0.48208841
0.46993725
0.46748055
0.4526001
0.44486713
0.43518106
0.42541293
0.41916074
0.41751207
0.40914109
0.40817675
0.4021976
0.39348522
0.5067911
0.50641297
0.50538639
0.50373122
0.5025537
0.50312661
0.5038437
0.50390497
0.50226755
0.49727367
0.4894443
0.48484866
0.48353947
0.47641396
0.47250508
0.47099833
0.4642328
0.47189726
0.46314328
0.44993763
0.43777723
0.4381928
0.43240526
0.42651114
0.41935297
0.41508708
0.41318688
0.40683746
0.40600077
0.40214975
0.39365455
0.46736119
0.46697488
0.4658229
0.4640221
0.46196095
0.45947749
0.45768204
0.4565975
0.45552269
0.45440579
0.45275722
0.45193627
0.44890408
0.45012768
0.4450532
0.44031689
0.43873235
0.4371337
0.44211195
0.4358983
0.42306962
0.423633
0.4230688
0.41692932
0.41485394
0.40996576
0.40993777
0.40443043
0.40382126
0.40188776
0.39376562
0.43395271
0.43407699
0.43391073
0.43351041
0.43312075
0.43299677
0.43328527
0.43376506
0.43406226
0.43400861
0.43362196
0.43144463
0.43028744
0.42708393
0.4255536
0.42230206
0.4220195
0.42009443
0.41994842
0.42083184
0.41527675
0.41228882
0.41362463
0.41168231
0.40852258
0.40575542
0.40692902
0.40250286
0.40262866
0.40163398
0.39395296
0.41821089
0.41835436
0.41825208
0.41797357
0.41763401
0.41720816
0.41665462
0.41612286
0.41590487
0.41568988
0.41547471
0.41545212
0.41530187
0.41601915
0.41592934
0.41352017
0.41119085
0.41123932
0.41088415
0.40998412
0.40938015
0.40728201
0.40782274
0.40657718
0.40466654
0.40346693
0.40386025
0.40110788
0.40128365
0.40112054
0.39449251
0.40629614
0.40641313
0.40642081
0.40636459
0.40630537
0.40626526
0.40624266
0.40624608
0.40634042
0.40671119
0.40732649
0.40784181
0.40804753
0.40694367
0.40598791
0.40613841
0.40522559
0.40425554
0.40619955
0.40463223
0.40354913
0.40409793
0.40361107
0.40351199
0.40236713
0.40107908
0.40116088
0.39942452
0.40004332
0.39984012
0.3946475
0.40098116
0.40102259
0.40100749
0.40096213
0.40092823
0.40091393
0.4009179
0.40093051
0.40092081
0.40091322
0.40090199
0.40086226
0.4008703
0.40085166
0.40099117
0.40114603
0.40121619
0.4004229
0.40059784
0.40058103
0.4001387
0.40039906
0.40108311
0.40053549
0.4002134
0.39915233
0.39951434
0.39801321
0.39872595
0.39936402
0.39547262
0.39822979
0.39823415
0.3982185
0.39819702
0.39818513
0.39818558
0.39821208
0.39826679
0.39829104
0.39828182
0.39830096
0.39835787
0.39847506
0.3985745
0.39863921
0.39878714
0.39876455
0.39853124
0.39854767
0.39838869
0.39842942
0.39888611
0.39889765
0.39836232
0.39821105
0.39778658
0.39795
0.39711327
0.3979223
0.39837276
0.39596476
0.39735346
0.39734906
0.39734215
0.39733812
0.3973403
0.39734908
0.3973639
0.3973757
0.39738368
0.39739513
0.39741711
0.39743726
0.39748874
0.39763265
0.39783063
0.39802195
0.39804647
0.39791517
0.39783885
0.3977171
0.39781962
0.3983858
0.39813863
0.39756761
0.39753058
0.39733171
0.39742014
0.39679863
0.39706736
0.39796836
0.39657226
0.3971089
0.39710309
0.39710406
0.39710141
0.39709803
0.39709977
0.39710759
0.39712187
0.39714413
0.39717915
0.39723407
0.397315
0.39742658
0.39756486
0.39771018
0.3978389
0.3978807
0.39800199
0.39808544
0.39775199
0.39785994
0.39833507
0.39812239
0.39755899
0.39754488
0.39747595
0.39744634
0.3970115
0.39696509
0.39775467
0.39737869
0.39768242
0.39767961
0.3976771
0.39767584
0.3976772
0.3976825
0.39769285
0.39770934
0.3977331
0.39776547
0.39780795
0.39786097
0.39792042
0.39797172
0.39800961
0.39803445
0.39801154
0.39799499
0.39821601
0.39808613
0.39792586
0.39807379
0.397991
0.39768404
0.39759004
0.39766631
0.39760157
0.39739125
0.39740148
0.39771237
0.39811272
95.483682
173.75598
273.69262
368.62939
441.49582
486.50693
503.70079
497.58672
473.97975
430.79753
378.68031
321.70027
263.54315
207.21855
154.94001
108.1824
67.717976
35.01714
13.614138
4.216511
1.6167127
0.97502414
0.75086173
0.62377823
0.54827761
0.49887783
0.47364929
0.44664325
0.43964724
0.41115043
0.39741417
204.98319
311.11076
397.04764
458.89562
498.46084
516.09419
514.24136
498.35834
463.04534
416.12939
362.78836
306.28743
249.62615
195.27992
145.10781
100.3655
61.72418
30.901406
11.395421
3.4813265
1.463629
0.93169793
0.7347439
0.61568222
0.54368852
0.49661876
0.47224446
0.44600237
0.43936117
0.41070791
0.39725206
304.05413
384.52076
449.4183
496.10368
522.1787
528.40818
518.15505
491.65476
451.08625
402.09617
348.21483
292.34876
237.07928
184.50721
136.21572
93.284866
56.319697
27.294505
9.6787085
3.036365
1.3522962
0.91261719
0.72734997
0.6118498
0.54139138
0.49548076
0.47136479
0.44548621
0.43912521
0.41043316
0.39709575
388.58703
453.29978
501.1189
530.32315
540.92293
535.93794
517.55329
483.24267
439.27156
388.82549
334.74573
279.61364
225.66928
174.71952
128.12788
86.839023
51.41693
24.123622
8.2583776
2.6181174
1.2738496
0.88825323
0.71586613
0.60563201
0.53761374
0.49359716
0.47014128
0.44494583
0.43883079
0.41006805
0.39695656
452.44096
501.73227
534.83416
551.23686
552.12274
539.65398
512.36707
473.95229
427.69575
376.28218
322.26179
267.93311
215.2542
165.79725
120.75029
80.95426
46.955956
21.330431
7.0646503
2.3405741
1.2146292
0.87186347
0.70832422
0.60156799
0.53512945
0.49237375
0.4692425
0.44446177
0.43854502
0.40980701
0.39682927
502.24461
539.35101
560.60682
566.39972
559.83407
539.26764
506.3134
464.6476
416.60232
364.54515
310.74736
257.24336
205.75536
157.66527
114.01867
75.571692
42.897537
18.843642
6.0652523
2.08528
1.1651664
0.854209
0.69919762
0.59646548
0.53196267
0.49077467
0.46816694
0.44395893
0.43823233
0.40951802
0.39671746
541.29152
567.96189
579.39776
577.50062
563.30915
536.36409
499.6736
455.53749
406.15106
353.69509
300.21134
247.51108
197.12224
150.27065
107.88397
70.647938
39.210236
16.621243
5.2318416
1.9016653
1.125964
0.84039131
0.69212607
0.59252419
0.52953194
0.489553
0.46728801
0.44348569
0.43789947
0.40927914
0.39662507
572.03927
589.96529
593.49617
585.77715
564.52319
532.96175
493.0951
446.93185
396.50577
343.80274
290.66383
238.71282
189.31693
143.57205
102.30691
66.163074
35.864079
14.654782
4.5468232
1.7447378
1.0932584
0.82669054
0.68460058
0.5881927
0.52684537
0.4881589
0.46632526
0.4430021
0.43753521
0.40902417
0.39655528
596.71635
607.27048
604.83981
590.83614
564.55382
529.30853
486.84342
439.03564
387.78517
334.91747
282.10901
230.82795
182.30817
137.53552
97.254979
62.080424
32.832365
12.935022
3.9924684
1.6286139
1.0658369
0.8150731
0.6782698
0.58452735
0.52461051
0.48698727
0.46548197
0.44253219
0.43714224
0.40882085
0.39650081
617.22162
621.58077
614.19247
594.26367
564.11555
525.84604
481.20979
432.02144
380.07741
327.07164
274.54546
223.83703
176.06953
132.13396
92.718003
58.378968
30.10441
11.449602
3.5603633
1.5331246
1.0423231
0.80403734
0.67199137
0.58077576
0.5223305
0.48575173
0.46460687
0.44205675
0.43671779
0.40861758
0.39646294
634.98133
634.14691
621.7329
597.19115
563.80711
522.92808
476.40872
426.01266
373.44302
320.28447
267.96768
217.72175
170.57822
127.34498
88.671787
55.06251
27.659829
10.181983
3.2110505
1.4614133
1.0217761
0.7943341
0.6665147
0.57744791
0.52034707
0.48465594
0.46381099
0.44159077
0.43626612
0.40842315
0.39644086
650.4303
645.39533
628.16758
600.15908
563.9553
520.77209
472.5896
421.09656
367.92298
314.56637
262.36809
212.46497
165.81456
123.16392
85.098359
52.111447
25.474618
9.1140557
2.9402142
1.4046002
1.0036609
0.78534175
0.66131538
0.57418375
0.51840452
0.48355229
0.46301639
0.44113109
0.4357889
0.40821685
0.39642994
664.64524
655.67651
634.5019
603.49247
564.63949
519.53004
469.86376
417.33557
363.54667
309.9229
257.73849
208.05218
161.76791
119.56485
81.988531
49.509618
23.538498
8.2272004
2.7259427
1.3628986
0.98742108
0.77733419
0.65673023
0.57123545
0.51666034
0.48254175
0.46228266
0.44069401
0.43529129
0.40802437
0.39642462
678.00848
665.39152
641.06708
607.41521
566.10722
519.37389
468.30501
414.77404
360.34187
306.37151
254.08402
204.49482
158.42093
116.51556
79.307209
47.237731
21.840487
7.5020716
2.5637886
1.3288703
0.97286953
0.7700383
0.65251182
0.56843891
0.51498238
0.48154702
0.46156921
0.44028491
0.43478135
0.407833
0.39641892
691.33
675.26619
648.23328
612.24347
569.00719
520.25418
468.04089
413.50871
358.36678
303.97025
251.43771
201.77949
155.76118
114.01825
77.05313
45.28415
20.369765
6.9191121
2.443642
1.302889
0.95980368
0.76353317
0.6488031
0.56592368
0.51344458
0.48061458
0.46092379
0.43988063
0.43427331
0.40761911
0.3964059
705.24268
686.19809
656.65735
618.4391
573.29155
522.9428
469.10904
413.64572
357.69995
302.69647
249.77432
199.8803
153.78645
112.07098
75.224655
43.63987
19.116057
6.4650698
2.3595001
1.2805707
0.94817549
0.75767884
0.64547896
0.56361757
0.51198424
0.47970423
0.46032027
0.43947407
0.43377599
0.40739352
0.39638906
719.22485
698.07869
666.43392
626.18664
579.16415
527.16243
471.86858
415.03209
358.15694
302.48911
249.04791
198.80288
152.49494
110.67459
73.822232
42.301946
18.092551
6.1062682
2.2796025
1.2608506
0.93791863
0.75247949
0.64258706
0.56158472
0.51063994
0.47883765
0.4597718
0.43907538
0.43329616
0.40715023
0.39643295
729.05524
707.27743
674.829
633.58341
585.45107
532.26338
475.79699
417.79679
359.86167
303.29224
249.23713
198.54873
151.89127
109.83371
72.850185
41.277644
17.290271
5.8219608
2.2136541
1.2447387
0.92901646
0.74786157
0.64005298
0.55979017
0.50938664
0.47799632
0.45926258
0.43868225
0.43284067
0.40690127
0.39642164
737.78181
714.89025
681.90249
640.30723
591.69424
537.83812
480.56214
421.65909
362.76756
305.30862
250.45919
199.10281
151.96799
109.55619
72.316239
40.579768
16.696781
5.5981172
2.1559036
1.231984
0.92145834
0.74382501
0.63788299
0.5582613
0.50824815
0.47719337
0.45879702
0.43829721
0.432416
0.40667304
0.39637738
748.56848
724.14187
690.13813
647.92007
598.80965
544.38924
486.41076
426.6652
366.83023
308.41224
252.67414
200.55531
152.77864
109.83872
72.229922
40.222152
16.303924
5.425333
2.1049584
1.2232419
0.91528853
0.74035902
0.63604149
0.55698402
0.50722062
0.47642555
0.45836936
0.43791955
0.43202756
0.40642558
0.39630661
759.24372
734.00575
699.34189
656.62621
607.06358
552.1223
493.48652
432.90398
372.0972
312.6447
255.90313
202.87783
154.31975
110.73649
72.604874
40.220566
16.111144
5.2959195
2.0568098
1.2185565
0.91063303
0.73751388
0.63454296
0.55597742
0.50632318
0.475704
0.4579823
0.43754801
0.43167732
0.40622708
0.39626547
769.39908
743.97413
709.17978
666.31079
616.49082
561.13211
501.8724
440.45722
378.62521
318.05425
260.18398
206.10266
156.6123
112.24308
73.454747
40.59527
16.123827
5.1999279
2.0143454
1.2166131
0.9076172
0.73533962
0.63338209
0.55523345
0.50555383
0.47502631
0.45763011
0.4371798
0.43136381
0.4060392
0.39623689
778.5759
753.27027
718.87945
676.43136
626.89143
571.40059
511.60504
449.3549
386.46283
324.68242
265.55513
210.26499
159.68341
114.38183
74.793424
41.360887
16.374085
5.1258506
1.9755912
1.2176312
0.90615072
0.73383191
0.63252377
0.55472273
0.5048971
0.47438391
0.45730363
0.43680933
0.43108068
0.40591967
0.39612699
785.23189
760.27554
726.4975
684.68828
635.67087
580.45664
520.54525
457.7909
394.11995
331.33349
271.07605
214.63971
162.97987
116.73568
76.315545
42.276111
16.760998
5.0486081
1.938726
1.2209117
0.90585873
0.73281289
0.63183429
0.5543553
0.50431414
0.47374343
0.45698816
0.43643059
0.43081951
0.40578781
0.39600998
94.912464
163.70763
256.78567
348.12088
421.76716
470.72133
493.26728
492.03926
472.23563
432.40623
382.46268
326.68293
268.87254
212.34614
159.53496
112.07368
70.854808
37.18286
14.727794
4.4794647
1.6651989
0.98738652
0.75601767
0.62651284
0.55013958
0.49983329
0.47440863
0.44699531
0.43985258
0.41139571
0.39751243
95.284246
159.50022
248.36391
336.97941
409.81084
459.52095
483.92384
484.9109
467.37833
430.09708
381.43919
326.58896
269.53242
213.45274
160.83395
113.38297
72.082904
38.177488
15.326032
4.6590356
1.6997112
0.99494384
0.75920179
0.6282056
0.55135894
0.50045663
0.474937
0.44724046
0.43999557
0.41160268
0.39761591
96.099419
155.78567
239.67272
325.46108
397.39208
447.8151
474.03858
477.27097
461.67343
426.77116
379.92434
326.35706
270.14014
214.55875
162.16493
114.74225
73.361531
39.226173
15.96389
4.8620226
1.734986
1.0032788
0.76272234
0.6300879
0.55266487
0.50113548
0.47548779
0.44750394
0.44011532
0.41188552
0.39773231
97.458799
152.46743
231.16636
313.80319
384.6588
435.66705
463.6274
469.09907
455.54096
423.07056
378.13928
325.95524
270.67012
215.64853
163.51965
116.14879
74.688572
40.333691
16.636166
5.0885277
1.778595
1.0118555
0.76603505
0.63182463
0.55394222
0.50179081
0.47606921
0.44777052
0.44030896
0.41219056
0.39786522
99.663444
149.87816
223.08886
302.23462
371.74827
423.13977
452.71033
460.38785
448.94433
418.96493
376.04985
325.36052
271.10046
216.70833
164.89081
117.59999
76.066654
41.500211
17.34674
5.3405264
1.8221621
1.0223722
0.77042013
0.63420259
0.55548511
0.50265643
0.47670248
0.4481152
0.44040954
0.41259094
0.39803623
102.54566
148.00742
215.53712
290.83973
358.73007
410.2885
441.31891
451.14335
441.86279
414.42634
373.62486
324.54632
271.40977
217.72386
166.26979
119.09124
77.498385
42.726541
18.118643
5.6166886
1.8771611
1.0324226
0.77410788
0.63615581
0.55692849
0.50341203
0.4773743
0.44839462
0.44057945
0.41298323
0.39818688
106.40949
146.86212
208.64367
279.84084
345.77634
397.21905
429.50305
441.3762
434.27468
409.43305
370.83841
323.49342
271.5751
218.67973
167.64615
120.61483
78.981045
44.013405
18.970502
5.9255338
1.9307189
1.0440116
0.77838823
0.63845503
0.55849141
0.50430752
0.47806628
0.44873219
0.44078927
0.4134267
0.39832631
111.25471
147.04973
202.66772
269.36568
332.98823
384.01797
417.33458
431.13811
426.22322
403.97889
367.6775
322.1674
271.56415
219.55844
169.00922
122.16413
80.510345
45.362184
19.889916
6.2682278
2.0005379
1.0565826
0.7829617
0.64093471
0.56013863
0.50526437
0.47878684
0.44908224
0.44102867
0.41392877
0.39843916
117.40075
147.96386
197.83185
259.70452
320.58997
370.8328
404.89656
420.45983
417.69296
398.04087
364.10689
320.54378
271.41272
220.3439
170.34593
123.73098
82.083341
46.780727
20.873292
6.6487973
2.0721597
1.07033
0.78768131
0.64348209
0.5618109
0.50629291
0.47951779
0.44944191
0.44130204
0.41454426
0.39861432
124.23807
149.90259
193.93083
250.86459
308.69561
357.7902
392.28642
409.39703
408.70564
391.61014
360.10573
318.59415
271.03339
221.01386
171.64158
125.30627
83.693636
48.260027
21.918851
7.0712645
2.1586273
1.085155
0.79281261
0.64626781
0.56361338
0.50739033
0.48027845
0.44981324
0.44162025
0.41522598
0.39881903
132.1825
153.42753
191.55765
243.19795
297.54872
345.06725
379.62772
398.02078
399.32182
384.68068
355.65847
316.2927
270.39628
221.54498
172.87994
126.87956
85.334795
49.786026
23.005165
7.5365964
2.2528286
1.1016634
0.79805114
0.64912961
0.56540122
0.50858419
0.48103145
0.45019437
0.44199235
0.41600519
0.39901059
140.4114
157.74074
190.16351
236.61884
287.24399
332.80851
367.05335
386.42986
389.59229
377.27541
350.75886
313.62019
269.49575
221.91436
174.04358
128.43912
86.999769
51.35623
24.127759
8.0492451
2.3617915
1.1192062
0.80388959
0.65224254
0.56740171
0.50985124
0.48180921
0.45058385
0.44242671
0.41673108
0.39916676
148.61481
162.79015
190.41056
231.54601
278.07371
321.23198
354.72623
374.75411
379.57596
369.43614
345.41521
310.56465
268.31058
222.09324
175.11408
129.97221
88.680715
52.965913
25.305041
8.6128233
2.4839721
1.1391887
0.80974316
0.65554713
0.56931244
0.51124009
0.48255645
0.4509916
0.44293125
0.41752624
0.39927802
156.26902
167.82725
191.22835
227.61569
270.04227
310.48337
342.85279
363.11218
369.34615
361.22647
339.65152
307.1255
266.82563
222.06266
176.07404
131.46557
90.368625
54.608335
26.535759
9.2290659
2.6232519
1.1618255
0.81648042
0.65889153
0.57154252
0.51269595
0.48330405
0.45144329
0.44350435
0.41827457
0.39937841
162.76357
172.83424
192.98427
225.05446
263.35704
300.78965
331.62956
351.70926
358.99522
352.75356
333.50938
303.31523
265.04053
221.87465
176.91311
132.90657
92.053943
56.273002
27.823772
9.9014502
2.7807078
1.187293
0.82307595
0.66284585
0.57371336
0.5143276
0.48402966
0.45195289
0.44415621
0.41902925
0.39960282
168.21888
177.36965
195.62647
224.14724
258.22669
292.35911
321.25193
340.75185
348.68858
344.11411
327.06069
299.16252
262.95502
221.43772
177.61428
134.28368
93.73024
57.95133
29.171814
10.62542
2.9591026
1.2160169
0.8309817
0.66624694
0.57623314
0.51596321
0.48477406
0.45252375
0.44495199
0.41987062
0.3998253
173.5017
182.55452
199.37451
224.56608
254.69468
285.34244
311.91327
330.44744
338.62061
335.43976
320.39611
294.7173
260.5841
220.76118
178.16587
135.58702
95.394574
59.651679
30.590493
11.434991
3.1613324
1.2485359
0.83836405
0.67120381
0.57888395
0.51780761
0.48553749
0.45316138
0.44587378
0.42070076
0.40010594
180.04988
189.19003
204.45196
226.2978
252.8501
279.8856
303.80872
321.00002
329.00313
326.88939
313.62776
290.04671
257.95837
219.86536
178.56179
136.80644
97.034665
61.377775
32.081327
12.296588
3.3894891
1.2855744
0.84779555
0.67482862
0.58138969
0.51942188
0.48628529
0.45386975
0.4468896
0.42158137
0.40024653
189.67977
198.10394
211.52918
230.38765
253.01561
276.11546
297.07127
312.56227
320.02968
318.6267
306.88049
285.22974
255.11808
218.76335
178.79916
137.9309
98.63451
63.106716
33.609649
13.192231
3.6467127
1.3278277
0.85593454
0.68084575
0.58452116
0.5211989
0.48712684
0.4546495
0.44795561
0.42260073
0.40035025
202.63409
209.33609
220.405
235.75941
254.15853
273.69565
291.642
305.19023
311.83927
310.79422
300.27331
280.35331
252.11435
217.47252
178.85821
138.94875
100.18232
64.82789
35.171115
14.162001
3.9380689
1.3764534
0.86730429
0.68532086
0.5865693
0.52253026
0.48793766
0.4554905
0.44893351
0.42373809
0.40053739
218.48911
222.86693
230.83882
242.43453
256.8453
272.63153
287.43264
298.86165
304.49489
303.49134
293.90693
275.49767
248.99841
216.02047
178.79167
139.85673
101.66908
66.533391
36.756107
15.188606
4.270159
1.4325257
0.87633802
0.69133736
0.59008599
0.52413079
0.4891247
0.45638991
0.44986145
0.4252012
0.40083237
236.57079
238.38765
242.95206
250.61716
260.98339
272.92642
284.45641
293.57995
298.02211
296.77415
287.84995
270.72501
245.81479
214.43266
178.59411
140.65224
103.08715
68.215609
38.356294
16.254606
4.6582328
1.4977859
0.88978924
0.69761264
0.59191085
0.5254918
0.49032238
0.45732144
0.45064951
0.42613006
0.401305
256.63807
255.98609
256.96867
260.43715
266.43389
274.23335
282.53849
289.26349
292.37976
290.64409
282.12754
266.06722
242.58863
212.71598
178.22185
141.32346
104.42816
69.867971
39.968953
17.374952
5.1046812
1.5733306
0.9006987
0.70249984
0.59534505
0.52727298
0.49188358
0.45825884
0.45122878
0.42717978
0.40183796
276.7307
274.22578
272.48538
272.15959
273.77942
277.33721
282.12099
286.00989
287.54081
285.05998
276.71322
261.51332
239.31559
210.86613
177.69444
141.85947
105.68194
71.485125
41.598917
18.576566
5.5787467
1.6608433
0.91547228
0.71047549
0.59773885
0.5294098
0.49318848
0.45920127
0.45156087
0.42889196
0.40255238
292.617
290.06723
287.03544
284.22322
282.47034
282.08017
282.83612
283.8393
283.49075
279.97311
271.54543
257.00948
235.95539
208.85434
176.99093
142.24902
106.83683
73.059455
43.232107
19.875016
6.1337362
1.7635948
0.93140171
0.71554717
0.60051649
0.53138437
0.49425145
0.45989492
0.45172445
0.43049896
0.40330564
298.82869
297.7311
295.50096
292.42013
289.09518
286.15815
283.92154
282.28842
279.90998
275.2055
266.49736
252.45378
232.42711
206.6174
176.05454
142.41445
107.86016
74.576826
44.879598
21.23241
6.7506883
1.8833649
0.94866585
0.72082188
0.60418316
0.5341145
0.49524226
0.46051793
0.4520449
0.43392145
0.4041848
297.08277
297.18776
296.05901
293.72852
290.50062
286.90052
283.50183
280.14864
276.12095
270.32419
261.28811
247.65376
228.59335
204.05664
174.81996
142.35335
108.72481
76.015335
46.516197
22.643179
7.4453114
2.0255628
0.96880548
0.72902035
0.60630252
0.53558633
0.49574558
0.46121442
0.45299161
0.43944843
0.40526394
289.68354
291.95571
292.46037
291.21377
288.68885
285.18362
281.10441
276.46056
271.25621
264.68509
255.4791
242.31773
224.25899
201.04304
173.21809
142.07903
109.40858
77.352328
48.129969
24.104515
8.2171944
2.1920904
0.99211564
0.73399273
0.6100294
0.53826653
0.49649387
0.46204016
0.4539735
0.44375284
0.40636758
272.72369
277.42503
280.85769
282.36343
281.65336
278.98878
274.84457
269.92693
264.41208
257.68386
248.67461
236.18704
219.24811
197.45654
171.1504
141.42145
109.87097
78.564831
49.701927
25.593861
9.0591734
2.383999
1.0187913
0.73893135
0.61310161
0.54045611
0.49711077
0.46276462
0.45429661
0.44786456
0.40738593
253.20886
258.07801
262.18639
265.02052
266.23544
265.74176
263.57786
260.02278
255.26214
249.06114
240.69096
229.13651
213.47605
193.22351
168.54026
140.308
109.97439
79.599515
51.209314
27.101731
9.9777844
2.6096592
1.0496005
0.74500142
0.61614545
0.54187686
0.49842865
0.46317497
0.45425342
0.45107248
0.4083707
236.30311
240.67941
244.60131
247.71337
249.69959
250.37879
249.69285
247.62835
244.15664
239.003
231.64388
221.25554
207.00879
188.37883
165.41013
138.79966
109.86031
80.460439
52.636845
28.623274
11.001395
2.875001
1.0853578
0.74829403
0.6207579
0.54475063
0.49973509
0.46330425
0.45340188
0.45324823
0.40950766
224.69296
228.09554
231.19615
233.79044
235.65936
236.59756
236.54
235.32607
232.80958
228.65898
222.32619
213.09851
200.22805
183.18638
161.91667
136.96327
109.50535
81.145758
53.966739
30.130704
12.104232
3.1831987
1.1267794
0.75534486
0.62709789
0.54614427
0.50126983
0.46340647
0.45227931
0.45553928
0.41090902
219.63204
222.05649
224.18365
225.85753
226.98436
227.43348
227.08621
225.81402
223.43421
219.60407
213.83353
205.43572
193.6827
178.02656
158.30955
134.93091
108.88462
81.658007
55.191274
31.607137
13.271001
3.5387679
1.174465
0.76324452
0.63015829
0.54719715
0.50334378
0.46350732
0.45098356
0.45738434
0.41270663
219.55912
221.43627
222.95035
224.01013
224.47711
224.24156
223.15638
221.10804
217.95862
213.53658
207.47819
199.19917
188.01727
173.34037
154.8922
132.8997
108.16869
82.042954
56.316813
33.040288
14.482887
3.9488612
1.229819
0.77150666
0.63495061
0.55022133
0.50509629
0.46358801
0.44970774
0.45841531
0.41458837
222.24135
223.60673
224.61969
225.21919
225.32329
224.72504
223.25342
220.69735
216.87047
211.59026
204.59732
195.61518
184.19557
169.81198
152.1136
131.15284
107.52339
82.390891
57.373855
34.426675
15.718746
4.4457492
1.2952179
0.78183356
0.64147802
0.55338628
0.50719599
0.46383146
0.44910254
0.45869512
0.41592497
224.9227
226.51232
227.70659
228.37386
228.36783
227.5004
225.58412
222.48048
218.05225
212.1515
204.58297
194.89673
182.7871
168.06329
150.49221
130.06604
107.22846
82.829483
58.411447
35.775542
16.963236
5.011798
1.3729808
0.78978315
0.64442877
0.5559054
0.50871549
0.46494146
0.44907002
0.46070709
0.4182906