/*--------------------------------*- C++ -*----------------------------------*\
| =========                 |                                                 |
| \\      /  F ield         | OpenFOAM: The Open Source CFD Toolbox           |
|  \\    /   O peration     | Version:  2406                                  |
|   \\  /    A nd           | Website:  www.openfoam.com                      |
|    \\/     M anipulation  |                                                 |
\*---------------------------------------------------------------------------*/
FoamFile
{
    version     2.0;
    format      ascii;
    arch        "LSB;label=32;scalar=64";
    class       volVectorField;
    location    "0.03";
    object      U;
}
// * * * * * * * * * * * * * * * * * * * * * * * * * * * * * * * * * * * * * //

dimensions      [0 1 -1 0 0 0 0];

internalField   nonuniform List<vector> 
2065
(
(35.588144 3.6520398 0)
(36.663783 3.6610563 -6.6544145e-18)
(37.633378 3.4572217 6.145359e-18)
(38.420899 3.2363673 -5.6790508e-18)
(39.072018 3.047198 5.2569734e-18)
(22.355302 1.7071759 -6.1980752e-23)
(24.139989 1.7502788 1.4334981e-17)
(25.904404 1.8653335 -6.616531e-18)
(27.59982 1.8997868 0)
(29.101376 1.9242686 0)
(10.531611 -0.14234663 -7.0132115e-21)
(11.73908 -0.15422783 -6.7652116e-21)
(13.122982 0.001922611 0)
(14.781882 0.21711255 5.889679e-21)
(4.151234 -1.2905788 6.2800421e-21)
(5.0771535 -1.2706122 -6.114597e-18)
(6.0317775 -1.1888084 0)
(1.651522 -2.2380182 -6.08264e-18)
(2.2436219 -2.127321 1.1143484e-17)
(2.8425667 -1.9953688 -5.2155743e-18)
(0.11887642 -2.8456725 5.6847146e-18)
(0.48973499 -2.6099803 0)
(-1.1388706 -3.0312494 -1.6099783e-18)
(-2.2058077 -2.88441 -5.0173512e-18)
(-3.1158603 -2.4793579 2.4206896e-18)
(-1.9058258 2.2814644 -2.5452989e-18)
(-0.75838201 2.4176614 -5.1603649e-18)
(0.52208386 2.2042669 -5.7902343e-18)
(2.0458499 1.6307557 0)
(2.7387856 1.4515969 -5.7632248e-18)
(5.1186739 0.56571288 -6.6991896e-18)
(6.2507784 0.48855161 -6.1963471e-18)
(12.775157 -1.0725991 1.4638545e-17)
(14.615339 -1.2213557 -6.952953e-18)
(16.531285 -1.4940105 -5.662446e-18)
(24.492651 -3.4173692 7.55084e-18)
(26.498736 -3.540587 -6.493537e-18)
(28.388552 -3.7041524 0)
(30.159799 -3.864631 0)
(35.43626 -5.7588978 7.1744138e-18)
(36.460806 -5.5579792 -6.4572189e-18)
(37.401414 -5.3217693 5.1297663e-18)
(38.228012 -5.1466882 0)
(38.89408 -4.9732459 0)
(43.517253 4.3588614 -4.7983401e-19)
(47.214484 4.547722 0)
(50.728376 4.712418 0)
(54.002531 4.7224893 1.4484907e-18)
(56.918149 4.4282106 0)
(59.360357 3.9613093 -1.1834137e-18)
(61.31745 3.4154057 1.2646421e-18)
(62.83827 2.8730534 1.4679062e-18)
(63.993773 2.3861168 4.477552e-19)
(43.676673 4.2427332 4.9477252e-19)
(47.461445 4.2935316 -1.0179904e-18)
(50.876933 4.4419214 1.5056232e-18)
(54.02855 4.3526238 -7.1927387e-21)
(56.797142 4.1369173 1.1465257e-18)
(59.125504 3.721101 8.2397821e-22)
(61.00216 3.2216708 1.1716041e-18)
(62.466962 2.7175887 -1.3582806e-18)
(63.585131 2.2600028 -8.2799307e-19)
(43.996854 3.8955914 7.7128935e-19)
(47.779025 3.9527143 2.211377e-18)
(51.033499 4.1075092 -1.650426e-18)
(54.017182 4.0982916 1.2101893e-18)
(56.650185 3.8653405 -4.210721e-21)
(58.870489 3.4881032 1.0967845e-18)
(60.669606 3.028522 -1.1721764e-18)
(62.079358 2.5605079 -1.6697551e-22)
(63.159375 2.132617 4.1007985e-19)
(44.257211 3.576243 -1.4615524e-18)
(47.981086 3.659807 -1.0302185e-18)
(51.129531 3.8070795 -6.2023802e-21)
(53.974205 3.7998924 -2.5521923e-18)
(56.484209 3.601017 2.4245077e-21)
(58.606386 3.260287 -1.0912203e-18)
(60.330621 2.8376544 -1.1686487e-18)
(61.685536 2.4036425 -1.4782555e-21)
(62.726863 2.0047222 4.0460541e-19)
(44.501643 3.3213334 1.3418705e-18)
(48.150206 3.4199876 0)
(51.20926 3.5444561 -1.5183298e-18)
(53.930919 3.5327807 1.2346306e-18)
(56.320724 3.355202 -1.095256e-18)
(58.344874 3.0432843 2.1557274e-18)
(59.993527 2.6532445 1.1565554e-18)
(44.749611 3.1285123 -6.0560776e-19)
(64.9483 1.9829135 0)
(65.835981 1.5898843 0)
(66.676261 1.209128 0)
(67.482746 0.84466781 0)
(68.233317 0.4723495 0)
(68.489418 0.17373705 0)
(64.506813 1.8795604 0)
(65.363363 1.5099236 0)
(66.17447 1.1508976 0)
(66.953873 0.80783775 0)
(67.681917 0.4635709 0)
(67.936744 0.17263205 0)
(64.05032 1.7769982 0)
(64.880093 1.4311307 0)
(65.66782 1.0946825 0)
(66.427269 0.77269611 0)
(67.141601 0.4513234 0)
(67.396915 0.1695634 0)
(63.587365 1.6729358 0)
(64.390369 1.3493176 0)
(65.155333 1.0338652 0)
(65.896193 0.73108817 0)
(66.597258 0.42933968 0)
(66.85042 0.16339608 0)
(49.419406 -6.5762768 7.6004925e-19)
(49.460503 -5.3187438 -9.4190472e-19)
(49.386705 -4.1075946 0)
(49.172561 -2.9395825 0)
(48.666922 -1.7687668 -3.9068284e-19)
(47.144787 -0.45768585 5.6253875e-19)
(51.824111 -6.478113 -4.032197e-19)
(51.921585 -5.2378373 5.0833895e-19)
(51.93767 -4.0519603 -6.9675591e-19)
(51.853898 -2.9139355 1.0725007e-18)
(51.570717 -1.8035477 -1.3614815e-20)
(50.644332 -0.58971359 -2.0729224e-20)
(54.344046 -6.287793 -6.7132758e-21)
(54.490751 -5.0812392 -8.3345271e-21)
(54.570533 -3.929321 3.6615878e-19)
(54.553073 -2.8284285 -1.1412738e-18)
(54.321889 -1.7604843 9.0751634e-19)
(53.330028 -0.65289045 4.3563168e-20)
(56.939751 -6.0000462 -4.0599371e-22)
(57.139139 -4.838809 5.6996113e-19)
(57.293428 -3.7327428 0)
(57.387641 -2.6781159 3.5391733e-23)
(57.371118 -1.6531364 5.0264038e-19)
(57.006876 -0.61800906 -7.5180399e-19)
(59.56122 -5.6238939 -4.7503707e-19)
(59.808615 -4.5303103 5.8964282e-19)
(60.020935 -3.4910229 1.2578546e-20)
(60.174337 -2.5039106 3.9768444e-23)
(60.169 -1.5496425 -2.766541e-19)
(59.412594 -0.59356655 3.7922247e-19)
(62.1333 -5.1829117 4.9932907e-19)
(62.42185 -4.1809029 0)
(62.690157 -3.2357907 4.0902681e-19)
(62.928631 -2.3451021 -2.7573553e-19)
(63.111625 -1.4965164 -7.6777969e-19)
(63.363631 -0.63043085 3.7350521e-19)
(64.59373 -4.639415 8.2043579e-21)
(64.916976 -3.7273659 0)
(65.23324 -2.8649005 0)
(65.544903 -2.0455293 -2.0544672e-20)
(65.867859 -1.2288162 0)
(66.350331 -0.46803882 -1.9000198e-20)
(66.908334 -4.0280222 -8.6504483e-21)
(67.273763 -3.2175003 3.4151448e-19)
(67.64343 -2.4494553 -4.6232236e-19)
(68.020799 -1.7180395 0)
(68.411963 -0.97416086 2.9202587e-19)
(68.673574 -0.34173854 -2.7232414e-19)
(69.008284 -3.3892775 0)
(69.418485 -2.6988808 1.8486558e-19)
(69.84282 -2.0466973 1.1497439e-22)
(70.283027 -1.430249 -1.7769853e-19)
(70.726301 -0.81013122 -3.0101882e-19)
(70.802138 -0.26987454 -3.9012999e-23)
(70.809554 -2.7364034 -3.0612655e-19)
(71.254336 -2.1770533 -5.8803166e-21)
(71.715493 -1.6490995 0)
(72.190798 -1.1522512 1.8468667e-19)
(72.650443 -0.65578943 -3.0086614e-19)
(72.594285 -0.21676821 -9.4012563e-21)
(72.259104 -2.0649385 0)
(72.74042 -1.6444653 -3.0654518e-21)
(73.240468 -1.2464454 0)
(73.755214 -0.87272871 0)
(74.237497 -0.50307758 8.3916475e-20)
(74.029182 -0.1691794 -8.5111106e-20)
(73.296832 -1.3851213 0)
(73.80841 -1.1060115 3.1969948e-21)
(74.330776 -0.8362362 -3.4018559e-20)
(74.856581 -0.57984763 4.9036855e-20)
(75.330853 -0.32444328 0)
(75.059937 -0.11782307 0)
(73.916504 -0.73655202 4.3665868e-20)
(74.487663 -0.60931158 -5.303788e-20)
(75.067511 -0.47887139 -3.507647e-20)
(75.645729 -0.34869894 5.0145756e-20)
(76.148612 -0.20816931 0)
(75.740417 -0.068412383 0)
(74.059312 0.008247018 1.6977725e-19)
(74.661786 0.015470104 9.5510928e-20)
(75.27201 0.022304906 -2.6319025e-19)
(75.878133 0.025428458 1.8100086e-19)
(76.401663 0.028643505 -5.7130078e-20)
(75.995638 -0.0063466513 6.599606e-20)
(73.940579 0.36412333 1.7255963e-19)
(74.548454 0.28801456 -1.7644163e-23)
(75.156326 0.21724971 3.9900332e-19)
(75.742373 0.13520648 -2.2305013e-19)
(76.258637 0.079698258 1.8205094e-19)
(75.840104 0.03396955 7.7580981e-21)
(73.576545 0.77195578 -3.7827648e-19)
(74.224221 0.60013144 5.301361e-21)
(74.858413 0.45170097 0)
(75.464738 0.32091274 0)
(75.973197 0.20245283 6.0847846e-20)
(75.521649 0.085310791 0)
(72.914565 1.1672076 0)
(73.593625 0.9149504 4.7294046e-19)
(74.258316 0.68730642 -6.0985572e-19)
(74.897857 0.48008005 -3.9405154e-19)
(75.432549 0.28480013 2.6748143e-19)
(74.991361 0.11652888 3.043879e-19)
(72.062383 1.486848 0)
(72.777124 1.1685379 -1.4966349e-20)
(73.469674 0.87837876 0)
(74.13178 0.6120249 -4.4477583e-19)
(74.685346 0.35728616 6.1971473e-19)
(74.289787 0.14443685 0)
(71.067774 1.7316421 -8.2439313e-19)
(71.820631 1.3637952 9.7973594e-19)
(72.545907 1.0262185 0)
(73.2394 0.71475665 -2.5955164e-20)
(73.827293 0.41293536 3.3077612e-19)
(73.475451 0.16671398 -2.6963359e-19)
(69.987833 1.9030671 -8.2819059e-19)
(70.773917 1.5024764 9.4985478e-19)
(71.524293 1.132787 0)
(72.236502 0.7909314 2.5522284e-20)
(72.845331 0.45822771 -3.5708898e-20)
(72.586715 0.18328141 0)
(68.880808 2.0086392 8.4132036e-19)
(69.701249 1.5884733 3.0062651e-20)
(70.483882 1.1972244 0)
(71.231033 0.8330097 2.5087265e-20)
(71.883533 0.4752891 -5.1954895e-19)
(71.679925 0.19375859 4.8315552e-19)
(67.767381 2.0624996 1.62055e-18)
(68.610816 1.6399782 -1.4850127e-20)
(69.409496 1.2447303 -6.1088456e-19)
(70.168633 0.87545438 1.5113877e-18)
(70.843889 0.50791591 -1.099435e-18)
(70.766813 0.20083222 2.9798307e-20)
(66.731251 2.0589351 0)
(67.603165 1.6298406 9.4142555e-19)
(68.428956 1.2256352 -2.3250902e-18)
(69.217369 0.84852518 1.5477941e-18)
(69.929372 0.47960046 -1.6064459e-20)
(69.89799 0.20033874 -1.4212733e-20)
(65.627088 2.0859475 -1.578679e-18)
(66.523904 1.6736442 1.8432412e-18)
(67.373726 1.2772381 8.9039323e-21)
(68.1891 0.89880191 0)
(68.947198 0.51549243 5.2732214e-19)
(69.046691 0.18827535 -4.3511796e-19)
(42.059218 -26.183163 1.4347305e-18)
(43.23864 -24.034905 9.075321e-19)
(44.64196 -21.6353 -1.0449225e-18)
(46.032844 -19.063159 -4.6160143e-19)
(47.275495 -16.424434 -8.6568237e-19)
(48.247465 -13.896209 8.7859454e-19)
(48.891099 -11.592394 -4.8132969e-19)
(49.238241 -9.6037012 -5.5246436e-19)
(49.355541 -7.9609313 1.6190418e-19)
(45.626554 -26.181952 1.5648409e-18)
(46.631834 -23.92257 -9.9450151e-19)
(47.760692 -21.465448 0)
(48.893984 -18.843146 -2.5602429e-19)
(49.911297 -16.203759 9.6403599e-19)
(50.716272 -13.70483 -4.889335e-19)
(51.271949 -11.427215 -5.3241753e-19)
(51.590254 -9.4639866 4.5347564e-19)
(51.724156 -7.8476465 -3.5067341e-19)
(49.315073 -25.68054 -1.6511146e-18)
(50.048936 -23.393929 0)
(50.878196 -20.935748 0)
(51.74948 -18.344696 5.395817e-19)
(52.560175 -15.765258 0)
(53.23243 -13.324598 5.159027e-19)
(53.725426 -11.108806 -5.5990603e-19)
(54.036896 -9.198556 -2.8134494e-22)
(54.202657 -7.6241781 1.8372553e-19)
(52.998007 -24.708398 1.730905e-18)
(53.454426 -22.471592 -1.4758584e-18)
(53.995791 -20.086163 0)
(54.614384 -17.583714 -2.8545722e-19)
(55.234755 -15.101883 0)
(55.788561 -12.759769 1.3590503e-19)
(56.231056 -10.63538 5.9020535e-19)
(56.546647 -8.7999338 3.6957878e-22)
(56.751796 -7.2854057 -1.1546926e-18)
(56.606904 -23.297783 1.8128037e-18)
(56.789983 -21.172668 -1.5480918e-18)
(57.061459 -18.918431 1.5162006e-18)
(57.444508 -16.557825 6.0101485e-19)
(57.890092 -14.219914 -5.6641277e-19)
(58.340362 -12.012094 -7.1815637e-19)
(58.745177 -10.007857 6.2170902e-19)
(59.074436 -8.2732873 -8.8024322e-20)
(59.324735 -6.838832 0)
(60.045817 -21.47385 -3.7909782e-18)
(59.971784 -19.517429 1.7233339e-18)
(59.998636 -17.446715 -1.7725066e-19)
(60.172291 -15.277817 7.9102591e-19)
(60.466935 -13.126401 -5.9749007e-19)
(60.832552 -11.087845 4.5499874e-19)
(61.211946 -9.2348625 -6.5582331e-19)
(61.560121 -7.6290622 -9.2598766e-20)
(61.853858 -6.3019452 -3.7338233e-19)
(63.204089 -19.268907 -9.8933864e-19)
(62.907726 -17.532374 -1.0080347e-18)
(62.729046 -15.695916 -9.2798952e-20)
(62.729281 -13.763631 4.9971876e-19)
(62.902655 -11.835834 -6.3029312e-19)
(63.204939 -9.9985915 1.6009495e-19)
(63.571428 -8.3227871 3.4632141e-19)
(63.942398 -6.865048 -3.8994779e-19)
(64.276789 -5.6572678 -1.0452626e-22)
(65.99835 -16.728698 -1.0356539e-18)
(65.51847 -15.261271 5.5643769e-20)
(65.178314 -13.698539 4.8893703e-20)
(65.048342 -12.041621 7.0094621e-19)
(65.135309 -10.371878 -6.6420441e-19)
(65.39781 -8.7668074 0)
(65.765716 -7.2928869 0)
(66.167521 -6.0037542 -5.1377315e-20)
(66.547814 -4.9316728 -5.9152936e-20)
(68.292682 -13.89503 0)
(67.706443 -12.736825 0)
(67.267787 -11.483566 5.1148061e-20)
(67.057417 -10.136452 4.5946453e-20)
(67.096905 -8.759005 -3.057722e-19)
(67.346307 -7.418865 4.399446e-20)
(67.73184 -6.17352 3.8467011e-19)
(68.172244 -5.0765212 5.4256712e-20)
(68.601578 -4.1603723 0)
(70.203759 -10.967704 5.6814639e-19)
(69.52782 -10.065541 0)
(68.990092 -9.1040321 -2.6768801e-20)
(68.714949 -8.0783492 -4.3455831e-19)
(68.729426 -7.0194014 2.746946e-19)
(68.985283 -5.972941 -2.3323914e-19)
(69.402094 -4.9833873 -1.9265606e-22)
(69.886291 -4.1022658 2.2792114e-19)
(70.362693 -3.3607838 2.6207479e-19)
(71.34098 -6.8076605 -5.654694e-19)
(70.619126 -6.6611058 5.1072857e-19)
(70.114654 -6.2660962 -6.4475919e-19)
(69.886457 -5.740484 2.1432207e-19)
(69.941204 -5.1105973 4.7964331e-20)
(70.238286 -4.4164652 -1.9567347e-19)
(70.706358 -3.7214873 2.1210868e-19)
(71.243547 -3.0815051 -1.4935763e-20)
(71.770339 -2.5315799 0)
(71.479034 -3.5262615 1.4600034e-19)
(70.868522 -3.3614082 -1.2412735e-19)
(70.492141 -3.3188367 0)
(70.382659 -3.2007653 -1.2243818e-20)
(70.561602 -3.0989008 -5.0223312e-20)
(70.996929 -2.7843087 5.1216667e-20)
(71.569234 -2.4124052 0)
(72.181425 -2.0321439 1.5646276e-20)
(72.766133 -1.6870234 -2.1401271e-27)
(71.280371 -0.80243562 1.485459e-19)
(70.761068 -1.0544858 1.8536254e-22)
(70.448605 -1.2595965 -2.3223504e-19)
(70.420502 -1.3407913 9.6342254e-20)
(70.712205 -1.2367935 -2.4216324e-20)
(71.254961 -1.1784623 4.955096e-20)
(71.934085 -1.1374786 -1.1585632e-19)
(72.649719 -1.0040393 6.5252031e-20)
(73.31838 -0.8660813 2.2349756e-27)
(70.501287 1.8070754 -6.6047564e-19)
(70.180902 1.2147981 0)
(70.061693 0.71664893 2.5680593e-19)
(70.210389 0.32190563 -4.2117365e-19)
(70.61297 0.080683435 7.3119276e-20)
(71.216607 -0.044074833 1.9829268e-19)
(71.949665 -0.011999152 2.8315409e-20)
(72.716598 -0.008556833 -1.2587431e-19)
(73.426896 -9.3276909e-05 1.8158173e-20)
(68.879897 4.5045313 6.7354013e-19)
(68.902113 3.539039 0)
(69.108434 2.690453 0)
(69.540774 1.951258 0)
(70.16991 1.3954047 -1.0946455e-19)
(70.935834 1.0097057 1.6476654e-19)
(71.76336 0.75206605 -5.4584254e-19)
(72.570047 0.57152878 2.5493671e-19)
(73.29819 0.45346704 -3.1418599e-19)
(66.618249 6.766957 1.5748403e-18)
(67.026775 5.5688007 -1.2673977e-18)
(67.609447 4.4494672 6.9256897e-20)
(68.363753 3.4700407 0)
(69.261084 2.6661753 1.7479982e-19)
(70.238828 2.0356706 5.8618899e-20)
(71.21109 1.5626509 6.2762487e-20)
(72.1081 1.2173992 0)
(72.892928 0.96651669 3.2640082e-19)
(63.890774 8.435508 5.019296e-20)
(64.750223 7.0880541 -1.2550287e-18)
(65.747613 5.8249636 1.2198238e-18)
(66.863045 4.6862988 1.2724995e-19)
(68.044256 3.7151152 -9.5655032e-19)
(69.226419 2.9245095 9.6708452e-19)
(70.342109 2.3012873 0)
(71.337981 1.8203021 0)
(72.186584 1.4547202 -8.5050613e-20)
(60.836199 9.4466483 4.8673106e-18)
(62.186319 8.0754548 8.8449055e-20)
(63.635624 6.7700047 -1.1883453e-18)
(65.13527 5.5656036 -3.9213034e-19)
(66.617691 4.5045533 -3.6646939e-19)
(68.018787 3.6102939 2.4630736e-19)
(69.28546 2.8797771 -6.6400723e-19)
(70.379897 2.2980746 5.9894964e-19)
(71.290401 1.8457512 8.651278e-20)
(57.659562 9.7621047 3.7012665e-18)
(59.4983 8.5046722 -1.8271667e-19)
(61.400889 7.2735297 -4.6106757e-19)
(63.284367 6.1015083 -3.1001397e-22)
(65.066606 5.0290102 -2.3990041e-22)
(66.683633 4.0912026 -2.4933109e-19)
(68.096994 3.2997675 1.342273e-19)
(69.285021 2.6530002 0)
(70.253065 2.1410001 1.7518653e-19)
(54.592688 9.414544 -3.8301464e-18)
(56.864125 8.4001006 5.7535455e-18)
(59.174432 7.3562477 3.1777312e-19)
(61.411 6.3114558 -1.6431799e-18)
(63.473086 5.3023651 -7.5679616e-19)
(65.291736 4.3782451 1.0063802e-18)
(66.841129 3.5693953 0)
(68.115485 2.8901442 0)
(69.135203 2.3430915 -3.5258626e-19)
(51.736795 8.5743384 -8.2256154e-18)
(54.401926 7.8976489 3.6286667e-18)
(57.069793 7.1139677 2.6274642e-18)
(59.609603 6.2576209 -2.5159588e-18)
(61.913991 5.3643932 0)
(63.909388 4.4979366 0)
(65.577702 3.7072953 0)
(66.928102 3.0238627 0)
(67.993158 2.4629037 -3.5324614e-19)
(49.232291 7.4041844 -3.9154384e-18)
(52.131879 7.0842843 -4.2815464e-19)
(55.077755 6.6104143 -6.8309454e-19)
(57.884323 5.9925387 5.7184123e-19)
(60.409082 5.2565879 1.5456269e-18)
(62.565264 4.4818531 -2.0257216e-18)
(64.337521 3.7357422 -1.6194484e-18)
(65.752393 3.0704558 1.2133482e-18)
(66.853895 2.5138792 -1.5839456e-18)
(47.07879 6.2566165 -6.0808149e-19)
(50.337935 6.2785377 -4.5205101e-19)
(53.486477 6.0562984 7.0623072e-19)
(56.433344 5.6420143 -4.0773913e-18)
(59.085564 5.0590295 4.6705294e-18)
(61.348684 4.3828126 -2.0238854e-18)
(63.197155 3.6928564 -2.8970168e-22)
(64.660454 3.0558835 1.2041877e-18)
(65.791368 2.5084964 -1.4003247e-18)
(44.102761 5.1780231 -5.6243655e-18)
(47.628966 5.3654619 1.0069914e-18)
(51.240816 5.4023217 6.037403e-18)
(54.595284 5.2073885 -2.408706e-18)
(57.537014 4.7885445 0)
(59.990352 4.2292701 0)
(61.958984 3.6175655 -5.2853013e-19)
(63.493151 3.0283257 -1.7771507e-18)
(64.661567 2.5108807 1.3787091e-18)
(45.553889 -44.30889 -6.4466182e-21)
(45.184549 -38.74278 1.3001362e-17)
(43.529172 -35.790724 -4.6512847e-18)
(42.624022 -33.096236 7.9187487e-19)
(42.046337 -30.657693 -2.3439895e-18)
(41.584985 -28.524347 1.1645678e-21)
(50.466691 -43.325376 -1.9703407e-18)
(50.059729 -37.978784 1.9360291e-18)
(48.087057 -35.312113 0)
(46.922478 -32.75374 -1.6558982e-18)
(46.085486 -30.444173 -6.0976367e-19)
(45.355902 -28.421278 0)
(55.262372 -41.779424 3.0350583e-18)
(54.828409 -36.612577 -1.604465e-17)
(52.583992 -34.248958 5.0484719e-18)
(51.185564 -31.876388 1.7257563e-18)
(50.142206 -29.727094 6.3817399e-19)
(49.249034 -27.847828 1.9784652e-18)
(59.867579 -39.661669 -1.0292266e-17)
(59.449715 -34.623286 0)
(56.9833 -32.601628 5.2532854e-18)
(55.387162 -30.449619 -4.4879827e-18)
(54.172139 -28.484441 0)
(53.143735 -26.76853 0)
(64.187528 -36.975332 1.0520922e-18)
(63.804381 -32.052146 -1.0759062e-18)
(61.192274 -30.406495 0)
(59.443534 -28.500611 -3.7297629e-18)
(58.093393 -26.743269 2.7553564e-18)
(56.955884 -25.209511 -2.145674e-18)
(68.136542 -33.765582 -8.575785e-18)
(67.848154 -28.946903 5.5874732e-18)
(65.122944 -27.691196 -5.6661714e-18)
(63.252066 -26.050625 3.8740496e-18)
(61.79685 -24.521451 0)
(60.57995 -23.191139 2.7907883e-18)
(71.589335 -30.037436 0)
(71.398982 -25.342148 1.1481134e-18)
(68.631698 -24.496769 -2.9245849e-18)
(66.683884 -23.147768 2.00519e-18)
(65.156482 -21.874869 -3.7138664e-19)
(63.89167 -20.762042 1.7412571e-18)
(74.412107 -25.888944 0)
(74.381027 -21.293671 -1.197871e-18)
(71.627206 -20.884754 -7.6212229e-19)
(69.648105 -19.852877 2.096405e-18)
(68.088401 -18.850474 -1.1629081e-18)
(66.804653 -17.962444 1.5146722e-18)
(76.512957 -21.342741 0)
(76.75058 -16.808981 6.0776558e-19)
(74.004303 -16.838691 7.8273676e-19)
(71.98501 -16.172884 0)
(70.411298 -15.472519 0)
(69.146634 -14.831363 -3.1577067e-19)
(77.545113 -16.572239 0)
(77.904518 -12.436141 -6.3052202e-19)
(75.519498 -13.114719 -1.6391984e-18)
(73.674476 -12.694739 1.1365278e-18)
(72.223635 -12.169344 2.1119217e-19)
(71.055759 -11.68736 -6.6198775e-19)
(78.220422 -11.433945 1.1691645e-18)
(78.688468 -6.185789 -3.2362613e-18)
(76.606492 -7.1419318 1.4525579e-18)
(74.864196 -7.0509536 -9.1964269e-19)
(73.429321 -6.9789758 6.0177785e-19)
(72.249162 -6.9709334 6.4095821e-19)
(79.039248 -6.2563194 0)
(79.009624 -1.6242194 -9.1138338e-19)
(76.719213 -3.1076287 9.7584461e-19)
(74.884101 -3.1919157 -6.1107129e-19)
(73.448715 -3.3599097 3.8921376e-19)
(72.320524 -3.4979656 -1.5780306e-19)
(77.863499 -3.6644587 1.8469995e-19)
(78.257334 2.4583699 -5.0137971e-19)
(76.018747 0.64786667 0)
(74.282763 0.13214038 -2.7190345e-19)
(72.963209 -0.20898024 2.1510965e-19)
(71.977053 -0.5142472 2.5773851e-27)
(76.265081 -2.30475 0)
(76.127354 7.3281408 1.2541733e-18)
(74.421098 4.5977764 1.7396521e-18)
(72.928556 3.6340026 -2.5478082e-18)
(71.816946 2.9626942 -2.4499006e-19)
(71.010816 2.3839303 1.3470203e-18)
(71.18985 4.0961596 6.197784e-19)
(72.325266 12.275498 0)
(71.595564 8.550416 0)
(70.497288 7.2262555 -3.4523235e-19)
(69.660271 6.2444007 7.8732343e-19)
(69.099433 5.3760843 -1.0405289e-18)
(65.527388 8.7135002 -6.2983509e-19)
(67.908765 15.385925 0)
(67.86135 11.678921 -3.9569023e-18)
(67.190694 10.135585 6.1494906e-18)
(66.720909 8.9189959 -1.6573501e-18)
(66.486408 7.8119696 -8.6591306e-19)
(59.477117 11.863603 -1.3128006e-18)
(63.082307 17.714191 -4.2977057e-18)
(63.561936 14.161777 4.0879964e-18)
(63.303855 12.323693 0)
(63.225031 10.877838 0)
(63.358676 9.5965565 1.3959569e-18)
(52.696389 13.567194 1.3496765e-18)
(56.672308 19.13973 -2.9821394e-18)
(58.257953 15.535702 0)
(58.77231 13.551192 0)
(59.249498 12.029453 0)
(59.853043 10.605803 -4.9322066e-18)
(46.110474 13.881904 5.2719986e-21)
(50.451786 19.463841 3.0353952e-18)
(52.920672 15.842907 -4.5084696e-18)
(54.073784 13.809051 0)
(55.131774 12.213661 0)
(56.21962 10.784973 -4.2099783e-18)
(37.484966 12.257621 0)
(42.444718 17.444877 -1.5331647e-18)
(46.866641 14.625068 1.1825347e-17)
(49.244394 12.880489 -5.4109599e-18)
(51.079798 11.467755 -1.4145302e-18)
(52.717455 10.172422 -1.1320187e-18)
(28.368542 9.1374001 1.2875623e-17)
(36.377002 14.690273 0)
(41.399416 12.395172 7.4873056e-18)
(44.660087 10.971006 -1.9389504e-18)
(47.214567 9.9470432 -2.3624504e-21)
(49.4327 8.9538094 1.2249783e-18)
(13.501631 1.2328134 -1.6032855e-17)
(25.55424 8.9027773 1.2435737e-17)
(36.362245 9.1543146 0)
(41.068547 8.516695 -8.4504922e-18)
(44.155076 8.0354721 8.3913031e-18)
(46.702165 7.4152179 5.3781087e-18)
(3.6038744 -1.7306034 1.5268761e-18)
(13.263243 3.1602227 0)
(25.749698 5.377817 0)
(35.983607 6.0977347 -2.2825204e-18)
(40.77505 6.09728 0)
(43.975775 5.8351595 0)
(-5.351983 -4.5240946 0)
(6.9780176 0.7787342 1.1615985e-17)
(14.196377 2.6274295 -9.4013375e-18)
(25.083724 3.930097 2.259942e-18)
(35.71734 4.9430681 0)
(41.091388 4.9406883 0)
(-3.6968276 -4.5147796 0)
(-0.91046947 -2.0857894 0)
(6.1791547 -0.072357214 0)
(12.908 1.3534667 0)
(21.465697 2.6608757 -8.0652329e-18)
(32.997698 3.7597636 0)
(-4.1426842 -4.7835839 -3.1529656e-18)
(-3.1103922 -3.3950377 -1.4371102e-17)
(-0.03605859 -2.3804927 1.0179144e-17)
(4.4383897 -0.99660594 0)
(10.341565 0.48537962 3.8738954e-18)
(19.668853 1.9767119 -7.041227e-18)
(-3.3656962 -4.7951314 -1.2804536e-17)
(-3.0700102 -4.0464122 -8.6153836e-18)
(-2.0483957 -3.3571177 2.5252609e-18)
(-0.23730564 -2.4040287 1.7850683e-17)
(2.7900974 -1.0347719 -1.4410139e-17)
(9.3651386 -0.035737643 0)
(-2.9592099 -5.1878865 -1.5951265e-17)
(-2.730309 -4.5000882 -2.852619e-18)
(-2.1343884 -3.7922137 -1.2322396e-17)
(-1.3841971 -3.0313111 8.6344913e-18)
(-0.05289598 -2.0709213 -3.8435678e-18)
(2.7564966 -1.2978063 1.0293518e-17)
(-2.761294 -5.5797173 6.2685725e-18)
(-2.4625484 -4.9041233 -8.2731533e-18)
(-1.932426 -4.2830139 9.4501466e-18)
(-1.3984374 -3.6733083 -2.0525416e-18)
(-0.64277765 -3.0580716 0)
(0.70478008 -2.4739205 0)
(-2.526562 -5.9069557 -9.3572822e-18)
(-2.3081366 -5.1533221 -1.0964543e-17)
(-1.9196038 -4.5531784 1.129142e-17)
(-1.5677141 -4.0415135 1.9405003e-18)
(-1.1248297 -3.5793127 0)
(-0.43996782 -3.1636822 -6.1504977e-18)
(-2.2545769 -5.9869144 0)
(-2.1305086 -5.2233805 0)
(-1.9847228 -4.5873077 -4.463526e-18)
(-1.8321961 -4.0902467 0)
(-1.6560606 -3.6724071 4.699037e-18)
(-1.3563587 -3.3383862 -1.4548212e-18)
(-2.003027 -5.7285693 0)
(-2.0373416 -4.8544016 1.3586744e-18)
(-2.1115887 -4.2530874 1.1032193e-18)
(-2.1778758 -3.8016932 0)
(-2.2056412 -3.443181 -3.8514667e-23)
(-2.199619 -3.1424443 2.7649132e-18)
(-1.4699978 -4.6745215 0)
(-1.8512355 -4.1053904 -1.3394779e-18)
(-2.1575508 -3.6141497 1.0733254e-18)
(-2.440969 -3.234873 -3.5382673e-18)
(-2.6948588 -2.9320577 4.5220056e-18)
(-2.8873318 -2.7045384 -1.3203972e-18)
(-1.0813083 -3.4973555 -4.0285888e-18)
(-1.6057201 -3.0401515 2.6089885e-18)
(-2.1134608 -2.6891868 -2.0906349e-18)
(-2.5916061 -2.4131366 1.7364296e-18)
(-3.0250314 -2.2032606 -7.4580049e-19)
(-3.4082972 -2.0458869 2.6359603e-18)
(-0.82516855 -2.1037966 3.5913144e-18)
(-1.3821893 -1.7192073 -2.6049393e-18)
(-2.0885533 -1.5135125 -2.0770509e-18)
(-2.671846 -1.385806 1.7076908e-18)
(-3.2176316 -1.2865434 1.1023862e-18)
(-3.7276803 -1.202613 1.6422443e-18)
(-1.4131899 -0.33920358 0)
(-1.324773 -0.35308004 -6.5461976e-23)
(-2.115792 -0.33648096 -3.7208795e-23)
(-2.7111836 -0.3310063 -4.2591395e-19)
(-3.2789796 -0.32050606 -3.6669081e-19)
(-3.8200391 -0.30937925 -6.5565444e-19)
(-0.65760491 1.7264949 -3.9959948e-19)
(-1.2652267 1.2131718 6.5027875e-19)
(-1.9652879 0.94024211 -2.6007851e-19)
(-2.5544618 0.78857496 -2.2344522e-23)
(-3.1109585 0.67746645 3.6859391e-19)
(-3.6350731 0.59169645 -9.9063508e-19)
(-0.79916098 2.914198 2.8133133e-18)
(-1.3090127 2.4169821 -1.4803106e-22)
(-1.8714544 2.0448506 2.6382239e-19)
(-2.3597166 1.7813277 -4.360646e-19)
(-2.8132262 1.5835004 7.4665564e-19)
(-3.2332569 1.4231848 -1.3430375e-18)
(-1.0945349 4.1818346 8.173792e-19)
(-1.4740083 3.5539912 0)
(-1.8149028 3.0300591 3.228238e-18)
(-2.1258849 2.635098 -8.8539053e-19)
(-2.4048722 2.3283488 -7.635313e-19)
(-2.6442499 2.0936677 0)
(-1.4841519 5.2695457 0)
(-1.5470501 4.3301654 0)
(-1.6585994 3.6919569 4.455719e-18)
(-1.7598247 3.219578 -9.3122971e-19)
(-1.8260301 2.851323 -3.1872584e-18)
(-1.8570172 2.5495192 2.8585831e-18)
(-1.6734832 5.530543 6.2631833e-18)
(-1.5748597 4.7042731 -5.444388e-18)
(-1.4510943 4.0386035 -1.1323032e-18)
(-1.3393911 3.5194894 0)
(-1.2124992 3.0820501 0)
(-0.9608211 2.7368654 1.499076e-18)
(-1.8884004 5.4444848 0)
(-1.6681316 4.6649089 0)
(-1.3397663 4.023563 0)
(-1.0335475 3.4898319 0)
(-0.64489938 3.0092193 0)
(-0.0333558 2.576955 2.2959047e-18)
(-2.0469022 5.0807506 -4.9893174e-18)
(-1.8082805 4.432974 -2.7926094e-18)
(-1.3533632 3.7873294 0)
(-0.89076448 3.1630582 0)
(-0.20407799 2.5259121 1.885339e-18)
(1.1222204 1.8953474 1.6892944e-18)
(-2.2647959 4.6452579 0)
(-2.051973 4.0194213 -1.1542593e-17)
(-1.5433521 3.3578611 1.006277e-17)
(-0.81080674 2.6166746 0)
(0.65710699 1.5373125 -9.9240895e-18)
(3.7216955 0.55795814 1.7664957e-17)
(-2.1211166 4.3531679 0)
(-2.2127942 3.7564475 2.931532e-18)
(-1.2753787 3.1347556 0)
(1.3065085 1.8218256 9.1056632e-18)
(4.6846002 0.36907175 -7.8735189e-18)
(10.979815 -1.0698893 0)
(-2.5988512 3.7734758 1.6133439e-17)
(-2.38872 3.3993233 -2.3567208e-17)
(2.1332825 1.5390761 1.0283673e-17)
(7.0035321 -0.20922356 0)
(12.424515 -1.5174979 0)
(21.376444 -3.4752386 3.6009844e-18)
(-3.1632074 3.3862045 -3.2225439e-18)
(2.4477655 0.56294177 7.8839266e-18)
(8.4665392 -1.6748633 -3.608076e-19)
(15.267444 -3.2380433 -8.8442223e-18)
(24.142576 -4.6583065 -4.0901771e-18)
(33.31055 -6.0577732 -1.0577977e-17)
(0.077345717 2.429331 7.6117699e-18)
(8.8556183 -2.3619161 -9.2851742e-18)
(17.131134 -4.8495446 2.0169843e-18)
(28.021773 -6.4034418 2.2533044e-18)
(42.094778 45.407098 9.4322141e-18)
(42.629374 40.302133 0)
(42.259043 37.105055 0)
(42.342994 34.49238 2.6893474e-18)
(36.300461 44.032815 -1.9282799e-18)
(37.071583 39.232147 -8.4085314e-18)
(37.237712 36.073545 4.0121297e-18)
(37.748412 33.542097 0)
(38.502173 31.28723 9.5802471e-19)
(39.476603 29.126266 1.3896188e-18)
(30.720523 41.846942 -7.9503978e-18)
(31.634752 37.404846 -5.0118863e-18)
(32.322553 34.376242 9.9707969e-19)
(33.247124 31.9902 5.2095916e-18)
(34.341318 29.906243 -3.7603195e-18)
(35.62043 27.919478 6.8917094e-19)
(25.603574 38.902922 -1.0345169e-17)
(26.575367 34.819445 -1.6562659e-18)
(27.724876 32.04029 -4.8696837e-18)
(29.026944 29.881594 2.5234772e-18)
(30.406147 28.040545 -9.1626221e-19)
(31.957486 26.250093 -6.8009594e-19)
(21.108124 35.358954 4.6610694e-18)
(22.136199 31.598334 -4.8807656e-18)
(23.580138 29.201861 3.7882757e-18)
(25.141378 27.352879 -6.1715092e-19)
(26.799769 25.704465 0)
(28.526105 24.172021 0)
(15.539973 30.114606 -8.0526424e-18)
(17.88205 27.80826 -6.4192609e-18)
(19.649316 25.987036 4.6573708e-18)
(21.491764 24.434757 6.2294124e-19)
(23.446613 22.989851 0)
(25.364163 21.703885 1.3657505e-18)
(11.802982 25.642725 0)
(14.097906 23.809067 0)
(16.110357 22.323002 -1.8940636e-18)
(18.271724 21.009116 0)
(20.410206 19.872552 1.3600579e-18)
(22.538097 18.847852 -3.1009553e-18)
(8.4130238 20.324047 0)
(10.8534 19.226271 8.189883e-19)
(13.177988 18.132394 4.7882329e-19)
(15.506219 17.208943 0)
(17.81438 16.40187 -7.1806413e-22)
(20.08345 15.678358 6.8976779e-19)
(5.7004541 14.831549 0)
(8.1832938 14.241121 -8.1527243e-19)
(10.734966 13.624958 4.7900506e-19)
(13.225903 13.114302 -1.25602e-18)
(15.665833 12.661516 1.3587025e-18)
(18.035533 12.255768 -3.4579241e-19)
(4.059786 9.589344 -3.4033534e-18)
(6.2458055 8.9443297 1.610987e-18)
(8.9395978 8.8108353 -9.5369807e-19)
(11.51503 8.7574856 6.2856343e-19)
(14.014335 8.6963042 -2.264439e-19)
(16.427753 8.6312103 6.9420736e-19)
(6.1202791 3.0539247 0)
(5.428482 3.9044006 -1.5803392e-18)
(8.0141228 4.2001868 -9.5175077e-19)
(10.493611 4.4560901 6.2837857e-19)
(12.928165 4.6912159 3.401738e-19)
(15.30134 4.9159085 4.359303e-19)
(2.0375833 -3.9900382 1.0258915e-18)
(4.5979547 -1.5896719 -6.1828634e-22)
(7.2218478 -0.54083164 -5.0249919e-22)
(9.7472355 0.11819913 -1.5838322e-19)
(12.204757 0.67160512 -1.1441631e-19)
(14.574648 1.1852208 -1.7631772e-19)
(2.4488723 -8.5243296 -3.3121163e-19)
(4.6489513 -6.7448097 4.0103422e-19)
(7.1790428 -5.4374202 -1.2115239e-19)
(9.6208091 -4.4021482 -2.8639138e-22)
(12.006377 -3.495968 1.1531911e-19)
(14.308524 -2.6627538 -2.6742766e-19)
(3.522206 -14.051904 2.3974302e-18)
(5.6660761 -11.834045 -2.1287948e-21)
(7.8427266 -10.154042 1.1877808e-19)
(10.133896 -8.7131557 -1.6321783e-19)
(12.371578 -7.4696042 2.3296111e-19)
(14.544666 -6.3579093 -3.6155489e-19)
(5.3064416 -19.538194 7.0080606e-19)
(7.2232304 -16.668885 0)
(9.1786071 -14.577279 1.4407178e-18)
(11.167731 -12.905197 -3.2516598e-19)
(13.237545 -11.3621 -2.3905874e-19)
(15.24644 -9.9650807 0)
(7.541475 -24.699695 0)
(9.2911191 -21.180177 0)
(10.980936 -18.660787 1.9761957e-18)
(12.758912 -16.684638 -3.2699011e-19)
(14.544777 -14.97553 -9.5756661e-19)