/*--------------------------------*- C++ -*----------------------------------*\
| =========                 |                                                 |
| \\      /  F ield         | OpenFOAM: The Open Source CFD Toolbox           |
|  \\    /   O peration     | Version:  2406                                  |
|   \\  /    A nd           | Website:  www.openfoam.com                      |
|    \\/     M anipulation  |                                                 |
\*---------------------------------------------------------------------------*/
FoamFile
{
    version     2.0;
    format      ascii;
    arch        "LSB;label=32;scalar=64";
    class       volScalarField;
    location    "0.032";
    object      k;
}
// * * * * * * * * * * * * * * * * * * * * * * * * * * * * * * * * * * * * * //

dimensions      [0 2 -2 0 0 0 0];

internalField   nonuniform List<scalar> 
35803
(
825.36519
805.7995
779.85042
747.29128
707.96387
661.90543
609.59822
552.03685
490.67871
427.32204
363.65302
301.32277
241.82635
186.37874
135.85955
90.958139
52.328528
21.931372
6.2894634
2.0984901
1.27291
0.96561193
0.74904516
0.61995532
0.54288168
0.49811052
0.46878997
0.43105436
0.41914962
0.4009735
0.39180257
812.26858
790.64374
763.14896
729.78965
690.3589
644.82351
593.54658
537.37605
477.6937
416.12778
354.2519
293.55114
235.49515
181.28847
131.82029
87.802385
49.973819
20.525524
5.6988506
2.0049225
1.2447768
0.95355901
0.74251846
0.61614721
0.54071864
0.49691517
0.46817433
0.43063365
0.41883868
0.40093233
0.39182309
793.1894
770.25406
741.97815
708.36052
669.24367
624.5979
574.71731
520.33458
462.67013
403.19325
343.35898
284.5512
228.1746
175.41395
127.16888
84.17641
47.267523
18.903786
5.162585
1.9147738
1.2283123
0.94667657
0.73888133
0.61399338
0.53910396
0.49600935
0.46783843
0.43035716
0.41855943
0.40091779
0.39184585
766.44967
742.87616
714.60935
681.51233
643.40811
600.26481
552.33197
500.24482
445.05658
388.07846
330.64665
274.06424
219.66232
168.59889
121.78646
79.990673
44.152164
17.054281
4.6413757
1.8239626
1.2042529
0.93554543
0.73292321
0.61026633
0.53637769
0.4946107
0.46729521
0.43005089
0.41819318
0.40089718
0.39187243
731.37678
707.97681
680.45765
648.61178
612.2284
571.24952
525.87429
476.6395
424.44161
370.4315
315.82853
261.85469
209.76718
160.6916
115.55574
75.155234
40.569326
14.987881
4.1232241
1.7315053
1.1807726
0.92461295
0.72732782
0.6065757
0.53341866
0.49316087
0.46680988
0.42976399
0.41786579
0.40087456
0.39190164
687.54368
665.13224
639.10068
609.21146
575.23515
537.08275
494.89358
449.09932
400.44326
349.91462
298.6126
247.67522
198.28332
151.52524
108.34685
69.572377
36.462551
12.752236
3.6124825
1.6378803
1.1536678
0.91116748
0.72031754
0.60156838
0.53012312
0.4914271
0.46617905
0.42942167
0.41753039
0.40084478
0.39193535
634.90189
614.22741
590.36921
563.08956
532.15435
497.44868
459.04857
417.2757
372.72077
326.20963
278.7119
231.27315
184.99329
140.91865
100.01759
63.139098
31.787965
10.423525
3.1219918
1.5453913
1.125255
0.89668106
0.71296611
0.59613778
0.52730769
0.48958194
0.46553634
0.42907262
0.41722279
0.40080684
0.39197666
573.88944
555.6287
534.50405
510.3801
483.02428
452.29797
418.2134
380.98306
341.04898
299.07324
255.88367
212.41777
169.68659
128.68875
90.421494
55.757672
26.537377
8.1148365
2.6696844
1.459233
1.0938843
0.87986694
0.70411665
0.58966217
0.52431589
0.48745198
0.46473589
0.42863717
0.4169135
0.40075626
0.3920264
505.79904
490.32985
472.33591
451.75123
428.35221
401.98117
372.59293
340.29985
305.40452
268.40737
229.98239
190.93937
152.188
114.6717
79.422322
47.356318
20.793401
6.2060888
2.2777858
1.3777864
1.0605125
0.86141713
0.6945819
0.58293564
0.52128192
0.48515881
0.46389684
0.4281706
0.41662968
0.40068751
0.39208581
432.69866
420.13514
405.41051
388.50026
369.19405
347.32352
322.79861
295.64618
266.04203
234.32981
201.02084
166.77863
132.39676
98.755954
66.930446
37.917349
14.813717
4.5746949
1.9461151
1.2985576
1.0243425
0.8405092
0.68374269
0.57527879
0.51781068
0.48258926
0.46294098
0.427667
0.41634738
0.40059615
0.39215317
356.96
347.20876
335.66475
322.33094
307.01917
289.56279
269.84184
247.81468
223.54684
197.2369
169.23409
140.0454
110.3388
80.931641
52.948587
27.559273
9.2667108
3.2703234
1.6772642
1.2203018
0.98599123
0.81757327
0.67156721
0.56676689
0.51361946
0.47953537
0.46188698
0.42722375
0.41606167
0.40047779
0.39220111
281.09627
273.91459
265.30136
255.27005
243.66133
230.32415
215.12765
197.98153
178.86298
157.84714
135.13523
111.08066
86.234226
61.372148
37.656125
16.776137
5.6817374
2.3919386
1.4849006
1.1453095
0.9451089
0.79171414
0.65731375
0.5577621
0.50820258
0.47578759
0.46032535
0.4268904
0.4157335
0.40034297
0.39227039
207.67298
202.62815
196.54142
189.4137
181.09671
171.44464
160.32325
147.61564
133.24278
117.19209
99.544067
80.51314
60.590727
40.59432
21.635978
8.2918515
3.3465049
1.836566
1.3557245
1.0710405
0.90245715
0.76261116
0.64144989
0.54837043
0.50191727
0.47159101
0.45785939
0.4264384
0.41533564
0.40027576
0.39235481
138.7634
135.44135
131.42148
126.69229
121.14088
114.63922
107.04988
98.239191
88.09739
76.562903
63.614424
49.32287
34.376213
19.906611
9.5614883
4.0492373
2.1725504
1.5385977
1.2149202
1.0025626
0.85504305
0.72902631
0.62416189
0.53789009
0.49505384
0.46693407
0.45482252
0.42522384
0.4146037
0.40025638
0.39244719
76.565134
74.604031
72.225504
69.410394
66.067476
62.096174
57.393768
51.848996
45.38348
37.993035
29.94627
21.888731
14.292575
8.0222735
4.0749527
2.3059105
1.6828893
1.3693386
1.1275234
0.9308503
0.80402243
0.69365653
0.60586129
0.52620537
0.48787104
0.46160212
0.45143824
0.42391498
0.41370742
0.40026111
0.39254744
31.367716
30.468494
29.415397
28.199596
26.752209
24.998986
22.892475
20.395411
17.51181
14.31433
10.994997
7.9110038
5.323064
3.3655285
2.1759487
1.67309
1.4403403
1.1901872
0.99959076
0.86343661
0.75162023
0.65672772
0.5861878
0.5128637
0.47946176
0.45543496
0.44736765
0.42213387
0.41293614
0.40032024
0.39265469
10.327188
10.081003
9.7687422
9.3895845
8.9295197
8.3740265
7.7123282
6.9348344
6.0245038
5.0354595
4.0323835
3.1095809
2.3491746
1.8297573
1.5278982
1.3702935
1.1972751
1.0577584
0.92692212
0.79825483
0.69397072
0.61782023
0.56593468
0.49910388
0.47000222
0.44891945
0.44278441
0.42021566
0.41144542
0.40047921
0.39277339
3.4405996
3.4023616
3.3384775
3.2454542
3.123304
2.9684463
2.7798949
2.5661969
2.3199277
2.0572058
1.8035469
1.5620658
1.3884093
1.3018283
1.2369306
1.0779876
1.0246631
0.91980045
0.79555474
0.71428713
0.63824242
0.58146475
0.54282364
0.48356803
0.46047574
0.44229777
0.43932644
0.41800267
0.4097448
0.40078477
0.39290599
1.4650825
1.4574122
1.4432322
1.4217417
1.3932827
1.3571853
1.3114607
1.2530931
1.1906864
1.1231358
1.0701311
1.0218348
1.0109006
1.0069029
0.96727217
0.89932449
0.8102337
0.74360448
0.70514495
0.63338953
0.57817923
0.54166317
0.5192137
0.46870231
0.44994647
0.43573377
0.43462488
0.41531364
0.40745595
0.40099994
0.3931957
0.8954253
0.8910303
0.88595046
0.87958456
0.87160022
0.86204855
0.85070055
0.83690648
0.82684308
0.81423398
0.79549288
0.76375697
0.75412329
0.72222951
0.69741101
0.67476102
0.66807081
0.6464695
0.598486
0.56193637
0.53614857
0.5074562
0.48972688
0.45392029
0.43945386
0.42956678
0.42995367
0.41204652
0.40530372
0.40102706
0.39350295
0.69785582
0.6958647
0.69478288
0.6942231
0.69379777
0.6938412
0.694021
0.69292932
0.6870817
0.6740334
0.650347
0.63187826
0.61887652
0.59973223
0.57700886
0.56405521
0.5535101
0.54617268
0.54406359
0.52471314
0.50572133
0.47589385
0.46106633
0.43950649
0.42899838
0.4232245
0.4227644
0.40881244
0.40342089
0.4009062
0.39353677
0.58620962
0.58399385
0.58110992
0.57742873
0.574173
0.57131708
0.56849665
0.56563322
0.56270037
0.55928281
0.55954706
0.56079392
0.54995943
0.5314744
0.51689464
0.51039534
0.50161151
0.49202671
0.4844891
0.48686306
0.4730793
0.45716239
0.4400896
0.42790485
0.41922064
0.41686431
0.41756646
0.40646028
0.40215443
0.39991781
0.39384188
0.50661056
0.50692319
0.50757608
0.50818908
0.50860472
0.50894289
0.50914536
0.50883509
0.50721572
0.5027478
0.49268263
0.48373643
0.47856786
0.47601458
0.47368602
0.47517225
0.47314889
0.46169738
0.45278032
0.44959536
0.44648391
0.44604592
0.42856877
0.41880944
0.411804
0.41124579
0.41325867
0.40437489
0.40084218
0.3977326
0.39374948
0.46099116
0.4603539
0.45936746
0.45819598
0.4572059
0.45634459
0.45549859
0.45449868
0.45321392
0.45160946
0.44978357
0.44915924
0.44800517
0.44543589
0.44622364
0.44134799
0.439682
0.4432749
0.43621284
0.42957425
0.4236854
0.43274864
0.42199047
0.41173474
0.40739139
0.40757084
0.40879129
0.40295194
0.40005212
0.39695141
0.39386204
0.43015035
0.43015624
0.43022357
0.43041072
0.43073014
0.43115919
0.43158593
0.43174346
0.43137092
0.4301669
0.42791655
0.42470771
0.42317046
0.42262275
0.42165636
0.42267038
0.42264546
0.423676
0.42322184
0.41812016
0.41111492
0.41371978
0.41712035
0.4076782
0.40426176
0.40441795
0.40639371
0.40191088
0.39974033
0.39679075
0.39404489
0.41332852
0.41325273
0.41309644
0.41284309
0.41253939
0.41219951
0.41183206
0.41143888
0.41122327
0.41113194
0.41088191
0.41070073
0.4105819
0.41049593
0.41086831
0.41031575
0.41045305
0.41060861
0.40931826
0.40662875
0.40452918
0.40402664
0.4105188
0.40438671
0.40162566
0.40177018
0.40388085
0.40041733
0.39969184
0.39655621
0.39428974
0.40389143
0.4038935
0.40385788
0.40379143
0.40374118
0.40372949
0.40378444
0.40400628
0.4043339
0.40472572
0.4049995
0.40486239
0.40425236
0.40338302
0.4033203
0.40340362
0.40365814
0.40336609
0.40317052
0.40152326
0.40126232
0.40004957
0.40276034
0.40126651
0.39933429
0.4001388
0.40069725
0.39871476
0.3990759
0.39639758
0.39513757
0.39938152
0.39935875
0.39930834
0.39924241
0.39918222
0.39913522
0.3991052
0.39910582
0.39917883
0.39927633
0.39935401
0.39936514
0.3993041
0.39934474
0.39950328
0.39974545
0.39993477
0.4000803
0.39970618
0.39952335
0.39852628
0.398738
0.39931035
0.3991507
0.39795341
0.3984826
0.39853677
0.39802959
0.39761904
0.39633968
0.39573272
0.39741505
0.39739236
0.3973629
0.39733331
0.39731516
0.39731995
0.39735342
0.39741672
0.39750437
0.39757976
0.39762941
0.39765969
0.39767414
0.39771714
0.39783282
0.39799462
0.3981566
0.39839238
0.39822493
0.3983847
0.39771397
0.39803118
0.39818365
0.39805624
0.39746487
0.39780498
0.39780062
0.39777779
0.39711412
0.3968615
0.39605384
0.39710707
0.39709514
0.39708135
0.39706846
0.39706027
0.3970586
0.39706435
0.39707738
0.3970948
0.39711288
0.39712466
0.39712868
0.39713105
0.39715364
0.39722605
0.39736737
0.39755006
0.39769505
0.39765725
0.39785596
0.39759977
0.39786843
0.39799142
0.39764445
0.39761563
0.39759897
0.397576
0.39756308
0.39697177
0.39703465
0.39677004
0.3976845
0.39767987
0.39767166
0.39766032
0.39764662
0.39763155
0.39761628
0.39760185
0.39758856
0.39757559
0.39756129
0.39754468
0.39752695
0.39751115
0.39749907
0.39748982
0.39746621
0.39746776
0.39745764
0.39746867
0.39744498
0.39769408
0.39743392
0.39746121
0.39745644
0.39746041
0.39750291
0.39742198
0.39730955
0.39731242
0.3972341
125.81544
164.42526
207.61214
244.33582
294.94232
360.70679
420.66531
460.40841
475.59854
471.30267
448.30005
404.78053
352.07116
294.36958
235.50879
178.84614
126.82782
80.780176
42.822629
17.073986
5.1031352
1.7549272
0.99416316
0.74266983
0.61686796
0.54126172
0.48903335
0.44979351
0.4363321
0.40217322
0.39083362
148.55833
194.0514
233.26507
272.13661
331.94502
395.0393
445.004
474.05833
481.25437
472.45322
443.80369
398.29152
344.99066
287.51016
229.37872
173.67601
122.66261
77.564621
40.599247
15.8633
4.6853787
1.667746
0.97191665
0.735086
0.61311356
0.53928856
0.48793916
0.44916566
0.43596506
0.40206615
0.39085009
176.88709
217.58027
247.30694
295.77812
359.91146
419.51381
462.3381
483.68806
485.28323
472.13953
438.6333
391.78893
338.09404
280.89329
223.48386
168.70833
118.66126
74.475786
38.478904
14.739565
4.3275232
1.5926394
0.95837994
0.73021325
0.61049512
0.53785948
0.48712072
0.44863862
0.43560102
0.40196355
0.39086731
204.09818
233.06565
268.88376
327.36651
390.20578
442.70453
477.23702
491.25389
488.10054
470.3602
433.1855
385.33978
331.37931
274.50406
217.80996
163.93157
114.81443
71.505991
36.456913
13.695105
4.0103236
1.526346
0.94402518
0.72466203
0.60755563
0.53625047
0.4862097
0.4480671
0.43521383
0.40186156
0.39088548
222.85411
247.57682
296.90662
359.1947
417.85591
462.89525
489.63312
497.257
490.52453
467.30289
427.64104
378.97265
324.84436
268.33262
212.34718
159.33754
111.11519
68.650007
34.53138
12.722643
3.7259537
1.4673225
0.93142145
0.71968928
0.60488865
0.53478166
0.48537752
0.4475266
0.43481828
0.40176291
0.39090489
233.28886
270.5764
329.49019
390.83128
443.18003
480.43055
499.88288
502.16084
491.50408
463.43707
422.06358
372.70655
318.49115
262.37362
207.08854
154.91967
107.55764
65.903124
32.698197
11.816792
3.4689628
1.4146064
0.91962406
0.71481213
0.60225481
0.53331938
0.48454797
0.44698284
0.43440892
0.40166661
0.3909258
249.98786
303.00351
363.92318
420.5517
465.64779
495.38583
508.23593
506.17489
491.2468
459.25303
416.50302
366.55794
312.32337
256.62369
202.02845
150.67225
104.13645
63.261396
30.95309
10.973561
3.2363417
1.3675028
0.90877341
0.7101906
0.59974658
0.53192701
0.48375873
0.44645678
0.43399302
0.40157392
0.39094602
279.59585
338.42585
397.01244
447.46198
485.26186
508.01338
515.0619
509.46209
489.58957
454.91523
410.98281
360.54124
306.34538
251.08062
197.16219
146.59017
100.84675
60.720057
29.292304
10.189784
3.0259783
1.3254538
0.89868197
0.70573852
0.59731611
0.5305797
0.4829931
0.44594012
0.43357234
0.40148507
0.39096546
315.7678
374.41859
427.90787
471.45447
502.2218
518.59991
520.7747
511.42665
487.06127
450.48938
405.52383
354.67051
300.56175
245.74281
192.48568
142.66883
97.68415
58.274929
27.711262
9.4627329
2.8361152
1.2880575
0.8892838
0.70146625
0.59497219
0.52929121
0.48225959
0.445438
0.43315122
0.4014007
0.39098462
353.59924
408.46636
455.73401
492.49335
516.76773
527.41198
525.65082
512.09565
484.23553
446.03343
400.14741
348.95908
294.97687
240.60897
187.99528
138.90406
94.644719
55.924928
26.206205
8.7897504
2.6651607
1.2551971
0.88048413
0.6973467
0.59269757
0.52805639
0.48155329
0.44494763
0.4327314
0.40132112
0.39100348
390.27116
439.59107
480.46715
510.84962
529.20812
534.82699
529.66422
511.84256
481.24287
441.57256
394.87395
343.41929
289.59465
235.67792
183.68764
135.29202
91.724886
53.668016
24.773894
8.1695351
2.5115754
1.2262021
0.87220824
0.69336917
0.59048549
0.5268773
0.48087522
0.44446947
0.43231499
0.40124653
0.39102219
424.03089
467.50582
502.30038
526.81907
539.82886
541.19189
532.62408
510.72448
478.10275
437.13416
389.72398
338.06227
284.41843
230.94844
179.55962
131.82918
88.922055
51.5025
23.410584
7.5999701
2.3738141
1.2000827
0.86439476
0.68951803
0.58832488
0.52575103
0.48022298
0.44400191
0.43190164
0.40117691
0.39104114
454.61937
492.3884
521.52276
540.69617
548.8718
546.78893
534.19776
509.26988
474.89059
432.75007
384.71697
332.8978
279.4509
226.41922
175.60824
128.51229
86.23474
49.427168
22.114831
7.0765108
2.250431
1.1766527
0.85699781
0.68578185
0.58620804
0.52467535
0.47959502
0.44354423
0.43148933
0.40111225
0.39105892
482.02482
514.46828
538.43058
552.77101
556.69943
551.49491
534.92364
507.64634
471.64803
428.44862
379.87053
327.93429
274.69415
222.08883
171.83062
125.33821
83.658998
47.440514
20.886786
6.5952956
2.1401087
1.1555506
0.84997362
0.6821503
0.58412826
0.52364612
0.47898918
0.44309508
0.43107433
0.40105259
0.39107581
506.5002
534.06059
553.32734
563.30517
563.61579
555.23248
535.22784
505.89248
468.40963
424.25633
375.20037
323.17888
270.14969
217.95574
168.22399
122.30402
81.192578
45.540861
19.725704
6.1537958
2.0416424
1.136516
0.84328945
0.67861623
0.58208155
0.52265895
0.47840321
0.44265351
0.43065229
0.40099767
0.39109242
528.3485
551.47512
566.49057
572.5039
569.90231
557.91001
535.28179
504.04977
465.21103
420.19777
370.72034
318.63755
265.81854
214.0183
164.78565
119.40693
78.835367
43.726826
18.630501
5.7498495
1.9539125
1.1193013
0.83691787
0.67517552
0.58006612
0.52170895
0.47783405
0.4422184
0.43021938
0.4009474
0.39110877
547.89296
567.00989
578.1872
580.71671
575.32461
559.94541
535.11414
502.15997
462.08671
416.29515
366.44247
314.31525
261.70126
210.27478
161.513
116.64423
76.58523
41.997224
17.599722
5.3814019
1.8758761
1.1037074
0.83083815
0.67182778
0.57808245
0.5207916
0.47727847
0.44178842
0.4297737
0.40090164
0.39112504
565.44041
580.93303
588.63287
588.17836
579.88446
561.59278
534.79313
500.27057
459.06888
412.56816
362.3771
310.21602
257.79805
206.72341
158.40348
114.01427
74.4401
40.350967
16.631616
5.0464169
1.8065652
1.0895566
0.82503386
0.6685764
0.57613288
0.5199029
0.47673287
0.44136225
0.42931649
0.40086049
0.39114149
581.27001
593.48497
598.0204
595.06129
583.64183
563.03113
534.39326
498.42599
456.18634
409.03404
358.53309
306.34312
254.10882
203.36236
155.45452
111.5142
72.398214
38.786732
15.724202
4.7428329
1.745084
1.0766606
0.81949285
0.66542828
0.57422142
0.51903924
0.47619433
0.44093845
0.42885238
0.40082406
0.39115851
595.63162
604.88732
606.61723
601.22213
586.96167
564.30576
533.96805
496.66488
453.46443
405.70776
354.91797
302.69916
250.63324
200.18982
152.66362
109.14027
70.455611
37.303154
14.875371
4.4685516
1.6906109
1.064868
0.81420656
0.66239309
0.57235358
0.51819675
0.47566106
0.4405159
0.42838834
0.40079238
0.39117669
608.74573
615.31174
614.61671
606.7078
590.01766
565.48191
533.56675
495.02142
450.92532
402.60228
351.53813
299.28622
247.37081
197.20404
150.02846
106.89062
68.608201
35.898415
14.08293
4.2214766
1.6423978
1.0540645
0.80916783
0.6594819
0.57053626
0.51737047
0.47513185
0.44009384
0.4279316
0.40076547
0.39119486
620.81379
624.92422
622.125
611.64757
592.91399
566.61777
533.23257
493.52545
448.5883
399.72878
348.39897
296.10593
244.32091
194.40336
147.54903
104.76352
66.853905
34.570386
13.34458
3.999556
1.5997693
1.0441459
0.80437009
0.65670525
0.56877731
0.51655402
0.4746091
0.43967255
0.42748763
0.40074288
0.39121323
632.01814
633.90922
629.09865
616.28662
595.69735
567.76129
533.00326
492.20281
446.47009
397.0969
345.50507
293.1596
241.48287
191.7859
145.22287
102.75769
65.190161
33.317242
12.657978
3.8008102
1.5621216
1.0350252
0.79980641
0.65407105
0.56708457
0.51574028
0.47409626
0.43925347
0.42705833
0.40072388
0.39123221
642.50394
642.40884
635.60778
620.73955
598.42566
568.95623
532.91215
491.07572
444.5852
394.71491
342.86028
290.44832
238.85595
189.35175
143.04576
100.87149
63.616843
32.135227
12.020974
3.6243797
1.5289261
1.0266282
0.79546879
0.65158231
0.56546426
0.51492289
0.473599
0.43883895
0.42664217
0.40070792
0.3912517
652.3872
650.57594
641.71324
625.08178
601.14821
570.24024
532.97469
490.16307
442.94619
392.58994
340.46792
287.97297
236.43956
187.09911
141.01723
99.103462
62.133704
31.021751
11.431705
3.4676293
1.499718
1.0188931
0.79134781
0.64923548
0.56391929
0.51409733
0.47311849
0.43843136
0.42623602
0.40069465
0.39127168
661.79162
658.35172
647.60698
629.3524
603.90742
571.64497
533.19776
489.48235
441.56403
390.72815
338.33077
285.73417
234.23636
185.02496
139.1362
97.452327
60.740009
29.974637
10.888441
3.3283222
1.4741466
1.0117691
0.78743276
0.64701955
0.56244799
0.51326116
0.47264716
0.4380321
0.42583743
0.40068389
0.39129214
670.80029
665.81246
653.36486
633.59941
606.74017
573.20164
533.63625
489.05133
440.44838
389.13497
336.451
283.73534
232.24461
183.12964
137.4016
95.916996
59.434641
28.991552
10.389426
3.204828
1.4520645
1.0052149
0.78371223
0.6449165
0.56104373
0.51241355
0.47218759
0.43764111
0.42544568
0.40067544
0.39131304
679.49122
673.01319
659.04087
637.85975
609.67445
574.93687
534.33862
488.88382
439.60754
387.81507
334.8327
281.97564
230.46054
181.41237
135.81253
94.496531
58.216321
28.070135
9.9328066
3.0957636
1.4328122
0.99919756
0.78017527
0.64290328
0.5596959
0.51155493
0.47174788
0.4372556
0.42506135
0.40066938
0.39133419
687.94083
680.00725
664.66436
642.16081
612.73301
576.86426
535.28094
488.9706
439.04779
386.77551
333.48444
280.45271
228.88524
179.87236
134.3683
93.190163
57.083761
27.208157
9.5166852
2.9999013
1.4159132
0.9936925
0.7768128
0.64095496
0.55839199
0.51068597
0.47133129
0.43686796
0.42468481
0.4006648
0.39135544
696.16956
686.86223
670.25649
646.52452
615.93472
578.99847
536.46858
489.31686
438.77742
386.02942
332.40403
279.17019
227.51891
178.50913
133.06843
91.997309
56.03576
26.403546
9.139187
2.9161444
1.4011979
0.98868022
0.77361899
0.6390496
0.55711866
0.50980792
0.47093807
0.43646995
0.42431439
0.4006619
0.39137677
704.19002
693.62234
675.84454
650.97058
619.29401
581.35148
537.92661
490.00554
438.81076
385.57358
331.58743
278.12861
226.36173
177.32248
131.91265
90.917591
55.071271
25.6544
8.7984867
2.8435249
1.3881517
0.98412014
0.77059195
0.63717326
0.55586371
0.50892232
0.47056667
0.436056
0.42395002
0.40066038
0.39139813
712.03377
700.31267
681.44994
655.52281
622.83723
583.95067
539.6768
491.0114
439.14455
385.40345
331.03933
277.32807
225.41401
176.31243
130.9009
89.950819
54.189444
24.958963
8.4958465
2.7794049
1.3755608
0.9800018
0.76773367
0.63532349
0.55462007
0.50803063
0.47021906
0.43562612
0.42359289
0.40066031
0.39141946
719.9047
707.0924
687.19129
660.26752
626.63395
586.85046
541.75049
492.3333
439.8149
385.51333
330.76086
276.76927
224.67621
175.47917
130.03333
89.097281
53.389808
24.319538
8.2258414
2.7196702
1.3637708
0.97632269
0.76504965
0.63351103
0.55338841
0.50713586
0.4699024
0.43519165
0.42324549
0.40066145
0.39144077
728.04061
714.16252
693.2301
665.31068
630.72875
590.07273
544.12998
493.95814
440.78144
385.93248
330.75451
276.45332
224.149
174.82309
129.31023
88.35752
52.672589
23.737177
7.9843535
2.6640837
1.3526908
0.97307664
0.76254698
0.63175847
0.55217796
0.50624408
0.46962949
0.43477314
0.42290975
0.4006642
0.39146218
736.30802
721.45459
699.53542
670.64051
635.10784
593.5569
546.7859
495.87626
442.05213
386.65148
331.01108
276.38127
223.83326
174.34481
128.73208
87.731729
52.038647
23.212142
7.7688727
2.6122626
1.3423373
0.97025708
0.76023231
0.63009612
0.55100625
0.50536605
0.46941229
0.43439089
0.4225868
0.40066874
0.39148415
743.92011
728.35359
705.66422
675.97149
639.62693
597.25157
549.7221
498.09641
443.62895
387.66696
331.55689
276.54324
223.72981
174.04514
128.29959
87.220398
51.489147
22.744222
7.5770242
2.5638796
1.3326863
0.96785652
0.75811009
0.6285559
0.54989622
0.50451693
0.46924975
0.43405461
0.42227762
0.40067524
0.39150578
750.7582
734.65804
711.41644
681.14066
644.17443
601.13828
552.91984
500.61621
445.51361
388.98091
332.37992
276.96761
223.82941
173.92485
128.01372
86.824525
51.025363
22.333034
7.4067092
2.518637
1.3237175
0.96586705
0.75618178
0.62716474
0.54887192
0.50371418
0.46912848
0.43376041
0.42198278
0.400685
0.39152717
757.49913
740.82748
717.06988
686.29515
648.80566
605.20393
556.37136
503.43317
447.70781
390.59591
333.48225
277.6415
224.15839
173.97959
127.87542
86.54518
50.648796
21.978193
7.2560986
2.4762635
1.3154458
0.96424382
0.75444633
0.62593913
0.54795318
0.50297424
0.46903781
0.43349738
0.42170187
0.40069705
0.39154928
764.27217
747.01302
722.74765
691.51448
653.5622
609.46149
560.0768
506.5465
450.21316
392.51455
334.86692
278.56716
224.70477
174.22435
127.88511
86.383586
50.361138
21.679469
7.1235864
2.4365057
1.3078941
0.9629408
0.75290158
0.62488249
0.54715088
0.50230919
0.46897299
0.43325606
0.42143387
0.40071093
0.39157071
771.05494
753.24701
728.502
696.84618
658.4769
613.92795
564.04052
509.95684
453.03156
394.73956
336.5373
279.74776
225.47088
174.65329
128.04681
86.341183
50.164254
21.43693
7.0077329
2.3991164
1.3010586
0.96195328
0.75154654
0.62398575
0.54646434
0.50172336
0.46892639
0.43303061
0.42117817
0.40072644
0.39159137
777.80449
759.51854
734.34534
702.31232
663.57059
618.61732
568.26825
513.66578
456.16514
397.27396
338.4971
281.18691
226.45968
175.26853
128.36082
86.418125
50.060134
21.251066
6.9072058
2.3638592
1.294947
0.9612676
0.75038394
0.62323093
0.54588209
0.50121229
0.4688911
0.43281594
0.4209345
0.40074349
0.39161244
784.49258
765.8083
740.27254
707.91869
668.85394
623.53964
572.76619
517.67529
459.61597
400.1211
340.75041
282.88861
227.67457
176.0726
128.82903
86.61919
50.050918
21.12291
6.8207152
2.3305046
1.2895754
0.9608703
0.74942042
0.622596
0.54538577
0.50076477
0.46886233
0.43260691
0.42070219
0.40076205
0.39163358
791.09896
772.0947
746.27002
713.66089
674.32984
628.7013
577.54138
521.98675
463.38583
403.28493
343.30185
284.85746
229.11945
177.06844
129.45351
86.944377
50.138676
21.054163
6.7469375
2.2988227
1.2849697
0.96075023
0.7486652
0.6220596
0.54495564
0.5003664
0.46883431
0.43239896
0.42048017
0.40078238
0.39165467
797.59323
778.34768
752.31604
719.52657
679.99462
634.10545
582.60158
526.6049
467.4751
406.77002
346.15648
287.09842
230.79864
178.25932
130.2366
87.39555
50.325627
21.047438
6.6844201
2.2685713
1.2811669
0.96083794
0.74812709
0.62160434
0.54457548
0.50000358
0.46880413
0.43218804
0.42026768
0.40080467
0.39167562
803.9235
784.52398
758.38017
725.49736
685.83969
639.75334
587.95303
531.53756
471.88608
410.57994
349.31941
289.61688
232.71696
179.64902
131.18092
87.974584
50.614084
21.106382
6.6314496
2.2394764
1.2782248
0.96126056
0.74781497
0.62121912
0.54423603
0.49966613
0.46877226
0.43197399
0.42006583
0.40082889
0.39169638
810.01737
790.56999
764.4272
731.5522
691.8588
645.64371
593.59947
536.79093
476.62519
414.71924
352.79631
292.41882
234.87984
181.24189
132.28946
88.683383
51.006003
21.235998
6.5859006
2.2112675
1.2762159
0.96196195
0.74773601
0.62090136
0.5439368
0.49934774
0.46874941
0.43176389
0.41987228
0.40085464
0.39171699
815.78117
796.42332
770.42118
737.66629
698.04536
651.78151
599.53668
542.36806
481.70073
419.19362
356.5928
295.51023
237.29293
183.0426
133.56542
89.52384
51.5029
21.443088
6.545186
2.1837229
1.2752912
0.9628838
0.74787644
0.62065706
0.54368411
0.49904485
0.46875212
0.43156918
0.41968668
0.40088157
0.39173757
821.06902
801.98457
776.30225
743.80275
704.36395
658.14456
605.75792
548.26548
487.11153
424.00537
360.71273
298.8961
239.9614
185.05575
135.01193
90.497672
52.105557
21.736857
6.5062298
2.156682
1.2754868
0.96402066
0.74827884
0.62049218
0.54347824
0.49875314
0.46876802
0.43138996
0.41950936
0.40090953
0.39175833
825.21061
806.41438
781.14199
749.02623
709.91135
663.88967
611.51183
553.82485
492.28351
428.67909
364.77308
302.27393
242.65155
187.10347
136.49398
91.501828
52.732214
22.062423
6.4645223
2.1304559
1.2762034
0.96505522
0.748761
0.62039256
0.54328782
0.49846447
0.46878174
0.43120688
0.4193338
0.4009386
0.39177963
122.74492
160.19511
206.77473
244.38602
288.73926
350.88721
410.41176
452.16257
470.38479
467.99658
447.79487
406.16565
354.3501
297.02873
238.25414
181.40611
129.0472
82.606792
44.156163
17.811134
5.3052099
1.7847797
1.0018386
0.74588226
0.61880494
0.54232682
0.48964247
0.45020702
0.43662994
0.40224095
0.39081446
127.36513
162.57053
207.55243
244.53862
285.11154
344.73907
403.43549
445.67064
465.26488
464.47938
445.40614
405.11485
354.0637
297.29878
238.88917
182.21708
129.89296
83.417255
44.835235
18.237124
5.4413806
1.8113554
1.0069525
0.74822041
0.62029478
0.54313582
0.49010503
0.45051058
0.43685534
0.4022743
0.3907974
132.64716
166.47958
209.1674
244.82091
281.99189
338.90406
396.63864
439.26867
460.13654
460.6035
442.66311
403.77721
353.67264
297.53037
239.49825
183.01202
130.73055
84.223225
45.516544
18.668701
5.5826524
1.8374858
1.012251
0.75064826
0.62183321
0.54395653
0.49057
0.45080697
0.43706983
0.40230863
0.39077703
137.29814
170.13742
211.0574
245.38939
279.42368
333.43833
390.04223
432.95609
454.98264
456.5946
439.8675
402.36719
353.2241
297.72051
240.07939
183.78977
131.55924
85.024748
46.199558
19.104636
5.7285224
1.8641884
1.0177628
0.75318644
0.62343158
0.54479371
0.49103993
0.45109985
0.43726761
0.40234418
0.39075529
141.67437
173.60296
212.92849
246.01354
277.31451
328.34597
383.65412
426.73125
449.78966
452.55801
437.01524
400.88683
352.71648
297.86748
240.63138
184.54947
132.37846
85.821396
46.883896
19.543956
5.8788034
1.8917602
1.0234573
0.75581109
0.62507145
0.54563904
0.49151051
0.45138492
0.43744761
0.40238118
0.39073195
145.91749
176.91595
214.7283
246.62252
275.56845
323.6166
377.48099
420.59397
444.47937
448.49138
434.10462
399.34017
352.14966
297.97041
241.1535
185.29056
133.18775
86.612958
47.569231
19.985386
6.0334984
1.9203037
1.0293159
0.75850148
0.62673622
0.54648583
0.49197687
0.45165826
0.43761066
0.40241975
0.39070843
150.08085
180.11102
216.43949
247.22922
274.13779
319.23697
371.53179
414.55651
439.20338
444.40315
431.14028
397.72845
351.52413
298.02876
241.64527
186.0126
133.98671
87.399284
48.255254
20.427082
6.1926647
1.9498777
1.0353405
0.76124835
0.62841739
0.54733192
0.49243644
0.45191878
0.43775859
0.40246005
0.3906854
154.21116
183.22547
218.0773
247.8598
272.9893
315.19643
365.81519
408.64743
434.27293
440.30864
428.12688
396.05317
350.84048
298.04192
242.10631
186.71517
134.77498
88.180103
48.941693
20.868549
6.3563455
1.9805343
1.0415387
0.76404597
0.63010989
0.54817733
0.49288861
0.45216691
0.437895
0.40250222
0.39066285
158.34898
186.29602
219.66073
248.50595
272.08557
311.48133
360.3369
402.86701
429.27813
436.20273
425.06788
394.31621
350.09947
298.01608
242.53629
187.39786
135.55222
88.955212
49.628322
21.309306
6.5245598
2.012319
1.0479156
0.76688717
0.63180895
0.54902256
0.49333334
0.4524038
0.43802386
0.40254629
0.39064102
162.51433
189.35089
221.21002
249.12066
271.4057
308.07449
355.1005
397.21275
424.16697
432.08114
421.96551
392.52015
349.30181
297.94537
242.93477
188.0603
136.31805
89.724408
50.315002
21.748978
6.6973216
2.0452776
1.0544732
0.76976317
0.63350997
0.54986818
0.49377147
0.45263099
0.43814629
0.4025923
0.39062016
166.71745
192.41353
222.74802
249.70302
270.90127
304.95689
350.10696
391.69166
419.09786
427.94789
418.81976
390.66907
348.44837
297.82666
243.30131
188.70207
137.07215
90.48748
51.001724
22.187143
6.8746256
2.0794538
1.061212
0.77266507
0.63520919
0.55071492
0.49420417
0.45285015
0.43826116
0.40264028
0.39060055
170.9659
195.51047
224.34629
250.2439
270.57633
302.12158
345.35573
386.31024
414.07888
423.8066
415.625
388.77091