/*--------------------------------*- C++ -*----------------------------------*\
| =========                 |                                                 |
| \\      /  F ield         | OpenFOAM: The Open Source CFD Toolbox           |
|  \\    /   O peration     | Version:  2406                                  |
|   \\  /    A nd           | Website:  www.openfoam.com                      |
|    \\/     M anipulation  |                                                 |
\*---------------------------------------------------------------------------*/
FoamFile
{
    version     2.0;
    format      ascii;
    arch        "LSB;label=32;scalar=64";
    class       volScalarField;
    location    "0.017";
    object      alphat;
}
// * * * * * * * * * * * * * * * * * * * * * * * * * * * * * * * * * * * * * //

dimensions      [1 -1 -1 0 0 0 0];

internalField   nonuniform List<scalar> 
23204
(
0.0049453102
0.004942352
0.0049397626
0.0049365494
0.0049416646
0.0050209741
0.0050119676
0.005003607
0.0049958895
0.0049887795
0.0049822074
0.0049760909
0.0049703911
0.0049651664
0.0049605082
0.0049565062
0.0049529345
0.0049494904
0.0049463184
0.0049433534
0.0049407903
0.0049376402
0.0049429417
0.0051296938
0.0051191152
0.0051108511
0.0051043275
0.0050968325
0.0050924213
0.0051043045
0.0051326958
0.0051485353
0.0051432282
0.0051299868
0.0051158055
0.005102124
0.0050890959
0.0050766971
0.0050648897
0.0050536287
0.0050428628
0.0050325773
0.0050228611
0.0050137741
0.0050053355
0.0049975374
0.0049903432
0.0049836881
0.0049774953
0.0049717254
0.0049664321
0.0049617072
0.0049576405
0.0049540154
0.0049505342
0.0049473396
0.0049443685
0.0049418328
0.0049387472
0.004944234
0.070384648
0.067511367
0.064065711
0.060024567
0.055374364
0.050115026
0.044278772
0.037919631
0.031162965
0.024233107
0.017543322
0.011805306
0.0078760418
0.0059338398
0.0052345753
0.0050425377
0.0050162708
0.0050377611
0.0050689815
0.0050989267
0.0051248739
0.0051462701
0.0051630139
0.0051752362
0.0051837082
0.0051891097
0.0051912036
0.0051890234
0.0051832359
0.0051760246
0.0051682258
0.0051592671
0.0051484886
0.0051368928
0.0051257975
0.0051168715
0.0051100158
0.005102351
0.005096623
0.0051054958
0.005132611
0.0051502401
0.0051461919
0.0051331189
0.0051188145
0.0051049688
0.0050917777
0.0050792195
0.0050672586
0.0050558574
0.0050449723
0.0050345858
0.0050247805
0.0050156108
0.0050070912
0.0049992095
0.0049919282
0.0049851878
0.0049789171
0.0049730759
0.0049677131
0.0049629205
0.0049587883
0.0049551094
0.0049515908
0.004948374
0.0049453975
0.0049428903
0.0049398702
0.0049455406
0.029770055
0.031643563
0.033559581
0.03551537
0.037507074
0.039530483
0.041581179
0.043654542
0.045745716
0.04784955
0.049960535
0.052072721
0.05417963
0.056274156
0.058348462
0.060393868
0.062400741
0.064358384
0.066254955
0.068077761
0.069813017
0.071442363
0.072946434
0.074304104
0.0754923
0.076485833
0.077257286
0.077776963
0.078013177
0.077931952
0.07749751
0.076672894
0.075420602
0.073704491
0.071473821
0.068703199
0.065361917
0.061424591
0.056875372
0.051708427
0.045953498
0.039649162
0.032909637
0.025931334
0.019078565
0.012997754
0.0085764532
0.0062269572
0.0053324309
0.0050740748
0.0050285097
0.0050451645
0.005075749
0.00510602
0.0051324187
0.0051542229
0.0051713214
0.0051837819
0.0051923015
0.0051976666
0.0051998367
0.0051978492
0.0051920085
0.0051844559
0.005176309
0.0051671511
0.0051562591
0.0051444303
0.0051328115
0.0051231846
0.0051158956
0.00510807
0.0051012108
0.0051071599
0.0051325783
0.0051518086
0.0051491425
0.0051362935
0.0051218735
0.0051078617
0.0050945047
0.0050817845
0.0050696675
0.0050581237
0.0050471174
0.0050366283
0.0050267326
0.0050174779
0.0050088741
0.0050009054
0.004993534
0.004986706
0.0049803558
0.0049744424
0.0049690092
0.0049641479
0.0049599494
0.0049562163
0.0049526604
0.0049494213
0.0049464401
0.0049439624
0.0049410087
0.0049468603
0.029769762
0.031645546
0.033563842
0.035522139
0.037516858
0.039543946
0.041599072
0.043677672
0.045774938
0.047885773
0.05000473
0.05212594
0.054243022
0.056348989
0.058436145
0.060495971
0.062519014
0.064494765
0.066411552
0.068256584
0.070015944
0.071674092
0.073211269
0.074606494
0.075836954
0.076877764
0.077701851
0.078279844
0.078580258
0.07856948
0.078211738
0.077469949
0.076305983
0.074680789
0.072549961
0.069882158
0.066645644
0.062813205
0.058366404
0.053297955
0.047622512
0.041383316
0.034671852
0.027663517
0.020678478
0.014296281
0.0093950294
0.0065922104
0.0054565836
0.0051122516
0.0050413622
0.0050516143
0.0050812923
0.0051120732
0.0051391725
0.0051615846
0.0051792673
0.0051921707
0.0052009079
0.0052063511
0.0052086501
0.0052069143
0.0052011128
0.0051932668
0.0051847671
0.0051753778
0.0051643642
0.0051523075
0.0051401678
0.0051298189
0.0051219993
0.0051139998
0.005106178
0.0051093318
0.005132658
0.0051532419
0.0051520708
0.005139509
0.0051249827
0.0051108032
0.0050972772
0.0050843924
0.005072117
0.0050604282
0.0050492985
0.0050387054
0.0050287174
0.0050193752
0.0050106838
0.0050026245
0.0049951601
0.0049882423
0.004981811
0.0049758245
0.00497032
0.0049653891
0.0049611236
0.004957336
0.0049537427
0.0049504815
0.0049474964
0.0049450491
0.0049421625
0.0049481921
0.029790261
0.031666562
0.033586259
0.035546472
0.037543669
0.039573887
0.04163287
0.043716111
0.045818856
0.047936065
0.050062356
0.052191939
0.05431853
0.056435262
0.058534578
0.060608121
0.062646622
0.06463977
0.066576097
0.068442902
0.070226238
0.071910727
0.073479464
0.074910777
0.076182099
0.077268799
0.078144115
0.078779016
0.079142225
0.079200413
0.078917949
0.078257584
0.077180764
0.075647432
0.073615464
0.071050235
0.067918659
0.064191792
0.059848494
0.054879164
0.049288085
0.043121577
0.036447813
0.029425424
0.022335645
0.015693283
0.010336847
0.0070438989
0.0056156752
0.005160385
0.0050560345
0.0050574072
0.0050859723
0.0051170997
0.0051446941
0.0051679417
0.0051863601
0.0051999077
0.0052090614
0.0052147523
0.0052172976
0.0052159248
0.0052103092
0.00520228
0.0051934791
0.0051838715
0.0051727528
0.0051604682
0.0051478331
0.0051367712
0.0051283436
0.0051201442
0.0051115138
0.0051120372
0.0051329154
0.0051545474
0.0051549672
0.0051427633
0.0051281419
0.0051137933
0.0051000955
0.0050870434
0.0050746073
0.0050627712
0.0050515157
0.005040817
0.0050307348
0.0050213022
0.0050125197
0.0050043662
0.0049968059
0.0049897962
0.0049832823
0.0049772218
0.0049716453
0.0049666438
0.0049623105
0.0049584683
0.0049548376
0.0049515544
0.0049485661
0.00494615
0.0049433308
0.0049495346
0.02983254
0.031708294
0.033628472
0.035589888
0.037588939
0.039621686
0.04168392
0.043771188
0.045878787
0.048001736
0.050134721
0.052272031
0.05440748
0.056534316
0.05864512
0.060731699
0.062784964
0.06479481
0.066749986
0.068637977
0.070444915
0.0721554
0.073753332
0.075219136
0.076529858
0.077661051
0.078586215
0.07927663
0.079701273
0.079826995
0.079618406
0.079038123
0.078047301
0.076605516
0.074671448
0.072208366
0.069181745
0.065560963
0.061322405
0.056453638
0.050955268
0.044862932
0.038235639
0.031213233
0.024043186
0.017180043
0.011402956
0.0075958524
0.0058197355
0.005222368
0.0050739507
0.0050635236
0.0050900927
0.005120634
0.0051491235
0.0051731138
0.0051923657
0.0052067361
0.0052164634
0.0052225504
0.0052254616
0.0052245697
0.0052193065
0.0052112453
0.0052022415
0.0051924756
0.0051813
0.0051687958
0.0051557217
0.0051439945
0.0051349157
0.0051264905
0.0051171964
0.0051152876
0.0051334173
0.0051557398
0.0051578216
0.0051460535
0.0051313505
0.0051168318
0.0051029593
0.0050897373
0.0050771383
0.0050651526
0.0050537693
0.005042963
0.0050327844
0.0050232585
0.0050143813
0.0050061299
0.0049984706
0.0049913669
0.0049847691
0.0049786338
0.0049729847
0.0049679117
0.0049635099
0.0049596127
0.0049559449
0.0049526397
0.0049496489
0.0049472648
0.004944513
0.0049508863
0.028077716
0.029898954
0.031772192
0.033691739
0.03565354
0.03765374
0.039688351
0.041753182
0.04384382
0.045955614
0.04808364
0.050222652
0.052367022
0.054510657
0.056646922
0.058768534
0.060867458
0.062934788
0.064960622
0.066933932
0.068842429
0.070672437
0.07240876
0.074034812
0.07553301
0.076881526
0.078055719
0.079029313
0.079773838
0.080258534
0.080450392
0.080314275
0.079812775
0.078906822
0.077555851
0.075718745
0.073357275
0.070435514
0.06692121
0.062788493
0.058021844
0.052619615
0.046602754
0.040033569
0.033023695
0.025795081
0.018747636
0.012590786
0.0082606241
0.0060804846
0.0053029702
0.0050967039
0.0050709193
0.005093498
0.0051243832
0.0051541275
0.0051785218
0.0051983301
0.0052127511
0.0052230674
0.0052296261
0.0052329748
0.0052326397
0.0052278693
0.0052199279
0.0052108338
0.005200994
0.005189831
0.0051771369
0.0051637076
0.0051513993
0.0051416685
0.0051330016
0.0051231855
0.0051190736
0.0051342254
0.0051568394
0.0051606237
0.0051493758
0.0051346077
0.0051199186
0.0051058684
0.0050924741
0.0050797099
0.0050675725
0.0050560591
0.0050451433
0.0050348658
0.0050252434
0.0050162677
0.0050079147
0.0050001534
0.0049929537
0.0049862708
0.00498006
0.0049743375
0.0049691923
0.0049647213
0.004960769
0.0049570641
0.004953737
0.0049507444
0.004948393
0.0049457082
0.0049522457
0.028171126
0.029988425
0.031858875
0.033777007
0.035738408
0.03773902
0.039774785
0.041841514
0.043934827
0.046050121
0.048182529
0.050326876
0.052477612
0.054628744
0.056773746
0.058905471
0.061016038
0.063096722
0.065137823
0.067128538
0.069056817
0.070909226
0.072670806
0.074325055
0.075853987
0.077238347
0.078453904
0.079474423
0.080271613
0.080814944
0.081071565
0.081006514
0.080582499
0.079760285
0.078499229
0.076758154
0.074497692
0.071680598
0.068273053
0.064247061
0.059584034
0.054279186
0.048344671
0.041840468
0.034853987
0.027586041
0.020387418
0.013894771
0.0090484029
0.0064112985
0.0054081593
0.0051261477
0.0050797678
0.0050966705
0.0051283624
0.0051579326
0.0051832931
0.0052028194
0.0052179303
0.0052289546
0.0052360343
0.005239839
0.0052400765
0.0052358849
0.0052281835
0.0052190908
0.0052092534
0.0051981701
0.0051853407
0.0051716539
0.005158871
0.0051485255
0.0051396153
0.0051294185
0.0051233604
0.0051353892
0.0051578699
0.0051633615
0.0051527257
0.0051379124
0.0051230532
0.0051088227
0.0050952534
0.005082322
0.0050700308
0.0050583849
0.0050473575
0.0050369784
0.0050272563
0.005018178
0.0050097195
0.0050018534
0.0049945557
0.0049877865
0.0049814996
0.0049757032
0.004970485
0.004965944
0.0049619366
0.0049581948
0.0049548459
0.0049518522
0.0049495339
0.0049469156
0.004953611
0.028287433
0.030101402
0.03196893
0.033885059
0.035845342
0.037845629
0.039881816
0.041949716
0.044044978
0.046163048
0.048299119
0.050448084
0.052604475
0.054762394
0.056915428
0.05905656
0.061178062
0.063271383
0.065327025
0.067334406
0.069281725
0.071155804
0.072941956
0.074623884
0.076183668
0.077601726
0.078856801
0.079922626
0.080770966
0.081371469
0.081691466
0.081696086
0.081348242
0.080608617
0.079436486
0.077790505
0.07563039
0.072917686
0.069617078
0.065698582
0.061140806
0.055935465
0.050091232
0.043651453
0.036701669
0.029411371
0.022091341
0.015307195
0.0099660274
0.0068268128
0.0055454675
0.0051646914
0.0050895673
0.0050995029
0.0051295527
0.0051598094
0.0051854819
0.0052063782
0.0052225426
0.005234204
0.0052419199
0.0052461696
0.0052469468
0.0052433653
0.0052359814
0.0052269443
0.0052171523
0.0052061908
0.0051932978
0.0051794469
0.005166297
0.0051553986
0.0051462531
0.0051358135
0.0051280868
0.0051369401
0.0051588553
0.0051660217
0.0051560972
0.0051412635
0.0051262352
0.0051118217
0.0050980749
0.0050849742
0.0050725273
0.0050607466
0.0050496051
0.0050391214
0.0050292961
0.0050201112
0.0050115433
0.0050035694
0.0049961722
0.0049893155
0.0049829518
0.004977081
0.0049717892
0.0049671775
0.0049631148
0.0049593364
0.0049559658
0.0049529717
0.0049506869
0.0049481342
0.0049549805
0.028428108
0.030238634
0.032102987
0.034016589
0.03597509
0.037974329
0.0400102
0.042078526
0.044174994
0.046295098
0.048434094
0.050586944
0.052748264
0.054912251
0.057072602
0.059222428
0.061354152
0.063459393
0.065528849
0.067552159
0.069517766
0.071412761
0.073222738
0.07493167
0.076521817
0.077973648
0.079265751
0.080375146
0.081273011
0.081929161
0.08231109
0.082384011
0.082110987
0.081452772
0.080368517
0.078816673
0.076756192
0.07414752
0.070953924
0.067143546
0.062692384
0.057588491
0.051837043
0.045467241
0.03856527
0.031267484
0.023852325
0.016819157
0.011016407
0.0073421558
0.0057244173
0.0052154681
0.0051015555
0.0051020251
0.0051304885
0.00516124
0.0051875921
0.0052101738
0.0052274296
0.0052399609
0.0052475247
0.0052521269
0.0052533804
0.0052504029
0.0052433809
0.0052344191
0.0052246766
0.0052138434
0.0052009606
0.005187021
0.0051735936
0.0051622101
0.0051528363
0.0051422791
0.0051331716
0.0051388888
0.0051598178
0.0051685883
0.0051594829
0.0051446592
0.0051294641
0.005114865
0.0051009382
0.0050876663
0.0050750616
0.0050631436
0.0050518855
0.005041294
0.0050313617
0.0050220661
0.005013385
0.0050053006
0.004997802
0.004990857
0.0049844159
0.0049784702
0.0049731041
0.0049684211
0.0049643032
0.0049604885
0.0049570962
0.0049541024
0.0049518515
0.004949363
0.0049563528
0.028594118
0.030400861
0.032261674
0.034172234
0.036128314
0.038125803
0.040160621
0.042228625
0.044325545
0.046446931
0.048588102
0.050744096
0.052909612
0.055078939
0.057245889
0.059403696
0.061544929
0.063661376
0.065743925
0.067782432
0.06976558
0.07168073
0.073513764
0.075248946
0.076868792
0.078353927
0.079682907
0.080833399
0.081779
0.082489172
0.082931518
0.08307135
0.082871789
0.082293747
0.081296274
0.07983758
0.077875971
0.075370896
0.072284287
0.068582507
0.064239113
0.059238712
0.05358249
0.047292829
0.040443473
0.033151172
0.025664139
0.018421358
0.012198466
0.007971843
0.0059566973
0.0052828299
0.0051185803
0.0051062687
0.0051327527
0.0051622753
0.0051909724
0.0052134395
0.0052327975
0.0052450593
0.0052527822
0.0052578084
0.0052595118
0.005257116
0.0052504841
0.0052416
0.0052318822
0.0052211523
0.0052083413
0.0051943649
0.0051807212
0.0051689106
0.0051593033
0.0051487296
0.0051385241
0.0051412276
0.0051607769
0.0051710437
0.0051628734
0.0051480974
0.005132739
0.0051179521
0.0051038429
0.0050903977
0.0050776332
0.0050655755
0.0050541979
0.0050434951
0.005033452
0.0050240415
0.0050152433
0.0050070457
0.0049994443
0.00499241
0.0049858911
0.0049798701
0.0049744291
0.0049696742
0.0049655013
0.0049616506
0.0049582371
0.0049552441
0.0049530272
0.0049506014
0.0049577265
0.028786197
0.030588741
0.032445582
0.034352569
0.036305604
0.038300655
0.040333694
0.042400631
0.044497249
0.046619162
0.048761757
0.050920149
0.053089123
0.055263066
0.057435896
0.059600974
0.06175101
0.063877955
0.065972884
0.068025866
0.070025819
0.071960369
0.073815687
0.075576337
0.077225132
0.078742959
0.080108643
0.081299191
0.082290348
0.083052775
0.083553933
0.083759215
0.083631751
0.083132592
0.082220763
0.080854197
0.07899065
0.076588666
0.073608922
0.070016097
0.065781452
0.060886422
0.055327937
0.0491243
0.042330306
0.035059246
0.027521032
0.020104678
0.0135076
0.0087284563
0.0062560635
0.0053724869
0.0051425391
0.0051129586
0.0051347426
0.0051642584
0.0051941393
0.0052177638
0.005236731
0.0052488719
0.0052579397
0.0052633217
0.0052654552
0.0052636178
0.0052573964
0.0052485922
0.0052388624
0.0052281918
0.0052154933
0.0052015117
0.005187685
0.0051754874
0.0051656222
0.0051550981
0.0051440574
0.0051439369
0.0051617523
0.0051733698
0.0051662576
0.0051515757
0.0051360591
0.0051210823
0.0051067882
0.0050931678
0.0050802416
0.0050680416
0.0050565414
0.0050457237
0.0050355657
0.0050260362
0.0050171172
0.0050088038
0.0050010983
0.004993974
0.0049873769
0.0049812802
0.0049757639
0.0049709365
0.0049667086
0.0049628225
0.0049593884
0.0049563967
0.0049542141
0.0049518489
0.0049591005
0.029004948
0.030802849
0.032655239
0.034558108
0.03650748
0.038499417
0.040529964
0.042595096
0.044690666
0.046812354
0.048955626
0.051115676
0.053287376
0.055465213
0.057643211
0.059814856
0.061972997
0.064109746
0.066216357
0.068283104
0.070299141
0.07225235
0.074129187
0.075914524
0.077591481
0.07914126
0.08054299
0.081773754
0.082808708
0.083621373
0.08417962
0.084448796
0.084392032
0.083970423
0.08314304
0.081867545
0.080101199
0.07780173
0.074928644
0.071445021
0.067319947
0.06253186
0.057073428
0.050958134
0.044227571
0.036989877
0.02941864
0.0218608
0.014936563
0.0096213736
0.0066379059
0.0054915301
0.005173862
0.0051211793
0.0051367499
0.0051671913
0.0051961368
0.0052206575
0.0052395519
0.0052535702
0.0052636846
0.0052691229
0.0052713453
0.0052699902
0.005264202
0.0052554916
0.005245716
0.0052350562
0.0052224881
0.0052085199
0.0051945234
0.0051819609
0.0051717946
0.0051613459
0.0051497007
0.0051469934
0.0051627674
0.0051755512
0.0051696228
0.0051550909
0.0051394232
0.0051242546
0.0051097734
0.0050959759
0.0050828862
0.005070541
0.0050589152
0.0050479786
0.0050377018
0.0050280491
0.0050190057
0.0050105743
0.0050027636
0.0049955487
0.0049888729
0.0049827003
0.0049771082
0.0049722079
0.0049679253
0.0049640043
0.0049605503
0.0049575607
0.0049554122
0.0049531056
0.0049604744
0.02925088
0.031043673
0.032891108
0.034789301
0.036734395
0.038722553
0.040749907
0.042812512
0.044906297
0.047027023
0.049170233
0.051331209
0.053504914
0.055685932
0.057868398
0.060045919
0.062211482
0.064357352
0.066474962
0.068554786
0.070586203
0.072557348
0.074454959
0.076264208
0.077968537
0.079549482
0.080986504
0.082256917
0.083335906
0.084196467
0.084809978
0.085141386
0.085153847
0.084808414
0.084064215
0.082878691
0.081208635
0.07901104
0.076244323
0.07287005
0.068855252
0.064175557
0.058819709
0.052796203
0.046139667
0.038941107
0.031353136
0.023682223
0.016476456
0.010655874
0.0071187073
0.0056490272
0.0052149736
0.005131164
0.0051392888
0.0051697768
0.005197273
0.0052231154
0.0052428647
0.0052589385
0.0052689313
0.0052745772
0.0052770143
0.0052762681
0.0052709571
0.0052623718
0.0052525284
0.0052418358
0.0052293965
0.0052154545
0.0052012916
0.005188374
0.0051778511
0.0051674642
0.0051554059
0.0051503776
0.0051638537
0.0051775779
0.0051729555
0.0051586394
0.0051428299
0.0051274684
0.0051127979
0.0050988215
0.0050855662
0.0050730733
0.0050613183
0.005050259
0.0050398593
0.0050300794
0.0050209082
0.0050123567
0.0050044398
0.0049971339
0.004990379
0.0049841303
0.0049784621
0.0049734885
0.0049691517
0.0049651963
0.0049617236
0.0049587364
0.0049566221
0.0049543715
0.0049618477
0.029524424
0.031311622
0.03315358
0.03504653
0.036986734
0.038970459
0.040993936
0.043053308
0.045144591
0.04726363
0.049406057
0.051567243
0.053742245
0.055925748
0.058111997
0.060294718
0.062467034
0.064621363
0.066749309
0.068841541
0.070887656
0.072876038
0.074793697
0.076626105
0.078357027
0.079968337
0.081439848
0.082749183
0.083871684
0.084780243
0.085446572
0.085838396
0.085918477
0.085647803
0.084985457
0.083888753
0.082314024
0.080217599
0.077556881
0.074292014
0.07038808
0.065818073
0.060567085
0.054638511
0.048061437
0.04090723
0.033320989
0.025562118
0.018117682
0.011832856
0.0077152162
0.0058566083
0.005272352
0.0051442741
0.0051425675
0.0051714819
0.0051994111
0.0052268205
0.0052462388
0.0052636536
0.0052733035
0.0052798469
0.0052832598
0.0052825657
0.0052777046
0.0052692826
0.0052593628
0.0052486038
0.005236277
0.0052223727
0.0052080464
0.0051947782
0.0051838412
0.0051734696
0.0051611487
0.0051540776
0.0051650534
0.005179449
0.0051762417
0.0051622175
0.0051462781
0.0051307229
0.0051158611
0.0051017039
0.0050882813
0.0050756378
0.0050637501
0.0050525641
0.0050420375
0.0050321265
0.0050228243
0.005014151
0.0050061271
0.00499873
0.0049918957
0.0049855707
0.0049798261
0.0049747789
0.0049703882
0.0049663992
0.0049629091
0.0049599247
0.0049578442
0.004955647
0.0049632205
0.029825931
0.031607033
0.033442978
0.035330114
0.03726482
0.039243472
0.041262403
0.043317856
0.045405938
0.047522589
0.049663532
0.051824231
0.053999843
0.056185154
0.058374518
0.060561784
0.062740207
0.064902352
0.067039993
0.069143985
0.071204143
0.073209086
0.075146094
0.077000933
0.078757686
0.08039857
0.081903757
0.083251212
0.084416562
0.085372951
0.086091316
0.086541373
0.086687305
0.086489878
0.085908006
0.084898897
0.083418481
0.081422454
0.078867289
0.075711788
0.071919193
0.067459999
0.062315851
0.056485186
0.049991141
0.042891127
0.035319863
0.027495112
0.019850832
0.013149114
0.0084426136
0.0061284514
0.0053509374
0.0051628875
0.005147072
0.0051727645
0.005202259
0.0052294206
0.0052498083
0.0052679205
0.0052784845
0.0052861115
0.0052897146
0.0052888596
0.0052844784
0.0052762538
0.0052662644
0.0052554135
0.0052431736
0.0052293178
0.0052148361
0.0052012224
0.0051898215
0.0051793956
0.0051669243
0.0051580893
0.0051664198
0.0051811747
0.0051794676
0.0051658206
0.0051497664
0.0051340174
0.0051189625
0.005104623
0.0050910311
0.0050782341
0.00506621
0.0050548936
0.0050442359
0.00503419
0.005024754
0.0050159572
0.0050078259
0.0050003373
0.0049934235
0.0049870219
0.0049812008
0.0049760797
0.0049716358
0.0049676138
0.0049641075
0.0049611263
0.0049590794
0.0049569325
0.0049645929
0.030155686
0.031930171
0.033759557
0.035640308
0.037568914
0.039541866
0.041555604
0.043606472
0.045690681
0.047804265
0.049943046
0.052102588
0.054278144
0.056464609
0.058656446
0.060847624
0.063031528
0.065200872
0.06734759
0.069462723
0.071536292
0.07355715
0.075512836
0.077389404
0.079171254
0.080840942
0.082378998
0.083763754
0.084971176
0.085974717
0.08674539
0.087252039
0.087461817
0.087335997
0.086833161
0.085910347
0.084523168
0.082626704
0.080176565
0.077130298
0.073449401
0.069102002
0.064066506
0.058336785
0.051929928
0.044895331
0.037345121
0.029476089
0.021666931
0.014598059
0.0093127651
0.0064806633
0.0054549887
0.0051892589
0.0051534189
0.0051742556
0.0052044489
0.0052318569
0.0052541708
0.0052717273
0.0052839968
0.0052920173
0.0052949431
0.005295043
0.0052911096
0.0052832843
0.0052732557
0.0052623
0.0052501166
0.0052363184
0.0052216963
0.0052077459
0.0051958462
0.0051852834
0.0051727412
0.0051624139
0.0051680145
0.0051827774
0.0051826201
0.0051694443
0.0051532939
0.0051373517
0.0051221021
0.0051075786
0.0050938155
0.0050808621
0.0050686978
0.005057247
0.0050464541
0.0050362698
0.0050266973
0.0050177758
0.0050095368
0.0050019565
0.0049949629
0.0049884847
0.0049825869
0.0049773918
0.0049728954
0.0049688411
0.0049653197
0.004962342
0.0049603282
0.0049582286
0.004965965
0.030513901
0.032281237
0.034103514
0.035977307
0.037899223
0.039865864
0.041873781
0.043919426
0.045999113
0.04810898
0.050244951
0.052402689
0.054577554
0.056764545
0.058958238
0.06115272
0.063341507
0.065517456
0.067672661
0.069798341
0.071884718
0.073920872
0.075894595
0.077792223
0.079598464
0.081296211
0.082866354
0.084287595
0.08553627
0.086586191
0.087408596
0.087972279
0.088243573
0.088187627
0.087762283
0.086924392
0.085629296
0.083831492
0.081485776
0.078548518
0.074979568
0.070744806
0.065819575
0.060193486
0.05387758
0.046914055
0.039393446
0.031501317
0.023558013
0.016170978
0.010333614
0.0069309163
0.0055946229
0.0052260437
0.0051624899
0.0051766287
0.0052066207
0.005234435
0.0052584911
0.0052750468
0.0052891447
0.0052971932
0.0053009017
0.0053015044
0.0052982888
0.0052904592
0.0052803703
0.005269289
0.0052571274
0.0052433914
0.0052286492
0.0052143762
0.0052019608
0.0051911746
0.0051786131
0.0051670528
0.0051699017
0.0051842909
0.0051856871
0.0051730832
0.0051568595
0.0051407258
0.00512528
0.005110571
0.0050966347
0.0050835219
0.0050712133
0.0050596241
0.0050486921
0.0050383659
0.0050286545
0.0050196073
0.0050112602
0.0050035884
0.0049965147
0.0049899597
0.004983985
0.0049787159
0.0049741676
0.0049700819
0.0049665464
0.0049635724
0.0049615911
0.0049595355
0.004967337
0.030900725
0.032660367
0.034474983
0.036341256
0.038255903
0.040215641
0.042217134
0.044256943
0.04633149
0.04843702
0.050569561
0.052724882
0.054898448
0.057085365
0.059280324
0.061477531
0.06367063
0.065852619
0.068015747
0.070151409
0.07225002
0.074300882
0.076292032
0.078210081
0.08004004
0.081765132
0.083366604
0.084823535
0.086112643
0.087208118
0.088081516
0.088701732
0.089034877
0.089046388
0.088696816
0.087942384
0.086738128
0.085038013
0.082796036
0.079967471
0.07651061
0.072389193
0.067575667
0.062055639
0.05583443
0.048946919
0.041469166
0.033568077
0.02551746
0.017858175
0.01150855
0.0074978472
0.0057825333
0.0052769334
0.0051750191
0.0051801944
0.0052090668
0.0052368949
0.0052620279
0.0052793274
0.0052940589
0.0053024867
0.0053072945
0.0053089722
0.005305706
0.0052976894
0.0052875893
0.0052763903
0.0052642203
0.0052505456
0.0052357068
0.0052211291
0.0052081987
0.0051971065
0.0051845542
0.0051720033
0.0051721424
0.0051857583
0.0051886573
0.0051767314
0.0051604625
0.0051441399
0.0051284967
0.0051136006
0.005099489
0.0050862137
0.0050737565
0.0050620248
0.0050509495
0.0050404782
0.0050306259
0.0050214521
0.005012997
0.0050052336
0.0049980795
0.0049914474
0.0049853958
0.0049800527
0.0049754533
0.004971337
0.0049677882
0.0049648178
0.0049628684
0.0049608533
0.0049687088
0.031316243
0.033067646
0.034874052
0.036732249
0.038639065
0.040591331
0.042585822
0.044619211
0.046688031
0.048788635
0.05091716
0.053069481
0.055241172
0.057427449
0.059623116
0.061822497
0.064019365
0.066206856
0.068377372
0.070522479
0.072632781
0.074697793
0.076705792
0.078643656
0.080496691
0.082248448
0.083880525
0.085372376
0.086701109
0.087841307
0.088764888
0.089441012
0.089836027
0.089914128
0.089638305
0.088965746
0.087850991
0.086247506
0.084108509
0.081388231
0.078043494
0.07403601
0.069335469
0.063923726
0.057800829
0.050994268
0.043570916
0.035668694
0.027538582
0.019649526
0.012835947
0.0081990166
0.0060316153
0.0053458306
0.0051918356
0.0051850994
0.0052119001
0.0052396692
0.0052654605
0.0052847025
0.0052989354
0.0053082544
0.0053135542
0.0053157753
0.0053120053
0.0053048321
0.0052948893
0.0052836168
0.0052714075
0.0052577852
0.0052428736
0.0052280122
0.0052145813
0.0052031098
0.0051905746
0.0051772558
0.0051747879
0.0051872294
0.0051915208
0.0051803819
0.005164102
0.0051475946
0.0051317526
0.0051166678
0.0051023788
0.0050889375
0.0050763274
0.0050644488
0.0050532263
0.0050426066
0.0050326117
0.0050233108
0.0050147477
0.0050068927
0.0049996578
0.0049929484
0.0049868197
0.0049814027
0.0049767531
0.0049726068
0.0049690454
0.0049660783
0.00496416
0.004962182
0.0049700805
0.031760487
0.033503107
0.035300762
0.037150343
0.039048787
0.040993035
0.042979974
0.04500639
0.047068929
0.049164053
0.051288009
0.053436783
0.055606057
0.057791157
0.059987003
0.062188038
0.064388162
0.066580647
0.068758046
0.070912089
0.073033567
0.075112202
0.077136502
0.079093607
0.080969113
0.082746888
0.084408879
0.085934912
0.087302486
0.088486589
0.089459524
0.090190795
0.090647037
0.090792309
0.090588345
0.089995976
0.088969282
0.087461264
0.085424404
0.082811918
0.079579241
0.075686157
0.071099736
0.065798275
0.059776869
0.053055789
0.045692812
0.037802478
0.029617004
0.021535756
0.014310137
0.0090490703
0.0063579688
0.0054364574
0.0052146383
0.0051914044
0.0052150246
0.0052429898
0.005269126
0.0052900113
0.0053046169
0.005314647
0.0053201127
0.0053214461
0.0053188664
0.0053127057
0.0053025858
0.00529099
0.0052787014
0.0052651124
0.0052501493
0.0052350266
0.0052211199
0.0052092088
0.0051966803
0.0051827926
0.0051778752
0.0051887576
0.0051942696
0.0051840266
0.0051677772
0.0051510901
0.0051350484
0.0051197731
0.0051053043
0.0050916936
0.0050789258
0.0050668959
0.005055522
0.0050447511
0.005034612
0.0050251838
0.0050165127
0.0050085661
0.00500125
0.0049944629
0.004988257
0.0049827661
0.0049780671
0.0049738918
0.0049703181
0.0049673541
0.0049654658
0.0049635214
0.0049714519
0.032233441
0.033966739
0.035755116
0.037595561
0.039485115
0.041420826
0.043399695
0.04541862
0.047474357
0.049563483
0.051682353
0.053827066
0.055993413
0.058176834
0.060372363
0.062574563
0.06477746
0.06697446
0.069158263
0.071320763
0.073452931
0.07554469
0.077584776
0.079560582
0.081457984
0.083261165
0.084952413
0.086511923
0.087917587
0.089144797
0.090166262
0.090951864
0.09146857
0.091680514
0.091549062
0.091034677
0.090094481
0.088680642
0.086744981
0.084239702
0.081118918
0.077340587
0.072869283
0.067679927
0.061762962
0.055131991
0.047835721
0.039973414
0.031748736
0.023508724
0.015922903
0.010059066
0.0067804726
0.005558903
0.0052460271
0.0051994837
0.0052185232
0.0052467243
0.0052730781
0.0052948646
0.0053105945
0.005320831
0.0053262127
0.0053278425
0.0053266472
0.0053207337
0.0053101568
0.0052984718
0.0052860965
0.0052725281
0.0052575312
0.0052421706
0.0052278177
0.005215422
0.0052028729
0.0051885886
0.0051814241
0.0051903974
0.0051968992
0.0051876561
0.0051714868
0.005154627
0.0051383846
0.0051229168
0.0051082657
0.0050944819
0.0050815518
0.0050693657
0.0050578363
0.0050469115
0.0050366271
0.0050270712
0.0050182923
0.0050102541
0.0050028562
0.0049959909
0.0049897076
0.0049841432
0.0049793958
0.004975192
0.0049716062
0.0049686448
0.0049667855
0.0049648711
0.0049728228
0.032735049
0.034458501
0.036237093
0.038067904
0.039948076
0.041874764
0.043845077
0.045856026
0.047904478
0.049987122
0.052100426
0.054240598
0.056403545
0.058584817
0.060779565
0.062982471
0.065187685
0.067388749
0.069578508
0.071749013
0.073891413
0.075995827
0.078051212
0.080045207
0.081963965
0.083791973
0.085511857
0.087104175
0.088547208
0.089816757
0.090885944
0.091725052
0.092301412
0.092579389
0.092520456
0.092083774
0.091228157
0.089907068
0.088071548
0.085672799
0.082663641
0.0790003
0.07464498
0.06956939
0.063759597
0.057223048
0.049999535
0.04217655
0.033925356
0.025560331
0.017664474
0.011235781
0.0073200611
0.0057287786
0.0052897326
0.0052105013
0.005222778
0.005250674
0.005277272
0.0052994925
0.0053162501
0.0053270696
0.0053332265
0.0053350731
0.0053339805
0.0053275071
0.0053176664
0.0053060633
0.0052936052
0.0052800355
0.0052650155
0.0052494404
0.0052346724
0.0052217639
0.0052091516
0.0051946137
0.0051854373
0.0051922034
0.0051994104
0.0051912604
0.0051752292
0.0051582053
0.0051417613
0.0051260993
0.005111263
0.0050973024
0.0050842048
0.0050718576
0.0050601688
0.0050490876
0.0050386569
0.0050289734
0.0050200869
0.0050119567
0.0050044765
0.0049975325
0.0049911716
0.004985534
0.004980739
0.0049765075
0.0049729096
0.0049699501
0.0049681185
0.0049662307
0.0049741931
0.033265228
0.03497833
0.036746652
0.038567358
0.040437687
0.042354898