/*--------------------------------*- C++ -*----------------------------------*\
| =========                 |                                                 |
| \\      /  F ield         | OpenFOAM: The Open Source CFD Toolbox           |
|  \\    /   O peration     | Version:  2406                                  |
|   \\  /    A nd           | Website:  www.openfoam.com                      |
|    \\/     M anipulation  |                                                 |
\*---------------------------------------------------------------------------*/
FoamFile
{
    version     2.0;
    format      ascii;
    arch        "LSB;label=32;scalar=64";
    class       volScalarField;
    location    "0.017";
    object      rho;
}
// * * * * * * * * * * * * * * * * * * * * * * * * * * * * * * * * * * * * * //

dimensions      [1 -3 0 0 0 0 0];

internalField   nonuniform List<scalar> 
23204
(
1.2018978
1.2019013
1.2019038
1.2019056
1.2019062
1.2017804
1.2017938
1.2018063
1.2018181
1.2018291
1.2018394
1.2018489
1.2018578
1.2018658
1.2018732
1.2018798
1.2018857
1.2018908
1.2018951
1.2018986
1.2019011
1.2019029
1.2019035
1.2013413
1.2013741
1.2014056
1.201436
1.2014651
1.2014931
1.2015199
1.2015457
1.2015704
1.2015941
1.2016167
1.2016383
1.201659
1.2016787
1.2016974
1.2017153
1.2017322
1.2017483
1.2017634
1.2017776
1.201791
1.2018035
1.2018153
1.2018263
1.2018366
1.2018462
1.201855
1.2018631
1.2018705
1.2018771
1.201883
1.2018881
1.2018924
1.2018959
1.2018984
1.2019002
1.2019008
1.1998652
1.199981
1.2000873
1.2001838
1.2002751
1.2003503
1.20041
1.2004617
1.200499
1.2005187
1.2005169
1.2004918
1.2004582
1.2004468
1.2004696
1.2005149
1.2005691
1.2006253
1.2006811
1.2007354
1.2007881
1.2008394
1.200889
1.2009372
1.2009837
1.2010289
1.2010726
1.2011148
1.2011556
1.2011951
1.2012331
1.2012697
1.2013049
1.2013389
1.2013716
1.2014031
1.2014334
1.2014625
1.2014904
1.2015172
1.201543
1.2015677
1.2015913
1.2016139
1.2016355
1.2016562
1.2016759
1.2016946
1.2017125
1.2017294
1.2017454
1.2017605
1.2017748
1.2017881
1.2018007
1.2018125
1.2018235
1.2018338
1.2018434
1.2018522
1.2018603
1.2018677
1.2018744
1.2018803
1.2018854
1.2018897
1.2018931
1.2018957
1.2018975
1.2018981
1.1931169
1.1933464
1.1935742
1.1938004
1.1940255
1.1942495
1.1944726
1.1946949
1.1949166
1.1951376
1.1953578
1.1955774
1.1957961
1.1960138
1.1962304
1.1964457
1.1966595
1.1968714
1.1970814
1.197289
1.1974939
1.1976959
1.1978945
1.1980893
1.19828
1.1984661
1.1986474
1.1988236
1.1989933
1.1991562
1.1993128
1.1994623
1.1996042
1.1997379
1.1998632
1.1999797
1.2000869
1.2001845
1.2002729
1.2003542
1.2004188
1.2004697
1.2005102
1.2005338
1.2005371
1.2005165
1.2004817
1.2004624
1.2004774
1.2005184
1.2005708
1.2006262
1.2006815
1.2007353
1.2007877
1.2008388
1.2008881
1.2009361
1.2009825
1.2010275
1.201071
1.2011131
1.2011538
1.2011931
1.201231
1.2012675
1.2013027
1.2013365
1.2013692
1.2014006
1.2014308
1.2014599
1.2014878
1.2015146
1.2015403
1.201565
1.2015886
1.2016112
1.2016328
1.2016534
1.2016731
1.2016918
1.2017097
1.2017266
1.2017426
1.2017577
1.201772
1.2017853
1.2017979
1.2018097
1.2018207
1.201831
1.2018406
1.2018495
1.2018576
1.201865
1.2018716
1.2018775
1.2018826
1.2018869
1.2018904
1.201893
1.2018947
1.2018953
1.1931993
1.1934245
1.1936482
1.1938705
1.1940917
1.1943118
1.1945311
1.1947497
1.1949677
1.195185
1.1954017
1.1956177
1.195833
1.1960474
1.1962608
1.1964729
1.1966836
1.1968927
1.1970999
1.1973048
1.1975073
1.1977069
1.1979033
1.1980961
1.198285
1.1984695
1.1986493
1.1988241
1.1989932
1.1991554
1.1993113
1.1994605
1.1996022
1.1997361
1.1998617
1.1999788
1.2000868
1.2001854
1.2002742
1.2003586
1.2004254
1.2004769
1.2005208
1.2005482
1.2005562
1.2005407
1.2005065
1.2004803
1.2004869
1.2005228
1.200573
1.2006276
1.2006823
1.2007354
1.2007874
1.2008384
1.2008875
1.2009352
1.2009815
1.2010263
1.2010697
1.2011116
1.2011521
1.2011913
1.2012291
1.2012655
1.2013005
1.2013343
1.2013668
1.2013982
1.2014284
1.2014574
1.2014853
1.201512
1.2015377
1.2015623
1.2015859
1.2016085
1.2016301
1.2016506
1.2016703
1.201689
1.2017069
1.2017238
1.2017398
1.2017549
1.2017691
1.2017825
1.2017951
1.2018069
1.2018179
1.2018283
1.2018378
1.2018467
1.2018548
1.2018622
1.2018688
1.2018747
1.2018798
1.2018842
1.2018876
1.2018902
1.201892
1.2018926
1.1932849
1.1935059
1.1937254
1.1939435
1.1941606
1.1943768
1.1945922
1.194807
1.1950212
1.1952348
1.1954479
1.1956604
1.1958721
1.1960831
1.1962932
1.1965021
1.1967097
1.1969158
1.1971202
1.1973224
1.1975223
1.1977194
1.1979136
1.1981044
1.1982914
1.1984742
1.1986525
1.1988258
1.198994
1.1991556
1.1993107
1.1994594
1.1996009
1.1997348
1.1998607
1.1999783
1.200087
1.2001867
1.2002766
1.2003589
1.2004305
1.200487
1.2005312
1.2005618
1.2005744
1.2005642
1.2005322
1.2005006
1.2004984
1.2005284
1.2005759
1.2006294
1.2006834
1.2007358
1.2007875
1.2008384
1.2008871
1.2009346
1.2009807
1.2010253
1.2010685
1.2011102
1.2011506
1.2011896
1.2012273
1.2012636
1.2012985
1.2013321
1.2013646
1.2013959
1.201426
1.2014549
1.2014828
1.2015095
1.2015351
1.2015597
1.2015833
1.2016058
1.2016274
1.2016479
1.2016676
1.2016863
1.2017041
1.201721
1.201737
1.2017521
1.2017663
1.2017797
1.2017923
1.2018041
1.2018151
1.2018255
1.201835
1.2018439
1.201852
1.2018594
1.201866
1.201872
1.2018771
1.2018814
1.2018849
1.2018875
1.2018892
1.2018898
1.1933736
1.1935903
1.1938054
1.1940194
1.1942323
1.1944444
1.1946559
1.1948667
1.1950771
1.1952869
1.1954963
1.1957051
1.1959133
1.1961209
1.1963276
1.1965332
1.1967377
1.1969408
1.1971422
1.1973417
1.1975389
1.1977336
1.1979255
1.1981141
1.1982992
1.1984802
1.1986569
1.1988287
1.1989957
1.1991567
1.199311
1.1994591
1.1996004
1.1997342
1.1998603
1.1999782
1.2000876
1.2001881
1.200279
1.2003601
1.2004359
1.2004964
1.2005408
1.2005747
1.2005916
1.2005867
1.2005583
1.2005229
1.200512
1.2005353
1.2005794
1.2006316
1.2006851
1.2007367
1.2007878
1.2008388
1.2008871
1.2009342
1.2009802
1.2010246
1.2010676
1.2011091
1.2011492
1.2011881
1.2012256
1.2012618
1.2012966
1.2013301
1.2013625
1.2013936
1.2014237
1.2014526
1.2014803
1.201507
1.2015326
1.2015572
1.2015807
1.2016032
1.2016247
1.2016452
1.2016648
1.2016835
1.2017013
1.2017182
1.2017342
1.2017493
1.2017635
1.2017769
1.2017895
1.2018013
1.2018123
1.2018226
1.2018322
1.2018411
1.2018492
1.2018566
1.2018632
1.2018692
1.2018743
1.2018786
1.2018821
1.2018847
1.2018864
1.2018871
1.1932521
1.1934656
1.1936776
1.1938884
1.194098
1.1943067
1.1945147
1.194722
1.1949289
1.1951353
1.1953413
1.1955469
1.195752
1.1959567
1.1961607
1.1963639
1.1965663
1.1967675
1.1969675
1.1971659
1.1973626
1.1975572
1.1977493
1.1979388
1.1981253
1.1983083
1.1984875
1.1986625
1.1988329
1.1989985
1.1991587
1.1993123
1.1994597
1.1996006
1.1997343
1.1998604
1.1999786
1.2000885
1.2001897
1.2002818
1.2003643
1.2004419
1.2005036
1.2005498
1.2005868
1.2006078
1.2006081
1.2005842
1.2005471
1.200528
1.2005436
1.2005836
1.2006347
1.2006858
1.2007371
1.2007896
1.2008395
1.2008875
1.2009342
1.20098
1.2010241
1.2010668
1.2011081
1.201148
1.2011867
1.2012241
1.2012602
1.2012948
1.2013282
1.2013605
1.2013915
1.2014215
1.2014503
1.201478
1.2015046
1.2015301
1.2015547
1.2015781
1.2016006
1.2016221
1.2016426
1.2016621
1.2016808
1.2016986
1.2017154
1.2017314
1.2017465
1.2017607
1.2017741
1.2017867
1.2017985
1.2018095
1.2018198
1.2018294
1.2018383
1.2018464
1.2018538
1.2018604
1.2018663
1.2018715
1.2018758
1.2018793
1.2018819
1.2018837
1.2018843
1.1933517
1.1935604
1.1937679
1.1939741
1.1941793
1.1943837
1.1945874
1.1947906
1.1949934
1.1951959
1.195398
1.1955997
1.1958011
1.196002
1.1962025
1.1964022
1.1966012
1.1967992
1.196996
1.1971915
1.1973852
1.197577
1.1977666
1.1979537
1.1981378
1.1983188
1.1984961
1.1986694
1.1988382
1.1990024
1.1991615
1.1993146
1.1994611
1.1996015
1.199735
1.1998611
1.1999795
1.2000898
1.2001916
1.2002847
1.2003684
1.2004437
1.2005108
1.2005614
1.2005984
1.2006232
1.2006284
1.2006096
1.2005728
1.2005463
1.2005536
1.2005891
1.2006365
1.2006872
1.2007401
1.2007917
1.2008408
1.2008879
1.2009339
1.2009799
1.2010238
1.2010662
1.2011073
1.201147
1.2011855
1.2012228
1.2012586
1.2012932
1.2013265
1.2013585
1.2013895
1.2014193
1.2014481
1.2014757
1.2015023
1.2015277
1.2015522
1.2015756
1.201598
1.2016195
1.2016399
1.2016595
1.2016781
1.2016958
1.2017127
1.2017286
1.2017437
1.2017579
1.2017713
1.2017839
1.2017957
1.2018067
1.201817
1.2018266
1.2018354
1.2018435
1.2018509
1.2018576
1.2018635
1.2018686
1.201873
1.2018765
1.2018791
1.2018808
1.2018815
1.1934541
1.193658
1.1938607
1.1940623
1.1942631
1.1944631
1.1946626
1.1948616
1.1950603
1.1952586
1.1954568
1.1956546
1.1958522
1.1960494
1.1962462
1.1964425
1.196638
1.1968327
1.1970263
1.1972187
1.1974095
1.1975985
1.1977855
1.19797
1.1981519
1.1983306
1.198506
1.1986775
1.1988447
1.1990074
1.1991653
1.1993176
1.1994635
1.1996032
1.1997363
1.1998624
1.1999809
1.2000915
1.2001939
1.2002877
1.2003725
1.2004479
1.2005186
1.2005714
1.2006091
1.2006378
1.2006477
1.2006343
1.2005993
1.2005669
1.2005653
1.2005961
1.2006397
1.2006902
1.2007433
1.2007928
1.2008412
1.2008882
1.2009349
1.20098
1.2010236
1.2010659
1.2011067
1.2011462
1.2011845
1.2012215
1.2012573
1.2012917
1.2013248
1.2013568
1.2013876
1.2014173
1.201446
1.2014735
1.2015
1.2015254
1.2015498
1.2015732
1.2015955
1.2016169
1.2016373
1.2016568
1.2016754
1.2016931
1.2017099
1.2017259
1.2017409
1.2017551
1.2017685
1.2017811
1.2017928
1.2018039
1.2018142
1.2018238
1.2018326
1.2018407
1.2018481
1.2018548
1.2018607
1.2018658
1.2018702
1.2018737
1.2018763
1.201878
1.2018786
1.1935592
1.1937582
1.1939561
1.194153
1.1943492
1.1945448
1.19474
1.1949347
1.1951292
1.1953235
1.1955176
1.1957116
1.1959053
1.1960987
1.1962919
1.1964845
1.1966766
1.1968679
1.1970583
1.1972475
1.1974354
1.1976216
1.1978058
1.1979878
1.1981673
1.1983438
1.1985171
1.1986868
1.1988524
1.1990136
1.1991701
1.1993214
1.1994667
1.1996057
1.1997384
1.1998643
1.1999828
1.2000936
1.2001965
1.200291
1.2003767
1.2004532
1.2005225
1.2005796
1.2006219
1.200652
1.2006659
1.2006579
1.2006263
1.2005896
1.2005791
1.2006024
1.2006442
1.2006938
1.2007463
1.2007939
1.2008416
1.2008907
1.2009367
1.2009804
1.2010239
1.2010658
1.2011063
1.2011457
1.2011837
1.2012205
1.201256
1.2012903
1.2013233
1.2013551
1.2013858
1.2014154
1.2014439
1.2014714
1.2014978
1.2015231
1.2015475
1.2015708
1.2015931
1.2016144
1.2016348
1.2016542
1.2016728
1.2016904
1.2017072
1.2017231
1.2017382
1.2017523
1.2017657
1.2017783
1.20179
1.2018011
1.2018114
1.2018209
1.2018298
1.2018379
1.2018453
1.2018519
1.2018578
1.201863
1.2018673
1.2018708
1.2018734
1.2018752
1.2018758
1.1936666
1.1938606
1.1940537
1.194246
1.1944376
1.1946287
1.1948195
1.1950099
1.1952002
1.1953904
1.1955804
1.1957704
1.1959602
1.1961499
1.1963393
1.1965284
1.196717
1.1969049
1.197092
1.197278
1.1974628
1.1976461
1.1978276
1.198007
1.1981841
1.1983583
1.1985295
1.1986973
1.1988612
1.1990209
1.1991759
1.1993261
1.1994707
1.199609
1.1997411
1.1998667
1.1999852
1.2000962
1.2001995
1.2002945
1.2003811
1.2004584
1.2005258
1.200588
1.2006348
1.2006653
1.2006831
1.2006803
1.2006532
1.2006143
1.2005952
1.2006108
1.200649
1.2006966
1.2007478
1.200797
1.2008453
1.2008931
1.2009375
1.2009808
1.201024
1.201066
1.2011062
1.2011453
1.2011831
1.2012196
1.201255
1.201289
1.2013219
1.2013535
1.2013841
1.2014136
1.201442
1.2014693
1.2014956
1.2015209
1.2015452
1.2015684
1.2015906
1.2016119
1.2016322
1.2016516
1.2016702
1.2016878
1.2017045
1.2017204
1.2017354
1.2017496
1.2017629
1.2017755
1.2017872
1.2017982
1.2018085
1.2018181
1.2018269
1.201835
1.2018424
1.2018491
1.201855
1.2018601
1.2018645
1.201868
1.2018706
1.2018723
1.2018729
1.1937761
1.1939651
1.1941534
1.194341
1.194528
1.1947146
1.1949009
1.1950871
1.1952731
1.1954591
1.1956451
1.1958311
1.196017
1.1962029
1.1963885
1.1965739
1.196759
1.1969435
1.1971272
1.1973101
1.1974918
1.1976722
1.1978509
1.1980277
1.1982022
1.1983741
1.1985432
1.198709
1.1988711
1.1990292
1.1991828
1.1993317
1.1994755
1.1996131
1.1997446
1.1998699
1.1999882
1.2000993
1.2002028
1.2002983
1.2003856
1.200464
1.2005328
1.2005971
1.200645
1.2006776
1.2006995
1.2007016
1.2006796
1.2006404
1.2006137
1.2006207
1.200655
1.2007005
1.2007499
1.2008002
1.2008472
1.2008944
1.2009407
1.2009821
1.2010241
1.2010663
1.2011063
1.2011452
1.2011827
1.201219
1.201254
1.2012879
1.2013206
1.2013521
1.2013825
1.2014119
1.2014401
1.2014674
1.2014936
1.2015188
1.2015429
1.2015661
1.2015883
1.2016095
1.2016297
1.2016491
1.2016676
1.2016851
1.2017018
1.2017177
1.2017327
1.2017468
1.2017601
1.2017727
1.2017844
1.2017954
1.2018057
1.2018152
1.2018241
1.2018322
1.2018395
1.2018462
1.2018521
1.2018572
1.2018616
1.2018651
1.2018677
1.2018695
1.2018701
1.1938874
1.1940715
1.1942549
1.1944378
1.1946202
1.1948023
1.1949842
1.195166
1.1953478
1.1955297
1.1957116
1.1958935
1.1960755
1.1962575
1.1964394
1.1966211
1.1968026
1.1969836
1.1971641
1.1973437
1.1975223
1.1976997
1.1978756
1.1980497
1.1982217
1.1983912
1.1985581
1.1987218
1.1988821
1.1990386
1.1991907
1.1993383
1.199481
1.199618
1.1997488
1.1998736
1.1999918
1.2001028
1.2002065
1.2003025
1.2003903
1.2004697
1.2005398
1.2006023
1.2006544
1.2006918
1.2007152
1.2007217
1.2007052
1.2006677
1.2006347
1.2006334
1.2006622
1.2007052
1.2007528
1.2008028
1.2008505
1.2008967
1.2009405
1.2009826
1.2010259
1.2010671
1.2011066
1.2011453
1.2011825
1.2012185
1.2012533
1.201287
1.2013195
1.2013508
1.2013811
1.2014103
1.2014384
1.2014655
1.2014916
1.2015167
1.2015408
1.2015639
1.201586
1.2016071
1.2016273
1.2016466
1.201665
1.2016825
1.2016992
1.201715
1.2017299
1.2017441
1.2017574
1.2017699
1.2017816
1.2017926
1.2018029
1.2018124
1.2018212
1.2018293
1.2018367
1.2018433
1.2018492
1.2018544
1.2018587
1.2018622
1.2018648
1.2018666
1.2018672
1.1940003
1.1941795
1.1943581
1.1945362
1.194714
1.1948916
1.1950691
1.1952466
1.1954242
1.1956018
1.1957796
1.1959575
1.1961356
1.1963137
1.1964918
1.1966699
1.1968478
1.1970253
1.1972024
1.1973788
1.1975542
1.1977286
1.1979016
1.198073
1.1982424
1.1984096
1.1985742
1.1987359
1.1988943
1.199049
1.1991997
1.1993459
1.1994874
1.1996237
1.1997538
1.199878
1.1999959
1.2001069
1.2002107
1.2003069
1.2003953
1.2004754
1.2005465
1.2006084
1.2006642
1.2007051
1.2007299
1.2007407
1.2007297
1.2006955
1.200658
1.2006486
1.2006706
1.2007101
1.2007567
1.2008059
1.2008522
1.2008979
1.2009438
1.2009854
1.2010275
1.201068
1.2011067
1.2011455
1.2011825
1.2012182
1.2012527
1.2012862
1.2013185
1.2013496
1.2013797
1.2014088
1.2014368
1.2014637
1.2014897
1.2015147
1.2015387
1.2015617
1.2015837
1.2016047
1.2016249
1.2016441
1.2016625
1.2016799
1.2016965
1.2017123
1.2017272
1.2017413
1.2017546
1.2017671
1.2017788
1.2017898
1.2018
1.2018095
1.2018183
1.2018264
1.2018338
1.2018404
1.2018463
1.2018515
1.2018558
1.2018593
1.2018619
1.2018637
1.2018643
1.1941144
1.1942888
1.1944626
1.1946361
1.1948093
1.1949824
1.1951555
1.1953287
1.195502
1.1956755
1.1958491
1.1960231
1.1961972
1.1963714
1.1965458
1.1967202
1.1968944
1.1970685
1.1972422
1.1974153
1.1975876
1.1977589
1.197929
1.1980976
1.1982645
1.1984292
1.1985915
1.1987511
1.1989075
1.1990605
1.1992096
1.1993544
1.1994947
1.19963
1.1997595
1.1998831
1.2000005
1.2001114
1.2002152
1.2003117
1.2004005
1.2004813
1.2005535
1.2006168
1.2006744
1.2007164
1.2007437
1.2007587
1.200753
1.2007232
1.2006831
1.2006657
1.2006805
1.2007158
1.2007614
1.2008082
1.2008545
1.2009006
1.2009457
1.2009887
1.2010291
1.2010687
1.201108
1.2011461
1.2011827
1.2012181
1.2012524
1.2012855
1.2013176
1.2013486
1.2013785
1.2014074
1.2014352
1.2014621
1.2014879
1.2015128
1.2015367
1.2015596
1.2015815
1.2016025
1.2016225
1.2016417
1.20166
1.2016774
1.2016939
1.2017097
1.2017245
1.2017386
1.2017518
1.2017643
1.201776
1.201787
1.2017972
1.2018067
1.2018155
1.2018235
1.2018309
1.2018375
1.2018434
1.2018486
1.2018529
1.2018564
1.201859
1.2018608
1.2018614
1.1942296
1.1943992
1.1945683
1.1947371
1.1949058
1.1950745
1.1952432
1.1954121
1.1955811
1.1957505
1.1959201
1.19609
1.1962601
1.1964305
1.1966011
1.1967718
1.1969425
1.197113
1.1972833
1.1974531
1.1976223
1.1977906
1.1979577
1.1981236
1.1982877
1.19845
1.19861
1.1987674
1.1989218
1.199073
1.1992205
1.1993639
1.1995028
1.199637
1.1997659
1.1998888
1.2000058
1.2001164
1.2002202
1.2003169
1.200406
1.2004874
1.2005604
1.2006247
1.2006807
1.2007273
1.2007592
1.200776
1.2007751
1.2007505
1.2007097
1.200683
1.2006916
1.2007244
1.2007668
1.2008117
1.2008581
1.2009029
1.2009466
1.2009904
1.201032
1.2010716
1.2011088
1.2011467
1.201183
1.2012183
1.2012522
1.2012851
1.2013169
1.2013477
1.2013775
1.2014061
1.2014338
1.2014605
1.2014862
1.2015109
1.2015347
1.2015575
1.2015793
1.2016002
1.2016202
1.2016393
1.2016575
1.2016748
1.2016913
1.201707
1.2017219
1.2017359
1.2017491
1.2017615
1.2017732
1.2017841
1.2017944
1.2018038
1.2018126
1.2018207
1.201828
1.2018346
1.2018405
1.2018456
1.20185
1.2018535
1.2018561
1.2018579
1.2018585
1.1943455
1.1945104
1.1946748
1.1948391
1.1950034
1.1951676
1.195332
1.1954966
1.1956615
1.1958267
1.1959922
1.1961581
1.1963244
1.1964909
1.1966578
1.1968248
1.1969919
1.1971589
1.1973258
1.1974923
1.1976582
1.1978235
1.1979877
1.1981507
1.1983122
1.198472
1.1986296
1.1987848
1.1989372
1.1990865
1.1992323
1.1993742
1.1995119
1.1996449
1.1997729
1.1998953
1.2000117
1.200122
1.2002257
1.2003224
1.2004118
1.2004936
1.2005674
1.2006326
1.2006887
1.2007384
1.2007732
1.2007923
1.200796
1.2007769
1.2007375
1.2007039
1.2007043
1.2007327
1.2007726
1.2008165
1.2008617
1.2009056
1.200949
1.2009924
1.2010335
1.2010743
1.2011112
1.2011471
1.2011836
1.2012185
1.2012522
1.2012848
1.2013164
1.201347
1.2013765
1.201405
1.2014325
1.201459
1.2014846
1.2015092
1.2015328
1.2015555
1.2015772
1.201598
1.2016179
1.2016369
1.2016551
1.2016723
1.2016888
1.2017044
1.2017192
1.2017332
1.2017464
1.2017588
1.2017704
1.2017813
1.2017915
1.201801
1.2018097
1.2018178
1.2018251
1.2018317
1.2018376
1.2018427
1.2018471
1.2018506
1.2018532
1.2018549
1.2018556
1.1944619
1.1946221
1.1947821
1.1949419
1.1951017
1.1952616
1.1954217
1.1955821
1.1957429
1.195904
1.1960655
1.1962274
1.1963898
1.1965525
1.1967156
1.196879
1.1970425
1.197206
1.1973695
1.1975327
1.1976954
1.1978576
1.1980189
1.1981791
1.1983379
1.1984951
1.1986503
1.1988033
1.1989536
1.199101
1.1992451
1.1993855
1.1995217
1.1996536
1.1997807
1.1999023
1.2000181
1.200128
1.2002315
1.2003283
1.2004179
1.2005001
1.2005745
1.2006407
1.2006981
1.2007494
1.2007856
1.2008072
1.2008156
1.2008022
1.2007659
1.2007275
1.2007191
1.2007415
1.2007789
1.2008216
1.2008658
1.2009094
1.2009528
1.2009949
1.2010351
1.2010748
1.2011126
1.2011488
1.2011844
1.201219
1.2012524
1.2012846
1.201316
1.2013463
1.2013757
1.201404
1.2014313
1.2014576
1.2014831
1.2015075
1.201531
1.2015536
1.2015752
1.2015959
1.2016157
1.2016346
1.2016527
1.2016699
1.2016863
1.2017018
1.2017166
1.2017305
1.2017436
1.201756
1.2017676
1.2017785
1.2017887
1.2017981
1.2018069
1.2018149
1.2018222
1.2018288
1.2018347
1.2018398
1.2018441
1.2018476
1.2018502
1.201852
1.2018526
1.1945785
1.1947342
1.1948897
1.1950451
1.1952006
1.1953563
1.1955122
1.1956685
1.1958251
1.1959822
1.1961397
1.1962977
1.1964563
1.1966152
1.1967746
1.1969343
1.1970942
1.1972543
1.1974143
1.1975742
1.1977338
1.1978929
1.1980512
1.1982085
1.1983647
1.1985193
1.1986721
1.1988228
1.198971
1.1991165
1.1992588
1.1993976
1.1995325
1.199663
1.1997891
1.19991
1.2000252
1.2001346
1.2002379
1.2003345
1.2004243
1.2005068
1.2005817
1.2006487
1.2007069
1.2007564
1.200798
1.2008241
1.2008342
1.2008263
1.2007944
1.2007528
1.2007358
1.2007517
1.2007858
1.2008272
1.2008705
1.2009134
1.200956
1.2009977
1.2010369
1.2010764
1.2011153
1.2011507
1.2011854
1.2012197
1.2012528
1.2012847
1.2013158
1.2013459
1.201375
1.2014031
1.2014302
1.2014564
1.2014816
1.2015059
1.2015293
1.2015517
1.2015732
1.2015938
1.2016135
1.2016323
1.2016503
1.2016674
1.2016838
1.2016992
1.2017139
1.2017278
1.2017409
1.2017533
1.2017649
1.2017757
1.2017859
1.2017953
1.201804
1.201812
1.2018193
1.2018259
1.2018318
1.2018369
1.2018412
1.2018447
1.2018473
1.201849
1.2018497
1.194695
1.1948463
1.1949975
1.1951487
1.1952999
1.1954514
1.1956032
1.1957554
1.195908
1.1960611
1.1962148
1.1963689
1.1965236
1.1966789
1.1968345
1.1969906
1.197147
1.1973036
1.1974603
1.1976169
1.1977733
1.1979293
1.1980846
1.1982391
1.1983925
1.1985445
1.1986949
1.1988433
1.1989894
1.1991329
1.1992734
1.1994106
1.199544
1.1996733
1.1997982
1.1999183
1.2000329
1.2001417
1.2002446
1.2003412
1.200431
1.2005137
1.2005891
1.2006567
1.2007159
1.2007661
1.2008111
1.2008392
1.2008515
1.2008491
1.2008224
1.2007802
1.2007549
1.200763
1.2007934
1.2008332
1.2008756
1.2009179
1.2009593
1.2010011
1.2010405
1.2010794
1.2011176
1.2011522
1.2011861
1.2012201
1.2012533
1.2012848
1.2013157
1.2013456
1.2013745
1.2014024
1.2014293
1.2014552
1.2014803
1.2015044
1.2015276
1.20155
1.2015713
1.2015918
1.2016114
1.2016301
1.201648
1.201665
1.2016813
1.2016967
1.2017113
1.2017252
1.2017382
1.2017505
1.2017621
1.2017729
1.201783
1.2017924
1.2018011
1.2018091
1.2018164
1.2018229
1.2018288
1.2018339
1.2018382
1.2018417
1.2018443
1.2018461
1.2018467
1.1948111
1.1949582
1.1951052
1.1952522
1.1953994
1.1955469
1.1956946
1.1958428
1.1959915
1.1961407
1.1962905
1.1964409
1.1965918
1.1967433
1.1968954
1.1970479
1.1972008
1.1973539
1.1975073
1.1976606
1.1978138
1.1979667
1.1981191
1.1982708
1.1984214
1.1985708
1.1987187
1.1988648
1.1990088
1.1991502
1.1992889
1.1994244
1.1995564
1.1996844
1.1998081
1.1999271
1.2000411
1.2001494
1.2002519
1.2003482
1.200438
1.2005209
1.2005966
1.2006648
1.2007249
1.2007763
1.2008206
1.2008525
1.2008697
1.2008707
1.2008496
1.2008088
1.2007769
1.200776
1.2008016
1.2008397
1.200881
1.2009226
1.2009636
1.2010045
1.2010435
1.2010815
1.2011191
1.2011539
1.2011882
1.2012218
1.201254
1.2012853
1.2013159
1.2013454
1.2013741
1.2014018
1.2014284
1.2014542
1.2014791
1.201503
1.2015261
1.2015482
1.2015695
1.2015898
1.2016093
1.2016279
1.2016457
1.2016627
1.2016788
1.2016942
1.2017088
1.2017226
1.2017356
1.2017478
1.2017593
1.2017701
1.2017802
1.2017896
1.2017982
1.2018062
1.2018135
1.20182
1.2018259
1.2018309
1.2018353
1.2018387
1.2018413
1.2018431
1.2018437
1.1949266
1.1950697
1.1952126
1.1953557
1.1954989
1.1956424
1.1957862
1.1959305
1.1960754
1.1962208
1.1963668
1.1965134
1.1966607
1.1968085
1.196957
1.197106
1.1972554
1.1974052
1.1975552
1.1977053
1.1978554
1.1980052
1.1981546
1.1983034
1.1984513
1.1985981
1.1987435
1.1988873
1.199029
1.1991685
1.1993053
1.1994391
1.1995695
1.1996961
1.1998186
1.1999367
1.2000498
1.2001576
1.2002596
1.2003556
1.2004454
1.2005284
1.2006043
1.200673
1.2007338
1.2007861
1.2008292
1.2008659
1.2008875
1.200891
1.2008755
1.2008377
1.2008011
1.2007913
1.2008105
1.2008469
1.2008869
1.2009278
1.2009682
1.2010078
1.2010467
1.2010841
1.2011212
1.2011572
1.20119
1.2012232
1.2012551
1.2012856
1.2013162
1.2013454
1.2013738
1.2014013
1.2014277
1.2014533
1.2014779
1.2015017
1.2015246
1.2015466
1.2015677
1.2015879
1.2016073
1.2016258
1.2016435
1.2016604
1.2016764
1.2016917
1.2017062
1.20172
1.2017329
1.2017451
1.2017566
1.2017674
1.2017774
1.2017867
1.2017954
1.2018033
1.2018105
1.2018171
1.2018229
1.201828
1.2018323
1.2018358
1.2018383
1.2018401
1.2018408
1.1950412
1.1951804
1.1953195
1.1954587
1.1955981
1.1957377
1.1958778
1.1960183
1.1961594
1.1963011
1.1964434
1.1965864
1.1967301
1.1968744
1.1970193
1.1971648
1.1973108
1.1974572
1.1976039
1.1977508
1.1978978
1.1980446
1.198191
1.198337
1.1984822
1.1986264
1.1987693
1.1989107
1.1990502
1.1991876
1.1993225
1.1994545
1.1995834
1.1997086
1.1998299
1.1999469
1.2000591
1.2001663
1.2002678
1.2003635
1.200453
1.2005361
1.2006123
1.2006813
1.2007428
1.2007961
1.2008408
1.20088
1.2009029
1.2009097
1.2009001
1.2008665
1.2008251
1.2008086
1.2008225
1.2008549
1.2008933
1.2009333
1.2009731
1.2010121
1.2010502
1.2010866
1.2011231
1.2011595
1.2011933
1.2012251
1.2012558
1.2012867
1.2013168
1.2013456
1.2013737
1.2014009
1.2014272
1.2014525
1.2014769
1.2015005
1.2015232
1.2015451
1.201566
1.2015861
1.2016053
1.2016237
1.2016413
1.2016581
1.2016741
1.2016893
1.2017037
1.2017174
1.2017303
1.2017424
1.2017539
1.2017646
1.2017746
1.2017839
1.2017925
1.2018004
1.2018076
1.2018141
1.20182
1.201825
1.2018293
1.2018328
1.2018354
1.2018371
1.2018378
1.1951547
1.1952903
1.1954257
1.1955612
1.1956968
1.1958328
1.1959692
1.1961061
1.1962436
1.1963816
1.1965204
1.1966598
1.1967999
1.1969407
1.1970822
1.1972243
1.1973669
1.19751
1.1976535
1.1977972
1.197941
1.1980848
1.1982283
1.1983714
1.1985139
1.1986555
1.1987959
1.1989349
1.1990723
1.1992076
1.1993405
1.1994708
1.199598
1.1997218
1.1998418
1.1999577
1.200069
1.2001754
1.2002764
1.2003717
1.2004611
1.2005441
1.2006204
1.2006897
1.2007518
1.200806
1.2008519
1.2008903
1.200917
1.200929
1.2009233
1.2008948
1.2008514
1.2008274
1.2008354
1.2008634
1.2009002
1.2009392
1.2009783
1.2010168
1.2010541
1.2010899
1.201126
1.2011615
1.2011942
1.2012266
1.2012581
1.2012881
1.2013176
1.201346
1.2013737
1.2014007
1.2014267
1.2014518
1.201476
1.2014994
1.2015219
1.2015436
1.2015644
1.2015844
1.2016034
1.2016217
1.2016392
1.2016559
1.2016717
1.2016869
1.2017012
1.2017148
1.2017277
1.2017398
1.2017512
1.2017618
1.2017718
1.201781
1.2017896
1.2017975
1.2018047
1.2018112
1.201817
1.201822
1.2018263
1.2018298
1.2018324
1.2018341
1.2018348
1.1952669
1.1953989
1.1955308
1.1956628
1.195795
1.1959274
1.1960603
1.1961937
1.1963276
1.1964622
1.1965974
1.1967334
1.19687
1.1970074
1.1971455
1.1972842
1.1974236
1.1975634
1.1977037
1.1978443
1.197985
1.1981258
1.1982664
1.1984067
1.1985465
1.1986854
1.1988234
1.19896
1.1990951
1.1992283
1.1993593
1.1994878
1.1996134
1.1997357
1.1998544
1.1999691
1.2000795
1.2001851
1.2002855
1.2003804
1.2004694
1.2005523
1.2006287
1.2006983
1.2007608
1.2008158
1.2008626
1.2009005
1.2009314
1.2009475
1.2009451
1.2009223
1.2008802
1.2008486
1.2008489
1.2008728
1.2009077
1.2009456
1.2009839
1.2010216
1.2010584
1.2010939
1.2011286
1.2011629
1.2011966
1.2012288
1.2012603
1.2012899
1.2013185
1.2013467
1.201374
1.2014006
1.2014264
1.2014512
1.2014752
1.2014984
1.2015207
1.2015422
1.2015629
1.2015827
1.2016016
1.2016198
1.2016371
1.2016537
1.2016695
1.2016845
1.2016987
1.2017123
1.2017251
1.2017371
1.2017484
1.2017591
1.201769
1.2017782
1.2017867
1.2017946
1.2018018
1.2018083
1.201814
1.2018191
1.2018233
1.2018268
1.2018294
1.2018311
1.2018318
1.1953775
1.1955063
1.1956349
1.1957635
1.1958923
1.1960214
1.1961509
1.1962809
1.1964114
1.1965426
1.1966745
1.1968071
1.1969404
1.1970744
1.1972092
1.1973447
1.1974808
1.1976174
1.1977545
1.197892
1.1980297
1.1981676
1.1983053
1.1984428
1.1985798
1.1987162
1.1988517
1.198986
1.1991188
1.1992499
1.1993789
1.1995056
1.1996295
1.1997503
1.1998676
1.1999812
1.2000905
1.2001952
1.200295
1.2003894
1.2004781
1.2005609
1.2006373
1.2007071
1.2007699
1.2008255
1.2008733
1.2009128
1.2009462
1.2009638
1.2009653
1.2009486
1.2009097
1.2008728
1.200864
1.2008829
1.2009156
1.2009523
1.2009897
1.2010268
1.201063
1.2010981
1.2011321
1.2011662
1.2011996
1.2012311
1.2012617
1.2012908
1.2013193
1.2013474
1.2013743
1.2014007
1.2014262
1.2014508
1.2014746
1.2014975
1.2015196
1.2015409
1.2015614
1.201581
1.2015998
1.2016179
1.2016351
1.2016515
1.2016672
1.2016821
1.2016963
1.2017098
1.2017225
1.2017345
1.2017458
1.2017563
1.2017662
1.2017754
1.2017839
1.2017917
1.2017989
1.2018053
1.2018111
1.2018161
1.2018203
1.2018238
1.2018263
1.2018281
1.2018287
1.1954864
1.1956121
1.1957375
1.195863
1.1959886
1.1961145
1.1962408
1.1963675
1.1964948
1.1966228
1.1967514
1.1968807
1.1970108
1.1971416
1.1972731
1.1974054
1.1975383
1.1976718
1.1978059
1.1979403
1.1980751
1.19821
1.1983449
1.1984796
1.198614
1.1987477
1.1988807
1.1990126
1.1991432
1.1992722
1.1993992
1.199524
1.1996462
1.1997655
1.1998815
1.1999938
1.2001021
1.2002059
1.200305
1.2003988
1.2004872
1.2005697
1.2006461
1.200716
1.2007792
1.2008353
1.2008839
1.2009245
1.2009574
1.2009788
1.2009857
1.2009736
1.2009391
1.2008993
1.2008815
1.2008935
1.2009242
1.2009595
1.200996
1.2010324
1.201068
1.2011026
1.2011362
1.2011696
1.2012021
1.2012327
1.2012628
1.2012929
1.2013214
1.2013484
1.2013749
1.2014009
1.2014261
1.2014505
1.201474
1.2014967
1.2015186
1.2015397
1.20156
1.2015795
1.2015981
1.201616
1.2016331
1.2016494
1.201665
1.2016798
1.2016939
1.2017073
1.2017199
1.2017319
1.2017431
1.2017536
1.2017634
1.2017726
1.201781
1.2017888
1.2017959
1.2018024
1.2018081
1.2018131
1.2018173
1.2018208
1.2018233
1.2018251
1.2018257
1.1955933
1.1957161
1.1958387
1.1959612
1.1960838
1.1962067
1.1963299
1.1964535
1.1965777
1.1967025
1.196828
1.1969542
1.1970811
1.1972088
1.1973372
1.1974664
1.1975962
1.1977267
1.1978577
1.1979892
1.198121
1.198253
1.1983851
1.1985171
1.1986488
1.19878
1.1989105
1.19904
1.1991684
1.1992952
1.1994202
1.1995432
1.1996637
1.1997814
1.1998959
1.200007
1.2001141
1.2002171
1.2003154
1.2004086
1.2004965
1.2005788
1.2006551
1.2007251
1.2007885
1.200845
1.2008943
1.2009358
1.2009685
1.2009941
1.2010049
1.2009969
1.2009676
1.2009256
1.2009011
1.2009069
1.2009335
1.2009671
1.2010027
1.2010383
1.2010732
1.2011074
1.2011405
1.2011731
1.201205
1.2012353
1.201265
1.2012951
1.2013227
1.2013492
1.2013756
1.2014012
1.2014262
1.2014503
1.2014735
1.2014961
1.2015177
1.2015386
1.2015587
1.201578
1.2015965
1.2016142
1.2016312
1.2016474
1.2016628
1.2016775
1.2016915
1.2017048
1.2017174
1.2017293
1.2017404
1.2017509
1.2017607
1.2017698
1.2017782
1.2017859
1.201793
1.2017994
1.2018051
1.2018101
1.2018143
1.2018178
1.2018203
1.2018221
1.2018227
1.1956982
1.1958183
1.1959381
1.1960579
1.1961777
1.1962977
1.196418
1.1965387
1.1966599
1.1967817
1.1969042
1.1970274
1.1971513
1.1972759
1.1974013
1.1975275
1.1976543
1.1977818
1.1979098
1.1980384
1.1981673
1.1982965
1.1984258
1.1985551
1.1986842
1.1988129
1.1989409
1.1990681
1.1991942
1.1993189
1.1994419
1.199563
1.1996817
1.1997979
1.199911
1.2000207
1.2001267
1.2002287
1.2003262
1.2004188
1.2005062
1.2005882
1.2006643
1.2007343
1.2007979
1.2008548
1.2009047
1.2009471
1.2009814
1.2010095
1.2010221
1.2010183
1.200995
1.2009529
1.2009223
1.2009217
1.2009435
1.2009753
1.2010098
1.2010445
1.2010788
1.2011124
1.2011451
1.2011766
1.2012085
1.2012385
1.2012673
1.2012965
1.201324
1.2013507
1.2013765
1.2014017
1.2014264
1.2014502
1.2014732
1.2014955
1.2015169
1.2015376
1.2015575
1.2015766
1.2015949
1.2016125