/*--------------------------------*- C++ -*----------------------------------*\
| =========                 |                                                 |
| \\      /  F ield         | OpenFOAM: The Open Source CFD Toolbox           |
|  \\    /   O peration     | Version:  2406                                  |
|   \\  /    A nd           | Website:  www.openfoam.com                      |
|    \\/     M anipulation  |                                                 |
\*---------------------------------------------------------------------------*/
FoamFile
{
    version     2.0;
    format      ascii;
    arch        "LSB;label=32;scalar=64";
    class       volVectorField;
    location    "0.017";
    object      U;
}
// * * * * * * * * * * * * * * * * * * * * * * * * * * * * * * * * * * * * * //

dimensions      [0 1 -1 0 0 0 0];

internalField   nonuniform List<vector> 
23204
(
(51.708239 0.22127163 8.4806967e-23)
(51.70299 0.17344951 -8.262834e-23)
(51.699366 0.12502453 -1.6593033e-19)
(51.69683 0.075655467 0)
(51.696289 0.025167794 1.5936105e-19)
(51.897453 0.77786449 6.9070201e-27)
(51.87566 0.73843546 2.1567076e-19)
(51.855207 0.69846575 2.1191203e-19)
(51.836093 0.65794698 -4.0588105e-22)
(51.818311 0.61686585 3.9867053e-22)
(51.801821 0.57524198 -1.9983462e-19)
(51.786596 0.5330339 0)
(51.772618 0.49028765 -3.753093e-22)
(51.759869 0.44690371 1.8879607e-19)
(51.748346 0.40297456 -1.845877e-19)
(51.738038 0.35830095 1.8117831e-19)
(51.729012 0.31310079 -1.7782966e-19)
(51.72119 0.2670147 0)
(51.71474 0.22040266 5.3663767e-25)
(51.709474 0.17277985 0)
(51.705835 0.12453809 -1.6423066e-19)
(51.703292 0.075372272 1.9657715e-23)
(51.702738 0.025061725 1.5770868e-19)
(52.625652 1.4146858 1.2346733e-21)
(52.570484 1.38623 7.7502629e-20)
(52.517515 1.357096 -1.532079e-19)
(52.466698 1.3273062 2.3295036e-21)
(52.417956 1.2968756 -1.473556e-19)
(52.371236 1.265821 -1.4338571e-19)
(52.326529 1.2341859 -1.4057699e-19)
(52.283789 1.2019888 1.3778928e-19)
(52.242908 1.1692193 -1.3508089e-19)
(52.203818 1.13588 -4.2664668e-25)
(52.166514 1.1020049 1.2992014e-19)
(52.130971 1.0676118 1.2742328e-19)
(52.097144 1.0327048 -9.7635645e-22)
(52.064997 0.99728444 1.915103e-21)
(52.03449 0.96135407 -1.8782126e-21)
(52.005565 0.9249099 9.2099462e-22)
(51.97815 0.88793785 -1.1561446e-19)
(51.952172 0.85042785 0)
(51.9276 0.81238348 1.1119394e-19)
(51.904411 0.77381201 0)
(51.88258 0.73469931 -2.1387367e-19)
(51.862092 0.69502805 -2.101452e-19)
(51.842944 0.65479103 4.0170537e-22)
(51.825127 0.61397726 2.0129655e-19)
(51.808601 0.57260898 1.9855304e-19)
(51.793341 0.53064676 -3.7879737e-22)
(51.779329 0.48813698 0)
(51.766547 0.44498232 -1.8649088e-19)
(51.754994 0.40127389 1.8304831e-19)
(51.744657 0.35681458 -1.7511252e-22)
(51.735607 0.31181942 0)
(51.727762 0.26593869 0)
(51.721291 0.21952133 1.6905807e-19)
(51.716009 0.17210045 0)
(51.712355 0.12404476 1.6254293e-19)
(51.709805 0.075084777 0)
(51.709239 0.024954389 -4.8994977e-25)
(57.298989 2.2268161 -3.2239428e-20)
(57.179824 2.2862934 -7.1531554e-20)
(57.044309 2.3335211 4.8020638e-25)
(56.891813 2.367261 3.360733e-20)
(56.721075 2.3870326 2.2992231e-21)
(56.529072 2.3845566 -3.8807627e-20)
(56.317069 2.3738105 4.2100524e-20)
(56.084286 2.3406731 -8.5890972e-20)
(55.825409 2.2858525 2.7588995e-21)
(55.53827 2.2075367 -9.4336819e-20)
(55.22281 2.1047517 4.1463437e-25)
(54.891088 1.9825436 0)
(54.582196 1.8661743 5.6155867e-20)
(54.345332 1.7920076 -1.4841788e-25)
(54.182794 1.7591223 0)
(54.059424 1.7433685 0)
(53.951582 1.7321044 5.4548122e-20)
(53.850663 1.7212767 5.5155778e-20)
(53.75406 1.7095116 -1.638424e-21)
(53.660742 1.6963489 -1.6062738e-21)
(53.570203 1.6818596 1.023547e-19)
(53.482485 1.666201 0)
(53.397575 1.6493371 1.5137826e-21)
(53.31525 1.631293 9.3510551e-20)
(53.235544 1.6122074 1.4184196e-25)
(53.158481 1.592152 9.2774312e-20)
(53.084021 1.5711524 -1.7916241e-19)
(53.012143 1.549233 -8.7854566e-20)
(52.942804 1.5264257 -8.7511355e-20)
(52.875979 1.5027605 -8.3188523e-20)
(52.811634 1.478257 8.1589505e-20)
(52.749707 1.4529382 -8.1292394e-20)
(52.690116 1.4268334 0)
(52.632785 1.3999701 0)
(52.577669 1.3723708 7.7897987e-20)
(52.524743 1.3440529 1.4927171e-19)
(52.473959 1.3150401 1.4754535e-19)
(52.42524 1.2853484 1.4470095e-19)
(52.378533 1.2549935 1.4301409e-19)
(52.333828 1.2240191 1.3913276e-19)
(52.291087 1.1924489 -1.3744211e-19)
(52.250203 1.1602757 2.6738758e-19)
(52.211103 1.1275011 -4.1667656e-25)
(52.17378 1.094159 -1.2757818e-19)
(52.138212 1.0602704 -1.2808095e-19)
(52.104359 1.0258418 1.2465093e-19)
(52.072183 0.99087507 0)
(52.041645 0.9553754 -1.189669e-19)
(52.012688 0.91934169 0)
(51.98524 0.8827625 1.1442332e-19)
(51.959228 0.84562772 1.1221444e-19)
(51.934619 0.80793956 0)
(51.911392 0.76970628 0)
(51.889528 0.730913 2.1166769e-19)
(51.869007 0.69154345 2.0757202e-19)
(51.849828 0.65159156 -2.0395063e-19)
(51.83198 0.61104861 -4.84019e-27)
(51.815421 0.56993934 -1.9535875e-19)
(51.800127 0.5282263 -3.7489403e-22)
(51.786082 0.48595619 7.3523719e-22)
(51.773269 0.44303385 1.8438739e-19)
(51.761688 0.39954914 1.4421815e-27)
(51.751325 0.3553072 -1.7763907e-19)
(51.74225 0.31051989 1.6993804e-22)
(51.734383 0.26484736 1.7046553e-19)
(51.727895 0.21862716 0)
(51.722598 0.17141098 -8.0106824e-23)
(51.718929 0.12354432 7.8547472e-23)
(51.716373 0.074792853 0)
(51.715794 0.024845753 -1.5449491e-19)
(52.906572 -3.4572292 0)
(53.279922 -3.2549059 0)
(53.632127 -3.0529952 0)
(53.96502 -2.8515561 -1.8419621e-20)
(54.280042 -2.6506719 2.2163414e-20)
(54.578332 -2.4504304 -4.2686047e-21)
(54.860788 -2.2509304 -4.113971e-21)
(55.128107 -2.0522882 3.5695956e-20)
(55.380834 -1.8546389 -1.9131158e-20)
(55.619383 -1.6581378 -1.1081017e-20)
(55.844072 -1.4629599 1.0700957e-20)
(56.055136 -1.2692989 -2.7580266e-20)
(56.252753 -1.0773666 6.6675774e-21)
(56.437053 -0.8873907 2.2581818e-20)
(56.608128 -0.69961378 -1.2494287e-20)
(56.766048 -0.51429116 9.079644e-21)
(56.910859 -0.33168957 -1.1739985e-20)
(57.042595 -0.15208569 5.6963351e-21)
(57.161279 0.024235041 -2.7660178e-21)
(57.266927 0.19697898 1.8823246e-20)
(57.359544 0.36584406 -1.8314585e-20)
(57.439132 0.53052284 -4.077404e-20)
(57.505689 0.69070413 1.9879184e-20)
(57.559203 0.84607037 -1.9408453e-20)
(57.599649 0.99629219 5.3394624e-25)
(57.626993 1.1410227 0)
(57.641185 1.2799345 0)
(57.642044 1.4126366 2.2372822e-21)
(57.629501 1.5384826 -2.2024024e-21)
(57.603553 1.6575276 -2.1746056e-21)
(57.563981 1.7690213 1.9363464e-20)
(57.510476 1.872451 1.4942939e-20)
(57.442761 1.9672417 2.1245953e-21)
(57.360497 2.0527261 -2.7428032e-25)
(57.263266 2.1281605 6.810826e-20)
(57.150566 2.192713 3.4304392e-20)
(57.021784 2.2454096 -3.2558779e-20)
(56.876292 2.2851292 -2.2097354e-21)
(56.713323 2.3109189 0)
(56.52921 2.3231509 3.5769973e-20)
(56.324888 2.3113303 0)
(56.100716 2.2867903 8.1473207e-20)
(55.851145 2.2403623 -4.7007673e-25)
(55.573641 2.1710537 4.5930609e-20)
(55.266842 2.0771742 -4.9198608e-20)
(54.938465 1.96122 0)
(54.620973 1.8425931 -5.5021654e-20)
(54.366665 1.759422 5.9540771e-20)
(54.191721 1.7214023 -6.2777962e-20)
(54.063799 1.705134 5.1544571e-21)
(53.954846 1.6950134 1.154094e-25)
(53.853905 1.6858069 -1.6538749e-21)
(53.757698 1.67578 0)
(53.664882 1.6642175 1.0172776e-19)
(53.574685 1.6513133 -1.5583361e-21)
(53.487312 1.637239 1.5277434e-21)
(53.402786 1.6218268 -9.4372571e-20)
(53.320717 1.6051739 -1.4687966e-21)
(53.24123 1.5874463 1.1601845e-25)
(53.164382 1.5687019 9.0396156e-20)
(53.090119 1.548956 1.4494376e-25)
(53.018423 1.5282352 -8.6939839e-20)
(52.949247 1.5065714 0)
(52.882559 1.4839994 -1.3067373e-21)
(52.818331 1.4605412 -8.0740801e-20)
(52.756509 1.4362187 8.0446441e-20)
(52.697013 1.4110619 0)
(52.639764 1.3851034 -1.2092129e-21)
(52.584719 1.3583659 -2.5215122e-25)
(52.53185 1.3308701 1.1631327e-21)
(52.481113 1.3026402 -4.2127362e-25)
(52.432431 1.2736935 0)
(52.38575 1.2440449 -1.4153081e-19)
(52.34106 1.2137376 1.3877172e-19)
(52.298327 1.1828002 1.3497374e-19)
(52.257451 1.1512289 -1.3128229e-19)
(52.21835 1.1190246 -1.2975087e-19)
(52.181016 1.086221 -9.9415607e-22)
(52.145432 1.052842 1.2480724e-19)
(52.11156 1.0188967 -1.2145e-19)
(52.079361 0.98438838 -1.8757743e-21)
(52.048798 0.94932397 3.6148908e-25)
(52.019815 0.91370492 9.0207667e-22)
(51.992338 0.87752252 -1.1368172e-19)
(51.966297 0.84076678 4.3343701e-22)
(51.941656 0.80343864 0)
(51.918398 0.76554586 0)
(51.896504 0.72707523 -4.185457e-19)
(51.875956 0.68801071 -2.0582543e-19)
(51.856749 0.6483474 2.010532e-19)
(51.838871 0.60807884 -1.9715738e-19)
(51.822281 0.56723206 -3.7835032e-22)
(51.806956 0.52577164 -1.8921519e-19)
(51.79288 0.48374447 1.8627169e-19)
(51.780037 0.44105752 -1.8301275e-19)
(51.76843 0.39779961 -1.7910866e-19)
(51.758041 0.35377813 1.7545726e-19)
(51.748943 0.30920163 1.6817735e-22)
(51.741056 0.26374007 -3.3773116e-19)
(51.734549 0.21772012 0)
(51.729237 0.17071152 -7.927726e-23)
(51.725555 0.1230368 3.8866897e-23)
(51.722993 0.074496524 3.8110699e-23)
(51.7224 0.024735827 -1.5289377e-19)
(52.69838 -3.6262159 -2.0583596e-20)
(53.076076 -3.4230913 0)
(53.432622 -3.2203308 0)
(53.769852 -3.0180032 1.8313404e-20)
(54.089209 -2.8162028 -1.763189e-20)
(54.391833 -2.6150217 0)
(54.67863 -2.4145601 2.0464142e-20)
(54.95031 -2.2149326 -1.9732288e-20)
(55.207424 -2.0162706 1.5232559e-20)
(55.4504 -1.8187235 1.4704678e-20)
(55.679562 -1.6224589 3.5514993e-21)
(55.895156 -1.4276623 1.3729925e-20)
(56.097364 -1.2345361 4.9903468e-25)
(56.286319 -1.0432986 -1.606268e-20)
(56.462119 -0.85418273 0)
(56.62483 -0.66743409 0)
(56.774501 -0.48331002 -2.9238386e-21)
(56.911164 -0.30207807 2.8371109e-21)
(57.034838 -0.12401494 0)
(57.145537 0.05059422 -1.8751652e-20)
(57.243263 0.22145583 -2.6063531e-21)
(57.328014 0.38826805 2.0309017e-20)
(57.39978 0.55072335 0)
(57.458548 0.70850897 -1.9331139e-20)
(57.50429 0.86130224 -3.7791479e-20)
(57.536972 1.0087655 2.0810044e-20)
(57.556547 1.1505515 -2.0404045e-20)
(57.562891 1.2863557 2.2261949e-21)
(57.555842 1.4154931 -2.1903023e-21)
(57.535411 1.537871 0)
(57.501473 1.653022 0)
(57.45372 1.760289 -3.3915199e-20)
(57.391878 1.859151 0)
(57.31564 1.9489628 -2.8819998e-25)
(57.224613 2.0290032 -6.9564246e-20)
(57.118329 2.0984798 -3.1817205e-20)
(56.996215 2.1564665 0)
(56.857622 2.2019201 0)
(56.701738 2.233573 0)
(56.526521 2.2514647 3.6584679e-20)
(56.33026 2.2441785 0)
(56.113285 2.2307522 -3.9868838e-20)
(55.873299 2.1928314 -4.931029e-25)
(55.605563 2.1324313 0)
(55.308038 2.0475934 0)
(54.985042 1.9390243 -3.1963714e-21)
(54.662174 1.8205561 3.3649044e-21)
(54.39127 1.7289539 5.5152546e-20)
(54.201959 1.6844442 1.1022825e-19)
(54.068152 1.6669552 0)
(53.957602 1.6577782 0)
(53.856531 1.6503363 -3.2733426e-21)
(53.760826 1.6418963 3.2088464e-21)
(53.668524 1.6320217 -1.0066604e-19)
(53.578671 1.6206697 0)
(53.49167 1.608037 -1.5118844e-21)
(53.407559 1.5941346 9.6351977e-20)
(53.325783 1.5788376 0)
(53.246538 1.5624761 1.8101247e-19)
(53.169942 1.5450517 1.3975488e-21)
(53.095902 1.5265665 8.7723292e-20)
(53.024414 1.5070521 8.6031838e-20)
(52.955427 1.4865383 8.4376981e-20)
(52.888901 1.465065 8.1462679e-20)
(52.824812 1.4426582 2.5364299e-21)
(52.763114 1.4193387 -1.6045706e-19)
(52.703732 1.3951362 -1.2199999e-21)
(52.646587 1.3700851 -4.627601e-26)
(52.591629 1.3442147 -7.39365e-20)
(52.538834 1.3175466 0)
(52.488159 1.2901054 -1.1292615e-21)
(52.439528 1.2619096 1.1070568e-21)
(52.392887 1.2329735 2.7794396e-19)
(52.348223 1.2033396 -4.0340727e-25)
(52.305509 1.1730408 0)
(52.26465 1.1420769 0)
(52.225559 1.1104487 0)
(52.188224 1.078189 0)
(52.152632 1.0453249 0)
(52.118747 1.0118678 0)
(52.086533 0.97782273 1.1880357e-19)
(52.055951 0.94319822 1.1742529e-19)
(52.026946 0.90799814 -1.785444e-21)
(51.999447 0.87221656 8.75855e-22)
(51.97338 0.83584372 -1.0990089e-19)
(51.948712 0.79887925 0)
(51.925425 0.7613309 4.128739e-22)
(51.903505 0.72318629 6.8162511e-25)
(51.882933 0.68443007 -2.0328961e-19)
(51.863703 0.64505879 5.1760574e-27)
(51.845798 0.60506816 1.9510965e-19)
(51.82918 0.5644874 3.7441926e-22)
(51.813825 0.52328303 1.8798407e-19)
(51.79972 0.48150206 -1.8469675e-19)
(51.78685 0.43905356 1.8075853e-19)
(51.775218 0.39602548 3.5466851e-19)
(51.764805 0.35222753 -3.3945968e-22)
(51.755685 0.30786477 1.6642968e-22)
(51.747778 0.26261702 1.6711098e-19)
(51.741254 0.21680021 0)
(51.735928 0.17000198 1.6067191e-19)
(51.732233 0.12252216 0)
(51.729665 0.074195749 0)
(51.72906 0.024624594 1.5130449e-19)
(52.487079 -3.7894585 4.0887502e-20)
(52.869113 -3.585831 1.9659845e-20)
(53.230015 -3.3825031 2.3641867e-20)
(53.571609 -3.1795605 -4.5505165e-21)
(53.895334 -2.9771047 1.3147732e-20)
(54.20233 -2.7752312 -1.2668171e-20)
(54.493507 -2.5740421 -2.035116e-20)
(54.769584 -2.3736517 -5.6520878e-25)
(55.031121 -2.1741887 -2.6520482e-20)
(55.278555 -1.975798 1.463333e-20)
(55.512219 -1.7786409 1.4137694e-20)
(55.732366 -1.5828957 -1.025e-20)
(55.939182 -1.3887566 -3.3045473e-21)
(56.132807 -1.1964334 3.1988635e-21)
(56.31334 -1.0061498 -3.097636e-21)
(56.480849 -0.81814269 -1.2009462e-20)
(56.635383 -0.63266051 0)
(56.776971 -0.44996225 2.8261199e-21)
(56.905632 -0.2703164 -2.4703762e-20)
(57.021376 -0.094000189 -2.1346886e-20)
(57.124205 0.07870065 0)
(57.214111 0.24749206 2.0228995e-20)
(57.291083 0.41207104 -2.4654334e-21)
(57.3551 0.57212797 2.1656491e-20)
(57.406135 0.72734563 2.3513839e-21)
(57.444152 0.87739391 -2.0715656e-20)
(57.469102 1.0219248 3.6101577e-20)
(57.480908 1.1605964 0)
(57.479373 1.2930131 0)
(57.464466 1.4185413 1.5039006e-20)
(57.436136 1.5371883 2.1239657e-21)
(57.394122 1.6481551 1.6838937e-20)
(57.338136 1.7509408 -1.673634e-20)
(57.267896 1.844932 -3.0195469e-25)
(57.183041 1.9294318 3.5498105e-20)
(57.083132 2.0036706 -2.0993143e-21)
(56.967635 2.0667679 0)
(56.835904 2.1177383 -3.4425848e-20)
(56.687154 2.1553326 0)
(56.52041 2.1788407 -3.6130845e-20)
(56.331873 2.1853024 3.5115296e-20)
(56.122569 2.1733483 4.1482092e-20)
(55.892006 2.1435689 3.5955363e-20)
(55.634034 2.0917161 5.451125e-21)
(55.346187 2.0159141 -2.9110415e-21)
(55.030201 1.9155143 0)
(54.705136 1.7995096 5.5910168e-20)
(54.419347 1.7007656 -1.1183096e-19)
(54.213983 1.648532 -5.4405788e-20)
(54.07269 1.6289042 0)
(53.959966 1.6203348 0)
(53.858474 1.6141068 3.2389895e-21)
(53.763172 1.6086084 2.0005978e-25)
(53.671639 1.5999778 -1.0272662e-19)
(53.582199 1.5894122 -9.7657972e-20)
(53.49553 1.5788233 -9.5745973e-20)
(53.411941 1.5662261 1.4668692e-21)
(53.330461 1.5522945 9.0611984e-20)
(53.251462 1.5373 -9.0263893e-20)
(53.175155 1.5212071 -8.333647e-26)
(53.101366 1.5039873 8.5448104e-20)
(53.030112 1.4856865 1.3301288e-21)
(52.961338 1.4663285 -8.349273e-20)
(52.894999 1.4459592 -8.3168127e-20)
(52.831073 1.424609 -8.0315302e-20)
(52.76952 1.4022984 1.2309603e-21)
(52.710271 1.3790561 0)
(52.653245 1.3549191 -7.6961658e-20)
(52.598392 1.3299211 7.4323092e-20)
(52.545686 1.3040858 1.1389547e-21)
(52.495088 1.2774386 -3.8568822e-25)
(52.446524 1.2499992 1.4022333e-19)
(52.399936 1.2217816 -3.8997711e-25)
(52.355311 1.192827 -1.3484991e-19)
(52.312627 1.1631724 -1.0327784e-21)
(52.271795 1.1328213 1.0123933e-21)
(52.232724 1.1017746 9.9275061e-22)
(52.195397 1.0700643 -9.7360376e-22)
(52.159805 1.0377202 1.2222604e-19)
(52.125916 1.0047562 0)
(52.093693 0.97117905 -2.3513295e-19)
(52.063099 0.93699904 0)
(52.034078 0.90222217 -8.8343151e-22)
(52.006561 0.86684534 2.2352574e-19)
(51.980475 0.83085914 -8.4964525e-22)
(51.955784 0.79426197 -4.1662381e-22)
(51.932474 0.7570614 4.0856427e-22)
(51.910533 0.719246 2.0514114e-19)
(51.889941 0.68080136 6.551784e-25)
(51.870689 0.64172556 0)
(51.852761 0.60201645 0)
(51.836117 0.56170525 0)
(51.820735 0.52076039 1.8602334e-19)
(51.806603 0.47922889 3.5627947e-22)
(51.793707 0.43702191 -3.4936023e-22)
(51.782051 0.39422666 -1.7539961e-19)
(51.771616 0.35065531 0)
(51.762476 0.30650926 0)
(51.75455 0.26147816 1.6536769e-19)
(51.74801 0.21586739 1.6215108e-19)
(51.742672 0.16928231 -1.5899667e-19)
(51.738963 0.12200036 0)
(51.73639 0.073890505 0)
(51.735772 0.024512042 -1.4972529e-19)
(52.272931 -3.9466766 -2.0295975e-20)
(52.659275 -3.7428647 -1.9521839e-20)
(53.024534 -3.539269 1.9984976e-24)
(53.370505 -3.3359978 0)
(53.698614 -3.1331582 -1.7420032e-20)
(54.010003 -2.9308498 3.7774118e-20)
(54.305584 -2.7291776 -2.0234421e-20)
(54.586082 -2.5282566 -1.1712228e-20)
(54.852066 -2.3282138 1.1304145e-20)
(55.103978 -2.1291906 1.1381655e-24)
(55.342161 -1.9313435 -1.0548581e-20)
(55.566873 -1.7348443 1.0199396e-20)
(55.778308 -1.5398802 1.3156862e-20)
(55.976608 -1.3466531 0)
(56.161876 -1.1553787 3.084162e-21)
(56.334182 -0.96628556 5.977875e-21)
(56.493573 -0.779614 1.1596569e-20)
(56.64008 -0.59561496 -4.0122569e-25)
(56.77372 -0.41454923 2.7321214e-21)
(56.8945 -0.23668662 2.1257454e-20)
(57.002419 -0.062305578 -2.5856818e-21)
(57.097468 0.10830712 -4.0289677e-20)
(57.179634 0.27485524 2.4547528e-21)
(57.248892 0.43703279 2.3961821e-21)
(57.305213 0.59452613 3.2780015e-20)
(57.348559 0.74701142 2.2910551e-21)
(57.378881 0.89414708 -1.7963394e-20)
(57.396114 1.0355779 -1.7634733e-20)
(57.400104 1.1709988 0)
(57.390735 1.2996707 -1.7084822e-20)
(57.367995 1.4215985 0)
(57.331698 1.5361386 -1.463184e-20)
(57.28155 1.6427001 1.4532473e-20)
(57.217286 1.7407183 1.4480291e-20)
(57.13857 1.8295205 2.0686239e-21)
(57.044994 1.9083622 6.8547027e-20)
(56.936059 1.9763992 -3.5617262e-20)
(56.811149 2.0326937 3.3982983e-20)
(56.669491 2.0761041 0)
(56.510252 2.1055196 2.2218788e-21)
(56.330405 2.1217625 -3.5881877e-20)
(56.129381 2.1134285 -3.8251329e-20)
(55.907272 2.0922822 -2.510269e-21)
(55.65897 2.0489284 2.6579762e-21)
(55.38104 1.9821309 -2.8336636e-21)
(55.073317 1.8904034 0)
(54.749038 1.7788765 -5.1373854e-20)
(54.450853 1.6748833 -2.9295425e-25)
(54.228288 1.6140162 -5.3672635e-20)
(54.077665 1.5911532 0)
(53.961998 1.5828761 0)
(53.859863 1.5791948 5.1276383e-20)
(53.765734 1.5716197 3.1421786e-21)
(53.67456 1.5600559 9.239439e-20)
(53.584649 1.5583974 4.9290002e-26)
(53.498783 1.5485771 1.8652451e-19)
(53.415778 1.5379139 -9.4344328e-20)
(53.334631 1.5254906 -8.9661652e-20)
(53.255961 1.5119279 0)
(53.180006 1.4971815 -1.7380478e-19)
(53.106498 1.4812282 -8.5893109e-20)
(53.035507 1.4641465 -1.3161555e-21)
(52.966969 1.4459494 0)
(52.900842 1.4266889 0)
(52.837104 1.4064001 7.9471179e-20)
(52.775717 1.3851034 7.7944606e-20)
(52.716619 1.3628267 0)
(52.659732 1.3396087 7.6152722e-20)
(52.605001 1.3154877 -7.584035e-20)
(52.552402 1.2904901 2.2540229e-21)
(52.501897 1.2646417 -1.4368985e-19)
(52.453413 1.2379637 -1.3766798e-19)
(52.406892 1.2104702 -3.7501312e-25)
(52.36232 1.1822008 0)
(52.319678 1.1531958 1.3081722e-19)
(52.278883 1.1234627 -1.0018785e-21)
(52.239842 1.0930029 9.8236442e-22)
(52.202534 1.0618473 0)
(52.166951 1.0300282 -3.7112771e-25)
(52.133065 0.99756202 9.2674454e-22)
(52.100841 0.96445756 -1.8174131e-21)
(52.07024 0.93072658 8.9136615e-22)
(52.041209 0.89637715 -1.1189596e-19)
(52.01368 0.86140896 -1.0888002e-19)
(51.987579 0.82581308 -1.681539e-21)
(51.962871 0.7895868 4.1225319e-22)
(51.939543 0.7527373 4.0429146e-22)
(51.917585 0.71525424 0)
(51.896976 0.67712445 1.9906675e-19)
(51.877708 0.63834758 3.8127483e-22)
(51.859759 0.59892361 -3.7388252e-22)
(51.843092 0.55888552 1.8808442e-19)
(51.827685 0.51820365 -1.8479666e-19)
(51.813528 0.47692494 3.5254812e-22)
(51.800607 0.43496252 -1.7734703e-19)
(51.788931 0.39240311 3.3899062e-22)
(51.778475 0.34906137 0)
(51.769315 0.30513502 0)
(51.761373 0.26032343 -3.2727494e-19)
(51.754817 0.21492164 -7.8867514e-23)
(51.749466 0.16855247 1.5364493e-22)
(51.745745 0.12147136 -7.5326906e-23)
(51.743168 0.073580766 -1.5130381e-19)
(51.742537 0.024398164 1.4819436e-19)
(51.642478 -4.3012772 -2.0940551e-20)
(52.05624 -4.097626 0)
(52.446847 -3.8939625 0)
(52.816437 -3.6904099 2.0330988e-24)
(53.166773 -3.4871047 0)
(53.499265 -3.28416 1.7307395e-20)
(53.81505 -3.0816818 1.6066745e-24)
(54.115044 -2.8797788 1.6087504e-20)
(54.399973 -2.6785673 1.5522931e-20)
(54.670413 -2.4781739 -3.7469358e-21)
(54.926814 -2.2787374 -1.0856832e-20)
(55.169522 -2.0804101 0)
(55.398804 -1.8833587 0)
(55.614859 -1.6877641 -2.6181032e-20)
(55.817833 -1.4938213 0)
(56.00783 -1.3017388 -3.0695497e-21)
(56.184925 -1.1117375 -4.171657e-25)
(56.349165 -0.92405024 5.7727501e-21)
(56.500579 -0.73892046 3.9089061e-25)
(56.639184 -0.55660175 1.6327824e-20)
(56.764985 -0.37735693 2.6455243e-21)
(56.877979 -0.20145767 0)
(56.978156 -0.029184282 3.7607564e-20)
(57.0655 0.13917395 2.4440501e-21)
(57.139985 0.30331691 0)
(57.201579 0.46293403 6.3454507e-25)
(57.250242 0.61770577 -2.052424e-20)
(57.285926 0.76729769 -2.7885091e-25)
(57.308568 0.91135391 1.7542494e-20)
(57.318066 1.0495786 -1.5087739e-20)
(57.314247 1.1813177 0)
(57.297086 1.3063433 0)
(57.266474 1.4243155 1.8681791e-20)
(57.222146 1.534507 -1.8543232e-20)
(57.16383 1.6364019 -2.0515417e-21)
(57.091219 1.7293519 2.0496355e-21)
(57.003936 1.8126368 -3.4952687e-20)
(56.901513 1.8854447 3.5214045e-20)
(56.783371 1.9468695 -3.1458125e-20)
(56.648751 1.995822 -2.1348867e-21)
(56.496784 2.0309833 2.1868954e-21)
(56.325814 2.0519326 -2.2552419e-21)
(56.132968 2.0494459 3.598773e-20)
(55.918572 2.0387733 -4.1737011e-20)
(55.68028 2.0041308 2.5932534e-21)
(55.412453 1.9462487 -4.4151946e-20)
(55.113919 1.8634746 0)
(54.793061 1.7580592 -5.0110585e-20)
(54.485528 1.6511305 1.0442935e-19)
(54.245372 1.5812552 1.0251038e-19)
(54.083387 1.5538405 -4.9250895e-20)
(53.963643 1.5452687 0)
(53.861666 1.5420465 -5.0733633e-20)
(53.767889 1.5279134 2.9159313e-21)
(53.675092 1.534859 -2.771531e-21)
(53.586072 1.5295561 1.912386e-19)
(53.501626 1.522507 1.1177461e-25)
(53.419336 1.5119438 2.8724151e-21)
(53.33863 1.4987905 1.5210901e-25)
(53.260086 1.486402 8.6996855e-20)
(53.184494 1.4729858 1.0516496e-25)
(53.111287 1.4582966 -1.3279243e-21)
(53.04059 1.4424389 1.3023586e-21)
(52.972313 1.4254067 -8.3021729e-20)
(52.906421 1.4072596 0)
(52.842897 1.3880363 0)
(52.781699 1.3677577 0)
(52.722772 1.3464513 -7.4459946e-20)
(52.666041 1.3241572 -2.3184473e-21)
(52.611451 1.3009175 7.3903561e-20)
(52.558976 1.2767618 -1.1151543e-21)
(52.50858 1.2517169 -3.7433793e-26)
(52.460192 1.2258049 -3.5314124e-26)
(52.413753 1.1990408 -1.3359342e-19)
(52.369247 1.171462 -1.320391e-19)
(52.326658 1.1431118 -1.2945032e-19)
(52.285911 1.1140017 0)
(52.246911 1.084134 0)
(52.209631 1.0535384 0)
(52.174066 1.0222492 -2.3936271e-19)
(52.140192 0.99028566 9.1702809e-22)
(52.107973 0.9576585 1.1421877e-19)
(52.077373 0.92438105 1.1289942e-19)
(52.048338 0.89046327 1.1072274e-19)
(52.020802 0.85590757 0)
(51.994692 0.8207056 0)
(51.969972 0.78485372 1.0443208e-19)
(51.946631 0.74835853 0)
(51.92466 0.71121093 -3.92317e-22)
(51.90404 0.67339924 3.8471813e-22)
(51.884758 0.63492476 0)
(51.866791 0.59578957 -1.8904943e-19)
(51.850104 0.55602818 -1.8611064e-19)
(51.834674 0.51561278 0)
(51.820494 0.47459017 -1.7861028e-19)
(51.807552 0.43287537 5.7275227e-25)
(51.795856 0.39055478 -1.7157371e-19)
(51.785381 0.34744568 -1.6445673e-22)
(51.776204 0.303742 -1.6513016e-19)
(51.768244 0.25915278 3.2383871e-19)
(51.761675 0.2139629 -3.1738433e-19)
(51.756312 0.16781241 -1.5203132e-22)
(51.752579 0.12093513 1.5264946e-19)
(51.749997 0.073266507 3.7028891e-23)
(51.749354 0.02428295 1.465656e-19)
(51.419523 -4.4451583 5.1912558e-21)
(51.837342 -4.2421214 1.9981064e-20)
(52.232133 -4.0389262 0)
(52.606005 -3.8357319 -1.3884539e-20)
(52.960669 -3.6326902 -4.4582223e-21)
(53.297518 -3.4299235 -1.7185656e-20)
(53.617686 -3.2275455 -3.7283928e-20)
(53.922082 -3.0256693 3.9958546e-21)
(54.211436 -2.8244135 1.5427669e-20)
(54.486328 -2.6239046 1.4897264e-20)
(54.747211 -2.4242796 1.4392697e-20)
(54.994441 -2.2256879 -3.4782748e-21)
(55.228286 -2.0282916 6.7278226e-21)
(55.448952 -1.8322663 6.5102781e-21)
(55.656588 -1.6378011 -9.4571132e-21)
(55.851303 -1.4450978 3.0542556e-21)
(56.033172 -1.2543705 -2.9606377e-21)
(56.202243 -1.0658451 -1.1489088e-20)
(56.358547 -0.8797583 0)
(56.502098 -0.69635683 0)
(56.6329 -0.51589702 2.3704064e-20)
(56.75095 -0.33864422 1.7939678e-20)
(56.856234 -0.16487268 -3.9934039e-20)
(56.948735 0.0051342503 0)
(57.028427 0.17108313 0)
(57.095276 0.33266836 -1.8558677e-20)
(57.149242 0.48957312 -6.0462128e-25)
(57.190274 0.64146774 0)
(57.218312 0.78800225 -2.1814482e-21)
(57.233285 0.92883155 1.9295343e-20)
(57.235023 1.0635557 0)
(57.223436 1.191563 -2.0830575e-21)
(57.19848 1.3127628 2.0611524e-21)
(57.159947 1.4264477 1.4313493e-20)
(57.107552 1.5320663 2.0344187e-21)
(57.041013 1.6290086 -2.0312194e-21)
(56.95998 1.716577 2.0353383e-21)
(56.86402 1.7939897 3.4823209e-20)
(56.752588 1.8603712 2.899734e-20)
(56.624974 1.9146941 -1.5529211e-25)
(56.480356 1.9557363 -1.505451e-25)
(56.317687 1.9825618 -1.4911309e-25)
(56.133015 1.9944913 -6.7915842e-20)
(55.926707 1.9833395 -6.1641702e-25)
(55.697988 1.9575786 -2.5317847e-21)
(55.440315 1.908314 4.8389553e-20)
(55.151618 1.8345959 -2.8683092e-21)
(54.836395 1.7365151 4.5788534e-20)
(54.522869 1.6291427 -4.7945861e-20)
(54.265664 1.5505811 -4.8851943e-20)
(54.090322 1.517149 -3.2438932e-21)
(53.96547 1.5075701 5.0819838e-20)
(53.863434 1.5009772 0)
(53.768436 1.4980166 0)
(53.675242 1.4963388 -9.3405923e-20)
(53.588039 1.487778 -1.8922549e-19)
(53.504444 1.4808752 1.0160493e-25)
(53.422451 1.4708944 8.5386872e-20)
(53.341438 1.4708041 0)
(53.263713 1.4606087 -1.7489288e-19)
(53.188631 1.4486273 8.7091726e-20)
(53.115724 1.4351957 -2.6279041e-21)
(53.045351 1.4205703 1.2885537e-21)
(52.977359 1.4047059 8.2145057e-20)
(52.911729 1.387677 7.8087024e-20)
(52.848445 1.3695231 -1.2156881e-21)
(52.78746 1.3502657 -7.3922985e-20)
(52.728723 1.3299335 7.2503412e-20)
(52.672167 1.3085678 1.1469435e-21)
(52.617735 1.2862136 -7.1997307e-20)
(52.565402 1.2629038 0)
(52.515131 1.2386663 1.0821272e-21)
(52.466855 1.2135247 -1.0612347e-21)
(52.420513 1.1874947 -1.3322301e-19)
(52.376087 1.1606117 2.6129621e-19)
(52.333564 1.1329214 0)
(52.292876 1.1044393 9.8101739e-22)
(52.253927 1.0751687 1.2215895e-19)
(52.216685 1.0451382 9.4333889e-22)
(52.181148 1.0143838 -1.8499995e-21)
(52.147293 0.98292751 9.0736076e-22)
(52.115088 0.95078221 -1.139067e-19)
(52.084495 0.91796272 -8.7310452e-22)
(52.055463 0.88448076 1.1041321e-19)
(52.027926 0.85034134 8.3940913e-22)
(52.001813 0.81553681 -1.6463863e-21)
(51.977087 0.78006277 -1.0333314e-19)
(51.953737 0.74392508 3.9583121e-22)
(51.931759 0.70711602 3.8818052e-22)
(51.91113 0.66962568 -1.9490271e-19)
(51.891838 0.63145705 0)
(51.873857 0.5926143 3.6667854e-22)
(51.857152 0.55313321 4.1514812e-27)
(51.841703 0.51298778 -3.5200298e-22)
(51.827502 0.47222458 3.5380387e-19)
(51.814539 0.43076047 3.4625861e-19)
(51.802825 0.38868164 3.3986543e-19)
(51.792334 0.34580817 1.6663022e-19)
(51.78314 0.30233017 1.633913e-19)
(51.775166 0.25796617 -1.60214e-19)
(51.768583 0.21299113 1.5694403e-19)
(51.76321 0.16706209 1.5419051e-19)
(51.759465 0.12039164 -1.5104171e-19)
(51.756879 0.072947714 2.9620254e-19)
(51.756223 0.024166395 -1.4505691e-19)
(51.194863 -4.5820651 -2.5729807e-20)
(51.616586 -4.3799772 -1.4856429e-20)
(52.015467 -4.1775796 0)
(52.393538 -3.9750603 2.2962185e-20)
(52.752471 -3.7725824 -1.7699231e-20)
(53.093635 -3.5702807 -1.706135e-20)
(53.418149 -3.3682769 8.2260861e-21)
(53.726921 -3.1666896 3.9687249e-21)
(54.020677 -2.9656399 -3.4483467e-20)
(54.300001 -2.7652551 -2.5904402e-20)
(54.565349 -2.5656714 -1.4303537e-20)
(54.817081 -2.3670355 1.0372804e-20)
(55.055471 -2.1695062 3.3444528e-21)
(55.280728 -1.9732546 -1.2949788e-20)
(55.493006 -1.7784644 1.2540385e-20)
(55.692416 -1.5853315 -1.519102e-20)
(55.879036 -1.3940642 -3.9339946e-25)
(56.052914 -1.2048818 1.714872e-20)
(56.214082 -1.0180149 1.9424624e-20)
(56.362554 -0.83370386 0)
(56.498332 -0.65219899 -2.3590792e-20)
(56.621411 -0.47375976 6.2663557e-25)
(56.731776 -0.29865474 2.2356961e-20)
(56.829409 -0.12716181 -1.6952045e-20)
(56.914283 0.040431191 1.654282e-20)
(56.986365 0.20382501 -1.8469714e-20)
(57.045613 0.36270708 1.8065115e-20)
(57.091975 0.51675091 -1.7694608e-20)
(57.125395 0.66561364 0)
(57.145805 0.80893695 -2.1319792e-21)
(57.153085 0.94638678 2.0979857e-21)
(57.147079 1.077333 1.8624952e-20)
(57.127754 1.2015648 -4.0935186e-21)
(57.094979 1.318604 4.0589305e-21)
(57.048478 1.4277942 1.9399389e-25)
(56.987974 1.5285725 -2.0127785e-21)
(56.913149 1.6202647 3.2244732e-20)
(56.8236 1.7021175 -3.241516e-20)
(56.718818 1.7732866 -3.2737742e-20)
(56.598143 1.8328 3.3233409e-20)
(56.460767 1.879525 0)
(56.305665 1.9121959 0)
(56.13021 1.9307219 3.5802929e-20)
(55.932345 1.9229633 -5.6623798e-25)
(55.711656 1.908907 -3.9566805e-20)
(55.464497 1.8683532 0)
(55.186108 1.8037012 -4.467176e-20)
(54.878298 1.7137939 -4.7578606e-20)
(54.562174 1.6084073 3.1270063e-21)
(54.28944 1.5222617 -3.2042115e-21)
(54.098937 1.4815079 1.025026e-19)
(53.968467 1.4706906 -5.3399578e-20)
(53.864634 1.4553121 4.6628461e-20)
(53.768504 1.4629585 2.9576909e-21)
(53.676124 1.4549142 1.7936527e-19)
(53.58961 1.4558089 1.8723121e-19)
(53.505911 1.4462476 -1.7243389e-19)
(53.422954 1.4502006 0)
(53.343243 1.4443775 -2.7574744e-21)
(53.266904 1.434602 2.7037294e-21)
(53.192299 1.4241016 -8.7497206e-20)
(53.119767 1.4119404 2.6000623e-21)
(53.049775 1.3985523 0)
(52.982097 1.3838538 0)
(52.916755 1.3679473 -1.5697275e-19)
(52.85374 1.350866 0)
(52.792992 1.3326318 1.1140701e-25)
(52.734466 1.313277 7.4048776e-20)
(52.678103 1.2928436 1.1348267e-21)
(52.623848 1.2713788 -1.1130077e-21)
(52.571673 1.2489188 -1.3973108e-19)
(52.521545 1.2254926 0)
(52.473397 1.2011251 0)
(52.427167 1.1758337 1.3181195e-19)
(52.382835 1.1496515 -1.292668e-19)
(52.34039 1.1226258 1.2674294e-19)
(52.299772 1.0947763 -1.2424778e-19)
(52.260886 1.0661077 -2.4364767e-19)
(52.223693 1.0366473 0)
(52.188193 1.0064324 1.1625789e-19)
(52.154367 0.97548802 8.9778567e-22)
(52.122183 0.94382908 1.1358539e-19)
(52.091605 0.91147192 -1.1139629e-19)
(52.062582 0.87842991 -1.0840112e-19)
(52.035049 0.8447105 0)
(52.008939 0.81030688 0)
(51.984212 0.775214 -7.9877033e-22)
(51.96086 0.73943697 1.0104819e-19)
(51.938878 0.70296951 -3.8408622e-22)