/*--------------------------------*- C++ -*----------------------------------*\
| =========                 |                                                 |
| \\      /  F ield         | OpenFOAM: The Open Source CFD Toolbox           |
|  \\    /   O peration     | Version:  2406                                  |
|   \\  /    A nd           | Website:  www.openfoam.com                      |
|    \\/     M anipulation  |                                                 |
\*---------------------------------------------------------------------------*/
FoamFile
{
    version     2.0;
    format      ascii;
    arch        "LSB;label=32;scalar=64";
    class       volScalarField;
    location    "0.015";
    object      nut;
}
// * * * * * * * * * * * * * * * * * * * * * * * * * * * * * * * * * * * * * //

dimensions      [0 2 -1 0 0 0 0];

internalField   nonuniform List<scalar> 
23203
(
0.10507164
0.10951396
0.11401763
0.1185815
0.12320417
0.12788375
0.13261742
0.13740155
0.14223089
0.14709869
0.15199685
0.15691573
0.16184402
0.16676869
0.17167494
0.17654614
0.18136369
0.18610695
0.19075314
0.1952773
0.19965227
0.20384866
0.20783495
0.2115775
0.21504066
0.21818696
0.22097728
0.22337106
0.22532665
0.22680163
0.22775316
0.22813847
0.2279153
0.22704243
0.2254802
0.22319112
0.22014041
0.21629662
0.21163217
0.20612395
0.19975378
0.19250929
0.18438341
0.17537667
0.16549743
0.15475893
0.14318261
0.13079837
0.11764559
0.10377589
0.089257938
0.074188207
0.058716366
0.043110485
0.027941252
0.014804924
0.0071486913
0.0048549955
0.0044343868
0.0043562762
0.0043277949
0.0043094576
0.0042949788
0.0042856902
0.0042821204
0.0042758821
0.0042629763
0.0042526687
0.0042602249
0.0043096481
0.0043840788
0.0044184133
0.0044122647
0.0043954845
0.0043774492
0.0043604185
0.0043443274
0.0043287919
0.0043141024
0.0043002651
0.0042869522
0.0042740672
0.0042618614
0.004250241
0.0042391134
0.0042284666
0.0042182842
0.0042086264
0.0041993953
0.0041907007
0.004182587
0.0041749783
0.0041678998
0.0041613414
0.0041551068
0.0041493072
0.0041440459
0.0041393643
0.0041353306
0.0041317812
0.0041287558
0.0041258636
0.004123211
0.004121026
0.0041190253
0.0041173696
0.0041155812
0.0041167123
0.10817826
0.11258264
0.11704686
0.1215698
0.12614939
0.13078317
0.13546795
0.14019973
0.14497306
0.14978061
0.15461371
0.15946218
0.16431424
0.16915642
0.17397352
0.17874871
0.18346319
0.18809613
0.19262457
0.19702343
0.20126547
0.20532129
0.2091594
0.21274627
0.21604646
0.21902276
0.2216364
0.22384729
0.22561433
0.22689571
0.22764935
0.22783329
0.22740617
0.22632777
0.22455949
0.22206497
0.2188106
0.21476617
0.20990538
0.20420639
0.19765234
0.19023231
0.18194033
0.17277793
0.16275499
0.15188672
0.14019538
0.1277127
0.11448011
0.1005522
0.086002303
0.070935048
0.055516074
0.040047864
0.025188768
0.012862609
0.0064182461
0.004704035
0.0044013584
0.004341786
0.0043166747
0.0042998227
0.0042864598
0.0042787412
0.0042759916
0.0042691971
0.004256383
0.0042478007
0.0042599682
0.0043157686
0.0043889406
0.0044172632
0.0044089942
0.0043919842
0.0043741188
0.0043573307
0.0043414516
0.0043260907
0.0043115769
0.0042978744
0.0042846628
0.0042718789
0.0042597571
0.004248212
0.0042371606
0.0042265961
0.0042165088
0.0042069462
0.0041978073
0.0041892028
0.0041811713
0.0041736345
0.0041665994
0.0041600809
0.0041538905
0.004148132
0.0041429196
0.0041382867
0.0041342946
0.0041307781
0.0041277805
0.0041249166
0.0041223
0.0041201523
0.0041181991
0.0041166106
0.0041149115
0.0041160983
0.11143762
0.1157963
0.12021348
0.12468772
0.12921645
0.13379667
0.13842474
0.14309613
0.14780492
0.15254339
0.15730237
0.16207119
0.16683764
0.17158783
0.17630622
0.18097567
0.18557714
0.19008961
0.19448998
0.19875309
0.20285165
0.2067563
0.21043564
0.21385633
0.21698318
0.21977933
0.22220644
0.22422496
0.2257944
0.22687367
0.2274215
0.22739682
0.22675923
0.22546955
0.2234903
0.22078626
0.21732504
0.21307764
0.20801901
0.20212858
0.19539078
0.18779597
0.17933913
0.17002307
0.15985888
0.14886325
0.13705944
0.12448075
0.11117048
0.097185985
0.08260508
0.067540616
0.052175543
0.036853245
0.022359637
0.011028027
0.005821176
0.004586108
0.0043742233
0.0043281734
0.004305745
0.0042902654
0.0042781125
0.0042720327
0.0042698447
0.0042623405
0.0042498763
0.0042434489
0.0042610502
0.0043230339
0.0043934126
0.0044156375
0.0044055261
0.004388386
0.0043707197
0.0043541786
0.0043385112
0.0043233304
0.0043089972
0.0042954303
0.0042823201
0.0042696412
0.0042576054
0.0042461363
0.0042351624
0.004224682
0.0042146936
0.0042052294
0.0041961864
0.0041876764
0.0041797297
0.0041722687
0.0041652799
0.0041588015
0.0041526576
0.0041469419
0.0041417794
0.004137196
0.0041332462
0.0041297633
0.0041267945
0.0041239597
0.0041213803
0.0041192714
0.0041173672
0.0041158478
0.0041142401
0.0041154835
0.11483899
0.11914503
0.12350833
0.12792706
0.13239816
0.1369181
0.14148271
0.14608691
0.15072425
0.15538664
0.16006446
0.16474659
0.16942038
0.17407154
0.1786842
0.18324088
0.18772228
0.19210719
0.19637238
0.2004926
0.20444053
0.20818689
0.21170037
0.21494785
0.2178944
0.22050356
0.22273743
0.22455704
0.22592253
0.22679356
0.22712969
0.22689075
0.22603737
0.2245314
0.22233649
0.2194186
0.21574655
0.21129256
0.20603286
0.19994814
0.1930241
0.18525234
0.1766287
0.1671575
0.15685108
0.14572702
0.13380988
0.12113444
0.10774578
0.093704038
0.079091769
0.064031077
0.048725899
0.033572796
0.019543085
0.0094064622
0.005363264
0.0044983896
0.0043514159
0.0043150556
0.0042949194
0.004280732
0.0042699075
0.0042654488
0.0042635506
0.0042552946
0.004243461
0.0042396181
0.0042633197
0.0043308663
0.0043971264
0.0044135484
0.0044018875
0.0043847024
0.00436726
0.0043509687
0.0043355128
0.0043205173
0.0043063681
0.0042929379
0.0042799299
0.0042673591
0.0042554111
0.0042440186
0.0042331233
0.0042227286
0.004212842
0.0042034786
0.0041945348
0.0041861225
0.0041782628
0.0041708808
0.0041639407
0.0041575023
0.0041514066
0.0041457349
0.0041406228
0.0041360889
0.0041321813
0.0041287326
0.0041257931
0.004122988
0.0041204466
0.004118378
0.0041165246
0.0041150766
0.0041135626
0.0041148636
0.11838097
0.1226276
0.12693024
0.13128663
0.13569325
0.14014602
0.14464023
0.14917023
0.15372906
0.1583082
0.16289761
0.16748576
0.17205957
0.17660439
0.181104
0.18554058
0.18989458
0.19414458
0.19826722
0.20223717
0.20602713
0.20960786
0.21294822
0.21601529
0.21877447
0.22118967
0.22322351
0.22483758
0.22599271
0.22664933
0.22676785
0.22630905
0.22523456
0.22350732
0.22109212
0.2179561
0.2140693
0.20940521
0.20394129
0.1976595
0.1905468
0.18259599
0.17380384
0.16417609
0.15372647
0.1424731
0.13044201
0.11766935
0.10420212
0.090103437
0.075461267
0.060408964
0.045177356
0.030234433
0.016813605
0.0080447617
0.00502562
0.0044338594
0.0043319534
0.0043024643
0.0042843302
0.0042713332
0.0042619516
0.0042590029
0.0042571045
0.004248138
0.0042372241
0.0042364581
0.0042668584
0.0043390308
0.0043999961
0.0044110556
0.0043981193
0.0043809575
0.0043637591
0.0043477174
0.0043324701
0.0043176639
0.0043036999
0.0042904062
0.0042775005
0.0042650397
0.0042531808
0.0042418646
0.0042310482
0.00422074
0.0042109575
0.0042016968
0.0041928547
0.0041845431
0.004176772
0.0041694714
0.0041625826
0.004156184
0.0041501378
0.0041445111
0.0041394494
0.004134965
0.0041310994
0.0041276851
0.0041247757
0.0041220008
0.0041194979
0.0041174711
0.0041156705
0.004114296
0.004112878
0.0041142378
0.1220607
0.12624134
0.13047664
0.13476391
0.13909914
0.14347777
0.14789451
0.15234314
0.15681619
0.16130472
0.16579827
0.17028492
0.1747512
0.17918209
0.18356105
0.18786993
0.19208893
0.19619642
0.20016892
0.20398103
0.20760547
0.21101308
0.21417289
0.21705223
0.21961682
0.22183102
0.22365795
0.22505981
0.22599815
0.22643419
0.2263292
0.22564494
0.22434407
0.22239064
0.21975058
0.21639225
0.2122869
0.20740928
0.20173811
0.19525659
0.18795293
0.17982108
0.17085885
0.16107342
0.15047971
0.13909639
0.12695102
0.11408114
0.10053582
0.08638163
0.071713072
0.056677799
0.04154184
0.026871143
0.01425095
0.0069557126
0.0047853963
0.0043862967
0.00431486
0.0042903079
0.0042739669
0.0042621064
0.0042542843
0.0042526525
0.0042504657
0.0042409202
0.0042312292
0.0042341173
0.0042717083
0.0043472764
0.0044019802
0.0044081989
0.0043942411
0.004377158
0.0043602213
0.0043444277
0.0043293854
0.0043147724
0.0043009939
0.0042878361
0.0042750333
0.004262684
0.0042509155
0.0042396752
0.0042289379
0.0042187169
0.0042090407
0.0041998843
0.0041911464
0.0041829381
0.0041752574
0.0041680403
0.0041612053
0.0041548468
0.0041488512
0.0041432705
0.0041382595
0.0041338241
0.0041300003
0.0041266206
0.0041237418
0.0041209976
0.004118534
0.0041165505
0.0041148046
0.0041135059
0.0041121863
0.0041136059
0.12587403
0.12998231
0.1341437
0.13835509
0.14261205
0.14690948
0.15124156
0.15560152
0.15998139
0.16437177
0.16876185
0.17313928
0.17749024
0.1817994
0.18604987
0.19022321
0.19429937
0.19825652
0.20207106
0.20571756
0.20916875
0.21239559
0.21536729
0.21805145
0.22041417
0.22242023
0.22403332
0.22521628
0.22593138
0.22614065
0.22580629
0.22489103
0.22335858
0.22117411
0.21830474
0.21472
0.21039243
0.20529799
0.19941667
0.19273291
0.18523616
0.17692147
0.16778777
0.15784374
0.1471053
0.13559171
0.12333214
0.11036557
0.096743509
0.082536605
0.067847588
0.052842683
0.037834321
0.023525196
0.011934904
0.0061229938
0.0046155626
0.0043505773
0.0042994659
0.0042784772
0.0042637848
0.0042530822
0.0042469139
0.0042463392
0.0042435948
0.0042336859
0.0042255468
0.0042327573
0.0042778609
0.004355334
0.0044030753
0.004405013
0.0043902657
0.0043733061
0.0043566471
0.0043410999
0.0043262581
0.0043118423
0.0042982492
0.0042852268
0.0042725278
0.0042602916
0.0042486148
0.0042374505
0.0042267923
0.0042166595
0.0042070913
0.0041980407
0.0041894096
0.0041813072
0.0041737185
0.004166587
0.0041598087
0.0041534907
0.0041475465
0.0041420132
0.0041370528
0.0041326661
0.0041288836
0.0041255389
0.0041226913
0.0041199784
0.0041175546
0.0041156161
0.0041139271
0.0041127063
0.0041114875
0.004112968
0.12981576
0.13384548
0.1379265
0.14205534
0.14622712
0.15043626
0.15467642
0.1589403
0.16321943
0.167504
0.1717828
0.17604313
0.18027083
0.18445023
0.18856415
0.19259389
0.19651914
0.20031791
0.20396649
0.20743942
0.21070948
0.21374775
0.21652366
0.2190051
0.22115856
0.22294931
0.22434161
0.22529895
0.22578436
0.22576073
0.22519117
0.22403943
0.22227028
0.21985004
0.216747
0.21293192
0.20837857
0.20306418
0.19696999
0.19008166
0.18238987
0.17389073
0.16458444
0.15448112
0.14359762
0.13195381
0.11958057
0.10651852
0.092822021
0.078566804
0.063866098
0.048910513
0.034073954
0.020252081
0.0099337098
0.005511468
0.0044968434
0.0043228595
0.0042852297
0.0042669609
0.0042537361
0.0042442841
0.0042398206
0.0042399971
0.0042364729
0.0042264818
0.0042202668
0.0042325508
0.0042852467
0.0043629328
0.0044033099
0.0044015327
0.0043862042
0.0043694037
0.0043530363
0.0043377339
0.0043230878
0.0043088731
0.0042954646
0.0042825771
0.0042699838
0.004257862
0.0042462786
0.0042351902
0.0042246115
0.0042145678
0.0042051094
0.0041961658
0.0041876441
0.0041796499
0.0041721552
0.0041651107
0.0041583923
0.0041521157
0.0041462236
0.004140739
0.0041358294
0.0041314908
0.0041277491
0.0041244399
0.0041216239
0.004118943
0.0041165596
0.0041146676
0.0041130379
0.0041118972
0.0041107816
0.004112324
0.13387956
0.13782467
0.14181899
0.14585866
0.14993837
0.1540521
0.158193
0.16235328
0.16652402
0.17069499
0.17485458
0.17898977
0.18308607
0.18712751
0.19109664
0.19497452
0.1987406
0.20237277
0.20584721
0.20913845
0.21221936
0.21506114
0.21763347
0.21990458
0.22184135
0.22340958
0.2245741
0.22529912
0.22554844
0.22528582
0.22447532
0.22308171
0.22107086
0.21841024
0.21506931
0.2110201
0.2062376
0.20070031
0.19439071
0.18729569
0.17940714
0.17072216
0.16124242
0.15097947
0.13995088
0.12817733
0.11569148
0.10253592
0.088768423
0.074471157
0.059770943
0.044890529
0.030286167
0.01712369
0.0082897702
0.0050783883
0.0044145896
0.0043005537
0.0042717482
0.0042557055
0.0042438129
0.0042357383
0.0042329597
0.0042335515
0.0042291094
0.0042193605
0.004215505
0.004233671
0.0042937254
0.0043698181
0.0044027341
0.0043977928
0.004382066
0.004365452
0.0043493879
0.0043343291
0.0043198738
0.0043058638
0.0042926388
0.0042798859
0.004267401
0.0042553947
0.0042439062
0.0042328943
0.0042223953
0.004212442
0.0042030949
0.0041942595
0.0041858498
0.0041779661
0.0041705673
0.0041636111
0.0041569558
0.0041507218
0.0041448823
0.004139448
0.0041345891
0.004130298
0.0041265967
0.0041233235
0.0041205395
0.0041178913
0.0041155489
0.004113705
0.004112137
0.0041110788
0.0041100686
0.0041116737
0.13805787
0.14191248
0.14581384
0.14975776
0.15373855
0.15774972
0.16178398
0.1658331
0.16988768
0.17393713
0.17796946
0.18197133
0.18592794
0.18982307
0.19363902
0.1973566
0.20095511
0.20441228
0.20770426
0.21080558
0.21368918
0.21632647
0.21868738
0.22074048
0.22245311
0.22379159
0.22472139
0.22520743
0.22521431
0.22470669
0.2236496
0.22200886
0.21975144
0.21684597
0.21326313
0.20897617
0.20396134
0.19819841
0.19167109
0.18436749
0.17628073
0.16740873
0.15775504
0.14733249
0.13615912
0.12425677
0.11166001
0.098413762
0.084580061
0.070249251
0.055565928
0.040795326
0.026506188
0.014227537
0.0070097557
0.0047821441
0.0043570186
0.004281736
0.0042588044
0.004244692
0.0042340187
0.0042274737
0.0042262673
0.004226921
0.0042215412
0.0042123855
0.0042114097
0.0042362778
0.0043030818
0.0043757721
0.004401411
0.0043938277
0.0043778594
0.0043614524
0.0043457004
0.0043308847
0.0043166155
0.0043028132
0.0042897702
0.0042771518
0.0042647789
0.004252889
0.0042414973
0.0042305627
0.0042201439
0.0042102825
0.0042010479
0.0041923216
0.0041840266
0.0041762554
0.0041689545
0.0041620875
0.0041554987
0.004149309
0.0041435225
0.00413814
0.0041333319
0.0041290876
0.004125426
0.0041221893
0.0041194379
0.0041168232
0.0041145225
0.0041127282
0.0041112246
0.004110251
0.0041093485
0.0041110172
0.14234184
0.14610015
0.14990239
0.15374404
0.15761904
0.1615205
0.16544072
0.16937102
0.17330162
0.17722153
0.18111844
0.18497869
0.18878723
0.19252757
0.19618179
0.19973052
0.20315291
0.20642658
0.20952766
0.21243071
0.2151088
0.21753353
0.21967513
0.22150253
0.22298357
0.22408511
0.22477328
0.22501373
0.22477192
0.22401341
0.22270422
0.22081122
0.21830253
0.21514794
0.21131935
0.20679124
0.20154114
0.19555005
0.18880295
0.18128916
0.17300305
0.16394316
0.15411533
0.14353364
0.1322162
0.12018655
0.10748129
0.094148206
0.080254682
0.0659016
0.051256951
0.036642404
0.022784121
0.011657525
0.0060643484
0.0045826755
0.0043158978
0.0042651579
0.0042462351
0.0042338563
0.0042243901
0.0042195195
0.0042196705
0.0042200271
0.0042138254
0.0042056354
0.0042081643
0.0042404993
0.004313029
0.0043806303
0.0043994083
0.0043896699
0.0043735917
0.0043574058
0.0043419717
0.0043273994
0.0043133124
0.0042997199
0.0042868572
0.0042743737
0.0042621173
0.0042503443
0.0042390512
0.0042281954
0.0042178576
0.0042080895
0.0041989685
0.0041903521
0.0041821744
0.0041745175
0.0041673166
0.0041605394
0.0041540207
0.0041478772
0.0041421439
0.0041368151
0.0041320578
0.0041278595
0.0041242369
0.0041210374
0.0041183189
0.0041157385
0.0041134803
0.0041117372
0.0041103005
0.004109414
0.0041086213
0.0041103544
0.14672123
0.15037751
0.15407451
0.1578074
0.16156977
0.16535437
0.16915311
0.17295691
0.17675562
0.18053791
0.18429115
0.18800141
0.19165338
0.19523034
0.19871421
0.20208544
0.20532306
0.20840465
0.21130631
0.21400269
0.216467
0.21867108
0.22058547
0.22217951
0.22342154
0.224279
0.22471872
0.22470711
0.22421047
0.22319532
0.22162868
0.21947849
0.21671403
0.21330625
0.2092283
0.2044559
0.19896783
0.19274636
0.18577769
0.1780524
0.1695661
0.1603179
0.15031605
0.13957608
0.12811577
0.11596096
0.10315045
0.089735622
0.075790623
0.06143005
0.046852911
0.032456597
0.01919084
0.009494475
0.0053992134
0.0044506235
0.0042854736
0.0042499655
0.0042339743
0.0042231492
0.0042149731
0.00421189
0.0042130919
0.004212813
0.004206031
0.00419921
0.0042059855
0.0042464101
0.0043232199
0.0043842912
0.0043967949
0.0043853492
0.004369269
0.0043533137
0.0043381992
0.0043238714
0.0043099638
0.0042965823
0.0042838983
0.0042715504
0.0042594157
0.0042477601
0.0042365675
0.0042257925
0.0042155369
0.0042058637
0.004196857
0.0041883513
0.0041802933
0.0041727524
0.0041656533
0.0041589664
0.0041525213
0.0041464264
0.0041407462
0.0041354731
0.0041307666
0.0041266135
0.0041230293
0.0041198675
0.0041171823
0.004114637
0.0041124222
0.0041107318
0.004109365
0.0041085677
0.0041078871
0.0041096852
0.15118429
0.15473288
0.15831856
0.16193622
0.16557913
0.16923971
0.1729095
0.17657908
0.18023796
0.18387449
0.18747576
0.19102757
0.1945144
0.19791935
0.20122416
0.20440918
0.20745334
0.21033421
0.21302791
0.2155092
0.21775147
0.21972682
0.22140613
0.2227592
0.22375487
0.22436123
0.22454579
0.22427576
0.22351834
0.22224097
0.22041173
0.21799965
0.21497514
0.21131038
0.20697973
0.20196016
0.19623171
0.18977792
0.18258624
0.17464845
0.16596141
0.15652509
0.14634984
0.13545267
0.12385133
0.11157425
0.098662739
0.085172755
0.071187097
0.056838377
0.042367023
0.02827392
0.015821692
0.0077820228
0.0049508051
0.0043634751
0.0042617261
0.0042357072
0.0042220339
0.0042125708
0.0042058314
0.0042045729
0.0042064478
0.0042052615
0.0041982358
0.0041932365
0.0042051159
0.0042540081
0.0043332684
0.0043867172
0.0043936399
0.004380892
0.0043648962
0.0043491771
0.0043343802
0.0043202982
0.0043065689
0.0042933989
0.0042808917
0.0042686809
0.0042566736
0.0042451357
0.0042340455
0.0042233542
0.0042131823
0.0042036057
0.0041947136
0.0041863195
0.0041783835
0.0041709599
0.0041639646
0.0041573681
0.0041510002
0.0041449565
0.0041393295
0.004134114
0.0041294582
0.0041253494
0.0041218029
0.0041186794
0.0041160278
0.0041135187
0.0041113484
0.0041097122
0.0041084179
0.0041077124
0.0041071458
0.0041090096
0.15571767
0.15915293
0.16262123
0.1661172
0.16963382
0.17316321
0.17669659
0.18022421
0.18373529
0.18721789
0.19065884
0.19404372
0.19735681
0.20058107
0.2036981
0.20668816
0.20953017
0.21220167
0.21467887
0.21693667
0.21894867
0.22068726
0.22212372
0.2232283
0.2239704
0.22431876
0.22424162
0.22370702
0.22268304
0.22113812
0.21904136
0.21636293
0.2130744
0.20914913
0.20456273
0.19929343
0.19332255
0.18663486
0.17921904
0.17106815
0.16218022
0.15255636
0.14220893
0.13115615
0.1194163
0.1070207
0.094013636
0.08045693
0.066444598
0.052133148
0.037818786
0.024147469
0.012791645
0.006511766
0.0046589047
0.0043052873
0.0042420812
0.0042219902
0.0042103866
0.0042021615
0.0041970371
0.0041975256
0.0041996436
0.0041973984
0.0041905274
0.0041878785
0.0042058101
0.0042631923
0.0043427785
0.0043879266
0.0043900117
0.0043763212
0.0043604767
0.0043449971
0.0043305121
0.0043166765
0.0043031265
0.004290168
0.0042778359
0.004265764
0.0042538902
0.0042424706
0.0042314849
0.0042208807
0.0042107946
0.0042013163
0.0041925388
0.0041842571
0.0041764453
0.0041691402
0.0041622502
0.0041557442
0.004149457
0.0041434671
0.0041378934
0.0041327376
0.0041281326
0.0041240673
0.0041205575
0.004117473
0.0041148553
0.0041123834
0.0041102589
0.0041086783
0.0041074594
0.004106848
0.0041063975
0.0041083275
0.16030628
0.16362257
0.16696743
0.17033525
0.17371877
0.1771098
0.18049929
0.18387722
0.18723252
0.19055299
0.19382527
0.19703473
0.20016549
0.20320037
0.20612091
0.20890731
0.21153848
0.21399201
0.21624424
0.21827022
0.22004381
0.22153774
0.22272368
0.2235724
0.22405388
0.22413753
0.22379236
0.22298725
0.2216912
0.21987364
0.21750475
0.21455581
0.21099957
0.2068106
0.20196576
0.19644455
0.19022952
0.18330673
0.17566609
0.16730191
0.15821335
0.14840302
0.13788522
0.12667908
0.11480404
0.10229466
0.089198987
0.075586355
0.061565498
0.047324978
0.033237001
0.020155248
0.010214897
0.0056271804
0.0044735401
0.0042651474
0.0042249002
0.0042087275
0.004198967
0.0041919581
0.0041886402
0.0041906777
0.0041925811
0.0041892851
0.0041830074
0.0041833439
0.0042083128
0.004273747
0.0043513784
0.0043879796
0.0043859777
0.0043716564
0.0043560124
0.0043407748
0.0043265926
0.0043130026
0.0042996351
0.0042868878
0.0042747294
0.0042627988
0.0042510647
0.0042397642
0.0042288853
0.0042183725
0.0042083746
0.0041989963
0.0041903332
0.0041821649
0.0041744791
0.0041672934
0.00416051
0.0041540945
0.0041478912
0.0041419582
0.004136438
0.0041313437
0.0041267894
0.0041227669
0.0041192932
0.004116248
0.0041136646
0.0041112308
0.0041091536
0.0041076302
0.0041064896
0.0041059748
0.0041056422
0.0041076387
0.16493316
0.16812482
0.17134018
0.1745734
0.17781698
0.1810625
0.18430064
0.18752114
0.19071269
0.19386289
0.19695815
0.19998372
0.20292358
0.20576047
0.20847586
0.21104995
0.21346168
0.21568875
0.21770762
0.21949357
0.22102076
0.22226226
0.22319021
0.22377589
0.22398993
0.2238024
0.22318312
0.22210184
0.22052849
0.21843353
0.21578821
0.21256496
0.20873768
0.20428221
0.19917662
0.19340169
0.18694124
0.17978258
0.17191686
0.16333974
0.1540512
0.14405603
0.13337041
0.12201389
0.11000793
0.097390738
0.084215259
0.070560553
0.056554916
0.04243038
0.02866458
0.01640702
0.0081698441
0.0050447567
0.0043571843
0.0042359466
0.0042091652
0.0041958864
0.0041877908
0.0041820139
0.0041806571
0.0041839364
0.0041851808
0.0041810096
0.0041757987
0.0041798888
0.0042128309
0.0042853362
0.0043587531
0.0043869643
0.0043816022
0.0043669133
0.0043515039
0.0043365107
0.00432262
0.0043092723
0.0042960925
0.0042835569
0.0042715707
0.0042597844
0.004248196
0.0042370162
0.0042262465
0.0042158299
0.0042059233
0.0041966465
0.0041880975
0.0041800438
0.0041724854
0.0041654197
0.0041587441
0.004152419
0.0041463025
0.0041404295
0.0041349631
0.0041299322
0.0041254284
0.0041214483
0.0041180098
0.004115004
0.0041124554
0.004110061
0.0041080327
0.0041065682
0.0041055085
0.0041050928
0.0041048798
0.0041069431
0.16957929
0.17264065
0.17572043
0.1788126
0.18190944
0.1850023
0.18808167
0.19113704
0.19415692
0.19712871
0.20003869
0.20287197
0.20561244
0.20824279
0.21074447
0.21309772
0.21528156
0.2172738
0.2190511
0.220589
0.22186198
0.22284351
0.22350622
0.22382195
0.22376197
0.22329709
0.22239794
0.22103515
0.21917963
0.21680286
0.2138772
0.2103762
0.20627499
0.20155061
0.19618241
0.1901524
0.1834457
0.17605088
0.16796038
0.15917118
0.14968385
0.13950612
0.12865603
0.11715295
0.10502144
0.09230396
0.079059874
0.065380992
0.051421987
0.037474545
0.024166059
0.013041863
0.0066673672
0.0046785896
0.0042836634
0.0042131889
0.0041942839
0.0041834034
0.004176826
0.0041724086
0.004173073
0.0041771877
0.0041774058
0.0041726796
0.0041690548
0.0041778139
0.0042194994
0.0042975132
0.0043646702
0.0043849853
0.0043769444
0.0043621039
0.0043469501
0.004332205
0.0043185929
0.0043054811
0.0042924966
0.0042801736
0.0042683583
0.0042567199
0.0042452829
0.0042342261
0.0042235687
0.0042132537
0.0042034418
0.004194268
0.0041858325
0.0041778949
0.0041704649
0.0041635196
0.0041569523
0.0041507177
0.0041446904
0.0041388805
0.0041334688
0.0041285027
0.0041240495
0.0041201115
0.0041167073
0.0041137409
0.0041112277
0.0041088737
0.0041068963
0.0041054922
0.0041045162
0.0041042022
0.0041041105
0.0041062408
0.17422348
0.17714883
0.18008696
0.18303162
0.18597493
0.18890804
0.19182124
0.19470385
0.1975442
0.20032956
0.20304608
0.20567878
0.20821149
0.2106269
0.21290648
0.21503053
0.21697818
0.21872744
0.22025519
0.22153725
0.22254846
0.22326276
0.22365327
0.22369244
0.22335221
0.22260415
0.22141973
0.21977049
0.21762832
0.21496575
0.21175626
0.20797455
0.20359695
0.19860175
0.19296953
0.18668359
0.17973033
0.17209959
0.16378511
0.15478533
0.14510114
0.13474385
0.12373345
0.11208858
0.099838328
0.087030064
0.073731689
0.060052004
0.046181744
0.032495648
0.019837877
0.010204256
0.005645751
0.0044560026
0.0042357431
0.0041941263
0.0041799578
0.0041712369
0.004166077
0.0041632341
0.0041658488
0.0041702977
0.0041692714
0.0041644199
0.0041629718
0.0041774527
0.0042283434
0.0043097488
0.0043689927
0.0043821571
0.0043720572
0.0043572358
0.0043423485
0.004327857
0.0043145101
0.0043016251
0.004288845
0.0042767362
0.0042650905
0.0042536043
0.004242324
0.004231394
0.0042208521
0.0042106443
0.0042009311
0.0041918619
0.0041835394
0.0041757195
0.0041684183
0.0041615937
0.004155135
0.0041489908
0.0041430544
0.0041373108
0.0041319551
0.004127055
0.0041226522
0.0041187563
0.0041153858
0.0041124581
0.0041099812
0.004107669
0.0041057444
0.0041044026
0.004103513
0.0041033032
0.0041033341
0.0041055314
0.17884214
0.18162577
0.18441617
0.18720691
0.18998995
0.19275627
0.19549599
0.1981983
0.20085139
0.2034424
0.20595742
0.2083814
0.21069817
0.21289043
0.21493971
0.21682642
0.21852987
0.22002825
0.22129872
0.22231746
0.22305969
0.22349982
0.22361153
0.22336791
0.22274158
0.22170493
0.22023026
0.21829006
0.21585722
0.21290535
0.20940902
0.20534413
0.20068821
0.19542077
0.18952369
0.18298153
0.17578196
0.16791613
0.15937911
0.15017072
0.14029281
0.12975993
0.11859378
0.10681331
0.094452896
0.081565894
0.068231708
0.054582146
0.040857952
0.027551725
0.015817395
0.0079957679
0.0049975996
0.0043229812
0.0042026085
0.0041771182
0.0041660728
0.0041593492
0.0041555956
0.0041545573
0.0041588989
0.0041631279
0.004160841
0.0041563727
0.0041577999
0.0041791493
0.0042392419
0.0043214751
0.0043716783
0.0043785998
0.0043669872
0.0043523124
0.0043376957
0.0043234655
0.0043103704
0.0042977008
0.0042851356
0.004273243
0.0042617658
0.0042504366
0.004239318
0.0042285195
0.0042180973
0.0042080026
0.0041983924
0.0041894292
0.0041812196
0.0041735191
0.0041663466
0.0041596425
0.0041532924
0.0041472386
0.004141394
0.00413572
0.0041304222
0.0041255886
0.0041212364
0.0041173829
0.0041140452
0.0041111554
0.0041087157
0.0041064467
0.0041045772
0.0041032996
0.0041024989
0.0041023958
0.0041025508
0.004104815
0.18340917
0.18604538
0.188682
0.19131245
0.19392854
0.19652113
0.19908019
0.20159478
0.20405301
0.20644194
0.20874761
0.21095495
0.21304782
0.21500896
0.21682002
0.21846156
0.21991307
0.22115302
0.22215886
0.22290714
0.22337355
0.22353299
0.22335973
0.22282751
0.22190971
0.22057952
0.21881012
0.21657496
0.21384796
0.21060379
0.20681818
0.20246819
0.19753258
0.19199212
0.18582992
0.17903185
0.17158688
0.16348744
0.15473002
0.14531574
0.13524805
0.12454467
0.11322851
0.1013202
0.088860327
0.075909967
0.062564107
0.048986242
0.035487456
0.022731304
0.012277891
0.0064269816
0.0046087398
0.0042430324
0.0041777441
0.0041612301
0.0041526032
0.0041477174
0.0041454683
0.0041463961
0.0041520856
0.0041555651
0.0041522183
0.0041487026
0.0041538507
0.0041832227
0.0042518994
0.0043321416
0.0043727665
0.004374434
0.0043617744
0.0043473334
0.0043329876
0.0043190283
0.0043061719
0.0042937054
0.004281367
0.0042696917
0.0042583821
0.0042472158
0.0042362639
0.0042256028
0.004215305
0.0042053292
0.0041958268
0.0041869713
0.0041788746
0.0041712955
0.0041642509
0.0041576668
0.004151425
0.0041454615
0.0041397087
0.0041341076
0.00412887
0.0041241031
0.0041198017
0.0041159911
0.0041126855
0.0041098324
0.0041074311
0.004105207
0.0041033947
0.0041021834
0.0041014743
0.0041014804
0.0041017605
0.0041040914
0.18789576
0.19037887
0.19285574
0.19531961
0.1977622
0.20017423
0.20254558
0.20486524
0.20712121
0.20930055
0.21138926
0.21337231
0.21523359
0.21695597
0.21852123
0.21991011
0.22110235
0.2220767
0.22281097
0.22328213
0.22346632
0.22333902
0.22287511
0.22204902
0.22083489
0.21920675
0.2171387
0.21460516
0.21158108
0.20804224
0.2039655
0.19932913
0.19411311
0.18829944
0.18187255
0.17481958
0.16713081
0.15880003
0.14982519
0.14020847
0.12995593
0.11908844
0.10762946
0.095603041
0.083057155
0.070063303
0.056737794
0.043288497
0.030127047
0.01816704
0.0093907902
0.0054099684
0.0043844515
0.0041931657
0.0041573609
0.0041459898
0.0041395438
0.0041363548
0.0041357911
0.0041387161
0.0041452333
0.0041475485
0.0041435415
0.0041416083
0.0041514946
0.0041899182
0.0042658357
0.0043412715
0.0043723607
0.004369775
0.0043564515
0.0043422955
0.0043282199
0.0043145423
0.0043019123
0.0042896373
0.0042775386
0.00426608
0.0042549374
0.0042439409
0.0042331605
0.0042226439
0.004212476
0.0042026251
0.0041932355
0.0041844896
0.0041765062
0.0041690503
0.0041621326
0.0041556677
0.0041495332
0.0041436599
0.0041379981
0.004132473
0.0041272985
0.0041225983
0.0041183478
0.0041145808
0.0041113068
0.0041084889
0.0041061272
0.0041039499
0.0041021972
0.0041010542
0.0041004395
0.004100557
0.0041009632
0.0041033603
0.19227024
0.19459466
0.19690588
0.19919702
0.20145968
0.20368452
0.20586134
0.20797905
0.21002565
0.21198816
0.21385262
0.21560405
0.21722645
0.2187028
0.22001508
0.22114425
0.22207033
0.22277239
0.22322865
0.22341651
0.22331265
0.22289311
0.22213343
0.22100877
0.21949406
0.21756419
0.21519419
0.21235948
0.20903607
0.20520084
0.20083182
0.19590847
0.190412
0.1843257
0.17763526
0.17032915
0.16239898
0.15383997
0.14465165
0.1348368
0.12440558
0.11338198
0.101789
0.089656731
0.077041968
0.064030658
0.050768756
0.037527312
0.024864385
0.014043606
0.0072544342
0.004801183
0.0042573389
0.0041596953
0.0041393121
0.0041312203
0.0041268805
0.0041253197
0.0041266365
0.0041314315
0.0041381475
0.0041390853
0.0041349804
0.0041353391
0.0041511449
0.0041993475
0.0042804023
0.0043485079
0.0043706105
0.004364726
0.0043510434
0.0043371938
0.004323389
0.0043100033
0.0042975883
0.0042854963
0.0042736497
0.0042624055
0.0042514298
0.0042406109
0.004230007
0.0042196431
0.0042096112
0.0041998912
0.0041906196
0.004181986
0.0041741167
0.0041667855
0.004159993
0.0041536461
0.004147618
0.0041418345
0.0041362618
0.0041308158
0.0041257078
0.0041210737
0.0041168745
0.0041131517
0.0041099088
0.0041071246
0.004104804
0.0041026754
0.0041009846
0.0040999124
0.0040993947
0.0040996259
0.004100159
0.0041026217
0.19649798
0.1986582
0.20079803
0.20291044
0.20498698
0.20701822
0.20899393
0.21090299
0.2127334
0.2144722
0.21610549
0.21761838
0.21899501
0.22021854
0.22127114
0.22213405
0.22278761
0.22321126
0.22338363
0.22328263
0.22288547
0.22216883
0.22110892
0.21968165
0.21786278
0.21562809
0.21295355
0.20981561
0.20619134
0.20205874
0.19739703
0.19218687
0.18641072
0.18005313
0.17310112
0.16554447
0.15737619
0.148593
0.13919618
0.12918876
0.11858659
0.1074164
0.095700438
0.083477894
0.070816443
0.0578224
0.044683702
0.031762888
0.019833879
0.010576617
0.0058361065
0.0044583018
0.0041843572
0.0041348516
0.0041224512
0.0041169051
0.0041145905
0.0041146943
0.0041180283
0.004124414
0.004130651