/*--------------------------------*- C++ -*----------------------------------*\
| =========                 |                                                 |
| \\      /  F ield         | OpenFOAM: The Open Source CFD Toolbox           |
|  \\    /   O peration     | Version:  2406                                  |
|   \\  /    A nd           | Website:  www.openfoam.com                      |
|    \\/     M anipulation  |                                                 |
\*---------------------------------------------------------------------------*/
FoamFile
{
    version     2.0;
    format      ascii;
    arch        "LSB;label=32;scalar=64";
    class       volScalarField;
    location    "0.015";
    object      T;
}
// * * * * * * * * * * * * * * * * * * * * * * * * * * * * * * * * * * * * * //

dimensions      [0 0 0 1 0 0 0];

internalField   nonuniform List<scalar> 
23203
(
292.79121
292.79973
292.80778
292.81536
292.82246
292.82909
292.83525
292.84095
292.8462
292.851
292.85536
292.85931
292.86285
292.866
292.86878
292.87119
292.87325
292.87497
292.87638
292.87747
292.87827
292.87878
292.87901
292.87899
292.87872
292.8782
292.87746
292.87649
292.87531
292.87393
292.87235
292.87059
292.86864
292.86653
292.86425
292.86182
292.85925
292.85654
292.85372
292.85078
292.84776
292.84466
292.84154
292.83844
292.83535
292.83233
292.8295
292.82696
292.82486
292.82342
292.82296
292.82399
292.82733
292.83444
292.84809
292.87356
292.90869
292.93078
292.93895
292.94253
292.94517
292.94754
292.94982
292.95201
292.95413
292.95619
292.95819
292.96012
292.96197
292.96374
292.96543
292.96706
292.96864
292.97016
292.97163
292.97303
292.97436
292.97565
292.97687
292.97804
292.97916
292.98024
292.98126
292.98223
292.98315
292.98403
292.98485
292.98563
292.98637
292.98706
292.9877
292.98831
292.98887
292.9894
292.98988
292.99033
292.99074
292.99111
292.99146
292.99177
292.99206
292.99232
292.99257
292.99279
292.99297
292.99313
292.99324
292.99333
292.80556
292.81298
292.82002
292.82667
292.83292
292.83875
292.84418
292.8492
292.85382
292.85806
292.86191
292.86538
292.86849
292.87124
292.87364
292.87571
292.87745
292.87888
292.88001
292.88084
292.88141
292.8817
292.88173
292.88152
292.88107
292.88039
292.87949
292.87838
292.87707
292.87556
292.87387
292.872
292.86996
292.86775
292.86539
292.86288
292.86024
292.85747
292.85458
292.8516
292.84854
292.84541
292.84227
292.83916
292.83609
292.83312
292.83035
292.82791
292.82596
292.82473
292.82458
292.82607
292.83012
292.83836
292.85396
292.88213
292.91644
292.93468
292.94111
292.94426
292.94674
292.94904
292.95125
292.95338
292.95544
292.95744
292.95938
292.96126
292.96307
292.96478
292.96643
292.96802
292.96957
292.97105
292.97248
292.97385
292.97515
292.97641
292.97761
292.97875
292.97985
292.9809
292.9819
292.98285
292.98375
292.98461
292.98542
292.98618
292.98689
292.98757
292.9882
292.9888
292.98935
292.98986
292.99034
292.99077
292.99118
292.99154
292.99188
292.99219
292.99247
292.99273
292.99296
292.99318
292.99336
292.99352
292.99363
292.99372
292.82138
292.82761
292.83355
292.83919
292.8445
292.84949
292.85413
292.85842
292.86238
292.86601
292.86929
292.87225
292.87488
292.8772
292.8792
292.88089
292.88229
292.8834
292.88423
292.88479
292.8851
292.88515
292.88496
292.88454
292.8839
292.88304
292.88197
292.8807
292.87923
292.87758
292.87576
292.87376
292.87159
292.86927
292.86681
292.8642
292.86146
292.85861
292.85565
292.8526
292.84948
292.84631
292.84313
292.84
292.83693
292.83397
292.83126
292.82891
292.8271
292.82608
292.82626
292.82825
292.83307
292.84256
292.86035
292.89105
292.92323
292.9379
292.94311
292.94596
292.94833
292.95055
292.95269
292.95475
292.95675
292.9587
292.96059
292.96242
292.96417
292.96584
292.96744
292.96899
292.9705
292.97195
292.97335
292.97468
292.97595
292.97718
292.97835
292.97947
292.98054
292.98157
292.98255
292.98348
292.98436
292.9852
292.98599
292.98673
292.98743
292.98809
292.98871
292.98929
292.98983
292.99033
292.9908
292.99123
292.99162
292.99198
292.99231
292.99261
292.99288
292.99314
292.99337
292.99358
292.99376
292.99391
292.99402
292.99411
292.83767
292.84271
292.84755
292.85218
292.85655
292.86067
292.86451
292.86808
292.87135
292.87434
292.87705
292.87947
292.8816
292.88345
292.88503
292.88633
292.88737
292.88815
292.88867
292.88895
292.88898
292.88879
292.88837
292.88773
292.88688
292.88583
292.88458
292.88314
292.88152
292.87972
292.87775
292.87562
292.87333
292.8709
292.86832
292.86561
292.86278
292.85984
292.85681
292.85369
292.85051
292.84729
292.84407
292.84092
292.83785
292.83492
292.83226
292.83001
292.82835
292.82757
292.82811
292.83063
292.83631
292.84724
292.86752
292.90032
292.92934
292.94085
292.94511
292.9477
292.94997
292.95211
292.95418
292.95618
292.95811
292.96
292.96184
292.96361
292.96531
292.96693
292.96848
292.97
292.97146
292.97287
292.97423
292.97553
292.97678
292.97797
292.97911
292.9802
292.98125
292.98225
292.98321
292.98412
292.98498
292.9858
292.98657
292.9873
292.98798
292.98863
292.98923
292.9898
292.99033
292.99082
292.99127
292.99169
292.99207
292.99242
292.99274
292.99304
292.99331
292.99356
292.99378
292.99399
292.99417
292.99432
292.99442
292.99451
292.85414
292.85803
292.86179
292.86542
292.86887
292.87212
292.87517
292.87799
292.88058
292.88294
292.88505
292.88692
292.88855
292.88994
292.89108
292.89199
292.89265
292.89309
292.89329
292.89327
292.89303
292.89257
292.89191
292.89105
292.88999
292.88874
292.8873
292.88569
292.8839
292.88195
292.87984
292.87757
292.87516
292.8726
292.86991
292.8671
292.86418
292.86115
292.85803
292.85484
292.8516
292.84834
292.8451
292.84193
292.83885
292.83596
292.83337
292.83123
292.82974
292.82923
292.83017
292.83331
292.83997
292.85256
292.87562
292.90964
292.93466
292.94354
292.94708
292.94948
292.95164
292.9537
292.9557
292.95763
292.9595
292.96133
292.96311
292.96482
292.96647
292.96804
292.96955
292.97102
292.97245
292.97382
292.97514
292.97641
292.97762
292.97878
292.97989
292.98096
292.98198
292.98296
292.98389
292.98478
292.98562
292.98642
292.98717
292.98788
292.98855
292.98917
292.98976
292.99031
292.99083
292.99131
292.99175
292.99216
292.99253
292.99288
292.99319
292.99347
292.99374
292.99398
292.9942
292.99441
292.99458
292.99473
292.99483
292.99492
292.87077
292.87354
292.87626
292.8789
292.88144
292.88384
292.88609
292.88818
292.89009
292.8918
292.89332
292.89465
292.89576
292.89667
292.89738
292.89787
292.89816
292.89824
292.89811
292.89778
292.89726
292.89654
292.89563
292.89453
292.89325
292.89179
292.89017
292.88837
292.88642
292.8843
292.88204
292.87963
292.87709
292.87441
292.8716
292.86868
292.86566
292.86254
292.85934
292.85608
292.85279
292.84948
292.8462
292.84302
292.83996
292.8371
292.83459
292.83258
292.83129
292.83108
292.83247
292.83632
292.84411
292.85864
292.88465
292.91862
292.93924
292.94605
292.94905
292.95128
292.95335
292.95533
292.95725
292.95912
292.96093
292.96269
292.96441
292.96607
292.96766
292.96917
292.97063
292.97207
292.97345
292.97478
292.97607
292.9773
292.97847
292.97961
292.98069
292.98172
292.98272
292.98367
292.98458
292.98545
292.98627
292.98704
292.98778
292.98847
292.98912
292.98973
292.9903
292.99084
292.99134
292.99181
292.99224
292.99264
292.993
292.99334
292.99364
292.99392
292.99418
292.99442
292.99463
292.99483
292.995
292.99515
292.99525
292.99534
292.8875
292.88919
292.8909
292.89258
292.89422
292.89579
292.89726
292.89861
292.89984
292.90092
292.90185
292.90261
292.90322
292.90365
292.9039
292.90398
292.90388
292.9036
292.90313
292.90249
292.90167
292.90068
292.89951
292.89817
292.89666
292.895
292.89317
292.89119
292.88906
292.88678
292.88436
292.88181
292.87912
292.87632
292.87339
292.87036
292.86724
292.86403
292.86074
292.85741
292.85406
292.8507
292.8474
292.84421
292.84116
292.83836
292.83594
292.83407
292.83301
292.83314
292.83505
292.8397
292.8488
292.86558
292.89451
292.92689
292.94318
292.94842
292.95103
292.95311
292.95509
292.95699
292.95884
292.96063
292.96237
292.96408
292.96574
292.96734
292.96887
292.97033
292.97175
292.97314
292.97448
292.97577
292.97702
292.97821
292.97935
292.98045
292.9815
292.98251
292.98348
292.9844
292.98529
292.98613
292.98693
292.98769
292.9884
292.98907
292.9897
292.9903
292.99086
292.99138
292.99187
292.99232
292.99274
292.99313
292.99348
292.99381
292.9941
292.99438
292.99463
292.99486
292.99507
292.99527
292.99543
292.99558
292.99567
292.99576
292.90424
292.9049
292.90563
292.9064
292.90717
292.90792
292.90862
292.90925
292.9098
292.91025
292.91059
292.91081
292.91089
292.91084
292.91064
292.9103
292.90981
292.90916
292.90835
292.90739
292.90626
292.90499
292.90355
292.90197
292.90023
292.89834
292.89631
292.89414
292.89183
292.88938
292.8868
292.88409
292.88127
292.87833
292.87528
292.87214
292.86891
292.8656
292.86224
292.85884
292.85542
292.85202
292.8487
292.8455
292.84247
292.83973
292.83741
292.83571
292.83491
292.83543
292.83792
292.8435
292.85413
292.87352
292.90493
292.93422
292.94662
292.95072
292.95302
292.95498
292.95686
292.95868
292.96046
292.96218
292.96385
292.9655
292.96709
292.96863
292.97011
292.97151
292.97288
292.97423
292.97552
292.97677
292.97798
292.97914
292.98024
292.98131
292.98233
292.98331
292.98425
292.98515
292.98601
292.98683
292.9876
292.98834
292.98903
292.98969
292.9903
292.99088
292.99142
292.99193
292.9924
292.99284
292.99325
292.99363
292.99397
292.99429
292.99458
292.99484
292.99508
292.99531
292.99552
292.99571
292.99587
292.99601
292.99611
292.99619
292.92092
292.92061
292.92041
292.92029
292.92023
292.92018
292.92014
292.92007
292.91995
292.91978
292.91953
292.9192
292.91877
292.91823
292.91759
292.91682
292.91593
292.9149
292.91375
292.91246
292.91103
292.90947
292.90776
292.90592
292.90395
292.90184
292.8996
292.89722
292.89472
292.8921
292.88935
292.88649
292.88352
292.88045
292.87728
292.87402
292.87068
292.86728
292.86383
292.86035
292.85688
292.85344
292.8501
292.8469
292.8439
292.84123
292.83904
292.83753
292.83702
292.83798
292.84115
292.8478
292.86022
292.88255
292.91548
292.94051
292.9497
292.95296
292.95503
292.95688
292.95867
292.96041
292.96211
292.96376
292.96536
292.96694
292.96847
292.96995
292.97137
292.97272
292.97404
292.97534
292.97659
292.9778
292.97897
292.98009
292.98116
292.98219
292.98318
292.98413
292.98504
292.98591
292.98675
292.98754
292.98829
292.98901
292.98968
292.99031
292.99091
292.99147
292.992
292.99249
292.99295
292.99338
292.99377
292.99414
292.99447
292.99478
292.99506
292.99532
292.99555
292.99577
292.99597
292.99616
292.99632
292.99646
292.99655
292.99664
292.93748
292.93625
292.93518
292.93422
292.93335
292.93254
292.93177
292.93102
292.93026
292.92947
292.92865
292.92777
292.92683
292.92582
292.92472
292.92352
292.92223
292.92083
292.91933
292.9177
292.91597
292.91411
292.91213
292.91003
292.90781
292.90548
292.90302
292.90044
292.89775
292.89495
292.89203
292.88901
292.88589
292.88268
292.87938
292.876
292.87255
292.86906
292.86552
292.86197
292.85844
292.85497
292.85161
292.84842
292.84546
292.84287
292.84082
292.83954
292.83936
292.84083
292.84479
292.85268
292.86721
292.89269
292.92563
292.94581
292.95251
292.95518
292.95707
292.95881
292.96052
292.96217
292.96379
292.96536
292.9669
292.96841
292.96988
292.97129
292.97265
292.97395
292.97522
292.97647
292.97768
292.97885
292.97997
292.98105
292.98209
292.98309
292.98404
292.98496
292.98584
292.98669
292.9875
292.98827
292.989
292.98969
292.99034
292.99095
292.99153
292.99207
292.99258
292.99306
292.9935
292.99392
292.9943
292.99466
292.99498
292.99528
292.99555
292.9958
292.99603
292.99624
292.99644
292.99662
292.99677
292.99691
292.997
292.99709
292.95386
292.95178
292.94987
292.94812
292.94648
292.94495
292.94348
292.94207
292.94068
292.9393
292.93791
292.9365
292.93506
292.93357
292.93202
292.9304
292.92871
292.92694
292.92507
292.92312
292.92107
292.91891
292.91666
292.9143
292.91183
292.90926
292.90658
292.90379
292.90091
292.89792
292.89483
292.89165
292.88838
292.88502
292.88159
292.87809
292.87454
292.87094
292.86732
292.8637
292.86011
292.85661
292.85324
292.85006
292.84715
292.84467
292.84278
292.84175
292.84197
292.84402
292.84888
292.85824
292.87526
292.90379
292.93488
292.95026
292.95517
292.95741
292.95914
292.96078
292.96239
292.96396
292.96551
292.96701
292.96847
292.96992
292.97132
292.97266
292.97396
292.97521
292.97643
292.97763
292.9788
292.97992
292.981
292.98204
292.98304
292.98401
292.98493
292.98581
292.98666
292.98748
292.98826
292.98901
292.98971
292.99039
292.99102
292.99161
292.99217
292.99269
292.99318
292.99364
292.99407
292.99447
292.99485
292.99519
292.9955
292.99579
292.99605
292.99629
292.99651
292.99672
292.99691
292.99709
292.99724
292.99737
292.99746
292.99755
292.97001
292.96713
292.96445
292.96195
292.9596
292.95737
292.95524
292.95319
292.95119
292.94923
292.9473
292.94537
292.94343
292.94147
292.93948
292.93744
292.93535
292.9332
292.93098
292.92869
292.92633
292.92387
292.92134
292.91871
292.91599
292.91318
292.91028
292.90728
292.9042
292.90102
292.89776
292.89441
292.89098
292.88748
292.88392
292.88029
292.87663
292.87293
292.86922
292.86554
292.8619
292.85837
292.855
292.85183
292.84899
292.84663
292.84494
292.84421
292.84487
292.84759
292.85352
292.86462
292.88452
292.91546
292.94289
292.95408
292.95771
292.95964
292.96125
292.96278
292.96431
292.96579
292.96725
292.96868
292.97007
292.97145
292.97278
292.97406
292.9753
292.97649
292.97766
292.97882
292.97993
292.98101
292.98205
292.98305
292.98401
292.98494
292.98583
292.98668
292.9875
292.98829
292.98905
292.98976
292.99045
292.99109
292.9917
292.99227
292.99281
292.99332
292.99379
292.99423
292.99465
292.99504
292.9954
292.99573
292.99603
292.99631
292.99656
292.99679
292.99701
292.99721
292.99739
292.99757
292.99771
292.99784
292.99793
292.99801
292.98588
292.98226
292.97887
292.97567
292.97264
292.96976
292.967
292.96434
292.96176
292.95925
292.95678
292.95435
292.95192
292.9495
292.94707
292.94462
292.94214
292.93962
292.93705
292.93442
292.93174
292.92899
292.92616
292.92327
292.9203
292.91725
292.91412
292.91091
292.90762
292.90425
292.90081
292.89729
292.89371
292.89006
292.88636
292.88261
292.87883
292.87504
292.87125
292.86749
292.8638
292.86025
292.85688
292.85375
292.851
292.84878
292.84732
292.84693
292.8481
292.85162
292.85879
292.87196
292.89508
292.92709
292.94958
292.95745
292.96021
292.9619
292.96338
292.96482
292.96626
292.96765
292.96904
292.97038
292.9717
292.97301
292.97427
292.97548
292.97666
292.9778
292.97892
292.98002
292.98109
292.98212
292.98312
292.98408
292.985
292.98589
292.98675
292.98757
292.98836
292.98912
292.98984
292.99054
292.99119
292.99182
292.9924
292.99295
292.99347
292.99396
292.99441
292.99484
292.99524
292.99562
292.99596
292.99628
292.99657
292.99684
292.99708
292.99731
292.99751
292.99771
292.99789
292.99805
292.9982
292.99832
292.99841
292.99849
293.00142
292.99714
292.99308
292.98924
292.98558
292.98208
292.97873
292.9755
292.97237
292.96932
292.96634
292.96341
292.96052
292.95765
292.9548
292.95194
292.94907
292.94618
292.94325
292.9403
292.93729
292.93424
292.93113
292.92797
292.92474
292.92145
292.91809
292.91466
292.91117
292.90761
292.90398
292.90029
292.89655
292.89275
292.88892
292.88504
292.88115
292.87726
292.87339
292.86957
292.86584
292.86227
292.85892
292.85584
292.85318
292.85114
292.84994
292.84994
292.85172
292.85617
292.86482
292.88046
292.90687
292.93795
292.95509
292.96053
292.96268
292.96418
292.96556
292.9669
292.96824
292.96955
292.97085
292.97212
292.97336
292.9746
292.97579
292.97694
292.97805
292.97913
292.9802
292.98125
292.98227
292.98325
292.98421
292.98512
292.98601
292.98687
292.98768
292.98847
292.98923
292.98996
292.99066
292.99132
292.99196
292.99256
292.99312
292.99365
292.99414
292.99461
292.99505
292.99546
292.99585
292.9962
292.99654
292.99684
292.99713
292.99738
292.99761
292.99783
292.99803
292.99822
292.99839
292.99855
292.99869
292.99881
292.9989
292.99898
293.01661
293.01172
293.00707
293.00263
292.99839
292.99432
292.9904
292.98663
292.98297
292.97942
292.97595
292.97255
292.9692
292.9659
292.96263
292.95937
292.95612
292.95286
292.94959
292.9463
292.94299
292.93964
292.93624
292.93281
292.92932
292.92579
292.9222
292.91855
292.91485
292.91109
292.90728
292.90342
292.89952
292.89557
292.8916
292.8876
292.8836
292.87961
292.87566
292.87178
292.86801
292.86444
292.8611
292.85809
292.85556
292.85372
292.85283
292.8533
292.85579
292.86133
292.87176
292.89031
292.91954
292.94745
292.95965
292.96342
292.96515
292.9665
292.96777
292.96902
292.97026
292.97148
292.9727
292.97389
292.97506
292.97622
292.97734
292.97841
292.97947
292.98049
292.9815
292.9825
292.98347
292.98441
292.98532
292.98619
292.98704
292.98786
292.98864
292.98939
292.99012
292.99082
292.99149
292.99212
292.99273
292.99331
292.99385
292.99435
292.99483
292.99528
292.9957
292.99609
292.99646
292.9968
292.99712
292.99742
292.99769
292.99793
292.99816
292.99836
292.99855
292.99873
292.9989
292.99906
292.99919
292.99931
292.9994
292.99948
293.03142
293.02599
293.02078
293.0158
293.01102
293.00642
293.00199
292.99771
292.99356
292.98952
292.98558
292.98173
292.97795
292.97423
292.97055
292.9669
292.96328
292.95967
292.95606
292.95244
292.94881
292.94516
292.94149
292.93778
292.93404
292.93026
292.92644
292.92257
292.91866
292.91471
292.91071
292.90668
292.90261
292.89852
292.8944
292.89028
292.88617
292.88208
292.87806
292.87412
292.87033
292.86676
292.86346
292.86053
292.85816
292.85655
292.85603
292.85705
292.86037
292.86723
292.87979
292.90164
292.93239
292.95532
292.96356
292.96621
292.96764
292.96885
292.97002
292.97117
292.97231
292.97345
292.97458
292.97569
292.97678
292.97787
292.97892
292.97992
292.98091
292.98188
292.98284
292.98378
292.9847
292.98559
292.98645
292.98728
292.98809
292.98887
292.98962
292.99033
292.99103
292.9917
292.99233
292.99294
292.99352
292.99408
292.99459
292.99508
292.99553
292.99596
292.99636
292.99673
292.99709
292.99742
292.99772
292.998
292.99826
292.9985
292.99871
292.99891
292.99909
292.99926
292.99942
292.99958
292.9997
292.99982
292.9999
292.99998
293.04583
293.0399
293.03421
293.02873
293.02346
293.01838
293.01346
293.00871
293.00409
292.9996
292.99522
292.99094
292.98674
292.98261
292.97855
292.97452
292.97054
292.96657
292.96263
292.95869
292.95476
292.95081
292.94686
292.94288
292.93889
292.93486
292.93081
292.92672
292.9226
292.91845
292.91427
292.91006
292.90583
292.90159
292.89733
292.89309
292.88887
292.88469
292.8806
292.87661
292.8728
292.86925
292.866
292.86318
292.86099
292.85967
292.85958
292.86125
292.86557
292.87399
292.88913
292.91439
292.9445
292.96166
292.96703
292.96895
292.97015
292.97124
292.9723
292.97335
292.9744
292.97545
292.9765
292.97752
292.97854
292.97955
292.98052
292.98145
292.98238
292.98329
292.98419
292.98509
292.98595
292.98679
292.98761
292.9884
292.98917
292.98991
292.99061
292.99129
292.99195
292.99259
292.9932
292.99378
292.99433
292.99486
292.99535
292.99581
292.99624
292.99665
292.99703
292.99739
292.99773
292.99804
292.99833
292.9986
292.99885
292.99907
292.99927
292.99946
292.99964
292.9998
292.99996
293.0001
293.00023
293.00034
293.00042
293.0005
293.05981
293.05345
293.04732
293.0414
293.03569
293.03016
293.0248
293.0196
293.01456
293.00964
293.00484
293.00016
292.99556
292.99105
292.9866
292.98222
292.97788
292.97358
292.96931
292.96506
292.96082
292.95658
292.95235
292.94811
292.94386
292.93959
292.9353
292.931
292.92667
292.92232
292.91796
292.91357
292.90918
292.90479
292.9004
292.89603
292.89171
292.88745
292.88328
292.87926
292.87545
292.87192
292.86873
292.86606
292.86409
292.86312
292.86354
292.86598
292.87149
292.88182
292.9
292.92817
292.95503
292.96679
292.97025
292.97167
292.9727
292.97367
292.97462
292.97558
292.97653
292.97748
292.97845
292.97939
292.98033
292.98126
292.98215
292.98302
292.98388
292.98473
292.98558
292.98641
292.98722
292.98802
292.98879
292.98953
292.99026
292.99096
292.99163
292.99227
292.9929
292.9935
292.99408
292.99463
292.99516
292.99566
292.99612
292.99656
292.99697
292.99736
292.99772
292.99806
292.99838
292.99868
292.99895
292.99921
292.99944
292.99966
292.99985
293.00003
293.00019
293.00035
293.0005
293.00064
293.00076
293.00087
293.00095
293.00102
293.07336
293.06662
293.0601
293.05379
293.04767
293.04174
293.03598
293.03038
293.02493
293.01962
293.01443
293.00936
293.00439
292.9995
292.9947
292.98997
292.98529
292.98066
292.97607
292.97152
292.96698
292.96246
292.95796
292.95345
292.94895
292.94444
292.93993
292.9354
292.93087
292.92632
292.92177
292.91721
292.91266
292.90812
292.9036
292.89911
292.89469
292.89035
292.88613
292.88207
292.87827
292.87479
292.87169
292.86919
292.8675
292.86693
292.86796
292.87133
292.87828
292.89093
292.91256
292.94211
292.9636
292.97109
292.97332
292.97441
292.97528
292.97614
292.97698
292.97784
292.97869
292.97956
292.98043
292.98129
292.98215
292.983
292.98381
292.98461
292.98541
292.9862
292.98699
292.98777
292.98852
292.98927
292.98999
292.99069
292.99137
292.99203
292.99266
292.99327
292.99386
292.99443
292.99498
292.9955
292.996
292.99647
292.99691
292.99732
292.99771
292.99808
292.99842
292.99874
292.99904
292.99933
292.99959
292.99983
293.00005
293.00025
293.00044
293.0006
293.00076
293.00091
293.00105
293.00119
293.00131
293.00141
293.00149
293.00156
293.08646
293.0794
293.07254
293.06587
293.0594
293.0531
293.04698
293.04101
293.03519
293.02951
293.02396
293.01853
293.0132
293.00797
293.00283
292.99776
292.99276
292.98782
292.98292
292.97806
292.97324
292.96845
292.96367
292.95891
292.95416
292.94941
292.94467
292.93993
292.93519
292.93045
292.92571
292.92099
292.91627
292.91159
292.90693
292.90234
292.89782
292.8934
292.88913
292.88507
292.88129
292.87786
292.8749
292.87261
292.87124
292.87117
292.87293
292.87742
292.88613
292.9016
292.92667
292.95502
292.97033
292.97487
292.97633
292.97716
292.9779
292.97864
292.97938
292.98013
292.98089
292.98166
292.98245
292.98322
292.984
292.98477
292.9855
292.98623
292.98696
292.9877
292.98842
292.98914
292.98985
292.99054
292.99122
292.99187
292.99251
292.99313
292.99372
292.99429
292.99484
292.99538
292.99589
292.99638
292.99685
292.9973
292.99771
292.9981
292.99847
292.99881
292.99914
292.99944
292.99972
292.99999
293.00024
293.00046
293.00067
293.00086
293.00103
293.00119
293.00134
293.00148
293.00162
293.00175
293.00186
293.00196
293.00203
293.00211
293.09912
293.09178
293.08462
293.07765
293.07086
293.06424
293.05778
293.05148
293.04533
293.03931
293.03342
293.02766
293.022
293.01644
293.01097
293.00559
293.00027
292.99503
292.98983
292.98469
292.97959
292.97452
292.96948
292.96447
292.95947
292.9545
292.94953
292.94458
292.93963
292.9347
292.92979
292.92489
292.92002
292.91519
292.91042
292.90571
292.9011
292.89662
292.89232
292.88825
292.88452
292.88118
292.87838
292.87635
292.87538
292.87589
292.87855
292.88441
292.89527
292.91405
292.9417
292.96591
292.97569
292.97834
292.97931
292.97995
292.98056
292.98118
292.98181
292.98247
292.98312
292.98381
292.9845
292.98519
292.98588
292.98657
292.98722
292.98787
292.98855
292.98922
292.98989
292.99055
292.9912
292.99184
292.99246
292.99307
292.99367
292.99424
292.99479
292.99533
292.99584
292.99635
292.99682
292.99728
292.99773
292.99814
292.99853
292.9989
292.99924
292.99956
292.99986
293.00015
293.00041
293.00066
293.0009
293.00111
293.0013
293.00148
293.00164
293.00179
293.00193
293.00207
293.00219
293.00232
293.00243
293.00253
293.00259
293.00267
293.11134
293.10375
293.09635
293.08911
293.08204
293.07513
293.06838
293.06178
293.05532
293.049
293.0428
293.03672
293.03075
293.02489
293.01912
293.01343
293.00782
293.00228
292.99681
292.99139
292.98601
292.98068
292.97539
292.97013
292.9649
292.95969
292.95451
292.94934
292.9442
292.93908
292.93399
292.92893
292.92391
292.91894
292.91405
292.90924
292.90455
292.90002
292.89569
292.89165
292.88798
292.88476
292.88216
292.88046
292.87997
292.8812
292.88494
292.89248
292.906
292.92837
292.95642
292.97445
292.98015
292.98165
292.98229
292.98278
292.98326
292.98376
292.98429
292.98483
292.98539
292.98598
292.98659
292.98719
292.98779
292.98839
292.98897
292.98955
292.99016
292.99077
292.99138
292.99198
292.99257
292.99317
292.99374
292.9943
292.99485
292.99538
292.99589
292.99638
292.99686
292.99733
292.99778
292.9982
292.99862
292.999
292.99937
292.99971
293.00003
293.00033
293.00061
293.00087
293.00112
293.00135
293.00157
293.00177
293.00195
293.00212
293.00227
293.0024
293.00253
293.00266
293.00278
293.0029
293.003
293.0031
293.00317
293.00324
293.1231
293.11532
293.10771
293.10024
293.09293
293.08578
293.07876
293.07189
293.06516
293.05855
293.05207
293.04571
293.03946
293.0333
293.02725
293.02128
293.01539
293.00958
293.00383
292.99814
292.99251
292.98693
292.98139
292.97589
292.97042
292.96499
292.9596
292.95423
292.94889
292.94359
292.93832
292.9331
292.92794
292.92284
292.91783
292.91293
292.90818
292.90361
292.89927
292.89528
292.8917
292.88863
292.8863
292.88499
292.8851
292.88721
292.89228
292.9019
292.91862
292.94413
292.96936
292.98101
292.98407
292.98489
292.9853
292.98565
292.986
292.98637
292.9868
292.98724
292.9877
292.98819
292.9887
292.98922
292.98973
292.99025
292.99075
292.99126
292.9918
292.99235
292.99289
292.99344
292.99398
292.99451
292.99503
292.99554
292.99605
292.99654
292.99701
292.99746
292.9979
292.99833
292.99875
292.99914
292.99952
292.99988
293.00022
293.00053
293.00083
293.00111
293.00137
293.00161
293.00184
293.00206
293.00226
293.00244
293.00261
293.00276
293.0029
293.00303
293.00315
293.00327
293.00338
293.00349
293.00359
293.00368
293.00375
293.00382
293.13443
293.1265
293.1187
293.11105
293.10353
293.09616
293.08892
293.08181
293.07483
293.06797
293.06124
293.05461
293.04809
293.04168
293.03535
293.02912
293.02297
293.01689
293.01089
293.00495
292.99907
292.99324
292.98746
292.98173
292.97605
292.9704
292.96479
292.95923
292.9537
292.94822
292.94279
292.93742
292.93211
292.92689
292.92178
292.9168
292.91199
292.9074
292.90308
292.89916
292.8957
292.89283
292.89083
292.89002
292.89085
292.89404
292.90077
292.91298
292.93331
292.96017
292.97962
292.98622
292.9877
292.98811
292.98835
292.98856
292.98877
292.98902
292.98934
292.98967
292.99004
292.99044
292.99085
292.99128
292.99171
292.99213
292.99255
292.993
292.99347
292.99395
292.99444
292.99492
292.9954
292.99588
292.99635
292.99682
292.99727
292.99772
292.99814
292.99856
292.99896
292.99936
292.99973
293.0001
293.00045
293.00078
293.00108
293.00138
293.00165
293.0019
293.00214
293.00236
293.00257
293.00277
293.00296
293.00312
293.00328
293.00342
293.00355
293.00366
293.00378
293.00388
293.00399
293.0041
293.00419
293.00428
293.00434
293.00441
293.14533
293.13727
293.12933
293.12152
293.11384
293.10628
293.09884
293.09152
293.08433
293.07725
293.07028
293.06341
293.05665
293.04999
293.04342
293.03694
293.03055
293.02423
293.01798
293.0118
293.00568
292.99962
292.99362
292.98766
292.98176
292.97591
292.9701
292.96434
292.95863
292.95298
292.94739
292.94187
292.93644
292.9311
292.9259
292.92085
292.916
292.91141
292.90714
292.90332
292.90002
292.89742
292.89584
292.89563
292.89735
292.90189
292.9107
292.92607
292.94978
292.97473
292.98732
292.9906
292.9912
292.99135
292.99142
292.99149
292.99158
292.99172
292.99193
292.99214
292.99242
292.99272
292.99302
292.99337
292.99371
292.99405
292.99439
292.99477
292.99517
292.99559
292.99601
292.99643
292.99686
292.99728
292.9977
292.99811
292.99852
292.99892
292.9993
292.99968
293.00004
293.0004
293.00074
293.00107
293.00139
293.00169
293.00197
293.00223
293.00248
293.00271
293.00293
293.00313
293.00332
293.0035
293.00367
293.00382
293.00396
293.00409
293.00421
293.00431
293.00441
293.00451
293.00461
293.00471
293.0048
293.00489
293.00495
293.00501
293.15581
293.14766
293.13961
293.13167
293.12385
293.11613
293.10852
293.10103
293.09364
293.08636
293.07918
293.07211
293.06513
293.05824
293.05145
293.04474
293.03811
293.03156
293.02509
293.01868
293.01234
293.00605
292.99983
292.99367
292.98756
292.98151
292.97551
292.96956
292.96368
292.95787
292.95213
292.94647
292.94092
292.93548
292.9302
292.9251
292.92023
292.91566
292.91147
292.90779
292.90471
292.90246
292.90138
292.90193
292.90477
292.91101
292.92242
292.9414
292.96689
292.98637
292.99318
292.99456
292.99469
292.99461
292.99452
292.99445
292.99443
292.99446
292.99454
292.99464
292.99483
292.99503
292.99523
292.99549
292.99575
292.99599
292.99626
292.99657
292.9969
292.99725
292.99761
292.99797
292.99833
292.9987
292.99907
292.99943
292.99979
293.00015
293.00049
293.00082
293.00114
293.00146
293.00177
293.00206
293.00235
293.00262
293.00287
293.00311
293.00333
293.00353
293.00373
293.00391
293.00408
293.00425
293.0044
293.00453
293.00466
293.00478
293.00488
293.00497
293.00507
293.00516
293.00525
293.00534
293.00543
293.00551
293.00556
293.00563
293.16588
293.15766
293.14953
293.1415
293.13356
293.12571
293.11797
293.11032
293.10276
293.09531
293.08795
293.08068
293.07351
293.06642
293.05942
293.0525
293.04566
293.0389
293.03221
293.02558
293.01903
293.01254
293.00611
292.99975
292.99344
292.9872
292.98102
292.9749
292.96885
292.96289
292.957
292.95122
292.94556
292.94004
292.93469
292.92956
292.9247
292.92018
292.91612
292.91262
292.90981
292.90801
292.90758
292.90908
292.91333
292.92171
292.93632
292.95873
292.98261
292.99495
292.99796
292.99834
292.99816
292.99788
292.99765
292.99745
292.99731
292.99722
292.99719
292.9972
292.99728
292.99737
292.99747
292.99764
292.99781
292.99796
292.99815
292.99839
292.99866
292.99894
292.99923
292.99953
292.99984
293.00015
293.00046
293.00077
293.00109
293.00139
293.00169
293.00198
293.00226
293.00254
293.00281
293.00307
293.00333
293.00356
293.00379
293.004
293.00419
293.00437
293.00455
293.00471
293.00486
293.00501
293.00514
293.00526
293.00537
293.00547
293.00556
293.00565
293.00573
293.00581
293.0059
293.00598
293.00606
293.00614
293.00619
293.00626
293.17555
293.16729
293.15911
293.151
293.14297
293.13503
293.12717
293.11939
293.1117
293.10409
293.09657
293.08913
293.08178
293.07451
293.06732
293.06021
293.05318
293.04622
293.03933
293.03251
293.02576
293.01907
293.01245
293.0059
292.99941
292.99298
292.98663
292.98035
292.97415