/*--------------------------------*- C++ -*----------------------------------*\
| =========                 |                                                 |
| \\      /  F ield         | OpenFOAM: The Open Source CFD Toolbox           |
|  \\    /   O peration     | Version:  2406                                  |
|   \\  /    A nd           | Website:  www.openfoam.com                      |
|    \\/     M anipulation  |                                                 |
\*---------------------------------------------------------------------------*/
FoamFile
{
    version     2.0;
    format      ascii;
    arch        "LSB;label=32;scalar=64";
    class       volScalarField;
    location    "0.039";
    object      Ma;
}
// * * * * * * * * * * * * * * * * * * * * * * * * * * * * * * * * * * * * * //

dimensions      [0 0 0 0 0 0 0];

internalField   nonuniform List<scalar> 
8260
(
0.14436997
0.1455242
0.14671705
0.14798214
0.14924972
0.15049583
0.15172864
0.1529452
0.15424326
0.15570867
0.15718385
0.15869724
0.16019369
0.16153526
0.16221579
0.1617033
0.15912618
0.15576142
0.15397735
0.15290667
0.15203942
0.15129009
0.15059515
0.14992402
0.14934871
0.14892296
0.14857655
0.14830599
0.14807922
0.14794026
0.14784581
0.14067717
0.14218276
0.14378921
0.14541386
0.14702567
0.14860992
0.15016499
0.15169853
0.15326422
0.15490197
0.15653947
0.15817333
0.15974511
0.16110874
0.16174494
0.16110887
0.15842582
0.15521048
0.1536377
0.15266172
0.15184886
0.15113744
0.1504706
0.14982175
0.1492675
0.14885841
0.1485241
0.14826222
0.14804167
0.14790701
0.14781536
0.13641731
0.13826813
0.14031217
0.14235403
0.14436046
0.14632365
0.14823942
0.15011151
0.15197175
0.15383985
0.1556734
0.15745665
0.15912866
0.16053214
0.16114784
0.16041139
0.15763669
0.15464678
0.15328049
0.1523928
0.15163695
0.15096724
0.15033231
0.1497085
0.14917689
0.14878552
0.14846463
0.14821242
0.14799896
0.14786921
0.14778071
0.13233672
0.13447553
0.13684778
0.13923756
0.14159608
0.14390948
0.14616774
0.14836528
0.15051597
0.15262888
0.15466838
0.15661096
0.15839074
0.15983222
0.1604207
0.15956171
0.15671391
0.15401912
0.15286921
0.15208027
0.15139022
0.1507689
0.1501707
0.14957642
0.14907181
0.14870143
0.14839633
0.14815535
0.14795016
0.14782607
0.1477413
0.12855828
0.13090454
0.13350277
0.13615579
0.13880443
0.14142242
0.14399
0.14649053
0.14892006
0.15127489
0.15352158
0.15562701
0.15751687
0.15899009
0.15953422
0.15852431
0.15564453
0.15334038
0.15240727
0.1517251
0.15110948
0.15054316
0.14998687
0.14942677
0.14895285
0.14860597
0.1483188
0.14809047
0.14789474
0.14777702
0.14769647
0.12518262
0.12765566
0.13038604
0.13321073
0.13606964
0.13892595
0.14174965
0.14451274
0.14719464
0.14977639
0.15222159
0.1544853
0.15648088
0.15797324
0.15844486
0.15725932
0.15442824
0.15260584
0.1518856
0.15132001
0.15078882
0.1502848
0.14977593
0.14925553
0.14881707
0.14849702
0.14823048
0.14801652
0.14783171
0.14772117
0.1476455
0.12231543
0.12484654
0.127622
0.13052192
0.1334966
0.13650544
0.13951097
0.14247532
0.14536337
0.14814054
0.15076133
0.15316634
0.15525191
0.15673858
0.15709561
0.1557175
0.1530946
0.1518107
0.15129909
0.150859
0.15042381
0.14999041
0.14953498
0.14906056
0.14866273
0.14837314
0.14813015
0.14793238
0.14776014
0.14765764
0.14758761
0.12012577
0.12260669
0.12532791
0.12820217
0.13119037
0.1342532
0.13734971
0.14043515
0.1434629
0.14638375
0.14913878
0.15165071
0.15379258
0.15523033
0.15541568
0.15384268
0.15168585
0.15094706
0.15063966
0.15033542
0.15000849
0.14965514
0.14925971
0.14883812
0.14848692
0.1482322
0.14801614
0.14783663
0.14767882
0.1475853
0.14752193
0.1186339
0.12098351
0.12356766
0.12632582
0.12923091
0.13224781
0.13533624
0.13844898
0.14153221
0.1445245
0.14735146
0.1499136
0.15205124
0.15337533
0.15331636
0.15164017
0.15026637
0.1500052
0.14990096
0.14974381
0.14953583
0.14927388
0.14894649
0.14858538
0.14828733
0.14807215
0.14788678
0.14772773
0.1475864
0.14750288
0.14744747
0.11781507
0.11997711
0.12236445
0.12493375
0.12766766
0.13054134
0.13351996
0.13655831
0.1395995
0.14257279
0.1453877
0.14791712
0.14995389
0.15105804
0.15066723
0.14928939
0.14886453
0.14897195
0.14907983
0.14907838
0.1489969
0.14884008
0.14859102
0.14829946
0.1480614
0.14789033
0.14773979
0.14760377
0.14748118
0.14740884
0.14736297
0.11757105
0.11950791
0.12165555
0.1239802
0.12647484
0.12912284
0.13189912
0.13476404
0.13766041
0.14050991
0.14320514
0.14558342
0.14736848
0.14806549
0.14750445
0.14711464
0.14743856
0.14785185
0.1481755
0.14833215
0.14838444
0.1483469
0.14818868
0.14797762
0.1478066
0.14768378
0.1475722
0.14746254
0.14736126
0.14730143
0.14726671
0.11786727
0.11949998
0.12133912
0.12335743
0.12554841
0.12790162
0.13039719
0.1329981
0.13564435
0.13824724
0.14067568
0.14271148
0.14403526
0.14436107
0.14448865
0.14517658
0.14599126
0.14664556
0.14717477
0.14749571
0.14770087
0.1477871
0.14773312
0.14761495
0.14751901
0.14744925
0.14738029
0.14730139
0.14722452
0.14717883
0.14715646
0.1182404
0.1195744
0.12109772
0.12278744
0.12463688
0.12664298
0.1287894
0.13103533
0.13331059
0.13551528
0.13752211
0.13911494
0.14005956
0.14082155
0.14211752
0.14343649
0.14447591
0.145369
0.14608626
0.14658065
0.14693731
0.1471552
0.14722103
0.14720429
0.14719387
0.14718371
0.14716083
0.14711754
0.14706885
0.14703937
0.1470296
0.11824572
0.11932329
0.12055761
0.12194043
0.12347265
0.12513403
0.12689505
0.12872125
0.13054949
0.13229654
0.13387985
0.13528702
0.13673747
0.13850519
0.1402476
0.14170102
0.14296678
0.14404655
0.14493377
0.14559159
0.14610765
0.14645402
0.1466468
0.14673898
0.14682691
0.14688438
0.14691246
0.14690848
0.14689231
0.14688173
0.14688338
0.11800142
0.11869006
0.11956431
0.12063132
0.12190828
0.12329359
0.12473551
0.12626327
0.12787584
0.12954004
0.13123527
0.13291584
0.13482373
0.13673635
0.1384732
0.14005301
0.14144673
0.1427152
0.14375084
0.14455126
0.1452231
0.1456965
0.14601167
0.14622274
0.14641533
0.14654967
0.14663566
0.14667316
0.1466935
0.14670474
0.14671526
0.11915036
0.11967465
0.12024868
0.12087923
0.12162344
0.12256737
0.1237009
0.1250123
0.12647565
0.12807444
0.12982237
0.13161254
0.13335598
0.13509692
0.13682639
0.13844452
0.13994652
0.14136409
0.14256383
0.14348333
0.14429831
0.14490415
0.14533435
0.14566431
0.14596305
0.1461803
0.14633097
0.14641266
0.14647127
0.14650696
0.14652322
0.12054867
0.12107487
0.12167395
0.12233409
0.12302395
0.12376439
0.12458488
0.12539326
0.12627441
0.12750177
0.12900022
0.13067591
0.132328
0.13387225
0.13548382
0.1370678
0.13854132
0.14000742
0.1413615
0.14242188
0.1433483
0.14408627
0.14464175
0.14507888
0.14548105
0.14577916
0.14599776
0.14612795
0.14622461
0.1462865
0.1463058
0.12192473
0.12225827
0.12264657
0.12310112
0.12363667
0.12427389
0.12505032
0.12600153
0.1269795
0.12782902
0.12872772
0.12999673
0.13146218
0.1330913
0.1346553
0.13617407
0.13751989
0.13880751
0.14016747
0.14137975
0.14239975
0.14326211
0.14393887
0.14448239
0.14498004
0.14534686
0.14563365
0.14581575
0.14595219
0.14604091
0.1460623
0.12369347
0.12399915
0.12434912
0.12474351
0.12518243
0.12566235
0.12617283
0.12670878
0.12732107
0.12810314
0.12897072
0.12983613
0.13100287
0.13231072
0.133833
0.13544578
0.13685922
0.13801814
0.13916015
0.14041194
0.14148015
0.14243807
0.14323312
0.14386978
0.14445524
0.14488486
0.14523303
0.1454716
0.14565074
0.14576764
0.14579294
0.12519511
0.12539745
0.1256312
0.12590223
0.12622074
0.12659975
0.12705696
0.12760685
0.12823992
0.12892337
0.12964479
0.13035044
0.13100932
0.13199042
0.13310387
0.13439117
0.13592685
0.13737867
0.13849085
0.13962664
0.14065709
0.14162748
0.14250559
0.14323195
0.14389522
0.14439317
0.14479161
0.14509156
0.14531828
0.14546455
0.14549845
0.12689926
0.12708379
0.12729529
0.12753541
0.12780667
0.12811119
0.1284472
0.12881291
0.12922174
0.12970472
0.13029286
0.13100302
0.13174766
0.13231954
0.13298814
0.13398349
0.13510141
0.13635913
0.1377949
0.13899745
0.13999352
0.14088116
0.14175182
0.14257359
0.14330325
0.1438711
0.14432094
0.14467695
0.14495345
0.14513103
0.14517951
0.12833133
0.12845256
0.12859259
0.12875478
0.12894461
0.12916853
0.12943448
0.12975256
0.13012724
0.13055127
0.13101669
0.13153761
0.13217174
0.13291404
0.1335474
0.13409062
0.13488008
0.13583502
0.13693175
0.1381835
0.13937123
0.14026927
0.14105266
0.1419383
0.14270629
0.14333191
0.14383423
0.14423534
0.14455547
0.14476689
0.14483659
0.1299029
0.13001335
0.13014007
0.13028452
0.13044854
0.13063369
0.13084116
0.13107154
0.1313269
0.13161592
0.13195029
0.13232425
0.13271964
0.13320223
0.13390514
0.13459481
0.13518621
0.13573562
0.13656481
0.13751392
0.13857787
0.13971395
0.14049867
0.14138326
0.14214601
0.14278513
0.14333197
0.14377141
0.14412551
0.14437208
0.14446976
0.13116185
0.13122644
0.13130109
0.13138756
0.13148864
0.13160792
0.13175016
0.13192172
0.13212551
0.13236439
0.13264595
0.13297983
0.13337448
0.1337832
0.13420036
0.13475994
0.13542973
0.13601656
0.13650703
0.13725119
0.13805484
0.13900275
0.14000326
0.14089467
0.14161031
0.14222331
0.14280044
0.14328324
0.14366915
0.14394811
0.14407718
0.13257686
0.13264032
0.13271306
0.13279591
0.13288974
0.13299502
0.13311166
0.13323906
0.13338218
0.13354571
0.13372677
0.13392729
0.13415631
0.1344494
0.13478348
0.13512684
0.1355711
0.13621155
0.13676964
0.13722867
0.13782589
0.13852826
0.13942465
0.14035456
0.14102783
0.14164998
0.14223781
0.142776
0.14319194
0.14349897
0.14365916
0.13360635
0.13363656
0.13367155
0.13371217
0.13376002
0.13381751
0.13388803
0.13397585
0.13408509
0.13422035
0.13438859
0.13459647
0.13484544
0.13512468
0.13544394
0.13578451
0.13609414
0.13643116
0.13687626
0.13737199
0.13777333
0.13834562
0.13910178
0.1397781
0.1404209
0.14110841
0.14169909
0.14226156
0.14270494
0.14303282
0.14321931
0.13474441
0.13477049
0.13480008
0.13483404
0.13487349
0.13491971
0.1349741
0.13503814
0.13511358
0.13520236
0.13530644
0.13542806
0.13557006
0.1357359
0.13592459
0.13614187
0.13641034
0.13672113
0.13700166
0.13740368
0.13788678
0.13834254
0.13893263
0.13944125
0.14001866
0.14066199
0.14123976
0.14177106
0.14222767
0.14256059
0.14276285
0.13537149
0.13538899
0.13540978
0.13543443
0.13546363
0.13549833
0.13553909
0.13558632
0.13564109
0.13570536
0.1357801
0.13586688
0.13596853
0.13609163
0.13624332
0.13642251
0.13662798
0.13687791
0.13721823
0.13754298
0.13798119
0.13841011
0.13882305
0.13925741
0.1397841
0.14030696
0.14084357
0.14132584
0.14176245
0.14209394
0.14230143
0.13611659
0.1361361
0.13615781
0.13618186
0.13620845
0.13623767
0.13627009
0.1363067
0.13634811
0.13639432
0.13644636
0.1365047
0.13657054
0.13665368
0.13676018
0.13689807
0.13707185
0.13727251
0.13751326
0.13778491
0.13804768
0.13835679
0.13868837
0.13909259
0.13954248
0.13998988
0.14046439
0.14091412
0.14131826
0.1416464
0.14185251
0.13658034
0.13658947
0.13660042
0.1366138
0.13663036
0.13665096
0.13667649
0.13670787
0.13674616
0.13679266
0.13684916
0.136918
0.13699942
0.137088
0.13718418
0.13729374
0.13742064
0.13756853
0.13773949
0.13793549
0.13816926
0.13840784
0.13867975
0.13901039
0.1393796
0.13977813
0.14019392
0.14060499
0.14098284
0.14129241
0.14148661
0.13693305
0.13694191
0.13695239
0.13696487
0.13697975
0.13699752
0.13701865
0.13704367
0.13707313
0.13710772
0.13714819
0.13719618
0.13725649
0.13732629
0.13740394
0.13749276
0.1375961
0.13771723
0.13786163
0.13803407
0.13823403
0.13846914
0.13872142
0.13899057
0.13931817
0.13968121
0.14006711
0.14045506
0.14081689
0.1411165
0.14130398
0.077361019
0.094441952
0.10575918
0.11413312
0.12110102
0.12739987
0.13318693
0.13812184
0.14293255
0.1474065
0.15150121
0.15521803
0.15857233
0.16154736
0.16411129
0.16607513
0.1670295
0.16657891
0.16382383
0.15984391
0.15719096
0.15544926
0.15407609
0.15290095
0.15185293
0.15100819
0.15032777
0.14980601
0.1494016
0.14913744
0.14896102
0.10022176
0.10881999
0.11536299
0.1210533
0.12652421
0.13186088
0.13683507
0.14141173
0.1457431
0.14973527
0.15339125
0.15672873
0.1597592
0.16245433
0.1647685
0.16645441
0.16710965
0.16633181
0.163235
0.15933077
0.15689013
0.15524375
0.15391491
0.15276605
0.1517403
0.15091702
0.15025346
0.14974394
0.14934791
0.14908933
0.14892348
0.10699645
0.11319273
0.11908011
0.12475179
0.13017073
0.13522432
0.13983966
0.14405606
0.14797311
0.15157576
0.15488656
0.15792543
0.16069738
0.16316518
0.16527179
0.16671426
0.16711642
0.16603676
0.16266362
0.15891211
0.15664264
0.15505952
0.15376417
0.1526382
0.1516328
0.15082882
0.15018069
0.14968257
0.14929447
0.14904128
0.14888023
0.1131279
0.11899477
0.12450274
0.12962009
0.13438572
0.13879965
0.14285311
0.14658821
0.15006352
0.1532785
0.15625568
0.15901093
0.16153945
0.16379335
0.16569805
0.16689109
0.16706647
0.16567937
0.16209442
0.1585044
0.1563864
0.15486664
0.15360698
0.15250524
0.1515216
0.15073815
0.15010629
0.14962015
0.14924033
0.14899278
0.14883556
0.11968085
0.12490046
0.12969348
0.13413841
0.13828436
0.14212361
0.14566016
0.1489347
0.15198925
0.15483722
0.1575012
0.15999169
0.16229276
0.16434495
0.16604749
0.16700635
0.1669779
0.16527953
0.16151613
0.15812238
0.15614283
0.15467907
0.15345222
0.15237371
0.15141149
0.15064799
0.15003196
0.14955754
0.14918587
0.14894397
0.14879018
0.12665961
0.13091885
0.1348831
0.13859594
0.14206901
0.14529747
0.14829916
0.15110602
0.15375057
0.15624983
0.15862083
0.16086551
0.16295535
0.16481853
0.16632173
0.16706739
0.16686144
0.16482953
0.16094325
0.15776282
0.15590328
0.15449148
0.15329654
0.1522411
0.15130053
0.15055705
0.14995693
0.14949434
0.1491309
0.14889476
0.14874422
0.13356789
0.13686549
0.13996771
0.14289874
0.14566498
0.14827368
0.15074119
0.15309012
0.15534355
0.15751543
0.15961435
0.16163215
0.1635273
0.1652159
0.1665293
0.16709677
0.16668696
0.16432877
0.16038385
0.15742455
0.1556698
0.15430604
0.15314171
0.1521089
0.15118992
0.15046615
0.14988172
0.14943084
0.14907558
0.14884522
0.14869808
0.14048637
0.14272371
0.14488095
0.14698516
0.14903627
0.15103052
0.15297581
0.1548845
0.15676905
0.15863607
0.16048396
0.16229369
0.16401114
0.16554136
0.16668129
0.1670895
0.16645908
0.16378617
0.15984675
0.15710489
0.15544029
0.15412176
0.15298714
0.15197669
0.15107929
0.15037504
0.14980618
0.14936699
0.14901989
0.14879536
0.14865157
0.14705916
0.14823423
0.1494667
0.15077283
0.15213714
0.15354178
0.15499069
0.1564851
0.1580267
0.15961296
0.16123141
0.162852
0.16440864
0.16579159
0.16676638
0.16703142
0.16617182
0.16320804
0.15933827
0.15680079
0.15521475
0.15393898
0.15283328
0.15184492
0.15096901
0.15028401
0.14973053
0.14930291
0.14896391
0.14874522
0.14860489
0.15304788
0.15324791
0.15364884
0.1542142
0.1549322
0.15578677
0.15677561
0.15788797
0.15911564
0.16044681
0.16185807
0.16330853
0.16472048
0.16596058
0.16678879
0.16692732
0.16583138
0.16262227
0.15886038
0.15650966
0.15499249
0.15375755
0.15268013
0.15171364
0.15085908
0.15019308
0.14965477
0.14923863
0.14890768
0.14869482
0.14855794
0.15837325
0.1577209
0.15736346
0.15725377
0.15738257
0.15774655
0.15832073
0.15908916
0.16003496
0.1611383
0.16236516
0.16366377
0.16494325
0.16604172
0.16675097
0.16678346
0.16544994
0.16203799
0.15841149
0.15622903
0.1547734
0.15357756
0.15252791
0.15158307
0.15074969
0.15010239
0.14957904
0.14917424
0.14885126
0.14864421
0.14851079
0.16291933
0.16155326
0.16053919
0.15984667
0.15947257
0.15940692
0.15961429
0.16008434
0.16078344
0.16168758
0.1627528
0.16391644
0.16507064
0.16605303
0.16667832
0.16659976
0.16503591
0.16146119
0.15798963
0.15595703
0.15455725
0.15339906
0.15237675
0.15145336
0.15064095
0.15001205
0.1495034
0.1491098
0.1487947
0.14859341
0.14846344
0.16655863
0.16464574
0.16312201
0.16197016
0.16118434
0.16075089
0.1606537
0.16086538
0.1613565
0.16209107
0.16301616
0.16405741
0.16511308
0.16602016
0.16656851
0.16637434
0.16459509
0.16089966
0.15759232
0.15569221
0.15434401
0.15322215
0.15222683
0.15132468
0.150533
0.14992216
0.14942795
0.14904537
0.14873805
0.14854247
0.14841591
0.16923234
0.16695218
0.1650787
0.16359389
0.16249491
0.16177552
0.16142569
0.16142168
0.16173536
0.1623272
0.16313863
0.16409723
0.16510332
0.16594357
0.16640671
0.1661035
0.16413361
0.16035577
0.15721692
0.1554335
0.15413366
0.15304699
0.15207835
0.15119719
0.15042597
0.14983285
0.14935277
0.14898103
0.14868136
0.1484914
0.14836821
0.17101254
0.16846932
0.1663652
0.16466163
0.16334899
0.16242285
0.16188035
0.16171402
0.16190199
0.16240234
0.16315888
0.16407639
0.16503329
0.16581032
0.16619872
0.16578982
0.16365446
0.15983218
0.15686136
0.15518028
0.15392628
0.15287375
0.1519315
0.15107112
0.15031995
0.14974421
0.14927797
0.14891684
0.14862469
0.14844025
0.14832035
0.17207668
0.16937312
0.1670965
0.16523315
0.16377621
0.1627173
0.16205062
0.16180326
0.16193881
0.16238804
0.16309908
0.16397716
0.16488687
0.16562039
0.16594958
0.1654461
0.16316538
0.15933074
0.15652357
0.15493217
0.15372196
0.15270261
0.15178648
0.15094661
0.15021505
0.14965634
0.14920362
0.14885286
0.14856809
0.14838904
0.14827235
0.17255145
0.16982396
0.16746076
0.16549803
0.16394931
0.16281294
0.16208452
0.16178592
0.1618692
0.16226675
0.162927
0.16377432
0.16466321
0.16537469
0.1656608
0.16507324
0.16267445
0.15885213
0.15620051
0.15468885
0.15352075
0.1525337
0.1516434
0.15082374
0.15011138
0.14956932
0.1491298
0.14878915
0.14851163
0.14833782
0.14822421
0.17178746
0.16937228
0.16719303
0.16531571
0.16379109
0.16265186
0.16191838
0.16158672
0.16161963
0.16198755
0.16262999
0.16347022
0.16436215
0.16507437
0.16533513
0.16467856
0.16218749
0.158396
0.1558903
0.15445013
0.15332262
0.15236713
0.1515024
0.15070263
0.15000906
0.14948325
0.1490566
0.14872581
0.14845536
0.14828663
0.14817597
0.16991848
0.16786456
0.16601246
0.16439911
0.16306361
0.16204855
0.16139606
0.16110823
0.16116371
0.16154943
0.16220764
0.16306598
0.16398358
0.16472045
0.16497537
0.16426821
0.1617097
0.15796211
0.15559137
0.15421577
0.15312764
0.15220309
0.15136368
0.15058345
0.14990826
0.14939827
0.14898417
0.14866292
0.14839936
0.14823551
0.14812764
0.16734481
0.16566339
0.16416591
0.16287683
0.16181563
0.16101779
0.16053419
0.16036119
0.16050137
0.16095288
0.16166065
0.16256233
0.16352754
0.16431366
0.16458443
0.16384913
0.16124495
0.15754975
0.15530203
0.15398608
0.15293636
0.15204216
0.15122773
0.15046663
0.14980932
0.14931462
0.14891267
0.14860062
0.14834373
0.1481845
0.14807924
0.16401883
0.16280773
0.16174374
0.1608451
0.16012297
0.159616
0.1593616
0.15935694
0.15963885
0.16019971
0.16099051
0.16196081
0.16299464
0.16385467
0.16416545
0.16342575
0.16079597
0.15715951
0.15502303
0.15376264
0.15275023
0.15188557
0.15109547
0.15035285
0.14971267
0.14923256
0.14884226
0.14853898
0.14828848
0.14813358
0.14803076
0.15992531
0.1592807
0.15875248
0.15832994
0.15802392
0.15786888
0.157883
0.15810608
0.15857896
0.15928938
0.16019619
0.161261
0.16238397
0.16334252
0.16372013
0.16300344
0.16036839
0.15679717
0.15475789
0.15354788
0.15257099
0.1517345
0.15096762
0.15024251
0.14961849
0.14915209
0.14877289
0.14847791
0.14823351
0.14808268
0.14798214
0.15499867
0.15497298
0.1550876
0.15525751
0.15546175
0.15572253
0.15607976
0.15658744
0.15730201
0.15820658
0.15926549
0.16045384
0.16168802
0.16277087
0.16324642
0.16258954
0.15997188
0.15647025
0.15450906
0.15334138
0.15239775
0.15158788
0.15084311
0.15013465
0.14952595
0.14907263
0.14870411
0.14841713
0.14817862
0.14803171
0.14793334
0.14937606
0.14970289
0.15038332
0.15120863
0.15205189
0.15287694
0.15372192
0.15461226
0.15566504
0.15684911
0.15812127
0.15947954
0.16085918
0.16210244
0.16272221
0.16217852
0.15961805
0.15617215
0.15426593
0.15313377
0.15222292
0.1514399
0.1507178
0.15002636
0.14943319
0.14899303
0.1486353
0.14835641
0.14812374
0.14798079
0.14788443
0.070679662
0.089631074
0.10198632
0.11108931
0.11850389
0.12504995
0.13105292
0.13638939
0.14141442
0.14610207
0.15041194
0.15433055
0.15786647
0.16100409
0.16371319
0.16583933
0.16696769
0.16669664
0.16413686
0.16016465
0.15740208
0.15560849
0.15420578
0.15300998
0.15194459
0.15108349
0.15038958
0.14985764
0.149446
0.14917677
0.14899407
0.069671428
0.089422689
0.10170535
0.11081361
0.11820272
0.12467627
0.13058478
0.1359328
0.14093947
0.14563404
0.14998127
0.15395559
0.15755358
0.16075419
0.16351805
0.16570893
0.16688877
0.16671799
0.16427557
0.16032243
0.15750881
0.15569549
0.15428184
0.1530781
0.15200512
0.15113529
0.15043355
0.14989542
0.14947933
0.14920676
0.14902502
0.069187421
0.089292682
0.10168719
0.110673
0.11791826
0.12427065
0.13007347
0.13537906
0.1403654
0.14507172
0.14946171
0.15349937
0.1571691
0.16044366
0.16327559
0.16554464
0.1668005
0.1667215
0.16442896
0.16049429
0.15761668
0.15577957
0.15435556
0.15314519
0.15206589
0.15118808
0.15047895
0.14993489
0.14951452
0.1492386
0.14905664
0.068577937
0.088954429
0.10151684
0.11041734
0.11757271
0.12383281
0.12954915
0.13481418
0.13978307
0.14449659
0.14892232
0.15301783
0.15675663
0.16010516
0.16300874
0.1653589
0.16670149
0.16671944
0.16458281
0.16068232
0.15773748
0.15587243
0.15443629
0.15321824
0.15213197
0.15124547
0.15052825
0.14997769
0.14955255
0.14927287
0.1490977
0.067688218
0.088216638
0.10108307
0.11005217
0.11719695
0.12340063
0.12904761
0.13427534
0.13922224
0.14393235
0.14838134
0.15252423
0.15632529
0.15974435
0.16272013
0.16515073
0.16658628
0.16670925
0.1647296
0.1608809
0.15786916
0.15597385
0.15452439
0.1532978
0.15220389
0.15130782
0.15058169
0.15002399
0.14959354
0.14930967
0.14913025
0.066706489
0.087298018
0.10051815
0.10965395
0.11682873
0.12299691
0.12858515
0.13377249
0.13868949
0.14338487
0.14784397
0.1520224
0.15587729
0.15936189
0.16240865
0.16491646
0.16645185
0.16668677
0.16486649
0.1610836
0.15800745
0.15608062
0.15461753
0.15338218
0.15228046
0.15137437
0.15063878
0.15007347
0.14963732
0.14934901
0.14916394
0.065759114
0.086285625
0.099887533
0.10923414
0.11646742
0.1226174
0.12815675
0.1333009
0.13818129
0.14285256
0.14730997
0.15151244
0.15541228
0.15895663
0.16207193
0.16465149
0.16629894
0.16665076
0.16499675
0.16128912
0.15815029
0.15619063
0.15471398
0.15347013
0.15236081
0.15144467
0.15069926
0.15012604
0.14968388
0.14939089
0.14919563
0.064867051
0.085181523
0.09916596
0.10876809
0.11609671
0.12225119
0.12775394
0.13285511
0.13769417
0.14233365
0.14677881
0.15099419
0.15492973
0.15852733
0.16170759
0.16435295
0.1661165
0.16659839
0.16511046
0.16150231
0.15829733
0.15630316
0.15481304
0.15356122
0.15244482
0.15151851
0.15076307
0.1501817
0.14973329
0.14943545
0.14924426
0.06406095
0.083999774
0.098345833
0.1082433
0.11570627
0.12189081
0.12737075
0.13243132
0.13722583
0.14182686
0.14625028
0.15046789
0.15442967
0.15807341
0.16131429
0.16402287
0.16589685
0.16652465
0.16520185
0.16171727
0.15844879
0.15641847
0.15491488
0.15365554
0.15253246
0.15159615
0.15083044
0.15024068
0.14978577
0.14948284
0.14929246
0.063376593
0.082767356
0.097432065
0.10766118
0.11529525
0.12153359
0.12700318
0.13202566
0.13677302
0.14132969
0.14572267
0.14993249
0.15391113
0.15759365
0.16089051
0.16366316
0.1656458
0.16642993
0.16527925
0.1619306
0.15860439
0.15653609
0.15501921
0.15375308
0.15262393
0.15167774
0.15090157
0.15030316
0.14984148
0.14953321
0.1493425
0.062924276
0.081592117
0.096479539
0.10704398
0.11486989
0.12117905
0.12664763
0.13163382
0.13633122
0.14083824
0.14519325
0.14938619
0.15337284
0.15708684
0.16043499
0.16327269
0.16535724
0.16628624
0.1653348
0.16214187
0.15876377
0.15665556
0.15512567
0.15385367
0.15271915
0.15176334
0.15097657
0.15036931
0.14990059
0.14958672
0.14939211
0.062816671
0.080557102
0.095505315
0.10639156
0.11443079
0.12082543
0.12629929
0.13124944
0.13589372
0.14034616
0.14465677
0.1488251
0.15281189
0.15655072
0.15994576
0.16284915
0.16503425
0.16611644
0.1653575
0.16234084
0.15892593
0.15677599
0.15523364
0.15395696
0.15281797
0.15185296
0.15105555
0.15043923
0.14996322
0.14964353
0.14944414
0.062979055
0.07975809
0.09462239
0.105761
0.11399504
0.12047298
0.12595136
0.1308631
0.13545069
0.13984454
0.14410581
0.14824356
0.15222419
0.15598232
0.15942047
0.16238982
0.16467575
0.1659121
0.16534856
0.16251863
0.15908999
0.15689649
0.15534234
0.15406248
0.15292009
0.15194644
0.1511385
0.15051303
0.15002951
0.14970381
0.14949924
0.063611022
0.079420008
0.093923706
0.10518185
0.11356998
0.12011572
0.12559109
0.13045982
0.13498729
0.13931994
0.1435294
0.14763332
0.15160382
0.1553774
0.1588561
0.16189167
0.16427836
0.16566197
0.16530517
0.16268052
0.15925484
0.15701552
0.15545088
0.15416967
0.15302525
0.15204375
0.15122551
0.15059077
0.15009955
0.14976769
0.14955831
0.06486634
0.079548137
0.093451754
0.10467997
0.11314808
0.11973198
0.12519313
0.13001475
0.13448141
0.13875363
0.14291253
0.14698301
0.15094271
0.15473039
0.15824873
0.16135128
0.16383851
0.16536242
0.16521532
0.16282182
0.15942027
0.15713239
0.15555818
0.1542778
0.15313287
0.15214445
0.1513164
0.1506725
0.15017346
0.14983533
0.14962192
0.066663503
0.080209574
0.09337917
0.10425161
0.11266757
0.11925934
0.12470562
0.12948625
0.13389994
0.1381196
0.14223538
0.14627799
0.15023039
0.15403427
0.15759349
0.1607647
0.16335301
0.16501366
0.16507107
0.16293325
0.15958133
0.15724451
0.15566337
0.1543862
0.1532427
0.15224862
0.15141131
0.15075828
0.15025133
0.14990682
0.14968981
0.068882247
0.081384925
0.093531879
0.10391129
0.11215467
0.11868557
0.12409212
0.12883213
0.13320424
0.13738597
0.14147282
0.14549986
0.14945412
0.15328034
0.15688444
0.1601272
0.16281746
0.1646096
0.16487418
0.16300081
0.15974143
0.15735161
0.15576457
0.15449365
0.15335387
0.1523554
0.15150982
0.15084803
0.15033322
0.1499823
0.14976146
0.071419906
0.082842563
0.093978128
0.1037027
0.11159755
0.11796374
0.12329453
0.12799617
0.13234609
0.13651459
0.14059622
0.14462798
0.14859943
0.15245869
0.15611459
0.15943239
0.16222224
0.16414676
0.16466172
0.16303841
0.15988729
0.15744994
0.15586225
0.15459954
0.15346562
0.15246483
0.15161204
0.15094177
0.15041917
0.15006181
0.14983687
0.074126459
0.084381708
0.094330437
0.1032295
0.11068581
0.11688469
0.12217566
0.12688652
0.13126256
0.13546163
0.13957491
0.14364103
0.14765177
0.15155931
0.15527663
0.15867319
0.16155922
0.1636138
0.16436131
0.16303677
0.15999817
0.15753871
0.15595077
0.15470186
0.15357796
0.15257609
0.15171742
0.15103922
0.15050912
0.15014549
0.14991634
0.076461507
0.085529096
0.094277294
0.10231698
0.10933637
0.11538597
0.12067866
0.12545377
0.1299134
0.1341959
0.1383855
0.1425214
0.14659867
0.15057382
0.15436464
0.15784573
0.16083139
0.16303159
0.16401371
0.16299688
0.16009361
0.1576175
0.15603694
0.15480015
0.15368701
0.15268789
0.15182549
0.15114042
0.15060315
0.15023327
0.15000004
0.077924567
0.08588499
0.093751538
0.10104046
0.10763872
0.11353665
0.1188441
0.12371583
0.12830201
0.13271337
0.13702147
0.14126295
0.14543495
0.14949821
0.15337617
0.15694988
0.16004206
0.16238627
0.16358255
0.16287974
0.16019339
0.15768013
0.1561048
0.15489244
0.15379732
0.1528018
0.15193657
0.15124473
0.15070082
0.15032529
0.15008801
0.078490129
0.085561611
0.092572613
0.099301484
0.10558669
0.11138074
0.11672847
0.12172242
0.12646501
0.13103803
0.13549729
0.1398739
0.14416543
0.14833554
0.1523136
0.15598819
0.159193
0.16168204
0.163084
0.16267301
0.1602672
0.15773346
0.15617079
0.15497548
0.15389858
0.15291154
0.15204788
0.15135222
0.15080257
0.15042133
0.15018026
0.078208821
0.084543481
0.090931883
0.097230104
0.10328225
0.10901551
0.11442578
0.11955598
0.12446895
0.1292202
0.13384925
0.13837947
0.14280686
0.14709734
0.15118516
0.15496684
0.15828833
0.16092451
0.16253755
0.16242783
0.16026707
0.15774666
0.15622166
0.15505313
0.15399815
0.15302482
0.15216272
0.15146195
0.15090706
0.1505214
0.15027686
0.077258334
0.08299268
0.088930273
0.094917451
0.10081872
0.10653864
0.11203346
0.11730782
0.12239462
0.12732718
0.13213068
0.13682028
0.14138929
0.14580513
0.15000621
0.1538966
0.15733479
0.16011557
0.16193295
0.1621598
0.1602458
0.15774394
0.15623769
0.15511091
0.15409282
0.1531288
0.15227395
0.1515736
0.15101571
0.15062532
0.15037742
0.075777296
0.081078576
0.086677487
0.092449389
0.098266727
0.10401571
0.10962055
0.11505299
0.12031814
0.12542998
0.13040346
0.13524739
0.13995315
0.1444896
0.14879927
0.15279334
0.15634193
0.15925626
0.16125494
0.16180718
0.16018488
0.1577434
0.15624584
0.15516024
0.15416386
0.15323211
0.15238818
0.15168655
0.15112537
0.15073252
0.15048206
0.074040883
0.078982852
0.084304761
0.089907937
0.095675953
0.10148453
0.10722993
0.11284344
0.11829758
0.12359049
0.1287282
0.13371565
0.13854493
0.14318818
0.14759311
0.15167826
0.15532427
0.15835737
0.16051518
0.16131842
0.16006915
0.15773776
0.15623988
0.15518826
0.15425107
0.15333165
0.15249727
0.15179913
0.15123936
0.15084345
0.1505902
0.072325769
0.076965263
0.082039805
0.087478479
0.093186975
0.099043636
0.10492453
0.11072645
0.11638191
0.12186112
0.12715895
0.13227754
0.13721225
0.14194156
0.14642084
0.15057737
0.1543025
0.15743815
0.159743
0.16079745
0.15990374
0.15771329
0.15622767
0.15519197
0.15429933
0.15340947
0.15260159
0.15191201
0.15135181
0.15095599
0.15070183
0.071003098
0.075375018
0.080210109
0.085464166
0.091066369
0.09691005
0.10286841
0.10881515
0.11464715
0.12029991
0.12574628
0.13098019
0.1359989
0.14078874
0.14531546
0.14951773
0.15329891
0.15651579
0.15895007
0.16023319
0.1597069
0.15768679
0.15620051
0.15517494
0.1543339
0.15349909
0.15270771
0.15202122
0.15146821
0.15107238
0.15081616
0.070391055
0.0745308
0.07913467
0.084178332
0.08961519
0.095359286
0.10129753
0.10729811
0.11323149
0.11900267
0.12455798
0.12987466
0.13494611
0.1397645
0.14430656
0.14852362
0.15233291
0.15560611
0.15814656
0.15962609
0.15939912
0.15763285
0.15612293
0.15514216
0.15436461
0.15355926
0.15279263
0.15212901
0.15158101
0.15118754
0.15093268
0.070614952
0.074548599
0.078940459
0.083772889
0.089013741
0.094595242
0.10041979
0.10635805
0.11228206
0.11807987
0.12367136
0.12901312
0.13408957
0.13889494
0.14341511
0.14761321
0.15142005
0.15472237
0.15734405
0.1589948
0.15910851
0.15750708
0.15605326
0.15512763
0.15435853
0.15360011
0.15288276
0.15222994
0.1516944
0.15130653
0.15105117
0.071919056
0.075513831
0.07959438
0.084160755
0.089178229
0.094575514
0.10023087
0.10602594
0.1118426
0.1175726
0.12311403
0.12840933
0.13343432
0.13818133
0.14264222
0.14678998
0.15056634
0.15387158
0.1565481
0.15833758
0.15872916
0.15736808
0.15599434
0.15509075
0.15432335
0.15364648
0.1529597
0.15232523