/*--------------------------------*- C++ -*----------------------------------*\
| =========                 |                                                 |
| \\      /  F ield         | OpenFOAM: The Open Source CFD Toolbox           |
|  \\    /   O peration     | Version:  2406                                  |
|   \\  /    A nd           | Website:  www.openfoam.com                      |
|    \\/     M anipulation  |                                                 |
\*---------------------------------------------------------------------------*/
FoamFile
{
    version     2.0;
    format      ascii;
    arch        "LSB;label=32;scalar=64";
    class       surfaceScalarField;
    location    "0.039";
    object      phi;
}
// * * * * * * * * * * * * * * * * * * * * * * * * * * * * * * * * * * * * * //

dimensions      [1 0 -1 0 0 0 0];

oriented        oriented;

internalField   nonuniform List<scalar> 
16284
(
0.01048709
-0.014629741
0.015075355
-0.010932734
0.010045429
-0.017177819
0.01761945
0.0095824886
-0.020101688
0.020564604
0.0091014732
-0.023480459
0.023961455
0.00860958
-0.027383298
0.027875178
0.0081170949
-0.031876542
0.032369027
0.0076359781
-0.037035202
0.037516326
0.0071758497
-0.042949363
0.043409504
0.0067424511
-0.049742049
0.050175463
0.0063380136
-0.057554458
0.057958908
0.0059629742
-0.06651439
0.066889435
0.0056127457
-0.076787318
0.077137539
0.0052769869
-0.088538964
0.088874696
0.0049381462
-0.10189626
0.10223506
0.0045675057
-0.11669964
0.11707023
0.0040983881
-0.13260177
0.13307087
0.0035170028
-0.14880117
0.14938253
0.002995187
-0.16615491
0.16667668
0.0026107096
-0.18708295
0.18746742
0.0022879682
-0.2113752
0.21169798
0.0020000644
-0.23898164
0.23926949
0.0017374018
-0.27029596
0.27055857
0.0014945265
-0.30571544
0.30595828
0.0012676655
-0.34575079
0.34597765
0.0010601012
-0.39119257
0.3914001
0.00086948561
-0.44296848
0.44315902
0.00069105111
-0.50178849
0.50196692
0.00051979079
-0.56864467
0.56881597
0.00035099841
-0.64453715
0.64470596
0.00017981852
-0.73092701
0.73109828
-0.82907932
0.82925919
0.011623842
-0.014239388
-0.012014218
0.011185353
-0.01673935
0.010720169
-0.01963652
0.010232127
-0.022992427
0.0097259714
-0.026877145
0.0092109485
-0.031361515
0.0086988677
-0.03652311
0.0082014932
-0.042451971
0.0077249947
-0.049265532
0.007272529
-0.057101977
0.0068466524
-0.066088508
0.0064441246
-0.076384802
0.0060546403
-0.088149515
0.0056548848
-0.10149655
0.0052138565
-0.11625866
0.0046559379
-0.13204386
0.0039770135
-0.14812227
0.0033921934
-0.16557013
0.0029619744
-0.18665273
0.0025967465
-0.21100993
0.0022700503
-0.23865501
0.0019718598
-0.26999784
0.0016958513
-0.30543948
0.0014383161
-0.34549327
0.0012029609
-0.39095727
0.00098670566
-0.44275231
0.00078434343
-0.50158614
0.00058990843
-0.5684502
0.00039832608
-0.64434554
0.00020392136
-0.73073251
-0.82887534
0.012759429
-0.013898208
-0.013100617
0.012361477
-0.016341406
0.011920076
-0.019195123
0.011443278
-0.022515629
0.01093759
-0.026371451
0.010412081
-0.030835994
0.009878367
-0.035989379
0.0093493389
-0.041922923
0.0088333435
-0.048749517
0.0083334912
-0.056602111
0.0078547694
-0.065609788
0.0073951451
-0.075925203
0.0069445751
-0.087698996
0.0064745873
-0.10102663
0.0059497248
-0.11573386
0.0052842808
-0.13137843
0.0044964256
-0.14733443
0.0038523778
-0.16492613
0.0033715416
-0.1861719
0.0029571005
-0.21059543
0.0025850208
-0.23828302
0.0022450514
-0.26965794
0.0019300067
-0.30512448
0.0016364631
-0.34519973
0.0013685349
-0.39068939
0.0011223003
-0.44250618
0.00089211925
-0.50135597
0.00067085073
-0.5682289
0.00045302439
-0.64412768
0.00023187899
-0.73051126
-0.8286434
0.013910193
-0.013615058
-0.014193336
0.013568297
-0.015999501
0.013171719
-0.018798535
0.012726524
-0.022070422
0.012239417
-0.025884328
0.011719148
-0.030315706
0.011176981
-0.03544719
0.010625868
-0.041371787
0.010075865
-0.048199495
0.0095317657
-0.056058004
0.0089996141
-0.065077648
0.0084787486
-0.075404377
0.0079593518
-0.087179666
0.007408247
-0.1004756
0.0067826682
-0.11510835
0.0059872999
-0.13058307
0.0050785573
-0.1464257
0.0043757774
-0.16422341
0.0038358028
-0.18563191
0.0033649275
-0.21012448
0.0029411646
-0.23785936
0.0025537396
-0.2692706
0.0021943538
-0.30476516
0.0018601541
-0.34486553
0.0015555734
-0.39038488
0.0012755254
-0.44222626
0.0010139844
-0.50109445
0.00076236358
-0.56797725
0.00051485423
-0.64388015
0.00026339908
-0.73025967
-0.82837992
0.01507263
-0.013398573
-0.015289093
0.014797521
-0.01572437
0.014462117
-0.018463109
0.014068206
-0.021676488
0.013619961
-0.025436058
0.013124221
-0.02981994
0.012590767
-0.034913711
0.012031556
-0.040812553
0.011457371
-0.047625296
0.010875087
-0.055475722
0.010291234
-0.064493825
0.009706238
-0.074819441
0.0091101816
-0.086583696
0.0084651214
-0.099830639
0.007716802
-0.1143601
0.0067662838
-0.12963257
0.0057302995
-0.14538972
0.0049697631
-0.16346294
0.0043634208
-0.18502555
0.0038291643
-0.20959012
0.0033471168
-0.23737746
0.002905811
-0.2688294
0.0024957945
-0.3043552
0.0021153218
-0.34448507
0.0017690294
-0.39003867
0.0014503692
-0.44190774
0.0011530623
-0.50079718
0.00086676088
-0.56769092
0.00058545389
-0.64359882
0.00029937654
-0.72997344
-0.82808046
0.016236906
-0.013256038
-0.016379408
0.016038558
-0.015525992
0.015778407
-0.01820293
0.015453825
-0.021351878
0.015064874
-0.02504708
0.014614776
-0.029369817
0.014110257
-0.03440917
0.013560947
-0.040263229
0.012976961
-0.047041308
0.012366193
-0.054864975
0.011735261
-0.063862946
0.011084941
-0.074169206
0.01040435
-0.085903212
0.0096498192
-0.099076218
0.0087504853
-0.11346084
0.0076176581
-0.12849974
0.0064607407
-0.14423279
0.0056415438
-0.16264381
0.0049614272
-0.18434538
0.0043556653
-0.20898422
0.0038077617
-0.23682975
0.0033053239
-0.26832709
0.002837673
-0.30388762
0.0024048062
-0.34405221
0.002011361
-0.38964533
0.0016489072
-0.44154545
0.0013110409
-0.50045937
0.00098531329
-0.56736519
0.00066566946
-0.64327916
0.00034018052
-0.72964778
-0.82774017
0.017399137
-0.01319232
-0.017462821
0.017284819
-0.015411644
0.017111252
-0.01802934
0.016871136
-0.021111743
0.016559771
-0.024735696
0.016175774
-0.028985805
0.015721445
-0.033954832
0.015202517
-0.039744303
0.014626575
-0.046465387
0.014000634
-0.054239084
0.013330225
-0.06319262
0.012615058
-0.073454154
0.011841348
-0.085129633
0.010957784
-0.098192777
0.0098711312
-0.11237425
0.0085330041
-0.1271616
0.007281813
-0.14298157
0.0063977546
-0.16175983
0.0056374265
-0.18358498
0.0049519292
-0.20829854
0.0043301997
-0.23620826
0.0037587829
-0.26775582
0.0032258158
-0.30335473
0.0027337471
-0.34356015
0.0022870253
-0.38919872
0.0018748607
-0.44113348
0.0014908896
-0.50007547
0.0011202396
-0.56699456
0.00075706076
-0.64291598
0.00038661997
-0.72927714
-0.82735343
0.018572307
-0.013207725
-0.018556884
0.018544107
-0.015383431
0.018461174
-0.017946397
0.018313505
-0.020964067
0.018092247
-0.024514436
0.017790855
-0.028684417
0.017405977
-0.033569969
0.016937775
-0.03927613
0.016389119
-0.045916783
0.015763609
-0.053613658
0.015063451
-0.062492583
0.014284564
-0.072675414
0.013406228
-0.084251447
0.012367745
-0.097154428
0.011049714
-0.11105626
0.0095019145
-0.12561376
0.0082025898
-0.14168221
0.0072449607
-0.1608023
0.0063982467
-0.18273816
0.0056248017
-0.20752484
0.0049206526
-0.23550443
0.0042716973
-0.26710703
0.0036651634
-0.30274828
0.00310648
-0.34300149
0.0025998089
-0.38869219
0.0021314762
-0.44066536
0.0016952107
-0.49963931
0.0012735133
-0.56657291
0.00086097053
-0.64250344
0.00043934007
-0.72885527
-0.82691395
0.019765646
-0.013295586
-0.019677802
0.019819688
-0.015437494
0.019826426
-0.017953155
0.019773467
-0.020911131
0.019648627
-0.024389622
0.019440372
-0.028476196
0.019139226
-0.033268867
0.018738607
-0.038875573
0.01823465
-0.045412914
0.017624678
-0.05300381
0.016904314
-0.061772379
0.016060804
-0.071832084
0.015056894
-0.083247707
0.013828089
-0.095925762
0.012240216
-0.1094684
0.010524481
-0.12389795
0.0092257614
-0.14038343
0.0081890818
-0.15976574
0.00724914
-0.18179802
0.0063810513
-0.20665643
0.0055857563
-0.23470953
0.0048502019
-0.26637167
0.0041616823
-0.30205985
0.003528422
-0.34236826
0.0029545134
-0.38811843
0.0024229316
-0.44013403
0.0019273618
-0.49914387
0.0014476903
-0.56609334
0.00097916512
-0.64203494
0.00049930444
-0.72837515
-0.82641448
0.020990262
-0.013444203
-0.020841699
0.021114729
-0.01556202
0.021202767
-0.018041245
0.02124002
-0.020948434
0.021210027
-0.024359682
0.021096654
-0.028362884
0.020884745
-0.03305703
0.020560641
-0.03855156
0.020112198
-0.044964593
0.019527584
-0.052419358
0.018791804
-0.061036803
0.017877156
-0.070917649
0.016722924
-0.082093664
0.015234716
-0.094437683
0.013369176
-0.10760285
0.011612617
-0.12214128
0.010342556
-0.1391133
0.0092329699
-0.15865624
0.0081913645
-0.18075618
0.0072281434
-0.20569292
0.0063312817
-0.23381306
0.0054992799
-0.26553987
0.0047207051
-0.30128136
0.0040044775
-0.34165205
0.0033555398
-0.38746965
0.0027532371
-0.43953202
0.0021905871
-0.49858141
0.001645298
-0.56554821
0.0011133381
-0.64150303
0.00056744252
-0.72782895
-0.82584685
0.022246907
-0.01364847
-0.022042696
0.022431324
-0.015746504
0.022585335
-0.018195334
0.02269451
-0.021057691
0.022742312
-0.024407562
0.022710196
-0.028330847
0.022578253
-0.032925171
0.022325613
-0.038299024
0.021930214
-0.044569336
0.021367615
-0.051856957
0.020607215
-0.060276654
0.019595698
-0.069906376
0.018228138
-0.080726302
0.016414736
-0.092624383
0.014445873
-0.10563394
0.012848968
-0.12054423
0.011571263
-0.13783549
0.010351181
-0.15743621
0.0092378651
-0.17964268
0.0081577919
-0.20461255
0.0071473897
-0.23280307
0.006223524
-0.26461619
0.0053476234
-0.30040554
0.0045397358
-0.34084419
0.0038076329
-0.3867377
0.0031268734
-0.43885159
0.0024886242
-0.49794343
0.0018693098
-0.56492914
0.0012654666
-0.64089927
0.00064499064
-0.72720813
-0.82520165
0.023425555
-0.013884829
-0.023189279
0.023648955
-0.015970003
0.023849261
-0.018395732
0.02401092
-0.021219429
0.024116242
-0.024512953
0.024144748
-0.028359414
0.024072621
-0.032853108
0.023871779
-0.038098266
0.023508309
-0.044206006
0.022940004
-0.051288888
0.022111905
-0.059448881
0.020936924
-0.06873167
0.019312048
-0.079101589
0.017318783
-0.090631161
0.015556614
-0.10387171
0.014155151
-0.1191426
0.012823202
-0.13650339
0.011583783
-0.15619683
0.010354786
-0.17841347
0.009187658
-0.20344511
0.0080749208
-0.23169072
0.0070146308
-0.26355603
0.006041809
-0.29943281
0.0051383483
-0.33994077
0.0043147458
-0.38591425
0.0035476842
-0.43808491
0.0028249384
-0.49722105
0.0021227041
-0.56422725
0.00143744
-0.64021415
0.00073312952
-0.72650344
-0.82446828
0.024340161
-0.014120637
-0.024104405
0.024567485
-0.016197348
0.024773742
-0.018602
0.024945252
-0.021390945
0.025064429
-0.02463213
0.025108923
-0.028403897
0.025050558
-0.032794725
0.024852467
-0.037900166
0.024466009
-0.043819604
0.023826167
-0.050649249
0.022852737
-0.058475861
0.021483153
-0.067362465
0.019813252
-0.077431856
0.018217223
-0.089035189
0.016822596
-0.10247711
0.015499753
-0.11781964
0.0141912
-0.13519463
0.012859843
-0.15486537
0.011560263
-0.17711369
0.010279345
-0.20216404
0.0090611362
-0.23047267
0.0079030381
-0.26239794
0.0068070614
-0.29833692
0.0058043787
-0.33893815
0.0048807687
-0.38499081
0.0040191793
-0.43722377
0.0032031252
-0.49640548
0.0024088376
-0.56343346
0.0016313063
-0.63943682
0.00083280541
-0.72570452
-0.8236352
0.024266812
-0.014320572
-0.024066902
0.024453288
-0.016383839
0.024618575
-0.018767283
0.024758847
-0.021531177
0.024864041
-0.024737233
0.024904242
-0.028443937
0.024836812
-0.03272705
0.02461406
-0.037677048
0.024186225
-0.043391334
0.023503023
-0.049965709
0.022556486
-0.05752941
0.021419572
-0.066226022
0.02028691
-0.07629965
0.019224058
-0.087972688
0.01810855
-0.10136192
0.016866673
-0.11657786
0.015529267
-0.13385701
0.014183821
-0.15351964
0.012809567
-0.17573916
0.011451726
-0.20080605
0.010130955
-0.2291518
0.0088537102
-0.26112048
0.0076545182
-0.29713779
0.0065280982
-0.33781179
0.005508943
-0.38397186
0.004544443
-0.43625977
0.003626998
-0.49548866
0.0027311537
-0.56253829
0.0018488485
-0.6385548
0.00094432158
-0.72479955
-0.82269056
0.023161955
-0.014570293
-0.022912292
0.023397485
-0.016619445
0.023597062
-0.018966959
0.023730738
-0.02166498
0.023772891
-0.024779519
0.023723694
-0.028394839
0.02358376
-0.032587109
0.023365275
-0.037458334
0.023089442
-0.043114993
0.022729284
-0.049604846
0.022268784
-0.05706797
0.02171601
-0.065672446
0.021086725
-0.075670366
0.020295024
-0.087181498
0.019291868
-0.10035925
0.018132354
-0.11541852
0.016853417
-0.13257784
0.015486155
-0.15215199
0.014086944
-0.17433952
0.01265137
-0.19937016
0.011244096
-0.22774419
0.0098735777
-0.25974951
0.0085599243
-0.29582403
0.0073407127
-0.33659266
0.006204081
-0.38283546
0.0051296613
-0.43518592
0.0041013282
-0.4944611
0.0030890772
-0.56152684
0.0020915798
-0.63755769
0.0010667618
-0.72377428
-0.82162341
0.020768469
-0.014875417
-0.020463449
0.021102667
-0.016953774
0.021466927
-0.019331375
0.021856921
-0.022055158
0.022246065
-0.025168883
0.022596021
-0.028745088
0.022856009
-0.032847533
0.02292314
-0.037526136
0.022773687
-0.042966372
0.022547974
-0.049380116
0.022365933
-0.05688638
0.022123506
-0.065429416
0.021679307
-0.075224791
0.021023878
-0.086525189
0.020192533
-0.099527493
0.019189054
-0.11441464
0.018017547
-0.13140579
0.016713287
-0.15084726
0.015318541
-0.17294436
0.013868114
-0.19791924
0.01239817
-0.22627373
0.01094546
-0.25829611
0.0095417603
-0.29442005
0.0082071069
-0.33525803
0.006965963
-0.3815945
0.0057718212
-0.43399241
0.0046227353
-0.49331291
0.0034908293
-0.56039584
0.0023640241
-0.6364314
0.0011983467
-0.7226082
-0.82042459
0.019214659
-0.015116276
-0.018973859
0.019474971
-0.017214162
0.019755039
-0.019611539
0.020052169
-0.022352424
0.02036977
-0.025486664
0.020704607
-0.029080166
0.021078288
-0.033221509
0.021559493
-0.038007704
0.02202352
-0.043431154
0.022235068
-0.049592935
0.022127647
-0.056781339
0.021999879
-0.065304735
0.021765003
-0.074990371
0.021313157
-0.086071135
0.020677175
-0.098889818
0.019890979
-0.11362724
0.018933142
-0.13044687
0.017756533
-0.14966982
0.016442456
-0.17163005
0.015037829
-0.19651437
0.013543192
-0.22477855
0.0120403
-0.25679239
0.010569848
-0.29294918
0.0091460261
-0.33383409
0.0077910047
-0.38023956
0.0064769108
-0.43267901
0.0052002491
-0.49203721
0.0039344125
-0.55913095
0.0026635477
-0.6351612
0.0013464751
-0.72129082
-0.81907754
0.018870109
-0.015353297
-0.018633177
0.019123666
-0.017467824
0.019392553
-0.019880549
0.019675804
-0.022635814
0.019974663
-0.025785678
0.020285185
-0.02939086
0.020583709
-0.033520238
0.020828186
-0.038252466
0.02107033
-0.043673323
0.02138811
-0.04990995
0.021591853
-0.056983475
0.021445707
-0.065158591
0.021285376
-0.074832629
0.021137628
-0.085925837
0.020792381
-0.098545364
0.020244329
-0.11307936
0.019510129
-0.12971216
0.018547673
-0.14870631
0.017366978
-0.17044902
0.016094255
-0.19524208
0.014668105
-0.22335231
0.013152481
-0.25527618
0.011630095
-0.29142629
0.010122233
-0.33232611
0.0086704502
-0.37878783
0.0072402906
-0.4312495
0.0058254213
-0.49062335
0.0044186953
-0.55772515
0.0029992443
-0.63374262
0.0015110995
-0.71980254
-0.81756576
0.018118831
-0.01558258
-0.017889418
0.018371144
-0.017719985
0.01864677
-0.020155991
0.018945114
-0.022933937
0.019263312
-0.026103609
0.019594975
-0.029722205
0.019930357
-0.033855236
0.020256825
-0.038578441
0.020571911
-0.043987819
0.020859899
-0.050197496
0.021213118
-0.057336031
0.021480509
-0.065423602
0.021343537
-0.074693987
0.02103042
-0.08561446
0.020792998
-0.098311745
0.020450367
-0.11273999
0.019907207
-0.12917119
0.01913729
-0.14793645
0.018125156
-0.16943643
0.01698346
-0.19410142
0.015674692
-0.22204417
0.014219283
-0.25382087
0.01269253
-0.28989945
0.011145043
-0.33077873
0.0096026789
-0.37724561
0.0080538183
-0.42970121
0.0065029167
-0.48907336
0.0049440287
-0.55616709
0.0033617589
-0.63216141
0.0016937105
-0.71813455
-0.81587128
0.017745394
-0.015798115
-0.017529777
0.017982046
-0.017956546
0.018240516
-0.02041436
0.018521107
-0.02321442
0.018823991
-0.026406377
0.0191497
-0.030047799
0.01950006
-0.034205495
0.019878142
-0.038956468
0.020278245
-0.044387975
0.020679475
-0.0505989
0.021043891
-0.057700959
0.021466061
-0.065846619
0.021856225
-0.075083885
0.021801505
-0.085558463
0.021255825
-0.097765243
0.020669403
-0.11215606
0.020182978
-0.12869018
0.019618079
-0.14737497
0.018823488
-0.16864162
0.0177926
-0.19307129
0.016600556
-0.22085305
0.015223709
-0.2524447
0.013727159
-0.28840354
0.01217312
-0.32922528
0.010552237
-0.37562509
0.0089082945
-0.42805774
0.0072117154
-0.48737726
0.0054999769
-0.55445595
0.0037495545
-0.6304122
0.0018936813
-0.71627899
-0.81397679
0.016828996
-0.016001232
-0.016625794
0.017054434
-0.018181909
0.017303253
-0.020663104
0.017576196
-0.023487291
0.017873035
-0.026703158
0.018191873
-0.030366602
0.018527851
-0.034541489
0.018872684
-0.039301405
0.019217362
-0.044732901
0.01955618
-0.050938202
0.019893991
-0.05803959
0.020222769
-0.066176946
0.02067354
-0.075537413
0.02132077
-0.086207649
0.021723797
-0.098166001
0.021458552
-0.1118873
0.020771602
-0.12800268
0.020113382
-0.14671841
0.019478139
-0.16800879
0.018560407
-0.19215413
0.017451067
-0.21974399
0.016182011
-0.25117626
0.014704035
-0.28692637
0.013176095
-0.32769824
0.011519916
-0.37396945
0.0097663446
-0.42630431
0.0079426052
-0.48555336
0.0060750134
-0.55258847
0.0041481188
-0.62848651
0.0021097777
-0.71424127
-0.8118663
0.016323679
-0.016190678
-0.016134431
0.016533582
-0.018392023
0.016765712
-0.020895471
0.01702141
-0.023743251
0.017301874
-0.026983905
0.017608145
-0.03067316
0.017941575
-0.034875183
0.018303906
-0.039663923
0.018694499
-0.045123523
0.019105483
-0.051348934
0.019514062
-0.058447503
0.019882056
-0.066543677
0.020132652
-0.075786243
0.020310925
-0.086385558
0.020720041
-0.098578271
0.021217611
-0.11238595
0.021236296
-0.12801489
0.020624096
-0.14610342
0.019904815
-0.16729155
0.0191818
-0.19143105
0.018237577
-0.2187997
0.017054023
-0.24999353
0.015620245
-0.2854927
0.014107036
-0.32618546
0.012416973
-0.37227972
0.010588986
-0.42447612
0.0086642575
-0.48362785
0.0066533299
-0.55057703
0.0045540314
-0.62638819
0.0023359747
-0.71202431
-0.80952996
0.015191569
-0.016364546
-0.015017898
0.015384997
-0.01858567
0.015599487
-0.021110216
0.0158362
-0.023980261
0.01609579
-0.027243836
0.016378091
-0.03095585
0.016681669
-0.035179186
0.017003224
-0.03998592
0.017337657
-0.045458365
0.017680902
-0.05169247
0.018034569
-0.058801216
0.018402995
-0.066911785
0.018783584
-0.07616601
0.019129191
-0.086729249
0.019404508
-0.098850866
0.019762
-0.11274319
0.020339303
-0.1285973
0.020625087
-0.146392
0.020171086
-0.16683607
0.019483796
-0.19074095
0.018680735
-0.21799587
0.017703635
-0.24901856
0.016407659
-0.28419666
0.014914534
-0.32469167
0.013236888
-0.37060215
0.011358164
-0.42259701
0.0093282509
-0.48159698
0.0072043256
-0.54845224
0.0049489244
-0.62413343
0.0025627896
-0.70963972
-0.80696746
0.014749048
-0.016524881
-0.014588831
0.014927694
-0.018764467
0.015126527
-0.021309227
0.01534717
-0.024201117
0.015591213
-0.027488133
0.01586016
-0.0312251
0.016155361
-0.035474748
0.016477993
-0.040308981
0.016829457
-0.045810336
0.017209439
-0.052073043
0.017611636
-0.059204083
0.018026229
-0.067327114
0.018445208
-0.076585821
0.018851655
-0.087136768
0.019145922
-0.099146178
0.019284927
-0.1128826
0.019341228
-0.12865356
0.019673697
-0.14672541
0.019848196
-0.16700902
0.019414814
-0.19030375
0.018669879
-0.21724909
0.017782461
-0.24813108
0.016878431
-0.28329367
0.015565037
-0.32337815
0.013892868
-0.36893015
0.01198368
-0.42068772
0.0099092246
-0.47952214
0.0076899039
-0.54623232
0.0053088833
-0.62175271
0.0027757332
-0.70710825
-0.80419264
0.013470835
-0.016668473
-0.013327218
0.013631574
-0.018925171
0.01381082
-0.021488427
0.014009976
-0.02440021
0.014230218
-0.027708293
0.014472319
-0.031467091
0.014736354
-0.035738641
0.015021158
-0.040593603
0.015324537
-0.046113478
0.015643585
-0.05239179
0.015974578
-0.059534704
0.016313082
-0.067665172
0.016653727
-0.076925938
0.01700598
-0.087488421
0.017399022
-0.099538686
0.017771886
-0.11325451
0.017994782
-0.1288732
0.018098495
-0.14682492
0.018416369
-0.16732703
0.018649222
-0.1905405
0.018305655
-0.21690709
0.017648314
-0.2474721
0.01691126
-0.28255638
0.015856362
-0.322325
0.014254207
-0.36732806
0.012397165
-0.41883137
0.010281461
-0.47740673
0.0080312316
-0.5439823
0.005597031
-0.61931835
0.0029585669
-0.70447097
-0.80123533
0.013050298
-0.016791726
-0.012926957
0.013187698
-0.019062466
0.01334041
-0.021641012
0.013509637
-0.024569284
0.013696659
-0.02789513
0.013902948
-0.031673159
0.014130387
-0.035965818
0.014381648
-0.040844557
0.014659582
-0.046391058
0.014967033
-0.052698839
0.015308111
-0.059875336
0.015686573
-0.068043153
0.016101122
-0.077340008
0.016529223
-0.087916075
0.016938329
-0.099947374
0.017330109
-0.1136463
0.01770545
-0.12924956
0.017891472
-0.14701193
0.017906523
-0.16734197
0.018009636
-0.19064471
0.018002539
-0.21690246
0.017486532
-0.24695313
0.016621494
-0.28168778
0.015461073
-0.32116274
0.014039927
-0.3659053
0.012350499
-0.41714209
0.010392384
-0.47544919
0.0081839129
-0.54177418
0.005747757
-0.61688148
0.003065128
-0.70178873
-0.7981714
0.011478833
-0.016889485
-0.011380997
0.011589051
-0.019172597
0.011713039
-0.0217649
0.011852327
-0.024708459
0.012008478
-0.028051156
0.012182957
-0.031847505
0.012376819
-0.036159541
0.012590243
-0.041057842
0.012822201
-0.046622893
0.013070049
-0.052946594
0.013328335
-0.060133581
0.013588829
-0.068303681
0.013843915
-0.077595205
0.01409742
-0.088169755
0.014362216
-0.10021246
0.014638803
-0.11392331
0.014924306
-0.12953575
0.015239658
-0.14732829
0.015408374
-0.16751167
0.015239494
-0.19047521
0.015351026
-0.21701294
0.015522128
-0.24712606
0.015160008
-0.2813294
0.014212806
-0.32021476
0.013157651
-0.36484919
0.011784393
-0.41576772
0.010095891
-0.47376121
0.008040129
-0.53971821
0.005722656
-0.61456349
0.0030899778
-0.6991563
-0.79508225
0.010894306
-0.016958498
-0.010825219
0.010972256
-0.019250468
0.011060163
-0.021852723
0.011159136
-0.024807344
0.01127029
-0.028162224
0.011394689
-0.03197182
0.011533315
-0.036298086
0.011687049
-0.041211499
0.011856517
-0.046792282
0.012041847
-0.05313185
0.012242628
-0.060334306
0.012457112
-0.068518123
0.012680289
-0.077818345
0.012901491
-0.088390922
0.0131005
-0.10041143
0.013259037
-0.11408185
0.013354733
-0.1296315
0.013358162
-0.14733172
0.013428781
-0.16758337
0.013623136
-0.1906716
0.013566632
-0.21695891
0.013358146
-0.24692459
0.013074367
-0.28105168
0.0126297
-0.31977212
0.011940417
-0.3641598
0.010850997
-0.41467652
0.0094462572
-0.47235652
0.0076450303
-0.5379166
0.005470384
-0.61238971
0.0030012616
-0.6966881
-0.79208156
0.010506122
-0.017016809
-0.010447925
0.010571648
-0.019316121
0.010645323
-0.021926536
0.010728001
-0.024890172
0.010820589
-0.028254968
0.01092399
-0.03207538
0.011039113
-0.03641337
0.011166868
-0.041339412
0.011307991
-0.046933558
0.011462717
-0.053286713
0.011630777
-0.060502462
0.011811181
-0.068698583
0.012001686
-0.078008878
0.012198919
-0.088588197
0.012403711
-0.10061637
0.012621529
-0.1143
0.012863536
-0.12987413
0.013130077
-0.14759933
0.013303438
-0.16775778
0.013324734
-0.19069424
0.013175405
-0.2168107
0.012777634
-0.24652612
0.012140655
-0.28041548
0.011544616
-0.31917762
0.01075713
-0.3633733
0.0097827291
-0.41370268
0.0084922957
-0.47106333
0.0068966341
-0.53632023
0.0049511191
-0.61044717
0.0027187881
-0.69445683
-0.78936326
0.0099862372
-0.017045035
-0.0099581419
0.010017181
-0.019347221
0.010050595
-0.02196014
0.010086373
-0.024926181
0.010124336
-0.028293212
0.010164253
-0.032115641
0.010205822
-0.036455358
0.010248653
-0.041382753
0.010292442
-0.04697796
0.010337332
-0.053332331
0.01038402
-0.060550004
0.010434416
-0.06874995
0.010493067
-0.078068583
0.010561659
-0.088657885
0.010634678
-0.10069044
0.010699941
-0.11436619
0.010739723
-0.12991463
0.010738458
-0.1475985
0.010705493
-0.1677249
0.010658799
-0.19064719
0.010605374
-0.21675713
0.010595762
-0.24651556
0.010521436
-0.28033839
0.010107852
-0.31876354
0.0094068271
-0.36267266
0.0085023658
-0.41279505
0.0073658432
-0.46992373
0.005974713
-0.53493132
0.004301889
-0.6087749
0.0023236135
-0.69247832
-0.7870415
0.009564645
-0.0095602758
0.0095697247
0.0095761272
0.0095842176
0.0095944215
0.0096072223
0.0096231269
0.009642605
0.0096659751
0.0096931971
0.0097236132
0.0097557512
0.0097880883
0.0098184502
0.0098444022
0.009863097
0.0098701351
0.0098589575
0.0098164074
0.009720023
0.0095428061
0.0092515612
0.0088732957
0.0084687033
0.0079656599
0.0072772944
0.0063537824
0.0051763755
0.003736524
0.0020160673
0.011410105
-0.01119112
0.008760852
-0.0089797869
0.013242783
-0.014476474
0.012643852
0.014600124
-0.017762574
0.016405282
0.015677056
-0.021378534
0.020301637
0.016616201
-0.025512154
0.024573048
0.017484592
-0.030284611
0.029416274
0.018288354
-0.035772469
0.03496874
0.019043874
-0.042048424
0.041292911
0.019751518
-0.04926042
0.048552757
0.020388231
-0.057522482
0.056885727
0.02093532
-0.06696385
0.066416703
0.021381789
-0.077741947
0.07729542
0.02171885
-0.090034874
0.08969777
0.021935111
-0.10401885
0.10380256
0.022013463
-0.1198706
0.11979221
0.021894321
-0.1376206
0.13773969
0.021516587
-0.1570682
0.1574459
0.020775928
-0.17773629
0.17847691
0.019596872
-0.19842282
0.19960183
0.01834036
-0.22015947
0.22141597
0.017208244
-0.24617882
0.24731093
0.016080433
-0.27666409
0.27779192
0.014888551
-0.31154206
0.31273398
0.013598822
-0.35119084
0.35248051
0.012193824
-0.39615465
0.39755962
0.010660505
-0.44741324
0.44894665
0.0089745258
-0.50578239
0.5074684
0.0071042647
-0.57230445
0.57417481
0.0050138815
-0.64801779
0.65010827
0.0026613541
-0.73437532
0.73672783
-0.83272112
0.83538223
0.012699905
-0.012717864
-0.011173108
0.013731693
-0.015508212
0.014574622
-0.018605442
0.01535625
-0.022160094
0.016127716
-0.026283559
0.016891237
-0.031048084
0.017627724
-0.03650892
0.018328263
-0.042748954
0.018974553
-0.049906729
0.01954477
-0.05809274
0.020027815
-0.067446949
0.020416446
-0.07813063
0.020702963
-0.090321426
0.020876172
-0.10419209
0.020917946
-0.1199124
0.020762371
-0.13746508
0.020355455
-0.15666132
0.01958499
-0.17696586
0.018407758
-0.19724563
0.017223733
-0.21897542
0.016163293
-0.24511839
0.015098029
-0.27559883
0.013970239
-0.31041426
0.012751102
-0.34997177
0.011426084
-0.39482964
0.0099833452
-0.44597039
0.0083998856
-0.5041989
0.0066462186
-0.57055067
0.0046884435
-0.64605991
0.0024881245
-0.73217502
-0.83023318
0.012327615
-0.013552154
-0.011493272
0.013059028
-0.016239557
0.013798061
-0.0193444
0.014566101
-0.022928062
0.015339462
-0.027056861
0.01608713
-0.031795707
0.016792375
-0.037214136
0.017450041
-0.043406616
0.018041903
-0.050498612
0.018556749
-0.058607628
0.018987308
-0.067877559
0.019328307
-0.078471674
0.019572869
-0.090566018
0.019710304
-0.10432954
0.019721722
-0.11992385
0.019537423
-0.13728085
0.01911046
-0.1562344
0.018317231
-0.17617268
0.017161491
-0.19608991
0.016059614
-0.21787354
0.015067919
-0.24412671
0.014065272
-0.2745962
0.013004034
-0.30935304
0.011858969
-0.3488268
0.010617988
-0.39358867
0.0092703593
-0.44462266
0.0077947416
-0.50272323
0.0061637336
-0.56891953
0.0043456874
-0.64424175
0.0023051501
-0.73013449
-0.82792817
0.011452586
-0.014294135
-0.010710537
0.012219225
-0.017006117
0.012995643
-0.020120741
0.013764447
-0.023696793
0.014509116
-0.027801467
0.015214814
-0.03250136
0.015872499
-0.037871798
0.01647609
-0.044010208
0.017011825
-0.05103437
0.017472035
-0.059067881
0.01785184
-0.068257411
0.018147346
-0.07876722
0.018352189
-0.090770884
0.018455615
-0.10443299
0.018432731
-0.11990099
0.018223101
-0.13707127
0.017785955
-0.15579729
0.016978222
-0.175365
0.015857878
-0.19496958
0.014837655
-0.21685331
0.013913589
-0.24320265
0.012976333
-0.27365897
0.01198548
-0.30836223
0.01091894
-0.34776037
0.009767035
-0.39243676
0.0085200764
-0.44337559
0.0071584145
-0.50136151
0.005656804
-0.56741778
0.0039859252
-0.64257076
0.0021133489
-0.72826191
-0.82581494
0.010555801
-0.015085561
-0.0097642809
0.011342893
-0.01779312
0.012114974
-0.020892737
0.012863705
-0.024445448
0.013577383
-0.028515083
0.014244125
-0.033168058
0.01485638
-0.038484033
0.015407729
-0.044561561
0.015889532
-0.051516201
0.016297486
-0.059475877
0.016628965
-0.068588936
0.016881304
-0.079019593
0.017048571
-0.09093817
0.017119638
-0.10450407
0.017063804
-0.11984518
0.016834792
-0.13684231
0.016390705
-0.15535327
0.015574335
-0.17454869
0.014501845
-0.19389709
0.013565079
-0.21591653
0.012709353
-0.24234693
0.011839916
-0.27278957
0.010922649
-0.30744503
0.009938367
-0.34677621
0.0088796817
-0.39137807
0.0077379174
-0.44223371
0.0064952448
-0.50011877
0.0051286609
-0.56605104
0.0036112261
-0.64105321
0.0019135676
-0.72656425
-0.82390147
0.009622526
-0.015891124
-0.008816881
0.010408451
-0.018578956
0.011168303
-0.021652506
0.011892932
-0.025170003
0.01257098
-0.029193073
0.013193868
-0.033790908
0.013756521
-0.039046673
0.014254382
-0.045059433
0.014682912
-0.051944761
0.015040311
-0.059833319
0.01532555
-0.068874217
0.015536867
-0.07923094
0.015668757
-0.091070074
0.015709897
-0.10454522
0.015625217
-0.11976052
0.015383321
-0.13660046
0.014932496
-0.1549025
0.014113187
-0.17372943
0.013100476
-0.19288438
0.012246533
-0.21506256
0.011459124
-0.24155952
0.010659494
-0.27198999
0.0098187125
-0.30660434
0.0089201347
-0.34587777
0.0079585427
-0.39041645
0.0069262598
-0.44120132
0.0058073369
-0.49899978
0.0045810721
-0.56482461
0.0032229485
-0.63969497
0.0017067129
-0.72504801
-0.82219485
0.0086540763
-0.016704165
-0.0078409755
0.0094342219
-0.019359016
0.010173502
-0.022391707
0.010863815
-0.025860248
0.011498036
-0.029827243
0.012071352
-0.034364195
0.012580823
-0.039556139
0.01302428
-0.045502908
0.01340013
-0.052320646
0.013708364
-0.060141597
0.013949112
-0.069115005
0.014121317
-0.079403172
0.014220081
-0.091168847
0.01423449
-0.10455964
0.014127786
-0.11965384
0.013883131
-0.13635584
0.013425428
-0.15444484
0.012603256
-0.17290731
0.011659947
-0.19194106
0.010887311
-0.21428989