/*--------------------------------*- C++ -*----------------------------------*\
| =========                 |                                                 |
| \\      /  F ield         | OpenFOAM: The Open Source CFD Toolbox           |
|  \\    /   O peration     | Version:  2406                                  |
|   \\  /    A nd           | Website:  www.openfoam.com                      |
|    \\/     M anipulation  |                                                 |
\*---------------------------------------------------------------------------*/
FoamFile
{
    version     2.0;
    format      ascii;
    arch        "LSB;label=32;scalar=64";
    class       volVectorField;
    location    "0.039";
    object      U;
}
// * * * * * * * * * * * * * * * * * * * * * * * * * * * * * * * * * * * * * //

dimensions      [0 1 -1 0 0 0 0];

internalField   nonuniform List<vector> 
8260
(
(40.19757 29.050066 0)
(41.577584 27.758882 -2.4705163e-20)
(42.893592 26.467938 2.1348164e-20)
(44.167331 25.173924 -3.6519048e-20)
(45.396092 23.837886 1.5486966e-20)
(46.561888 22.477783 -2.6140233e-20)
(47.653858 21.130036 -1.0939372e-20)
(48.6632 19.827637 -1.4652642e-23)
(49.624959 18.594956 4.9483666e-21)
(50.578572 17.432523 0)
(51.469141 16.35566 4.6141446e-20)
(52.317626 15.356541 0)
(53.116342 14.415906 0)
(53.830853 13.49672 -7.078352e-20)
(54.299242 12.541522 1.8584287e-23)
(54.356604 11.457531 0)
(53.754399 9.9504623 0)
(52.871407 8.296041 6.8026741e-19)
(52.422976 7.1603194 5.7247606e-21)
(52.172625 6.2355851 -6.9730633e-19)
(51.96375 5.4367137 -1.2683428e-18)
(51.778023 4.7022668 -1.1383001e-18)
(51.594936 4.0461152 -2.0601504e-18)
(51.409701 3.4242084 1.8405928e-18)
(51.246833 2.8621356 1.6366557e-18)
(51.126958 2.3518227 0)
(51.027511 1.8902619 2.5785687e-18)
(50.949248 1.4527298 2.2757244e-18)
(50.881729 1.0409197 4.0181758e-18)
(50.841007 0.62413488 0)
(50.812072 0.21323054 6.2367951e-18)
(39.198707 28.275624 2.4199273e-20)
(40.638415 27.107161 -1.7450539e-23)
(42.006299 25.999217 -1.882121e-20)
(43.337106 24.856844 4.9527814e-20)
(44.631986 23.656627 0)
(45.875223 22.415665 2.4664156e-20)
(47.053059 21.164215 4.2301062e-20)
(48.159025 19.933313 2.7102621e-20)
(49.209249 18.748207 -3.0971353e-20)
(50.222995 17.615229 1.3334667e-20)
(51.176869 16.545514 -5.2288568e-20)
(52.076492 15.539819 0)
(52.911679 14.582379 0)
(53.64369 13.641376 1.4566872e-19)
(54.112423 12.63293 -1.5206069e-19)
(54.137656 11.508746 1.8844566e-19)
(53.517352 9.91493 2.6336728e-24)
(52.685514 8.2662055 -2.1381734e-20)
(52.306421 7.1555555 2.2306719e-20)
(52.088271 6.2352692 -6.6777775e-19)
(51.898156 5.4370903 -9.5318083e-21)
(51.725573 4.702218 1.1018593e-18)
(51.552209 4.0456661 1.9772641e-18)
(51.374715 3.422711 -3.4503635e-21)
(51.219036 2.8613858 6.177121e-21)
(51.104865 2.3512532 -2.7307727e-21)
(51.009554 1.8901228 -2.4789969e-18)
(50.934261 1.4527292 -2.1920814e-18)
(50.868877 1.0407989 -3.8780239e-18)
(50.82963 0.62370013 3.4239812e-18)
(50.801649 0.21287274 -6.0426234e-18)
(38.15754 27.225837 -2.0310172e-20)
(39.577377 26.283587 1.8230618e-20)
(40.990229 25.380473 0)
(42.385295 24.412364 -3.013352e-20)
(43.752987 23.367851 2.6911382e-20)
(45.078297 22.264362 0)
(46.346654 21.127619 -4.1635706e-20)
(47.549054 19.985692 -9.0859937e-21)
(48.691184 18.864028 3.9598894e-20)
(49.781907 17.772653 0)
(50.807781 16.721626 4.8976474e-20)
(51.767055 15.717067 0)
(52.647034 14.746713 0)
(53.403367 13.783764 -7.4449035e-20)
(53.880638 12.725177 -5.2281459e-21)
(53.884001 11.552684 -2.0810304e-19)
(53.252682 9.8621609 2.7976098e-19)
(52.49233 8.2549316 -1.3605378e-18)
(52.180411 7.1754127 0)
(51.992947 6.2574723 6.3122761e-19)
(51.823136 5.4572374 0)
(51.665576 4.7187876 -8.0446977e-21)
(51.503705 4.0587074 1.4387681e-20)
(51.335244 3.4320266 -1.2822614e-20)
(51.187545 2.8690562 -1.4540998e-18)
(51.079629 2.3569621 0)
(50.989016 1.8946274 0)
(50.917112 1.4561257 1.9799585e-21)
(50.854206 1.0430922 -1.7492631e-21)
(50.816674 0.62508113 -3.1631168e-18)
(50.789788 0.2133836 -4.2340408e-23)
(37.287738 26.036352 6.7625385e-20)
(38.661513 25.315012 -4.6685015e-20)
(40.069869 24.614757 2.9322184e-20)
(41.488264 23.833636 2.7195289e-20)
(42.898314 22.960904 -7.4741837e-20)
(44.28212 22.011383 -2.2552852e-20)
(45.622603 21.006888 2.0233103e-20)
(46.906572 19.971592 -1.8020353e-20)
(48.131276 18.929239 1.6010524e-20)
(49.298378 17.89304 0)
(50.395077 16.873694 5.110909e-20)
(51.414726 15.879473 0)
(52.34089 14.901523 -8.737356e-20)
(53.120965 13.917389 0)
(53.604313 12.810595 -1.8276908e-19)
(53.580735 11.578697 6.9006257e-21)
(52.945377 9.7888296 4.3588758e-23)
(52.276294 8.2480203 6.5868299e-19)
(52.036052 7.1926378 -6.4488809e-19)
(51.883109 6.2752215 0)
(51.736603 5.4727711 -1.0626919e-18)
(51.596313 4.7308399 -7.433931e-21)
(51.44752 4.0675369 6.6289182e-21)
(51.289551 3.4377152 -1.5093961e-18)
(51.151251 2.8739156 0)
(51.050654 2.3605499 0)
(50.965515 1.8975579 0)
(50.897506 1.4583991 -1.856534e-18)
(50.837469 1.044569 0)
(50.801897 0.62579298 2.894881e-18)
(50.776295 0.21355298 5.1080545e-18)
(36.602754 24.749981 -1.3957242e-20)
(37.90974 24.227474 0)
(39.277087 23.716263 -2.5450391e-20)
(40.681108 23.121196 2.4279775e-20)
(42.1006 22.427507 2.280478e-20)
(43.51488 21.643801 4.2251476e-20)
(44.904029 20.786433 1.9377806e-20)
(46.250771 19.874482 -1.7639202e-20)
(47.544718 18.928245 -1.597195e-20)
(48.779951 17.962447 8.6810784e-20)
(49.942272 16.988672 -1.3154872e-20)
(51.01981 16.01544 0)
(51.990913 15.036804 1.7374928e-19)
(52.792195 14.033024 -4.5397606e-24)
(53.27569 12.87838 2.1022077e-19)
(53.219135 11.570086 1.490361e-20)
(52.590815 9.6956262 -3.1969694e-19)
(52.042456 8.2417145 6.1954985e-19)
(51.874383 7.2082532 6.3746368e-19)
(51.758566 6.2928563 2.2966379e-24)
(51.638222 5.4895908 9.6064204e-19)
(51.517478 4.7445152 8.710091e-19)
(51.383582 4.0779063 6.0546935e-21)
(51.237725 3.4449764 1.3706991e-18)
(51.110113 2.8802975 1.2201137e-18)
(51.01772 2.3654301 0)
(50.938814 1.901518 -3.7294337e-21)
(50.8752 1.4614798 1.6898806e-18)
(50.818452 1.0466297 -2.9783721e-18)
(50.785092 0.62691727 -2.629321e-18)
(50.76095 0.2139088 5.6617396e-22)
(36.117478 23.390371 2.298251e-20)
(37.339639 23.045337 -2.2120454e-20)
(38.638261 22.7053 -2.1909326e-20)
(39.995268 22.285782 4.2807741e-20)
(41.39093 21.768741 -4.1174918e-20)
(42.804121 21.155189 0)
(44.213434 20.454389 0)
(45.598494 19.679099 0)
(46.942658 18.844664 3.1499284e-20)
(48.232576 17.964763 3.4947019e-23)
(49.450995 17.05071 -5.3812975e-20)
(50.580207 16.110028 1.1375264e-19)
(51.591853 15.138826 -2.0702948e-19)
(52.409268 14.116893 -1.1052812e-19)
(52.883271 12.912886 2.6535174e-20)
(52.789871 11.506228 -1.5829213e-20)
(52.188749 9.5833209 1.8680014e-20)
(51.789445 8.2341985 -6.1890978e-19)
(51.692533 7.2203481 -1.7253484e-20)
(51.617127 6.3077227 -4.9692208e-19)
(51.526261 5.504734 -8.7482151e-19)
(51.427562 4.7566614 -1.5820478e-18)
(51.310446 4.0867781 -1.4159909e-18)
(51.178563 3.4511743 -8.1988304e-25)
(51.063245 2.8859612 8.6503694e-21)
(50.980186 2.3698694 1.9509977e-18)
(50.908428 1.9051714 0)
(50.849794 1.4643731 1.5252696e-18)
(50.796833 1.0485556 2.684899e-18)
(50.765962 0.62789559 0)
(50.743502 0.21417866 0)
(35.846949 21.980338 8.6734378e-21)
(36.970972 21.796583 -3.7022278e-20)
(38.179724 21.608303 3.7531943e-20)
(39.461631 21.347127 -1.8725599e-20)
(40.801426 20.995315 -1.8443421e-20)
(42.180391 20.547287 0)
(43.577696 20.004808 0)
(44.971507 19.373554 0)
(46.340865 18.662647 -3.0699995e-20)
(47.666166 17.882136 -5.7703765e-20)
(48.925685 17.04101 0)
(50.095305 16.144315 -1.0384219e-19)
(51.138382 15.189023 1.2695872e-19)
(51.962662 14.14837 -3.5510968e-23)
(52.412623 12.891626 1.6913098e-19)
(52.281544 11.360851 3.2921414e-20)
(51.748121 9.4591555 -3.6090235e-20)
(51.516236 8.2212946 5.8945131e-19)
(51.489036 7.2267234 0)
(51.456865 6.3186627 4.507273e-19)
(51.399222 5.5180009 8.0355072e-19)
(51.325366 4.7675577 1.4275365e-18)
(51.227073 4.0947421 -9.9559118e-21)
(51.111268 3.4571742 8.757275e-21)
(51.010009 2.8917281 3.3310698e-23)
(50.937519 2.3746392 -1.752932e-18)
(50.873915 1.9091504 0)
(50.820893 1.4675613 2.5270533e-23)
(50.772285 1.0507106 0)
(50.744198 0.62901438 0)
(50.723683 0.21450428 1.8778701e-18)
(35.802976 20.589115 -2.3966318e-23)
(36.816249 20.527642 -2.3295491e-20)
(37.91788 20.461144 8.0212362e-21)
(39.101834 20.333221 1.6348128e-20)
(40.357952 20.126135 1.6422348e-20)
(41.67148 19.829298 0)
(43.023995 19.437705 0)
(44.394174 18.949817 0)
(45.758997 18.367656 0)
(47.094414 17.695494 -2.845118e-20)
(48.373829 16.937615 2.7309288e-20)
(49.566233 16.094618 0)
(50.624884 15.162585 -2.6304581e-20)
(51.441478 14.095887 2.7141331e-20)
(51.846653 12.78358 -4.7363593e-19)
(51.679666 11.109684 3.3280698e-20)
(51.282476 9.3291176 -3.405406e-20)
(51.220795 8.1985307 -5.0636802e-19)
(51.261576 7.2240835 0)
(51.275764 6.3234224 0)
(51.255272 5.5273224 0)
(51.20939 4.7754049 2.0069723e-20)
(51.132096 4.1003172 1.1259866e-18)
(51.034635 3.4618422 5.1268615e-25)
(50.949464 2.8965806 -1.7823029e-18)
(50.889024 2.3790199 1.5620614e-18)
(50.834724 1.912918 1.3899848e-18)
(50.788015 1.4706424 -2.4438929e-18)
(50.744402 1.0528091 0)
(50.719421 0.630055 0)
(50.701199 0.21478058 -1.6784382e-18)
(35.97165 19.235995 -6.1769543e-21)
(36.869465 19.263048 2.6177797e-20)
(37.853459 19.290072 -3.445123e-20)
(38.923846 19.267682 -1.4291925e-20)
(40.075202 19.179798 1.4646461e-20)
(41.296978 19.012741 -2.9606221e-20)
(42.574395 18.756183 2.9584519e-20)
(43.88851 18.402187 0)
(45.216519 17.945688 0)
(46.53201 17.383901 0)
(47.804057 16.71431 0)
(48.994244 15.930875 1.0773495e-19)
(50.043329 15.025913 -1.3570512e-19)
(50.834197 13.907784 2.8061492e-20)
(51.163357 12.551906 2.4312037e-19)
(50.987734 10.742649 0)
(50.812707 9.200875 0)
(50.900522 8.1610795 4.5814085e-19)
(51.00872 7.2070423 2.5599549e-20)
(51.072196 6.3200005 -2.2773097e-20)
(51.092216 5.5306151 0)
(51.077995 4.7789483 -5.5478904e-19)
(51.024324 4.1029366 8.6529202e-25)
(50.947707 3.4650192 -8.9603306e-19)
(50.880821 2.9003968 -3.3688584e-23)
(50.833995 2.3830766 -1.4088907e-18)
(50.790277 1.9165945 -1.2339333e-18)
(50.750634 1.4737287 1.0888246e-18)
(50.712715 1.054944 -1.8763872e-21)
(50.691195 0.63109807 8.2769499e-22)
(50.675712 0.21504916 7.3012082e-22)
(36.325259 17.940186 0)
(37.112344 18.020058 -4.4534045e-20)
(37.977081 18.112451 4.7854402e-20)
(38.92551 18.168366 0)
(39.957007 18.17102 -7.8962916e-20)
(41.065844 18.106803 2.2260052e-23)
(42.241861 17.961823 5.5122183e-20)
(43.469752 17.72327 2.7740943e-20)
(44.72858 17.379855 0)
(45.991341 16.921386 -2.3571025e-23)
(47.22362 16.337229 -6.6547536e-24)
(48.378727 15.612885 -1.6441097e-19)
(49.381647 14.731283 5.5949869e-20)
(50.109231 13.54876 5.8344164e-20)
(50.34027 12.098906 6.1736317e-20)
(50.259668 10.296661 2.4727814e-19)
(50.350072 9.066016 -5.6994672e-20)
(50.551891 8.1024939 9.047678e-23)
(50.73067 7.1665064 0)
(50.844213 6.3080447 -3.4344115e-19)
(50.90734 5.5245641 -5.5717411e-19)
(50.929152 4.7758167 0)
(50.902395 4.1011231 0)
(50.849569 3.4656312 7.8474322e-19)
(50.803262 2.9022268 7.1503699e-19)
(50.771549 2.3861654 1.2429208e-18)
(50.739809 1.9197386 -8.5688851e-21)
(50.708104 1.4765391 3.7798431e-21)
(50.676651 1.0569045 1.7108055e-18)
(50.658989 0.63198901 0)
(50.646785 0.21523496 1.3287127e-18)
(36.825295 16.694885 -3.0165544e-20)
(37.501016 16.813258 3.4192586e-20)
(38.249487 16.944161 -4.271425e-20)
(39.076632 17.044453 -4.5701364e-20)
(39.982575 17.105254 1.2089294e-20)
(40.966401 17.110503 5.0494373e-20)
(42.022694 17.045504 0)
(43.140175 16.894679 -2.6695797e-20)
(44.300534 16.641516 0)
(45.477216 16.268342 -4.1905302e-23)
(46.632704 15.755692 0)
(47.710401 15.078209 -5.635267e-20)
(48.615853 14.196945 5.8126731e-20)
(49.219324 12.907676 5.9912354e-20)
(49.397382 11.382949 -2.4092302e-19)
(49.579257 9.9117223 -5.1024492e-19)
(49.872197 8.9677275 5.1259339e-20)
(50.185402 7.9668163 -4.1401538e-19)
(50.42483 7.1190094 -2.8612496e-19)
(50.589869 6.2837944 -3.6268351e-20)
(50.700675 5.4858705 4.7959094e-19)
(50.760767 4.7632997 4.8026925e-19)
(50.76484 4.0934402 2.5021933e-20)
(50.73934 3.4627532 6.8560731e-19)
(50.715947 2.9014952 0)
(50.700694 2.3879194 -2.2053125e-18)
(50.682315 1.9221195 -7.6006627e-21)
(50.659666 1.4790392 6.705031e-21)
(50.635555 1.0586401 3.9827675e-23)
(50.622211 0.63270629 1.3045287e-21)
(50.613832 0.21532635 -1.1794335e-18)
(37.476868 15.451248 0)
(38.032286 15.573429 0)
(38.656927 15.712673 0)
(39.353995 15.835696 0)
(40.126831 15.926827 0)
(40.976321 15.97171 -1.0992476e-19)
(41.89937 15.955808 1.0243609e-19)
(42.886865 15.861867 0)
(43.921692 15.668994 -1.0952085e-19)
(44.976533 15.3523 1.1221187e-19)
(46.008665 14.882754 5.7489921e-20)
(46.946663 14.217459 0)
(47.691448 13.274809 1.8129901e-19)
(48.1547 11.952129 -6.0177852e-20)
(48.52754 10.549659 1.6976328e-19)
(48.955953 9.6485563 5.1390651e-20)
(49.419404 8.6854948 -1.8464292e-19)
(49.784818 7.8570326 -3.6891428e-19)
(50.091361 7.030845 6.1782735e-19)
(50.310427 6.2108874 5.1470461e-19)
(50.465985 5.4798026 0)
(50.571585 4.7282352 -2.5036455e-20)
(50.610116 4.0719175 2.2159931e-20)
(50.615463 3.4545479 -6.270813e-19)
(50.617596 2.897192 0)
(50.620352 2.3874873 1.9532572e-18)
(50.616545 1.9230303 0)
(50.604425 1.4809692 -5.9375257e-21)
(50.588712 1.0598865 -2.6763904e-18)
(50.580232 0.63308103 0)
(50.576093 0.21523838 0)
(38.141222 14.108513 0)
(38.59029 14.213201 0)
(39.103462 14.331421 0)
(39.678455 14.446227 8.8418304e-20)
(40.320795 14.535017 -1.7882482e-19)
(41.033637 14.584374 2.1656468e-19)
(41.81511 14.580184 -1.3484324e-19)
(42.655383 14.503878 2.8274316e-20)
(43.535288 14.33056 1.4680911e-19)
(44.4257 14.029207 -7.340772e-23)
(45.289749 13.556298 -6.1713135e-20)
(46.059255 12.857001 -2.4725448e-19)
(46.653197 11.885946 1.2069022e-19)
(47.179943 10.823667 0)
(47.811872 10.019729 0)
(48.434188 9.2116113 9.2492319e-20)
(48.928744 8.4805357 3.286526e-19)
(49.37312 7.6619555 7.2829631e-19)
(49.73336 6.900563 -3.2242748e-19)
(50.004477 6.1326197 -5.6987893e-20)
(50.212295 5.3946662 5.0402723e-20)
(50.35645 4.7055654 -3.7832288e-19)
(50.437042 4.0370669 1.9620052e-20)
(50.475622 3.4388905 0)
(50.506621 2.8884607 0)
(50.529522 2.3840876 -8.6388284e-19)
(50.541421 1.9217326 0)
(50.541432 1.4821891 0)
(50.535403 1.0604109 1.1857899e-18)
(50.532491 0.63302 -1.0460458e-18)
(50.532667 0.21492796 -9.2266798e-19)
(38.750391 12.345882 -2.2446636e-23)
(39.119201 12.40542 -1.7777358e-19)
(39.534659 12.495555 9.1125086e-20)
(40.006506 12.575907 0)
(40.535935 12.643166 9.8338801e-24)
(41.118511 12.687312 1.3542582e-19)
(41.751549 12.681131 -4.6024175e-23)
(42.427772 12.604864 -3.2481033e-20)
(43.130404 12.433671 -3.2910603e-20)
(43.833809 12.145 -6.5558886e-20)
(44.513218 11.709367 -6.4016135e-20)
(45.157792 11.132945 0)
(45.819452 10.50173 0)
(46.561959 9.9527026 0)
(47.284712 9.4036522 0)
(47.903149 8.8200463 -1.6457301e-19)
(48.465226 8.1258183 -1.4584241e-19)
(48.951181 7.4273729 -2.5825967e-19)
(49.359271 6.7252004 0)
(49.680149 5.9951346 -2.0191652e-19)
(49.934066 5.3256811 0)
(50.122812 4.6256434 3.1496379e-19)
(50.24193 4.0108113 0)
(50.318496 3.4016447 0)
(50.381643 2.8738038 0)
(50.427308 2.3765479 0)
(50.456515 1.9172782 0)
(50.469838 1.48217 -9.2754922e-21)
(50.474972 1.0597238 8.1845946e-21)
(50.478534 0.632325 1.8501372e-18)
(50.482612 0.21431929 8.1356226e-19)
(39.256242 10.30637 2.6477943e-23)
(39.4826 10.373098 0)
(39.768932 10.462065 2.1986126e-21)
(40.125736 10.543003 1.2628798e-19)
(40.57131 10.569364 -2.6419431e-19)
(41.05835 10.583232 -3.5910995e-20)
(41.578026 10.546386 -2.1600675e-19)
(42.138606 10.464413 5.6522482e-19)
(42.74013 10.332563 -2.7451699e-19)
(43.358312 10.200236 -6.6107113e-20)
(43.995188 10.026439 -2.1598692e-23)
(44.645185 9.7587988 5.731777e-20)
(45.368817 9.5017915 0)
(46.101055 9.1910582 0)
(46.784979 8.7878489 0)
(47.427923 8.273583 2.9184211e-19)
(48.002017 7.7358869 0)
(48.537139 7.1141244 -2.2869299e-19)
(48.982488 6.488684 0)
(49.341366 5.8287294 0)
(49.644646 5.1831118 0)
(49.869353 4.5500648 -2.434869e-19)
(50.029799 3.9354056 -3.0696837e-20)
(50.143509 3.3700043 -4.6038562e-19)
(50.241811 2.8513327 2.388769e-20)
(50.313219 2.3637465 0)
(50.361883 1.9125082 0)
(50.389377 1.4779705 5.2445347e-19)
(50.406973 1.0564414 9.3238633e-19)
(50.417956 0.63134353 -3.1566743e-21)
(50.425063 0.21296553 -2.8117218e-21)
(40.189361 8.0217598 0)
(40.352302 8.1238846 -1.0724051e-20)
(40.525034 8.2629932 1.0921334e-20)
(40.716418 8.4063096 -1.0938048e-20)
(40.934663 8.6098179 -2.0928928e-20)
(41.237432 8.7420062 2.0231846e-20)
(41.606002 8.8763194 -3.8714633e-20)
(42.041338 8.9892106 -3.6377057e-20)
(42.5781 8.8741389 0)
(43.152334 8.8027722 -2.4276043e-19)
(43.781774 8.7120564 5.1183469e-19)
(44.411739 8.6880322 -5.1982177e-20)
(45.045252 8.5562685 -9.2592558e-20)
(45.693803 8.3300757 1.6441862e-19)
(46.349684 8.0248029 -2.9176928e-19)
(46.973039 7.6598034 9.2321935e-24)
(47.56357 7.2158162 -1.1438805e-19)
(48.125855 6.7231985 4.0441588e-19)
(48.611657 6.1889577 0)
(49.000407 5.5957087 0)
(49.34271 5.0249227 6.9616941e-20)
(49.608353 4.4245393 -6.9496506e-24)
(49.803043 3.8610861 -2.7103738e-20)
(49.955894 3.3105412 -2.3949543e-20)
(50.088697 2.8170024 -3.3735967e-19)
(50.187573 2.3440459 0)
(50.258026 1.8991634 0)
(50.300386 1.4707045 -4.5558629e-19)
(50.330943 1.0535957 -1.6328812e-18)
(50.350285 0.62839948 -7.2577947e-19)
(50.359327 0.21213638 0)
(40.957059 6.4479471 0)
(41.127573 6.5247517 1.2647877e-20)
(41.32013 6.6215977 -4.1005179e-19)
(41.532436 6.7268326 4.2882022e-23)
(41.752337 6.8479108 3.8111896e-19)
(41.989063 6.9727025 -2.0916174e-20)
(42.257952 7.07135 3.8830859e-20)
(42.524756 7.157561 3.5594642e-20)
(42.773096 7.4964948 0)
(43.169524 7.668768 5.6024925e-20)
(43.722307 7.4861467 -4.9309193e-20)
(44.312982 7.4377354 1.8093128e-19)
(44.878396 7.4883822 -3.2797703e-19)
(45.435388 7.3603072 1.4575915e-19)
(46.024547 7.1699432 0)
(46.611509 6.9192963 1.1430163e-19)
(47.165724 6.611533 2.2772298e-23)
(47.72407 6.228383 -1.7863608e-19)
(48.244483 5.8045379 2.3668893e-19)
(48.665905 5.3172171 6.9634285e-20)
(49.03784 4.8051747 -3.0731045e-19)
(49.340618 4.2731221 -2.168987e-19)
(49.573919 3.7481475 0)
(49.759415 3.2445727 3.3745408e-19)
(49.926218 2.7677026 2.6041064e-19)
(50.051456 2.3153489 3.2810714e-20)
(50.144569 1.8811187 0)
(50.20316 1.4613257 0)
(50.246669 1.0450477 -5.6649384e-21)
(50.27485 0.62510619 4.9633233e-21)
(50.284903 0.21025014 0)
(41.570604 5.5074122 -8.8803282e-19)
(41.675884 5.5830077 8.4141018e-19)
(41.798548 5.6694639 7.8568317e-19)
(41.943599 5.7588661 -7.247614e-19)
(42.116086 5.8516898 -6.8225139e-19)
(42.323081 5.9484711 6.4570384e-19)
(42.577979 6.0462814 -6.0521972e-19)
(42.894694 6.1341714 5.1469351e-19)
(43.21989 6.2270229 -4.6017553e-19)
(43.515441 6.2171493 -5.1612906e-20)
(43.77908 6.5423343 4.0149944e-19)
(44.240971 6.3886806 3.5040273e-19)
(44.768013 6.2489571 -4.2196025e-19)
(45.323501 6.3075382 0)
(45.871681 6.2550395 2.2849435e-19)
(46.411352 6.1456934 -4.0427334e-19)
(46.903866 5.9310184 8.9357031e-20)
(47.381512 5.6579517 0)
(47.887429 5.3346018 -2.0889954e-19)
(48.344552 4.9643773 1.353307e-23)
(48.736209 4.5483353 4.3382729e-19)
(49.073172 4.088377 2.3916398e-19)
(49.342462 3.6163673 4.2187945e-20)
(49.560884 3.1503567 -3.7210625e-19)
(49.757979 2.7039667 2.9533713e-19)
(49.905202 2.2744403 2.0257063e-19)
(50.020812 1.8552363 1.2760384e-20)
(50.096765 1.4435361 3.7135525e-19)
(50.153589 1.0357621 6.4509315e-19)
(50.190841 0.61938392 5.5153868e-19)
(50.201553 0.20891786 0)
(42.292685 4.581721 -6.5248502e-21)
(42.390708 4.6494608 -2.4027511e-20)
(42.502796 4.7274338 -7.2241318e-19)
(42.629655 4.8094242 1.3415475e-18)
(42.771177 4.8965532 -1.2330007e-18)
(42.926157 4.988564 5.7944104e-19)
(43.09122 5.0834076 0)
(43.264738 5.1797985 0)
(43.465413 5.2684412 -2.5673324e-20)
(43.723906 5.362862 4.5887815e-20)
(44.023587 5.3616472 2.8613087e-19)
(44.282564 5.6791876 -5.9965823e-19)
(44.698997 5.569544 3.0380033e-19)
(45.165564 5.4453009 0)
(45.69924 5.3749135 0)
(46.256073 5.3706961 0)
(46.753529 5.2834009 -1.576747e-19)
(47.173641 5.0953724 2.0890331e-19)
(47.594839 4.8261004 0)
(48.051274 4.5633285 -1.0845236e-19)
(48.448857 4.2300951 9.5691111e-20)
(48.808642 3.8605372 -3.3753353e-19)
(49.112062 3.4517007 1.4883168e-19)
(49.357751 3.0387568 -9.8473728e-20)
(49.582093 2.6293088 -2.0253067e-19)
(49.749331 2.2205406 -2.0411823e-19)
(49.88491 1.8189589 3.3753878e-19)
(49.97951 1.4224576 -2.976524e-19)
(50.050708 1.0193979 0)
(50.097371 0.61257647 -4.9400287e-19)
(50.109353 0.20658921 0)
(42.879312 3.8873632 7.6194965e-19)
(42.94368 3.9451847 2.9344539e-24)
(43.0181 4.0104745 1.0123306e-20)
(43.104996 4.0786695 0)
(43.207702 4.1515241 -1.7170196e-20)
(43.330593 4.2300128 4.9976914e-19)
(43.479692 4.314678 -4.51795e-19)
(43.659954 4.4057498 0)
(43.868039 4.5036047 2.2747486e-20)
(44.093197 4.6027222 3.4519541e-19)
(44.329459 4.7191584 3.6115536e-20)
(44.573025 4.7158255 -5.1377835e-19)
(44.770134 4.9922617 5.5479019e-20)
(45.103002 5.0370084 1.962938e-19)
(45.505999 4.855111 0)
(45.96687 4.6857149 0)
(46.504033 4.6037841 -6.8559704e-20)
(47.007813 4.5641044 9.8882767e-24)
(47.408765 4.370384 1.0839451e-19)
(47.818552 4.1539207 -1.9650238e-23)
(48.194091 3.8970417 -2.530855e-19)
(48.550169 3.601485 7.4399025e-20)
(48.875942 3.2536949 6.5620818e-20)
(49.146865 2.9084639 2.892866e-19)
(49.39544 2.5273067 -5.6376113e-24)
(49.583656 2.1568529 -2.2499495e-20)
(49.735465 1.7700214 -6.3482382e-19)
(49.850309 1.3886747 -1.7495907e-20)
(49.937253 1.0006594 0)
(49.993724 0.60246742 0)
(50.008548 0.2045657 0)
(43.524125 3.1673121 1.3596661e-18)
(43.583929 3.2165648 1.2522263e-18)
(43.652485 3.2721294 -1.1678729e-18)
(43.730603 3.3304653 1.0697579e-18)
(43.81901 3.393362 -9.6382439e-19)
(43.91834 3.4617822 8.7547462e-19)
(44.028019 3.5350321 -8.027251e-19)
(44.147554 3.6113461 0)
(44.281717 3.688759 0)
(44.44129 3.7659755 5.5673289e-19)
(44.637684 3.8344449 -4.7917582e-19)
(44.873632 3.9297206 0)
(45.127526 3.9553995 -5.0251156e-20)
(45.312175 4.0924293 0)
(45.515302 4.3794023 0)
(45.86437 4.3046937 -6.7826525e-20)
(46.264174 4.1336848 2.9560383e-19)
(46.709202 3.9893994 -4.2541335e-19)
(47.207078 3.9398342 -9.49455e-20)
(47.633056 3.7836406 2.5300963e-19)
(47.9917 3.5683271 -2.4429974e-23)
(48.313218 3.3333192 -6.5607259e-20)
(48.631539 3.0334754 0)
(48.930615 2.7435154 0)
(49.198151 2.4152475 0)
(49.408389 2.0722821 0)
(49.576405 1.708264 3.1478006e-19)
(49.7095 1.3455927 -1.5424679e-20)
(49.812905 0.97173634 -1.3602976e-20)
(49.879686 0.59002545 -5.9990785e-21)
(49.899379 0.20091099 3.4395386e-19)
(44.051408 2.6357791 1.2123682e-18)
(44.090521 2.6773735 -1.11337e-18)
(44.135772 2.7235993 8.086276e-21)
(44.188445 2.7720307 9.6043601e-19)
(44.250297 2.8245866 -8.6995565e-19)
(44.32346 2.8822628 7.8843998e-19)
(44.410638 2.9452767 -1.4210948e-18)
(44.515255 3.0139133 -1.988174e-20)
(44.638814 3.088403 5.5197621e-19)
(44.778858 3.1679327 0)
(44.932612 3.2525438 -4.7953952e-19)
(45.106071 3.326613 2.5065259e-20)
(45.318093 3.4034069 3.7692549e-19)
(45.570652 3.434938 -3.1288927e-19)
(45.788728 3.4308919 2.4283797e-19)
(45.960619 3.6254382 2.3567604e-24)
(46.221688 3.7489505 2.1182714e-19)
(46.561823 3.5900151 -2.3035205e-19)
(46.950668 3.4250942 3.2996808e-19)
(47.384897 3.3638931 -7.3845609e-20)
(47.800023 3.2588889 6.5573884e-20)
(48.120637 3.0722101 1.5137575e-23)
(48.406123 2.7947766 1.0200486e-19)
(48.72273 2.561597 0)
(49.000548 2.2688953 -1.5861867e-19)
(49.228117 1.9631366 1.398678e-19)
(49.412279 1.6317383 3.083199e-20)
(49.559764 1.2891799 -2.7192493e-20)
(49.677324 0.93561103 1.1990542e-20)
(49.755229 0.57198937 3.2259513e-19)
(49.781999 0.19688822 -2.9384738e-19)
(44.620538 2.0725258 2.1777565e-18)
(44.656814 2.1069319 -1.9806e-18)
(44.698477 2.1448782 -1.4364278e-20)
(44.746102 2.184627 -6.6042822e-21)
(44.800237 2.2278097 -6.0215102e-21)
(44.861368 2.2752187 1.4073358e-18)
(44.929892 2.3268358 -4.8901271e-23)
(45.006026 2.3821034 -1.1187541e-18)
(45.090508 2.4402676 3.0048905e-24)
(45.186353 2.5006296 0)
(45.297663 2.5616278 -2.4901351e-20)
(45.422308 2.6258713 -4.4174739e-20)
(45.554193 2.6905491 -1.9562829e-20)
(45.715109 2.7681126 2.7687376e-19)
(45.953201 2.8172681 -2.4475808e-19)
(46.186377 2.8732715 2.6811401e-20)
(46.38873 2.8881576 0)
(46.556505 3.205393 -4.131204e-20)
(46.851895 3.0364127 -7.1883806e-20)
(47.185007 2.9136899 -6.4064549e-20)
(47.554375 2.8416483 0)
(47.947907 2.7794866 -1.0195924e-19)
(48.229347 2.5580132 0)
(48.542922 2.3566906 0)
(48.816111 2.0999206 1.3980986e-19)
(49.04567 1.8367059 -2.4657749e-19)
(49.243389 1.5335639 1.087241e-19)
(49.402654 1.2195486 0)
(49.530973 0.88816513 -1.7969449e-19)
(49.620323 0.54827841 -2.890041e-19)
(49.656441 0.19028305 0)
(45.068056 1.7016989 -1.9397438e-18)
(45.089113 1.7303692 3.4378835e-21)
(45.113499 1.761685 1.2747926e-20)
(45.141852 1.7946213 1.4982282e-18)
(45.17506 1.8306891 -1.359425e-18)
(45.214316 1.8707094 -2.0880263e-24)
(45.261226 1.9149423 0)
(45.317978 1.9631293 1.5510688e-24)
(45.385519 2.0159752 8.8881394e-19)
(45.464796 2.0740157 -7.7905295e-19)
(45.558442 2.1360814 2.1971245e-20)
(45.669782 2.2015492 1.9483459e-20)
(45.801832 2.2681411 0)
(45.938846 2.3303528 0)
(46.078439 2.3971271 4.8559506e-19)
(46.268391 2.4325933 2.3792398e-20)
(46.496343 2.462664 -3.365464e-19)
(46.700396 2.411134 3.7128856e-19)
(46.855376 2.65928 -2.2439159e-19)
(47.117732 2.525642 -5.5983682e-20)
(47.397382 2.4425701 0)
(47.727834 2.3316222 -8.9363136e-20)
(48.073334 2.2831475 7.924214e-20)
(48.38546 2.1432601 -7.9652986e-24)
(48.640074 1.917101 -6.1631522e-20)
(48.858951 1.6762429 1.0867632e-19)
(49.064792 1.4179081 -9.5832577e-20)
(49.237522 1.1338302 -1.6904151e-19)
(49.375717 0.83009913 1.8620818e-20)
(49.475506 0.51670048 -2.4655642e-20)
(49.522071 0.18123228 7.2490056e-21)
(45.567064 1.2725459 -1.7165291e-18)
(45.588157 1.2956535 -6.0703578e-21)
(45.612364 1.3207786 1.4377036e-18)
(45.639978 1.3472676 0)
(45.67126 1.3763356 -1.2057563e-18)
(45.706352 1.4085505 -8.5002321e-21)
(45.745211 1.4439665 2.170912e-23)
(45.78761 1.4829271 1.7643636e-18)
(45.835276 1.5246974 -2.1134635e-23)
(45.889836 1.568405 -7.091605e-19)
(45.950271 1.6149366 0)
(46.01728 1.6629465 0)
(46.093951 1.7125566 0)
(46.192541 1.7620581 0)
(46.304976 1.8153149 -2.3788829e-20)
(46.420123 1.8787571 3.3598274e-19)
(46.569498 1.9473739 -2.5969325e-19)
(46.789045 1.9429715 -2.9462138e-19)
(46.980708 1.9343781 2.0134104e-19)
(47.130788 2.1100482 5.4697323e-25)
(47.336278 2.088338 0)
(47.582649 1.9450307 1.5531812e-19)
(47.89066 1.9271431 -1.3952964e-19)
(48.210658 1.897334 6.1610811e-20)
(48.448631 1.6975449 0)
(48.668132 1.5051113 -1.4371677e-19)
(48.876196 1.2680028 4.2245792e-20)
(49.066191 1.0259198 1.8625512e-19)
(49.213474 0.75838735 9.8557137e-20)
(49.322121 0.47767229 0)
(49.379 0.16851392 -2.044948e-19)
(45.926442 1.014111 0)
(45.936395 1.0321228 2.6932709e-21)
(45.947945 1.0514829 0)
(45.961391 1.0718483 0)
(45.977259 1.0941831 -4.1575376e-21)
(45.996356 1.1189801 -1.9242976e-18)
(46.019835 1.146447 1.7303045e-18)
(46.049154 1.1767746 6.0511579e-21)
(46.085706 1.2103109 1.0800827e-20)
(46.131043 1.2474897 -1.2205947e-18)
(46.187541 1.2885925 2.1851845e-18)
(46.257437 1.3344964 -9.6891796e-19)
(46.34121 1.3856572 0)
(46.435079 1.4436908 0)
(46.542649 1.4999034 0)
(46.657833 1.5449592 0)
(46.762177 1.5965312 -1.6355141e-20)
(46.876008 1.6444567 2.5959301e-19)
(47.026785 1.6884617 -2.548041e-20)
(47.198524 1.6332172 -1.5593433e-19)
(47.329959 1.8058858 1.5632742e-19)
(47.531557 1.651705 -2.7209557e-19)
(47.791003 1.6403608 2.4612587e-19)
(48.025516 1.551474 -1.0858932e-19)
(48.24927 1.43349 1.4368579e-19)
(48.489007 1.2835442 8.4460198e-20)
(48.695866 1.0970159 0)
(48.892546 0.89781915 3.2840754e-20)
(49.047989 0.67196577 -2.1972765e-24)
(49.163 0.42571496 -1.2774611e-19)
(49.228464 0.15154642 1.8026516e-19)
(46.322368 0.67462579 -2.6993493e-18)
(46.331107 0.68773318 2.4356601e-18)
(46.341025 0.70193034 0)
(46.352421 0.71707932 0)
(46.365663 0.733948 7.3389084e-21)
(46.381183 0.75293915 0)
(46.399453 0.77420358 0)
(46.420979 0.79781686 -1.3720314e-18)
(46.446354 0.82379534 1.2194696e-18)
(46.476241 0.85206832 -1.1653327e-24)
(46.511311 0.88233984 7.5287324e-21)
(46.552348 0.91371568 0)
(46.60035 0.94493804 0)
(46.656535 0.97450332 0)
(46.720544 1.0036156 0)
(46.794004 1.0469992 0)
(46.885092 1.0837519 -1.4419538e-20)
(46.990697 1.1191642 -1.2718005e-20)
(47.085863 1.1597639 -3.1430044e-19)
(47.222312 1.2080187 6.3367874e-19)
(47.390048 1.1154526 -3.1436237e-19)
(47.542974 1.2572315 -3.0076919e-20)
(47.745222 1.2498566 -1.086292e-19)
(47.921294 1.1608124 9.5746287e-20)
(48.119968 1.1184205 -4.222773e-20)
(48.342347 1.0236772 -7.4468767e-20)
(48.542556 0.90528391 5.6824868e-24)
(48.727203 0.74369219 5.7914512e-20)
(48.88588 0.56972152 2.5540169e-20)
(49.001809 0.36601436 1.1262023e-19)
(49.072249 0.13052628 7.9473089e-20)
(46.539538 0.48397182 -2.3849252e-18)
(46.545441 0.4928723 2.1491468e-18)
(46.55246 0.50235392 -1.9423923e-21)
(46.560791 0.51248935 1.8232981e-18)
(46.570664 0.52382586 -1.6616989e-18)
(46.582397 0.53659304 -1.5016942e-18)
(46.596186 0.5509116 1.1342246e-23)
(46.612166 0.56692488 2.4127773e-18)
(46.630697 0.58475086 -1.0765555e-18)
(46.652452 0.60435418 -3.7429436e-21)
(46.677756 0.62585227 -7.6437507e-25)
(46.707147 0.64924055 5.8915019e-21)
(46.741585 0.67451653 0)
(46.783336 0.7011211 9.2263544e-21)
(46.834837 0.72957504 -5.2184372e-19)
(46.895888 0.74935495 4.5369824e-19)
(46.965875 0.77343765 0)
(47.051152 0.79238096 -3.7024447e-19)
(47.168051 0.77201711 2.9695397e-19)
(47.278073 0.84346223 1.7461304e-20)
(47.428377 0.82875609 1.5399237e-20)
(47.574159 0.8866988 2.6593136e-20)
(47.71637 0.83951511 0)
(47.865282 0.82621642 1.686921e-19)
(48.04558 0.82985728 -1.8618706e-19)
(48.22559 0.76659814 -3.2833711e-20)
(48.410325 0.69985812 -5.7901173e-20)
(48.576892 0.59006474 0)
(48.727814 0.45522462 4.0194215e-24)
(48.842529 0.29585624 -7.9447277e-20)
(48.914343 0.10566085 6.2284368e-24)
(46.795932 0.33610895 -4.2174677e-18)
(46.802567 0.34301682 9.3783071e-22)