/*--------------------------------*- C++ -*----------------------------------*\
| =========                 |                                                 |
| \\      /  F ield         | OpenFOAM: The Open Source CFD Toolbox           |
|  \\    /   O peration     | Version:  2406                                  |
|   \\  /    A nd           | Website:  www.openfoam.com                      |
|    \\/     M anipulation  |                                                 |
\*---------------------------------------------------------------------------*/
FoamFile
{
    version     2.0;
    format      ascii;
    arch        "LSB;label=32;scalar=64";
    class       volScalarField;
    location    "0.04";
    object      alphat;
}
// * * * * * * * * * * * * * * * * * * * * * * * * * * * * * * * * * * * * * //

dimensions      [1 -1 -1 0 0 0 0];

internalField   nonuniform List<scalar> 
2065
(
0.0015843701
0.001889125
0.002199394
0.0025096581
0.0028213472
0.00084706131
0.0010122534
0.0012061183
0.001438165
0.0016911603
0.00066110755
0.00077512263
0.00091375037
0.001095337
0.0010992807
0.0012948866
0.0014925656
0.0019991806
0.0022772088
0.0025511941
0.0029640722
0.0033318956
0.0037791644
0.0044153017
0.0048813978
0.0043748652
0.0037608502
0.002981817
0.0020523554
0.0022991823
0.0011487276
0.0013076639
0.00059896763
0.00069112527
0.00078858456
0.00058148448
0.00068359047
0.00082431799
0.00099296334
0.0010388664
0.0012242768
0.0014419156
0.0016880612
0.0019601068
0.0037305954
0.0064144508
0.010218515
0.014608795
0.018559401
0.020913395
0.02109533
0.01945833
0.016820092
0.0039755533
0.006685692
0.010398012
0.014617001
0.018380082
0.020554619
0.020647171
0.018983324
0.016360713
0.0042365241
0.0069491894
0.010584332
0.014653347
0.01821994
0.020188488
0.020181637
0.018492253
0.015893791
0.004503751
0.007206029
0.010754681
0.014669415
0.018037798
0.019815062
0.019706264
0.017990937
0.015426632
0.0047804659
0.0074508325
0.010904767
0.014661221
0.017828895
0.019435857
0.019225665
0.0050650883
0.013801417
0.010628792
0.0073962824
0.0043259056
0.0017199337
0.00020751819
0.01342798
0.010336176
0.0071859622
0.0042040275
0.0016749844
0.00020359435
0.013034534
0.010029462
0.0069714769
0.0040810489
0.0016277232
0.00019934225
0.012640615
0.0097239817
0.0067614544
0.0039617473
0.0015855483
0.00019479223
0.035656762
0.02563461
0.016179634
0.0081237678
0.0024697931
0.00015494578
0.033248488
0.023843898
0.015044797
0.0076009625
0.002367125
0.00015320421
0.030932899
0.022170689
0.014027107
0.0071597352
0.0022944011
0.00015171038
0.028737278
0.020602385
0.013075167
0.0067282159
0.0021915811
0.0001506331
0.026670444
0.01913556
0.012188549
0.0063303028
0.0021088311
0.00014902226
0.024744119
0.017771257
0.011354262
0.0059303616
0.0019889473
0.00014793354
0.02295515
0.016503212
0.01057661
0.0055647969
0.0019022491
0.00014596285
0.021300831
0.015322684
0.0098352875
0.0051888885
0.0017776347
0.0001435996
0.019773538
0.014245044
0.0091750519
0.0048747167
0.0016966811
0.00014129693
0.018410195
0.013268217
0.0085614975
0.0045674424
0.0016003793
0.0001392955
0.017267361
0.012460813
0.0080622916
0.0043239034
0.0015321337
0.0001377025
0.016279763
0.011771738
0.0076384773
0.0041144771
0.0014666429
0.00013682768
0.015445941
0.011213334
0.0073116524
0.0039633301
0.0014266687
0.00013683129
0.014712613
0.01070596
0.007012358
0.0038290229
0.0013949028
0.00013754971
0.014159425
0.01033652
0.0067976926
0.0037328566
0.001371827
0.00013927995
0.013751307
0.010076335
0.0066574724
0.0036766831
0.0013614746
0.00014200182
0.013460283
0.0099039647
0.0065734813
0.0036506755
0.0013628545
0.00014574192
0.013287031
0.0098225552
0.0065564882
0.0036655748
0.0013787214
0.00015056939
0.013204643
0.0098039504
0.0065746268
0.0036957422
0.0014013353
0.00015647393
0.013223196
0.0098792147
0.0066719344
0.0037791764
0.0014432954
0.00016355169
0.013288952
0.0099747398
0.0067656015
0.0038500984
0.0014824035
0.0001717429
0.013475087
0.010202371
0.0069858221
0.0040136779
0.0015577455
0.00018123836
0.01357832
0.01031746
0.0070838533
0.0040852265
0.0015994698
0.00019177375
0.01412294
0.010894129
0.0076015894
0.0044547223
0.0017596808
0.0002045368
0.042601245
0.05092374
0.059690226
0.067417368
0.071947654
0.071438921
0.065741005
0.056473406
0.045950232
0.039658215
0.047794509
0.056359385
0.063821026
0.068118174
0.067529343
0.062013895
0.053085132
0.0430125
0.037020967
0.044869074
0.053134865
0.060284968
0.064331931
0.063666097
0.058314098
0.04973512
0.040139763
0.034608144
0.042122118
0.050036066
0.056843226
0.060621308
0.059879331
0.054687518
0.046475538
0.037378239
0.032373886
0.039518014
0.047058193
0.053501375
0.057004576
0.0561979
0.051169968
0.043341107
0.034750744
0.030292964
0.037060576
0.04418929
0.050264397
0.053502288
0.052643887
0.047795985
0.040363418
0.032281843
0.028360836
0.034790429
0.041479283
0.047135047
0.050117476
0.049238337
0.044591716
0.037561655
0.029976477
0.026506316
0.032583551
0.038925613
0.04421765
0.046916826
0.045980664
0.041552926
0.034939468
0.027839528
0.024806707
0.030514133
0.036480765
0.04147832
0.04398174
0.043006162
0.038749916
0.032499758
0.025851917
0.023124868
0.028528999
0.034164938
0.03886537
0.041227172
0.040293047
0.036259942
0.030351476
0.024094994
0.021699388
0.026755691
0.032038763
0.036447733
0.038650299
0.037773483
0.034003951
0.028463104
0.022591963
0.020386868
0.025134456
0.030090434
0.034232544
0.036303373
0.035479743
0.031945554
0.02676455
0.021269398
0.019078685
0.023548436
0.028242199
0.032199354
0.034193336
0.0334417
0.030141067
0.025282994
0.020123634
0.017784053
0.022021072
0.0264968
0.030311265
0.032283705
0.031650852
0.028585495
0.024012765
0.019137162
0.016562184
0.020587738
0.024876249
0.028584002
0.030575619
0.030084069
0.027268201
0.022980818
0.01836457
0.015385073
0.019227477
0.023366918
0.027006286
0.029059364
0.028730951
0.026165502
0.022152903
0.017769181
0.01423161
0.017913065
0.021935736
0.025541176
0.027704603
0.027561722
0.025242899
0.021500544
0.017322628
0.013061803
0.016605687
0.020544035
0.024153339
0.026462986
0.026540827
0.024469925
0.021002213
0.017011548
0.011858369
0.015284594
0.019166419
0.022820103
0.025294766
0.025637984
0.023818284
0.02063305
0.016824461
0.010549039
0.013870381
0.017725026
0.021471351
0.024148862
0.024808619
0.023246616
0.02034619
0.016733578
0.0091682244
0.012441613
0.016301958
0.020153312
0.023032763
0.024044924
0.022776713
0.02014438
0.016713038
0.0075379225
0.010657668
0.014545329
0.018602049
0.021806262
0.023240266
0.022365938
0.020006706
0.016791504
0.0061865456
0.0093286718
0.013209763
0.017364905
0.020773697
0.02241929
0.021978396
0.019862032
0.016821693
0.0036436941
0.0064243855
0.010368019
0.01489822
0.018952869
0.021394449
0.021589098
0.019909682
0.017218953
0.00041331869
0.003575234
0.0093416445
0.016666119
0.024978421
0.034005822
0.00039094612
0.0033179867
0.008642036
0.015423464
0.023178566
0.031617646
0.00037066581
0.0030878549
0.0080281005
0.014322321
0.021545026
0.029420926
0.00035231858
0.0028605532
0.0074665329
0.013329953
0.020069372
0.027433507
0.00033603904
0.0026563827
0.0069645704
0.012440378
0.018733374
0.025618688
0.00032114768
0.0024403036
0.0064629479
0.011585451
0.017471522
0.023911233
0.0003082583
0.0022888196
0.0060681191
0.010857944
0.016351052
0.02235947
0.00029614472
0.0020750045
0.0055835579
0.010067135
0.015219325
0.020850695
0.00028615262
0.0019864035
0.0053163104
0.009506536
0.014295608
0.019524979
0.00027641219
0.0017701873
0.0048075634
0.0087123339
0.013216127
0.018137859
0.00026843121
0.0016880878
0.0045882694
0.0082754298
0.012486803
0.017059463
0.00026247738
0.0016670875
0.0044191546
0.0078652471
0.011789558
0.016047623
0.00025687044
0.0015449402
0.0041644816
0.0073990254
0.011061196
0.015024654
0.00025176815
0.0013507879
0.0037730268
0.0068148967
0.010256436
0.013970875
0.00024636012
0.0012297094
0.003473068
0.006293556
0.0095034882
0.012975267
0.00024121076
0.0011124298
0.0031769284
0.0057806463
0.008764559
0.012005267
0.0002367671
0.00099222221
0.0028797948
0.0052752814
0.0080333042
0.011046072
0.00022980884
0.0008681809
0.0025609606
0.0047313636
0.0072644821
0.010055791
0.00021934325
0.0007250857
0.0022092098
0.0041577707
0.0064588872
0.0090218754
0.00020496584
0.00057521443
0.0017950381
0.0034819118
0.0055398418
0.007871037
0.00018694863
0.000404134
0.0012869821
0.0027358617
0.0045205891
0.006606371
0.00014741273
0.00026749098
0.0007425459
0.0018354949
0.0033935411
0.0052087146
7.3532807e-05
0.00013962121
0.00035476996
0.00099287361
0.0021072064
0.003670122
2.0827051e-05
7.0530988e-05
0.00016160992
0.00044271647
0.0011570804
0.0021515449
2.1278166e-05
9.0537296e-05
0.00012418421
0.0001954692
0.00047849701
0.0011811262
2.4683055e-05
0.0002137798
0.00034669638
0.00031176893
0.00031249854
0.0006558749
2.5624959e-05
0.00024225272
0.0005482516
0.00066806938
0.00062929452
0.00058567017
2.9064486e-05
0.00029200435
0.00072914001
0.0010610808
0.0011493208
0.00094073971
3.3666182e-05
0.00032425179
0.00086455385
0.0013861891
0.0017172437
0.0017956353
3.9420387e-05
0.00041065342
0.001056375
0.0017197194
0.0022704317
0.0026304471
4.54395e-05
0.00050098462
0.001275147
0.0020806672
0.0027857434
0.003327145
5.1498705e-05
0.00058619716
0.0014966685
0.0024390072
0.0032619704
0.0039070849
5.6398832e-05
0.00066357139
0.0016997546
0.0027600261
0.0036678825
0.0043657403
6.0046425e-05
0.00072693082
0.0018638624
0.0030145604
0.0039786496
0.0047000284
6.19314e-05
0.00076889549
0.0019743954
0.0031816308
0.0041749857
0.0049012065
6.3868555e-05
0.00079233404
0.0020285493
0.00324773
0.0042442981
0.0049658423
6.1018669e-05
0.00077848722
0.0019927078
0.0032040078
0.0041913437
0.0049026429
5.8995632e-05
0.00074134641
0.0019001185
0.0030605742
0.0040139649
0.0047059082
5.609558e-05
0.0006867444
0.0017539643
0.0028276768
0.0037203918
0.0043788908
5.1158045e-05
0.0006107208
0.001557451
0.0025156046
0.0033227412
0.0039275943
4.5158675e-05
0.00052274088
0.0013273369
0.0021448047
0.0028375297
0.0033542353
3.8456923e-05
0.00043307506
0.0010923493
0.0017551098
0.0022999168
0.0026676901
3.2190537e-05
0.00033227691
0.00086369718
0.0013750868
0.0017258738
0.001859723
2.644747e-05
0.00025852984
0.00068624219
0.0010224086
0.0011333923
0.0010079267
2.1324112e-05
0.00019256906
0.00046755618
0.00061414423
0.00061876055
0.00052241393
1.6782587e-05
0.00014579385
0.00030105098
0.00029476195
0.0002783698
0.00048835884
1.3666122e-05
8.1171872e-05
0.00013264754
0.00016420909
0.00032038206
0.00083934048
1.5889755e-05
7.9308334e-05
0.00014113614
0.00032376394
0.00044555011
0.0038984406
0.010397678
0.018771269
0.00044746256
0.0039962537
0.010694724
0.01933125
0.029278298
0.040230629
0.00044867235
0.0040807093
0.010956687
0.019832914
0.030063882
0.04135499
0.00044961468
0.0041636398
0.011206153
0.020297535
0.030777024
0.042355311
0.00045036069
0.0042445639
0.011442992
0.020723792
0.031412541
0.04322022
0.00045048616
0.0043236376
0.01165775
0.021096469
0.031952566
0.043935708
0.00044697567
0.0043735551
0.011809872
0.021376905
0.032368606
0.044495733
0.00044450794
0.0044215494
0.011938141
0.02160161
0.032693777
0.044923933
0.00044108681
0.0044641924
0.012045724
0.021773593
0.032932596
0.04522179
0.00043684798
0.0044938113
0.012114093
0.021883042
0.033074941
0.045381356
0.00043411266
0.0045147366
0.012163114
0.021941304
0.033120043
0.045394157
0.00043796282
0.0045319035
0.012198463
0.021937493
0.033048537
0.045241037
0.00042745347
0.0045137
0.012096787
0.021771308
0.03280958
0.044902619
0.00042852319
0.0044673286
0.011973518
0.021545614
0.032461852
0.044409347
0.00043083999
0.0044180205
0.0118345
0.021286471
0.032049669
0.043808932
0.00043301412
0.0043607951
0.011670164
0.02097855
0.031566102
0.043111001
0.00043420891
0.004296125
0.011482266
0.020623902
0.031010308
0.042321547
0.00043460732
0.0042293963
0.011289375
0.02025421
0.030420219
0.041466738
0.00043635319
0.0041622817
0.011076266
0.019849852
0.029785412
0.040557116
0.00043478053
0.0040743739
0.010829535
0.019403722
0.029102657
0.039591793
0.0004330002
0.0039895658
0.0105861
0.018951123
0.028395476
0.038583813
0.00043167367
0.0039184217
0.010356128
0.018503558
0.027678189
0.037547342
0.00042978915
0.0038180922
0.010091537
0.018034663
0.026969149
0.036536187
0.00042938893
0.0038204307
0.010047544
0.017852446
0.026558418
0.035866055
7.7650787e-05
0.00013735835
0.00016484395
0.00044043736
0.00044324456
0.0038019968
0.043997601
0.045252596
0.046846719
0.048427857
0.049940431
0.05137669
0.052725136
0.053999133
0.055158514
0.056182611
0.057052386
0.057741411
0.058205999
0.058431943
0.058417761
0.058175669
0.057722072
0.057069668
0.056218159
0.055150232
0.053861023
0.052350802
0.050648327
0.051947753
0.054260925
0.056637632
0.058889916
0.061013703
0.063016586
0.064903285
0.066663676
0.068259288
0.069660583
0.070836774
0.071747921
0.072360702
0.072664802
0.072650469
0.072323084
0.071695102
0.070781533
0.069589618
0.068115796
0.066332688
0.064225291
0.061783846
0.061210972
0.064413439
0.067509113
0.070414793
0.0731564
0.075753564
0.078217854
0.080496019
0.082559322
0.084369345
0.085885525
0.087059741
0.087866531
0.088293563
0.088327712
0.087967122
0.087219959
0.086098103
0.084613021
0.082770599
0.080545865
0.077904797
0.074806462
0.071587246
0.075538642
0.079308934
0.082867506
0.08625121
0.08948763
0.092548744
0.095385892
0.097957867
0.10021877
0.10212148
0.10361236
0.10466985
0.10527866
0.10542293
0.10509406
0.10429579
0.10303718
0.1013286
0.099165537
0.096558634
0.093456226
0.089805884
0.082816288
0.087424597
0.091848846
0.096075945
0.10014252
0.10404843
0.10774304
0.11118196
0.11431155
0.11707921
0.11942936
0.1213069
0.1226879
0.12355578
0.12389067
0.12367771
0.12291552
0.12160796
0.11976235
0.11738163
0.11446398
0.11098183
0.10687995
0.094553492
0.099777551
0.10486092
0.10978951
0.11457564
0.11918528
0.12357048
0.12767339
0.13142925
0.1347771
0.13765848
0.14001409
0.14180957
0.14303341
0.14365982
0.14366777
0.14305076
0.14180765
0.13994145
0.13745448
0.1343385
0.13058004
0.12613801
0.10636759
0.11220888
0.11798215
0.12365976
0.12921474
0.13460153
0.13975648
0.14460702
0.14907922
0.15310417
0.15662018
0.15956699
0.16189193
0.16359042
0.16463113
0.16498646
0.1646443
0.16359812
0.16184599
0.15938776
0.15621743
0.15231827
0.14767094
0.11772274
0.12422932
0.13076597
0.13726988
0.14368754
0.14995069
0.15597846
0.16168596
0.16699005
0.17181447
0.17609135
0.17976216
0.18276162
0.18507488
0.18667466
0.18752588
0.1876107
0.18691683
0.18543674
0.18316599
0.18009864
0.17622221
0.17152542
0.12804314
0.13533044
0.14274228
0.15019152
0.15759235
0.16485584
0.17188648
0.17858654
0.18486467
0.19063658
0.19582765
0.20037366
0.20421372
0.20730351
0.20962729
0.21114212
0.21182507
0.21165872
0.21063017
0.20872949
0.2059473
0.20227666
0.19772653
0.13683878
0.14506398
0.15348788
0.16201832
0.17054538
0.17895818
0.18714527
0.19499861
0.20241565
0.2093035
0.21558016
0.22117477
0.2260273
0.23007107
0.23329759
0.23565658
0.23712132
0.23767061
0.23728762
0.23595808
0.23366825
0.2304116
0.22621183
0.14380571
0.1531084
0.16270339
0.17247582
0.18228995
0.19201658
0.20152866
0.21070421
0.21943021
0.22760499
0.23513897
0.24195456
0.2479856
0.25317369
0.25747923
0.26086361
0.26329611
0.26475248
0.26521338
0.26466223
0.26308317
0.2604683
0.2568426
0.14895216
0.15951437
0.17044795
0.18162068
0.19287544
0.204062
0.21503889
0.22567395
0.235846
0.24544638
0.25437934
0.26256195
0.26992347
0.27640448
0.28194734
0.28652783
0.29010491
0.29265273
0.29415057
0.29458077
0.29392682
0.29218094
0.28936928
0.15301318
0.16498353
0.17736294
0.19001775
0.20277614
0.21547647
0.22796945
0.24011684
0.25179209
0.26288151
0.27328478
0.2829148
0.29169705
0.29956872
0.30647735
0.31238087
0.31724478
0.32104129
0.32374821
0.32534687
0.32582038
0.32516134
0.15738726
0.17073778
0.18452048
0.19859134
0.21277748
0.2269148
0.24085056
0.25444324
0.26756342
0.28009491
0.29193516
0.3029951
0.31319844
0.32248078
0.33078844
0.33807724
0.34431127
0.3494616
0.35350492
0.35642152
0.35819374
0.35881368
0.16332858
0.17790262
0.19291746
0.2082208
0.22364363
0.23902374
0.25420922
0.26905942
0.28344614
0.29725448
0.31038306
0.32274376
0.33426099
0.34487073
0.3545194
0.36316267
0.37076418
0.37729443
0.3827294
0.38704859
0.3902337
0.39227646
0.17136283
0.18694132
0.20295151
0.21923646
0.2356342
0.25198883
0.26815395
0.28399442
0.29938751
0.31422348
0.32840567
0.34185008
0.3544847
0.36624844
0.37709008
0.38696704
0.39584421
0.40369285
0.41048925
0.41621286
0.42084515
0.42437792
0.18089363
0.19723826
0.21398613
0.23098258
0.24807483
0.26511621
0.28196923
0.29850758
0.31461724
0.33019687
0.34515766
0.35942284
0.37292684
0.38561434
0.39743907
0.40836264
0.41835344
0.42738549
0.43543724
0.44248966
0.44852552
0.45353781
0.1900503
0.20689928
0.22411184
0.24153901
0.25903827
0.27647404
0.29372
0.31066112
0.32719456
0.34322979
0.35868826
0.37350269
0.38761622
0.40098131
0.41355863
0.42531584
0.43622653
0.44626912
0.45542569
0.46368022
0.47101813
0.47743475
0.19535685
0.21236547
0.2297025
0.24722135
0.26479203
0.28229247
0.29960988
0.31664248
0.33330022
0.34950471
0.36518866
0.38029524
0.39477708
0.40859521
0.42171788
0.43411938
0.44577891
0.45667962
0.46680743
0.47614947
0.48469398
0.49243826
0.1904887
0.20711482
0.22406516
0.2411985
0.25839911
0.2755594
0.29257971
0.30937001
0.32585071
0.34195277
0.35761762
0.37279701
0.38745226
0.40155268
0.41507401
0.427997
0.44030628
0.45198925
0.46303502
0.47343309
0.48317362
0.49225411
0.16209328
0.17769979
0.1937049
0.20998372
0.22644296
0.24297895
0.25949082
0.27588518
0.29207624
0.30798512
0.32353934
0.33869495
0.35343671
0.36775158
0.38162835
0.39505724
0.40802948
0.42053698
0.43257166
0.44412469
0.45518718
0.46575524
0.1050539
0.11766591
0.13081463
0.14434707
0.15815179
0.17216096
0.18632496
0.20060501
0.21496892
0.22938323
0.2438013
0.25821268
0.27256656
0.28681819
0.30092836
0.31486299
0.32859318
0.34209456
0.35534647
0.36833129
0.38103498
0.39343373
0.050733296
0.058388052
0.066566824
0.07511184
0.084004184
0.09321325
0.10270479
0.11245869
0.12248666
0.13284519
0.14360731
0.1546819
0.16598825
0.17747224
0.18909133
0.20080509
0.21258699
0.22441572
0.23627128
0.2481333
0.25998049
0.27181216
0.022876364
0.026880266
0.031176157
0.03584973
0.04085662
0.046150001
0.051672125
0.057362063
0.063152641
0.068975724
0.074913167
0.080989409
0.087204042
0.09352759
0.099944938
0.10645849
0.1130846
0.11984768
0.12676641
0.133858
0.14114076
0.14864518
0.017340544
0.01983218
0.022455924
0.02518309
0.027975256
0.030790795
0.033608742
0.036413967
0.039192105
0.04193624
0.044651739
0.047339698
0.049999604
0.052652668
0.055321374
0.058027232
0.060791468
0.063637269
0.06659009
0.069667309
0.072885383
0.076248144
0.017353847
0.019570615
0.02182194
0.024084693
0.026337434
0.028560348
0.030734917
0.032844761
0.034877065
0.036824349
0.038685222
0.040461605
0.042156783
0.043772219
0.045314546
0.046786661
0.048189821
0.049528571
0.050807624
0.052048547
0.053253868
0.054417775
0.018905268
0.021290727
0.02367738
0.026032493
0.028325425
0.030528869
0.032619959
0.034580905
0.036399201
0.038067527
0.039583517
0.040949447
0.042171903
0.043261439
0.044232335
0.045101981
0.045888335
0.046603856
0.047259985
0.047862425
0.048414846
0.048920306
0.020994211
0.02354168
0.026040486
0.028457568
0.030765381
0.032941683
0.034969745
0.036838293
0.03854118
0.040076849
0.041447645
0.042659069
0.043719033
0.044637208
0.045424483
0.046092541
0.046653547
0.047119478
0.047502276
0.04781711
0.048076754
0.048291934
0.025212066
0.028024327
0.030680718
0.033147214
0.035401094
0.037429925
0.03923043
0.040807047
0.042170318
0.043335282
0.044320031
0.045143258
0.045823601
0.04638019
0.046831573
0.047194982
0.047485866
0.047717782
0.047902161
0.048048368
0.048163968
0.048254993
0.031117257
0.034048903
0.036631987
0.038859078
0.040744039
0.042314112
0.043603736
0.044649975
0.045489357
0.046155853
0.046679721
0.047088099
0.047404522
0.047647906
0.047833378
0.047973015
0.048076493
0.04815188
0.04820622
0.048245368
0.048273765
0.048293631
0.042111935
0.043573454
0.044681159
0.045523313
0.046165065
0.046654837
0.047028781
0.047314055
0.047531206
0.047695895
0.047820153
0.047913306
0.047982637
0.048033842
0.048071386
0.04809876
0.048118661
0.048133091
0.048143386
0.048150238
0.048154061
0.048156321
0.047599004
0.058463589
0.068184497
0.074454231
0.075467893
0.071394381
0.064006594
0.055531779
0.047910241
0.0470611
0.058431776
0.068938604
0.076378255
0.078823421
0.076259528
0.07023811
0.062809802
0.05549467
0.046352428
0.058182621
0.069506292
0.078196131
0.082215893
0.081318793
0.076806558
0.07056014
0.064007434
0.045277624
0.05754869
0.069727333
0.079754572
0.085499894
0.086458962
0.083664853
0.078829312
0.073417926
0.043648944
0.056330567
0.069419366
0.080851417
0.088484108
0.091513648
0.090687469
0.087530239
0.083544787
0.041314278
0.054336305
0.06834559
0.081243004
0.090913176
0.096231029
0.097632134
0.096423132
0.094072056
0.038184869
0.051409901
0.066265002
0.080657241
0.092472732
0.10027152
0.10413925
0.1051228
0.10458675
0.034354364
0.047526256
0.063021775
0.078856583
0.092824324
0.10323568
0.10976423
0.1131513
0.11457318
0.030175479
0.042932121
0.058690182
0.075733736
0.091708616
0.10473856
0.1140316
0.11996302
0.12345921
0.026302408
0.038256841
0.053754387
0.071488585
0.089160699
0.10459215
0.11657978
0.12506458
0.13070567
0.023365095
0.034344588
0.049130351
0.06690517
0.085657192
0.10302401
0.11739407
0.12828997
0.13606838
0.021514063
0.031671287
0.045633909
0.062996141
0.082145363
0.10080129
0.11704931
0.12998619
0.13965613
0.020780691
0.030510119
0.043924432
0.060834376
0.079960376
0.099239191
0.11668682
0.13112093
0.14228701
0.021050892
0.030796916
0.044138476
0.060933653
0.080073804
0.099688073
0.11784625
0.13324746
0.14544689
0.021805801
0.031955573
0.045741355
0.062964815
0.08252173
0.10261425
0.12137358
0.1374806
0.15040668
0.022997474
0.033834212
0.048441155
0.066533759
0.086927762
0.10779835
0.12728829
0.14408331
0.15763158
0.02418335
0.035875134
0.051532823
0.07078488
0.092334039
0.11426734
0.13468653
0.15227044
0.16646615
0.024214007
0.036736509
0.05349243
0.074029754
0.096914918
0.12010505
0.14162131
0.16011181
0.17502285
0.020892645
0.033989422
0.05162531
0.07334443
0.097562164
0.12206424
0.14474904
0.16420638
0.17987372
0.012018287
0.023543683
0.040874927
0.06318312
0.08850439
0.11422194
0.13801604
0.1584125
0.17482574
0.0043304476
0.0099248855
0.020771819
0.03800489
0.060354454
0.085065561
0.10889443
0.12972098
0.14664177
0.0015128018
0.0034871453
0.0079021638
0.015783626
0.027894869
0.043525269
0.061035744
0.077737213
0.092063179
0.0010972352
0.0018875086
0.0034112264
0.0063001019
0.011297435
0.018434491
0.026756622
0.035308667
0.043129403
0.0011516304
0.0018598706
0.0029435723
0.0045395705
0.0067529504
0.0095741824
0.012808547
0.016182224
0.019359583
0.0012228642
0.0019775383
0.0031201007
0.0046913315
0.0066590187
0.0088852872
0.011183085
0.01334906
0.015238208
0.0013610179
0.0021866427
0.0034177143
0.0051001944
0.0071714662
0.009456903
0.011717271
0.013754234
0.015457033
0.0015529905
0.0024798678
0.0038568555
0.005722595
0.0079933224
0.010466831
0.012894088
0.015066209
0.016866317
0.0018095884
0.0028903602
0.0044808554
0.0066106953
0.0091694263
0.011914874
0.0145632
0.016895306
0.018802127
0.0024130198
0.0038109525
0.0058330661
0.0084875556
0.011606949
0.014877986
0.017962133
0.020616293
0.022742862
0.0035281774
0.0054674658
0.008194803
0.011656584
0.015570981
0.01951496
0.023099669
0.026093316
0.028417145
0.0088543797
0.013035136
0.018230123
0.023868502
0.02917693
0.033556585
0.036799879
0.039026526
0.040513301
0.036986138
0.03620309
0.035359494
0.034184209
0.032512933
0.030237969
0.027323001
0.023944561
0.020500173
0.01757436
0.015534765
0.014312236
0.013839755
0.01402211
0.014436638
0.01508357
0.015615393
0.015078866
0.011575524
0.0052734454
0.0016884978
0.00070098951
0.00064707495
0.00068445763
0.00073248498
0.00081421841
0.0009361859
0.0010856066
0.0014577355
0.0021646316
0.0056198407
0.02665282
0.025797411
0.025010987
0.023935725
0.022449683
0.020491529
0.018063937
0.015393782
0.012862494
0.01090566
0.0096371521
0.0088835653
0.0085677251
0.0086316437
0.008768953
0.0089837915
0.00901069
0.0081011432
0.0049804178
0.0017436647
0.00052269485
0.00032765121
0.00034403566
0.00036280035
0.00038838182
0.00042930153
0.00049618991
0.00056851172
0.00076074579
0.0011379876
0.0029704247
0.016895491
0.016093831
0.015501342
0.014662837
0.013530416
0.012079506
0.010344026
0.0085517908
0.0070064238
0.0059333987
0.0052668408
0.0048454994
0.0046295272
0.0045864068
0.0045363171
0.0044631133
0.0041735626
0.0031243979
0.001287434
0.00037285878
0.0001453023
0.00013773941
0.00014998883
0.00015702098
0.00016818873
0.00018519108
0.00021491062
0.00024447492
0.00032315238
0.00048264049
0.0012268273
0.0085271443
0.0079324318
0.0075932667
0.0070560783
0.0063776538
0.005527048
0.0045772977
0.0036732198
0.0029971272
0.0025689572
0.0022896654
0.0020796967
0.001938888
0.0018338997
0.0017033334
0.0015169439
0.0011411657
0.00049460843
0.00013199976
4.1726615e-05
3.479627e-05
3.9045023e-05
4.180459e-05
4.5455e-05
4.8432674e-05
5.4411203e-05
6.2957959e-05
7.3705805e-05
9.6520392e-05
0.00014119064
0.00033490416
0.0025886803
0.0023255141
0.002209355
0.0019552653
0.0017235722
0.0014142644
0.0011448714
0.00090868702
0.0007658986
0.00066018284
0.00058328954
0.0005035262
0.00044013415
0.00035643627
0.00025156752
0.00015614307
8.0628279e-05
1.9646851e-05
4.0849835e-06
2.8213211e-06
3.0725212e-06
3.4733187e-06
3.9403292e-06
4.337718e-06
4.8516946e-06
5.7150772e-06
7.0689948e-06
8.9945807e-06
1.2839957e-05
2.0812625e-05
4.4059801e-05
0.00014956014
0.00013689016
0.0001245924
0.00010943683
9.4572151e-05
7.9598795e-05
6.7532977e-05
5.8485279e-05
5.225521e-05
4.6929848e-05
4.1744174e-05
3.6061199e-05
2.9583151e-05
2.2065582e-05
1.4858271e-05
9.0156174e-06
4.803613e-06
2.2690321e-06
1.1290821e-06
6.6583418e-07
4.7349292e-07
3.692386e-07
3.2000544e-07
2.8850536e-07
2.5800602e-07
2.2276355e-07
1.8432782e-07
1.5867784e-07
1.9426847e-07
4.2971265e-07
1.3359345e-06
)
;

boundaryField
{
    Side1
    {
        type            empty;
    }
    Inlet
    {
        type            calculated;
        value           uniform 0.047769987;
    }
    Side2
    {
        type            empty;
    }
    Outlet
    {
        type            zeroGradient;
    }
    Botwall
    {
        type            compressible::alphatWallFunction;
        value           nonuniform List<scalar> 
59
(
2.414475e-05
2.3500567e-05
2.2800761e-05
2.2052053e-05
1.5424234e-05
1.5137992e-05
1.489745e-05
1.4717571e-05
1.4461879e-05
1.4276033e-05
1.3959377e-05
1.3561062e-05
1.3183407e-05
1.2846969e-05
1.258532e-05
1.2437068e-05
1.2440508e-05
1.2561021e-05
1.2850822e-05
1.3306753e-05
1.3932116e-05
1.4737975e-05
1.5721755e-05
1.6898381e-05
1.8256491e-05
1.9826254e-05
2.1562351e-05
2.3657528e-05
1.4519272e-05
1.2391069e-05
1.0312853e-05
7.7326829e-06
5.1744889e-06
2.5578945e-06
4.0525067e-07
0
0
0
0
0
0
0
0
0
0
0
0
0
0
0
0
0
0
0
0
0
0
0
0
)
;
    }
    Cyli
    {
        type            compressible::alphatWallFunction;
        value           nonuniform List<scalar> 
76
(
5.6856793e-05
5.3392634e-05
5.0236086e-05
4.7366414e-05
4.4808555e-05
4.245866e-05
4.0417023e-05
3.8490394e-05
3.6894607e-05
3.5334619e-05
3.4051396e-05
3.3096404e-05
3.2189411e-05
3.1360364e-05
3.0475065e-05
2.9631653e-05
2.8902593e-05
2.7760196e-05
2.6062083e-05
2.3681607e-05
2.072175e-05
1.4148052e-05
1.4849507e-06
0
0
0
0
0
0
0
0
0
0
0
0
0
0
0
0
0
0
0
0
0
0
0
0
0
6.1823137e-05
6.2112739e-05
6.2294382e-05
6.2435279e-05
6.2547623e-05
6.2567126e-05
6.2022055e-05
6.1638114e-05
6.1112465e-05
6.0459424e-05
6.0036957e-05
6.0628261e-05
5.9010488e-05
5.9176116e-05
5.9534055e-05
5.9870279e-05
6.0056035e-05
6.0119496e-05
6.0390498e-05
6.0151222e-05
5.9880058e-05
5.9678709e-05
5.9391581e-05
5.9332925e-05
2.2055708e-06
1.7045375e-05
6.1045094e-05
6.1472827e-05
)
;
    }
    procBoundary0to1
    {
        type            processor;
        value           nonuniform List<scalar> 
44
(
0.0031437835
0.0031437835
0.0019712549
0.0013256608
0.0013256608
0.0017321655
0.0017321655
0.0028103688
0.0036458746
0.0036458746
0.0042046626
0.0042046626
0.004848623
0.0052967333
0.0052086062
0.0052086062
0.0053959973
0.0054494376
0.0053765437
0.0051721613
0.0048382388
0.0048382388
0.0047412864
0.0041255042
0.003307027
0.003307027
0.0025297577
0.017485254
0.014960901
0.0076959458
0.011044981
0.014635945
0.017601763
0.019049496
0.017485254
0.018735887
0.0076959458
0.0053600774
0.012248735
0.0094212643
0.0065562303
0.0038472478
0.0015407471
0.00019001625
)
;
    }
    procBoundary0to2
    {
        type            processor;
        value           nonuniform List<scalar> 
55
(
0.0020316715
0.0024040587
0.0027723419
0.0031378586
0.0035041153
0.00074393929
0.0015243883
0.00030604665
0.00074393929
0.00073068701
0.010108818
0.028429972
0.01824413
0.028429972
0.039157435
0.00030604665
0.00027027661
0.00027027661
0.00021907582
0.0004369805
0.0037018333
0.0037018333
0.010108818
0.048979793
0.059126526
0.071293162
0.085598905
0.10214182
0.12100421
0.14227852
0.16603092
0.19230125
0.22108366
0.25222286
0.28550713
0.32338323
0.32338323
0.35829332
0.39318909
0.42682468
0.45754029
0.48294263
0.49939155
0.50067452
0.47581303
0.40547283
0.28358251
0.15639325
0.079754575
0.05553661
0.049387197
0.048472473
0.048326965
0.048305881
0.04815591
)
;
    }
    procBoundary0to3
    {
        type            processor;
        value           nonuniform List<scalar> 7(0.0014777278 0.0014777278 0.00090629042 0.00090629042 0.0011806211 0.0011806211 0.0022633628);
    }
}


// ************************************************************************* //
