/*--------------------------------*- C++ -*----------------------------------*\
| =========                 |                                                 |
| \\      /  F ield         | OpenFOAM: The Open Source CFD Toolbox           |
|  \\    /   O peration     | Version:  2406                                  |
|   \\  /    A nd           | Website:  www.openfoam.com                      |
|    \\/     M anipulation  |                                                 |
\*---------------------------------------------------------------------------*/
FoamFile
{
    version     2.0;
    format      ascii;
    arch        "LSB;label=32;scalar=64";
    class       volScalarField;
    location    "0.04";
    object      Ma;
}
// * * * * * * * * * * * * * * * * * * * * * * * * * * * * * * * * * * * * * //

dimensions      [0 0 0 0 0 0 0];

internalField   nonuniform List<scalar> 
2065
(
0.10463296
0.1076067
0.11021554
0.11232171
0.11407632
0.066739419
0.071954888
0.077118501
0.081956104
0.086326628
0.031714279
0.035291837
0.039482329
0.044453144
0.012703465
0.015332966
0.018068087
0.0082049581
0.0091016407
0.010209676
0.0087121698
0.0081545739
0.0098421505
0.010857751
0.011686474
0.0089137967
0.0076606094
0.0065797119
0.0061326668
0.0062804735
0.0089802765
0.010844942
0.021966086
0.024993101
0.028361567
0.049703087
0.054463421
0.059315013
0.064157469
0.084648067
0.088288966
0.091701936
0.094673201
0.097260068
0.12639258
0.13674265
0.14672153
0.15605859
0.16432509
0.17121133
0.17670755
0.1809681
0.18420113
0.12681258
0.13738888
0.14708258
0.15603297
0.16389125
0.17046625
0.17574465
0.17985373
0.18298568
0.12765462
0.13821749
0.14744651
0.1559233
0.16338787
0.16966566
0.17473301
0.17869289
0.18172124
0.12835295
0.13873511
0.14764217
0.15571885
0.16283906
0.16884426
0.17370607
0.17751629
0.18043917
0.12900355
0.13916319
0.14779888
0.15551964
0.1623028
0.16803496
0.1726883
0.1296663
0.18687731
0.18936937
0.19172977
0.19399785
0.19611797
0.19691233
0.18557147
0.18797703
0.19025552
0.19244695
0.19450454
0.19529371
0.18422262
0.18655413
0.18876769
0.19090384
0.1929242
0.19371389
0.18285672
0.18511392
0.1872639
0.18934806
0.19133239
0.19211658
0.14421818
0.14425506
0.14412087
0.1437558
0.14291027
0.14034118
0.15091438
0.15105364
0.15108001
0.15094537
0.15048577
0.14911239
0.15792488
0.15816354
0.15830416
0.15826847
0.15780131
0.15588415
0.16515464
0.1655216
0.1658323
0.16604459
0.16605124
0.16551138
0.17247131
0.17297129
0.1734285
0.17376794
0.17375196
0.17202394
0.17967442
0.1803004
0.18091193
0.18147598
0.18195895
0.18288816
0.18658729
0.18733128
0.18808807
0.18886293
0.18970925
0.19111047
0.19311779
0.1940096
0.1949382
0.19591123
0.19694731
0.19769756
0.19906622
0.20011478
0.20121998
0.20238374
0.20357075
0.20377956
0.20418763
0.2053631
0.20659491
0.20787359
0.2091137
0.20894379
0.20831984
0.20962533
0.21098832
0.21239497
0.21371172
0.21311078
0.21128138
0.21269552
0.21414079
0.21559432
0.21689907
0.21612104
0.21304582
0.21464505
0.21626771
0.21788302
0.21928212
0.21812587
0.21344708
0.2151429
0.21685941
0.21856295
0.22002915
0.21888004
0.21309463
0.2148075
0.21652133
0.2181795
0.21959186
0.21840898
0.21203691
0.21387299
0.21568753
0.21740318
0.21880614
0.21754742
0.2101086
0.21202773
0.21391533
0.21573619
0.21724163
0.2159876
0.20762687
0.20963967
0.21159548
0.21346813
0.21502999
0.21392832
0.20473338
0.20684985
0.20889415
0.21085216
0.21251314
0.21154816
0.2015885
0.20379575
0.20590832
0.20791775
0.20963966
0.2089453
0.19835959
0.20066119
0.20286196
0.20496769
0.20681308
0.20628394
0.19511247
0.19747831
0.19972288
0.20186031
0.20376772
0.20360121
0.19208251
0.19452828
0.1968487
0.19906873
0.20108197
0.20105034
0.18887131
0.19138765
0.19377474
0.19606843
0.19820702
0.19854873
0.14194924
0.1419043
0.14247235
0.14319969
0.1438865
0.1443893
0.14460311
0.14454449
0.14430552
0.15121881
0.15070451
0.15059601
0.15069599
0.15089624
0.15107726
0.15114744
0.15108474
0.15092111
0.16024464
0.15915951
0.15842026
0.15801103
0.15785616
0.1578429
0.15786935
0.15787163
0.15782577
0.16884858
0.16729174
0.16605801
0.16523855
0.1648125
0.16468179
0.16471974
0.16482265
0.16492258
0.17700084
0.17504954
0.1734264
0.17229148
0.17167213
0.17148544
0.17158257
0.17181933
0.1720889
0.18456032
0.18229752
0.18038368
0.17902879
0.17829765
0.17811409
0.17830851
0.17869963
0.17914467
0.19134457
0.18886991
0.18677876
0.18530449
0.18454049
0.18441474
0.18473836
0.18529726
0.18591672
0.19722297
0.19462883
0.19246111
0.19096832
0.19025217
0.19023752
0.19072206
0.19147029
0.19228288
0.20190549
0.19936612
0.19725741
0.19584871
0.1952609
0.19541265
0.19609108
0.19704528
0.19805889
0.2058336
0.20330812
0.20118627
0.19985139
0.19941571
0.19976147
0.20065585
0.20182207
0.20302702
0.20759113
0.20527312
0.20352673
0.20257182
0.2024511
0.2030639
0.20421338
0.20560586
0.20700495
0.20727258
0.20529747
0.20402645
0.20353785
0.20391067
0.20502131
0.20654932
0.20821352
0.20981808
0.20639374
0.20474256
0.20369026
0.20346786
0.20417989
0.20563761
0.20751143
0.20950307
0.21137166
0.20411675
0.20301984
0.20251725
0.20280721
0.20384811
0.2054915
0.20752536
0.20967208
0.21166761
0.19969714
0.19947866
0.19984946
0.20090867
0.20258065
0.20467968
0.20698063
0.20923926
0.21128592
0.19364617
0.19439491
0.19572776
0.19763437
0.20002258
0.20269689
0.20539468
0.20790341
0.21010892
0.18628516
0.18819828
0.19061083
0.19346667
0.19660647
0.19982497
0.20290715
0.20568229
0.20805999
0.17787037
0.18109653
0.18473126
0.18862776
0.19258149
0.19639011
0.19987832
0.20291782
0.20546081
0.16886093
0.17347895
0.17839953
0.18337737
0.18816692
0.19257092
0.19645999
0.19975351
0.20245158
0.15984652
0.16581001
0.17196423
0.17798664
0.18358637
0.18856304
0.19283234
0.19636425
0.19920328
0.15123754
0.15848243
0.16576818
0.17272919
0.17905917
0.18455531
0.18916646
0.19291301
0.19587783
0.14346927
0.1516087
0.15983419
0.16764684
0.17465749
0.18063836
0.18555597
0.18948898
0.19255759
0.13679162
0.14606984
0.15500383
0.16331722
0.17075377
0.17707288
0.18222317
0.1862998
0.1894529
0.12823586
0.13815559
0.14839638
0.15790834
0.16621239
0.17310449
0.17861612
0.18290371
0.18616726
0.18327644
0.17108721
0.16170981
0.15472286
0.14911001
0.1444316
0.19299808
0.18170601
0.17218757
0.1649046
0.158972
0.15389593
0.20189972
0.19145861
0.18186454
0.17442536
0.16834827
0.16317254
0.20990335
0.200356
0.19076849
0.1833064
0.17719463
0.17200661
0.21691052
0.2083459
0.19891389
0.1915176
0.18546025
0.18033096
0.22286216
0.21540289
0.20618686
0.19892183
0.19298969
0.18799077
0.22759935
0.22138009
0.21243334
0.20536832
0.19961857
0.19480743
0.23089667
0.22593254
0.2174405
0.21069642
0.20521214
0.20064434
0.2327891
0.22946074
0.22117846
0.21461438
0.20938585
0.20512708
0.23262628
0.23012261
0.22286848
0.2171687
0.21258064
0.20880357
0.2313149
0.23029584
0.2240603
0.21862078
0.21413079
0.2104669
0.23088303
0.23037166
0.22355718
0.21784245
0.21338838
0.20989948
0.2271969
0.22807336
0.22106158
0.21567714
0.21161578
0.20856736
0.22235229
0.22239336
0.21649705
0.2118105
0.20832104
0.20577311
0.20811806
0.21320524
0.20923231
0.20544499
0.20259976
0.20063288
0.19307052
0.20231424
0.19975305
0.19692107
0.19492043
0.19371148
0.176955
0.19018822
0.18875421
0.18676564
0.18565892
0.18532964
0.1602307
0.17387499
0.17479146
0.1746293
0.17490133
0.17570816
0.13902229
0.15713971
0.16009702
0.16154558
0.16328708
0.1653885
0.116692
0.13365149
0.14235437
0.14725532
0.15124949
0.15498917
0.090248268
0.1140853
0.12513346
0.13298723
0.139368
0.14496268
0.041490649
0.08159159
0.10888387
0.1209338
0.12931823
0.13626317
0.013429763
0.041914109
0.078960413
0.10655588
0.1192375
0.12795368
0.021436797
0.021445747
0.043393657
0.075729963
0.10540925
0.11988788
0.017867818
0.0065365683
0.01930522
0.039079236
0.064729366
0.097435292
0.01920278
0.014121522
0.0070794348
0.014183893
0.031231276
0.058670448
0.017745097
0.015359676
0.01193278
0.007332276
0.0093015137
0.028314063
0.017683439
0.015740578
0.013155948
0.010171619
0.0062264191
0.0088432791
0.018293732
0.016279756
0.014025233
0.01180276
0.0094344873
0.0076424131
0.018884045
0.016733097
0.014713713
0.012982117
0.01130519
0.009687078
0.018874543
0.016787448
0.014956214
0.013468685
0.012150593
0.010913758
0.018088624
0.015892541
0.014383171
0.013266256
0.01234853
0.011538465
0.015337302
0.013954998
0.012975222
0.0123825
0.012022885
0.011787899
0.012002318
0.011166291
0.010890284
0.010974185
0.011294981
0.01173322
0.0078670542
0.0076141368
0.0083386228
0.0092743736
0.010326722
0.011406792
0.0045944422
0.0047084041
0.0064890566
0.0080024661
0.0095027229
0.010955354
0.0033933276
0.0039002528
0.0056371113
0.0073021919
0.0089060669
0.010419058
0.0067348034
0.0063557184
0.0068691583
0.0077596005
0.0088323553
0.0099473616
0.010836049
0.0095659279
0.0089818076
0.0088972248
0.0091399879
0.0095511183
0.01388305
0.012047164
0.010764586
0.0099592021
0.0094393547
0.0090828842
0.016149829
0.013666274
0.011914335
0.010591685
0.0094826662
0.0084947979
0.01657927
0.014243574
0.012255604
0.010604837
0.0090913915
0.0076956133
0.016275086
0.014047025
0.011926882
0.010042281
0.0080914319
0.0064190239
0.015521965
0.013568947
0.011276751
0.0089251192
0.0060098817
0.0064095104
0.014765972
0.013007476
0.010396613
0.0074053967
0.0062914245
0.018886948
0.014342687
0.012248359
0.0075680751
0.0091603218
0.022367226
0.043763964
0.014175031
0.0074205924
0.013514501
0.029556122
0.048813321
0.078049127
0.017459489
0.017461086
0.035568028
0.060316644
0.1881379
0.177871
0.16981689
0.16417994
0.1753349
0.16546478
0.15816521
0.15322926
0.14967703
0.14712627
0.16162381
0.1521952
0.14569948
0.14151389
0.13867644
0.13683125
0.14711277
0.13816676
0.13258808
0.12924816
0.12721224
0.12612856
0.13204633
0.1235398
0.11899692
0.11658791
0.11541277
0.11510954
0.11682869
0.10877491
0.1053039
0.10382571
0.10347397
0.10393215
0.096400757
0.093162116
0.091278515
0.090819326
0.091357215
0.0926572
0.080330952
0.077896402
0.077034385
0.077566409
0.079108505
0.081404652
0.062592877
0.062098662
0.062578436
0.064366402
0.067103394
0.070495546
0.045239568
0.046038715
0.048220518
0.051592359
0.055730166
0.060327252
0.029537938
0.030323633
0.034720985
0.040011189
0.045696009
0.051515083
0.019291496
0.018612514
0.025218992
0.031878905
0.038569954
0.04516649
0.01299613
0.014359038
0.021031154
0.028126052
0.035162229
0.041988059
0.025835335
0.024543278
0.027116627
0.031649379
0.037119806
0.042932379
0.042246236
0.039135211
0.038712454
0.040456643
0.043645338
0.047723097
0.059181279
0.053968374
0.051774503
0.051633472
0.052930603
0.055271808
0.07571957
0.068708203
0.064973738
0.063496669
0.063395626
0.064337954
0.090476326
0.083017379
0.078242972
0.075607515
0.074397831
0.074200909
0.10916079
0.097376417
0.091295957
0.087694061
0.085542749
0.084432745
0.12260243
0.11073207
0.10389428
0.099573896
0.096669904
0.0947974
0.13596374
0.12402661
0.11642722
0.11138472
0.10777413
0.10520713
0.1487898
0.13665589
0.12849432
0.12287136
0.11866395
0.11547987
0.16109306
0.14899919
0.14028259
0.13411651
0.12936234
0.12557968
0.17262591
0.16005094
0.15099022
0.14443225
0.13926104
0.13505206
0.011551643
0.036801567
0.037587366
0.21075282
0.19994287
0.18936459
0.12985502
0.12066164
0.11119954
0.10165495
0.09209597
0.082669273
0.073556127
0.065061746
0.057637549
0.051888132
0.048641122
0.048504057
0.051470605
0.057008191
0.06456349
0.073397287
0.083019497
0.093088567
0.10333766
0.11362064
0.12379715
0.13372967
0.14335154
0.12397292
0.11469315
0.10593514
0.097264527
0.088752619
0.08056152
0.072931764
0.066080168
0.060451392
0.056456719
0.054561866
0.055035974
0.057771915
0.062484035
0.068777869
0.076195924
0.084385875
0.093081427
0.10207597
0.11122311
0.12040335
0.12947463
0.13839564
0.11773324
0.10914804
0.10128311
0.093615401
0.086272273
0.079451919
0.073307076
0.068102644
0.064094358
0.061545955
0.060677449
0.061569861
0.064116411
0.06814807
0.073393273
0.079577427
0.08646308
0.093852493
0.10160456
0.10957522
0.11770281
0.12584637
0.13393254
0.11179151
0.10419387
0.097334123
0.090802242
0.084759281
0.079336008
0.074693377
0.071008204
0.06840117
0.067004739
0.066899769
0.068072954
0.07044866
0.073909713
0.07828141
0.083401738
0.089120227
0.095304165
0.10185306
0.10867987
0.11570217
0.12285698
0.13004134
0.10648794
0.10002261
0.094275977
0.08898465
0.084274396
0.080252394
0.077029415
0.074656416
0.073193849
0.072681256
0.073123372
0.074476896
0.076690924
0.07967551
0.083327048
0.087550626
0.092256274
0.097361889
0.10279812
0.10852353
0.11447837
0.12060992
0.12684686
0.10207266
0.096816087
0.092258954
0.088239977
0.084843497
0.082142233
0.080144748
0.078859542
0.078291437
0.078432691
0.079251705
0.080711767
0.082767041
0.085354814
0.08841647
0.091897389
0.09574687
0.099918912
0.10437266
0.10908023
0.11402492
0.1191652
0.12445593
0.098728126
0.094714187
0.091369011
0.088588188
0.086424686
0.084857848
0.083868269
0.083434433
0.083533735
0.084134015
0.08520242
0.086706005
0.088604993
0.090861837
0.093442838
0.096317661
0.099459439
0.10284486
0.10645398
0.11027246
0.11429517
0.11851779
0.12290241
0.096601013
0.093808548
0.091625262
0.089989074
0.088866234
0.088218363
0.088009455
0.088206506
0.088774013
0.089680483
0.090895904
0.092390824
0.094139022
0.096117934
0.098308545
0.10069497
0.10326427
0.10600625
0.1089134
0.11198133
0.11521058
0.11860704
0.12217149
0.095786647
0.094116095
0.092978287
0.092282783
0.091979965
0.092026819
0.092384108
0.093015406
0.093889622
0.094978504
0.096257638
0.097706742
0.099309337
0.10105219
0.1029252
0.10492084
0.10703395
0.10926147
0.11160236
0.11405761
0.11663039
0.11932853
0.12217001
0.096202631
0.095529993
0.095235719
0.095257378
0.095554028
0.096086324
0.096819501
0.097723427
0.098772666
0.099946305
0.10122771
0.10260393
0.10406516
0.10560433
0.10721661
0.10889917
0.11065089
0.11247211
0.11436459
0.11633137
0.11837598
0.12050331
0.1227285
0.097792484
0.097853355
0.098160399
0.098678963
0.099373856
0.10021248
0.10116703
0.10221517
0.1033393
0.1045258
0.10576449
0.10704798
0.10837124
0.10973107
0.11112579
0.11255505
0.11401954
0.11552092
0.11706173
0.1186453
0.12027495
0.1219539
0.12369129
0.10025704
0.10080961
0.10151323
0.10234347
0.10327144
0.10427246
0.10532735
0.10642193
0.10754583
0.10869161
0.10985413
0.11103007
0.11221753
0.11341574
0.1146248
0.1158455
0.11707921
0.11832781
0.11959368
0.12087959
0.12218818
0.12352169
0.12488684
0.10330954
0.10418393
0.10512458
0.10611656
0.10714383
0.10819322
0.10925486
0.11032187
0.11138966
0.11245528
0.11351707
0.11457432
0.11562705
0.11667586
0.11772175
0.118766
0.11981014
0.12085587
0.12190509
0.1229598
0.12402139
0.12509143
0.10685602
0.1078665
0.10888621
0.10990965
0.11093044
0.11194356
0.11294531
0.1139335
0.11490705
0.11586575
0.11680998
0.11774057
0.11865866
0.11956556
0.12046272
0.12135161
0.12223374
0.12311057
0.12398357
0.12485413
0.12572291
0.12659067
0.11074234
0.111745
0.11272927
0.11369363
0.11463643
0.11555666
0.11645396
0.11732871
0.11818186
0.11901473
0.11982886
0.12062595
0.12140769
0.12217576
0.12293179
0.12367728
0.12441359
0.12514199
0.1258636
0.12657936
0.12728942
0.12799416
0.11485644
0.11576466
0.11664292
0.11749088
0.11830927
0.1190993
0.11986248
0.12060061
0.12131569
0.12200982
0.12268508
0.12334351
0.12398702
0.12461739
0.12523622
0.12584493
0.12644475
0.12703672
0.1276217
0.12820032
0.1287724
0.129338
0.11911859
0.11988087
0.12061077
0.12130851
0.12197596
0.12261532
0.12322888
0.12381898
0.12438796
0.12493809
0.12547154
0.12599036
0.12649639
0.12699132
0.12747664
0.12795364
0.12842338
0.12888674
0.12934441
0.12979684
0.13024365
0.13068477
0.12344232
0.1240348
0.12459782
0.12513193
0.12563929
0.12612226
0.12658323
0.1270245
0.12744829
0.12785671
0.12825173
0.12863516
0.12900865
0.12937365
0.12973146
0.13008314
0.13042962
0.1307716
0.13110963
0.13144405
0.13177438
0.13210059
0.12774278
0.12816242
0.12855818
0.12893069
0.12928198
0.12961418
0.12992939
0.13022963
0.13051675
0.13079254
0.13105861
0.13131643
0.13156735
0.13181252
0.13205298
0.13228957
0.13252299
0.1327538
0.13298239
0.13320901
0.13343312
0.1336547
0.13196501
0.13222061
0.13245879
0.13268022
0.13288666
0.1330799
0.13326161
0.13343337
0.13359661
0.13375266
0.13390274
0.13404792
0.13418921
0.13432746
0.1344634
0.13459765
0.1347307
0.13486293
0.13499462
0.13512591
0.13525624
0.13538562
0.13610358
0.13620218
0.13629085
0.13637053
0.13644252
0.13650802
0.13656812
0.13662381
0.13667601
0.13672553
0.13677311
0.13681941
0.13686501
0.13691038
0.13695589
0.13700186
0.13704851
0.13709603
0.13714451
0.13719398
0.13724388
0.13729423
0.14016274
0.14010899
0.14005544
0.14000309
0.13995247
0.13990326
0.13985539
0.13980896
0.13976414
0.1397211
0.13968004
0.13964106
0.13960425
0.13956969
0.13953745
0.1395076
0.13948016
0.13945512
0.13943245
0.13941208
0.1393934
0.13937641
0.14355382
0.14347027
0.14338331
0.14329291
0.14319863
0.14310167
0.14300295
0.14290319
0.14280292
0.14270259
0.14260254
0.14250311
0.14240466
0.14230762
0.14221253
0.14212003
0.14203088
0.14194513
0.14186278
0.14178378
0.14170766
0.14163426
0.14523803
0.14521353
0.14518476
0.14515168
0.14511416
0.14507224
0.1450259
0.14497501
0.14491938
0.14485893
0.14479377
0.14472386
0.14464903
0.14456893
0.14448308
0.14439288
0.14430105
0.14420964
0.14411931
0.14403052
0.14394344
0.14385807
0.14594331
0.1459566
0.14596398
0.14596538
0.14596121
0.14595176
0.14593726
0.14591785
0.14589391
0.1458667
0.14583728
0.145806
0.14577326
0.14573947
0.14570515
0.14567084
0.14563684
0.14560339
0.14557088
0.14553985
0.14550791
0.14547271
0.14665705
0.14665462
0.14665296
0.14665204
0.14665176
0.14665202
0.14665268
0.14665361
0.14665464
0.14665543
0.14665539
0.146654
0.14665081
0.14664585
0.1466394
0.14663152
0.14662228
0.14661175
0.14660009
0.14658507
0.14656426
0.14653935
0.14755008
0.14755862
0.14756451
0.14756804
0.14756937
0.14756869
0.14756619
0.1475621
0.14755662
0.14754998
0.1475424
0.14753406
0.14752515
0.14751583
0.14750606
0.14749579
0.14748492
0.14747338
0.14746111
0.14744807
0.14743466
0.1474211
0.14815213
0.14814634
0.14814096
0.14813617
0.14813206
0.14812872
0.14812617
0.14812438
0.14812331
0.14812286
0.1481229
0.14812328
0.14812384
0.14812442
0.14812485
0.14812497
0.14812463
0.1481237
0.14812206
0.14811961
0.1481163
0.14811207
0.14867793
0.14867939
0.14868082
0.14868246
0.14868442
0.14868676
0.14868949
0.14869257
0.14869594
0.14869949
0.14870311
0.14870667
0.14871003
0.14871305
0.14871559
0.14871754
0.14871882
0.14871935
0.14871906
0.1487179
0.14871584
0.14871286
0.14906958
0.14907233
0.14907486
0.14907756
0.14908061
0.14908409
0.14908799
0.14909221
0.14909665
0.14910115
0.14910554
0.14910967
0.14911337
0.14911649
0.14911885
0.14912032
0.14912073
0.14911993
0.14911783
0.14911435
0.14910941
0.14910294
0.14932818
0.1493295
0.14933042
0.14933112
0.14933163
0.14933198
0.1493322
0.14933227
0.14933219
0.14933191
0.14933138
0.14933055
0.1493293
0.14932755
0.14932516
0.14932198
0.14931788
0.14931268
0.14930623
0.14929834
0.14928875
0.14927725
0.13917484
0.13946454
0.13952015
0.13921059
0.13851524
0.1375307
0.13640006
0.13530388
0.13441849
0.1351566
0.13544465
0.13545311
0.13502984
0.13415242
0.13288598
0.13139167
0.12988247
0.12871663
0.13080489
0.13109727
0.13106069
0.13053544
0.12947998
0.12793412
0.12605674
0.12408
0.12250421
0.12622072
0.12650529
0.12643569
0.12584394
0.12465118
0.12288753
0.12071411
0.11838993
0.11645345
0.1214968
0.12177701
0.1216908
0.12106435
0.11979287
0.11790007
0.1155553
0.11303782
0.11085832
0.11677211
0.11705256
0.11697207
0.11635225
0.1150767
0.11316571
0.11079379
0.10824481
0.10597512
0.11222662
0.11251281
0.11246399
0.1119022
0.11070911
0.10890406
0.10665786
0.10423993
0.10203734
0.10808509
0.10838342
0.10839149
0.10793883
0.10691614
0.10534026
0.10336555
0.1012249
0.099234501
0.10456686
0.10488843
0.10498094
0.1046829
0.10389752
0.10263315
0.10102421
0.099288739
0.097674659
0.10204101
0.10229064
0.10241543
0.10228841
0.10179399
0.10091185
0.099742618
0.098467053
0.097293743
0.10082334
0.10093505
0.10100944
0.10106297
0.10087008
0.1003852
0.099704415
0.098961252
0.098253845
0.10063347
0.10083035
0.10103946
0.10122122
0.10128005
0.10116896
0.10091859
0.10058317
0.10025376
0.10218369
0.10237446
0.10258313
0.10277335
0.10291427
0.10299799
0.10302552
0.10301107
0.10296997
0.1047119
0.104868
0.10507807
0.10531887
0.1055643
0.10579534
0.10600228
0.10618064
0.10632325
0.10853619
0.10860757
0.10874575
0.10894046
0.1091761
0.10943416
0.10969527
0.1099409
0.11015375
0.11316635
0.11312867
0.11316423
0.11326996
0.11343501
0.11364236
0.11387091
0.11409763
0.11430257
0.11853093
0.11831558
0.118178
0.11812347
0.11814717
0.11823475
0.11836482
0.11851235
0.11865674
0.12420044
0.12378884
0.12345744
0.12321675
0.12306871
0.12300405
0.12300327
0.12304239
0.12310091
0.12995502
0.12930693
0.12876271
0.12832764
0.12800203
0.12777792
0.12763861
0.12756251
0.12752879
0.13593298
0.13490837
0.13406796
0.13339096
0.13286351
0.13247017
0.13218997
0.13199894
0.13187426
0.14162694
0.14059437
0.13949038
0.13851006
0.13771467
0.13711374
0.1366719
0.1363556
0.13613525
0.14432419
0.14402378
0.14354199
0.14289995
0.14220414
0.1415513
0.14101709
0.14060929
0.14031139
0.14519474
0.14515742
0.14506924
0.14491502
0.14469543
0.14441906
0.14413506
0.14388402
0.14368211
0.14549769
0.14553121
0.14556253
0.14556712
0.14553914
0.14548607
0.14541636
0.14534285
0.14527798
0.14593936
0.14591546
0.14589782
0.1458944
0.14590346
0.14591763
0.14592974
0.14593489
0.14593433
0.14687465
0.14688233
0.14687064
0.14684016
0.14679851
0.14675541
0.14671783
0.14668825
0.14666603
0.14750941
0.14751142
0.14751651
0.14752574
0.14753514
0.14754202
0.14754559
0.14754588
0.14754391
0.1482546
0.14825504
0.14824941
0.14823644
0.14821938
0.14820128
0.14818436
0.14816989
0.14815836
0.1486599
0.14866901
0.14867579
0.14868018
0.148682
0.14868172
0.14868027
0.14867831
0.14867637
0.14897575
0.14899608
0.14901512
0.14903146
0.14904441
0.1490539
0.14906017
0.14906391
0.14906589
0.14928057
0.1492872
0.14929381
0.14930047
0.14930701
0.14931308
0.14931817
0.14932186
0.14932392
0.13903059
0.1349677
0.13055641
0.12593654
0.12118368
0.11643586
0.11187285
0.10772339
0.10420808
0.10179052
0.10068568
0.10044739
0.10200332
0.10457854
0.10849063
0.11323689
0.11878966
0.12467376
0.130721
0.13716125
0.14245301
0.14450487
0.14519367
0.14547224
0.14595988
0.14685132
0.14750861
0.14824912
0.14864805
0.14895346
0.14927415
0.1389761
0.13484423
0.13034855
0.12566466
0.12085366
0.11606114
0.11147138
0.10732394
0.10384347
0.10156191
0.10055861
0.10028511
0.10185147
0.10448305
0.10849425
0.11338019
0.11915657
0.12531201
0.13180069
0.13870919
0.14302409
0.14457392
0.14518009
0.14545391
0.14596762
0.14681234
0.14750432
0.14823641
0.1486301
0.14892592
0.14926484
0.13872171
0.1344915
0.1298993
0.12515247
0.12028471
0.1154624
0.11088153
0.10679973
0.10345651
0.10137671
0.10049126
0.10020901
0.10182196
0.10453744
0.10868085
0.11376023
0.11983497
0.12638876
0.13366891
0.14023057
0.14325673
0.14457637
0.14516679
0.14544023
0.14595411
0.14676601
0.14749338
0.1482168
0.14860611
0.148894
0.14925436
0.13823442
0.13386445
0.1291875
0.12439374
0.11948595
0.11467306
0.11017256
0.10626364
0.10325238
0.1014341
0.10074736
0.10041175
0.10212366
0.10496069
0.10929727
0.11470408
0.12128033
0.1285582
0.13650032
0.14090719
0.14329488
0.1445774
0.1451635
0.14543109
0.14591988
0.14672756
0.14747056
0.14819244
0.14857925
0.14886484
0.14925542
0.13743577
0.13290478
0.12824006
0.12346459
0.11862443
0.11397662
0.10977062
0.10618846
0.10406075
0.1025843
0.10206932
0.10172735
0.10362837
0.10665796
0.11133825
0.1174785
0.12508472
0.13242223
0.1372386
0.14106378
0.1434561
0.14471823
0.14528273
0.14552654
0.14595215
0.14675211
0.14747447
0.14820505
0.14859183
0.14888969
0.14933196
0.13615696
0.13232973
0.12813664
0.1240088
0.12008675
0.11661002
0.11377354
0.11164322
0.11009871
0.10907953
0.10944967
0.11008574
0.11203246
0.11531488
0.11948986
0.1240903
0.1285576
0.13279224
0.13981018
0.14276963
0.14434292
0.14577263
0.14642516
0.14665089
0.14686637
0.14718885
0.14771306
0.14844428
0.14872036
0.148894
0.1490373
)
;

boundaryField
{
    Side1
    {
        type            empty;
    }
    Inlet
    {
        type            calculated;
        value           uniform 0.14977318;
    }
    Side2
    {
        type            empty;
    }
    Outlet
    {
        type            calculated;
        value           nonuniform List<scalar> 0();
    }
    Botwall
    {
        type            calculated;
        value           nonuniform List<scalar> 
59
(
0.15004325
0.15003218
0.15002107
0.15000982
0.14980819
0.14985838
0.14989735
0.14994806
0.14998914
0.15004006
0.15008379
0.15012205
0.1501571
0.15018638
0.15021056
0.15022494
0.15023744
0.15023477
0.1502266
0.15021571
0.15020025
0.15018145
0.15016099
0.15013902
0.15011776
0.15009587
0.15007681
0.15005622
0.14977512
0.14975086
0.14972437
0.14969797
0.14967211
0.14964852
0.14962941
0.14961469
0.14960426
0.14959745
0.1495951
0.14959444
0.14960396
0.14961826
0.14963644
0.1496543
0.14967278
0.14969344
0.14972168
0.14973536
0.14974803
0.14975828
0.14976403
0.14976773
0.14977121
0.14977362
0.14977477
0.14977407
0.14978483
0.14980184
0.14978622
)
;
    }
    Cyli
    {
        type            calculated;
        value           uniform 0;
    }
    procBoundary0to1
    {
        type            processor;
        value           nonuniform List<scalar> 
44
(
0.11560837
0.11560837
0.090170013
0.049834597
0.049834597
0.021155549
0.021155549
0.011527192
0.0077729285
0.0077729285
0.0090057218
0.0090057218
0.010409237
0.011820024
0.01226215
0.01226215
0.012497726
0.012381039
0.011890663
0.011109509
0.010107551
0.010107551
0.0090826362
0.0071512844
0.0057467439
0.0057467439
0.0067249206
0.17634611
0.17916096
0.13957849
0.14794193
0.15532195
0.16178012
0.16723919
0.17634611
0.17168118
0.13957849
0.13029589
0.18149298
0.18367278
0.18575436
0.18777812
0.18971361
0.19049204
)
;
    }
    procBoundary0to2
    {
        type            processor;
        value           nonuniform List<scalar> 
55
(
0.10884239
0.11023799
0.11141395
0.11226741
0.11300149
0.086780395
0.10470049
0.06804616
0.086780395
0.095847224
0.18068433
0.15996264
0.174448
0.15996264
0.15678795
0.06804616
0.072552662
0.072552662
0.082970956
0.22038075
0.20006085
0.20006085
0.18068433
0.15255607
0.14755734
0.14243821
0.13766586
0.13348326
0.13010047
0.12759913
0.12598999
0.12524535
0.12513654
0.12554743
0.12632546
0.12617412
0.12617412
0.12746005
0.12869512
0.12989797
0.13112058
0.13242264
0.13387348
0.13551361
0.1373445
0.13936054
0.14156306
0.14377434
0.14543477
0.14651249
0.14740738
0.14810693
0.14870899
0.14909495
0.14926366
)
;
    }
    procBoundary0to3
    {
        type            processor;
        value           nonuniform List<scalar> 7(0.012780945 0.012780945 0.032199906 0.032199906 0.068946792 0.068946792 0.099511473);
    }
}


// ************************************************************************* //
