/*--------------------------------*- C++ -*----------------------------------*\
| =========                 |                                                 |
| \\      /  F ield         | OpenFOAM: The Open Source CFD Toolbox           |
|  \\    /   O peration     | Version:  2406                                  |
|   \\  /    A nd           | Website:  www.openfoam.com                      |
|    \\/     M anipulation  |                                                 |
\*---------------------------------------------------------------------------*/
FoamFile
{
    version     2.0;
    format      ascii;
    arch        "LSB;label=32;scalar=64";
    class       volScalarField;
    location    "0.009";
    object      T;
}
// * * * * * * * * * * * * * * * * * * * * * * * * * * * * * * * * * * * * * //

dimensions      [0 0 0 1 0 0 0];

internalField   nonuniform List<scalar> 
8951
(
292.82145
292.83796
292.85419
292.87014
292.88585
292.90127
292.91641
292.93124
292.94571
292.95979
292.97343
292.98661
292.99927
293.01139
293.02295
293.03395
293.04455
293.05455
293.06386
293.07299
293.08184
293.09033
293.09848
293.10633
293.11391
293.12126
293.12839
293.13531
293.14196
293.14846
293.15467
293.16052
293.1661
293.17113
293.17571
293.17978
293.18329
293.18608
293.18824
293.18979
293.19069
293.1909
293.19058
293.18989
293.18895
293.18805
293.18744
293.18732
293.18788
293.18917
293.19112
293.19382
293.19694
293.20034
293.20374
293.20733
293.21059
293.21361
293.21652
293.21888
293.2214
293.22424
293.22702
293.22962
293.2321
293.2346
293.23721
293.23996
293.24276
293.24546
293.2478
293.24943
293.24991
293.24893
293.24639
293.24187
293.23492
293.22715
293.21853
293.20917
293.19933
293.18952
293.18007
293.17073
293.16182
293.15311
293.1445
293.13601
293.12755
293.11913
293.11078
293.10248
293.09402
293.08533
293.07647
293.06751
293.05843
293.04913
293.0395
293.02949
293.01926
293.00909
292.99951
292.99077
292.98372
292.97852
292.9748
292.97207
292.96989
292.96798
292.96611
292.96413
292.96196
292.95956
292.95688
292.95391
292.95061
292.94704
292.94339
292.94006
292.93754
292.93633
292.93672
292.93886
292.9427
292.94795
292.95405
292.96049
292.96695
292.97324
292.97933
292.9853
292.99135
292.99771
293.00462
293.01227
293.02078
293.03014
293.04017
293.05052
293.06074
293.07045
293.07932
293.08718
293.09388
293.09952
293.10415
293.108
293.11115
293.11389
293.11626
293.11863
293.12095
293.12367
293.12654
293.13008
293.13375
293.13819
293.14249
293.1476
293.15223
293.15775
293.16244
293.16814
293.17264
293.17847
293.18249
293.18821
293.19124
293.19671
293.19766
293.20259
293.20086
293.20683
293.19696
293.2198
293.19019
292.81442
292.83094
292.84719
292.86319
292.87893
292.89442
292.90962
292.92452
292.93908
292.95324
292.96698
292.98024
292.99301
293.00523
293.01688
293.02797
293.03851
293.0485
293.05793
293.06684
293.07554
293.0839
293.09189
293.09954
293.1069
293.11402
293.12092
293.12762
293.13413
293.1404
293.14651
293.15237
293.1579
293.16313
293.16789
293.17219
293.17608
293.17934
293.18198
293.18398
293.18539
293.18625
293.18648
293.18627
293.18577
293.18511
293.18457
293.18437
293.18468
293.18563
293.18726
293.18944
293.19228
293.19539
293.19869
293.20189
293.20523
293.20814
293.21077
293.21325
293.21524
293.21738
293.21972
293.22196
293.224
293.22593
293.22789
293.22997
293.23218
293.23445
293.23664
293.2385
293.23971
293.23988
293.23871
293.23613
293.2317
293.22519
293.21795
293.20994
293.20124
293.19209
293.18296
293.1741
293.16527
293.15677
293.14839
293.14003
293.13173
293.1234
293.11504
293.10669
293.09831
293.08972
293.08085
293.07178
293.0626
293.0533
293.04382
293.03411
293.02417
293.01418
293.00444
292.99542
292.98735
292.98094
292.97631
292.97304
292.97066
292.96873
292.967
292.96524
292.96332
292.96116
292.95873
292.95597
292.95289
292.94949
292.94581
292.94208
292.93869
292.93616
292.93497
292.93538
292.93753
292.94137
292.94661
292.9527
292.95915
292.96563
292.97194
292.97804
292.98403
292.99007
292.9964
293.00324
293.01081
293.0192
293.02843
293.0383
293.04851
293.0586
293.06823
293.07708
293.08495
293.09171
293.09743
293.10216
293.10612
293.10938
293.11223
293.11469
293.11713
293.11951
293.12227
293.12518
293.12874
293.13246
293.13692
293.14129
293.14646
293.15121
293.15682
293.16169
293.16752
293.17224
293.1782
293.18248
293.18835
293.19165
293.19729
293.19851
293.20358
293.20203
293.20811
293.19806
293.22138
293.19176
292.82395
292.84024
292.85629
292.87209
292.88763
292.90292
292.91788
292.93254
292.94681
292.96065
292.97402
292.9869
292.99923
293.01099
293.02216
293.03276
293.04279
293.05212
293.0611
293.0696
293.07781
293.08565
293.09312
293.10027
293.10716
293.11381
293.12026
293.12653
293.13263
293.13853
293.14426
293.14978
293.155
293.1599
293.16441
293.16846
293.17216
293.1752
293.17771
293.17961
293.18095
293.18177
293.18207
293.18202
293.18176
293.18142
293.18125
293.18148
293.1822
293.18352
293.18544
293.18782
293.19075
293.19382
293.19701
293.20008
293.20297
293.2056
293.20786
293.20993
293.21154
293.21329
293.21514
293.21683
293.21832
293.21971
293.22114
293.22269
293.22437
293.22614
293.22783
293.22924
293.23008
293.22997
293.22867
293.22611
293.22183
293.21579
293.20911
293.20171
293.19367
293.1852
293.17673
293.16844
293.16011
293.15201
293.14395
293.13585
293.12774
293.11954
293.11125
293.1029
293.09445
293.08575
293.07673
293.06749
293.05812
293.04863
293.03902
293.02926
293.0194
293.00966
293.00033
292.99183
292.98436
292.97855
292.97441
292.97155
292.96947
292.96778
292.9662
292.96455
292.96268
292.96053
292.95806
292.95524
292.95207
292.94856
292.94478
292.94097
292.93754
292.93499
292.9338
292.93421
292.93635
292.94019
292.94539
292.95147
292.95791
292.96438
292.97071
292.97683
292.98282
292.98885
292.99514
293.00193
293.0094
293.01768
293.02677
293.03649
293.04655
293.05653
293.06608
293.07488
293.08276
293.08957
293.09538
293.10021
293.10427
293.10764
293.11058
293.11313
293.11564
293.11809
293.12088
293.12383
293.12742
293.13117
293.13566
293.1401
293.14532
293.15018
293.15589
293.16092
293.16688
293.17181
293.17791
293.18244
293.18844
293.19201
293.19782
293.1993
293.20454
293.20315
293.20934
293.19911
293.2229
293.19337
292.83335
292.84945
292.86532
292.88094
292.89629
292.91138
292.9261
292.94049
292.95445
292.96796
292.98095
292.9934
293.00529
293.01656
293.02724
293.03732
293.04677
293.05556
293.06409
293.07212
293.07981
293.08711
293.09406
293.10072
293.10711
293.1133
293.11931
293.12515
293.13085
293.13638
293.14175
293.14693
293.15185
293.15646
293.16073
293.16457
293.16807
293.17093
293.17335
293.17518
293.17649
293.17735
293.17775
293.1779
293.17791
293.17793
293.17814
293.17878
293.1799
293.18156
293.18374
293.18628
293.18926
293.19226
293.19532
293.19822
293.20065
293.20301
293.20492
293.20658
293.20783
293.20917
293.21052
293.21168
293.21264
293.21351
293.21442
293.21545
293.21662
293.21789
293.21911
293.2201
293.22059
293.22025
293.21887
293.21637
293.21232
293.20677
293.20065
293.19387
293.18648
293.17869
293.17084
293.16311
293.15526
293.14756
293.13982
293.13197
293.12405
293.11598
293.10777
293.09943
293.09093
293.08214
293.07299
293.06361
293.05407
293.04444
293.03472
293.02494
293.01518
293.00568
292.99674
292.98872
292.9818
292.97651
292.97282
292.97031
292.96851
292.96702
292.96559
292.96403
292.96221
292.96007
292.95757
292.95469
292.95142
292.94782
292.94395
292.94007
292.9366
292.93402
292.93282
292.93322
292.93534
292.93914
292.9443
292.95034
292.95676
292.96323
292.96955
292.97568
292.98167
292.98768
292.99394
293.00066
293.00805
293.01621
293.02516
293.03474
293.04465
293.05451
293.06398
293.07274
293.08063
293.08748
293.09336
293.09829
293.10246
293.10592
293.10896
293.11159
293.11418
293.11668
293.11951
293.1225
293.12611
293.12989
293.13441
293.13892
293.14419
293.14916
293.15495
293.16015
293.16622
293.17135
293.17759
293.18236
293.18851
293.19234
293.1983
293.20005
293.20547
293.20422
293.21054
293.20011
293.22436
293.195
292.82653
292.84269
292.85863
292.87434
292.88979
292.90495
292.91983
292.93428
292.94841
292.96204
292.97519
292.98778
292.99979
293.0112
293.02197
293.03213
293.04165
293.05055
293.05888
293.06691
293.07442
293.08156
293.08833
293.09476
293.10091
293.10682
293.11254
293.11811
293.12354
293.12884
293.13401
293.13903
293.14389
293.14851
293.15286
293.1569
293.16055
293.16387
293.16661
293.16894
293.17075
293.17208
293.17301
293.17358
293.17396
293.17425
293.17466
293.17527
293.1763
293.17779
293.17975
293.18215
293.18482
293.1878
293.19073
293.19361
293.19626
293.19842
293.20043
293.20198
293.20326
293.20414
293.20507
293.20593
293.20657
293.20702
293.20738
293.20778
293.20831
293.20899
293.20977
293.21056
293.21116
293.21134
293.21081
293.20939
293.207
293.20321
293.19818
293.19262
293.18644
293.17969
293.17256
293.16532
293.15812
293.15074
293.14342
293.13599
293.1284
293.12067
293.11274
293.10461
293.0963
293.08776
293.07889
293.06964
293.06014
293.05047
293.04072
293.03092
293.02114
293.0115
293.00224
292.99365
292.98607
292.97965
292.97482
292.97152
292.96933
292.96777
292.96646
292.96516
292.96369
292.96191
292.95978
292.95725
292.95431
292.95097
292.94728
292.94333
292.93938
292.93586
292.93325
292.93203
292.93241
292.93447
292.93823
292.94333
292.94932
292.9557
292.96215
292.96847
292.9746
292.98058
292.98658
292.99279
292.99945
293.00674
293.01479
293.02361
293.03303
293.04281
293.05255
293.06193
293.07065
293.07854
293.08544
293.09139
293.0964
293.10067
293.10423
293.10736
293.11007
293.11272
293.11528
293.11816
293.12118
293.12481
293.12863
293.13317
293.13774
293.14306
293.14813
293.15401
293.15935
293.16555
293.17087
293.17724
293.18225
293.18854
293.19262
293.19875
293.20076
293.20636
293.20524
293.2117
293.20107
293.22577
293.19665
292.83604
292.85206
292.86787
292.88342
292.8987
292.91366
292.92832
292.94249
292.95633
292.96959
292.98239
292.99454
293.00609
293.01699
293.02725
293.03685
293.04583
293.05423
293.06207
293.06955
293.07652
293.08311
293.08934
293.09525
293.10089
293.10632
293.11158
293.11671
293.12172
293.12664
293.13145
293.13614
293.14069
293.14504
293.14914
293.15298
293.15645
293.15962
293.16227
293.16455
293.16637
293.16776
293.1688
293.1696
293.17023
293.17084
293.17164
293.17265
293.17406
293.17588
293.1781
293.18068
293.18347
293.18638
293.18925
293.19191
293.19431
293.19623
293.19789
293.19909
293.19999
293.20052
293.20103
293.20141
293.20156
293.20151
293.20138
293.20129
293.20134
293.20154
293.20187
293.20224
293.20248
293.20239
293.20172
293.20029
293.19804
293.19456
293.19003
293.18503
293.17945
293.17333
293.16682
293.16018
293.15348
293.14655
293.13961
293.13248
293.12515
293.11761
293.10982
293.10178
293.0935
293.08494
293.07601
293.06669
293.05708
293.04732
293.03747
293.02762
293.01786
293.00834
292.9993
292.99104
292.98386
292.97788
292.97347
292.97051
292.96859
292.96724
292.9661
292.96492
292.96352
292.96178
292.95966
292.9571
292.95411
292.95069
292.94692
292.9429
292.93889
292.93531
292.93267
292.93141
292.93176
292.93376
292.93745
292.94249
292.9484
292.95474
292.96116
292.96747
292.97358
292.97955
292.98552
292.9917
292.99829
293.00549
293.01343
293.0221
293.03139
293.04102
293.05064
293.05993
293.06861
293.0765
293.08343
293.08945
293.09455
293.0989
293.10256
293.10577
293.10857
293.11129
293.1139
293.11681
293.11988
293.12352
293.12738
293.13194
293.13656
293.14193
293.1471
293.15306
293.15855
293.16486
293.17037
293.17687
293.1821
293.18854
293.19286
293.19916
293.20142
293.20723
293.20621
293.21283
293.20199
293.22712
293.19831
292.84566
292.86155
292.87723
292.89263
292.90773
292.92248
292.9369
292.95076
292.96429
292.97715
292.9896
293.00127
293.01232
293.02272
293.03242
293.04148
293.04996
293.05782
293.06515
293.07205
293.07847
293.08451
293.0902
293.09558
293.10072
293.10567
293.11047
293.11516
293.11977
293.12431
293.12877
293.13313
293.13739
293.14148
293.14536
293.14901
293.15234
293.15539
293.15799
293.16025
293.1621
293.16359
293.16479
293.16585
293.16675
293.16771
293.16888
293.17029
293.17205
293.17418
293.17663
293.17935
293.18222
293.18505
293.18782
293.19028
293.19243
293.19411
293.19543
293.19629
293.19683
293.19701
293.1971
293.19702
293.1967
293.19617
293.19558
293.19503
293.19461
293.19436
293.19426
293.19424
293.19415
293.19383
293.19304
293.19164
293.18954
293.18639
293.18237
293.17791
293.1729
293.16738
293.16149
293.1554
293.1492
293.14271
293.13613
293.1293
293.12222
293.11488
293.10723
293.09929
293.09105
293.08248
293.07352
293.06414
293.05445
293.04461
293.03469
293.02481
293.01509
293.00568
292.99686
292.9889
292.98208
292.97649
292.97244
292.96977
292.9681
292.96693
292.96593
292.96485
292.96352
292.96182
292.9597
292.95713
292.95408
292.9506
292.94676
292.94266
292.93859
292.93497
292.93228
292.93097
292.93127
292.93319
292.93681
292.94176
292.94759
292.95387
292.96026
292.96653
292.97263
292.97858
292.98453
292.99066
292.99718
293.00429
293.01212
293.02065
293.02979
293.03928
293.04878
293.05799
293.06662
293.0745
293.08146
293.08754
293.09272
293.09716
293.10091
293.10421
293.10709
293.10986
293.11254
293.11548
293.11858
293.12224
293.12613
293.13072
293.13538
293.1408
293.14606
293.1521
293.15772
293.16415
293.16984
293.17648
293.18192
293.18851
293.19307
293.19953
293.20204
293.20806
293.20714
293.21394
293.20289
293.22843
293.19996
292.85547
292.87124
292.88679
292.90203
292.91693
292.93145
292.94561
292.95915
292.97234
292.98475
292.99685
293.00799
293.01854
293.02838
293.03755
293.04611
293.05405
293.06136
293.06813
293.07446
293.08032
293.0858
293.09095
293.09581
293.10044
293.10491
293.10926
293.11352
293.11773
293.1219
293.12602
293.13008
293.13406
293.13791
293.14158
293.14507
293.14828
293.15124
293.15381
293.15608
293.15801
293.15964
293.16104
293.16236
293.16357
293.16488
293.1664
293.1682
293.17029
293.17269
293.17534
293.17818
293.18109
293.18384
293.18648
293.18874
293.19065
293.19208
293.19307
293.19361
293.19382
293.19365
293.19334
293.19282
293.19204
293.19107
293.19003
293.18904
293.18818
293.18751
293.18701
293.18662
293.18624
293.1857
293.18483
293.18348
293.18156
293.17873
293.1752
293.17127
293.16682
293.16188
293.15656
293.15101
293.14528
293.13921
293.13299
293.12646
293.11963
293.11248
293.10498
293.09714
293.08895
293.08039
293.0714
293.06198
293.05225
293.04234
293.03238
293.02249
293.0128
293.00351
292.99489
292.9872
292.9807
292.97546
292.97172
292.96931
292.96783
292.96683
292.96595
292.96496
292.96369
292.96203
292.95992
292.95732
292.95423
292.95069
292.94678
292.94261
292.93848
292.93481
292.93207
292.9307
292.93094
292.93276
292.93629
292.94114
292.94689
292.95309
292.95943
292.96567
292.97174
292.97768
292.98359
292.98967
292.99612
293.00315
293.01085
293.01926
293.02824
293.0376
293.04698
293.0561
293.06468
293.07254
293.07953
293.08566
293.09092
293.09544
293.09928
293.10266
293.10562
293.10845
293.11118
293.11416
293.11729
293.12098
293.12489
293.1295
293.13421
293.13967
293.14501
293.15113
293.15689
293.16342
293.16928
293.17605
293.1817
293.18844
293.19323
293.19986
293.20261
293.20885
293.20801
293.21503
293.20378
293.22969
293.20161
292.84971
292.86556
292.88121
292.89663
292.91168
292.92637
292.94063
292.9545
292.96769
292.9805
292.99247
293.00413
293.01477
293.02477
293.03408
293.04274
293.05075
293.05811
293.06486
293.07107
293.07682
293.08212
293.08704
293.09164
293.09598
293.10012
293.10411
293.10801
293.11185
293.11567
293.11947
293.12327
293.12703
293.13075
293.13437
293.13786
293.1412
293.14432
293.14722
293.14979
293.15211
293.15415
293.15595
293.15758
293.15917
293.1607
293.16238
293.16425
293.16639
293.16879
293.17143
293.17425
293.17718
293.18008
293.18276
293.18526
293.18734
293.18901
293.19018
293.19088
293.19111
293.19099
293.19048
293.1898
293.18886
293.18765
293.18626
293.1848
293.18339
293.18212
293.18104
293.18016
293.17944
293.17879
293.17807
293.17713
293.17584
293.17411
293.17162
293.16855
293.16511
293.16119
293.15681
293.15205
293.14701
293.14173
293.13606
293.13018
293.12394
293.11736
293.11041
293.10307
293.09533
293.08721
293.07866
293.06967
293.06023
293.05045
293.04051
293.03052
293.02062
293.01099
293.00182
292.99338
292.98593
292.97971
292.97476
292.9713
292.9691
292.96779
292.96692
292.96615
292.96525
292.96403
292.9624
292.9603
292.95768
292.95455
292.95095
292.94698
292.94275
292.93856
292.93484
292.93205
292.93061
292.93076
292.93248
292.9359
292.94064
292.94628
292.95241
292.95868
292.96489
292.97093
292.97683
292.98271
292.98874
292.99512
293.00205
293.00964
293.01791
293.02675
293.03596
293.04522
293.05425
293.06278
293.07063
293.07764
293.08382
293.08914
293.09375
293.09767
293.10113
293.10416
293.10706
293.10983
293.11285
293.11601
293.11972
293.12365
293.12828
293.13304
293.13854
293.14396
293.15015
293.15603
293.16268
293.1687
293.17561
293.18146
293.18834
293.19336
293.20016
293.20314
293.20961
293.20884
293.21609
293.20466
293.2309
293.20324
292.86028
292.87602
292.89154
292.9068
292.92164
292.93609
292.95005
292.96362
292.97645
292.98883
293.00046
293.01136
293.02164
293.03107
293.03988
293.048
293.05543
293.06221
293.06838
293.07403
293.07919
293.08393
293.08829
293.09235
293.09617
293.0998
293.10333
293.10678
293.11021
293.11364
293.1171
293.12057
293.12406
293.12753
293.13094
293.13427
293.13749
293.14054
293.1434
293.146
293.1484
293.15057
293.15256
293.15444
293.15632
293.15818
293.16021
293.16242
293.16488
293.16755
293.17041
293.17336
293.17636
293.17924
293.18185
293.1842
293.18609
293.18753
293.18846
293.18888
293.18883
293.18839
293.18756
293.18651
293.18517
293.18357
293.18178
293.17992
293.17812
293.17646
293.17501
293.17378
293.17275
293.17185
293.17098
293.16999
293.16877
293.16721
293.16505
293.16242
293.15945
293.15604
293.15218
293.14794
293.14338
293.13853
293.13326
293.12772
293.12177
293.11543
293.10868
293.10149
293.09387
293.08581
293.0773
293.06832
293.05887
293.04908
293.0391
293.0291
293.01922
293.00963
293.00057
292.9923
292.98506
292.97908
292.9744
292.97116
292.96914
292.96798
292.96722
292.96654
292.96571
292.96454
292.96294
292.96084
292.95821
292.95504
292.95139
292.94736
292.94308
292.93883
292.93505
292.93219
292.93068
292.93073
292.93234
292.93564
292.94026
292.94578
292.95181
292.95802
292.96417
292.97017
292.97604
292.98188
292.98786
292.99416
293.001
293.00847
293.01661
293.02531
293.03438
293.04351
293.05245
293.06092
293.06875
293.07578
293.08201
293.0874
293.09208
293.09608
293.09961
293.10271
293.10567
293.1085
293.11155
293.11474
293.11846
293.12242
293.12707
293.13187
293.1374
293.1429
293.14916
293.15516
293.16192
293.1681
293.17513
293.18118
293.18821
293.19345
293.20043
293.20363
293.21034
293.20964
293.21712
293.20554
293.23206
293.20485
292.87132
292.88693
292.90227
292.91735
292.93196
292.94613
292.95978
292.97299
292.98546
292.99733
293.00859
293.01876
293.02862
293.03754
293.0458
293.05334
293.06019
293.06638
293.07198
293.07704
293.08163
293.08579
293.0896
293.09312
293.09642
293.09957
293.10263
293.10564
293.10867
293.11172
293.11484
293.118
293.12122
293.12446
293.12768
293.13087
293.13398
293.13698
293.13984
293.14249
293.14499
293.14732
293.14953
293.15167
293.15384
293.15603
293.15839
293.16093
293.16369
293.1666
293.16964
293.1727
293.17574
293.17859
293.18112
293.18332
293.18504
293.18626
293.18695
293.18711
293.18678
293.18605
293.18492
293.18351
293.18181
293.17983
293.17767
293.17545
293.17328
293.17126
293.16945
293.1679
293.16659
293.16547
293.16445
293.16342
293.16227
293.1609
293.15903
293.15681
293.15429
293.15135
293.14799
293.14424
293.14014
293.1357
293.1308
293.12559
293.11992
293.11383
293.10728
293.10025
293.09275
293.08477
293.0763
293.06734
293.0579
293.0481
293.03812
293.02811
293.01825
293.00872
292.99976
292.99163
292.98458
292.97881
292.97435
292.9713
292.96942
292.96838
292.96772
292.96711
292.96634
292.96521
292.96364
292.96154
292.9589
292.9557
292.95201
292.94792
292.94358
292.93928
292.93543
292.93251
292.93091
292.93084
292.93233
292.93551
292.93998
292.94538
292.95131
292.95743
292.96353
292.96948
292.97531
292.98111
292.98703
292.99326
293
293.00736
293.01536
293.02391
293.03284
293.04186
293.0507
293.05911
293.06692
293.07396
293.08022
293.08567
293.09043
293.09451
293.09811
293.10128
293.1043
293.10717
293.11026
293.11348
293.11721
293.1212
293.12586
293.13069
293.13627
293.14184
293.14816
293.15427
293.16113
293.16747
293.17463
293.18087
293.18805
293.19351
293.20065
293.20408
293.21104
293.21039
293.21813
293.20642
293.23317
293.20644
292.88289
292.89833
292.91348
292.92833
292.94267
292.95652
292.96985
292.98262
292.99474
293.00604
293.01679
293.02653
293.03581
293.04418
293.05187
293.05883
293.06508
293.07069
293.0757
293.08018
293.08418
293.08778
293.09104
293.09403
293.09681
293.09948
293.10207
293.10466
293.10728
293.10998
293.11276
293.11563
293.11859
293.12161
293.12466
293.12771
293.13075
293.13371
293.13659
293.13932
293.14194
293.14444
293.14687
293.14928
293.15175
293.15426
293.15695
293.15978
293.1628
293.16593
293.16912
293.17228
293.17534
293.17815
293.18059
293.18265
293.1842
293.18521
293.18568
293.18559
293.18502
293.18401
293.18258
293.18085
293.17881
293.17648
293.17398
293.17141
293.1689
293.16654
293.16441
293.16256
293.16098
293.15966
293.15851
293.15744
293.15636
293.15515
293.15358
293.15173
293.14962
293.14712
293.14422
293.14093
293.13727
293.13322
293.12869
293.1238
293.11841
293.11255
293.1062
293.09934
293.09196
293.08407
293.07566
293.06672
293.05731
293.04752
293.03754
293.02754
293.0177
293.00823
292.99936
292.99137
292.98448
292.97888
292.9746
292.9717
292.96995
292.96899
292.9684
292.96786
292.96713
292.96605
292.9645
292.96241
292.95975
292.95653
292.95279
292.94865
292.94426
292.9399
292.93599
292.93299
292.9313
292.93109
292.93247
292.93549
292.93982
292.94508
292.95089
292.95693
292.96296
292.96886
292.97465
292.98039
292.98625
292.99241
292.99905
293.00629
293.01416
293.02257
293.03136
293.04025
293.049
293.05734
293.06512
293.07217
293.07847
293.08398
293.0888
293.09295
293.09662
293.09986
293.10293
293.10585
293.10897
293.11222
293.11597
293.11997
293.12465
293.12952
293.13512
293.14076
293.14715
293.15337
293.16033
293.16681
293.1741
293.18052
293.18786
293.19352
293.20085
293.20448
293.2117
293.2111
293.21911
293.2073
293.23424
293.208
292.89507
292.9103
292.9252
292.93974
292.95381
292.96732
292.98027
292.99256
293.00427
293.01502
293.02526
293.03455
293.04322
293.05103
293.05813
293.0645
293.07016
293.07517
293.07959
293.08349
293.08692
293.08995
293.09266
293.09512
293.09741
293.09959
293.10174
293.1039
293.10613
293.10847
293.11092
293.11351
293.11622
293.11904
293.12193
293.12487
293.12784
293.13079
293.1337
293.13652
293.13928
293.14197
293.14464
293.14732
293.15007
293.15289
293.15587
293.15899
293.16224
293.16556
293.16888
293.1721
293.17518
293.17793
293.18029
293.18222
293.1836
293.18443
293.18468
293.18437
293.18356
293.18229
293.18059
293.17856
293.17619
293.17355
293.17072
293.16783
293.165
293.16233
293.1599
293.15777
293.15595
293.15443
293.15317
293.15207
293.15104
293.14999
293.14867
293.14716
293.14543
293.14335
293.14087
293.13802
293.13476
293.1311
293.12692
293.12233
293.11721
293.1116
293.10545
293.09876
293.09151
293.08371
293.07536
293.06647
293.05709
293.04732
293.03735
293.02737
293.01756
293.00814
292.99936
292.99148
292.98472
292.97927
292.97513
292.97236
292.9707
292.96981
292.96928
292.96879
292.9681
292.96704
292.96551
292.96343
292.96076
292.95752
292.95374
292.94955
292.94511
292.94069
292.93672
292.93364
292.93183
292.93149
292.93274
292.9356
292.93977
292.94488
292.95057
292.95651
292.96246
292.96831
292.97404
292.97973
292.98553
292.99161
292.99816
293.00528
293.01301
293.02127
293.02992
293.03869
293.04734
293.05562
293.06337
293.07042
293.07675
293.08231
293.08719
293.09141
293.09515
293.09845
293.10158
293.10454
293.10769
293.11097
293.11473
293.11875
293.12344
293.12834
293.13398
293.13968
293.14613
293.15245
293.15951
293.16613
293.17355
293.18015
293.18763
293.19351
293.201
293.20485
293.21232
293.21177
293.22005
293.20817
293.23526
293.20954
292.90786
292.92283
292.93746
292.95165
292.96541
292.97854
292.99106
293.00288
293.0141
293.02434
293.03404
293.04281
293.05088
293.05813
293.06463
293.07039
293.07546
293.07988
293.08371
293.08702
293.08988
293.09236
293.09453
293.09648
293.09827
293.09998
293.10168
293.10343
293.10528
293.10726
293.1094
293.11171
293.11419
293.11681
293.11956
293.1224
293.12531
293.12826
293.13121
293.13414
293.13705
293.13993
293.14283
293.14578
293.14882
293.15193
293.15518
293.15855
293.16201
293.16549
293.16891
293.17219
293.17526
293.17797
293.18024
293.18204
293.18327
293.18391
293.18398
293.18346
293.18242
293.18091
293.17895
293.17664
293.17399
293.17104
293.16792
293.16474
293.16161
293.15865
293.15594
293.15354
293.1515
293.1498
293.14842
293.14729
293.14631
293.14538
293.1443
293.1431
293.14171
293.14001
293.13794
293.13548
293.13262
293.12931
293.12547
293.12118
293.11634
293.11096
293.10501
293.09849
293.09137
293.08368
293.07541
293.06657
293.05723
293.04749
293.03754
293.02758
293.01781
293.00844
292.99973
292.99195
292.9853
292.97997
292.97595
292.97327
292.97167
292.97082
292.97033
292.96988
292.96922
292.9682
292.96668
292.9646
292.96193
292.95866
292.95486
292.95062
292.94613
292.94165
292.93761
292.93444
292.93251
292.93203
292.93314
292.93583
292.93983
292.94478
292.95033
292.95616
292.96203
292.96781
292.97349
292.97912
292.98486
292.99086
292.99731
293.00431
293.0119
293.02003
293.02853
293.03717
293.04572
293.05394
293.06165
293.0687
293.07505
293.08066
293.0856
293.08989
293.09369
293.09706
293.10023
293.10324
293.10642
293.10972
293.1135
293.11753
293.12224
293.12716
293.13283
293.13858
293.14509
293.15151
293.15866
293.16543
293.17296
293.17974
293.18737
293.19345
293.20112
293.20517
293.21291
293.21241
293.22096
293.20902
293.23624
293.21104
292.90609
292.92126
292.93595
292.95025
292.96409
292.97747
292.99018
293.00223
293.01358
293.02427
293.034
293.04313
293.05136
293.05883
293.06549
293.07139
293.07656
293.08103
293.08485
293.0881
293.09084
293.09314
293.09507
293.09671
293.09814
293.09944
293.10069
293.10196
293.1033
293.10478
293.10642
293.10825
293.11029
293.11254
293.11498
293.11759
293.12034
293.12321
293.12617
293.12918
293.13221
293.13527
293.13835
293.14148
293.14468
293.14798
293.15136
293.15487
293.15846
293.1621
293.16572
293.16923
293.17255
293.17561
293.17826
293.18045
293.18212
293.18321
293.1837
293.18358
293.18287
293.18163
293.17989
293.1777
293.17513
293.1722
293.16899
293.16559
293.16213
293.15873
293.1555
293.15252
293.14988
293.14763
293.14576
293.14427
293.14309
293.14215
293.14134
293.14046
293.13953
293.13846
293.13711
293.1354
293.13332
293.13082
293.12786
293.12434
293.12035
293.11576
293.11063
293.10488
293.09853
293.09155
293.08397
293.07578
293.06701
293.05771
293.04802
293.0381
293.02817
293.01843
293.00911
293.00046
292.99276
292.9862
292.98096
292.97702
292.97441
292.97285
292.97203
292.97157
292.97114
292.97051
292.9695
292.968
292.96593
292.96325
292.95997
292.95613
292.95185
292.9473
292.94277
292.93865
292.93539
292.93334
292.93272
292.93367
292.93617
292.93999
292.94478
292.95019
292.9559
292.96168
292.96739
292.973
292.97857
292.98424
292.99016
292.9965
293.00339
293.01085
293.01883
293.02719
293.03571
293.04415
293.05229
293.05997
293.06701
293.07338
293.07903
293.08403
293.08838
293.09225
293.09567
293.09889
293.10195
293.10516
293.10848
293.11226
293.11632
293.12103
293.12598
293.13167
293.13748
293.14404
293.15055
293.1578
293.1647
293.17236
293.1793
293.18708
293.19336
293.2012
293.20546
293.21347
293.213
293.22183
293.20985
293.23717
293.21252
292.92045
292.9353
292.94967
292.9636
292.97707
292.99001
293.00226
293.01383
293.02468
293.0348
293.04402
293.05256
293.06022
293.0671
293.07316
293.07846
293.08303
293.0869
293.09014
293.09281
293.09498
293.09672
293.09811
293.09924
293.10017
293.101
293.1018
293.10264
293.10358
293.10469
293.10599
293.10753
293.10931
293.11134
293.1136
293.11607
293.11874
293.12158
293.12454
293.12761
293.13076
293.13397
293.13725
293.1406
293.14404
293.14758
293.15121
293.15494
293.15872
293.16253
293.16626
293.16984
293.17319
293.17623
293.17883
293.18093
293.18249
293.18345
293.18379
293.18351
293.18263
293.18119
293.17925
293.17683
293.17402
293.17085
293.16738
293.16373
293.16002
293.15636
293.15287
293.14966
293.14679
293.14433
293.14231
293.1407
293.13947
293.13855
293.13783
293.13712
293.13643
293.13564
293.13461
293.13325
293.13152
293.12936
293.12672
293.12352
293.11981
293.11549
293.11058
293.10504
293.09887
293.09204
293.08457
293.07647
293.06777
293.05854
293.04889
293.03901
293.02911
293.0194
293.01013
293.00154
292.9939
292.98741
292.98223
292.97836
292.97578
292.97424
292.97343
292.97298
292.97256
292.97195
292.97096
292.96947
292.96741
292.96472
292.96142
292.95755
292.95323
292.94864
292.94405
292.93985
292.93649
292.9343
292.93353
292.93432
292.93663
292.94026
292.94487
292.95013
292.95572
292.9614
292.96703
292.97257
292.97808
292.98367
292.9895
292.99575
293.00251
293.00984
293.01767
293.0259
293.03428
293.04262
293.05069
293.05832
293.06536
293.07175
293.07743
293.08248
293.08689
293.09081
293.09429
293.09756
293.10066
293.1039
293.10724
293.11104
293.1151
293.11982
293.1248
293.13051
293.13636
293.14298
293.14958
293.15692
293.16394
293.17172
293.17882
293.18676
293.19324
293.20125
293.2057
293.21399
293.21356
293.22266
293.21067
293.23807
293.21396
292.93551
292.94998
292.96398
292.97752
292.99056
293.00303
293.01479
293.02584
293.03616
293.04572
293.05439
293.06234
293.06941
293.07568
293.08115
293.08585
293.08982
293.0931
293.09576
293.09786
293.09947
293.10067
293.10154
293.10216
293.10261
293.10297
293.10333
293.10375
293.10431
293.10506
293.10604
293.10728
293.1088
293.11061
293.1127
293.11505
293.11764
293.12044
293.12342
293.12655
293.1298
293.13316
293.13661
293.14017
293.14383
293.1476
293.15145
293.15538
293.15934
293.16327
293.1671
293.17074
293.1741
293.17712
293.17967
293.1817
293.18316
293.184
293.1842
293.18377
293.18272
293.18111
293.17898
293.17636
293.17333
293.16993
293.16623
293.16235
293.1584
293.1545
293.15078