/*--------------------------------*- C++ -*----------------------------------*\
| =========                 |                                                 |
| \\      /  F ield         | OpenFOAM: The Open Source CFD Toolbox           |
|  \\    /   O peration     | Version:  2406                                  |
|   \\  /    A nd           | Website:  www.openfoam.com                      |
|    \\/     M anipulation  |                                                 |
\*---------------------------------------------------------------------------*/
FoamFile
{
    version     2.0;
    format      ascii;
    arch        "LSB;label=32;scalar=64";
    class       volScalarField;
    location    "0.02";
    object      Ma;
}
// * * * * * * * * * * * * * * * * * * * * * * * * * * * * * * * * * * * * * //

dimensions      [0 0 0 0 0 0 0];

internalField   nonuniform List<scalar> 
2065
(
0.18015862
0.18256361
0.18217022
0.18127949
0.18069435
0.17994135
0.17854128
0.17747222
0.17580735
0.17374209
0.17157924
0.16962785
0.16831017
0.16700738
0.16534219
0.16404203
0.16261972
0.16138214
0.1603257
0.15924736
0.15833711
0.15732481
0.15650091
0.15586298
0.1548476
0.15426097
0.15382007
0.15356555
0.15355549
0.15346815
0.15045361
0.17113409
0.17460363
0.17579513
0.17651335
0.17650388
0.17628692
0.1753522
0.17493643
0.17381458
0.17194304
0.1696717
0.16829816
0.16718818
0.16590284
0.16425451
0.16300882
0.16173322
0.16053106
0.15960836
0.15868899
0.15773263
0.15674192
0.15596197
0.15541031
0.1544514
0.1539051
0.15353869
0.15332113
0.15339513
0.15344777
0.15044146
0.16264208
0.16773842
0.17017816
0.17139981
0.17153808
0.17185842
0.17184077
0.1718269
0.17145832
0.17029418
0.1685127
0.16737392
0.16635217
0.16518821
0.16349437
0.16228399
0.16114813
0.15998198
0.15907332
0.15818218
0.15732006
0.15636614
0.15562636
0.15515288
0.15423
0.15370435
0.15337886
0.15315942
0.15328689
0.15342402
0.15042984
0.15780094
0.16184227
0.16432916
0.16563584
0.16709547
0.16819079
0.16862198
0.16883075
0.16890148
0.16832841
0.16703975
0.16639967
0.16565334
0.1645038
0.16280595
0.16165016
0.16059522
0.15953904
0.15877029
0.15790567
0.15708949
0.15615464
0.15542749
0.15492484
0.15408241
0.15357534
0.1532452
0.15304176
0.1532165
0.15339781
0.15041507
0.149912
0.15382312
0.15675732
0.15905753
0.16132869
0.16319303
0.16458574
0.16493719
0.16613333
0.16616804
0.16605452
0.16580129
0.16480649
0.16367457
0.16218203
0.16118569
0.16021751
0.15921338
0.15846362
0.15765038
0.15694813
0.15603357
0.1553143
0.15479961
0.15399915
0.15350573
0.15317237
0.15297558
0.15316227
0.15336855
0.15039755
0.14572109
0.14960266
0.15265235
0.1553899
0.15799691
0.16018039
0.16164871
0.16273819
0.16396193
0.16417915
0.16390091
0.16427007
0.16349529
0.16254863
0.1614382
0.16054678
0.15968321
0.15881127
0.15827774
0.15750931
0.15685727
0.15596585
0.15523524
0.15470006
0.15395051
0.15344765
0.15312178
0.1529073
0.1530995
0.15333336
0.15037965
0.13907631
0.14276697
0.146293
0.14934865
0.15178697
0.15452935
0.15696959
0.15877282
0.16064536
0.16087296
0.1619639
0.16287536
0.16211965
0.16124633
0.16079566
0.16013893
0.1593531
0.15854448
0.15801667
0.15733191
0.15677557
0.15591915
0.15518909
0.1546446
0.15392326
0.15341411
0.1530939
0.15287147
0.1530648
0.15329402
0.15035784
0.13571909
0.13929367
0.14313775
0.14648261
0.14889108
0.15177742
0.1542237
0.15633954
0.15781332
0.15811197
0.15955371
0.16095655
0.16068913
0.15998685
0.16001238
0.15960457
0.15887546
0.15825955
0.15782133
0.15723129
0.15666469
0.15587568
0.15513107
0.15458064
0.15389833
0.15337965
0.15305705
0.15283103
0.15302295
0.15324972
0.15033389
0.13358149
0.13587093
0.13843736
0.14143592
0.1446354
0.14725235
0.14909893
0.15149332
0.1537779
0.15524135
0.15772472
0.15987542
0.15978052
0.15896206
0.159136
0.159115
0.15853881
0.15797758
0.15748547
0.15711852
0.15653329
0.15580411
0.15509748
0.15453881
0.15387543
0.1533614
0.15303687
0.15280944
0.15300039
0.15319837
0.15030747
0.13221046
0.13415814
0.1363051
0.13917881
0.14284036
0.14531462
0.14689171
0.14920092
0.15184316
0.15389241
0.15663351
0.15803303
0.15816891
0.15777919
0.15790232
0.15798849
0.15761081
0.15742961
0.15728505
0.1569688
0.1563603
0.15565701
0.15499669
0.15445619
0.15385003
0.1533459
0.15301409
0.15279117
0.15296217
0.15314005
0.15027859
0.13176483
0.13333541
0.1351351
0.13708923
0.13958025
0.14215617
0.14442517
0.14652988
0.14930251
0.15203981
0.15429369
0.15515927
0.15547652
0.15590801
0.15626412
0.15687893
0.1569389
0.15660601
0.15680649
0.15674204
0.1562326
0.15546989
0.15485297
0.15440655
0.15381659
0.15332741
0.15299595
0.15276163
0.1529064
0.15307344
0.15025129
0.13230409
0.13360932
0.13483654
0.13630146
0.13815903
0.14068135
0.14332478
0.14560728
0.14806371
0.15033269
0.15131784
0.1522107
0.15302614
0.15409658
0.15500007
0.15545355
0.1562969
0.15617471
0.15612584
0.15626711
0.15590543
0.15520809
0.15462371
0.15426088
0.1537459
0.15328868
0.15295384
0.15273432
0.15281477
0.15299622
0.15021833
0.13287549
0.13369658
0.13531662
0.13605549
0.13733677
0.13903204
0.1407161
0.14371317
0.14513403
0.14683859
0.14809188
0.14997202
0.15163731
0.15314316
0.15436553
0.1547773
0.15556002
0.15569679
0.15556813
0.1557625
0.1554606
0.15495723
0.15442716
0.15410447
0.15369143
0.15325846
0.15290956
0.15269551
0.15271511
0.1529071
0.15018794
0.13428074
0.13489386
0.13568436
0.13695678
0.13810721
0.1389093
0.1399398
0.14175036
0.1437617
0.14545428
0.14677765
0.14887596
0.1508459
0.152509
0.15380138
0.1542955
0.15454543
0.15482652
0.15471633
0.15503447
0.15478389
0.15460104
0.15420543
0.15392147
0.15361122
0.15317943
0.15281216
0.15263878
0.15260831
0.1528053
0.150164
0.13560653
0.13612058
0.13687519
0.13742982
0.13834868
0.13936907
0.14002219
0.14090773
0.14293758
0.14469722
0.14614643
0.14819336
0.14985956
0.15134702
0.15165855
0.15235461
0.15321437
0.15415108
0.15419232
0.15450105
0.15434468
0.15425482
0.15406696
0.15377406
0.15349687
0.15309038
0.15272267
0.15255695
0.15250184
0.15269147
0.15010698
0.13713978
0.1377468
0.13830102
0.13897812
0.13935735
0.14019052
0.14126641
0.1420976
0.14318908
0.14449832
0.14598804
0.14773882
0.14839534
0.14964839
0.14994038
0.15093569
0.1520661
0.15296696
0.1532823
0.1535359
0.15379719
0.15380679
0.15378682
0.15360119
0.15328204
0.15290216
0.15256894
0.15245848
0.1523835
0.15256476
0.15005021
0.13860415
0.13885237
0.13925966
0.13973244
0.14029828
0.14081383
0.14160706
0.14235132
0.14307261
0.14411834
0.14512866
0.14587461
0.14667626
0.14809581
0.14909809
0.15042388
0.15149102
0.15206432
0.15260498
0.1529087
0.15338895
0.15350807
0.15346684
0.15328827
0.15301801
0.15273204
0.15246065
0.15235438
0.15224616
0.15242463
0.14999459
0.13949326
0.13972023
0.13996223
0.14037801
0.14079126
0.14142295
0.14205305
0.14261063
0.14305522
0.14382186
0.14464546
0.14532942
0.14616574
0.14741
0.14851572
0.14967425
0.15053222
0.15153335
0.15225296
0.15258116
0.15280535
0.1530728
0.1530492
0.15297495
0.15286101
0.15257197
0.15229653
0.15222849
0.15210537
0.15227093
0.14991934
0.1409922
0.14122372
0.14140574
0.14153395
0.14184542
0.14211188
0.14246185
0.14286778
0.14318662
0.14367761
0.14438295
0.14517519
0.14595424
0.14701075
0.14815344
0.14890244
0.14957517
0.15060102
0.15168715
0.15208511
0.15208527
0.15263515
0.15280146
0.15276275
0.15271052
0.15245086
0.15215699
0.15208476
0.15195718
0.15210151
0.14984265
0.14229206
0.14237823
0.14262505
0.14294091
0.14312259
0.1434691
0.14367876
0.14398078
0.14432905
0.14475287
0.14529119
0.14580874
0.14618558
0.14699876
0.14799022
0.14868363
0.14922744
0.1497172
0.15038951
0.15105404
0.15163491
0.15222552
0.15246056
0.15240909
0.15241013
0.15227958
0.15194219
0.1518495
0.15176705
0.15191934
0.14978229
0.14337515
0.14356946
0.14374495
0.14386676
0.14408686
0.14422633
0.14437408
0.14456989
0.14485663
0.14519572
0.14562066
0.14609847
0.14655504
0.14701412
0.14776584
0.14844165
0.14893094
0.1493893
0.14984679
0.15040383
0.15129857
0.15151463
0.15182535
0.1519381
0.1520419
0.15197642
0.15174267
0.15161873
0.15155271
0.15173483
0.14967689
0.14463276
0.14469876
0.14478679
0.1448648
0.14497442
0.14504998
0.14516491
0.14534301
0.14557227
0.1458095
0.1460233
0.14634881
0.14672617
0.14721742
0.14768291
0.14819351
0.14881033
0.14932235
0.14967717
0.15004768
0.15062254
0.15087587
0.15112355
0.15152578
0.15154917
0.15163238
0.15148325
0.15139412
0.1513637
0.15154748
0.14953033
0.14530901
0.14534611
0.14539514
0.14545059
0.145516
0.14556945
0.14567557
0.14581346
0.14600756
0.14618008
0.14644467
0.14673322
0.1470396
0.14728797
0.14753072
0.14790386
0.1483803
0.14894455
0.14946388
0.14984011
0.15015069
0.15055406
0.15077784
0.1511848
0.151206
0.15128039
0.15127
0.15118832
0.15119152
0.15134433
0.14940598
0.14649125
0.14656339
0.14660788
0.14667372
0.14673076
0.14681465
0.14697569
0.14707037
0.14717267
0.14728392
0.14740837
0.14753144
0.14766942
0.14774641
0.14777374
0.14788794
0.14817367
0.14848454
0.14889303
0.14937455
0.14973773
0.15027741
0.1505663
0.1508046
0.15101287
0.15096159
0.15100787
0.15101877
0.15101674
0.15114315
0.14923216
0.14743886
0.14748064
0.14754373
0.14758237
0.14761906
0.14765544
0.14768827
0.14773918
0.14778815
0.14785884
0.14790584
0.14795111
0.14799013
0.14799663
0.14808853
0.14824545
0.14837062
0.14845334
0.14878826
0.14922297
0.14950793
0.14991029
0.15032019
0.15049411
0.15073687
0.15074765
0.15071587
0.15075937
0.15076289
0.1509057
0.14910615
0.14807755
0.14807185
0.14806168
0.14807219
0.14807858
0.14810879
0.14811278
0.1481508
0.14819495
0.14822827
0.14827607
0.14834054
0.14842459
0.14859707
0.14875153
0.14883453
0.14886437
0.14888959
0.14906221
0.14931479
0.14952479
0.1497794
0.14998875
0.15009776
0.15030257
0.15046771
0.15046279
0.15049255
0.15045988
0.1505897
0.14897133
0.14869668
0.14869573
0.14870204
0.14871501
0.14872891
0.14873994
0.14876456
0.14878172
0.1488122
0.14884271
0.14888529
0.14894178
0.14899905
0.14907573
0.14913374
0.14914896
0.14909897
0.14907258
0.14918088
0.14930013
0.14953931
0.14971331
0.14974687
0.1498193
0.14988127
0.14997922
0.15009008
0.15017231
0.15003188
0.15023262
0.1488116
0.14912234
0.14912707
0.1491338
0.14914231
0.1491509
0.14916059
0.14917326
0.14918537
0.14920401
0.14921382
0.14923893
0.14927632
0.14931483
0.14937791
0.1494075
0.14938769
0.14932008
0.14922375
0.14926007
0.14925073
0.1493206
0.14948688
0.1495429
0.1496163
0.14958857
0.14957589
0.14963205
0.14966013
0.14949581
0.14991051
0.1487492
0.1492952
0.14930059
0.14930744
0.14931515
0.14932213
0.14933049
0.14933992
0.14934735
0.14936165
0.14936215
0.14938086
0.14941366
0.14944416
0.14951295
0.14953554
0.14950093
0.14944095
0.14931133
0.14932763
0.1492771
0.14920327
0.14922391
0.14913453
0.14917641
0.14920567
0.14923772
0.14920176
0.14914397
0.14907079
0.14944254
0.14873203
0.14925518
0.14926497
0.1492773
0.14929018
0.14930022
0.1493109
0.14932201
0.14932771
0.14934291
0.14933318
0.14935473
0.14939061
0.14941835
0.14951901
0.14954066
0.14948394
0.1494929
0.14934831
0.14935261
0.14925663
0.14907547
0.14907587
0.1490042
0.14904853
0.14904124
0.14904229
0.14902042
0.14894274
0.14889912
0.14910153
0.1486745
0.14967055
0.14967508
0.14968054
0.14968558
0.14968859
0.14969183
0.14969482
0.14969505
0.14969986
0.1496936
0.1497009
0.14971032
0.1497141
0.14974182
0.14974651
0.14972191
0.14973172
0.14965866
0.14964012
0.14950128
0.14917369
0.14903171
0.14903845
0.14920833
0.14904052
0.14906077
0.14905774
0.14895972
0.14883463
0.14880796
0.14848047
0.081272801
0.14083927
0.1729737
0.18618761
0.1902426
0.19139735
0.19115736
0.19034771
0.18970043
0.18815372
0.18623853
0.18445968
0.18206255
0.17938794
0.17679078
0.17429464
0.17161303
0.16903249
0.16653928
0.16427894
0.1623728
0.16059302
0.15935077
0.15791246
0.15659846
0.15562019
0.15488897
0.15447338
0.15432628
0.15400273
0.15102325
0.15274816
0.18060484
0.19111041
0.19396537
0.1940098
0.19341545
0.19255557
0.19112774
0.18991443
0.18830637
0.18628252
0.18407781
0.18151522
0.17886004
0.17628267
0.17382044
0.171189
0.16864475
0.1662299
0.16405931
0.16220258
0.16046611
0.15925173
0.15783156
0.15652986
0.15557318
0.15485548
0.15445196
0.15430875
0.15397785
0.15099371
0.18122292
0.19318852
0.1956333
0.19577882
0.19527639
0.19426611
0.19317164
0.1916561
0.18998712
0.18837993
0.18630849
0.18398178
0.18132897
0.17867184
0.17606126
0.17354048
0.1709473
0.16846244
0.1660958
0.16393041
0.16208542
0.16038417
0.15918
0.1577787
0.15648333
0.15553412
0.15483053
0.15442918
0.15429114
0.15395311
0.15096065
0.19366047
0.19666754
0.19675442
0.19650459
0.1958907
0.19531778
0.19384187
0.19228234
0.19041907
0.1883657
0.1861981
0.18366496
0.18080538
0.17816937
0.17553445
0.17300572
0.17049311
0.16808209
0.16580234
0.16371178
0.16190731
0.16026382
0.1590932
0.15769802
0.15642913
0.1554968
0.15480998
0.1544142
0.1542801
0.15392776
0.15092708
0.1974352
0.19826017
0.19833056
0.19819391
0.19758214
0.19646094
0.1943384
0.19251092
0.19082718
0.18843594
0.18596983
0.18347354
0.18057321
0.17795581
0.17531263
0.1727369
0.17026932
0.16790223
0.1656737
0.16359543
0.16179829
0.1601885
0.15902891
0.15763979
0.15639099
0.1554671
0.15479834
0.15439539
0.15426923
0.15390446
0.15089482
0.19986916
0.20082567
0.20057777
0.20005945
0.19845048
0.19712333
0.19541511
0.19267884
0.19091023
0.18852968
0.18580757
0.18309579
0.18006697
0.1774383
0.17478708
0.17218118
0.16980901
0.1675168
0.16539466
0.16337721
0.16162549
0.16007981
0.15894377
0.15755635
0.15634172
0.15543398
0.15478241
0.15438354
0.15426111
0.15388082
0.15086244
0.20439581
0.20413866
0.20300257
0.20220418
0.20019502
0.19821771
0.19642003
0.19334091
0.19075088
0.18844304
0.18574366
0.18294087
0.17985665
0.17722149
0.17456915
0.17193924
0.16961026
0.1673455
0.16527233
0.16327784
0.16154008
0.16001217
0.15888357
0.15750699
0.15630939
0.15540717
0.15476676
0.15436791
0.15424961
0.15385828
0.15083294
0.20814089
0.20710527
0.20532703
0.20419416
0.20215128
0.19916251
0.19681644
0.19391202
0.19077347
0.18820751
0.1853645
0.18240306
0.17927516
0.17672017
0.17410429
0.17145987
0.16921183
0.16697928
0.16499459
0.16306581
0.16137902
0.15990515
0.15880389
0.15743237
0.15626095
0.15537502
0.15474119
0.1543553
0.15423783
0.15383602
0.15080366
0.21302032
0.21076279
0.20737253
0.2053125
0.2030995
0.20007603
0.19701413
0.19415392
0.19096898
0.18817563
0.18488363
0.18199052
0.17898768
0.17651932
0.17391322
0.17125798
0.16904153
0.16681732
0.16487239
0.16297429
0.16130837
0.15985193
0.158746
0.1573954
0.156231
0.15535266
0.15471849
0.15433568
0.15422187
0.15381433
0.15077484
0.21770769
0.21433619
0.21124975
0.20730104
0.2038405
0.20075183
0.1972905
0.19412232
0.19102462
0.18822062
0.1846108
0.18140564
0.17829326
0.17596021
0.17341954
0.17080745
0.16868275
0.16647311
0.1646021
0.16277057
0.1611628
0.15974342
0.15866268
0.15732913
0.15618532
0.15532182
0.15469209
0.15431869
0.15420525
0.15379318
0.15074891
0.22025904
0.21610011
0.21328716
0.20993196
0.20528898
0.20158074
0.19791751
0.19388424
0.19084882
0.18799284
0.18421678
0.18090438
0.17787984
0.17570021
0.17316983
0.17057129
0.16851167
0.16631848
0.16448231
0.16267945
0.16110014
0.159695
0.15861099
0.15730014
0.15615945
0.15530411
0.15467305
0.1542979
0.15418474
0.15377217
0.15072443
0.22439995
0.21749444
0.21409112
0.21082612
0.20607912
0.20199426
0.19825767
0.19415778
0.19062077
0.18725169
0.18348307
0.18009804
0.17711563
0.17504603
0.17258403
0.16999612
0.16810476
0.16597952
0.16422567
0.1624857
0.16096041
0.15958388
0.15852592
0.15724436
0.15611658
0.1552766
0.15465303
0.15428278
0.15416409
0.1537509
0.15070111
0.22766906
0.22111573
0.21542805
0.21122433
0.20640289
0.20205772
0.19830205
0.19437649
0.19062891
0.18682491
0.18305846
0.17967199
0.17679587
0.17476026
0.17231999
0.16973474
0.16790658
0.16583119
0.16410622
0.16239919
0.16089961
0.15953554
0.15847773
0.15722166
0.15608965
0.15526488
0.15463859
0.15426554
0.15414347
0.15372927
0.15068037
0.22883266
0.2225887
0.21732675
0.21232393
0.20684773
0.20199002
0.19771178
0.19391455
0.19053721
0.18677284
0.1826022
0.1789838
0.17625919
0.17417176
0.17176756
0.16924396
0.16746902
0.1654845
0.16383004
0.16221195
0.16075981
0.1594214
0.15838494
0.15717867
0.15604474
0.15524794
0.15461988
0.15425072
0.15412461
0.15370736
0.1506613
0.22870855
0.22284906
0.21806812
0.21307841
0.20728077
0.20223336
0.19765019
0.19349288
0.19014615
0.18652397
0.18243357
0.17872153
0.17607026
0.17394127
0.17154798
0.16904368
0.16723651
0.16532385
0.1636834
0.16212308
0.16070054
0.15936821
0.15833572
0.15715868
0.15601581
0.15523829
0.15460371
0.15422849
0.15410069
0.15368535
0.15064252
0.22963183
0.22312562
0.21790507
0.21297749
0.20747134
0.20234289
0.19777253
0.1936353
0.1898125
0.18602375
0.18211861
0.17819639
0.17569079
0.17357149
0.17121397
0.16867835
0.16678802
0.16499265
0.16340243
0.1619166
0.16056928
0.15926258
0.15824127
0.15711153
0.15596545
0.15521532
0.15457976
0.15420509
0.15407169
0.1536631
0.15062419
0.22945052
0.22230533
0.21669062
0.21158638
0.20679734
0.20189137
0.1973577
0.19348216
0.18941421
0.18558664
0.18180501
0.17803379
0.17550268
0.17344095
0.17110415
0.1685439
0.1666043
0.16484763
0.16327715
0.16180871
0.16051224
0.15920928
0.15819086
0.15708128
0.15593355
0.15519172
0.15455443
0.15417599
0.15404002
0.15364011
0.15060774
0.22460515
0.21939887
0.21470527
0.2097467
0.20499331
0.20048952
0.19615768
0.19263669
0.18874717
0.18500508
0.18122188
0.1775046
0.1751666
0.17314262
0.17091043
0.16837927
0.1664594
0.16462406
0.16307539
0.1616178
0.16038829
0.15911019
0.15810165
0.1570279
0.15588182
0.15515399
0.15452151
0.1541501
0.15401288
0.15361589
0.15059042
0.22105681
0.21644959
0.21258097
0.20807461
0.20371264
0.19909218
0.19498493
0.19150167
0.18766529
0.1841284
0.18060305
0.17722296
0.17506482
0.17296705
0.17078898
0.16832185
0.16643234
0.16456266
0.16299773
0.16153836
0.16033657
0.15906301
0.15805925
0.15700055
0.15585568
0.15512533
0.15449604
0.15412839
0.15398683
0.15359098
0.15057212
0.21623065
0.21149868
0.20807999
0.20421883
0.20052458
0.19694124
0.19309707
0.18985378
0.18633299
0.18302803
0.17971004
0.17649004
0.17459228
0.17257878
0.17048809
0.16832318
0.16638338
0.16456906
0.16294734
0.16151018
0.16031195
0.15904495
0.15804302
0.15699296
0.15584753
0.15511552
0.15448688
0.15412032
0.1539708
0.15356636
0.15055667
0.21166959
0.20842713
0.20522375
0.20155837
0.19806971
0.19440647
0.1908149
0.18786523
0.1846656
0.18178909
0.1787988
0.17577399
0.17403553
0.17209396
0.17004414
0.1680819
0.16612333
0.16455029
0.16295105
0.1615357
0.16034598
0.15908819
0.15807955
0.15704677
0.15589193
0.15515236
0.15451252
0.15413558
0.15396555
0.15354244
0.15053742
0.20407086
0.20111856
0.19900438
0.19651404
0.19384065
0.19116888
0.18810186
0.18546106
0.18286843
0.18008819
0.17727024
0.17447256
0.17287437
0.1711139
0.16919509
0.16750411
0.16562909
0.16411662
0.16275764
0.16140733
0.16036139
0.15911067
0.15809915
0.1570721
0.15591364
0.1551726
0.15453074
0.15415174
0.15396944
0.15352107
0.15051644
0.19934562
0.19684201
0.19458378
0.19215678
0.18983876
0.18766569
0.18520452
0.18289248
0.18064264
0.17818559
0.17562541
0.17307077
0.17158038
0.16992663
0.16808735
0.16654349
0.16478828
0.16344956
0.16217531
0.16081419
0.1598957
0.15875906
0.15780229
0.15687228
0.1557401
0.15505415
0.15444821
0.15410108
0.15392103
0.15350259
0.15049527
0.1890702
0.18837204
0.1875467
0.18631016
0.18496253
0.18367147
0.18209273
0.1801439
0.17804836
0.17581656
0.17338273
0.17117976
0.16983347
0.16833666
0.16663654
0.16528854
0.16370109
0.16240318
0.1613043
0.16010149
0.15916371
0.15808862
0.15719901
0.1563786
0.15531156
0.15467229
0.15414649
0.15386325
0.15377205
0.15348586
0.1504733
0.074374094
0.13308139
0.17025729
0.18409571
0.18893278
0.19053213
0.19053973
0.189865
0.18934729
0.18790378
0.18617035
0.18449956
0.18217714
0.17959367
0.17704337
0.17454991
0.17182142
0.16920298
0.16667534
0.1644188
0.16249135
0.16069325
0.15944046
0.15798635
0.15667549
0.15568051
0.15493794
0.15450808
0.15435655
0.15402082
0.15104882
0.075554176
0.13126824
0.16761223
0.18165828
0.18723665
0.1892505
0.18952723
0.18898465
0.18855345
0.18751256
0.18598825
0.18437971
0.18211321
0.17960058
0.17717698
0.17470808
0.17199292
0.16936774
0.16680218
0.16450312
0.16257262
0.16077788
0.15951685
0.15805424
0.1567574
0.1557336
0.15499163
0.15454387
0.15439499
0.15403532
0.15106906
0.078784274
0.13165949
0.16581038
0.17933541
0.18504358
0.18726289
0.18788935
0.18778154
0.18759969
0.18679849
0.18560489
0.18406094
0.18194928
0.17955517
0.17715901
0.17470379
0.17200729
0.1694209
0.16683521
0.16457121
0.16263613
0.16083735
0.15957349
0.15811478
0.15684226
0.15578925
0.15504305
0.15458137
0.15444255
0.1540489
0.15109037
0.079191199
0.13131185
0.16383343
0.17666797
0.18229481
0.18491731
0.18610339
0.18656327
0.1866438
0.18598603
0.18506582
0.18377636
0.18177651
0.17945221
0.17711866
0.17469928
0.17199745
0.16940841
0.16682516
0.16457436
0.16266326
0.16087018
0.15960825
0.15815925
0.15691592
0.15583763
0.15508832
0.1546135
0.15448595
0.15406272
0.15111278
0.078037966
0.12983384
0.16114851
0.17412966
0.18007403
0.1829604
0.18437072
0.18510138
0.18548843
0.18512054
0.18457106
0.18344834
0.18160327
0.17937665
0.17708315
0.17468769
0.17200239
0.16941263
0.16681152
0.1645744
0.16266395
0.16089287
0.15962982
0.15819387
0.156975
0.15587971
0.15512604
0.15463946
0.074395677
0.12625522
0.1575456
0.17089743
0.17713377
0.18039478
0.18236168
0.18375798
0.1845903
0.1845289
0.18412019
0.018884616
0.026351059
0.033255498
0.037320519
0.039247862
0.0083644822
0.0056510085
0.18400024
0.17893973
0.01601988
0.0067263869
0.019394729
0.038037221
0.01974884
0.006375769
0.021280919
0.047418559
0.079586766
0.030079478
0.014460959
0.018494745
0.048790626
0.091174221
0.14545241
0.030009321
0.014304611
0.048365309
0.094488181
0.15474794
0.18237994
0.037006462
0.047901784
0.092620403
0.15331676
0.18466147
0.19391723
0.013603229
0.073443975
0.1470753
0.18471864
0.19561088
0.19836478
0.052522948
0.13634038
0.18360219
0.19603574
0.20119065
0.20299065
0.088263334
0.1741162
0.19530638
0.20465689
0.20874879
0.20850662
0.1400128
0.20261226
0.21254329
0.21580668
0.2153952
0.21353058
0.15898656
0.21757504
0.22130713
0.22288195
0.22203937
0.21888486
0.1934038
0.23496921
0.23495807
0.23430411
0.22968779
0.22249994
0.21339271
0.24346072
0.2409835
0.23961089
0.2342498
0.22896756
0.23237077
0.25330654
0.24685773
0.24342093
0.23694581
0.23118256
0.2379219
0.25671108
0.25016321
0.24647323
0.23924878
0.2318129
0.24069417
0.25878244
0.25152871
0.24814645
0.24173578
0.23295823
0.2438542
0.25915659
0.25221148
0.2474225
0.24243741
0.23433589
0.24415366
0.25925246
0.25323044
0.2457356
0.23961236
0.23334612
0.24277707
0.25887525
0.25218692
0.24457997
0.23615332
0.22834876
0.24249799
0.25338614
0.24560178
0.23978271
0.23389073
0.22592273
0.23973037
0.24995676
0.24240091
0.23445278
0.22664491
0.22031449
0.23481867
0.24035218
0.2338631
0.22761456
0.22075636
0.21475684
0.22847146
0.2340056
0.22668707
0.22019227
0.21361893
0.20752536
0.22167277
0.21525597
0.20948895
0.20463243
0.20126947
0.20654131
0.20024566
0.19401774
0.19006041
0.17197165
0.16479357
0.15627958
0.15108772
0.14369884
0.1397235
0.13497195
0.1324845
0.13085745
0.12994816
0.1301726
0.13085242
0.13172539
0.13247683
0.13267431
0.13356957
0.13479065
0.13483741
0.13682913
0.13694307
0.13784812
0.13827611
0.13919237
0.13924115
0.14094235
0.14092127
0.14207911
0.14221973
0.14319044
0.14322456
0.14449675
0.14455914
0.14532705
0.14529125
0.14643879
0.14645898
0.14741404
0.14741724
0.1479882
0.14806187
0.14874199
0.14871556
0.14911856
0.1491201
0.14928371
0.14929155
0.14923414
0.14925072
0.14966207
0.14967031
)
;

boundaryField
{
    Side1
    {
        type            empty;
    }
    Inlet
    {
        type            calculated;
        value           nonuniform List<scalar> 
92
(
0.15014733
0.15014135
0.1501355
0.15012811
0.1501194
0.15011056
0.15009978
0.15008783
0.15007455
0.15005995
0.15004597
0.15002917
0.1496768
0.14999983
0.14997186
0.14994294
0.14991314
0.14953944
0.14983747
0.14980599
0.14975242
0.14967894
0.14927849
0.1495276
0.14946231
0.14939103
0.14930989
0.14926978
0.1492531
0.14922214
0.14977318
0.14977318
0.14977318
0.14977318
0.14977318
0.14977318
0.14977318
0.14977318
0.14977318
0.14977318
0.14977318
0.14977318
0.14977318
0.14977318
0.14977318
0.14977318
0.14977318
0.14977318
0.14977318
0.14977318
0.14977318
0.14977318
0.14977318
0.14977318
0.14977318
0.14977318
0.14977318
0.14977318
0.14977318
0.14977318
0.14913054
0.14977318
0.15043234
0.15007839
0.15040133
0.15038476
0.15002977
0.15035274
0.14999932
0.14998484
0.15030924
0.15029636
0.15028418
0.15027254
0.14992376
0.15025247
0.15024297
0.14989547
0.15022517
0.15021632
0.14986897
0.150199
0.15018926
0.14984094
0.15016809
0.14981954
0.15044504
0.15045507
0.15046563
0.15047673
0.14977318
0.14977318
)
;
    }
    Side2
    {
        type            empty;
    }
    Outlet
    {
        type            calculated;
        value           nonuniform List<scalar> 0();
    }
    Botwall
    {
        type            calculated;
        value           nonuniform List<scalar> 0();
    }
    Cyli
    {
        type            calculated;
        value           uniform 0;
    }
    procBoundary2to0
    {
        type            processor;
        value           nonuniform List<scalar> 
55
(
0.015592699
0.023453695
0.028563257
0.032615124
0.034379234
0.018474553
0.015697357
0.018389434
0.015351256
0.015351256
0.19197083
0.18754913
0.18754913
0.17119987
0.16705297
0.02172228
0.02172228
0.024522129
0.024522129
0.22055715
0.22055715
0.2124441
0.2124441
0.16105384
0.15413754
0.14741813
0.14323024
0.13673778
0.13332468
0.13057736
0.12903147
0.12774047
0.12737781
0.12844141
0.13035893
0.13035893
0.13064105
0.13231674
0.13467159
0.13648386
0.13749322
0.13919484
0.1408053
0.14201389
0.14318457
0.14443293
0.1453515
0.14642929
0.14738452
0.14795354
0.14874917
0.14911585
0.14927827
0.14922451
0.14965698
)
;
    }
    procBoundary2to3
    {
        type            processor;
        value           nonuniform List<scalar> 
35
(
0.15451907
0.154077
0.15113631
0.18320392
0.18150695
0.17931948
0.17706687
0.17468045
0.17201127
0.16944131
0.16681856
0.16458161
0.16267019
0.16090169
0.15963835
0.15821836
0.15702533
0.15592499
0.15515331
0.15451907
0.15466031
0.067562844
0.038486357
0.11998874
0.15187362
0.16638595
0.17411314
0.17866177
0.18120365
0.18279642
0.18380159
0.18393816
0.18320392
0.18376396
0.038486357
)
;
    }
}


// ************************************************************************* //
