/*--------------------------------*- C++ -*----------------------------------*\
| =========                 |                                                 |
| \\      /  F ield         | OpenFOAM: The Open Source CFD Toolbox           |
|  \\    /   O peration     | Version:  2406                                  |
|   \\  /    A nd           | Website:  www.openfoam.com                      |
|    \\/     M anipulation  |                                                 |
\*---------------------------------------------------------------------------*/
FoamFile
{
    version     2.0;
    format      ascii;
    arch        "LSB;label=32;scalar=64";
    class       volScalarField;
    location    "0.01";
    object      pMean;
}
// * * * * * * * * * * * * * * * * * * * * * * * * * * * * * * * * * * * * * //

dimensions      [1 -1 -2 0 0 0 0];

internalField   nonuniform List<scalar> 
23203
(
100232.44
100241.7
100251.31
100260.78
100270.51
100280.61
100291.05
100301.86
100313.01
100324.46
100336.21
100348.3
100360.68
100373.28
100386.07
100399.05
100412.23
100425.59
100439.09
100452.7
100466.46
100480.38
100494.46
100255.84
100264.73
100274.05
100283.26
100292.69
100302.46
100312.5
100322.87
100333.58
100344.58
100355.91
100367.54
100379.42
100391.55
100403.86
100416.37
100429.08
100441.97
100455
100468.18
100481.5
100494.99
100508.65
100279.2
100287.7
100296.75
100305.7
100314.84
100324.27
100333.98
100343.99
100354.27
100364.84
100375.71
100386.88
100398.29
100409.95
100421.8
100433.84
100446.08
100458.5
100471.09
100483.82
100496.72
100509.8
100523.03
100302.42
100310.55
100319.34
100328.07
100336.95
100346.06
100355.45
100365.1
100374.97
100385.11
100395.55
100406.26
100417.22
100428.42
100439.82
100451.4
100463.18
100475.14
100487.28
100499.58
100512.05
100524.72
100537.53
100325.45
100333.22
100341.77
100350.3
100358.95
100367.76
100376.81
100386.09
100395.59
100405.36
100415.4
100425.66
100436.17
100446.93
100457.88
100469.01
100480.34
100491.86
100503.56
100515.43
100527.5
100539.76
100348.24
100355.64
100363.97
100372.31
100380.73
100389.29
100398.05
100406.99
100416.13
100425.52
100435.16
100445.01
100455.09
100465.42
100475.95
100486.65
100497.54
100508.63
100519.9
100531.36
100543.02
100554.86
100370.73
100377.78
100385.89
100394.07
100402.27
100410.62
100419.11
100427.73
100436.54
100445.58
100454.82
100464.27
100473.96
100483.87
100493.99
100504.27
100514.74
100525.41
100536.27
100547.33
100558.58
100570.01
100392.88
100399.58
100407.5
100415.53
100423.56
100431.68
100439.9
100448.24
100456.75
100465.46
100474.34
100483.42
100492.72
100502.23
100511.96
100521.85
100531.91
100542.18
100552.64
100563.3
100574.15
100585.18
100414.65
100421
100428.74
100436.65
100444.52
100452.43
100460.42
100468.5
100476.73
100485.13
100493.68
100502.41
100511.34
100520.48
100529.83
100539.34
100549.02
100558.9
100568.97
100579.24
100589.71
100600.34
100435.94
100441.98
100449.54
100457.34
100465.09
100472.84
100480.61
100488.49
100496.47
100504.56
100512.8
100521.21
100529.8
100538.58
100547.57
100556.72
100566.04
100575.54
100585.24
100595.13
100605.22
100615.47
100456.79
100462.5
100469.91
100477.63
100485.28
100492.88
100500.48
100508.14
100515.88
100523.71
100531.66
100539.77
100548.04
100556.5
100565.14
100573.96
100582.93
100592.07
100601.41
100610.94
100620.67
100630.56
100477.09
100482.5
100489.81
100497.47
100505.02
100512.5
100519.95
100527.42
100534.94
100542.54
100550.24
100558.07
100566.06
100574.2
100582.52
100591.02
100599.67
100608.47
100617.47
100626.65
100636.03
100645.56
100496.91
100501.96
100509.17
100516.84
100524.31
100531.67
100539
100546.33
100553.66
100561.04
100568.51
100576.09
100583.8
100591.66
100599.68
100607.88
100616.22
100624.71
100633.38
100642.23
100651.27
100660.47
100516.29
100520.83
100527.9
100535.6
100543.1
100550.38
100557.61
100564.81
100571.98
100579.17
100586.44
100593.79
100601.26
100608.85
100616.6
100624.5
100632.56
100640.76
100649.12
100657.66
100666.38
100675.26
100535.05
100539.26
100546.19
100553.85
100561.35
100568.64
100575.77
100582.84
100589.88
100596.92
100604
100611.15
100618.4
100625.76
100633.25
100640.88
100648.67
100656.6
100664.66
100672.91
100681.33
100689.9
100553.37
100557.21
100563.9
100571.55
100579.03
100586.32
100593.44
100600.43
100607.35
100614.26
100621.18
100628.15
100635.2
100642.34
100649.6
100656.99
100664.52
100672.2
100680
100687.95
100696.09
100704.36
100571.02
100574.54
100581.16
100588.78
100596.24
100603.48
100610.58
100617.56
100624.4
100631.18
100637.96
100644.78
100651.65
100658.6
100665.64
100672.8
100680.09
100687.53
100695.09
100702.79
100710.65
100718.64
100588.12
100591.39
100597.88
100605.46
100612.92
100620.14
100627.2
100634.13
100640.96
100647.67
100654.33
100661.01
100667.72
100674.5
100681.35
100688.3
100695.37
100702.58
100709.91
100717.37
100724.97
100732.71
100604.63
100607.6
100614.04
100621.65
100629.11
100636.29
100643.32
100650.23
100657
100663.68
100670.27
100676.82
100683.4
100690.02
100696.71
100703.48
100710.34
100717.33
100724.45
100731.69
100739.06
100746.54
100620.56
100623.24
100629.65
100637.28
100644.75
100651.97
100658.97
100665.82
100672.56
100679.19
100685.74
100692.22
100698.68
100705.16
100711.7
100718.3
100724.98
100731.77
100738.68
100745.71
100752.87
100760.12
100635.91
100638.32
100644.68
100652.38
100659.86
100667.06
100674.1
100680.95
100687.65
100694.24
100700.72
100707.15
100713.54
100719.9
100726.3
100732.75
100739.28
100745.88
100752.59
100759.43
100766.38
100773.42
100650.69
100652.84
100659.15
100666.91
100674.44
100681.67
100688.71
100695.58
100702.26
100708.8
100715.25
100721.62
100727.94
100734.23
100740.51
100746.83
100753.2
100759.65
100766.18
100772.82
100779.58
100786.43
100664.91
100666.8
100673.06
100680.88
100688.48
100695.72
100702.79
100709.68
100716.38
100722.9
100729.3
100735.63
100741.89
100748.11
100754.31
100760.51
100766.75
100773.04
100779.41
100785.88
100792.46
100799.12
100678.56
100680.21
100686.43
100694.3
100701.96
100709.26
100716.35
100723.28
100730.01
100736.54
100742.9
100749.17
100755.38
100761.54
100767.66
100773.78
100779.9
100786.06
100792.28
100798.59
100804.99
100811.47
100691.66
100693.1
100699.28
100707.2
100714.92
100722.27
100729.39
100736.33
100743.11
100749.67
100756.03
100762.26
100768.4
100774.51
100780.57
100786.6
100792.64
100798.68
100804.77
100810.92
100817.16
100823.47
100704.23
100705.47
100711.62
100719.57
100727.34
100734.75
100741.92
100748.89
100755.68
100762.29
100768.67
100774.89
100780.99
100787.01
100793.02
100798.98
100804.93
100810.89
100816.86
100822.88
100828.97
100835.12
100716.27
100717.38
100723.5
100731.46
100739.25
100746.69
100753.91
100760.94
100767.76
100774.37
100780.79
100787.02
100793.1
100799.08
100805.01
100810.92
100816.79
100822.65
100828.53
100834.43
100840.39
100846.39
100727.8
100728.81
100734.92
100742.86
100750.65
100758.1
100765.37
100772.44
100779.3
100785.94
100792.4
100798.66
100804.73
100810.69
100816.55
100822.38
100828.19
100833.98
100839.76
100845.57
100851.4
100857.27
100738.76
100739.71
100745.82
100753.74
100761.51
100768.98
100776.28
100783.39
100790.29
100796.99
100803.47
100809.76
100815.86
100821.8
100827.63
100833.4
100839.13
100844.86
100850.56
100856.27
100862.01
100867.75
100749.15
100750.06
100756.17
100764.06
100771.82
100779.3
100786.62
100793.77
100800.73
100807.48
100814.01
100820.32
100826.47
100832.43
100838.23
100843.95
100849.61
100855.26
100860.91
100866.53
100872.17
100877.81
100758.96
100759.81
100765.93
100773.8
100781.54
100789.02
100796.36
100803.57
100810.59
100817.4
100823.99
100830.36
100836.51
100842.51
100848.34
100854.03
100859.65
100865.21
100870.78
100876.35
100881.89
100887.44
100768.2
100768.99
100775.11
100782.96
100790.68
100798.16
100805.53
100812.79
100819.86
100826.73
100833.39
100839.82
100846.05
100852.06
100857.92
100863.62
100869.21
100874.73
100880.21
100885.69
100891.18
100896.63
100776.86
100777.58
100783.69
100791.52
100799.23
100806.71
100814.1
100821.39
100828.53
100835.48
100842.21
100848.72
100855.01
100861.08
100866.96
100872.69
100878.28
100883.76
100889.19
100894.6
100900.01
100905.39
100784.98
100785.64
100791.71
100799.51
100807.2
100814.68
100822.08
100829.41
100836.61
100843.62
100850.43
100857.03
100863.4
100869.55
100875.48
100881.23
100886.84
100892.32
100897.71
100903.05
100908.38
100913.71
100792.61
100793.18
100799.21
100806.95
100814.6
100822.07
100829.48
100836.83
100844.07
100851.15
100858.06
100864.74
100871.2
100877.44
100883.45
100889.24
100894.87
100900.37
100905.75
100911.06
100916.32
100921.56
100799.73
100800.18
100806.17
100813.86
100821.47
100828.89
100836.29
100843.65
100850.93
100858.08
100865.06
100871.84
100878.4
100884.73
100890.84
100896.73
100902.4
100907.92
100913.31
100918.58
100923.8
100928.99
100806.35
100806.74
100812.68
100820.27
100827.79
100835.16
100842.53
100849.89
100857.19
100864.39
100871.44
100878.32
100884.99
100891.44
100897.64
100903.63
100909.38
100914.94
100920.35
100925.65
100930.85
100935.97
100812.59
100812.84
100818.64
100826.14
100833.58
100840.89
100848.22
100855.57
100862.88
100870.11
100877.22
100884.19
100890.96
100897.52
100903.85
100909.95
100915.81
100921.45
100926.9
100932.22
100937.42
100942.54
100818.31
100818.45
100824.16
100831.56
100838.88
100846.11
100853.4
100860.71
100868.01
100875.25
100882.4
100889.44
100896.31
100902.99
100909.45
100915.67
100921.66
100927.41
100932.95
100938.31
100943.54
100948.64
100823.67
100823.72
100829.28
100836.49
100843.71
100850.85
100858.05
100865.3
100872.57
100879.82
100887
100894.09
100901.05
100907.84
100914.43
100920.79
100926.91
100932.8
100938.46
100943.89
100949.16
100954.3
100828.62
100828.53
100833.94
100841.03
100848.12
100855.15
100862.24
100869.42
100876.65
100883.87
100891.06
100898.18
100905.21
100912.09
100918.79
100925.3
100931.57
100937.6
100943.39
100948.95
100954.29
100959.48
100833.25
100833.03
100838.32
100845.2
100852.08
100858.98
100865.96
100873.09
100880.26
100887.44
100894.6
100901.73
100908.79
100915.75
100922.56
100929.19
100935.61
100941.8
100947.76
100953.47
100958.94
100964.21
100837.56
100837.17
100842.3
100849.03
100855.76
100862.51
100869.37
100876.34
100883.4
100890.52
100897.65
100904.78
100911.85
100918.86
100925.75
100932.5
100939.06
100945.41
100951.52
100957.41
100963.05
100968.45
100841.59
100841.06
100846.01
100852.57
100859.08
100865.63
100872.35
100879.19
100886.17
100893.23
100900.29
100907.37
100914.44
100921.46
100928.41
100935.24
100941.93
100948.43
100954.71
100960.77
100966.59
100972.16
100845.39
100844.69
100849.46
100855.83
100862.2
100868.53
100875.03
100881.75
100888.59
100895.52
100902.51
100909.54
100916.57
100923.59
100930.56
100937.46
100944.24
100950.86
100957.31
100963.53
100969.55
100975.33
100848.98
100848.11
100852.66
100858.83
100865.01
100871.16
100877.49
100884.03
100890.69
100897.48
100904.38
100911.33
100918.32
100925.31
100932.28
100939.2
100946.05
100952.78
100959.36
100965.76
100971.95
100977.92
100852.38
100851.34
100855.68
100861.62
100867.6
100873.58
100879.67
100885.99
100892.51
100899.19
100906
100912.84
100919.73
100926.67
100933.61
100940.53
100947.4
100954.2
100960.89
100967.42
100973.78
100979.96
100855.65
100854.44
100858.56
100864.28
100870.04
100875.84
100881.78
100887.89
100894.19
100900.65
100907.25
100914
100920.82
100927.69
100934.58
100941.48
100948.36
100955.2
100961.96
100968.61
100975.12
100981.45
100858.79
100857.4
100861.29
100866.78
100872.31
100877.88
100883.63
100889.54
100895.62
100901.9
100908.4
100915.02
100921.71
100928.47
100935.29
100942.14
100948.99
100955.83
100962.63
100969.36
100975.98
100982.46
100861.86
100860.3
100863.95
100869.21
100874.52
100879.87
100885.41
100891.15
100897.04
100903.12
100909.37
100915.76
100922.33
100929
100935.73
100942.51
100949.33
100956.15
100962.95
100969.73
100976.43
100983.04
100864.87
100863.13
100866.54
100871.55
100876.63
100881.74
100887.06
100892.59
100898.29
100904.13
100910.16
100916.46
100922.89
100929.4
100936.02
100942.7
100949.44
100956.21
100962.99
100969.77
100976.52
100983.21
100867.85
100865.94
100869.11
100873.88
100878.72
100883.61
100888.7
100894.02
100899.53
100905.22
100911.03
100917.03
100923.25
100929.63
100936.12
100942.71
100949.36
100956.07
100962.81
100969.56
100976.32
100983.06
100870.82
100868.73
100871.65
100876.19
100880.79
100885.45
100890.31
100895.39
100900.69
100906.17
100911.8
100917.59
100923.63
100929.84
100936.14
100942.59
100949.15
100955.77
100962.44
100969.14
100975.87
100982.62
100873.8
100871.53
100874.21
100878.51
100882.88
100887.31
100891.94
100896.79
100901.87
100907.15
100912.6
100918.19
100923.93
100929.95
100936.14
100942.41
100948.83
100955.36
100961.94
100968.58
100975.26
100981.99
100876.82
100874.36
100876.8
100880.87
100885.01
100889.2
100893.6
100898.23
100903.07
100908.13
100913.38
100918.8
100924.36
100930.12
100936.11
100942.22
100948.45
100954.85
100961.35
100967.9
100974.51
100981.19
100879.9
100877.24
100879.44
100883.28
100887.2
100891.16
100895.33
100899.73
100904.34
100909.17
100914.2
100919.42
100924.8
100930.29
100936.08
100942.11
100948.16
100954.34
100960.7
100967.16
100973.69
100980.29
100883.06
100880.2
100882.15
100885.77
100889.47
100893.21
100897.15
100901.32
100905.71
100910.31
100915.11
100920.12
100925.32
100930.68
100936.15
100941.9
100947.88
100953.9
100960.05
100966.37
100972.81
100979.33
100886.31
100883.25
100884.96
100888.35
100891.83
100895.36
100899.07
100903.02
100907.18
100911.55
100916.13
100920.91
100925.9
100931.06
100936.35
100941.84
100947.61
100953.54
100959.52
100965.63
100971.91
100978.34
100889.68
100886.42
100887.87
100891.04
100894.32
100897.62
100901.12
100904.85
100908.78
100912.93
100917.29
100921.85
100926.62
100931.59
100936.73
100941.99
100947.45
100953.16
100959.02
100964.97
100971.06
100977.35
100893.17
100889.69
100890.9
100893.85
100896.92
100900.02
100903.31
100906.81
100910.53
100914.46
100918.59
100922.93
100927.47
100932.21
100937.13
100942.21
100947.46
100952.95
100958.65
100964.45
100970.35
100976.44
100896.79
100893.11
100894.06
100896.8
100899.68
100902.58
100905.66
100908.95
100912.45
100916.16
100920.07
100924.18
100928.5
100933.02
100937.73
100942.63
100947.67
100952.87
100958.33
100964
100969.76
100975.67
100900.55
100896.67
100897.39
100899.92
100902.61
100905.31
100908.18
100911.26
100914.55
100918.04
100921.72
100925.62
100929.71
100934
100938.49
100943.17
100948.02
100953.05
100958.24
100963.66
100969.27
100975.03
100904.45
100900.39
100900.88
100903.22
100905.72
100908.23
100910.89
100913.77
100916.84
100920.11
100923.59
100927.26
100931.13
100935.2
100939.46
100943.93
100948.57
100953.38
100958.36
100963.52
100968.9
100974.51
100908.49
100904.27
100904.55
100906.7
100909.01
100911.33
100913.8
100916.47
100919.33
100922.39
100925.65
100929.1
100932.75
100936.59
100940.64
100944.87
100949.3
100953.9
100958.68
100963.63
100968.76
100974.14
100912.67
100908.31
100908.38
100910.35
100912.49
100914.61
100916.89
100919.36
100922.03
100924.88
100927.93
100931.16
100934.59
100938.22
100942.04
100946.05
100950.26
100954.65
100959.2
100963.93
100968.84
100973.98
100917.01
100912.51
100912.39
100914.19
100916.15
100918.1
100920.19
100922.47
100924.93
100927.58
100930.42
100933.44
100936.66
100940.06
100943.66
100947.45
100951.43
100955.6
100959.94
100964.46
100969.15
100974.05
100921.49
100916.89
100916.58
100918.21
100920
100921.78
100923.68
100925.77
100928.05
100930.5
100933.13
100935.95
100938.95
100942.14
100945.52
100949.09
100952.84
100956.79
100960.91
100965.19
100969.67
100974.38
100926.13
100921.45
100920.97
100922.43
100924.06
100925.66
100927.38
100929.29
100931.37
100933.63
100936.06
100938.67
100941.47
100944.45
100947.61
100950.96
100954.49
100958.21
100962.12
100966.19
100970.44
100974.91
100930.9
100926.17
100925.54
100926.84
100928.3
100929.73
100931.28
100933.01
100934.9
100936.97
100939.21
100941.62
100944.21
100946.98
100949.93
100953.06
100956.38
100959.88
100963.56
100967.41
100971.43
100975.69
100935.81
100931.05
100930.28
100931.42
100932.72
100933.98
100935.37
100936.92
100938.63
100940.51
100942.56
100944.78
100947.17
100949.73
100952.48
100955.4
100958.5
100961.78
100965.25
100968.88
100972.69
100976.72
100940.84
100936.06
100935.17
100936.16
100937.31
100938.42
100939.63
100941.02
100942.56
100944.26
100946.12
100948.15
100950.34
100952.71
100955.25
100957.96
100960.86
100963.92
100967.17
100970.58
100974.17
100977.99
100945.98
100941.21
100940.2
100941.06
100942.05
100943.01
100944.07
100945.29
100946.66
100948.19
100949.87
100951.72
100953.72
100955.9
100958.24
100960.75
100963.44
100966.3
100969.33
100972.53
100975.91
100979.51
100951.24
100946.47
100945.37
100946.09
100946.94
100947.75
100948.66
100949.73
100950.94
100952.3
100953.81
100955.48
100957.3
100959.29
100961.44
100963.76
100966.24
100968.9
100971.72
100974.72
100977.88
100981.28
100956.59
100951.85
100950.66
100951.25
100951.97
100952.64
100953.41
100954.32
100955.38
100956.58
100957.92
100959.42
100961.07
100962.87
100964.84
100966.97
100969.26
100971.72
100974.34
100977.13
100980.08
100983.27
100962.04
100957.33
100956.06
100956.53
100957.11
100957.65
100958.29
100959.06
100959.97
100961.01
100962.2
100963.53
100965.01
100966.64
100968.43
100970.38
100972.48
100974.75
100977.17
100979.76
100982.51
100985.5
100967.59
100962.91
100961.57
100961.91
100962.38
100962.79
100963.3
100963.93
100964.7
100965.6
100966.64
100967.81
100969.13
100970.59
100972.21
100973.98
100975.9
100977.98
100980.22
100982.61
100985.16
100987.94
100973.23
100968.59
100967.18
100967.41
100967.76
100968.05
100968.43
100968.94
100969.57
100970.33
100971.22
100972.25
100973.41
100974.71
100976.16
100977.76
100979.51
100981.41
100983.46
100985.66
100988.03
100990.62
100978.94
100974.35
100972.87
100973
100973.23
100973.42
100973.68
100974.06
100974.57
100975.19
100975.94
100976.83
100977.84
100978.99
100980.28
100981.71
100983.29
100985.02
100986.9
100988.92
100991.09
100993.49
100984.73
100980.18
100978.65
100978.67
100978.8
100978.88
100979.03
100979.29
100979.68
100980.18
100980.8
100981.54
100982.41
100983.42
100984.55
100985.83
100987.25
100988.81
100990.52
100992.36
100994.36
100996.58
100990.58
100986.08
100984.51
100984.43
100984.46
100984.43
100984.48
100984.63
100984.9
100985.28
100985.78
100986.39
100987.12
100987.99
100988.98
100990.1
100991.37
100992.77
100994.31
100995.99
100997.81
100999.85
100996.5
100992.04
100990.42
100990.26
100990.19
100990.07
100990.01
100990.07
100990.22
100990.49
100990.86
100991.35
100991.96
100992.69
100993.54
100994.52
100995.63
100996.88
100998.27
100999.78
101001.44
101003.31
101002.47
100998.05
100996.4
100996.15
100995.99
100995.78
100995.63
100995.58
100995.64
100995.79
100996.06
100996.43
100996.91
100997.51
100998.23
100999.07
101000.04
101001.15
101002.38
101003.74
101005.23
101006.94
101008.48
101004.11
101002.42
101002.09
101001.85
101001.55
101001.32
101001.18
101001.13
101001.19
101001.34
101001.6
101001.97
101002.45
101003.04
101003.75
101004.59
101005.55
101006.64
101007.84
101009.18
101010.73
101014.54
101010.21
101008.48
101008.08
101007.76
101007.39
101007.07
101006.84
101006.71
101006.66
101006.72
101006.87
101007.12
101007.49
101007.96
101008.55
101009.25
101010.08
101011.03
101012.09
101013.29
101014.68
101020.64
101016.35
101014.58
101014.11
101013.72
101013.27
101012.87
101012.56
101012.34
101012.21
101012.17
101012.22
101012.37
101012.62
101012.98
101013.45
101014.03
101014.73
101015.55
101016.47
101017.52
101018.77
101026.76
101022.51
101020.71
101020.18
101019.72
101019.2
101018.73
101018.34
101018.04
101017.82
101017.69
101017.65
101017.7
101017.85
101018.1
101018.45
101018.92
101019.49
101020.18
101020.98
101021.89
101023
101032.91
101028.69
101026.87
101026.27
101025.75
101025.17
101024.63
101024.17
101023.79
101023.49
101023.27
101023.14
101023.1
101023.15
101023.3
101023.55
101023.9
101024.36
101024.93
101025.6
101026.38
101027.35
101039.08
101034.89
101033.04
101032.39
101031.81
101031.16
101030.56
101030.04
101029.58
101029.21
101028.91
101028.69
101028.56
101028.52
101028.57
101028.72
101028.96
101029.31
101029.77
101030.32
101030.97
101031.81
101045.26
101041.1
101039.23
101038.52
101037.88
101037.18
101036.52
101035.93
101035.42
101034.97
101034.59
101034.3
101034.08
101033.96
101033.91
101033.96
101034.11
101034.35
101034.69
101035.13
101035.67
101036.39
101051.44
101047.32
101045.42
101044.66
101043.97
101043.22
101042.51
101041.86
101041.28
101040.76
101040.32
101039.95
101039.65
101039.44
101039.31
101039.27
101039.32
101039.46
101039.7
101040.03
101040.46
101041.05
101057.62
101053.53
101051.61
101050.81
101050.07
101049.27
101048.5
101047.8
101047.16
101046.58
101046.07
101045.63
101045.26
101044.97
101044.76
101044.63
101044.59
101044.64
101044.78
101045
101045.32
101045.81
101063.79
101059.73
101057.79
101056.95
101056.16
101055.32
101054.51
101053.75
101053.05
101052.42
101051.85
101051.34
101050.9
101050.54
101050.25
101050.04
101049.91
101049.87
101049.92
101050.04
101050.26
101050.64
101069.95
101065.91
101063.96
101063.07
101062.25
101061.37
101060.51
101059.7
101058.96
101058.27
101057.64
101057.07
101056.57
101056.13
101055.77
101055.49
101055.28
101055.15
101055.11
101055.14
101055.26
101055.53
101076.08
101072.07
101070.1
101069.18
101068.32
101067.4
101066.5
101065.65
101064.86
101064.12
101063.43
101062.81
101062.25
101061.75
101061.32
101060.96
101060.68
101060.47
101060.34
101060.29
101060.31
101060.49
101082.19
101078.21
101076.22
101075.27
101074.38
101073.42
101072.48
101071.59
101070.75
101069.97
101069.23
101068.55
101067.93
101067.37
101066.88
101066.45
101066.1
101065.82
101065.61
101065.47
101065.41
101065.49
101088.26
101084.3
101082.31
101081.33
101080.4
101079.41
101078.44
101077.51
101076.63
101075.8
101075.02
101074.29
101073.62
101073
101072.45
101071.96
101071.53
101071.18
101070.9
101070.68
101070.54
101070.53
101094.28
101090.36
101088.35
101087.34
101086.39
101085.37
101084.37
101083.41
101082.49
101081.62
101080.79
101080.02
101079.29
101078.63
101078.02
101077.47
101076.98
101076.56
101076.21
101075.92
101075.69
101075.61
101100.26
101096.37
101094.35
101093.32
101092.34
101091.3
101090.26
101089.27
101088.32
101087.41
101086.54
101085.73
101084.96
101084.24
101083.58
101082.97
101082.42
101081.94
101081.52
101081.16
101080.86
101080.7
101106.18
101102.32
101100.3
101099.25
101098.24
101097.17
101096.11
101095.09
101094.11
101093.17
101092.27
101091.41
101090.6
101089.83
101089.12
101088.46
101087.86
101087.32
101086.84
101086.41
101086.05
101085.81
101112.05
101108.22
101106.2
101105.12
101104.1
101103
101101.92
101100.87
101099.86
101098.89
101097.95
101097.06
101096.2
101095.4
101094.64
101093.94
101093.28
101092.69
101092.15
101091.66
101091.23
101090.92
101117.84
101114.05
101112.02
101110.93
101109.89
101108.78
101107.67
101106.6
101105.56
101104.56
101103.59
101102.67
101101.78
101100.93
101100.13
101099.38
101098.68
101098.04
101097.44
101096.9
101096.4
101096.03
101123.57
101119.81
101117.78
101116.67
101115.61
101114.49
101113.36
101112.27
101111.21
101110.18
101109.19
101108.23
101107.31
101106.43
101105.59
101104.8
101104.05
101103.36
101102.71
101102.11
101101.56
101101.13
101129.22
101125.5
101123.47
101122.35
101121.27
101120.13
101118.99
101117.88
101116.8
101115.75
101114.73
101113.74
101112.79
101111.87
101111
101110.17
101109.39
101108.65
101107.96
101107.31
101106.7
101106.22
101134.79
101131.1
101129.08
101127.94
101126.86
101125.7
101124.55
101123.42
101122.32
101121.25
101120.21
101119.19
101118.21
101117.27
101116.37
101115.5
101114.68
101113.9
101113.17
101112.47
101111.82
101111.27
101140.28
101136.63
101134.61
101133.46
101132.36
101131.2
101130.03
101128.89
101127.77
101126.68
101125.62
101124.59
101123.58
101122.61
101121.68
101120.78
101119.92
101119.11
101118.33
101117.59
101116.89
101116.3
101145.67
101142.07
101140.05
101138.9
101137.79
101136.62
101135.44
101134.28
101133.15
101132.05
101130.97
101129.91
101128.89
101127.89
101126.93
101126
101125.11
101124.26
101123.45
101122.67
101121.93
101121.29
101150.98
101147.41
101145.41
101144.25
101143.13
101141.95
101140.76
101139.6
101138.46
101137.34
101136.24
101135.17
101134.12
101133.1
101132.12
101131.16
101130.25
101129.36
101128.52
101127.7
101126.92
101126.24
101156.2
101152.67
101150.67
101149.5
101148.38
101147.2
101146
101144.83
101143.68
101142.55
101141.43
101140.35
101139.28
101138.25
101137.24
101136.26
101135.32
101134.41
101133.53
101132.68
101131.86
101131.15
101161.31
101157.83
101155.84
101154.67
101153.55
101152.35
101151.16
101149.98
101148.82
101147.67
101146.55
101145.45
101144.37
101143.31
101142.29
101141.29
101140.32
101139.39
101138.48
101137.6
101136.75
101136
101166.33
101162.89
101160.91
101159.74
101158.61
101157.42
101156.22
101155.03
101153.86
101152.71
101151.58
101150.47
101149.38
101148.31
101147.26
101146.24
101145.25
101144.3
101143.37
101142.46
101141.58
101140.79
101171.25
101167.85
101165.89
101164.72
101163.59
101162.39
101161.19
101160
101158.82
101157.67
101156.53
101155.4
101154.3
101153.22
101152.16
101151.12
101150.11
101149.13
101148.18
101147.25
101146.34
101145.52
101176.06
101172.71
101170.76
101169.59
101168.46
101167.27
101166.06
101164.87
101163.69
101162.53
101161.38
101160.25
101159.14
101158.04
101156.97
101155.92
101154.9
101153.9
101152.93
101151.97
101151.04
101150.19
101180.77
101177.47
101175.54
101174.36
101173.24
101172.04
101170.84
101169.64
101168.46
101167.3
101166.15
101165.01
101163.89
101162.78
101161.7
101160.64
101159.6
101158.59
101157.59
101156.62
101155.67
101154.8
101185.37
101182.12
101180.2
101179.03
101177.91
101176.72
101175.51
101174.32
101173.14
101171.97
101170.82
101169.67
101168.55
101167.44
101166.34
101165.27
101164.22
101163.19
101162.18
101161.19
101160.22
101159.33
101189.87
101186.66
101184.76
101183.6
101182.47
101181.28
101180.08
101178.89
101177.72
101176.55
101175.39
101174.24
101173.11
101172
101170.9
101169.82
101168.75
101167.71
101166.69
101165.68
101164.69
101163.78
101194.25
101191.1
101189.22
101188.05
101186.93
101185.75
101184.55
101183.37
101182.19
101181.02
101179.86
101178.72
101177.58
101176.46
101175.36
101174.27
101173.2
101172.15
101171.12
101170.1
101169.09
101168.16
101198.52
101195.42
101193.56
101192.4
101191.29
101190.11
101188.92
101187.74
101186.56
101185.4
101184.24
101183.1
101181.96
101180.84
101179.73
101178.64
101177.56
101176.5
101175.46
101174.42
101173.41
101172.46
101202.68
101199.64
101197.8
101196.65
101195.54
101194.37
101193.18
101192
101190.83
101189.67
101188.52
101187.37
101186.24
101185.11
101184
101182.91
101181.82
101180.76
101179.71
101178.67
101177.64
101176.68
101206.73
101203.74
101201.92
101200.78
101199.68
101198.51
101197.34
101196.16
101195
101193.84
101192.69
101191.55
101190.42
101189.29
101188.18
101187.08
101186
101184.93
101183.87
101182.82
101181.79
101180.82
101210.67
101207.73
101205.94
101204.8
101203.71
101202.55
101201.38
101200.22
101199.06
101197.91
101196.77
101195.63
101194.5
101193.37
101192.26
101191.16
101190.08
101189
101187.94
101186.89
101185.85
101184.87
101214.49
101211.61
101209.84
101208.71
101207.63
101206.48
101205.32
101204.17
101203.02
101201.87
101200.73
101199.6
101198.47
101197.36
101196.25
101195.15
101194.06
101192.99
101191.92
101190.87
101189.82
101188.83
101218.2
101215.38
101213.63
101212.51
101211.44
101210.31
101209.15
101208.01
101206.87
101205.73
101204.6
101203.47
101202.35
101201.24
101200.13
101199.03
101197.95
101196.87
101195.81
101194.75
101193.7
101192.71
101221.8
101219.03
101217.31
101216.21
101215.14
101214.02
101212.88
101211.74
101210.61
101209.48
101208.36
101207.24
101206.12
101205.02
101203.92
101202.82
101201.74
101200.67
101199.6
101198.54
101197.49
101196.5
101225.28
101222.57
101220.88
101219.78
101218.73
101217.62
101216.49
101215.37
101214.25
101213.13
101212.01
101210.9
101209.8
101208.69
101207.6
101206.51
101205.43
101204.36
101203.3
101202.24
101201.19
101200.2
101228.65
101226
101224.34
101223.25
101222.21
101221.11
101220
101218.89
101217.78
101216.67
101215.56
101214.46
101213.36
101212.27
101211.18
101210.1
101209.03
101207.96
101206.91
101205.85
101204.8
101203.81
101231.9
101229.31
101227.68
101226.61
101225.58
101224.5
101223.4
101222.3
101221.2
101220.1
101219.01
101217.92
101216.83
101215.75
101214.67
101213.59
101212.53
101211.47
101210.41
101209.36
101208.32
101207.32
101235.05
101232.52
101230.91
101229.86
101228.84
101227.77
101226.69
101225.6
101224.52
101223.44
101222.35
101221.27
101220.2
101219.12
101218.05
101216.99
101215.93
101214.88
101213.83
101212.78
101211.74
101210.75
101238.08
101235.61
101234.04
101233
101232
101230.94
101229.87
101228.8
101227.73
101226.66
101225.59
101224.53
101223.46
101222.4
101221.34
101220.28
101219.23
101218.19
101217.15
101216.11
101215.07
101214.09
101241.01
101238.6
101237.06
101236.03
101235.05
101234.01
101232.95
101231.9
101230.84
101229.79
101228.73
101227.68
101226.63
101225.57
101224.53
101223.48
101222.44
101221.41
101220.38
101219.34
101218.32
101217.34
101243.83
101241.48
101239.97
101238.96
101237.99
101236.97
101235.93
101234.89
101233.85
101232.81
101231.77
101230.73
101229.69
101228.65
101227.62
101226.59
101225.56
101224.53
101223.51
101222.49
101221.47
101220.5
101246.54
101244.26
101242.78
101241.79
101240.83
101239.82
101238.8
101237.78
101236.76
101235.73
101234.71
101233.68
101232.66
101231.63
101230.61
101229.59
101228.58
101227.56
101226.55
101225.54
101224.53
101223.57
101249.15
101246.93
101245.48
101244.51
101243.57
101242.58
101241.58
101240.57
101239.56
101238.56
101237.55
101236.54
101235.53
101234.52
101233.51
101232.51
101231.5
101230.5
101229.5
101228.5
101227.5
101226.55
101251.66
101249.5
101248.09
101247.13
101246.2
101245.24
101244.25
101243.26
101242.27
101241.28
101240.29
101239.3
101238.31
101237.31
101236.32
101235.33
101234.34
101233.35
101232.36
101231.38
101230.39
101229.45
101254.07
101251.97
101250.59
101249.65
101248.74
101247.79
101246.83
101245.86
101244.89
101243.92
101242.94
101241.96
101240.99
101240.01
101239.03
101238.06
101237.08