/*--------------------------------*- C++ -*----------------------------------*\
| =========                 |                                                 |
| \\      /  F ield         | OpenFOAM: The Open Source CFD Toolbox           |
|  \\    /   O peration     | Version:  2406                                  |
|   \\  /    A nd           | Website:  www.openfoam.com                      |
|    \\/     M anipulation  |                                                 |
\*---------------------------------------------------------------------------*/
FoamFile
{
    version     2.0;
    format      ascii;
    arch        "LSB;label=32;scalar=64";
    class       volScalarField;
    location    "0.01";
    object      T;
}
// * * * * * * * * * * * * * * * * * * * * * * * * * * * * * * * * * * * * * //

dimensions      [0 0 0 1 0 0 0];

internalField   nonuniform List<scalar> 
23203
(
293.89848
293.86615
293.83085
293.79344
293.75492
293.71629
293.67846
293.64211
293.60769
293.57543
293.5454
293.51754
293.49174
293.46784
293.44566
293.42504
293.40581
293.38784
293.37099
293.35514
293.3402
293.32608
293.3127
293.89735
293.86553
293.83084
293.7941
293.75627
293.71832
293.68111
293.64531
293.61133
293.57944
293.54969
293.52204
293.4964
293.4726
293.45049
293.42991
293.41071
293.39274
293.37587
293.36001
293.34504
293.33088
293.31747
293.89596
293.86467
293.8306
293.79455
293.75743
293.72018
293.68362
293.64837
293.61487
293.58335
293.5539
293.52648
293.501
293.47732
293.45529
293.43475
293.41557
293.39761
293.38074
293.36485
293.34985
293.33566
293.32221
293.8943
293.86355
293.83012
293.79478
293.7584
293.72187
293.68597
293.6513
293.61829
293.58717
293.55803
293.53085
293.50554
293.48199
293.46004
293.43956
293.42041
293.40245
293.38557
293.36967
293.35464
293.34042
293.32693
293.89234
293.86216
293.8294
293.7948
293.75918
293.72339
293.68817
293.65411
293.62161
293.59091
293.56209
293.53516
293.51004
293.48662
293.46476
293.44433
293.42521
293.40726
293.39038
293.37445
293.3594
293.34515
293.89009
293.8605
293.82844
293.7946
293.75977
293.72475
293.69023
293.65679
293.62482
293.59455
293.56607
293.5394
293.51448
293.49119
293.46943
293.44907
293.42998
293.41204
293.39515
293.37922
293.36414
293.34986
293.88756
293.85859
293.82724
293.79419
293.76017
293.72593
293.69215
293.65935
293.62792
293.5981
293.56998
293.54358
293.51886
293.49573
293.47407
293.45377
293.43472
293.41679
293.3999
293.38395
293.36885
293.35454
293.88474
293.85641
293.82581
293.79357
293.76038
293.72695
293.69391
293.66178
293.63091
293.60155
293.5738
293.54769
293.52318
293.50021
293.47866
293.45843
293.43942
293.42152
293.40463
293.38866
293.37354
293.3592
293.88163
293.85398
293.82415
293.79274
293.7604
293.7278
293.69553
293.66407
293.63379
293.6049
293.57754
293.55173
293.52745
293.50463
293.4832
293.46305
293.44409
293.42621
293.40932
293.39335
293.37821
293.36384
293.87825
293.85129
293.82225
293.7917
293.76024
293.72848
293.69699
293.66623
293.63654
293.60815
293.58119
293.55569
293.53164
293.50901
293.4877
293.46763
293.44872
293.43087
293.41399
293.39801
293.38285
293.36845
293.87461
293.84836
293.82014
293.79046
293.75988
293.72899
293.6983
293.66825
293.63917
293.61129
293.58474
293.55956
293.53577
293.51332
293.49214
293.47217
293.45331
293.43549
293.41863
293.40264
293.38747
293.37304
293.87071
293.84521
293.81782
293.78902
293.75935
293.72933
293.69945
293.67013
293.64167
293.61432
293.58819
293.56335
293.53982
293.51756
293.49653
293.47666
293.45786
293.44008
293.42323
293.40725
293.39206
293.37761
293.86658
293.84183
293.81528
293.78739
293.75863
293.72949
293.70043
293.67185
293.64403
293.61721
293.59153
293.56704
293.54379
293.52174
293.50086
293.48109
293.46237
293.44463
293.42781
293.41182
293.39662
293.38215
293.86223
293.83825
293.81256
293.78557
293.75772
293.72947
293.70125
293.67341
293.64625
293.61998
293.59475
293.57063
293.54766
293.52583
293.50512
293.48547
293.46683
293.44914
293.43234
293.41637
293.40116
293.38667
293.85766
293.83447
293.80965
293.78357
293.75664
293.72928
293.70189
293.6748
293.6483
293.6226
293.59784
293.5741
293.55144
293.52985
293.50931
293.48979
293.47124
293.45361
293.43684
293.42088
293.40567
293.39117
293.85291
293.8305
293.80655
293.78138
293.75537
293.72891
293.70235
293.67603
293.6502
293.62507
293.60079
293.57745
293.5551
293.53376
293.51341
293.49404
293.47559
293.45802
293.4413
293.42536
293.41015
293.39564
293.84796
293.82636
293.80327
293.77901
293.75392
293.72835
293.70263
293.67707
293.65192
293.62738
293.6036
293.58067
293.55865
293.53757
293.51743
293.49821
293.47987
293.46238
293.4457
293.42979
293.41459
293.40008
293.84285
293.82204
293.79982
293.77646
293.75228
293.7276
293.70272
293.67793
293.65346
293.62952
293.60625
293.58374
293.56207
293.54127
293.52135
293.50229
293.48408
293.46668
293.45006
293.43418
293.419
293.40448
293.83758
293.81757
293.7962
293.77374
293.75046
293.72666
293.70261
293.67859
293.65482
293.63148
293.60873
293.58666
293.56535
293.54485
293.52515
293.50628
293.4882
293.4709
293.45435
293.43852
293.42336
293.40885
293.83216
293.81294
293.79242
293.77085
293.74846
293.72553
293.70231
293.67905
293.65597
293.63325
293.61103
293.58942
293.56849
293.54829
293.52884
293.51016
293.49224
293.47505
293.45858
293.4428
293.42768
293.41318
293.82659
293.80815
293.78848
293.76778
293.74627
293.7242
293.7018
293.67931
293.65693
293.63483
293.61315
293.592
293.57146
293.55158
293.53241
293.51394
293.49618
293.47912
293.46274
293.44702
293.43194
293.41747
293.82087
293.80321
293.78437
293.76453
293.74389
293.72267
293.70109
293.67936
293.65768
293.6362
293.61507
293.5944
293.57426
293.55473
293.53583
293.51758
293.5
293.48308
293.46681
293.45117
293.43614
293.4217
293.81501
293.79812
293.7801
293.76111
293.74132
293.72094
293.70017
293.67919
293.65821
293.63736
293.61679
293.5966
293.57689
293.55771
293.5391
293.5211
293.50372
293.48695
293.4708
293.45525
293.44028
293.42588
293.809
293.79287
293.77565
293.75749
293.73855
293.71899
293.69902
293.6788
293.65851
293.6383
293.61829
293.59861
293.57932
293.56051
293.54222
293.52447
293.5073
293.4907
293.47468
293.45923
293.44434
293.43
293.80284
293.78746
293.77104
293.75369
293.73557
293.71683
293.69765
293.67818
293.65859
293.63901
293.61958
293.6004
293.58156
293.56313
293.54516
293.52769
293.51074
293.49433
293.47846
293.46312
293.44832
293.43404
293.79652
293.78188
293.76623
293.74969
293.73238
293.71445
293.69604
293.67732
293.65842
293.63948
293.62063
293.60197
293.58359
293.56556
293.54793
293.53075
293.51404
293.49783
293.48212
293.46691
293.45221
293.438
293.79004
293.77612
293.76124
293.74548
293.72897
293.71183
293.6942
293.67621
293.658
293.63971
293.62144
293.60331
293.5854
293.56778
293.5505
293.53363
293.51718
293.50118
293.48565
293.47059
293.456
293.44188
293.78338
293.77017
293.75604
293.74105
293.72533
293.70897
293.69209
293.67484
293.65733
293.63968
293.62201
293.60441
293.58697
293.56978
293.55288
293.53632
293.52015
293.50438
293.48904
293.47414
293.45968
293.44567
293.77653
293.76402
293.75062
293.7364
293.72144
293.70584
293.68973
293.6732
293.65638
293.63938
293.6223
293.60525
293.58831
293.57155
293.55503
293.53882
293.52293
293.50741
293.49228
293.47756
293.46324
293.44934
293.76947
293.75765
293.74497
293.73149
293.71729
293.70246
293.68708
293.67128
293.65514
293.63879
293.62232
293.60583
293.58939
293.57308
293.55697
293.5411
293.52552
293.51027
293.49537
293.48083
293.46667
293.4529
293.7622
293.75106
293.73908
293.72633
293.71287
293.69878
293.68414
293.66906
293.65361
293.63792
293.62205
293.60612
293.5902
293.57435
293.55865
293.54316
293.5279
293.51293
293.49827
293.48394
293.46996
293.45634
293.7547
293.74421
293.73293
293.7209
293.70817
293.69482
293.68091
293.66653
293.65177
293.63673
293.62148
293.60612
293.59072
293.57535
293.56009
293.54498
293.53006
293.51539
293.50099
293.48688
293.47309
293.45963
293.74696
293.73711
293.72651
293.71518
293.70317
293.69054
293.67735
293.66368
293.64961
293.63522
293.62059
293.60581
293.59094
293.57607
293.56125
293.54654
293.53198
293.51763
293.5035
293.48964
293.47606
293.46277
293.73895
293.72974
293.7198
293.70916
293.69785
293.68593
293.67345
293.66048
293.6471
293.63336
293.61936
293.60517
293.59085
293.57648
293.56212
293.54783
293.53365
293.51962
293.5058
293.49219
293.47883
293.46574
293.73068
293.72209
293.71279
293.70282
293.6922
293.68098
293.66921
293.65693
293.64422
293.63115
293.61778
293.60418
293.59042
293.57657
293.56268
293.54882
293.53504
293.52137
293.50785
293.49452
293.48141
293.46853
293.72212
293.71413
293.70546
293.69615
293.68621
293.67568
293.6646
293.65301
293.64098
293.62856
293.61582
293.60282
293.58963
293.57631
293.56292
293.54951
293.53613
293.52283
293.50965
293.49662
293.48377
293.47112
293.71328
293.70587
293.69782
293.68915
293.67987
293.67001
293.65961
293.6487
293.63734
293.62558
293.61348
293.60109
293.58847
293.57569
293.56281
293.54986
293.53691
293.524
293.51117
293.49846
293.48589
293.47349
293.70414
293.6973
293.68984
293.68179
293.67316
293.66395
293.65422
293.64399
293.63329
293.62219
293.61072
293.59895
293.58692
293.57469
293.56232
293.54986
293.53736
293.52486
293.5124
293.50002
293.48775
293.47562
293.6947
293.6884
293.68152
293.67407
293.66607
293.65752
293.64844
293.63887
293.62883
293.61837
293.60754
293.59638
293.58495
293.57329
293.56145
293.54948
293.53744
293.52537
293.5133
293.50127
293.48932
293.47748
293.68497
293.67919
293.67287
293.66601
293.65861
293.65068
293.64224
293.63331
293.62393
293.61412
293.60392
293.59338
293.58254
293.57145
293.56016
293.54871
293.53714
293.52551
293.51385
293.5022
293.49059
293.47906
293.67493
293.66966
293.66387
293.65757
293.65076
293.64344
293.63563
293.62734
293.61859
293.60941
293.59985
293.58993
293.57969
293.56918
293.55843
293.54751
293.53643
293.52526
293.51403
293.50277
293.49153
293.48033
293.66462
293.65983
293.65455
293.64879
293.64254
293.63581
293.6286
293.62092
293.61279
293.60425
293.59531
293.586
293.57636
293.56643
293.55625
293.54586
293.5353
293.5246
293.51382
293.50297
293.49211
293.48125
293.65403
293.6497
293.64491
293.63966
293.63395
293.62778
293.62115
293.61407
293.60656
293.59863
293.5903
293.5816
293.57256
293.56322
293.5536
293.54375
293.53371
293.5235
293.51318
293.50277
293.4923
293.48182
293.6432
293.63929
293.63496
293.6302
293.62501
293.61937
293.61331
293.6068
293.59987
293.59254
293.58481
293.57671
293.56827
293.55951
293.55046
293.54117
293.53165
293.52195
293.5121
293.50214
293.49209
293.482
293.63215
293.62864
293.62473
293.62043
293.61572
293.6106
293.60506
293.59911
293.59276
293.586
293.57886
293.57135
293.56349
293.55531
293.54683
293.53808
293.5291
293.51991
293.51055
293.50105
293.49144
293.48176
293.6209
293.61776
293.61426
293.61039
293.60613
293.60149
293.59646
293.59104
293.58522
293.57901
293.57244
293.5655
293.55822
293.55061
293.54269
293.5345
293.52606
293.51739
293.50853
293.4995
293.49034
293.48108
293.60949
293.6067
293.60357
293.60009
293.59626
293.59207
293.58751
293.58259
293.57729
293.57162
293.56558
293.5592
293.55247
293.54542
293.53806
293.53042
293.52251
293.51436
293.506
293.49746
293.48877
293.47995
293.59796
293.59548
293.59269
293.58958
293.58615
293.58238
293.57827
293.5738
293.56899
293.56383
293.55831
293.55245
293.54626
293.53975
293.53294
293.52583
293.51846
293.51083
293.50298
293.49493
293.48671
293.47834
293.58636
293.58416
293.58168
293.57891
293.57583
293.57245
293.56875
293.56472
293.56036
293.55567
293.55065
293.5453
293.53963
293.53364
293.52735
293.52077
293.51392
293.50681
293.49946
293.49191
293.48416
293.47625
293.57473
293.57278
293.57058
293.56811
293.56537
293.56234
293.55901
293.55538
293.55145
293.5472
293.54265
293.53777
293.53258
293.5271
293.52131
293.51524
293.5089
293.50229
293.49545
293.48839
293.48112
293.47367
293.56311
293.56139
293.55944
293.55725
293.5548
293.55209
293.54911
293.54585
293.5423
293.53846
293.53433
293.52991
293.52518
293.52016
293.51486
293.50928
293.50343
293.49732
293.49096
293.48438
293.47759
293.47061
293.55156
293.55004
293.54831
293.54636
293.54417
293.54175
293.53908
293.53615
293.53296
293.5295
293.52577
293.52175
293.51746
293.51289
293.50804
293.50292
293.49754
293.49191
293.48603
293.47992
293.4736
293.46708
293.54012
293.53878
293.53724
293.5355
293.53355
293.53138
293.52899
293.52636
293.52349
293.52038
293.517
293.51337
293.50948
293.50532
293.5009
293.49622
293.49128
293.4861
293.48068
293.47503
293.46917
293.4631
293.52884
293.52765
293.52627
293.52472
293.52298
293.52104
293.51889
293.51653
293.51395
293.51114
293.5081
293.50481
293.50128
293.49751
293.49349
293.48922
293.4847
293.47995
293.47496
293.46975
293.46433
293.45869
293.51776
293.51669
293.51546
293.51407
293.5125
293.51076
293.50883
293.50671
293.50439
293.50185
293.49911
293.49614
293.49294
293.48951
293.48586
293.48197
293.47785
293.47349
293.46892
293.46412
293.45912
293.45391
293.50692
293.50595
293.50484
293.50359
293.50218
293.50061
293.49887
293.49696
293.49486
293.49257
293.49009
293.4874
293.4845
293.48139
293.47807
293.47453
293.47078
293.4668
293.4626
293.4582
293.45359
293.44879
293.49635
293.49547
293.49446
293.49332
293.49204
293.49062
293.48905
293.48731
293.48542
293.48334
293.48109
293.47866
293.47603
293.47321
293.47019
293.46696
293.46354
293.45991
293.45607
293.45203
293.4478
293.44337
293.48608
293.48527
293.48434
293.4833
293.48213
293.48083
293.4794
293.47783
293.4761
293.47422
293.47218
293.46996
293.46757
293.46501
293.46226
293.45932
293.4562
293.45289
293.44938
293.44568
293.44179
293.43772
293.47614
293.47538
293.47452
293.47355
293.47248
293.47129
293.46998
293.46854
293.46696
293.46524
293.46338
293.46136
293.45919
293.45685
293.45434
293.45166
293.44881
293.44578
293.44257
293.43919
293.43562
293.43188
293.46653
293.46582
293.46501
293.46411
293.46311
293.46201
293.4608
293.45947
293.45803
293.45645
293.45474
293.4529
293.45091
293.44877
293.44648
293.44403
293.44142
293.43865
293.43571
293.43261
293.42935
293.42591
293.45728
293.4566
293.45583
293.45498
293.45405
293.45302
293.45189
293.45067
293.44933
293.44788
293.44631
293.44461
293.44278
293.44082
293.43872
293.43648
293.43409
293.43154
293.42885
293.426
293.423
293.41985
293.44839
293.44773
293.44699
293.44619
293.4453
293.44433
293.44328
293.44213
293.44089
293.43954
293.43809
293.43652
293.43484
293.43303
293.4311
293.42904
293.42684
293.4245
293.42203
293.41941
293.41665
293.41375
293.43987
293.43922
293.43851
293.43773
293.43688
293.43597
293.43497
293.43389
293.43273
293.43147
293.43012
293.42866
293.4271
293.42543
293.42364
293.42174
293.41971
293.41756
293.41528
293.41287
293.41033
293.40765
293.4317
293.43106
293.43037
293.42961
293.4288
293.42792
293.42697
293.42595
293.42485
293.42367
293.4224
293.42104
293.41959
293.41804
293.41638
293.41462
293.41274
293.41075
293.40865
293.40642
293.40407
293.4016
293.42389
293.42325
293.42257
293.42183
293.42104
293.4202
293.41929
293.41832
293.41727
293.41615
293.41496
293.41368
293.41232
293.41087
293.40933
293.40769
293.40594
293.4041
293.40215
293.40008
293.39791
293.39562
293.41643
293.41579
293.41511
293.41439
293.41362
293.4128
293.41192
293.41099
293.40999
293.40893
293.40779
293.40659
293.40531
293.40394
293.4025
293.40096
293.39934
293.39762
293.3958
293.39389
293.39187
293.38975
293.4093
293.40866
293.40799
293.40727
293.40652
293.40571
293.40486
293.40396
293.403
293.40198
293.4009
293.39976
293.39855
293.39726
293.3959
293.39446
293.39294
293.39133
293.38964
293.38785
293.38597
293.38399
293.4025
293.40186
293.40118
293.40047
293.39972
293.39894
293.39811
293.39723
293.3963
293.39532
293.39429
293.3932
293.39205
293.39083
293.38954
293.38818
293.38675
293.38524
293.38365
293.38198
293.38023
293.37838
293.396
293.39536
293.39468
293.39397
293.39323
293.39246
293.39164
293.39079
293.38989
293.38894
293.38795
293.3869
293.3858
293.38464
293.38342
293.38213
293.38078
293.37936
293.37786
293.37629
293.37465
293.37292
293.3898
293.38915
293.38847
293.38776
293.38703
293.38626
293.38546
293.38462
293.38375
293.38283
293.38187
293.38086
293.3798
293.37869
293.37753
293.37631
293.37502
293.37368
293.37227
293.37079
293.36924
293.36762
293.38388
293.38322
293.38254
293.38183
293.3811
293.38034
293.37955
293.37873
293.37787
293.37698
293.37604
293.37507
293.37405
293.37298
293.37187
293.3707
293.36948
293.3682
293.36687
293.36547
293.36401
293.36248
293.37821
293.37755
293.37686
293.37616
293.37543
293.37467
293.37389
293.37308
293.37224
293.37137
293.37046
293.36952
293.36853
293.3675
293.36643
293.36532
293.36415
293.36293
293.36166
293.36034
293.35895
293.35751
293.3728
293.37212
293.37143
293.37073
293.37
293.36925
293.36848
293.36768
293.36685
293.366
293.36511
293.36419
293.36324
293.36225
293.36121
293.36014
293.35902
293.35786
293.35665
293.35539
293.35407
293.35271
293.3676
293.36693
293.36623
293.36553
293.3648
293.36405
293.36329
293.3625
293.36169
293.36085
293.35998
293.35909
293.35816
293.3572
293.3562
293.35517
293.35409
293.35298
293.35182
293.35062
293.34937
293.34807
293.36262
293.36194
293.36125
293.36054
293.35981
293.35907
293.35831
293.35753
293.35673
293.35591
293.35506
293.35419
293.35328
293.35235
293.35138
293.35039
293.34935
293.34828
293.34717
293.34602
293.34483
293.34359
293.35784
293.35716
293.35646
293.35575
293.35503
293.35429
293.35354
293.35277
293.35198
293.35117
293.35033
293.34948
293.3486
293.34769
293.34675
293.34579
293.34479
293.34376
293.34269
293.34159
293.34045
293.33927
293.35324
293.35255
293.35186
293.35115
293.35043
293.3497
293.34895
293.34819
293.34741
293.34661
293.34579
293.34495
293.34409
293.34321
293.3423
293.34137
293.3404
293.33941
293.33838
293.33732
293.33622
293.33509
293.34881
293.34812
293.34742
293.34672
293.346
293.34527
293.34453
293.34378
293.34301
293.34222
293.34142
293.3406
293.33976
293.3389
293.33801
293.3371
293.33617
293.33521
293.33422
293.3332
293.33215
293.33106
293.34453
293.34384
293.34314
293.34244
293.34173
293.34101
293.34027
293.33953
293.33877
293.338
293.33721
293.3364
293.33558
293.33474
293.33388
293.333
293.33209
293.33116
293.3302
293.32922
293.32821
293.32717
293.34039
293.3397
293.33901
293.33831
293.3376
293.33689
293.33616
293.33543
293.33468
293.33392
293.33314
293.33235
293.33155
293.33073
293.32989
293.32903
293.32815
293.32725
293.32633
293.32538
293.32441
293.3234
293.33638
293.3357
293.33501
293.33432
293.33361
293.33291
293.33219
293.33146
293.33072
293.32997
293.32921
293.32844
293.32765
293.32685
293.32603
293.3252
293.32435
293.32347
293.32258
293.32166
293.32072
293.31976
293.33249
293.33181
293.33113
293.33044
293.32975
293.32905
293.32834
293.32762
293.32689
293.32616
293.32541
293.32465
293.32388
293.3231
293.3223
293.32149
293.32066
293.31981
293.31895
293.31806
293.31716
293.31623
293.32871
293.32804
293.32736
293.32668
293.32599
293.3253
293.3246
293.32389
293.32318
293.32246
293.32173
293.32098
293.32023
293.31946
293.31869
293.3179
293.31709
293.31627
293.31543
293.31457
293.3137
293.31281
293.32503
293.32436
293.32369
293.32302
293.32234
293.32166
293.32097
293.32027
293.31957
293.31886
293.31814
293.31742
293.31668
293.31593
293.31518
293.31441
293.31362
293.31283
293.31201
293.31119
293.31034
293.30948
293.32143
293.32077
293.32011
293.31945
293.31878
293.31811
293.31743
293.31675
293.31606
293.31536
293.31466
293.31395
293.31323
293.3125
293.31176
293.31101
293.31025
293.30948
293.30869
293.30789
293.30707
293.30624
293.31792
293.31727
293.31662
293.31596
293.3153
293.31464
293.31398
293.31331
293.31263
293.31195
293.31126
293.31057
293.30986
293.30915
293.30844
293.30771
293.30697
293.30622
293.30545
293.30468
293.30389
293.30309
293.31447
293.31383
293.31319
293.31255
293.3119
293.31125
293.3106
293.30994
293.30928
293.30862
293.30794
293.30726
293.30658
293.30589
293.30519
293.30448
293.30376
293.30303
293.30229
293.30155
293.30078
293.30001
293.31109
293.31046
293.30983
293.3092
293.30857
293.30793
293.30729
293.30665
293.306
293.30535
293.3047
293.30403
293.30337
293.30269
293.30201
293.30132
293.30063
293.29992
293.29921
293.29848
293.29774
293.297
293.30777
293.30715
293.30653
293.30591
293.30529
293.30467
293.30405
293.30342
293.30279
293.30215
293.30151
293.30086
293.30021
293.29956
293.2989
293.29823
293.29755
293.29687
293.29618
293.29548
293.29477
293.29405
293.30449
293.30388
293.30328
293.30268
293.30207
293.30146
293.30085
293.30024
293.29962
293.299
293.29838
293.29775
293.29712
293.29648
293.29584
293.29519
293.29454
293.29388
293.29321
293.29253
293.29185
293.29115
293.30125
293.30066
293.30007
293.29948
293.29889
293.2983
293.2977
293.2971
293.2965
293.2959
293.29529
293.29469
293.29407
293.29345
293.29283
293.2922
293.29157
293.29093
293.29028
293.28963
293.28897
293.2883
293.29805
293.29747
293.2969
293.29632
293.29575
293.29517
293.29459
293.29401
293.29343
293.29284
293.29225
293.29166
293.29106
293.29047
293.28986
293.28926
293.28864
293.28803
293.2874
293.28677
293.28614
293.28549
293.29487
293.29431
293.29375
293.29319
293.29263
293.29207
293.29151
293.29095
293.29038
293.28981
293.28924
293.28867
293.28809
293.28751
293.28693
293.28634
293.28575
293.28516
293.28456
293.28395
293.28334
293.28272
293.29171
293.29117
293.29063
293.29009
293.28954
293.289
293.28845
293.28791
293.28736
293.28681
293.28626
293.2857
293.28515
293.28459
293.28403
293.28346
293.28289
293.28232
293.28174
293.28115
293.28056
293.27997
293.28857
293.28805
293.28752
293.287
293.28647
293.28594
293.28542
293.28489
293.28436
293.28383
293.28329
293.28276
293.28222
293.28168
293.28114
293.2806
293.28005
293.2795
293.27894
293.27838
293.27782
293.27725
293.28544
293.28493
293.28442
293.28392
293.28341
293.2829
293.28239
293.28188
293.28137
293.28086
293.28035
293.27983
293.27931
293.2788
293.27828
293.27775
293.27723
293.2767
293.27616
293.27562
293.27508
293.27454
293.28231
293.28182
293.28133
293.28084
293.28035
293.27986
293.27937
293.27888
293.27839
293.2779
293.27741
293.27691
293.27642
293.27592
293.27542
293.27492
293.27441
293.2739
293.27339
293.27288
293.27236
293.27184
293.27917
293.2787
293.27823
293.27776
293.2773
293.27683
293.27636
293.27588
293.27541
293.27494
293.27447
293.274
293.27352
293.27304
293.27257
293.27209
293.2716
293.27112
293.27063
293.27014
293.26965
293.26915
293.27603
293.27558
293.27513
293.27468
293.27423
293.27378
293.27333
293.27288
293.27243
293.27198
293.27153
293.27108
293.27062
293.27017
293.26971
293.26926
293.2688
293.26833
293.26787
293.2674
293.26693
293.26646
293.27288
293.27245
293.27202
293.27159
293.27116
293.27073
293.2703
293.26987
293.26945
293.26902
293.26859
293.26815
293.26772
293.26729
293.26686
293.26642
293.26598
293.26554
293.2651
293.26466
293.26421
293.26377
293.26971
293.2693
293.26889
293.26848
293.26808
293.26767
293.26726
293.26685
293.26644
293.26604
293.26563
293.26522
293.26481
293.2644
293.26399
293.26358
293.26316
293.26275
293.26233
293.26191
293.26149
293.26106
293.26652
293.26613
293.26574
293.26536
293.26497
293.26458
293.2642
293.26381
293.26343
293.26304
293.26266
293.26227
293.26188
293.2615
293.26111
293.26072
293.26033
293.25994
293.25954
293.25915
293.25875
293.25835
293.2633
293.26293
293.26257
293.2622
293.26184
293.26148
293.26111
293.26075
293.26039
293.26003
293.25966
293.2593
293.25894
293.25857
293.25821
293.25784
293.25748
293.25711
293.25674
293.25637
293.25599
293.25562
293.26005
293.25971
293.25937
293.25903
293.25869
293.25835
293.25801
293.25767
293.25733
293.25699
293.25665
293.25631
293.25597
293.25563
293.25529
293.25494
293.2546
293.25426
293.25391
293.25357
293.25322
293.25287
293.25677
293.25645
293.25613
293.25582
293.2555
293.25518
293.25487
293.25455
293.25423
293.25392
293.2536
293.25329
293.25297
293.25265
293.25234
293.25202
293.2517
293.25138
293.25106
293.25074
293.25042
293.25009
293.25345
293.25316
293.25286
293.25257
293.25228
293.25198
293.25169
293.2514
293.25111
293.25082
293.25053
293.25023
293.24994
293.24965
293.24936
293.24907
293.24877
293.24848
293.24818
293.24789
293.24759
293.24729
293.2501
293.24983
293.24956
293.24929
293.24902
293.24875
293.24848
293.24822
293.24795
293.24768
293.24742
293.24715
293.24688
293.24662
293.24635
293.24608
293.24581
293.24554
293.24527
293.245
293.24473
293.24446
293.24669
293.24645
293.2462
293.24596
293.24572
293.24547
293.24523
293.24499
293.24475
293.24451
293.24427
293.24403
293.24378
293.24354
293.2433
293.24306
293.24282
293.24257
293.24233
293.24208
293.24184
293.24159
293.24325
293.24303
293.24281
293.24259
293.24237
293.24216
293.24194
293.24172
293.24151
293.24129
293.24108
293.24086
293.24064
293.24043
293.24021
293.24
293.23978
293.23956
293.23934
293.23912
293.2389
293.23868
293.23975
293.23956
293.23937
293.23917
293.23898
293.23879
293.2386
293.23841
293.23822
293.23803
293.23784
293.23765
293.23746
293.23727
293.23708
293.23689
293.2367
293.23651
293.23632
293.23612
293.23593
293.23574
293.2362
293.23604
293.23587
293.23571
293.23554
293.23538
293.23521
293.23505
293.23489
293.23472
293.23456
293.2344
293.23423
293.23407
293.23391
293.23374
293.23358
293.23341
293.23325
293.23308
293.23291
293.23274
293.2326
293.23246
293.23232
293.23219
293.23205
293.23191
293.23177
293.23164
293.2315
293.23136
293.23123
293.23109
293.23096
293.23082
293.23068
293.23054
293.23041
293.23027
293.23013
293.22999
293.22985
293.22971
293.22895
293.22883
293.22872
293.22861
293.2285
293.22839
293.22828
293.22817
293.22806
293.22795
293.22784
293.22774
293.22763
293.22752
293.22741
293.2273
293.22719
293.22708
293.22696
293.22685
293.22674
293.22662
293.22523
293.22515
293.22506
293.22498
293.2249
293.22482
293.22473
293.22465
293.22457
293.22449
293.22441
293.22433
293.22424
293.22416
293.22408
293.224
293.22391
293.22383
293.22375
293.22366
293.22357
293.22348
293.22146
293.2214
293.22135
293.22129
293.22124
293.22119
293.22113
293.22108
293.22102
293.22097
293.22092
293.22086
293.22081
293.22075
293.2207
293.22064
293.22059
293.22053
293.22047
293.22042
293.22036
293.22029
293.21763
293.2176
293.21758
293.21755
293.21752
293.2175
293.21747
293.21745
293.21742
293.2174
293.21737
293.21734
293.21732
293.21729
293.21727
293.21724
293.21721
293.21718
293.21715
293.21712
293.21709
293.21705
293.21375
293.21375
293.21375
293.21375
293.21375
293.21376
293.21376
293.21376
293.21376
293.21377
293.21377
293.21377
293.21377
293.21377
293.21377
293.21377
293.21377
293.21377
293.21377
293.21377
293.21376
293.21375
293.2098
293.20983
293.20986
293.20989
293.20992
293.20996
293.20999
293.21002
293.21005
293.21008
293.21011
293.21014
293.21017
293.2102
293.21023
293.21026
293.21028
293.21031
293.21033
293.21036
293.21038
293.2104
293.20581
293.20587
293.20592
293.20598
293.20604
293.2061
293.20616
293.20622
293.20628
293.20634
293.2064
293.20646
293.20652
293.20657
293.20663
293.20668
293.20674
293.20679
293.20685
293.2069
293.20695
293.20699
293.20176
293.20184
293.20193
293.20202
293.20211
293.2022
293.20228
293.20237
293.20246
293.20255
293.20263
293.20272
293.20281
293.20289
293.20298
293.20306
293.20314
293.20322
293.2033
293.20338
293.20346
293.20353
293.19766
293.19778
293.19789
293.19801
293.19812
293.19824
293.19835
293.19847
293.19859
293.1987
293.19882
293.19893
293.19904
293.19916
293.19927
293.19938
293.19949
293.1996
293.1997
293.19981
293.19991
293.20002
293.19352
293.19366
293.1938
293.19395
293.19409
293.19423
293.19438
293.19452
293.19467
293.19481
293.19495
293.19509
293.19523
293.19537
293.19551
293.19565
293.19579
293.19592
293.19606
293.19619
293.19632
293.19645
293.18933
293.1895
293.18967
293.18985
293.19002
293.19019
293.19036
293.19053
293.1907
293.19087
293.19104
293.19121
293.19137
293.19154
293.19171
293.19187
293.19203
293.1922
293.19236
293.19252
293.19267
293.19283
293.18511
293.18531
293.18551
293.1857
293.1859
293.1861
293.1863
293.18649
293.18669
293.18689
293.18708
293.18728
293.18747
293.18766
293.18786
293.18805
293.18824
293.18842
293.18861
293.18879
293.18898
293.18916
293.18086
293.18108
293.1813
293.18153
293.18175
293.18198
293.1822
293.18242
293.18264
293.18287
293.18309
293.18331
293.18353
293.18375
293.18396
293.18418
293.18439
293.18461
293.18482
293.18503
293.18524
293.18544
293.17658
293.17683
293.17707
293.17732
293.17757
293.17782
293.17807
293.17832
293.17856
293.17881
293.17906
293.1793
293.17955
293.17979
293.18003
293.18027
293.18051
293.18075
293.18098
293.18122
293.18145
293.18168
293.17227
293.17255
293.17282
293.17309
293.17336
293.17364
293.17391
293.17418
293.17445
293.17472
293.17499
293.17526
293.17553
293.1758
293.17606
293.17633
293.17659
293.17685
293.17711
293.17737
293.17762
293.17788
293.16795
293.16825
293.16854
293.16884
293.16913
293.16943
293.16972
293.17002
293.17031
293.17061
293.1709
293.17119
293.17148
293.17177
293.17206
293.17235
293.17263
293.17292
293.1732
293.17348
293.17376
293.17403
293.16362
293.16394
293.16425
293.16457
293.16489
293.1652
293.16552
293.16584
293.16615
293.16647
293.16678
293.16709
293.16741
293.16772
293.16803
293.16834
293.16865
293.16895
293.16925
293.16956
293.16986
293.17015
293.15928
293.15961
293.15995
293.16029
293.16062
293.16096
293.1613
293.16164
293.16197
293.16231
293.16264
293.16298
293.16331
293.16364
293.16397
293.1643
293.16463
293.16496
293.16528
293.1656
293.16592
293.16624
293.15493
293.15529
293.15564
293.156
293.15635
293.15671
293.15707
293.15742
293.15778
293.15813
293.15849
293.15884
293.15919
293.15954
293.15989
293.16024
293.16059
293.16093
293.16128
293.16162
293.16196
293.1623
293.15059
293.15096
293.15133
293.15171
293.15208
293.15245
293.15283
293.1532
293.15357
293.15394
293.15432
293.15469
293.15506
293.15543
293.1558
293.15616
293.15653
293.15689
293.15725
293.15761
293.15797
293.15832
293.14625
293.14664
293.14702
293.14741
293.1478
293.14819
293.14858
293.14897
293.14936
293.14975
293.15014
293.15053
293.15091
293.1513
293.15168
293.15207
293.15245
293.15283
293.15321
293.15358
293.15396
293.15433
293.14192
293.14232
293.14272
293.14313
293.14353
293.14393
293.14434
293.14474
293.14515
293.14555
293.14595
293.14636
293.14676
293.14716
293.14756