/*--------------------------------*- C++ -*----------------------------------*\
| =========                 |                                                 |
| \\      /  F ield         | OpenFOAM: The Open Source CFD Toolbox           |
|  \\    /   O peration     | Version:  2406                                  |
|   \\  /    A nd           | Website:  www.openfoam.com                      |
|    \\/     M anipulation  |                                                 |
\*---------------------------------------------------------------------------*/
FoamFile
{
    version     2.0;
    format      ascii;
    arch        "LSB;label=32;scalar=64";
    class       volScalarField;
    location    "0.002";
    object      k;
}
// * * * * * * * * * * * * * * * * * * * * * * * * * * * * * * * * * * * * * //

dimensions      [0 2 -2 0 0 0 0];

internalField   nonuniform List<scalar> 
8951
(
0.39532755
0.49017462
0.44964598
0.42954968
0.41109877
0.39542176
244.39708
225.93069
203.07806
176.00899
145.53277
113.07658
80.559434
50.244817
24.817519
8.2051272
2.0288222
0.93669649
0.68178528
0.55662157
0.4899068
0.44953405
0.42928535
0.41137999
0.3954629
315.8641
313.89081
311.49495
308.62184
305.23115
301.2879
296.75004
291.53614
285.46777
278.2163
269.25442
257.87724
243.29971
224.82825
202.09322
175.23458
145.017
112.82021
80.524765
50.360435
24.981139
8.3059409
2.0479009
0.93822545
0.6817297
0.55629993
0.48956325
0.44938623
0.4290137
0.41165538
0.39545532
316.79409
314.84899
312.46093
309.56064
306.09728
302.02513
297.29362
291.82033
285.44044
277.85346
268.57595
256.9502
242.22969
223.74241
201.11321
174.45446
144.48788
112.54649
80.469441
50.459942
25.132777
8.4012905
2.0664437
0.93965939
0.6816804
0.55594033
0.48936902
0.44922977
0.42869984
0.4118948
0.39540339
317.64308
315.71973
313.33913
310.41966
306.89732
302.71367
297.80831
292.09592
285.42321
277.51521
267.92982
256.05586
241.18638
222.6731
200.13819
173.66886
143.94565
112.25556
80.396336
50.543164
25.271772
8.4903524
2.0845154
0.94098672
0.68148249
0.55568415
0.4893337
0.449098
0.42826961
0.41203937
0.39531665
318.40665
316.50456
314.13279
311.19992
307.62949
303.34984
298.28947
292.35851
285.41169
277.19797
267.31349
255.19259
240.16914
221.6202
199.16832
172.87805
143.39052
111.94754
80.305432
50.609845
25.397037
8.5729475
2.1020998
0.94217067
0.6812046
0.55554541
0.48935514
0.4489988
0.42786638
0.41218862
0.39520369
319.07661
317.1965
314.83613
311.89565
308.28727
303.92637
298.7296
292.60077
285.39984
276.89713
266.72372
254.35849
239.17702
220.58347
198.20372
172.08227
142.82274
111.62259
80.196693
50.659713
25.508937
8.6488974
2.1191527
0.9431759
0.68088778
0.55543987
0.48941826
0.44893808
0.42745936
0.41248346
0.39507067
319.64426
317.78741
315.44148
312.49925
308.86259
304.43456
299.11971
292.8143
285.38056
276.60711
266.15652
253.55111
238.20872
219.56245
197.24441
171.28176
142.24254
111.28086
80.070139
50.692453
25.607503
8.7182074
2.13563
0.94399637
0.680468
0.55535024
0.48951645
0.44884899
0.42701129
0.41298959
0.39492346
320.10029
318.26865
315.94063
313.00261
309.34714
304.86575
299.45105
292.99073
285.34772
276.32158
265.60716
252.76734
237.26253
218.55646
196.29034
170.47671
141.65022
110.92258
79.925871
50.707721
25.692498
8.7811565
2.151505
0.9446572
0.67996787
0.55527418
0.48956848
0.44868516
0.42652409
0.41375524
0.39476638
320.43616
318.63186
316.32523
313.39725
309.73209
305.21056
299.71362
293.11961
285.29003
276.03234
265.06965
252.00332
236.33627
217.56456
195.34128
169.6673
141.04604
110.54799
79.764086
50.706532
25.763773
8.837663
2.1667706
0.9451984
0.67938352
0.55518488
0.48957097
0.44849504
0.42598285
0.41469623
0.39460379
320.64402
318.86897
316.58666
313.6741
310.00785
305.45866
299.896
293.18828
285.19512
275.73056
264.53722
251.25453
235.42734
216.58552
194.3969
168.85363
140.43028
110.15737
79.58504
50.692931
25.821546
8.8873281
2.1814281
0.94565229
0.67871096
0.5551071
0.48952862
0.44822017
0.42534533
0.41600954
0.39444035
320.71581
318.96903
316.71392
313.82232
310.16409
305.59996
299.98821
293.18634
285.05786
275.40816
264.003
250.51598
234.53266
215.6178
193.45666
168.03572
139.80317
109.75101
79.388898
50.660848
25.865987
8.9300878
2.1954767
0.94603824
0.67794605
0.55499571
0.48931571
0.44781469
0.4245601
0.41788403
0.39428062
320.66595
318.94245
316.70932
313.83802
310.19268
305.6255
299.98598
293.12743
284.87251
275.05678
263.45981
249.78227
233.64875
214.65956
192.51984
167.21349
139.16495
109.32919
79.175894
50.611762
25.897243
8.965927
2.2089097
0.94636851
0.67709092
0.55473967
0.48901629
0.44725367
0.42376749
0.42002631
0.39412847
320.48259
318.79779
316.60007
313.75726
310.13016
305.5674
299.90863
292.98392
284.62695
274.66972
262.90043
249.0477
232.77169
213.70857
191.5855
166.38677
138.51578
108.89219
78.946317
50.547004
25.915394
8.9948825
2.2217145
0.94665741
0.6761511
0.55438482
0.48859419
0.44654843
0.42331484
0.42130351
0.39398766
320.12391
318.47891
316.32494
313.52458
309.9311
305.38354
299.71125
292.74264
284.30999
274.23605
262.31629
248.3056
231.89694
212.76223
190.65245
165.55524
137.85579
108.4403
78.700446
50.46679
25.919936
9.0173936
2.2338771
0.94691561
0.67513104
0.55404481
0.48802776
0.44580391
0.42311769
0.42203412
0.39386235
319.59945
317.99188
315.87699
313.11659
309.56026
305.04069
299.37962
292.39582
283.91035
273.74291
261.69816
247.54861
231.01948
211.81754
189.71922
164.71843
137.18505
107.9738
78.438586
50.371447
25.915421
9.0340626
2.2453936
0.94714834
0.67403247
0.55357559
0.48744462
0.44502115
0.4229877
0.42265908
0.39375735
318.9066
317.33835
315.26587
312.55
309.03726
304.55526
298.9184
291.93599
283.41938
273.18304
261.037
246.76937
230.13392
210.87113
188.78411
163.87573
136.50356
107.49296
78.161077
50.261313
25.900452
9.0450101
2.2562763
0.94715324
0.67286533
0.55291893
0.48681899
0.4443056
0.42292259
0.4232136
0.39367478
318.04159
316.51428
314.48692
311.81975
308.35674
303.92109
298.32061
291.35586
282.82886
272.54787
260.32405
245.96056
229.23468
209.91932
187.84509
163.02636
135.81123
106.99804
77.868278
50.13672
25.871548
9.0512621
2.2665485
0.94703122
0.67163369
0.55224116
0.48611609
0.44370573
0.42291446
0.42368162
0.39361849
317.00125
315.51619
313.53622
310.9214
307.51366
303.13252
297.57995
290.64852
282.13124
271.82924
259.55381
245.11523
228.31599
208.95807
186.8999
162.16934
135.1079
106.48926
77.56057
49.998084
25.831508
9.0522519
2.27623
0.94678938
0.67033752
0.55130632
0.48528768
0.44320354
0.42295588
0.42404494
0.39359176
315.7834
314.34158
312.41083
309.85144
306.50387
302.18458
296.6905
289.80696
281.31833
271.01817
258.71556
244.22507
227.37132
207.98293
185.94596
161.3035
134.39331
105.96683
77.238351
49.845889
25.780932
9.0506858
2.2853446
0.94640064
0.66899819
0.55022939
0.48448929
0.44279986
0.42303603
0.42435209
0.39359715
314.38702
312.98905
311.10891
308.60748
305.32424
301.07326
295.64714
288.82469
280.3821
270.10507
257.79767
243.28149
226.39377
206.98913
184.98041
160.42751
133.66707
105.43092
76.902025
49.68068
25.720376
9.0460704
2.2939125
0.94584777
0.66760503
0.54926896
0.48368099
0.44241507
0.42313374
0.42458426
0.39363411
312.81229
311.45842
309.6298
307.18829
303.97285
299.7958
294.44616
287.697
279.3169
269.08362
256.79551
242.27703
225.37691
205.97183
184.0002
159.53982
132.92869
104.88165
76.551988
49.503036
25.650425
9.0371664
2.3019494
0.94512308
0.66615073
0.54827707
0.48292425
0.44205937
0.42324309
0.42480247
0.39370694
311.06068
309.75074
307.9741
305.59388
302.44901
298.35068
293.08509
286.42038
278.11813
267.94815
255.70244
241.20467
224.31464
204.92619
183.00209
158.6387
132.17757
104.31905
76.188616
49.313531
25.571707
9.0252408
2.3094709
0.94422404
0.66463225
0.54722814
0.48230054
0.44174826
0.42333866
0.42504499
0.39381752
309.13502
307.86841
306.14369
303.82552
300.75326
296.73756
291.56256
284.99229
276.78207
266.69394
254.51269
240.06081
223.20138
203.84742
181.9827
157.72225
131.41295
103.7431
75.812253
49.112779
25.484944
9.0106897
2.3164893
0.94315274
0.66306523
0.54614949
0.48174758
0.44142713
0.42339639
0.42533147
0.39396907
307.03951
305.81519
304.14178
301.88578
298.88739
294.95726
289.87817
283.41088
275.30516
265.3157
253.21997
238.83716
222.03059
202.73027
180.9384
156.78842
130.63394
103.15367
75.423193
48.901321
25.391453
8.9938192
2.3230122
0.94191552
0.66145209
0.54504285
0.48122045
0.44108293
0.42341555
0.42570322
0.39416227
304.77962
303.59613
301.97293
299.77857
296.8545
293.01189
288.03284
281.67557
273.68503
263.80904
251.81788
237.52437
220.79585
201.56941
179.86549
155.83498
129.83954
102.55053
75.021641
48.679553
25.291763
8.9748618
2.329039
0.94052243
0.65978937
0.54392224
0.48074452
0.44070532
0.42339614
0.42620366
0.39439501
302.36235
301.21772
299.64302
297.50913
294.65903
290.90495
286.02893
279.78742
271.92137
262.17236
250.30352
236.12081
219.49224
200.36025
178.76039
154.85965
129.02859
101.93333
74.607702
48.447788
25.186342
8.9539776
2.3345589
0.93898639
0.65809107
0.54281978
0.48029409
0.44023171
0.42333712
0.42686703
0.39465929
299.79579
298.68763
297.15924
295.08397
292.30674
288.64127
283.87016
277.7489
270.01528
260.40532
248.675
234.62348
218.1156
199.09871
177.61969
153.8601
128.19985
101.30159
74.181354
48.206264
25.075565
8.9312388
2.3395495
0.93732196
0.65639427
0.54174488
0.47979159
0.43962391
0.42324711
0.42769984
0.39493503
297.08933
296.01486
294.53007
292.51097
289.80471
286.22696
281.56153
275.56367
267.9689
258.50847
246.9315
233.02935
216.66268
197.78116
176.44015
152.834
127.35197
100.65472
73.742431
47.955078
24.959803
8.9066483
2.3439821
0.93554353
0.65472737
0.54068205
0.47924006
0.43887492
0.42313563
0.4287056
0.39520853
294.25404
293.20991
291.76543
289.79937
287.1614
283.66954
279.10935
273.23664
265.78558
256.48355
245.07415
231.33682
215.13128
196.40447
175.21874
151.77902
126.48353
99.992014
73.290621
47.69411
24.839351
8.8801904
2.3478514
0.9336631
0.65311155
0.53961403
0.47856105
0.43799187
0.42300723
0.42989637
0.39546228
291.3018
290.28438
288.87646
286.95975
284.38665
280.97792
276.52138
270.77406
263.46953
254.33209
243.09875
229.54422
213.51901
194.96553
173.95246
150.69285
125.59305
99.312653
72.825488
47.423085
24.714284
8.8518492
2.3513011
0.9316877
0.65155803
0.53855473
0.47771286
0.43699013
0.42287107
0.43126121
0.39564914
288.24582
287.25112
285.87561
284.00402
281.49171
278.1625
273.80695
268.18394
261.02719
252.05875
241.01046
227.65164
211.8245
193.46168
172.63859
149.57334
124.67907
98.615765
72.346492
47.141557
24.584448
8.8218294
2.3532695
0.92961601
0.65005425
0.53752443
0.47671857
0.43591129
0.42273991
0.43275288
0.39580752
285.10048
284.12416
282.7765
280.94527
278.48901
275.23489
270.97668
265.47566
258.46651
249.6699
238.8135
225.66066
210.04441
191.89112
171.27507
148.41861
123.7402
97.900439
71.853021
46.84891
24.449471
8.7903079
2.3531219
0.92743584
0.64860369
0.53652635
0.47555284
0.43481044
0.42263594
0.43437976
0.39592348
281.88114
280.91856
279.5938
277.7977
275.39214
272.20792
268.04239
262.65986
255.79671
247.1731
236.51333
223.57484
208.181
190.25359
169.86069
147.22718
122.77518
97.165774
71.344428
46.544467
24.308509
8.757443
2.3518802
0.92512593
0.64718558
0.53555299
0.4742972
0.43371756
0.42251359
0.43632347
0.39618774
278.60407
277.65035
276.34319
274.57653
272.21575
269.09547
265.01702
259.74829
253.02809
244.57697
234.11675
221.3993
206.23838
188.5498
168.39492
145.99795
121.78292
96.410912
70.820052
46.227583
24.160402
8.7234152
2.3495074
0.92265703
0.64575496
0.5345946
0.47302026
0.43271631
0.42215806
0.43818588
0.39638559
275.28646
274.33647
273.04132
271.29803
268.97554
265.91254
261.91462
256.75376
250.17195
241.8911
231.63153
219.14138
204.22037
186.78141
166.87786
144.73025
120.76255
95.635081
70.279243
45.897594
24.004027
8.6862005
2.3457629
0.91999333
0.64427202
0.53364231
0.47175977
0.43185077
0.42118244
0.43983756
0.39693445
271.94641
270.99486
269.70589
267.97954
265.6884
262.67534
258.75052
253.69044
247.24087
239.12594
229.06548
216.80331
202.1309
184.95079
165.31029
143.42386
119.71348
94.83762
69.721373
45.553846
23.838135
8.6445313
2.3404602
0.91709534
0.6427188
0.53268213
0.47061493
0.43119402
0.41931105
0.44134617
0.39701025
268.60282
267.64435
266.35556
264.63948
262.37235
259.40137
255.54147
250.57402
244.24915
236.29388
226.42829
214.39177
199.9741
183.061
163.69371
142.07915
118.63542
94.018018
69.145853
45.195707
23.660995
8.5968984
2.3333879
0.91392172
0.64107223
0.53168727
0.46961705
0.43079456
0.41828273
0.44265146
0.39723441
265.2755
264.30463
263.00991
261.29722
259.04647
256.10926
252.30544
247.42158
241.21265
233.40917
223.73229
211.91825
197.7554
181.11605
162.03042
140.69705
117.52848
93.175957
68.55216
44.822603
23.471877
8.5417811
2.3242894
0.91043033
0.63928157
0.53062305
0.46866913
0.43061144
0.41763208
0.44370676
0.39713757
261.98453
260.99583
259.68906
257.97278
255.73058
252.81844
249.06131
244.25117
238.14827
230.48729
220.99122
209.39459
195.48218
179.12153
160.32379
139.27925
116.39321
92.311344
67.939855
44.433929
23.269979
8.4781177
2.3128792
0.90657962
0.63728908
0.52945403
0.46775282
0.43057433
0.41696954
0.4444427
0.39727919
258.75037
257.73853
256.4136
254.68672
252.44508
249.54904
245.8287
241.08168
235.07387
227.54479
218.22032
206.83488
193.16932
177.08521
158.57852
137.82822
115.23065
91.424364
67.308616
44.029067
23.054512
8.4052737
2.2988819
0.90233015
0.63504018
0.5281348
0.46686111
0.43059254
0.41630818
0.44487455
0.39686319
255.59368
254.55352
253.20444
251.45999
249.21086
246.32176
242.62794
237.93282
232.00825
224.59922
215.43542
204.25274
190.82792
175.01557
156.80018
136.34725
114.04238
90.515518
66.658277
43.607431
22.824717
8.3229368
2.2820751
0.89764645
0.63250846
0.52661681
0.46594841
0.43065141
0.41567273
0.44501273
0.39634332
252.53496
251.46153
250.08252
248.3137
246.04912
243.15774
239.47996
234.82505
228.97111
221.66907
212.65328
201.66173
188.46847
172.92133
154.99523
134.84038
112.83056
89.585677
65.988884
43.168531
22.579914
8.2310225
2.2623152
0.89249896
0.62968774
0.52486655
0.46499205
0.43066613
0.41508022
0.44488152
0.39583704
249.59426
248.48295
247.06856
245.26883
242.98104
240.07828
236.40596
231.77928
225.98276
218.77367
209.89169
199.07767
186.10405
170.81252
153.17106
133.31247
111.59797
88.636129
65.300742
42.712039
22.319545
8.1295459
2.2395325
0.88686295
0.6265764
0.52286897
0.4639322
0.43063653
0.41455288
0.4444793
0.39539386
246.79074
245.63741
244.1826
242.34586
240.02748
237.10448
233.42719
228.81663
223.06386
215.93282
207.16908
196.51714
183.74903
168.70103
151.33631
131.76928
110.34805
87.668629
64.594464
42.237833
22.043226
8.0186093
2.2137167
0.88071769
0.6231933
0.52062926
0.46271366
0.43047136
0.41411632
0.44382596
0.39503441
244.14215
242.94322
241.44358
239.5643
237.20849
234.25687
230.56448
225.95804
220.23514
213.16661
204.50441
193.99764
181.41929
166.60371
149.50099
130.2176
109.085
86.685453
63.871005
41.746036
21.750758
7.8983715
2.1849039
0.87404342
0.61954035
0.51816384
0.46135593
0.42991071
0.41378736
0.44296753
0.39473939
241.66424
240.41685
238.86868
236.94211
234.54279
231.55488
227.83786
223.22393
217.51709
210.49519
201.91697
191.53687
179.13023
164.52965
147.67549
128.665
107.81379
85.689436
63.131705
41.23704
21.442164
7.7690104
2.1531639
0.86682
0.61560948
0.51550161
0.45986647
0.42902945
0.41357595
0.44195273
0.39447036
239.3701
238.07226
236.47278
234.49511
232.0472
229.01631
225.26604
220.63376
214.92969
207.9386
199.4263
189.15326
176.8982
162.49314
145.87123
127.12003
106.54018
84.684019
62.378324
40.711529
21.117697
7.6308098
2.1185988
0.85900052
0.61142353
0.51267897
0.45825774
0.42816713
0.41349381
0.4409041
0.39441849
237.26954
235.92022
234.26772
232.23633
229.73596
226.65669
222.8658
218.20546
212.49175
205.51624
197.05185
186.86559
174.74056
160.50948
144.10056
125.59217
105.27076
83.673289
61.613074
40.170502
20.777853
7.484134
2.081322
0.85062899
0.60701209
0.50975487
0.4565915
0.42737701
0.41354436
0.43992517
0.39437265
235.36838
233.96767
232.26164
230.17522
227.62002
224.4885
220.65122
215.95468
210.22036
203.24626
194.81238
184.69252
172.67507
158.59477
142.37693
124.09191
104.01299
82.662039
60.838669
39.615295
20.423378
7.3294387
2.0414721
0.84190553
0.60241713
0.5067406
0.45492289
0.42668295
0.4137113
0.43913274
0.39429596
233.6678
232.21697
230.45823
228.317
225.70624
222.52043
218.63294
213.89403
208.13004
201.14489
192.72534
182.65212
170.71952
156.76559
140.71465
122.63071
102.77528
81.655824
60.058378
39.047616
20.055275
7.1672283
1.9992518
0.83288725
0.59772451
0.50366587
0.45325663
0.42607092
0.41397051
0.43863363
0.39425486
232.16384
230.66537
228.85615
226.6619
223.99668
220.75658
216.8173
212.03225
206.23197
199.22562
190.8062
180.76121
168.89121
155.0387
139.12874
121.22097
101.56699
80.661034
59.276083
38.469583
19.674814
6.9980876
1.954913
0.82357303
0.59299099
0.50059559
0.45162525
0.42550558
0.41429296
0.43846007
0.39444854
230.84695
229.30458
227.44848
225.20467
222.488
219.19582
215.20563
210.3734
204.53308
197.49831
189.06756
179.0346
167.20637
153.43056
137.63461
119.87592
100.39846
79.68495
58.49636
37.883772
19.283548
6.8227814
1.9087314
0.81399645
0.58824874
0.49756063
0.4500752
0.42494984
0.41464331
0.43853945
0.39647658
229.70193
228.1205
226.22251
223.93418
221.17097
217.83115
213.79356
208.91607
203.03528
195.96834
187.51826
177.48428
165.67934
151.95675
136.24767
118.60944
99.280978
78.735807
57.724551
37.293266
18.883334
6.6423266
1.8609969
0.8041694
0.5835689
0.49459895
0.44863445
0.42437008
0.41498352
0.43878879
0.39706777
228.70791
227.09329
225.15959
222.83328
220.03026
216.64941
212.57053
207.65279
201.73463
194.63571
186.16243
176.11837
164.32172
150.63129
134.98285
117.43575
98.226674
77.822826
56.966846
36.701709
18.476331
6.4579515
1.8120217
0.79407118
0.57898142
0.49175419
0.44729719
0.42374465
0.41528121
0.4391263
0.3972258
227.83872
226.19758
224.23538
221.87892
219.0444
215.63117
211.5196
206.56965
200.62084
193.49431
184.99859
174.94022
163.14136
149.46568
133.8539
116.36902
97.248365
76.956221
56.230367
36.113386
18.065013
6.2710012
1.7621594
0.7836734
0.57440933
0.48901359
0.44604536
0.42308125
0.41551506
0.4394081
0.39739336
227.06336
225.403
223.4203
221.04254
218.1862
214.75094
210.61749
205.64619
199.67695
192.53144
184.01897
173.94748
162.14143
148.46802
132.87258
115.42278
96.35927
76.147144
55.523246
35.533304
17.652202
6.0830402
1.711778
0.77296366
0.56980265
0.48632409
0.44483652
0.42241954
0.41568019
0.43948827
0.39760333
226.34683
224.67489
222.68023
220.29075
217.42326
213.9777
209.83503
204.85567
198.8794
191.72757
183.20901
173.13135
161.31938
147.64193
132.04769
114.60921
95.572575
75.407556
54.854682
34.967319
17.241135
5.8959204
1.6612248
0.76195322
0.56517719
0.48364842
0.44356347
0.4218147
0.41578122
0.43930451
0.39781186
225.65104
223.97532
221.97749
219.58629
216.71893
213.27572
209.13783
204.16562
198.19841
191.05653
182.54722
172.47612
160.6662
146.98548
131.38395
113.93817
94.900844
74.749986
54.234968
34.422273
16.835549
5.7108315
1.6108426
0.75069968
0.56051495
0.48098584
0.44224784
0.42130966
0.41583037
0.43880295
0.39795247
224.93595
223.26414
221.27193
218.88909
216.03339
212.60566
208.48736
203.53884
197.59879
190.48606
182.00543
171.95906
160.16589
146.4904
130.88102
113.41627
94.355294
74.187154
53.675449
33.906156
16.439764
5.5286943
1.5610124
0.73930076
0.55577964
0.47836781
0.44092079
0.42092004
0.4158476
0.4379582
0.39801317
224.16077
222.50026
220.52222
218.1576
215.32496
211.92584
207.84223
202.93459
197.04103
189.97878
181.54953
171.55077
159.79539
146.14148
130.5326
113.0459
93.944933
73.731425
53.18836
33.428274
16.059132
5.3511156
1.5121155
0.72783771
0.55105867
0.4758371
0.43959377
0.42063639
0.41585626
0.4368152
0.39800846
223.28513
221.64287
219.68705
217.35005
214.5514
211.19361
207.15951
202.30996
196.48272
189.49347
181.14058
171.216
159.52491
145.91636
130.32573
112.82425
93.675604
73.394045
52.786471
32.999314
15.700526
5.1821429
1.464422
0.71637354
0.54648631
0.473414
0.43820884
0.42044986
0.41587845
0.43546332
0.39796171
222.27023
220.65252
218.72636
216.42566
213.67118
210.3667
206.39621
201.62137
195.88002
188.98656
180.73615
170.91481
159.31867
145.78547
130.24033
112.74358
93.549204
73.18413
52.482473
32.630983
15.371139
5.0251843
1.4181429
0.70497436
0.54216682
0.47112994
0.43679971
0.42034738
0.41593154
0.43395963
0.39790202
221.07974
219.49222
217.60238
215.3458
212.6447
209.40446
205.51058
200.826
195.18914
188.41369
180.29199
170.60411
159.13623
145.7117
130.2401
112.76203
93.547173
73.108254
52.288135
32.335679
15.079145
4.8822496
1.3735422
0.69368883
0.53806246
0.46902148
0.4355389
0.42031128
0.41603004
0.43237997
0.39787754
219.68075
218.12828
216.28058
214.07496
211.43536
208.26901
204.46334
199.88308
194.36782
187.73128
179.76365
170.23961
158.93523
145.65767
130.28834
112.86296
93.629842
73.133146
52.214729
32.126503
14.834011
4.7571498
1.330984
0.6824999
0.53401123
0.46707217
0.43437529
0.42031409
0.41618223
0.4308596
0.39796196
218.04434
216.531
214.73037
212.58155
210.01036
206.92617
203.21876
198.75509
193.37663
186.89791
179.10797
169.77701
158.67179
145.58404
130.3766
113.05764
93.843647
73.260757
52.235617
32.018334
14.646293
4.6519032
1.2908569
0.67130551
0.52981315
0.46519308
0.43333337
0.42034893
0.41638996
0.4294768
0.39816372
216.14609
214.67521
212.92572
210.83848
208.34137
205.3462
201.74539
197.40866
192.17999
185.8756
178.28446
169.17356
158.3014
145.44443
130.44244
113.28391
94.146719
73.53495
52.353097
32.012004
14.528875
4.5672865
1.2534788
0.65994529
0.52525362
0.46331116
0.43256657
0.4204552
0.41665538
0.4282549
0.3984436
213.96638
212.54058
210.84544
208.82355
206.40504
203.50431
200.01677
195.81532
190.74709
184.63087
177.25672
168.38989
157.78234
145.19642
130.44318
113.50242
94.495824
73.904264
52.623184
32.075833
14.494493
4.5044147
1.2191155
0.64827691
0.52021176
0.46140345
0.43212278
0.42069252
0.41698043
0.4272043
0.39876412
211.49057
210.11178
208.4734
206.5197
204.18316
201.38095
198.01172
193.95195
189.05247
183.13545
175.99325
167.39096
157.07624
144.8013
130.36407
113.67131
94.854524
74.340591
53.006024
32.269603
14.513528
4.4724988
1.188075
0.6362813
0.51473313
0.45948661
0.43194951
0.42109873
0.41736605
0.42631135
0.39908837
208.70899
207.37854
205.79861
203.91507
201.66283
198.96198
195.71458
191.80102
187.07632
181.36679
174.46812
166.14675
156.14784
144.21514
130.13159
113.73647
95.18266
74.811943
53.477692
32.609046
14.598791
4.4708754
1.1607376
0.62413893
0.50901846
0.4576492
0.43194166
0.42168252
0.41780662
0.4255395
0.39938786
205.61681
204.33549
202.81506
201.00289
198.83635
196.23856
193.11515
189.35065
184.8047
179.30833
172.66156
164.63353
154.96867
143.40368
129.70039
113.6907
95.44212
75.28238
54.013223
33.055515
14.803479
4.4850697
1.1374253
0.61222418
0.50337169
0.45605867
0.43207296
0.42250549
0.41857048
0.42481966
0.39962437
202.21384
200.98198
199.52153
197.78125
195.70102
193.20701
190.20855
186.59448
182.22933
176.94944
170.55996
162.83407
153.51738
142.34273
129.05755
113.49102
95.584915
75.713016
54.582177
33.592399
15.108478
4.5262678
1.1184394
0.60100232
0.49813245
0.45490434
0.4326631
0.42355856
0.42008768
0.42411737
0.39977042
198.50418
197.32173
195.92127
194.25284
192.25884
189.86851
186.9949
183.53131
179.34737
174.28511
168.15547
160.73683
151.77781
141.00842
128.16756
113.05454
95.580678
76.067363
55.150299
34.193908
15.49985
4.6076443
1.1040846
0.59088872
0.49362292
0.45424899
0.43430247
0.42482822
0.42129555
0.42343347
0.39981656
194.49591
193.36253
192.02168
190.42461
188.5162
186.22877
183.4791
180.16499
176.16133
171.3161
165.44657
158.33723
149.74115
139.38811
127.01288
112.3926
95.438075
76.306754
55.680916
34.829639
15.971001
4.7349213
1.0945342
0.58213326
0.49001192
0.45400764
0.436336
0.42622698
0.42229081
0.42276454
0.39975609
190.20065
189.11576
187.83386
186.30731
184.48345
182.29764
179.6704
176.50402
172.67874
168.0487
162.43797
155.63783
147.40706
137.47878
125.58163
111.4802
95.059654
76.383722
56.138289
35.467667
16.506832
4.8974967
1.0898853
0.57476301
0.48730522
0.45400933
0.4383606
0.42757006
0.42314347
0.42211898
0.39965866
185.63301
184.59588
183.37205
181.91492
180.17426
178.08842
175.5816
172.56058
168.91097
164.49319
159.13837
152.64513
144.77903
135.27796
123.86803
110.30385
94.438134
76.322102
56.491147
36.075087
17.087262
5.0926487
1.0925965
0.56863035
0.48547803
0.45425927
0.44027328
0.42867635
0.42451584
0.42149658
0.39958635
180.81006
179.81984
178.65303
177.26403
175.60498
173.61715
171.22836
168.34982
164.8725
160.6631
155.55995
149.36949
141.86485
132.78973
121.87189
108.85809
93.579415
76.0759
56.701536
36.619549
17.688434
5.3162656
1.1006756
0.56351602
0.48444565
0.45501946
0.44205708
0.42942288
0.42597692
0.42076871
0.39957585
175.75089
174.80665
173.69569
172.37339
170.79416
168.90217
166.62876
163.88949
160.58059
156.57504
151.71844
145.8253
138.677
130.02427
119.59856
107.14199
92.467224
75.567163
56.738618
37.073125
18.283705
5.5586528
1.1138945
0.55921321
0.48382759
0.45569946
0.44369289
0.42978781
0.42695313
0.41920408
0.39965075
170.47626
169.57702
168.52067
167.26353
165.76227
163.96382
161.80298
159.19954
156.05489
152.24822
147.6324
142.03015
135.23155
126.99532
117.05826
105.1607
91.101463
74.838917
56.647439
37.410455
18.839136
5.8167098
1.1316584
0.55539486
0.48305175
0.45614518
0.44513742
0.42986567
0.42737952
0.41749286
0.39982758
165.00816
164.15294
163.14993
161.95639
160.53117
158.82391
156.77276
154.3016
151.31687
147.70384
143.32258
138.00407
131.54737
123.71991
114.26524
102.92402
89.485726
73.880692
56.351578
37.599882
19.327955
6.077982
1.1528288
0.551628
0.4817331
0.45638273
0.44641036
0.42983015
0.42742477
0.41619683
0.40008418
159.36941
158.55721
157.60627
156.47477
155.12369
153.50527
151.56089
149.21844
146.38924
142.96448
138.81129
133.76885
127.64528
120.21724
111.23561
100.44522
87.627842
72.689681
55.81293
37.626047
19.728411
6.3271553
1.1756991
0.5478727
0.47998923
0.45651386
0.44756868
0.42973428
0.42731958
0.41491263
0.40038916
153.58313
152.81302
151.91291
150.84195
149.56313
148.03126
146.19081
143.97356
141.29553
138.05368
134.12202
129.34778
123.54813
116.50918
107.99015
97.741462
85.540203
71.273097
55.075574
37.539066
20.019608
6.5473048
1.1980728
0.5441837
0.47818529
0.4566065
0.4485635
0.42958777
0.42708356
0.41391551
0.40076526
147.67253
146.94363
146.09317
145.08127
143.87292
142.42535
140.68608
138.59058
136.05946
132.99523
129.27859
124.76465
119.27952
112.61885
104.5512
94.831967
83.238079
69.640316
54.13468
37.262937
20.174741
6.7225605
1.2174057
0.5407027
0.47655979
0.45668015
0.44932523
0.42939853
0.42669747
0.41286163
0.40128403
141.66055
140.97201
140.17005
139.21581
138.07618
136.71075
135.06996
133.09286
130.70445
127.8126
124.30447
120.04279
114.86245
108.56862
100.93922
91.736456
80.738206
67.803149
52.992263
36.769499
20.191403
6.8404117
1.2314564
0.53758285
0.47525551
0.45680536
0.44989852
0.4291735
0.42615785
0.41171781
0.40189483
135.5696
134.92064
134.16607
133.26811
132.19551
130.91013
129.36521
127.50323
125.25342
122.52878
119.22268
115.20523
110.31982
104.38102
97.17617
88.475379
78.05852
65.775575
51.657416
36.103648
20.1189
6.8890376
1.2400394
0.53495067
0.47436816
0.45704626
0.45030089
0.42891472
0.42544347
0.41048761
0.40207179
129.42126
128.81112
128.10291
127.25994
126.25276
125.04541
123.59382
121.84379
119.72857
117.16609
114.05567
110.27447
105.67411
100.07832
93.283886
85.068947
75.217634
63.57294
50.140477
35.263712
19.885679
6.8835904
1.2378653
0.53287519
0.47390848
0.4572905
0.45050346
0.42861116
0.42467667
0.40932984
0.40202124
123.23634
122.66429
122.00144
121.2122
120.26887
119.1376
117.7769
116.13572
114.15119
111.74594
108.82493
105.27213
100.94703
95.682224
89.283795
81.538167
72.234675
61.211474
48.453074
34.252113
19.456504
6.8250365
1.2246428
0.53136429
0.47377619
0.45742441
0.45054786
0.42824266
0.42394491
0.40821319
0.4018232
117.03455
116.49992
115.88145
115.14474
114.26374
113.20665
111.93443
110.39908
108.54141
106.28851
103.55078
100.2186
96.159018
91.213169
85.196183
77.90314
69.128119
58.707408
46.607718
33.076295
18.874139
6.6538643
1.1980625
0.53037401
0.47378302
0.4574391
0.45052646
0.42780912
0.4229826
0.40731785
0.40177245
110.83453
110.33665
109.7616
109.07622
108.25607
107.27127
106.08518
104.65267
102.91806
100.81269
98.252102
95.132782
91.32895
86.689886
81.039482
74.181288
65.915043
56.076289
44.617156
31.744845
18.140246
6.3612419
1.1579906
0.52983065
0.47384168
0.45735186
0.4504024
0.42728788
0.42170959
0.4067696
0.40180843
104.65373
104.19195
103.65938
103.02415
102.26334
101.34898
100.24666
98.914
97.298659
95.336015
92.946438
90.032208
86.474319
82.129787
76.830905
70.389456
62.611282
53.333067
42.494118
30.267136
17.259157
5.986476
1.1060641
0.52971744
0.47394141
0.45691215
0.45002758
0.42659621
0.42019343
0.40659686
0.40206748
98.508506
98.082155
97.591104
97.004819
96.301869
95.456044
94.43511
93.199288
91.699395
89.874619
87.649901
84.932968
81.611208
77.548952
72.58651
66.543685
59.232624
50.492192
40.251175
28.652783
16.236392
5.5347496
1.0449816
0.52997571
0.47404345
0.45568623
0.44919823
0.42553754
0.41859272
0.40656507
0.40259608
92.414148
92.022519
91.571991
91.033407
90.386751
89.607513
88.665509
87.523432
86.135081
84.443231
82.377126
79.849608
76.754075
72.961766
68.3206
62.65813
55.793304
47.566649
37.900231
26.911532
15.078727
5.0158864
0.97820537
0.53048788
0.47424706
0.45435366
0.44781055
0.42401342
0.41700354
0.40658234
0.40284143
86.384929
86.027253
85.616178
85.123966
84.531952
83.817243
82.951598
81.900043
80.619184
79.055168
77.141268
74.795119
71.915748
68.380872
64.045603
58.744926
52.304504
44.567322
35.452357
25.053723
13.794624
4.4460772
0.909729
0.5312046
0.47473093
0.45318614
0.44618888
0.42242391
0.41529238
0.40684163
0.40289153
80.434136
80.109553
79.736758
79.289473
78.750317
78.09793
77.305905
76.341465
75.16385
73.722363
71.954047
69.78101
67.107542
63.817432
59.772579
54.815089
48.777188
41.505539
32.918076
23.090282
12.394855
3.8472871