/*--------------------------------*- C++ -*----------------------------------*\
| =========                 |                                                 |
| \\      /  F ield         | OpenFOAM: The Open Source CFD Toolbox           |
|  \\    /   O peration     | Version:  2406                                  |
|   \\  /    A nd           | Website:  www.openfoam.com                      |
|    \\/     M anipulation  |                                                 |
\*---------------------------------------------------------------------------*/
FoamFile
{
    version     2.0;
    format      ascii;
    arch        "LSB;label=32;scalar=64";
    class       volScalarField;
    location    "0.007";
    object      Ma;
}
// * * * * * * * * * * * * * * * * * * * * * * * * * * * * * * * * * * * * * //

dimensions      [0 0 0 0 0 0 0];

internalField   nonuniform List<scalar> 
8951
(
0.15785905
0.15894848
0.16000618
0.16110281
0.16217981
0.16322381
0.16423132
0.16517362
0.16623831
0.16753413
0.16908988
0.17067975
0.17239275
0.17419746
0.17603852
0.17754441
0.178069
0.176529
0.17267436
0.16958017
0.16790938
0.16650868
0.16487063
0.16349301
0.16219525
0.1616087
0.16047281
0.15918832
0.15837568
0.15584613
0.15072566
0.15498347
0.1561883
0.15747183
0.15877925
0.16008541
0.16137648
0.162646
0.16389607
0.16522707
0.16672513
0.16839945
0.17012422
0.17194339
0.1738222
0.17570431
0.17720801
0.17766707
0.17600974
0.17215357
0.16923677
0.16767443
0.16632711
0.16472576
0.1633763
0.16209943
0.16153519
0.16040506
0.15907794
0.15829775
0.15578777
0.15068986
0.15133222
0.152725
0.15430243
0.15590701
0.15751141
0.15910692
0.16068672
0.16225823
0.16387983
0.16562014
0.16747972
0.16937373
0.17132689
0.17330306
0.175245
0.17676288
0.17717485
0.17540935
0.17158418
0.16887421
0.16742055
0.16613412
0.16457502
0.16325362
0.16198693
0.16145268
0.16032942
0.15897931
0.15822223
0.15574509
0.15063317
0.14755842
0.14914678
0.15096856
0.1528477
0.15474295
0.15664214
0.15853655
0.16042653
0.16234656
0.16434296
0.16641672
0.16849886
0.17060198
0.17268823
0.17469603
0.17622488
0.17657979
0.17469553
0.17092908
0.16845911
0.16712442
0.16590559
0.16439538
0.16310647
0.16185116
0.16135337
0.16023738
0.15887903
0.1581426
0.15570662
0.15055868
0.14375541
0.14552491
0.14754834
0.14966593
0.15182949
0.15401926
0.15622102
0.15842601
0.16064721
0.16290846
0.16520795
0.16749134
0.16975752
0.17196477
0.17404321
0.17557736
0.17585855
0.173843
0.17017987
0.16799249
0.16678479
0.16564303
0.16419072
0.16293747
0.16170443
0.16123752
0.1601293
0.15877985
0.15805318
0.1556787
0.15049683
0.14005411
0.14196144
0.14413673
0.14644399
0.1488355
0.15128445
0.15376928
0.15627111
0.15878371
0.16131024
0.16384145
0.166334
0.16877268
0.17110938
0.1732617
0.17479359
0.17497942
0.17282521
0.16933151
0.16746639
0.16639466
0.16533923
0.16395463
0.16274057
0.16155554
0.16110105
0.16000121
0.15867952
0.15795158
0.15565771
0.15044944
0.13659926
0.13858908
0.14085917
0.14329777
0.14586122
0.14851812
0.1512406
0.15400089
0.15677737
0.15955512
0.1623143
0.16501528
0.16762915
0.17009833
0.17232292
0.1738402
0.17390182
0.17160709
0.16838668
0.16687306
0.16594717
0.16498924
0.16368394
0.16251284
0.16139678
0.16094057
0.15985231
0.15857604
0.15783865
0.15564267
0.1503383
0.13349073
0.13554565
0.1378637
0.14037039
0.14303568
0.14582987
0.1487228
0.15168136
0.15467313
0.15766837
0.16063528
0.1635308
0.16631183
0.16890739
0.17119332
0.17267633
0.17257341
0.17013954
0.16735772
0.16620221
0.16543405
0.16458642
0.16337302
0.16224896
0.16120726
0.160756
0.15968367
0.15846629
0.15771435
0.15563024
0.15024913
0.13099372
0.133036
0.13532885
0.13782312
0.14050259
0.14334442
0.14632056
0.14939635
0.15253298
0.15568983
0.15882335
0.16188205
0.16480723
0.16750976
0.16983276
0.17124707
0.17092236
0.1684082
0.16626182
0.16544378
0.16484608
0.16412342
0.16301661
0.16194416
0.16097953
0.16055414
0.15949837
0.15834839
0.15757941
0.15561839
0.15015631
0.12921342
0.13116617
0.13336045
0.13576482
0.13837326
0.14117114
0.14413554
0.14723437
0.15042766
0.15366901
0.15690557
0.1600752
0.16310205
0.16587331
0.1681887
0.16946815
0.16885464
0.16646609
0.16510082
0.16458966
0.16417318
0.16359125
0.16260806
0.16159355
0.1607206
0.16033332
0.15929841
0.158223
0.15743298
0.15560568
0.15010945
0.12814563
0.12996363
0.13200924
0.13426229
0.13672509
0.13939266
0.1422503
0.14527235
0.14842273
0.15165469
0.15490999
0.15811609
0.16117857
0.16395372
0.1661807
0.16721255
0.16625792
0.16442127
0.16385635
0.16363321
0.1634043
0.16298129
0.16213999
0.16119338
0.16041882
0.1600798
0.15908566
0.15809338
0.15728222
0.15559216
0.15001929
0.1277489
0.12939265
0.13125452
0.13331441
0.13557373
0.13803582
0.14069868
0.14354737
0.14655369
0.14967454
0.15284966
0.1559972
0.15900168
0.16167763
0.16367596
0.16427776
0.16323244
0.16245616
0.16251419
0.16256696
0.16252958
0.16228783
0.16160401
0.16073912
0.16007068
0.15977763
0.15885755
0.15793941
0.15714547
0.15557751
0.14997866
0.12802378
0.12941454
0.13100956
0.13280326
0.13480025
0.13700183
0.13940773
0.14201052
0.14478871
0.14770324
0.15069344
0.15366787
0.15648434
0.1588973
0.16042756
0.16053116
0.16025207
0.16055274
0.16107324
0.16138805
0.16155184
0.16150579
0.16098923
0.16022504
0.15966667
0.15942765
0.15860016
0.15775975
0.15696502
0.15556686
0.14995414
0.12862013
0.1297805
0.13111145
0.13260838
0.13428957
0.13617373
0.13826645
0.14055973
0.14303024
0.14563682
0.14831338
0.15095049
0.15337323
0.15530026
0.15629648
0.15663832
0.15760886
0.158701
0.15953692
0.16009255
0.16046593
0.16063789
0.16028469
0.15964725
0.15920186
0.15902628
0.15830778
0.15754342
0.15676679
0.15555809
0.14986823
0.12915457
0.13008218
0.13117602
0.13242717
0.13383204
0.13539445
0.13712209
0.13901928
0.14106984
0.14323802
0.145466
0.14762936
0.14953871
0.15096479
0.15213099
0.15371505
0.15542634
0.15682211
0.15792392
0.1587121
0.15929202
0.15965415
0.15949047
0.15900686
0.15867019
0.15856038
0.15795837
0.15728938
0.15655479
0.15554521
0.14977755
0.12904479
0.1296486
0.1304021
0.13133412
0.13246997
0.13379862
0.13526731
0.13690948
0.13863022
0.14040774
0.14220684
0.14399269
0.14574803
0.14753225
0.1495311
0.15156436
0.15335245
0.154984
0.15628035
0.15727897
0.15804116
0.15858135
0.1586042
0.15829888
0.15807495
0.15803408
0.15755168
0.15698208
0.15631067
0.15548786
0.14969516
0.12997557
0.13041556
0.13092189
0.13149727
0.13217505
0.13301991
0.13405621
0.13528066
0.13666632
0.13815415
0.13976078
0.14155641
0.14350458
0.14563034
0.1477194
0.14965258
0.15150653
0.1532298
0.15466039
0.15583017
0.15676814
0.15745572
0.15765644
0.1575008
0.15741724
0.15744239
0.15709602
0.1566166
0.15600434
0.15538988
0.14961437
0.13193145
0.13233772
0.1327966
0.13331344
0.13387545
0.1344633
0.13506731
0.13568743
0.13644881
0.13751148
0.13882868
0.14047923
0.14222202
0.14407955
0.14608053
0.14810365
0.14990867
0.15162394
0.15310718
0.15442108
0.15549935
0.15631477
0.15667206
0.15663603
0.15669023
0.15678421
0.15658662
0.15620598
0.15563007
0.15522596
0.14954253
0.13333551
0.1336376
0.13399375
0.13441729
0.13492575
0.13554407
0.13629578
0.13716108
0.13798049
0.13878709
0.13967343
0.14046131
0.1417193
0.14319006
0.14487401
0.14676867
0.14853175
0.15016995
0.15167257
0.15309108
0.154268
0.15517395
0.15567103
0.15571843
0.15590295
0.15604765
0.15601186
0.15574741
0.15522033
0.15500076
0.14940231
0.13591987
0.13613557
0.13638245
0.13666129
0.1369728
0.13731642
0.13769462
0.13812424
0.13864833
0.13930616
0.14016712
0.14124207
0.1421477
0.14298253
0.14427277
0.14573664
0.1472959
0.14890368
0.15038793
0.15186616
0.15309455
0.1540232
0.15463519
0.15479165
0.15506508
0.15525743
0.15536637
0.15523426
0.15476359
0.15472676
0.14935935
0.13743705
0.13760496
0.13780314
0.13803668
0.13831401
0.13864592
0.13904254
0.1395085
0.14003832
0.14061739
0.1412147
0.14180442
0.14256266
0.14354768
0.14420255
0.14526434
0.14649347
0.14780467
0.14929008
0.1507816
0.15201815
0.15289592
0.15355924
0.15388354
0.1541899
0.15444983
0.15467759
0.15465617
0.15425426
0.15436573
0.1492639
0.13973458
0.1398521
0.13998637
0.14013838
0.140309
0.1404981
0.14070646
0.14093825
0.14120444
0.1415274
0.14194497
0.14250504
0.14315032
0.1438156
0.14467029
0.14523408
0.1461508
0.14716195
0.14841714
0.14984774
0.15105382
0.15194522
0.15256405
0.15297362
0.15331899
0.15364593
0.15396467
0.15403336
0.15367388
0.15389298
0.14914874
0.14111976
0.14121331
0.14132315
0.1414521
0.14160439
0.14178542
0.14200136
0.14225797
0.14255803
0.14289661
0.14325655
0.14361006
0.14398648
0.1444305
0.14488874
0.145605
0.1462447
0.14696812
0.14795329
0.14902097
0.15011137
0.15113874
0.15180704
0.15216302
0.15249988
0.15281506
0.15321373
0.15336082
0.15303132
0.15325687
0.14891665
0.14318419
0.14324209
0.14330764
0.14338085
0.14346155
0.14354893
0.14364179
0.14373984
0.14384638
0.14397084
0.14413146
0.14435345
0.14464242
0.14498857
0.14545083
0.14592524
0.14642683
0.1471415
0.14782125
0.14853336
0.14930288
0.15021372
0.15115197
0.15146327
0.15174211
0.15204214
0.15242196
0.15262188
0.15237062
0.15257465
0.14872093
0.14443097
0.14447264
0.14452204
0.14458051
0.1446501
0.14473359
0.14483434
0.14495706
0.14510744
0.14528657
0.14548694
0.14569299
0.14589096
0.14608649
0.14625152
0.14650982
0.14696019
0.14741749
0.14791378
0.14835322
0.14891882
0.14964778
0.1503451
0.15073441
0.15102815
0.15135975
0.15163521
0.15186341
0.15171739
0.15195193
0.14860577
0.1460793
0.14610208
0.14612795
0.14615737
0.14619083
0.14622843
0.14626976
0.14631243
0.14635193
0.14638875
0.14643162
0.14649509
0.14659937
0.14675305
0.14699224
0.14724121
0.14744641
0.14770732
0.14795923
0.14839745
0.14887428
0.14943117
0.14986429
0.15020908
0.15031945
0.15063878
0.15087746
0.15112196
0.15111938
0.15159492
0.14850106
0.14700822
0.14701863
0.14703154
0.14704724
0.14706655
0.14709083
0.14712228
0.14716445
0.14722223
0.14730139
0.14739427
0.14748141
0.14754604
0.14760158
0.14763906
0.14767846
0.14780529
0.14801188
0.14837816
0.14872185
0.14911107
0.14939204
0.14965129
0.14995842
0.14972638
0.14976719
0.15012841
0.15033834
0.15049452
0.15112363
0.14849791
0.14809361
0.1480977
0.14810218
0.14810694
0.14811201
0.14811739
0.14812296
0.14812825
0.14813199
0.14813089
0.14813017
0.1481403
0.1481594
0.14818022
0.1482304
0.14831573
0.14840169
0.14850097
0.1486391
0.14883193
0.14910357
0.14922805
0.1494271
0.14976249
0.14933632
0.14908906
0.14945648
0.14957358
0.14981992
0.15058564
0.14851362
0.14863315
0.14863179
0.1486302
0.14862848
0.14862676
0.14862537
0.14862479
0.14862545
0.14862797
0.14863243
0.14863908
0.14864586
0.14864996
0.14864978
0.14864729
0.14864899
0.14865584
0.1486715
0.14870194
0.14874591
0.14885789
0.14879112
0.14887983
0.14945462
0.14909407
0.14876724
0.14902501
0.14908901
0.14932817
0.14992443
0.148605
0.14893275
0.14892472
0.14891564
0.1489057
0.14889531
0.14888496
0.14887531
0.14886696
0.14886009
0.14885435
0.14884851
0.1488401
0.1488261
0.14880496
0.14877957
0.14875694
0.14874523
0.14874393
0.14876508
0.14874498
0.14875795
0.14856887
0.14859712
0.14920966
0.14899345
0.14859613
0.14872111
0.14883277
0.14902808
0.14955387
0.14865465
0.14914776
0.14913496
0.1491204
0.14910441
0.14908741
0.14906982
0.14905194
0.14903394
0.14901581
0.14899763
0.14897989
0.14896407
0.14895282
0.14894972
0.14895915
0.14898707
0.14903384
0.14909367
0.14918325
0.14916417
0.14903182
0.14853329
0.14857002
0.14923129
0.14912144
0.14864214
0.14862672
0.14879235
0.14887585
0.14932622
0.14871606
0.017390161
0.032815208
0.059989586
0.093708252
0.11915986
0.13454898
0.14390984
0.15047381
0.15577126
0.16038447
0.16452991
0.16831638
0.17180448
0.17503025
0.17800845
0.1806858
0.18301115
0.18450219
0.18467911
0.1823498
0.17738675
0.17316967
0.1702206
0.16787834
0.16595378
0.16475992
0.16307206
0.16171694
0.16048358
0.15681634
0.1512094
0.026493286
0.049111264
0.082267852
0.11198424
0.12994346
0.14025586
0.14715642
0.15262859
0.15738502
0.16166336
0.16556523
0.16915885
0.17248649
0.1755767
0.17843613
0.18100741
0.18321997
0.18457346
0.18459602
0.18206966
0.17706279
0.17295578
0.17007298
0.16776599
0.16586633
0.16468851
0.16301255
0.1616685
0.16043741
0.1567942
0.15120033
0.038843064
0.06712433
0.09922703
0.1217632
0.13491545
0.14312002
0.14915268
0.15419076
0.15866056
0.16271571
0.16643391
0.16987201
0.17306582
0.17604075
0.17879766
0.18127593
0.18338563
0.18461828
0.18450136
0.18179776
0.17676567
0.17276696
0.16994007
0.16766245
0.16578326
0.16462056
0.16295653
0.16162155
0.16039157
0.15676833
0.1511876
0.055277908
0.086860333
0.1133594
0.12960714
0.13922113
0.14578934
0.15106269
0.15568853
0.15988133
0.16372191
0.16726404
0.17055263
0.1736178
0.17648199
0.17914006
0.18152768
0.18353418
0.1846487
0.18439698
0.1815154
0.17647007
0.172579
0.16980495
0.16755674
0.16569871
0.16455139
0.1628996
0.16157405
0.16034599
0.15674434
0.15117414
0.075612033
0.10425838
0.12369809
0.13512613
0.14246143
0.14802496
0.15279226
0.15709728
0.16104691
0.16468808
0.1680623
0.17120645
0.17414697
0.17690375
0.17946562
0.18176414
0.18366734
0.18466859
0.18428222
0.18122216
0.17617702
0.17239525
0.16967126
0.16745175
0.16561435
0.1644823
0.16284296
0.16152652
0.16030052
0.15672089
0.15116061
0.095693318
0.11758244
0.13093247
0.13920467
0.1451277
0.15002429
0.15440542
0.1584343
0.16216051
0.16561351
0.16882651
0.17183091
0.17465083
0.17730368
0.1797722
0.18198358
0.18378464
0.18467729
0.18415383
0.18091913
0.17588774
0.17221547
0.16953854
0.16734705
0.1655299
0.16441302
0.16278629
0.16147879
0.16025518
0.1566985
0.15114716
0.1115127
0.12677881
0.13603534
0.14237881
0.14742121
0.15185199
0.15592256
0.15970641
0.16322434
0.16649832
0.16955588
0.17242507
0.17512851
0.17768105
0.18005923
0.1821857
0.18388668
0.1846754
0.18400974
0.18060738
0.17560325
0.17203964
0.1694069
0.16724281
0.16544548
0.16434367
0.16272971
0.16143093
0.16021002
0.15667712
0.15113382
0.12279008
0.13305939
0.13982173
0.14501218
0.14948025
0.15355869
0.1573631
0.16092147
0.1642423
0.16734431
0.17025127
0.17298946
0.17558042
0.17803618
0.18032701
0.18237092
0.18397474
0.18466397
0.18385091
0.18028785
0.1753243
0.17186753
0.16927627
0.16713901
0.16536111
0.16427425
0.1626732
0.16138294
0.16016505
0.15665682
0.1511206
0.13020766
0.13747572
0.1428269
0.14732006
0.15138387
0.15517398
0.1587391
0.16208513
0.16521746
0.1681529
0.17091341
0.17352459
0.17600693
0.17836931
0.18057574
0.18253962
0.18404875
0.18464145
0.18367746
0.1799594
0.17505165
0.1716989
0.16914664
0.16703569
0.1652768
0.16420479
0.16261679
0.16133482
0.1601203
0.1566374
0.15110753
0.13534352
0.14089642
0.14540729
0.14943169
0.15317926
0.15671691
0.16005891
0.16320178
0.16615184
0.16892495
0.17154276
0.17403078
0.17640823
0.17868057
0.18080558
0.1826921
0.18410832
0.18460437
0.18348864
0.17962563
0.17478588
0.17153353
0.16901799
0.16693286
0.1651926
0.16413532
0.16256049
0.16128659
0.16007579
0.15661861
0.15109463
0.13919167
0.14375499
0.14773282
0.15141258
0.15489382
0.15819994
0.16132839
0.16427452
0.1670468
0.16966105
0.17213967
0.17450827
0.17678449
0.17897007
0.18101667
0.18282851
0.18415343
0.18455427
0.18328547
0.17928853
0.17452716
0.17137116
0.16889031
0.16683056
0.16510851
0.16406585
0.1625043
0.16123826
0.16003153
0.15660164
0.15108193
0.14234584
0.14630439
0.14990642
0.15330537
0.15654651
0.15963194
0.16255202
0.16530571
0.16790329
0.1703616
0.17270442
0.17495729
0.17713586
0.17923795
0.18120916
0.1829485
0.1841828
0.184491
0.18306948
0.17895068
0.17427551
0.17121161
0.1687636
0.1667288
0.16502458
0.16399641
0.16244825
0.16118985
0.15998755
0.15658259
0.15106945
0.14513597
0.1486815
0.15198639
0.15513656
0.15815001
0.16101891
0.1637332
0.16629688
0.1687218
0.17102686
0.17323724
0.17537799
0.17746248
0.17948431
0.18138315
0.18305145
0.18419733
0.18441611
0.18284213
0.17861191
0.17403084
0.17105469
0.16863786
0.16662762
0.16494084
0.16392705
0.16239234
0.16114133
0.15994385
0.1565604
0.1510572
0.14773821
0.15096453
0.15400927
0.1569238
0.15971281
0.16236493
0.1648742
0.16724873
0.16950259
0.171657
0.17373828
0.17577053
0.17776446
0.17970927
0.18153874
0.18313724
0.18419772
0.18432998
0.18260315
0.17827357
0.1737931
0.17090019
0.1685131
0.16652704
0.1648573
0.16385781
0.16233656
0.16109268
0.15990046
0.15653663
0.15104523
0.15025214
0.15320032
0.15599792
0.15867826
0.16124012
0.1636726
0.16597607
0.16816148
0.17024568
0.17225207
0.17420763
0.176135
0.1780419
0.17991294
0.18167604
0.18320569
0.18418433
0.18423327
0.18235352
0.17793668
0.17356209
0.17074798
0.16838934
0.16642708
0.16477401
0.16378866
0.16228093
0.16104394
0.15985735
0.15651194
0.15103355
0.15273438
0.1554169
0.15796628
0.16040648
0.16273452
0.16494325
0.16703895
0.16903494
0.17095091
0.17281205
0.17464533
0.17647147
0.17829489
0.18009543
0.18179507
0.18325634
0.1841561
0.1841267
0.18209326
0.17760265
0.17333757
0.17059792
0.16826658
0.16632778
0.16469099
0.16371949
0.16222546
0.16099507
0.15981455
0.15648873
0.15102218
0.15521832
0.15763076
0.15992189
0.16211125
0.16419663
0.16617691
0.16806226
0.16986854
0.17161798
0.1733368
0.17505137
0.17678
0.1785235
0.18025685
0.1818958
0.18328887
0.18411391
0.18401041
0.18182326
0.17727164
0.1731193
0.17044988
0.16814486
0.16622915
0.16460827
0.16365028
0.16217013
0.16094549
0.15977208
0.15646559
0.15101115
0.15772238
0.15984971
0.16186693
0.16379208
0.16562548
0.16737226
0.16904479
0.17066146
0.17224642
0.17382613
0.17542569
0.1770606
0.1787278
0.18039733
0.18197786
0.18330372
0.18406211
0.18388425
0.18154426
0.17694444
0.17290703
0.17030375
0.16802418
0.16613122
0.16452589
0.1635811
0.16211496
0.16089533
0.15972996
0.15644242
0.15100048
0.16025325
0.16207396
0.16379879
0.16544555
0.16701839
0.16852693
0.1699848
0.17141263
0.17283567
0.17427975
0.17576818
0.17731326
0.17890785
0.18051704
0.18204163
0.18330418
0.1840035
0.18374848
0.18125706
0.17662173
0.17270051
0.17015946
0.16790458
0.16603402
0.16444386
0.16351191
0.16205993
0.16084463
0.15968816
0.15641958
0.15099017
0.16280546
0.1642961
0.16571022
0.16706575
0.16837106
0.16963767
0.17088015
0.17212078
0.17338501
0.17469732
0.1760787
0.17753796
0.17906374
0.1806161
0.18208766
0.18329133
0.18393456
0.18360329
0.18096251
0.17630406
0.17249946
0.17001692
0.16778607
0.16593758
0.16436222
0.16344264
0.162005
0.16079349
0.15964669
0.15639733
0.15098028
0.16536138
0.16650156
0.1675898
0.16864466
0.16967767
0.17070055
0.17172838
0.17278443
0.17389363
0.17507845
0.17635708
0.17773467
0.17919554
0.18069437
0.182115
0.18326592
0.18385893
0.18344602
0.18066128
0.17599193
0.1723036
0.16987608
0.16766869
0.1658419
0.16428099
0.16337319
0.16195028
0.16074198
0.15960554
0.15637564
0.15097092
0.16789362
0.16866999
0.16942294
0.17017253
0.17093145
0.17171111
0.17252673
0.173402
0.17436066
0.17542268
0.17660311
0.17790336
0.17930322
0.18075057
0.18212385
0.18322927
0.18377471
0.18327737
0.1803541
0.17568573
0.17211263
0.16973689
0.16755246
0.16574702
0.16420018
0.16330297
0.16189597
0.16069021
0.15956472
0.15635451
0.1509623
0.17036824
0.17077639
0.17119345
0.17163856
0.17212496
0.17266438
0.17327223
0.17397175
0.17478513
0.17572954
0.17681662
0.17804401
0.17938654
0.18078435
0.18211851
0.18318105
0.18368067
0.18309649
0.18004198
0.17538581
0.17192625
0.16959934
0.1674374
0.16565295
0.16411981
0.16323151
0.16184194
0.16063822
0.15952424
0.15633391
0.1509529
0.17274773
0.17279321
0.17288541
0.17303154
0.17325037
0.1735549
0.17396178
0.17449191
0.17516602
0.17599857
0.17699741
0.1781563
0.17944379
0.18079707
0.18209901
0.18311985
0.18357583
0.18290357
0.17972613
0.17509248
0.17174416
0.16946339
0.16732356
0.16555973
0.16403988
0.1631592
0.16178723
0.1605859
0.15948409
0.1563137
0.15094383
0.17500187
0.17470237
0.1744804
0.17433924
0.17429942
0.17437725
0.17459215
0.17496061
0.17550231
0.17622935
0.17714517
0.17823894
0.1794733
0.18079251
0.18206363
0.18304571
0.18346045
0.18270028
0.17940779
0.17480598
0.17156605
0.16932905
0.16721096
0.16546737
0.16396042
0.16308625
0.16173148
0.16053322
0.15944427
0.15629365
0.15093559
0.17710279
0.17648209
0.17596061
0.17554833
0.17526385
0.17512799
0.17516028
0.17537567
0.17579294
0.17642142
0.17725874
0.17828775
0.17947835
0.18077125
0.18201161
0.18295875
0.1833343
0.18248714
0.17908813
0.17452649
0.17139166
0.16919632
0.16709962
0.1653759
0.16388144
0.16301265
0.16167553
0.16048029
0.15940472
0.15627365
0.15092758
0.17902028
0.17810747
0.17731185
0.17664812
0.17613765
0.17580198
0.17566238
0.17573617
0.17603647
0.17657354
0.17733362
0.17830403
0.17946503
0.18073113
0.18194337
0.18285909
0.18319747
0.18226514
0.1787688
0.17425406
0.17122073
0.1690652
0.16698959
0.16528534
0.16380297
0.16293904
0.16162025
0.16042729
0.15936534
0.15625389
0.15091902
0.18073238
0.17956163
0.17852109
0.17762989
0.17691335
0.17639477
0.17609823
0.17603953
0.17623072
0.17668089
0.1773669
0.17829804
0.1794311
0.18067034
0.18185904
0.18274693
0.18305023
0.18203531
0.17845094
0.17398863
0.17105302
0.16893572
0.16688088
0.16519572
0.16372504
0.16286584
0.1615658
0.16037445
0.15932617
0.15623458
0.15090829
0.18222218
0.1808306
0.17957699
0.17848532
0.17758508
0.17690267
0.17646388
0.17628169
0.17636938
0.17673478
0.17736927
0.17827004
0.17937196
0.18058918
0.18175871
0.18262253
0.18289295
0.1817986
0.17813555
0.17373008
0.17088829
0.16880788
0.16677354
0.16510705
0.16364767
0.16279361
0.16151267
0.16032197
0.1592872
0.15621584
0.15089586
0.1834759
0.18190297
0.18047025
0.17920724
0.17814668
0.17731891
0.17675154
0.17645206
0.17644177
0.17674719
0.17734859
0.17821483
0.17928821
0.18048778
0.18164243
0.182486
0.182726
0.18155595
0.17782352
0.17347822
0.17072637
0.16868172
0.1666676
0.16501936
0.1635709
0.16272509
0.16146164
0.1602701
0.15924838
0.15619739
0.15088611
0.18448131
0.18276747
0.18119109
0.17978689
0.17858875
0.17763013
0.17693904
0.17653479
0.17646605
0.17673488
0.17729902
0.17812938
0.17917998
0.18036613
0.18151022
0.18233692
0.18254948
0.1813083
0.17751548
0.17323297
0.17056713
0.16855726
0.16656308
0.16493267
0.16349477
0.16266041
0.16141052
0.16021922
0.15920966
0.15617906
0.15088244
0.18522451
0.18340419
0.18171469
0.18019466
0.17888281
0.1778146
0.17702425
0.17656421
0.176464
0.17668955
0.17721252
0.1780141
0.17904711
0.18022415
0.181362
0.18217685
0.18236384
0.1810566
0.17721201
0.17299421
0.17041039
0.16843452
0.16646002
0.164847
0.16341932
0.16259913
0.16135805
0.16016894
0.15917098
0.15616081
0.15088041
0.18566031
0.18377538
0.18201184
0.18041259
0.17902562
0.17788878
0.17705077
0.17656235
0.17641882
0.17659944
0.1770898
0.17786907
0.17888948
0.18006179
0.18119782
0.18200645
0.18217027
0.18080185
0.17691343
0.17276175
0.170256
0.16831354
0.16635844
0.16476237
0.16334459
0.16254047
0.16130589
0.16011956
0.15913236
0.15614265
0.15087698
0.18585855
0.18394714
0.18214512
0.18049934
0.17907038
0.17790591
0.17704436
0.17650926
0.17631743
0.17646458
0.17693103
0.17769417
0.178707
0.179879
0.18101796
0.18182446
0.18196895
0.18054485
0.17662008
0.17253546
0.17010386
0.16819432
0.16625839
0.16467879
0.16327061
0.16248365
0.16125404
0.160071
0.15909372
0.15612465
0.15087203
0.1859376
0.18401828
0.18219862
0.18052877
0.1790717
0.17787722
0.17697253
0.17638638
0.17616056
0.17628473
0.17673586
0.17748922
0.17849959
0.17967573
0.18082265
0.18163262
0.18176058
0.18028632
0.17633229
0.17231521
0.16995388
0.16807689
0.16615988
0.16459631
0.16319741
0.162428
0.16120255
0.1600232
0.15905502
0.15610704
0.15086602
0.18583728
0.18393948
0.18212649
0.1804561
0.17898165
0.1777519
0.17680742
0.17619256
0.17594751
0.17605908
0.17650383
0.17725407
0.17826721
0.17945194
0.18061189
0.18143028
0.18154586
0.18002694
0.17605029
0.1721009
0.16980597
0.16796128
0.16606296
0.16451493
0.16312502
0.16237301
0.16115144
0.15997586
0.15901636
0.15609016
0.15085558
0.18538918
0.18357087
0.18181571
0.18018475
0.17872893
0.1774997
0.17654768
0.17592613
0.17567685
0.17578671
0.17623451
0.17698859
0.17800983
0.1792076
0.18038567
0.18121784
0.18132543
0.17976735
0.17577431
0.17189236
0.16966006
0.16784749
0.16596765
0.16443468
0.16305348
0.16231828
0.16110071
0.15992905
0.15897746
0.15607397
0.15084381
0.18461567
0.18291627
0.18126173
0.17971198
0.17831503
0.17712319
0.17619286
0.17558546
0.17534707
0.17546678
0.17592747
0.17669267
0.17772742
0.17894269
0.18014401
0.18099562
0.18109989
0.17950816
0.17550452
0.17168942
0.16951614
0.16773553
0.16587399
0.1643556
0.16298279
0.16226351
0.16104927
0.15988328
0.1589383
0.15605823
0.15083664
0.18358105
0.18202423
0.18049803
0.17905905
0.17775159
0.17662667
0.17574232
0.1751693
0.17495679
0.17509852
0.17558228
0.17636617
0.17742001
0.17865721
0.17988689
0.18076381
0.18086981
0.17924999
0.17524106
0.17149193
0.16937416
0.16762542
0.16578202
0.16427771
0.16291297
0.16220858
0.16099956
0.15983749
0.15889914
0.15604274
0.15083151
0.18230809
0.18091852
0.17954389
0.17823961
0.17704619
0.17601218
0.17519609
0.17467696
0.17450461
0.17468119
0.17519849
0.17600898
0.17708764
0.17835123
0.17961428
0.18052251
0.18063572
0.17899344
0.17498402
0.17129975
0.16923414
0.16751716
0.16569177
0.16420103
0.16284404
0.16215334
0.16095075
0.15979275
0.15885962
0.15602731
0.15082702
0.18081772
0.17961586
0.17841181
0.177262
0.17620346
0.17528165
0.17455481
0.17410819
0.17398905
0.17421416
0.17477567
0.17562095
0.17673036
0.17802479
0.17932617
0.18027178
0.18039818
0.17873908
0.17473347
0.17111276
0.16909608
0.16741077
0.16560329
0.16412561
0.16277603
0.16209757
0.16090151
0.15974675
0.15881919
0.15601188
0.15082173
0.17912918
0.17812804
0.17710935
0.17613094
0.17522606
0.17443631
0.17381958
0.17346274
0.17340856
0.17369683
0.1743134
0.17520194
0.17634824
0.17767803
0.17902253
0.18001159
0.18015774
0.17848753
0.17448947
0.17093087
0.16896001
0.16730626
0.16551662
0.16405147
0.16270892
0.16204173
0.16085264
0.159701
0.15877837
0.15599645
0.15081513
0.17725008
0.17645702
0.17563702
0.17484657
0.17411409
0.17347636
0.17299192
0.17273865
0.17276254
0.17312886
0.17381134
0.17475183
0.1759414
0.17731113
0.17870341
0.17974185
0.17991474
0.17823936
0.17425206
0.17075392
0.168826
0.1672036
0.16543177
0.16397862
0.16264272
0.16198641
0.16080418
0.15965219
0.15873631
0.15598093
0.15080735
0.17517089
0.17459297
0.17398793
0.17340477
0.17286553
0.17240177
0.17207176
0.17193311
0.17205267
0.17250986
0.17326919
0.17427048
0.17550997
0.17692436
0.17836891
0.17946244
0.17966868
0.17799503
0.17402121
0.17058174
0.16869396
0.16710272
0.16534871
0.16390705
0.16257738
0.16193159
0.16075618
0.15960011
0.15869253
0.15596523
0.15079941
0.17287194
0.17252051
0.17215239
0.17180023
0.17147777
0.17121426
0.17105556
0.17104677
0.17128118
0.17183987
0.17268663
0.17375774
0.17505408
0.17651802
0.17801921
0.17917311
0.17941994
0.17775498
0.17379677
0.17041405
0.16856382
0.16700357
0.16526747
0.1638368
0.16251297
0.16187733
0.16070875
0.15954054
0.15864711
0.15594932
0.15079081
0.17033787
0.17023001
0.17012569
0.17003162
0.16995306
0.16991272
0.16993814
0.17008321
0.17044832
0.17111937
0.17206309
0.173213
0.17457342
0.17609211
0.17765433
0.17887345
0.17916859
0.17752005
0.17357874
0.17025094
0.16843589
0.16690638
0.16518831
0.16376809
0.16244976
0.16182378
0.1606621
0.15948028
0.1585996
0.15593317
0.15078152
0.16756036
0.167718
0.16790776
0.16809965
0.16828737
0.16848558
0.16871835
0.16903892
0.16954775
0.17034497
0.17139557
0.17263342
0.17406579
0.17564507
0.17727302
0.17856238
0.17891443
0.1772921
0.17336846
0.17009397
0.16831137
0.16681199
0.16511189
0.16370133
0.16238822
0.16177114
0.16061627
0.15941888
0.15855049
0.15591657
0.15077164
0.16452398
0.16496139
0.16547282
0.1659786
0.16645515
0.16691498
0.16738097
0.16789456
0.16855558
0.1695025
0.17067682
0.17201328
0.17352669
0.17517352
0.17687205
0.1782382
0.17865715
0.17707379
0.17316952
0.16994586
0.1681917
0.16672116
0.16503851
0.16363658
0.16232837
0.16171927
0.16057062
0.15935092
0.15849753
0.15589829
0.1507608
0.16130484
0.16190203
0.16268619
0.16351636
0.16432064
0.16508912
0.16583255
0.1665704
0.16739288
0.16852543
0.16986367
0.17131924
0.17292867
0.17465467
0.17643266
0.17788802
0.17839249
0.17686527
0.17298879
0.16980561
0.16807475
0.16663178
0.16496629
0.16357243
0.16226816
0.16166708
0.16052387
0.15927565
0.15843851
0.15587366
0.15074679
0.015274895
0.028439751
0.053653027
0.087801711
0.11497386
0.131854
0.14225587
0.14933254
0.15488401
0.15964974
0.163911
0.16779669
0.17137344
0.17467933
0.17773148
0.18047704
0.18287402
0.18444972
0.18474418
0.18253794
0.17761498
0.1733241
0.17033301
0.16796907
0.16602982
0.16482159
0.16312116
0.16175929
0.16052584
0.15684208
0.15122295
0.017602912
0.030807762
0.054604092
0.086898949
0.1140261
0.13131507
0.14191717
0.14908974
0.15466878
0.1594375
0.16370136
0.16759802
0.17119541
0.17452797
0.1776096
0.18038511
0.18281024
0.18441824
0.18477167
0.1826322
0.17774429
0.17341331
0.170404
0.16803033
0.1660856
0.16486918
0.16315938
0.16179208
0.1605545
0.15685652
0.15123078
0.019369409
0.032364263
0.055010682
0.08590477
0.11302631
0.13065542
0.14145431
0.14873922
0.15436616
0.15915437
0.16343347
0.16735109
0.17097696
0.17434283
0.17745984
0.18027095
0.18272948
0.18438455
0.18479095
0.18273568
0.17788483
0.17350733
0.17047587
0.16809183
0.16614161
0.16491717
0.16319827
0.16182561
0.16058427
0.15687179
0.15123876
0.020911148
0.033526635
0.055086227
0.084792221
0.11189028
0.12987462
0.14092703
0.14835411
0.15404444
0.15885946
0.16315654
0.16709552
0.17074958
0.17414863
0.17730126
0.18014881
0.18264124
0.18434575
0.18480847
0.18283839
0.17802899
0.17360642
0.17055108
0.16815605
0.1661998
0.16496665
0.16323831
0.16186031
0.16061563
0.15688703
0.15124676
0.022407298
0.034725474
0.05524787
0.083741938
0.110702
0.12904934
0.14038654
0.14796831
0.15372694
0.15856952
0.16288298
0.16684067
0.1705203
0.17395062
0.17713771
0.18002142
0.18254746
0.18430118
0.18482337
0.18293731
0.17817249
0.17370747
0.17062783
0.16822173
0.16625927
0.165017
0.16327904
0.16189563
0.16064774
0.1569023
0.15125476
0.023891593
0.035938098
0.055543095
0.082834799
0.1095405
0.128225
0.13985152
0.14759023
0.1534182
0.15828765
0.1626153
0.16658879
0.17029115
0.17375055
0.17697065
0.17988989
0.18244911
0.1842517
0.18483433
0.18303176
0.17831383
0.17380869
0.17070457
0.16828761
0.16631906
0.16506761
0.16332008
0.16193118
0.16067998
0.15691771
0.15126273
0.025318156
0.037127749
0.055926771
0.08205187