/*--------------------------------*- C++ -*----------------------------------*\
| =========                 |                                                 |
| \\      /  F ield         | OpenFOAM: The Open Source CFD Toolbox           |
|  \\    /   O peration     | Version:  2406                                  |
|   \\  /    A nd           | Website:  www.openfoam.com                      |
|    \\/     M anipulation  |                                                 |
\*---------------------------------------------------------------------------*/
FoamFile
{
    version     2.0;
    format      ascii;
    arch        "LSB;label=32;scalar=64";
    class       volScalarField;
    location    "0.014";
    object      p;
}
// * * * * * * * * * * * * * * * * * * * * * * * * * * * * * * * * * * * * * //

dimensions      [1 -1 -2 0 0 0 0];

internalField   nonuniform List<scalar> 
23203
(
101557.84
101471.25
101422.98
101368.76
101313
101260.88
101213.78
101171.5
101133.75
101099.86
101069.72
101044.13
101021.44
101001.12
100983.16
100967.38
100953.87
100942.38
100932.98
101703.23
101639.04
101577.77
101511.2
101447.78
101389.83
101336.99
101288.86
101245.21
101205.83
101170.49
101139.22
101111.37
101086.38
101063.96
101043.95
101026.04
101010.23
100996.57
101775.51
101719.69
101653.61
101583.43
101518.04
101458.54
101404.07
101354.16
101308.58
101267.17
101229.8
101196.27
101166.1
101138.9
101114.31
101092.04
101072.01
101054.14
101038.43
101834.64
101781.01
101714.32
101644.9
101579.78
101519.84
101464.5
101413.44
101366.49
101323.51
101284.34
101248.77
101216.48
101187.17
101160.55
101136.39
101114.57
101094.99
101077.58
101888.17
101834.54
101768.75
101701.05
101636.9
101577.21
101521.62
101469.95
101422.11
101377.97
101337.4
101300.22
101266.2
101235.1
101206.72
101180.84
101157.34
101136.1
101117.03
101933.44
101879.82
101815.88
101750.13
101687.3
101628.36
101573.08
101521.36
101473.13
101428.32
101386.82
101348.5
101313.2
101280.72
101250.89
101223.56
101198.58
101175.85
101155.28
101970.56
101917.55
101855.8
101792.3
101731.19
101673.45
101618.96
101567.65
101519.49
101474.45
101432.46
101393.42
101357.21
101323.69
101292.73
101264.21
101238
101213.99
101192.11
102000.53
101948.52
101889.22
101828.26
101769.19
101713.03
101659.71
101609.2
101561.51
101516.62
101474.5
101435.1
101398.33
101364.1
101332.3
101302.84
101275.62
101250.54
101227.54
102024.17
101973.4
101916.77
101858.57
101801.82
101747.51
101695.67
101646.28
101599.36
101554.95
101513.04
101473.59
101436.57
101401.91
101369.54
101339.39
101311.38
101285.43
101261.49
102042.16
101992.88
101939.09
101883.82
101829.57
101777.34
101727.2
101679.17
101633.3
101589.63
101548.19
101508.97
101471.97
101437.14
101404.44
101373.82
101345.23
101318.61
101293.91
102055.28
102007.73
101956.9
101904.66
101853.01
101802.99
101754.71
101708.22
101663.58
101620.86
101580.11
101541.35
101504.59
101469.81
101436.99
101406.12
101377.15
101350.03
101324.74
102064.46
102018.91
101971.05
101921.78
101872.75
101824.96
101778.62
101733.76
101690.49
101648.88
101608.99
101570.86
101534.52
101499.99
101467.25
101436.3
101407.12
101379.68
101353.96
102071.03
102027.7
101982.54
101935.96
101889.37
101843.76
101799.33
101756.15
101714.31
101673.91
101635
101597.65
101561.89
101527.75
101495.25
101464.39
101435.17
101407.56
101381.57
102075.84
102035.01
101992.11
101947.78
101903.37
101859.79
101817.21
101775.69
101735.32
101696.17
101658.33
101621.86
101586.81
101553.2
101521.08
101490.45
101461.32
101433.68
101407.56
102078.69
102040.59
101999.7
101957.36
101914.96
101873.31
101832.52
101792.63
101753.72
101715.87
101679.16
101643.65
101609.39
101576.43
101544.8
101514.52
101485.61
101458.08
101431.94
102079.33
102044.11
102005.19
101964.76
101924.29
101884.49
101845.44
101807.15
101769.71
101733.19
101697.65
101663.16
101629.77
101597.54
101566.49
101536.67
101508.09
101480.77
101454.73
102077.93
102045.6
102008.64
101970.09
101931.49
101893.5
101856.14
101819.45
101783.47
101748.28
101713.94
101680.52
101648.06
101616.63
101586.25
101556.97
101528.82
101501.81
101475.98
102074.7
102045.2
102010.18
101973.46
101936.7
101900.48
101864.8
101829.67
101795.15
101761.3
101728.18
101695.86
101664.38
101633.8
101604.16
101575.5
101547.86
101521.25
101495.71
102070.24
102043.13
102009.93
101975
101940.04
101905.56
101871.53
101837.95
101804.89
101772.38
101740.51
101709.31
101678.85
101649.17
101620.32
101592.34
101565.27
101539.13
101513.97
102064.29
102039.52
102007.96
101974.77
101941.62
101908.87
101876.48
101844.45
101812.83
101781.67
101751.04
101720.99
101691.57
101662.83
101634.81
101607.57
101581.13
101555.53
101530.81
102056.46
102035.31
102004.94
101973.16
101941.66
101910.6
101879.82
101849.31
101819.11
101789.3
101759.91
101731.02
101702.66
101674.88
101647.74
101621.27
101595.51
101570.5
101546.28
102047.01
102028.23
102000.94
101970.37
101940.34
101910.88
101881.67
101852.66
101823.89
101795.4
101767.26
101739.52
101712.23
101685.44
101659.19
101633.53
101608.5
101584.12
101560.45
102037.93
102020.25
101994.37
101966.28
101937.79
101909.88
101882.21
101854.68
101827.29
101800.11
101773.21
101746.62
101720.4
101694.6
101669.26
101644.43
101620.16
101596.46
101573.38
102027.36
102010.79
101987.38
101961.91
101934.97
101908.16
101881.77
101855.58
101829.51
101803.59
101777.89
101752.43
101727.28
101702.47
101678.05
101654.08
101630.57
101607.58
101585.13
102017.22
102002.22
101979.34
101955.45
101931
101905.53
101880.34
101855.4
101830.61
101805.93
101781.4
101757.07
101732.97
101709.15
101685.66
101662.54
101639.83
101617.56
101595.78
102006.5
101992.85
101971.39
101948.12
101925.49
101902.41
101878.1
101854.28
101830.72
101807.25
101783.88
101760.64
101737.58
101714.74
101692.18
101669.92
101648.01
101626.48
101605.38
101995.57
101983.01
101962.99
101941.25
101919.34
101897.21
101874.88
101852.33
101829.96
101807.67
101785.42
101763.25
101741.22
101719.35
101697.7
101676.3
101655.2
101634.42
101614.01
101984.32
101972.7
101953.9
101933.27
101912.26
101892.17
101871.72
101850.18
101828.72
101807.41
101786.2
101765.05
101743.99
101723.07
101702.31
101681.77
101661.47
101641.44
101621.74
101973.09
101962.52
101945.1
101925.85
101906.14
101886.36
101867.23
101847.62
101826.85
101806.44
101786.22
101766.06
101745.97
101725.97
101706.1
101686.4
101666.9
101647.63
101628.63
101961.87
101952.33
101936.23
101918.13
101899.61
101881.04
101862.43
101843.41
101824.17
101804.79
101785.55
101766.38
101747.24
101728.15
101709.15
101690.27
101671.56
101653.05
101634.76
101950.69
101942.16
101927.24
101910.15
101892.51
101874.7
101856.76
101839.6
101821.79
101802.89
101784.47
101766.19
101747.94
101729.71
101711.54
101693.48
101675.54
101657.77
101640.19
101939.63
101932.08
101918.3
101902.2
101885.52
101868.75
101851.86
101834.85
101817.78
101800.6
101783
101765.52
101748.1
101730.71
101713.36
101696.08
101678.9
101661.86
101644.99
101928.63
101922.02
101909.3
101894.08
101878.24
101862.27
101846.11
101829.77
101814.18
101798.14
101781.19
101764.46
101747.82
101731.22
101714.65
101698.14
101681.71
101665.39
101649.2
101917.74
101912.05
101900.34
101886
101870.98
101855.86
101840.63
101825.2
101809.62
101794.64
101779.41
101763.19
101747.18
101731.3
101715.49
101699.72
101684.02
101668.4
101652.9
101906.93
101902.15
101891.41
101877.89
101863.65
101849.32
101834.93
101820.44
101805.9
101791.31
101776.13
101760.86
101745.83
101730.83
101715.82
101700.84
101685.87
101670.95
101656.12
101896.19
101892.29
101882.45
101869.69
101856.16
101842.54
101828.83
101814.98
101800.92
101786.71
101773.25
101759.54
101744.8
101730.3
101715.94
101701.64
101687.37
101673.12
101658.97
101885.53
101882.52
101873.55
101861.52
101848.7
101835.8
101822.85
101809.81
101796.67
101783.48
101770.27
101756.53
101742.72
101729.11
101715.56
101702.02
101688.49
101674.97
101874.95
101872.79
101864.63
101853.29
101841.12
101828.88
101816.58
101804.18
101791.64
101778.9
101766.06
101754.03
101741.68
101728.3
101715.21
101702.29
101689.44
101676.64
101864.47
101863.16
101855.79
101845.11
101833.59
101822.02
101810.42
101798.73
101786.96
101775.12
101763.24
101751.37
101739.07
101726.67
101714.4
101702.24
101690.14
101678.07
101854.11
101853.62
101846.97
101836.91
101826
101815.06
101804.09
101793.04
101781.88
101770.62
101759.19
101747.72
101737.12
101726.06
101713.94
101702.27
101690.81
101679.4
101843.91
101844.21
101838.23
101828.78
101818.48
101808.17
101797.86
101787.49
101777.03
101766.51
101755.94
101745.34
101734.76
101723.95
101713.07
101702.13
101691.33
101680.62
101833.91
101834.92
101829.54
101820.67
101810.96
101801.27
101791.59
101781.85
101772.03
101762.13
101752.14
101742.02
101731.86
101722.67
101712.99
101702.29
101692
101681.9
101824.14
101825.72
101820.89
101812.6
101803.52
101794.48
101785.46
101776.4
101767.26
101758.05
101748.79
101739.47
101730.02
101720.56
101711.94
101703.02
101693
101683.32
101814.65
101816.66
101812.3
101804.6
101796.17
101787.8
101779.46
101771.08
101762.63
101754.13
101745.59
101737.03
101728.47
101719.97
101711.54
101702.57
101693.43
101684.52
101805.56
101807.88
101803.9
101796.79
101789.04
101781.36
101773.7
101765.99
101758.22
101750.38
101742.49
101734.55
101726.54
101718.4
101710.3
101703.27
101695.52
101686.54
101797.03
101799.51
101795.82
101789.31
101782.26
101775.29
101768.33
101761.33
101754.26
101747.13
101739.95
101732.72
101725.47
101718.18
101710.86
101703.6
101696.23
101688.74
101789.19
101791.69
101788.21
101782.3
101775.98
101769.74
101763.5
101757.2
101750.82
101744.37
101737.85
101731.26
101724.62
101717.89
101711
101704.13
101698.43
101691.99
101782.24
101784.64
101781.28
101775.99
101770.44
101764.95
101759.44
101753.85
101748.17
101742.42
101736.58
101730.68
101724.7
101718.65
101712.51
101706.19
101699.84
101694.49
101776.39
101778.59
101775.29
101770.63
101765.88
101761.16
101756.38
101751.49
101746.5
101741.42
101736.26
101731.02
101725.72
101720.35
101714.95
101709.55
101704.21
101698.84
101771.89
101773.89
101770.61
101766.61
101762.65
101758.68
101754.59
101750.36
101746.02
101741.56
101737
101732.35
101727.61
101722.8
101717.93
101713.02
101708.15
101703.21
101769.04
101771.01
101767.81
101764.44
101761.2
101757.88
101754.4
101750.75
101746.96
101743.04
101739.01
101734.86
101730.61
101726.25
101721.78
101717.18
101712.35
101707.39
101768.1
101770.46
101767.7
101764.81
101762.04
101759.17
101756.13
101752.91
101749.56
101746.08
101742.49
101738.8
101735.01
101731.14
101727.18
101723.13
101718.95
101714.64
101769.21
101772.38
101770.57
101767.96
101765.31
101762.61
101759.79
101756.84
101753.77
101750.6
101747.35
101744.01
101740.59
101737.11
101733.56
101729.94
101726.12
101721.95
101772.24
101776.27
101775.52
101773.08
101770.4
101767.74
101765.05
101762.26
101759.4
101756.46
101753.47
101750.43
101747.36
101744.28
101741.26
101738.28
101734.76
101729.91
101776.9
101781.36
101781.51
101779.26
101776.59
101774
101771.42
101768.78
101766.09
101763.35
101760.58
101757.79
101755.02
101752.34
101749.91
101747.45
101742.85
101736.99
101782.73
101787.8
101788.61
101786.4
101783.67
101781.09
101778.56
101776
101773.37
101770.68
101767.94
101765.14
101762.29
101759.39
101756.44
101753.25
101749.55
101747.7
101790.58
101794.54
101795.23
101793.23
101790.75
101788.4
101786.09
101783.74
101781.35
101778.91
101776.43
101773.93
101771.41
101768.89
101766.43
101764.26
101762.61
101759.38
101798.39
101801.27
101801.36
101799.48
101797.29
101795.17
101793.04
101790.84
101788.55
101786.17
101783.68
101781.07
101778.29
101775.24
101771.68
101767.88
101766.66
101768.19
101803.67
101805.67
101805.33
101803.73
101801.8
101799.96
101798.11
101796.19
101794.17
101792.07
101789.88
101787.58
101785.15
101782.57
101779.77
101776.73
101773.43
101769.55
101805.41
101804.81
101803.85
101802.55
101801.12
101799.6
101797.99
101796.27
101794.46
101792.55
101790.55
101788.45
101786.25
101783.97
101781.61
101779.15
101776.54
101773.75
101802.56
101801.17
101799.7
101798.21
101796.68
101795.06
101793.37
101791.59
101789.72
101787.75
101785.69
101783.54
101781.29
101778.94
101776.5
101773.97
101771.36
101768.65
101794.6
101793.36
101792
101790.64
101789.23
101787.74
101786.17
101784.51
101782.77
101780.93
101779.01
101776.99
101774.88
101772.68
101770.37
101767.98
101765.49
101762.9
101787.51
101786.31
101784.94
101783.55
101782.13
101780.64
101779.09
101777.46
101775.75
101773.97
101772.11
101770.17
101768.15
101766.04
101763.85
101761.57
101759.2
101756.73
101779.92
101778.78
101777.51
101776.21
101774.88
101773.48
101772.02
101770.48
101768.88
101767.2
101765.44
101763.61
101761.69
101759.69
101757.6
101755.43
101753.17
101750.81
101773.05
101771.95
101770.7
101769.43
101768.12
101766.76
101765.33
101763.84
101762.29
101760.67
101758.98
101757.22
101755.38
101753.48
101751.49
101749.43
101747.28
101745.05
101766.12
101765.06
101763.87
101762.66
101761.41
101760.12
101758.76
101757.34
101755.86
101754.32
101752.71
101751.03
101749.28
101747.46
101745.57
101743.59
101741.54
101739.41
101759.62
101758.59
101757.44
101756.26
101755.06
101753.8
101752.49
101751.12
101749.69
101748.21
101746.66
101745.06
101743.39
101741.65
101739.84
101737.97
101736.02
101734
101753.2
101752.21
101751.1
101749.97
101748.81
101747.61
101746.35
101745.04
101743.67
101742.25
101740.78
101739.24
101737.64
101735.98
101734.25
101732.46
101730.6
101728.67
101747.05
101746.09
101745.02
101743.93
101742.81
101741.65
101740.44
101739.18
101737.87
101736.5
101735.09
101733.62
101732.09
101730.5
101728.85
101727.14
101725.37
101723.53
101741.05
101740.11
101739.08
101738.03
101736.95
101735.83
101734.67
101733.46
101732.2
101730.89
101729.54
101728.13
101726.66
101725.14
101723.57
101721.93
101720.24
101718.48
101735.22
101734.32
101733.32
101732.31
101731.27
101730.19
101729.07
101727.91
101726.7
101725.45
101724.15
101722.8
101721.4
101719.95
101718.44
101716.88
101715.26
101713.59
101729.55
101728.67
101727.71
101726.73
101725.73
101724.7
101723.62
101722.5
101721.34
101720.14
101718.89
101717.6
101716.26
101714.87
101713.43
101711.93
101710.39
101708.79
101724.02
101723.18
101722.25
101721.31
101720.35
101719.35
101718.31
101717.24
101716.12
101714.97
101713.77
101712.53
101711.25
101709.92
101708.55
101707.12
101705.64
101704.12
101718.65
101717.83
101716.94
101716.03
101715.1
101714.14
101713.14
101712.11
101711.04
101709.93
101708.79
101707.6
101706.37
101705.09
101703.78
101702.41
101701
101699.54
101713.41
101712.62
101711.76
101710.88
101709.99
101709.06
101708.1
101707.11
101706.08
101705.02
101703.92
101702.78
101701.6
101700.39
101699.12
101697.82
101696.47
101695.07
101708.3
101707.54
101706.71
101705.87
101705.01
101704.11
101703.19
101702.24
101701.25
101700.23
101699.17
101698.08
101696.95
101695.79
101694.58
101693.33
101692.04
101703.31
101702.58
101701.78
101700.97
101700.14
101699.28
101698.4
101697.48
101696.53
101695.55
101694.54
101693.49
101692.41
101691.29
101690.13
101688.94
101687.7
101698.45
101697.74
101696.97
101696.19
101695.39
101694.57
101693.71
101692.83
101691.92
101690.98
101690.01
101689.01
101687.97
101686.9
101685.79
101684.64
101683.46
101693.68
101693.01
101692.26
101691.51
101690.75
101689.95
101689.13
101688.29
101687.41
101686.51
101685.58
101684.62
101683.62
101682.59
101681.53
101680.44
101679.31
101689.03
101688.37
101687.66
101686.94
101686.2
101685.44
101684.65
101683.84
101683
101682.13
101681.24
101680.32
101679.36
101678.38
101677.36
101676.31
101675.23
101684.46
101683.83
101683.15
101682.45
101681.74
101681.01
101680.26
101679.48
101678.67
101677.84
101676.99
101676.1
101675.19
101674.24
101673.27
101672.27
101671.23
101679.98
101679.38
101678.72
101678.05
101677.37
101676.67
101675.95
101675.2
101674.43
101673.63
101672.81
101671.96
101671.09
101670.18
101669.25
101668.29
101667.3
101675.58
101675
101674.37
101673.74
101673.08
101672.41
101671.72
101671
101670.26
101669.5
101668.71
101667.9
101667.06
101666.19
101665.3
101664.38
101663.43
101671.27
101670.72
101670.11
101669.5
101668.87
101668.23
101667.56
101666.87
101666.16
101665.43
101664.68
101663.9
101663.1
101662.27
101661.41
101660.53
101659.63
101667.04
101666.51
101665.93
101665.34
101664.74
101664.12
101663.48
101662.82
101662.14
101661.44
101660.72
101659.97
101659.2
101658.41
101657.59
101656.75
101655.88
101662.9
101662.38
101661.83
101661.26
101660.69
101660.09
101659.48
101658.85
101658.2
101657.52
101656.83
101656.12
101655.38
101654.62
101653.84
101653.03
101652.2
101658.83
101658.34
101657.81
101657.27
101656.71
101656.14
101655.56
101654.95
101654.33
101653.68
101653.02
101652.33
101651.63
101650.9
101650.15
101649.38
101648.59
101654.85
101654.37
101653.86
101653.35
101652.82
101652.27
101651.71
101651.13
101650.53
101649.92
101649.28
101648.62
101647.95
101647.25
101646.54
101645.8
101645.04
101650.94
101650.49
101650
101649.5
101649
101648.48
101647.94
101647.38
101646.81
101646.22
101645.61
101644.99
101644.34
101643.68
101642.99
101642.28
101641.56
101647.1
101646.67
101646.21
101645.73
101645.25
101644.75
101644.24
101643.71
101643.16
101642.6
101642.02
101641.42
101640.8
101640.17
101639.51
101638.84
101638.14
101643.35
101642.93
101642.49
101642.04
101641.58
101641.1
101640.61
101640.11
101639.58
101639.05
101638.49
101637.92
101637.33
101636.72
101636.1
101635.45
101634.79
101639.66
101639.27
101638.85
101638.41
101637.98
101637.52
101637.05
101636.57
101636.08
101635.56
101635.03
101634.49
101633.93
101633.35
101632.75
101632.14
101631.5
101636.06
101635.68
101635.28
101634.87
101634.45
101634.01
101633.57
101633.11
101632.64
101632.15
101631.64
101631.13
101630.59
101630.04
101629.47
101628.89
101628.28
101632.52
101632.17
101631.78
101631.39
101630.99
101630.58
101630.16
101629.72
101629.27
101628.8
101628.32
101627.83
101627.32
101626.8
101626.25
101625.7
101625.12
101629.07
101628.73
101628.36
101627.99
101627.61
101627.21
101626.81
101626.4
101625.97
101625.52
101625.07
101624.6
101624.11
101623.61
101623.1
101622.57
101622.02
101625.68
101625.36
101625.01
101624.65
101624.29
101623.92
101623.54
101623.14
101622.73
101622.31
101621.88
101621.43
101620.97
101620.5
101620.01
101619.5
101618.98
101622.38
101622.07
101621.73
101621.4
101621.05
101620.7
101620.33
101619.95
101619.57
101619.17
101618.75
101618.33
101617.89
101617.44
101616.97
101616.49
101616
101619.14
101618.85
101618.53
101618.21
101617.88
101617.54
101617.19
101616.83
101616.47
101616.08
101615.69
101615.29
101614.87
101614.44
101614
101613.54
101613.07
101615.99
101615.7
101615.4
101615.09
101614.78
101614.46
101614.13
101613.78
101613.43
101613.07
101612.7
101612.31
101611.91
101611.5
101611.08
101610.65
101612.9
101612.64
101612.35
101612.06
101611.76
101611.45
101611.13
101610.81
101610.47
101610.12
101609.77
101609.4
101609.02
101608.63
101608.23
101607.81
101609.9
101609.64
101609.37
101609.09
101608.81
101608.51
101608.21
101607.9
101607.58
101607.25
101606.91
101606.56
101606.19
101605.82
101605.44
101605.04
101606.97
101606.73
101606.47
101606.2
101605.93
101605.65
101605.36
101605.06
101604.76
101604.44
101604.12
101603.78
101603.44
101603.08
101602.71
101602.33
101604.12
101603.88
101603.63
101603.38
101603.12
101602.86
101602.58
101602.3
101602.01
101601.71
101601.4
101601.08
101600.75
101600.41
101600.05
101599.69
101601.33
101601.11
101600.87
101600.63
101600.38
101600.13
101599.87
101599.6
101599.32
101599.03
101598.74
101598.43
101598.12
101597.79
101597.46
101597.11
101598.61
101598.4
101598.17
101597.94
101597.71
101597.47
101597.22
101596.96
101596.7
101596.42
101596.14
101595.85
101595.55
101595.24
101594.92
101594.59
101595.95
101595.75
101595.54
101595.32
101595.1
101594.87
101594.63
101594.38
101594.13
101593.87
101593.6
101593.33
101593.04
101592.75
101592.44
101592.13
101593.37
101593.17
101592.97
101592.76
101592.55
101592.33
101592.1
101591.87
101591.63
101591.38
101591.12
101590.86
101590.59
101590.31
101590.02
101589.72
101590.85
101590.67
101590.47
101590.27
101590.07
101589.86
101589.64
101589.42
101589.19
101588.95
101588.71
101588.45
101588.19
101587.92
101587.65
101587.36
101588.41
101588.23
101588.04
101587.85
101587.66
101587.46
101587.25
101587.03
101586.81
101586.59
101586.35
101586.11
101585.86
101585.6
101585.34
101585.07
101586.04
101585.87
101585.69
101585.51
101585.32
101585.13
101584.93
101584.72
101584.51
101584.29
101584.07
101583.84
101583.6
101583.35
101583.1
101582.84
101583.75
101583.58
101583.41
101583.23
101583.05
101582.87
101582.68
101582.48
101582.28
101582.07
101581.85
101581.63
101581.4
101581.17
101580.92
101580.67
101581.53
101581.37
101581.21
101581.04
101580.87
101580.69
101580.51
101580.32
101580.12
101579.92
101579.71
101579.5
101579.28
101579.05
101578.82
101578.58
101579.39
101579.24
101579.08
101578.92
101578.76
101578.58
101578.41
101578.23
101578.04
101577.85
101577.65
101577.44
101577.23
101577.02
101576.79
101576.56
101577.34
101577.19
101577.04
101576.88
101576.72
101576.56
101576.39
101576.21
101576.03
101575.85
101575.66
101575.46
101575.26
101575.05
101574.83
101574.61
101575.36
101575.22
101575.07
101574.92
101574.77
101574.61
101574.45
101574.28
101574.1
101573.93
101573.74
101573.55
101573.36
101573.16
101572.95
101573.46
101573.32
101573.18
101573.04
101572.89
101572.74
101572.58
101572.42
101572.25
101572.08
101571.9
101571.72
101571.53
101571.33
101571.13
101571.64
101571.51
101571.37
101571.23
101571.09
101570.94
101570.79
101570.63
101570.47
101570.3
101570.13
101569.95
101569.77
101569.58
101569.39
101569.89
101569.76
101569.63
101569.5
101569.36
101569.22
101569.07
101568.92
101568.76
101568.6
101568.43
101568.26
101568.09
101567.9
101567.72
101568.22
101568.1
101567.97
101567.84
101567.7
101567.57
101567.42
101567.28
101567.12
101566.97
101566.81
101566.64
101566.47
101566.29
101566.11
101566.62
101566.5
101566.38
101566.25
101566.12
101565.99
101565.85
101565.71
101565.56
101565.41
101565.25
101565.09
101564.92
101564.75
101564.57
101565.1
101564.99
101564.87
101564.75
101564.62
101564.49
101564.35
101564.21
101564.07
101563.92
101563.77
101563.61
101563.45
101563.28
101563.11
101563.67
101563.56
101563.44
101563.32
101563.2
101563.07
101562.94
101562.8
101562.66
101562.52
101562.37
101562.22
101562.06
101561.89
101561.72
101562.34
101562.23
101562.11
101561.99
101561.87
101561.75
101561.62
101561.49
101561.35
101561.21
101561.06
101560.91
101560.75
101560.59
101560.43
101561.09
101560.98
101560.87
101560.75
101560.63
101560.51
101560.38
101560.25
101560.11
101559.97
101559.83
101559.68
101559.53
101559.37
101559.21
101560
101559.9
101559.78
101559.67
101559.55
101559.43
101559.3
101559.17
101559.04
101558.9
101558.76
101558.61
101558.46
101558.31
101558.15
101558.98
101558.87
101558.76
101558.65
101558.53
101558.41
101558.28
101558.16
101558.02
101557.88
101557.74
101557.59
101557.44
101557.29
101557.78
101557.67
101557.56
101557.44
101557.33
101557.2
101557.08
101556.95
101556.82
101556.68
101556.54
101556.39
101556.24
101556.09
99985.848
99988.565
100000.04
100011.28
100021.25
100030.11
100038.03
100045.37
100052.69
100060.57
100069.44
100079.31
100090.09
100101.88
100114.88
100129.11
100144.49
100160.96
100178.43
100012.08
100024.26
100035.36
100042.49
100046.88
100050.13
100053.47
100057.66
100063.14
100070.14
100078.72
100088.74
100099.93
100112.26
100125.83
100140.58
100156.42
100173.27
100014.97
100017.89
100022.88
100026.87
100030.48
100034.43
100039.25
100045.2
100052.46
100061.12
100071.17
100082.53
100095.07
100108.79
100123.69
100139.7
100156.73
100174.68
100009.91
100008.92
100011.4
100015.14
100018.89
100023.06
100028.27
100034.82
100042.86
100052.43
100063.48
100075.93
100089.67
100104.64
100120.79
100138
100156.18
100001.07
99997.903
99998.625
100001.53
100005.07
100009.59
100015.55
100023.16
100032.42
100043.31
100055.73
100069.56
100084.7
100101.05
100118.52
100136.99
100156.34
99987.101
99982.755
99982.643
99985.335
99989.319
99994.736
100001.9
100010.88
100021.61
100034.01
100047.95
100063.3
100079.93
100097.73
100116.56
100136.31
99968.758
99964.077
99963.845
99966.937
99971.862
99978.589
99987.279
99997.902
100010.34
100024.45
100040.08
100057.08
100075.3
100094.6
100114.85
100135.9
99946.175
99941.843
99942.188
99946.332
99952.744
99961.224
99971.804
99984.376
99998.765
100014.79
100032.27
100051.03
100070.92
100091.77
100113.46
99919.369
99916.091
99917.779
99923.671
99932.133
99942.819
99955.659
99970.476
99987.05
100005.17
100024.64
100045.26
100066.87
100089.33
100112.47
99888.341
99886.933
99890.801
99899.163
99910.248
99923.591
99939.048
99956.389
99975.363
99995.745
100017.3
100039.87
100063.26
100087.34
99853.246
99854.633
99861.559
99873.109
99887.372
99903.802
99922.211
99942.326
99963.885
99986.663
100010.4
100034.95
100060.14
100085.87
99814.435
99819.609
99830.469
99845.893
99863.851
99883.759
99905.418
99928.513
99952.808
99978.089
100004.03
100030.62
100057.64
100085.06
99772.472
99782.445
99798.065
99817.982
99840.084
99863.802
99888.963
99915.183
99942.343
99970.216
99998.313
100027.08
100055.96
99728.179
99743.896
99764.979
99789.9
99816.498
99844.306
99873.193
99902.578
99932.751
99963.325
99993.423
100024.58
100055.35
99682.596
99704.849
99731.904
99762.23
99793.536
99825.714
99858.623
99891.001
99924.257
99957.618
99989.621
100022.34
100054.81
99636.982
99666.34
99699.527
99735.719
99771.815
99808.489
99845.775
99880.921
99916.204
99952.001
99986.922
100021.59
99592.651
99629.501
99668.597
99711.379
99752.504
99792.226
99832.682
99871.818
99910.398
99948.457
99985.616
100022.04
99549.792
99594.15
99640.853
99688.348
99734.132
99778.686
99822.436
99864.866
99906.209
99946.469
99985.597
100023.67
99510.597
99562.518
99615.72
99668.279
99718.788
99767.469
99814.502
99859.87
99903.711
99946.084
99987.036
100026.63
99476.009
99535.093
99594.235
99651.704
99706.52
99758.874
99809.013
99857.066
99903.185
99947.486
99990.072
99446.817
99512.534
99577.073
99639.005
99697.665
99753.307
99806.242
99856.68
99904.812
99950.807
99994.813
99423.786
99495.484
99564.767
99630.586
99692.577
99751.069
99806.419
99858.898
99908.743
99956.168
100001.36
99407.568
99484.492
99557.765
99626.81
99691.562
99752.411
99809.749
99863.891
99915.118
99963.684
100009.81
99398.697
99480.007
99556.443
99627.994
99694.886
99757.557
99816.414
99871.809
99924.058
99973.453
100020.24
99397.602
99482.4
99561.118
99634.402
99702.77
99766.688
99826.56
99882.757
99935.64
99985.535
100032.71
99404.625
99491.993
99572.062
99646.255
99715.395
99779.958
99840.309
99896.822
99949.925
100000
100047.37
99419.981
99509.072
99589.518
99663.735
99732.914
99797.571
99857.977
99914.408
99967.337
100017.29
100064.81
99443.529
99533.603
99613.506
99686.918
99755.487
99819.91
99880.515
99937.033
99989.518
100038.84
100085.91
99475.421
99564.913
99643.649
99715.955
99783.484
99847.027
99906.888
99962.405
100013.71
100062.17
100107.89
99514.831
99602.309
99678.578
99749.03
99814.999
99876.583
99934.379
99987.612
100036.21
100082.77
100127.73
99553.133
99640.589
99714.36
99782.06
99845.603
99905.343
99962.326
100013.39
100059.39
100103.72
100145.14
100185.47
99600.184
99684.534
99754.244
99818.333
99878.656
99934.528
99985.413
100035.84
100086.36
100131.9
100173.71
100213.37
99673.577
99750.927
99814.089
99872.252
99927.761
99980.223
100029.36
100076.85
100122.61
100165.38
100205.33
100243.07
99752.491
99824.501
99881.428
99933.683
99983.893
100031.8
100077.2
100120.6
100162.12
100201.57
100238.91
100274.35
99834.047
99901.002
99951.758
99998.172
100043.08
100086.19
100127.31
100166.65
100204.39
100240.49
100274.93
100307.8
100339.23
99921.304
99982.623
100026.7
100066.88
100106.17
100144.19
100180.69
100215.8
100249.62
100282.16
100313.43
100343.44
100372.29
100014.67
100069.78
100106.62
100140.1
100173.38
100205.95
100237.5
100268.07
100297.73
100326.49
100354.33
100381.25
100407.27
100114.05
100162.43
100191.5
100217.8
100244.66
100271.42
100297.68
100323.43
100348.68
100373.41
100397.59
100421.18
100444.19
100466.63
100219.24
100260.43
100281.24
100299.93
100319.98
100340.58
100361.23
100381.86
100402.44
100422.9
100443.19
100463.24
100483.02
100502.51
100329.92
100363.55
100375.69
100386.39
100399.29
100413.39
100428.11
100443.34
100458.98
100474.94
100491.11
100507.41
100523.76
100540.12
100445.72
100471.5
100474.65
100477.04
100482.47
100489.78
100498.3
100507.84
100518.29
100529.51
100541.34
100553.67
100566.4
100579.46
100592.79
100566.24
100583.97
100577.88
100571.69
100569.39
100569.67
100571.72
100575.34
100580.36
100586.59
100593.86
100602.03
100610.94
100620.52
100630.66
100691.05
100700.6
100685.11
100670.15
100659.93
100652.95
100648.34
100645.81
100645.15
100646.18
100648.69
100652.47
100657.37
100663.27
100670.08
100677.69
100819.61
100820.91
100796.05
100772.19
100753.88
100739.49
100728.07
100719.2
100712.63
100708.24
100705.77
100704.99
100705.67
100707.69
100711.01
100715.43
100951.2
100944.06
100910.04
100877.31
100850.82
100828.91
100810.61
100795.35
100782.67
100772.62
100764.98
100759.5
100755.77
100753.69
100753.32
100754.44
100756.87
101085.48
101068.81
101025.91
100984.44
100949.81
100920.34
100895.27
100873.88
100855.02
100839.12
100826.13
100815.86
100807.68
100801.28
100797.05
100794.76
100794.12
101225.58
101196.32
101144.58
101094.49
101051.66
101014.38
100982.67
100955.86
100930.99
100909.1
100890.42
100875.29
100862.75
100851.82
100843.52
100837.66
100833.77
100831.56
101378.77
101335.57
101277.78
101219.96
101168.25
101121.45
101082.55
101049.75
101018.42
100989.83
100964.37
100943.69
100926.55
100910.52
100897.6
100887.75
100879.91
100873.92
101524.22
101481.52
101435.75
101379.24
101321.45
101266.67
101217.29
101172.92
101132.84
101095.46
101060.91
101032.88
101009.17
100986.48
100967.05
100951.19
100938.19
100927.11
100918.1
100065.17
100074.75
100074.27
100074.81
100076.39
100078.86
100082.03
100085.9
100090.57
100096.21
100102.92
100110.72
100119.64
100129.65
100140.79
100153.11
100166.57
100181.09
100196.61
100063.46
100076.2
100079.66
100081.88
100084
100086.62
100089.86
100093.78
100098.48
100104.04
100110.53
100118.01
100126.48
100136.07
100146.96
100159.06
100172.3
100186.57
100201.84